<event>
 5    1  0.1252945E-008  0.3763185E+03  0.7957747E-01  0.3467347E+00
         13   -1    0    0    0    0  0.00000000000E+00  0.00000000000E+00  0.14999999963E+04  0.15000000000E+04  0.10566000000E+00 0.  1.
        994   -1    0    0    0    0 -0.00000000000E+00 -0.00000000000E+00  0.11368683772E-12  0.17120000000E+03  0.17120000000E+03 0.  0.
         13    1    1    2    0    0 -0.10985802968E+02 -0.24741018478E+01  0.77537762256E+01  0.13672646291E+02  0.10566000000E+00 0.  1.
        994    1    1    2    0    0  0.12061952363E+02  0.38225697635E+01  0.65452050684E+01  0.17179168328E+03  0.17120000000E+03 0.  0.
        998    1    1    2    0    0 -0.10761493954E+01 -0.13484679157E+01  0.14857010150E+04  0.14857356704E+04  0.10000000000E+02 0.  1.
</event>
<event>
 5    1  0.1252945E-008  0.3789913E+03  0.7957747E-01  0.3455562E+00
         13   -1    0    0    0    0  0.00000000000E+00  0.00000000000E+00  0.14999999963E+04  0.15000000000E+04  0.10566000000E+00 0.  1.
        994   -1    0    0    0    0 -0.00000000000E+00 -0.00000000000E+00  0.11368683772E-12  0.17120000000E+03  0.17120000000E+03 0.  0.
         13    1    1    2    0    0 -0.24924842920E+02  0.20550498062E+02  0.12228976871E+03  0.12648466097E+03  0.10566000000E+00 0.  1.
        994    1    1    2    0    0 -0.35684254458E+01 -0.64783084827E+01  0.48266985760E+01  0.17142764993E+03  0.17120000000E+03 0.  0.
        998    1    1    2    0    0  0.28493268366E+02 -0.14072189579E+02  0.13728835290E+04  0.13732876891E+04  0.10000000000E+02 0.  1.
</event>
<event>
 5    1  0.1252945E-008  0.3835699E+03  0.7957747E-01  0.3435760E+00
         13   -1    0    0    0    0  0.00000000000E+00  0.00000000000E+00  0.14999999963E+04  0.15000000000E+04  0.10566000000E+00 0. -1.
        994   -1    0    0    0    0 -0.00000000000E+00 -0.00000000000E+00  0.11368683772E-12  0.17120000000E+03  0.17120000000E+03 0.  0.
         13    1    1    2    0    0 -0.33121176974E+01  0.12200313814E+02  0.38861820399E+02  0.40866490301E+02  0.10566000000E+00 0. -1.
        994    1    1    2    0    0 -0.12235611381E+01  0.26993478828E+02  0.47579474026E+01  0.17338461023E+03  0.17120000000E+03 0.  0.
        998    1    1    2    0    0  0.45356788355E+01 -0.39193792642E+02  0.14563802285E+04  0.14569488995E+04  0.10000000000E+02 0. -1.
</event>
<event>
 5    1  0.1252945E-008  0.3807882E+03  0.7957747E-01  0.3447734E+00
         13   -1    0    0    0    0  0.00000000000E+00  0.00000000000E+00  0.14999999963E+04  0.15000000000E+04  0.10566000000E+00 0. -1.
        994   -1    0    0    0    0 -0.00000000000E+00 -0.00000000000E+00  0.11368683772E-12  0.17120000000E+03  0.17120000000E+03 0.  0.
         13    1    1    2    0    0  0.19682397823E+02  0.86142483197E+01  0.61863281697E+02  0.65488005349E+02  0.10566000000E+00 0. -1.
        994    1    1    2    0    0 -0.10346138015E+02  0.26153083757E+01  0.41155868627E+01  0.17158164373E+03  0.17120000000E+03 0.  0.
        998    1    1    2    0    0 -0.93362598076E+01 -0.11229556695E+02  0.14340211277E+04  0.14341303509E+04  0.10000000000E+02 0. -1.
</event>
<event>
 5    1  0.1252945E-008  0.3820080E+03  0.7957747E-01  0.3442462E+00
         13   -1    0    0    0    0  0.00000000000E+00  0.00000000000E+00  0.14999999963E+04  0.15000000000E+04  0.10566000000E+00 0. -1.
        994   -1    0    0    0    0 -0.00000000000E+00 -0.00000000000E+00  0.11368683772E-12  0.17120000000E+03  0.17120000000E+03 0.  0.
         13    1    1    2    0    0 -0.35920608846E+02  0.37456016615E+02  0.67465190947E+02  0.85116428932E+02  0.10566000000E+00 0. -1.
        994    1    1    2    0    0  0.34646562850E+02 -0.42995084453E+02  0.28650006770E+02  0.18215165246E+03  0.17120000000E+03 0.  0.
        998    1    1    2    0    0  0.12740459964E+01  0.55390678378E+01  0.14038847986E+04  0.14039319186E+04  0.10000000000E+02 0. -1.
</event>
<event>
 5    1  0.1252945E-008  0.3784580E+03  0.7957747E-01  0.3457900E+00
         13   -1    0    0    0    0  0.00000000000E+00  0.00000000000E+00  0.14999999963E+04  0.15000000000E+04  0.10566000000E+00 0. -1.
        994   -1    0    0    0    0 -0.00000000000E+00 -0.00000000000E+00  0.11368683772E-12  0.17120000000E+03  0.17120000000E+03 0.  0.
         13    1    1    2    0    0 -0.29594374295E+02 -0.24217320705E+02  0.14423313423E+03  0.14921633217E+03  0.10566000000E+00 0. -1.
        994    1    1    2    0    0  0.12624198020E+02  0.25827144590E+02  0.76953390027E+01  0.17376728695E+03  0.17120000000E+03 0.  0.
        998    1    1    2    0    0  0.16970176274E+02 -0.16098238845E+01  0.13480715230E+04  0.13482163809E+04  0.10000000000E+02 0. -1.
</event>
<event>
 5    1  0.1252945E-008  0.3798824E+03  0.7957747E-01  0.3451671E+00
         13   -1    0    0    0    0  0.00000000000E+00  0.00000000000E+00  0.14999999963E+04  0.15000000000E+04  0.10566000000E+00 0.  1.
        994   -1    0    0    0    0 -0.00000000000E+00 -0.00000000000E+00  0.11368683772E-12  0.17120000000E+03  0.17120000000E+03 0.  0.
         13    1    1    2    0    0 -0.68254749165E+01 -0.12721319783E+02  0.24824625733E+02  0.28717456219E+02  0.10566000000E+00 0.  1.
        994    1    1    2    0    0 -0.77258889302E+01 -0.12508221564E+02  0.49156798543E+01  0.17190040394E+03  0.17120000000E+03 0.  0.
        998    1    1    2    0    0  0.14551363847E+02  0.25229541348E+02  0.14702596907E+04  0.14705821398E+04  0.10000000000E+02 0.  1.
</event>
<event>
 5    1  0.1252945E-008  0.3815210E+03  0.7957747E-01  0.3444563E+00
         13   -1    0    0    0    0  0.00000000000E+00  0.00000000000E+00  0.14999999963E+04  0.15000000000E+04  0.10566000000E+00 0.  1.
        994   -1    0    0    0    0 -0.00000000000E+00 -0.00000000000E+00  0.11368683772E-12  0.17120000000E+03  0.17120000000E+03 0.  0.
         13    1    1    2    0    0 -0.67676601267E+01 -0.10496322791E+02  0.22191609010E+02  0.25464734246E+02  0.10566000000E+00 0.  1.
        994    1    1    2    0    0  0.10734568004E+01  0.29143676145E+01  0.33994326917E+01  0.17126191051E+03  0.17120000000E+03 0.  0.
        998    1    1    2    0    0  0.56942033263E+01  0.75819551761E+01  0.14744089546E+04  0.14744733552E+04  0.10000000000E+02 0.  1.
</event>
<event>
 5    1  0.1252945E-008  0.4048806E+03  0.7957747E-01  0.3349497E+00
         13   -1    0    0    0    0  0.00000000000E+00  0.00000000000E+00  0.14999999963E+04  0.15000000000E+04  0.10566000000E+00 0. -1.
        994   -1    0    0    0    0 -0.00000000000E+00 -0.00000000000E+00  0.11368683772E-12  0.17120000000E+03  0.17120000000E+03 0.  0.
         13    1    1    2    0    0  0.34919116896E+01 -0.55479392702E+02  0.40168500683E+02  0.68583351281E+02  0.10566000000E+00 0. -1.
        994    1    1    2    0    0  0.55055565693E+00  0.37407992189E+02  0.36338539244E+02  0.17896812684E+03  0.17120000000E+03 0.  0.
        998    1    1    2    0    0 -0.40424673465E+01  0.18071400513E+02  0.14234929564E+04  0.14236485219E+04  0.10000000000E+02 0. -1.
</event>
<event>
 5    1  0.1252945E-008  0.3767072E+03  0.7957747E-01  0.3465623E+00
         13   -1    0    0    0    0  0.00000000000E+00  0.00000000000E+00  0.14999999963E+04  0.15000000000E+04  0.10566000000E+00 0. -1.
        994   -1    0    0    0    0 -0.00000000000E+00 -0.00000000000E+00  0.11368683772E-12  0.17120000000E+03  0.17120000000E+03 0.  0.
         13    1    1    2    0    0  0.81076432285E+02  0.57217961087E+02  0.27613777643E+03  0.29342693414E+03  0.10566000000E+00 0. -1.
        994    1    1    2    0    0 -0.79775725013E+02 -0.52569068266E+02  0.47981453263E+02  0.20183986994E+03  0.17120000000E+03 0.  0.
        998    1    1    2    0    0 -0.13007072726E+01 -0.46488928204E+01  0.11758807666E+04  0.11759331959E+04  0.10000000000E+02 0. -1.
</event>
<event>
 5    1  0.1252945E-008  0.3858568E+03  0.7957747E-01  0.3426047E+00
         13   -1    0    0    0    0  0.00000000000E+00  0.00000000000E+00  0.14999999963E+04  0.15000000000E+04  0.10566000000E+00 0.  1.
        994   -1    0    0    0    0 -0.00000000000E+00 -0.00000000000E+00  0.11368683772E-12  0.17120000000E+03  0.17120000000E+03 0.  0.
         13    1    1    2    0    0 -0.96446430353E+01  0.63978080654E+01  0.53066592797E+02  0.54314137409E+02  0.10566000000E+00 0.  1.
        994    1    1    2    0    0  0.15892674789E+02 -0.54428887529E+01  0.21313900286E+01  0.17203541779E+03  0.17120000000E+03 0.  0.
        998    1    1    2    0    0 -0.62480317535E+01 -0.95491931247E+00  0.14448020135E+04  0.14448504448E+04  0.10000000000E+02 0.  1.
</event>
<event>
 5    1  0.1252945E-008  0.3705845E+03  0.7957747E-01  0.3493209E+00
         13   -1    0    0    0    0  0.00000000000E+00  0.00000000000E+00  0.14999999963E+04  0.15000000000E+04  0.10566000000E+00 0.  1.
        994   -1    0    0    0    0 -0.00000000000E+00 -0.00000000000E+00  0.11368683772E-12  0.17120000000E+03  0.17120000000E+03 0.  0.
         13    1    1    2    0    0  0.11930416581E+02  0.76684279467E+01  0.37651399940E+01  0.14674027061E+02  0.10566000000E+00 0.  1.
        994    1    1    2    0    0 -0.15005493073E+02 -0.10813861596E+01  0.12041454372E+02  0.17228108092E+03  0.17120000000E+03 0.  0.
        998    1    1    2    0    0  0.30750764916E+01 -0.65870417871E+01  0.14841934019E+04  0.14842448920E+04  0.10000000000E+02 0.  1.
</event>
<event>
 5    1  0.1252945E-008  0.3762408E+03  0.7957747E-01  0.3467692E+00
         13   -1    0    0    0    0  0.00000000000E+00  0.00000000000E+00  0.14999999963E+04  0.15000000000E+04  0.10566000000E+00 0. -1.
        994   -1    0    0    0    0 -0.00000000000E+00 -0.00000000000E+00  0.11368683772E-12  0.17120000000E+03  0.17120000000E+03 0.  0.
         13    1    1    2    0    0  0.14841599056E+03 -0.38952446621E+02  0.47201246594E+03  0.49632688676E+03  0.10566000000E+00 0. -1.
        994    1    1    2    0    0 -0.15904066129E+03  0.44313091497E+02  0.11935283559E+03  0.26610547042E+03  0.17120000000E+03 0.  0.
        998    1    1    2    0    0  0.10624670730E+02 -0.53606448753E+01  0.90863469475E+03  0.90876764282E+03  0.10000000000E+02 0. -1.
</event>
<event>
 5    1  0.1252945E-008  0.3765336E+03  0.7957747E-01  0.3466392E+00
         13   -1    0    0    0    0  0.00000000000E+00  0.00000000000E+00  0.14999999963E+04  0.15000000000E+04  0.10566000000E+00 0.  1.
        994   -1    0    0    0    0 -0.00000000000E+00 -0.00000000000E+00  0.11368683772E-12  0.17120000000E+03  0.17120000000E+03 0.  0.
         13    1    1    2    0    0 -0.46835096181E+02 -0.24734448595E+02  0.24331541328E+03  0.24901349498E+03  0.10566000000E+00 0.  1.
        994    1    1    2    0    0  0.33068549393E+02 -0.55761249775E+01  0.97058520207E+01  0.17472339767E+03  0.17120000000E+03 0.  0.
        998    1    1    2    0    0  0.13766546789E+02  0.30310573573E+02  0.12469787310E+04  0.12474631074E+04  0.10000000000E+02 0.  1.
</event>
<event>
 5    1  0.1252945E-008  0.3784163E+03  0.7957747E-01  0.3458083E+00
         13   -1    0    0    0    0  0.00000000000E+00  0.00000000000E+00  0.14999999963E+04  0.15000000000E+04  0.10566000000E+00 0. -1.
        994   -1    0    0    0    0 -0.00000000000E+00 -0.00000000000E+00  0.11368683772E-12  0.17120000000E+03  0.17120000000E+03 0.  0.
         13    1    1    2    0    0  0.22701825453E+02  0.42274022817E+02  0.18675758703E+03  0.19282342535E+03  0.10566000000E+00 0. -1.
        994    1    1    2    0    0 -0.30721163220E+02 -0.53253608386E+02  0.17743397788E+02  0.18276762525E+03  0.17120000000E+03 0.  0.
        998    1    1    2    0    0  0.80193377666E+01  0.10979585569E+02  0.12954990115E+04  0.12956089494E+04  0.10000000000E+02 0. -1.
</event>
<event>
 5    1  0.1252945E-008  0.3823779E+03  0.7957747E-01  0.3440869E+00
         13   -1    0    0    0    0  0.00000000000E+00  0.00000000000E+00  0.14999999963E+04  0.15000000000E+04  0.10566000000E+00 0. -1.
        994   -1    0    0    0    0 -0.00000000000E+00 -0.00000000000E+00  0.11368683772E-12  0.17120000000E+03  0.17120000000E+03 0.  0.
         13    1    1    2    0    0 -0.63698949423E+01 -0.29726611515E+02  0.13146797923E+03  0.13493734739E+03  0.10566000000E+00 0. -1.
        994    1    1    2    0    0  0.31007625956E+02  0.39054021959E+02  0.11229785062E+02  0.17866795340E+03  0.17120000000E+03 0.  0.
        998    1    1    2    0    0 -0.24637731013E+02 -0.93274104438E+01  0.13573022320E+04  0.13575946992E+04  0.10000000000E+02 0. -1.
</event>
<event>
 5    1  0.1252945E-008  0.3846773E+03  0.7957747E-01  0.3431042E+00
         13   -1    0    0    0    0  0.00000000000E+00  0.00000000000E+00  0.14999999963E+04  0.15000000000E+04  0.10566000000E+00 0. -1.
        994   -1    0    0    0    0 -0.00000000000E+00 -0.00000000000E+00  0.11368683772E-12  0.17120000000E+03  0.17120000000E+03 0.  0.
         13    1    1    2    0    0 -0.81410444302E+01  0.17639379836E+02  0.97104683645E+02  0.99029061771E+02  0.10566000000E+00 0. -1.
        994    1    1    2    0    0  0.45391332564E+01 -0.23714728167E+02  0.37120590745E+01  0.17293412458E+03  0.17120000000E+03 0.  0.
        998    1    1    2    0    0  0.36019111738E+01  0.60753483316E+01  0.13991832536E+04  0.13992368136E+04  0.10000000000E+02 0. -1.
</event>
<event>
 5    1  0.1252945E-008  0.3851616E+03  0.7957747E-01  0.3428987E+00
         13   -1    0    0    0    0  0.00000000000E+00  0.00000000000E+00  0.14999999963E+04  0.15000000000E+04  0.10566000000E+00 0.  1.
        994   -1    0    0    0    0 -0.00000000000E+00 -0.00000000000E+00  0.11368683772E-12  0.17120000000E+03  0.17120000000E+03 0.  0.
         13    1    1    2    0    0 -0.10279127839E+02  0.98589215419E+01  0.65371017544E+02  0.66904707621E+02  0.10566000000E+00 0.  1.
        994    1    1    2    0    0  0.12102860704E+02 -0.16659392375E+01  0.20406600312E+01  0.17164748435E+03  0.17120000000E+03 0.  0.
        998    1    1    2    0    0 -0.18237328655E+01 -0.81929823045E+01  0.14325883187E+04  0.14326478080E+04  0.10000000000E+02 0.  1.
</event>
<event>
 5    1  0.1252945E-008  0.3778564E+03  0.7957747E-01  0.3460546E+00
         13   -1    0    0    0    0  0.00000000000E+00  0.00000000000E+00  0.14999999963E+04  0.15000000000E+04  0.10566000000E+00 0.  1.
        994   -1    0    0    0    0 -0.00000000000E+00 -0.00000000000E+00  0.11368683772E-12  0.17120000000E+03  0.17120000000E+03 0.  0.
         13    1    1    2    0    0  0.76927745762E+01  0.10818038857E+02  0.14747044703E+02  0.19841754884E+02  0.10566000000E+00 0.  1.
        994    1    1    2    0    0  0.41053403373E+01 -0.94394596887E+01  0.55759653290E+01  0.17159979198E+03  0.17120000000E+03 0.  0.
        998    1    1    2    0    0 -0.11798114913E+02 -0.13785791679E+01  0.14796769862E+04  0.14797584531E+04  0.10000000000E+02 0.  1.
</event>
<event>
 5    1  0.1252945E-008  0.3827304E+03  0.7957747E-01  0.3439355E+00
         13   -1    0    0    0    0  0.00000000000E+00  0.00000000000E+00  0.14999999963E+04  0.15000000000E+04  0.10566000000E+00 0.  1.
        994   -1    0    0    0    0 -0.00000000000E+00 -0.00000000000E+00  0.11368683772E-12  0.17120000000E+03  0.17120000000E+03 0.  0.
         13    1    1    2    0    0 -0.96002343756E+01 -0.32469404720E+02  0.19023048321E+03  0.19322027494E+03  0.10566000000E+00 0.  1.
        994    1    1    2    0    0  0.93249959692E+01  0.28035165753E+02  0.56585512032E+01  0.17382285601E+03  0.17120000000E+03 0.  0.
        998    1    1    2    0    0  0.27523840643E+00  0.44342389666E+01  0.13041109619E+04  0.13041568691E+04  0.10000000000E+02 0.  1.
</event>
<event>
 5    1  0.1252945E-008  0.3842698E+03  0.7957747E-01  0.3432775E+00
         13   -1    0    0    0    0  0.00000000000E+00  0.00000000000E+00  0.14999999963E+04  0.15000000000E+04  0.10566000000E+00 0.  1.
        994   -1    0    0    0    0 -0.00000000000E+00 -0.00000000000E+00  0.11368683772E-12  0.17120000000E+03  0.17120000000E+03 0.  0.
         13    1    1    2    0    0 -0.11171386861E+02  0.21136148632E+01  0.31874899091E+02  0.33842098166E+02  0.10566000000E+00 0.  1.
        994    1    1    2    0    0  0.71134277133E+01 -0.69334151824E+01  0.23184569622E+01  0.17150361029E+03  0.17120000000E+03 0.  0.
        998    1    1    2    0    0  0.40579591477E+01  0.48198003192E+01  0.14658066402E+04  0.14658542915E+04  0.10000000000E+02 0.  1.
</event>
<event>
 5    1  0.1252945E-008  0.3838080E+03  0.7957747E-01  0.3434743E+00
         13   -1    0    0    0    0  0.00000000000E+00  0.00000000000E+00  0.14999999963E+04  0.15000000000E+04  0.10566000000E+00 0. -1.
        994   -1    0    0    0    0 -0.00000000000E+00 -0.00000000000E+00  0.11368683772E-12  0.17120000000E+03  0.17120000000E+03 0.  0.
         13    1    1    2    0    0  0.18029571285E+03  0.14818840365E+03  0.11281781642E+04  0.11520643769E+04  0.10566000000E+00 0. -1.
        994    1    1    2    0    0 -0.19444567403E+03 -0.14165762128E+03  0.22520094887E+03  0.37135011672E+03  0.17120000000E+03 0.  0.
        998    1    1    2    0    0  0.14149961177E+02 -0.65307823690E+01  0.14662088316E+03  0.14778550639E+03  0.10000000000E+02 0.  1.
</event>
<event>
 5    1  0.1252945E-008  0.3836265E+03  0.7957747E-01  0.3435518E+00
         13   -1    0    0    0    0  0.00000000000E+00  0.00000000000E+00  0.14999999963E+04  0.15000000000E+04  0.10566000000E+00 0.  1.
        994   -1    0    0    0    0 -0.00000000000E+00 -0.00000000000E+00  0.11368683772E-12  0.17120000000E+03  0.17120000000E+03 0.  0.
         13    1    1    2    0    0  0.15138936744E+02  0.17903593382E+01  0.49184882825E+02  0.51493268053E+02  0.10566000000E+00 0.  1.
        994    1    1    2    0    0 -0.11659913315E+02 -0.34796376815E+01  0.28028379320E+01  0.17165476212E+03  0.17120000000E+03 0.  0.
        998    1    1    2    0    0 -0.34790234297E+01  0.16892783433E+01  0.14480122755E+04  0.14480519698E+04  0.10000000000E+02 0.  1.
</event>
<event>
 5    1  0.1252945E-008  0.3847987E+03  0.7957747E-01  0.3430527E+00
         13   -1    0    0    0    0  0.00000000000E+00  0.00000000000E+00  0.14999999963E+04  0.15000000000E+04  0.10566000000E+00 0. -1.
        994   -1    0    0    0    0 -0.00000000000E+00 -0.00000000000E+00  0.11368683772E-12  0.17120000000E+03  0.17120000000E+03 0.  0.
         13    1    1    2    0    0  0.82039117254E+02  0.50978261591E+02  0.20123409879E+03  0.22321373971E+03  0.10566000000E+00 0. -1.
        994    1    1    2    0    0 -0.81804342111E+02 -0.62813734345E+02  0.59377432817E+02  0.20850092359E+03  0.17120000000E+03 0.  0.
        998    1    1    2    0    0 -0.23477514337E+00  0.11835472754E+02  0.12393884647E+04  0.12394853367E+04  0.10000000000E+02 0. -1.
</event>
<event>
 5    1  0.1252945E-008  0.3728516E+03  0.7957747E-01  0.3482887E+00
         13   -1    0    0    0    0  0.00000000000E+00  0.00000000000E+00  0.14999999963E+04  0.15000000000E+04  0.10566000000E+00 0.  1.
        994   -1    0    0    0    0 -0.00000000000E+00 -0.00000000000E+00  0.11368683772E-12  0.17120000000E+03  0.17120000000E+03 0.  0.
         13    1    1    2    0    0  0.16754065028E+02  0.12465510857E+02  0.24330177934E+02  0.32063318266E+02  0.10566000000E+00 0.  1.
        994    1    1    2    0    0 -0.17139846106E+02 -0.12512692618E+02  0.93296188895E+01  0.17276233267E+03  0.17120000000E+03 0.  0.
        998    1    1    2    0    0  0.38578107769E+00  0.47181760940E-01  0.14663401995E+04  0.14663743491E+04  0.10000000000E+02 0.  1.
</event>
<event>
 5    1  0.1252945E-008  0.3815304E+03  0.7957747E-01  0.3444522E+00
         13   -1    0    0    0    0  0.00000000000E+00  0.00000000000E+00  0.14999999963E+04  0.15000000000E+04  0.10566000000E+00 0.  1.
        994   -1    0    0    0    0 -0.00000000000E+00 -0.00000000000E+00  0.11368683772E-12  0.17120000000E+03  0.17120000000E+03 0.  0.
         13    1    1    2    0    0  0.19075875030E+02  0.14372146431E+02  0.87007985195E+02  0.90226649350E+02  0.10566000000E+00 0.  1.
        994    1    1    2    0    0 -0.65669673180E+01 -0.38065959435E+01  0.35542808489E+01  0.17140504119E+03  0.17120000000E+03 0.  0.
        998    1    1    2    0    0 -0.12508907712E+02 -0.10565550488E+02  0.14094377302E+04  0.14095683095E+04  0.10000000000E+02 0.  1.
</event>
<event>
 5    1  0.1252945E-008  0.3846195E+03  0.7957747E-01  0.3431288E+00
         13   -1    0    0    0    0  0.00000000000E+00  0.00000000000E+00  0.14999999963E+04  0.15000000000E+04  0.10566000000E+00 0. -1.
        994   -1    0    0    0    0 -0.00000000000E+00 -0.00000000000E+00  0.11368683772E-12  0.17120000000E+03  0.17120000000E+03 0.  0.
         13    1    1    2    0    0 -0.10524081547E+02 -0.13878372646E+02  0.77396634417E+02  0.79332311846E+02  0.10566000000E+00 0. -1.
        994    1    1    2    0    0  0.17044645505E+02  0.15293346729E+02  0.35477969398E+01  0.17276120299E+03  0.17120000000E+03 0.  0.
        998    1    1    2    0    0 -0.65205639579E+01 -0.14149740832E+01  0.14190555649E+04  0.14191064852E+04  0.10000000000E+02 0. -1.
</event>
<event>
 5    1  0.1252945E-008  0.3708784E+03  0.7957747E-01  0.3491864E+00
         13   -1    0    0    0    0  0.00000000000E+00  0.00000000000E+00  0.14999999963E+04  0.15000000000E+04  0.10566000000E+00 0. -1.
        994   -1    0    0    0    0 -0.00000000000E+00 -0.00000000000E+00  0.11368683772E-12  0.17120000000E+03  0.17120000000E+03 0.  0.
         13    1    1    2    0    0  0.40071926484E+02 -0.52046635786E+02  0.25910929999E+03  0.26730554070E+03  0.10566000000E+00 0. -1.
        994    1    1    2    0    0 -0.66653002946E+01  0.29239798029E+02  0.11917345776E+02  0.17421496821E+03  0.17120000000E+03 0.  0.
        998    1    1    2    0    0 -0.33406626189E+02  0.22806837757E+02  0.12289733505E+04  0.12296794911E+04  0.10000000000E+02 0. -1.
</event>
<event>
 5    1  0.1252945E-008  0.3731929E+03  0.7957747E-01  0.3481344E+00
         13   -1    0    0    0    0  0.00000000000E+00  0.00000000000E+00  0.14999999963E+04  0.15000000000E+04  0.10566000000E+00 0. -1.
        994   -1    0    0    0    0 -0.00000000000E+00 -0.00000000000E+00  0.11368683772E-12  0.17120000000E+03  0.17120000000E+03 0.  0.
         13    1    1    2    0    0  0.23393169858E+02 -0.12109733248E+02  0.45708421399E+02  0.52755634639E+02  0.10566000000E+00 0. -1.
        994    1    1    2    0    0  0.81191957458E+00 -0.12732995562E+02  0.81665776422E+01  0.17186890754E+03  0.17120000000E+03 0.  0.
        998    1    1    2    0    0 -0.24205089432E+02  0.24842728809E+02  0.14461249972E+04  0.14465754578E+04  0.10000000000E+02 0. -1.
</event>
<event>
 5    1  0.1252945E-008  0.3729936E+03  0.7957747E-01  0.3482245E+00
         13   -1    0    0    0    0  0.00000000000E+00  0.00000000000E+00  0.14999999963E+04  0.15000000000E+04  0.10566000000E+00 0.  1.
        994   -1    0    0    0    0 -0.00000000000E+00 -0.00000000000E+00  0.11368683772E-12  0.17120000000E+03  0.17120000000E+03 0.  0.
         13    1    1    2    0    0 -0.62647363623E+01  0.44487416041E+02  0.13130716714E+03  0.13878025946E+03  0.10566000000E+00 0.  1.
        994    1    1    2    0    0 -0.13291184954E+03 -0.51591275059E+02  0.80833088391E+02  0.23700347590E+03  0.17120000000E+03 0.  0.
        998    1    1    2    0    0  0.13917658590E+03  0.71038590175E+01  0.12878597407E+04  0.12954162646E+04  0.10000000000E+02 0.  1.
</event>
<event>
 5    1  0.1252945E-008  0.3751564E+03  0.7957747E-01  0.3472524E+00
         13   -1    0    0    0    0  0.00000000000E+00  0.00000000000E+00  0.14999999963E+04  0.15000000000E+04  0.10566000000E+00 0.  1.
        994   -1    0    0    0    0 -0.00000000000E+00 -0.00000000000E+00  0.11368683772E-12  0.17120000000E+03  0.17120000000E+03 0.  0.
         13    1    1    2    0    0 -0.11586096590E+02 -0.83592448049E+02  0.39643330954E+03  0.40531631485E+03  0.10566000000E+00 0.  1.
        994    1    1    2    0    0  0.50139616999E+02  0.79911288188E+02  0.37462411069E+02  0.19902931296E+03  0.17120000000E+03 0.  0.
        998    1    1    2    0    0 -0.38553520409E+02  0.36811598608E+01  0.10661042757E+04  0.10668543722E+04  0.10000000000E+02 0. -1.
</event>
<event>
 5    1  0.1252945E-008  0.3821762E+03  0.7957747E-01  0.3441737E+00
         13   -1    0    0    0    0  0.00000000000E+00  0.00000000000E+00  0.14999999963E+04  0.15000000000E+04  0.10566000000E+00 0. -1.
        994   -1    0    0    0    0 -0.00000000000E+00 -0.00000000000E+00  0.11368683772E-12  0.17120000000E+03  0.17120000000E+03 0.  0.
         13    1    1    2    0    0 -0.72468568038E+01 -0.24160538194E+02  0.97880252820E+02  0.10107820534E+03  0.10566000000E+00 0. -1.
        994    1    1    2    0    0  0.99326164032E+01  0.23694712918E+02  0.52325800509E+01  0.17319617831E+03  0.17120000000E+03 0.  0.
        998    1    1    2    0    0 -0.26857595994E+01  0.46582527628E+00  0.13968871634E+04  0.13969256163E+04  0.10000000000E+02 0. -1.
</event>
<event>
 5    1  0.1252945E-008  0.3749331E+03  0.7957747E-01  0.3473522E+00
         13   -1    0    0    0    0  0.00000000000E+00  0.00000000000E+00  0.14999999963E+04  0.15000000000E+04  0.10566000000E+00 0. -1.
        994   -1    0    0    0    0 -0.00000000000E+00 -0.00000000000E+00  0.11368683772E-12  0.17120000000E+03  0.17120000000E+03 0.  0.
         13    1    1    2    0    0  0.37657677015E+02 -0.28774216334E+02  0.78447337444E+02  0.91651798018E+02  0.10566000000E+00 0. -1.
        994    1    1    2    0    0 -0.23961299364E+02  0.17315718525E+02  0.16686819624E+02  0.17453328601E+03  0.17120000000E+03 0.  0.
        998    1    1    2    0    0 -0.13696377651E+02  0.11458497809E+02  0.14048658392E+04  0.14050149160E+04  0.10000000000E+02 0. -1.
</event>
<event>
 5    1  0.1252945E-008  0.3750778E+03  0.7957747E-01  0.3472875E+00
         13   -1    0    0    0    0  0.00000000000E+00  0.00000000000E+00  0.14999999963E+04  0.15000000000E+04  0.10566000000E+00 0.  1.
        994   -1    0    0    0    0 -0.00000000000E+00 -0.00000000000E+00  0.11368683772E-12  0.17120000000E+03  0.17120000000E+03 0.  0.
         13    1    1    2    0    0  0.39066387178E+02 -0.82143843902E+02  0.25362611619E+03  0.26944389337E+03  0.10566000000E+00 0.  1.
        994    1    1    2    0    0 -0.40834443194E+02  0.76076715008E+02  0.40685716252E+02  0.19600991257E+03  0.17120000000E+03 0.  0.
        998    1    1    2    0    0  0.17680560159E+01  0.60671288941E+01  0.12056881638E+04  0.12057461941E+04  0.10000000000E+02 0.  1.
</event>
<event>
 5    1  0.1252945E-008  0.3850442E+03  0.7957747E-01  0.3429485E+00
         13   -1    0    0    0    0  0.00000000000E+00  0.00000000000E+00  0.14999999963E+04  0.15000000000E+04  0.10566000000E+00 0. -1.
        994   -1    0    0    0    0 -0.00000000000E+00 -0.00000000000E+00  0.11368683772E-12  0.17120000000E+03  0.17120000000E+03 0.  0.
         13    1    1    2    0    0  0.10451813353E+02  0.13891135651E+02  0.93783029512E+02  0.95380668065E+02  0.10566000000E+00 0. -1.
        994    1    1    2    0    0 -0.24125871935E+02  0.28350662316E+01  0.35509221209E+01  0.17295127737E+03  0.17120000000E+03 0.  0.
        998    1    1    2    0    0  0.13674058582E+02 -0.16726201883E+02  0.14026660446E+04  0.14028680546E+04  0.10000000000E+02 0. -1.
</event>
<event>
 5    1  0.1252945E-008  0.3857441E+03  0.7957747E-01  0.3426522E+00
         13   -1    0    0    0    0  0.00000000000E+00  0.00000000000E+00  0.14999999963E+04  0.15000000000E+04  0.10566000000E+00 0. -1.
        994   -1    0    0    0    0 -0.00000000000E+00 -0.00000000000E+00  0.11368683772E-12  0.17120000000E+03  0.17120000000E+03 0.  0.
         13    1    1    2    0    0 -0.97589477709E+00 -0.12742422579E+02  0.63886026972E+02  0.65151802048E+02  0.10566000000E+00 0. -1.
        994    1    1    2    0    0 -0.44408170489E+01  0.11942377910E+02  0.17939270458E+01  0.17168284545E+03  0.17120000000E+03 0.  0.
        998    1    1    2    0    0  0.54167118260E+01  0.80004466890E+00  0.14343200423E+04  0.14343653525E+04  0.10000000000E+02 0. -1.
</event>
<event>
 5    1  0.1252945E-008  0.3846281E+03  0.7957747E-01  0.3431251E+00
         13   -1    0    0    0    0  0.00000000000E+00  0.00000000000E+00  0.14999999963E+04  0.15000000000E+04  0.10566000000E+00 0. -1.
        994   -1    0    0    0    0 -0.00000000000E+00 -0.00000000000E+00  0.11368683772E-12  0.17120000000E+03  0.17120000000E+03 0.  0.
         13    1    1    2    0    0 -0.13051614710E+02 -0.56117205107E+00  0.48203040839E+02  0.49942005073E+02  0.10566000000E+00 0. -1.
        994    1    1    2    0    0  0.29881388868E+01  0.44226361338E+00  0.18449568480E+01  0.17123658615E+03  0.17120000000E+03 0.  0.
        998    1    1    2    0    0  0.10063475824E+02  0.11890843769E+00  0.14499519986E+04  0.14500214088E+04  0.10000000000E+02 0. -1.
</event>
<event>
 5    1  0.1252945E-008  0.3790237E+03  0.7957747E-01  0.3455421E+00
         13   -1    0    0    0    0  0.00000000000E+00  0.00000000000E+00  0.14999999963E+04  0.15000000000E+04  0.10566000000E+00 0.  1.
        994   -1    0    0    0    0 -0.00000000000E+00 -0.00000000000E+00  0.11368683772E-12  0.17120000000E+03  0.17120000000E+03 0.  0.
         13    1    1    2    0    0  0.16204229533E+02  0.11748448164E+02  0.41247431335E+02  0.45847190152E+02  0.10566000000E+00 0.  1.
        994    1    1    2    0    0 -0.87933656486E+01 -0.13574032712E+02  0.55045367415E+01  0.17205033440E+03  0.17120000000E+03 0.  0.
        998    1    1    2    0    0 -0.74108638841E+01  0.18255845477E+01  0.14532480282E+04  0.14533024754E+04  0.10000000000E+02 0.  1.
</event>
<event>
 5    1  0.1252945E-008  0.3839582E+03  0.7957747E-01  0.3434103E+00
         13   -1    0    0    0    0  0.00000000000E+00  0.00000000000E+00  0.14999999963E+04  0.15000000000E+04  0.10566000000E+00 0.  1.
        994   -1    0    0    0    0 -0.00000000000E+00 -0.00000000000E+00  0.11368683772E-12  0.17120000000E+03  0.17120000000E+03 0.  0.
         13    1    1    2    0    0 -0.62185833234E+01 -0.98762461362E+01  0.31676190686E+02  0.33758009964E+02  0.10566000000E+00 0.  1.
        994    1    1    2    0    0  0.77418238662E+01 -0.75147889592E+00  0.23479228033E+01  0.17139268741E+03  0.17120000000E+03 0.  0.
        998    1    1    2    0    0 -0.15232405427E+01  0.10627725032E+02  0.14659758828E+04  0.14660493026E+04  0.10000000000E+02 0.  1.
</event>
<event>
 5    1  0.1252945E-008  0.3781654E+03  0.7957747E-01  0.3459186E+00
         13   -1    0    0    0    0  0.00000000000E+00  0.00000000000E+00  0.14999999963E+04  0.15000000000E+04  0.10566000000E+00 0.  1.
        994   -1    0    0    0    0 -0.00000000000E+00 -0.00000000000E+00  0.11368683772E-12  0.17120000000E+03  0.17120000000E+03 0.  0.
         13    1    1    2    0    0 -0.16347128462E+02 -0.80234644510E+02  0.45639064823E+03  0.46367797203E+03  0.10566000000E+00 0.  1.
        994    1    1    2    0    0  0.92952288493E+01  0.81869766826E+02  0.28246653064E+02  0.19208428725E+03  0.17120000000E+03 0.  0.
        998    1    1    2    0    0  0.70518996131E+01 -0.16351223159E+01  0.10153626950E+04  0.10154377407E+04  0.10000000000E+02 0.  1.
</event>
<event>
 5    1  0.1252945E-008  0.3843070E+03  0.7957747E-01  0.3432616E+00
         13   -1    0    0    0    0  0.00000000000E+00  0.00000000000E+00  0.14999999963E+04  0.15000000000E+04  0.10566000000E+00 0.  1.
        994   -1    0    0    0    0 -0.00000000000E+00 -0.00000000000E+00  0.11368683772E-12  0.17120000000E+03  0.17120000000E+03 0.  0.
         13    1    1    2    0    0 -0.10226412869E+02  0.71126626700E+01  0.39733882563E+02  0.41640870283E+02  0.10566000000E+00 0.  1.
        994    1    1    2    0    0  0.57752914326E+01  0.18485561221E+01  0.20957793808E+01  0.17132017815E+03  0.17120000000E+03 0.  0.
        998    1    1    2    0    0  0.44511214366E+01 -0.89612187921E+01  0.14581703343E+04  0.14582389516E+04  0.10000000000E+02 0.  1.
</event>
<event>
 5    1  0.1252945E-008  0.3813274E+03  0.7957747E-01  0.3445399E+00
         13   -1    0    0    0    0  0.00000000000E+00  0.00000000000E+00  0.14999999963E+04  0.15000000000E+04  0.10566000000E+00 0. -1.
        994   -1    0    0    0    0 -0.00000000000E+00 -0.00000000000E+00  0.11368683772E-12  0.17120000000E+03  0.17120000000E+03 0.  0.
         13    1    1    2    0    0  0.70364984604E+01  0.27587090306E+02  0.11338486560E+03  0.11690465677E+03  0.10566000000E+00 0. -1.
        994    1    1    2    0    0 -0.24106255183E+02 -0.15725795512E+02  0.62266995959E+01  0.17371420199E+03  0.17120000000E+03 0.  0.
        998    1    1    2    0    0  0.17069756722E+02 -0.11861294794E+02  0.13803884311E+04  0.13805811412E+04  0.10000000000E+02 0. -1.
</event>
<event>
 5    1  0.1252945E-008  0.3889841E+03  0.7957747E-01  0.3412949E+00
         13   -1    0    0    0    0  0.00000000000E+00  0.00000000000E+00  0.14999999963E+04  0.15000000000E+04  0.10566000000E+00 0.  1.
        994   -1    0    0    0    0 -0.00000000000E+00 -0.00000000000E+00  0.11368683772E-12  0.17120000000E+03  0.17120000000E+03 0.  0.
         13    1    1    2    0    0  0.10108296916E+03 -0.21527614496E+01  0.16084293104E+03  0.18998121135E+03  0.10566000000E+00 0.  1.
        994    1    1    2    0    0 -0.15733619617E+03  0.56047375673E+02  0.13528288847E+03  0.27478516491E+03  0.17120000000E+03 0.  0.
        998    1    1    2    0    0  0.56253227005E+02 -0.53894614223E+02  0.12038741768E+04  0.12064336237E+04  0.10000000000E+02 0.  1.
</event>
<event>
 5    1  0.1252945E-008  0.3725635E+03  0.7957747E-01  0.3484192E+00
         13   -1    0    0    0    0  0.00000000000E+00  0.00000000000E+00  0.14999999963E+04  0.15000000000E+04  0.10566000000E+00 0.  1.
        994   -1    0    0    0    0 -0.00000000000E+00 -0.00000000000E+00  0.11368683772E-12  0.17120000000E+03  0.17120000000E+03 0.  0.
         13    1    1    2    0    0  0.21350166361E+02  0.30475026805E+02  0.78101409974E+02  0.86512416833E+02  0.10566000000E+00 0.  1.
        994    1    1    2    0    0 -0.24636135612E+02 -0.37793918267E+02  0.14943458421E+02  0.17767404533E+03  0.17120000000E+03 0.  0.
        998    1    1    2    0    0  0.32859692510E+01  0.73188914616E+01  0.14069551279E+04  0.14070135378E+04  0.10000000000E+02 0.  1.
</event>
<event>
 5    1  0.1252945E-008  0.3762026E+03  0.7957747E-01  0.3467862E+00
         13   -1    0    0    0    0  0.00000000000E+00  0.00000000000E+00  0.14999999963E+04  0.15000000000E+04  0.10566000000E+00 0. -1.
        994   -1    0    0    0    0 -0.00000000000E+00 -0.00000000000E+00  0.11368683772E-12  0.17120000000E+03  0.17120000000E+03 0.  0.
         13    1    1    2    0    0  0.55980672441E+02  0.20784960813E+02  0.25310917520E+03  0.26005790897E+03  0.10566000000E+00 0. -1.
        994    1    1    2    0    0 -0.49905248647E+02 -0.22783572614E+02  0.16320293135E+02  0.18051431243E+03  0.17120000000E+03 0.  0.
        998    1    1    2    0    0 -0.60754237936E+01  0.19986118009E+01  0.12305705279E+04  0.12306277786E+04  0.10000000000E+02 0. -1.
</event>
<event>
 5    1  0.1252945E-008  0.3838801E+03  0.7957747E-01  0.3434436E+00
         13   -1    0    0    0    0  0.00000000000E+00  0.00000000000E+00  0.14999999963E+04  0.15000000000E+04  0.10566000000E+00 0. -1.
        994   -1    0    0    0    0 -0.00000000000E+00 -0.00000000000E+00  0.11368683772E-12  0.17120000000E+03  0.17120000000E+03 0.  0.
         13    1    1    2    0    0  0.11506612183E+02  0.79748401129E+01  0.43175220578E+02  0.45388446049E+02  0.10566000000E+00 0. -1.
        994    1    1    2    0    0 -0.17864966830E+02 -0.40575751855E+00  0.32418282174E+01  0.17216059691E+03  0.17120000000E+03 0.  0.
        998    1    1    2    0    0  0.63583546470E+01 -0.75690825944E+01  0.14535829475E+04  0.14536509570E+04  0.10000000000E+02 0. -1.
</event>
<event>
 5    1  0.1252945E-008  0.3843498E+03  0.7957747E-01  0.3432434E+00
         13   -1    0    0    0    0  0.00000000000E+00  0.00000000000E+00  0.14999999963E+04  0.15000000000E+04  0.10566000000E+00 0. -1.
        994   -1    0    0    0    0 -0.00000000000E+00 -0.00000000000E+00  0.11368683772E-12  0.17120000000E+03  0.17120000000E+03 0.  0.
         13    1    1    2    0    0  0.17636042957E+01 -0.15694213742E+02  0.64782379746E+02  0.66679731064E+02  0.10566000000E+00 0. -1.
        994    1    1    2    0    0  0.11680146364E+01  0.72269024835E+01  0.21299339421E+01  0.17136968517E+03  0.17120000000E+03 0.  0.
        998    1    1    2    0    0 -0.29316189320E+01  0.84673112583E+01  0.14330876826E+04  0.14331505838E+04  0.10000000000E+02 0. -1.
</event>
<event>
 5    1  0.1252945E-008  0.4311614E+03  0.7957747E-01  0.3254754E+00
         13   -1    0    0    0    0  0.00000000000E+00  0.00000000000E+00  0.14999999963E+04  0.15000000000E+04  0.10566000000E+00 0. -1.
        994   -1    0    0    0    0 -0.00000000000E+00 -0.00000000000E+00  0.11368683772E-12  0.17120000000E+03  0.17120000000E+03 0.  0.
         13    1    1    2    0    0  0.53459742093E+02  0.46669796371E+02  0.33256833382E+02  0.78371181238E+02  0.10566000000E+00 0. -1.
        994    1    1    2    0    0 -0.82627964510E+02 -0.42872136930E+02  0.88142839711E+02  0.21387847212E+03  0.17120000000E+03 0.  0.
        998    1    1    2    0    0  0.29168222416E+02 -0.37976594413E+01  0.13786003232E+04  0.13789503466E+04  0.10000000000E+02 0. -1.
</event>
<event>
 5    1  0.1252945E-008  0.3745664E+03  0.7957747E-01  0.3475164E+00
         13   -1    0    0    0    0  0.00000000000E+00  0.00000000000E+00  0.14999999963E+04  0.15000000000E+04  0.10566000000E+00 0.  1.
        994   -1    0    0    0    0 -0.00000000000E+00 -0.00000000000E+00  0.11368683772E-12  0.17120000000E+03  0.17120000000E+03 0.  0.
         13    1    1    2    0    0  0.49030384630E+02  0.66065309172E+02  0.34210230872E+03  0.35185594281E+03  0.10566000000E+00 0.  1.
        994    1    1    2    0    0 -0.60594714554E+02 -0.71125465524E+02  0.37229148185E+02  0.19855981656E+03  0.17120000000E+03 0.  0.
        998    1    1    2    0    0  0.11564329924E+02  0.50601563513E+01  0.11206685394E+04  0.11207842406E+04  0.10000000000E+02 0.  1.
</event>
<event>
 5    1  0.2440282E-008  0.3853482E+03  0.7957747E-01  0.3428197E+00
         13   -1    0    0    0    0  0.00000000000E+00  0.00000000000E+00  0.14999999963E+04  0.15000000000E+04  0.10566000000E+00 0.  1.
        994   -1    0    0    0    0 -0.00000000000E+00 -0.00000000000E+00  0.11368683772E-12  0.17120000000E+03  0.17120000000E+03 0.  0.
         13    1    1    2    0    0  0.80157939201E+01 -0.68709667321E+01  0.37410188704E+02  0.38871538675E+02  0.10566000000E+00 0.  1.
        994    1    1    2    0    0 -0.80737293279E+01  0.82933978303E+01  0.18975703914E+01  0.17160130048E+03  0.17120000000E+03 0.  0.
        998    1    1    2    0    0  0.57935407837E-01 -0.14224310981E+01  0.14606922372E+04  0.14607271608E+04  0.10000000000E+02 0.  1.
</event>
<event>
 5    1  0.1252945E-008  0.3860972E+03  0.7957747E-01  0.3425032E+00
         13   -1    0    0    0    0  0.00000000000E+00  0.00000000000E+00  0.14999999963E+04  0.15000000000E+04  0.10566000000E+00 0.  1.
        994   -1    0    0    0    0 -0.00000000000E+00 -0.00000000000E+00  0.11368683772E-12  0.17120000000E+03  0.17120000000E+03 0.  0.
         13    1    1    2    0    0 -0.81404678658E+01  0.89646549948E+01  0.66786536865E+02  0.67875510508E+02  0.10566000000E+00 0.  1.
        994    1    1    2    0    0  0.63882746384E+01 -0.91918954371E+01  0.14970732777E+01  0.17157209045E+03  0.17120000000E+03 0.  0.
        998    1    1    2    0    0  0.17521932274E+01  0.22724044230E+00  0.14317163861E+04  0.14317523990E+04  0.10000000000E+02 0.  1.
</event>
<event>
 5    1  0.1252945E-008  0.3854112E+03  0.7957747E-01  0.3427930E+00
         13   -1    0    0    0    0  0.00000000000E+00  0.00000000000E+00  0.14999999963E+04  0.15000000000E+04  0.10566000000E+00 0. -1.
        994   -1    0    0    0    0 -0.00000000000E+00 -0.00000000000E+00  0.11368683772E-12  0.17120000000E+03  0.17120000000E+03 0.  0.
         13    1    1    2    0    0 -0.47764860325E+01 -0.13449493392E+02  0.78632623617E+02  0.79917484646E+02  0.10566000000E+00 0. -1.
        994    1    1    2    0    0  0.96109157052E+00 -0.33181473894E+01  0.14653142633E+01  0.17124111932E+03  0.17120000000E+03 0.  0.
        998    1    1    2    0    0  0.38153944620E+01  0.16767640782E+02  0.14199020584E+04  0.14200413960E+04  0.10000000000E+02 0. -1.
</event>
<event>
 5    1  0.1252945E-008  0.3786339E+03  0.7957747E-01  0.3457129E+00
         13   -1    0    0    0    0  0.00000000000E+00  0.00000000000E+00  0.14999999963E+04  0.15000000000E+04  0.10566000000E+00 0.  1.
        994   -1    0    0    0    0 -0.00000000000E+00 -0.00000000000E+00  0.11368683772E-12  0.17120000000E+03  0.17120000000E+03 0.  0.
         13    1    1    2    0    0 -0.10616986577E+03  0.12173126187E+03  0.88113963212E+03  0.89582230546E+03  0.10566000000E+00 0.  1.
        994    1    1    2    0    0  0.10699970620E+03 -0.12599115247E+03  0.10284542513E+03  0.25924762120E+03  0.17120000000E+03 0.  0.
        998    1    1    2    0    0 -0.82984042652E+00  0.42598905953E+01  0.51601493903E+03  0.51613007334E+03  0.10000000000E+02 0.  1.
</event>
<event>
 5    1  0.1252945E-008  0.3754906E+03  0.7957747E-01  0.3471031E+00
         13   -1    0    0    0    0  0.00000000000E+00  0.00000000000E+00  0.14999999963E+04  0.15000000000E+04  0.10566000000E+00 0.  1.
        994   -1    0    0    0    0 -0.00000000000E+00 -0.00000000000E+00  0.11368683772E-12  0.17120000000E+03  0.17120000000E+03 0.  0.
         13    1    1    2    0    0  0.17064419221E+02  0.56285777564E+02  0.21237370090E+03  0.22036760914E+03  0.10566000000E+00 0.  1.
        994    1    1    2    0    0 -0.19826588627E+02 -0.68517665826E+02  0.23893253012E+02  0.18699757134E+03  0.17120000000E+03 0.  0.
        998    1    1    2    0    0  0.27621694065E+01  0.12231888262E+02  0.12637330424E+04  0.12638348195E+04  0.10000000000E+02 0.  1.
</event>
<event>
 5    1  0.1252945E-008  0.3691895E+03  0.7957747E-01  0.3499624E+00
         13   -1    0    0    0    0  0.00000000000E+00  0.00000000000E+00  0.14999999963E+04  0.15000000000E+04  0.10566000000E+00 0.  1.
        994   -1    0    0    0    0 -0.00000000000E+00 -0.00000000000E+00  0.11368683772E-12  0.17120000000E+03  0.17120000000E+03 0.  0.
         13    1    1    2    0    0 -0.19100781133E+02 -0.64062336810E+02  0.25030445378E+03  0.25907750497E+03  0.10566000000E+00 0.  1.
        994    1    1    2    0    0  0.19239200802E+01  0.23092750548E+02  0.11557441601E+02  0.17314731027E+03  0.17120000000E+03 0.  0.
        998    1    1    2    0    0  0.17176861053E+02  0.40969586262E+02  0.12381381009E+04  0.12389751848E+04  0.10000000000E+02 0.  1.
</event>
<event>
 5    1  0.1252945E-008  0.3689890E+03  0.7957747E-01  0.3500550E+00
         13   -1    0    0    0    0  0.00000000000E+00  0.00000000000E+00  0.14999999963E+04  0.15000000000E+04  0.10566000000E+00 0. -1.
        994   -1    0    0    0    0 -0.00000000000E+00 -0.00000000000E+00  0.11368683772E-12  0.17120000000E+03  0.17120000000E+03 0.  0.
         13    1    1    2    0    0 -0.34507648235E+02  0.37831330157E+02  0.11658830584E+03  0.12733747111E+03  0.10566000000E+00 0. -1.
        994    1    1    2    0    0  0.28010622530E+02 -0.34790208830E+02  0.17387371349E+02  0.17778277275E+03  0.17120000000E+03 0.  0.
        998    1    1    2    0    0  0.64970257047E+01 -0.30411213267E+01  0.13660243191E+04  0.13660797561E+04  0.10000000000E+02 0. -1.
</event>
<event>
 5    1  0.1252945E-008  0.3834425E+03  0.7957747E-01  0.3436305E+00
         13   -1    0    0    0    0  0.00000000000E+00  0.00000000000E+00  0.14999999963E+04  0.15000000000E+04  0.10566000000E+00 0.  1.
        994   -1    0    0    0    0 -0.00000000000E+00 -0.00000000000E+00  0.11368683772E-12  0.17120000000E+03  0.17120000000E+03 0.  0.
         13    1    1    2    0    0  0.32050541458E+01  0.24230718005E+02  0.13042491952E+03  0.13269540634E+03  0.10566000000E+00 0.  1.
        994    1    1    2    0    0  0.28129090162E+01 -0.82214284377E+01  0.26549836728E+01  0.17144093234E+03  0.17120000000E+03 0.  0.
        998    1    1    2    0    0 -0.60179631620E+01 -0.16009289567E+02  0.13669200931E+04  0.13670636613E+04  0.10000000000E+02 0.  1.
</event>
<event>
 5    1  0.1252945E-008  0.3811390E+03  0.7957747E-01  0.3446214E+00
         13   -1    0    0    0    0  0.00000000000E+00  0.00000000000E+00  0.14999999963E+04  0.15000000000E+04  0.10566000000E+00 0.  1.
        994   -1    0    0    0    0 -0.00000000000E+00 -0.00000000000E+00  0.11368683772E-12  0.17120000000E+03  0.17120000000E+03 0.  0.
         13    1    1    2    0    0  0.15185235499E+02  0.19851348677E+02  0.94818479159E+02  0.98057241321E+02  0.10566000000E+00 0.  1.
        994    1    1    2    0    0 -0.11231101813E+02  0.10099819965E+02  0.43194590013E+01  0.17191928844E+03  0.17120000000E+03 0.  0.
        998    1    1    2    0    0 -0.39541336863E+01 -0.29951168642E+02  0.14008620581E+04  0.14012234702E+04  0.10000000000E+02 0.  1.
</event>
<event>
 5    1  0.1252945E-008  0.3818294E+03  0.7957747E-01  0.3443231E+00
         13   -1    0    0    0    0  0.00000000000E+00  0.00000000000E+00  0.14999999963E+04  0.15000000000E+04  0.10566000000E+00 0. -1.
        994   -1    0    0    0    0 -0.00000000000E+00 -0.00000000000E+00  0.11368683772E-12  0.17120000000E+03  0.17120000000E+03 0.  0.
         13    1    1    2    0    0 -0.18693054063E+02 -0.74578430294E+01  0.52935703089E+02  0.56632583540E+02  0.10566000000E+00 0. -1.
        994    1    1    2    0    0  0.52527431292E+02  0.44084160308E+01  0.12500809954E+02  0.17956691070E+03  0.17120000000E+03 0.  0.
        998    1    1    2    0    0 -0.33834377228E+02  0.30494269986E+01  0.14345634832E+04  0.14350005058E+04  0.10000000000E+02 0. -1.
</event>
<event>
 5    1  0.1252945E-008  0.3774585E+03  0.7957747E-01  0.3462300E+00
         13   -1    0    0    0    0  0.00000000000E+00  0.00000000000E+00  0.14999999963E+04  0.15000000000E+04  0.10566000000E+00 0. -1.
        994   -1    0    0    0    0 -0.00000000000E+00 -0.00000000000E+00  0.11368683772E-12  0.17120000000E+03  0.17120000000E+03 0.  0.
         13    1    1    2    0    0 -0.15835657187E+03  0.46409827060E+01  0.92772765847E+03  0.94115724617E+03  0.10566000000E+00 0. -1.
        994    1    1    2    0    0  0.15159735920E+03 -0.22912924815E+02  0.89274044576E+02  0.24654828427E+03  0.17120000000E+03 0.  0.
        998    1    1    2    0    0  0.67592126671E+01  0.18271942108E+02  0.48299829323E+03  0.48349446956E+03  0.10000000000E+02 0. -1.
</event>
<event>
 5    1  0.1252945E-008  0.3833991E+03  0.7957747E-01  0.3436490E+00
         13   -1    0    0    0    0  0.00000000000E+00  0.00000000000E+00  0.14999999963E+04  0.15000000000E+04  0.10566000000E+00 0.  1.
        994   -1    0    0    0    0 -0.00000000000E+00 -0.00000000000E+00  0.11368683772E-12  0.17120000000E+03  0.17120000000E+03 0.  0.
         13    1    1    2    0    0  0.14178371478E+02 -0.10882172853E+02  0.64681983502E+02  0.67106021023E+02  0.10566000000E+00 0.  1.
        994    1    1    2    0    0 -0.70031388552E+01  0.12285952914E+02  0.30884516538E+01  0.17181084694E+03  0.17120000000E+03 0.  0.
        998    1    1    2    0    0 -0.71752326223E+01 -0.14037800614E+01  0.14322295611E+04  0.14322831320E+04  0.10000000000E+02 0.  1.
</event>
<event>
 5    1  0.1252945E-008  0.3744129E+03  0.7957747E-01  0.3475853E+00
         13   -1    0    0    0    0  0.00000000000E+00  0.00000000000E+00  0.14999999963E+04  0.15000000000E+04  0.10566000000E+00 0. -1.
        994   -1    0    0    0    0 -0.00000000000E+00 -0.00000000000E+00  0.11368683772E-12  0.17120000000E+03  0.17120000000E+03 0.  0.
         13    1    1    2    0    0  0.49194705486E+02  0.32261898284E+02  0.11735853643E+03  0.13127827835E+03  0.10566000000E+00 0. -1.
        994    1    1    2    0    0 -0.39717643638E+02 -0.42955011151E+02  0.25546578335E+02  0.18271478283E+03  0.17120000000E+03 0.  0.
        998    1    1    2    0    0 -0.94770618483E+01  0.10693112867E+02  0.13570948815E+04  0.13572069388E+04  0.10000000000E+02 0. -1.
</event>
<event>
 5    1  0.1252945E-008  0.3902110E+03  0.7957747E-01  0.3407868E+00
         13   -1    0    0    0    0  0.00000000000E+00  0.00000000000E+00  0.14999999963E+04  0.15000000000E+04  0.10566000000E+00 0. -1.
        994   -1    0    0    0    0 -0.00000000000E+00 -0.00000000000E+00  0.11368683772E-12  0.17120000000E+03  0.17120000000E+03 0.  0.
         13    1    1    2    0    0  0.33020154404E+02  0.16036861564E+02  0.22748736654E+02  0.43185966576E+02  0.10566000000E+00 0. -1.
        994    1    1    2    0    0 -0.85529886006E+01 -0.86272199885E+01  0.22609510991E+02  0.17311329390E+03  0.17120000000E+03 0.  0.
        998    1    1    2    0    0 -0.24467165804E+02 -0.74096415758E+01  0.14546417486E+04  0.14549007395E+04  0.10000000000E+02 0. -1.
</event>
<event>
 5    1  0.1252945E-008  0.3839064E+03  0.7957747E-01  0.3434324E+00
         13   -1    0    0    0    0  0.00000000000E+00  0.00000000000E+00  0.14999999963E+04  0.15000000000E+04  0.10566000000E+00 0. -1.
        994   -1    0    0    0    0 -0.00000000000E+00 -0.00000000000E+00  0.11368683772E-12  0.17120000000E+03  0.17120000000E+03 0.  0.
         13    1    1    2    0    0  0.76249112918E+01  0.84110631644E+01  0.29192244743E+02  0.31322253638E+02  0.10566000000E+00 0. -1.
        994    1    1    2    0    0 -0.10974292998E+02  0.15725998545E+01  0.25798029148E+01  0.17157798099E+03  0.17120000000E+03 0.  0.
        998    1    1    2    0    0  0.33493817059E+01 -0.99836630189E+01  0.14682279486E+04  0.14682997654E+04  0.10000000000E+02 0. -1.
</event>
<event>
 5    1  0.1252945E-008  0.3826840E+03  0.7957747E-01  0.3439555E+00
         13   -1    0    0    0    0  0.00000000000E+00  0.00000000000E+00  0.14999999963E+04  0.15000000000E+04  0.10566000000E+00 0.  1.
        994   -1    0    0    0    0 -0.00000000000E+00 -0.00000000000E+00  0.11368683772E-12  0.17120000000E+03  0.17120000000E+03 0.  0.
         13    1    1    2    0    0 -0.17494290185E+02  0.60097732371E+01  0.65840691339E+02  0.68389877639E+02  0.10566000000E+00 0.  1.
        994    1    1    2    0    0 -0.55798271474E+01 -0.24897494319E+01  0.29081056725E+01  0.17133368146E+03  0.17120000000E+03 0.  0.
        998    1    1    2    0    0  0.23074117332E+02 -0.35200238053E+01  0.14312511993E+04  0.14314764409E+04  0.10000000000E+02 0.  1.
</event>
<event>
 5    1  0.1252945E-008  0.3835519E+03  0.7957747E-01  0.3435837E+00
         13   -1    0    0    0    0  0.00000000000E+00  0.00000000000E+00  0.14999999963E+04  0.15000000000E+04  0.10566000000E+00 0. -1.
        994   -1    0    0    0    0 -0.00000000000E+00 -0.00000000000E+00  0.11368683772E-12  0.17120000000E+03  0.17120000000E+03 0.  0.
         13    1    1    2    0    0 -0.25378275495E+01 -0.10074628911E+02  0.23096751496E+02  0.25326069771E+02  0.10566000000E+00 0. -1.
        994    1    1    2    0    0 -0.22499784359E+01 -0.45301047632E+01  0.24353417660E+01  0.17129201716E+03  0.17120000000E+03 0.  0.
        998    1    1    2    0    0  0.47878059854E+01  0.14604733674E+02  0.14744679030E+04  0.14745819131E+04  0.10000000000E+02 0. -1.
</event>
<event>
 5    1  0.1252945E-008  0.3818426E+03  0.7957747E-01  0.3443175E+00
         13   -1    0    0    0    0  0.00000000000E+00  0.00000000000E+00  0.14999999963E+04  0.15000000000E+04  0.10566000000E+00 0.  1.
        994   -1    0    0    0    0 -0.00000000000E+00 -0.00000000000E+00  0.11368683772E-12  0.17120000000E+03  0.17120000000E+03 0.  0.
         13    1    1    2    0    0  0.34373648636E+02  0.74340594308E+01  0.18701130951E+03  0.19028939542E+03  0.10566000000E+00 0.  1.
        994    1    1    2    0    0 -0.20288252632E+02 -0.19998053145E+02  0.59070531747E+01  0.17365445172E+03  0.17120000000E+03 0.  0.
        998    1    1    2    0    0 -0.14085396004E+02  0.12563993714E+02  0.13070816336E+04  0.13072561529E+04  0.10000000000E+02 0.  1.
</event>
<event>
 5    1  0.1252945E-008  0.3853309E+03  0.7957747E-01  0.3428270E+00
         13   -1    0    0    0    0  0.00000000000E+00  0.00000000000E+00  0.14999999963E+04  0.15000000000E+04  0.10566000000E+00 0.  1.
        994   -1    0    0    0    0 -0.00000000000E+00 -0.00000000000E+00  0.11368683772E-12  0.17120000000E+03  0.17120000000E+03 0.  0.
         13    1    1    2    0    0  0.72031610692E+01 -0.91806043463E+01  0.44420404412E+02  0.45927687920E+02  0.10566000000E+00 0.  1.
        994    1    1    2    0    0 -0.11533911116E+02  0.11658799304E+02  0.23500225768E+01  0.17199977126E+03  0.17120000000E+03 0.  0.
        998    1    1    2    0    0  0.43307500470E+01 -0.24781949578E+01  0.14532295693E+04  0.14532725408E+04  0.10000000000E+02 0.  1.
</event>
<event>
 5    1  0.1252945E-008  0.3835989E+03  0.7957747E-01  0.3435636E+00
         13   -1    0    0    0    0  0.00000000000E+00  0.00000000000E+00  0.14999999963E+04  0.15000000000E+04  0.10566000000E+00 0.  1.
        994   -1    0    0    0    0 -0.00000000000E+00 -0.00000000000E+00  0.11368683772E-12  0.17120000000E+03  0.17120000000E+03 0.  0.
         13    1    1    2    0    0 -0.70737431404E+01  0.89962395153E+01  0.27786796318E+02  0.30051412298E+02  0.10566000000E+00 0.  1.
        994    1    1    2    0    0  0.58081553918E+01 -0.61629594413E+00  0.24400460295E+01  0.17131698198E+03  0.17120000000E+03 0.  0.
        998    1    1    2    0    0  0.12655877486E+01 -0.83799435712E+01  0.14697731539E+04  0.14698316057E+04  0.10000000000E+02 0.  1.
</event>
<event>
 5    1  0.1252945E-008  0.3849746E+03  0.7957747E-01  0.3429780E+00
         13   -1    0    0    0    0  0.00000000000E+00  0.00000000000E+00  0.14999999963E+04  0.15000000000E+04  0.10566000000E+00 0.  1.
        994   -1    0    0    0    0 -0.00000000000E+00 -0.00000000000E+00  0.11368683772E-12  0.17120000000E+03  0.17120000000E+03 0.  0.
         13    1    1    2    0    0  0.57859775807E+01 -0.20636290232E+02  0.10794899639E+03  0.11005603571E+03  0.10566000000E+00 0.  1.
        994    1    1    2    0    0 -0.16175289648E+02  0.44059731127E+02  0.89217253003E+01  0.17774120818E+03  0.17120000000E+03 0.  0.
        998    1    1    2    0    0  0.10389312067E+02 -0.23423440895E+02  0.13831292746E+04  0.13834027561E+04  0.10000000000E+02 0.  1.
</event>
<event>
 5    1  0.1252945E-008  0.3801939E+03  0.7957747E-01  0.3450315E+00
         13   -1    0    0    0    0  0.00000000000E+00  0.00000000000E+00  0.14999999963E+04  0.15000000000E+04  0.10566000000E+00 0.  1.
        994   -1    0    0    0    0 -0.00000000000E+00 -0.00000000000E+00  0.11368683772E-12  0.17120000000E+03  0.17120000000E+03 0.  0.
         13    1    1    2    0    0 -0.30240263824E+02  0.50541721804E+01  0.12502220483E+03  0.12872676908E+03  0.10566000000E+00 0.  1.
        994    1    1    2    0    0  0.62737164105E+01  0.10537264565E+02  0.45379110048E+01  0.17169864909E+03  0.17120000000E+03 0.  0.
        998    1    1    2    0    0  0.23966547413E+02 -0.15591436745E+02  0.13704398804E+04  0.13707745818E+04  0.10000000000E+02 0.  1.
</event>
<event>
 5    1  0.1252945E-008  0.3825849E+03  0.7957747E-01  0.3439980E+00
         13   -1    0    0    0    0  0.00000000000E+00  0.00000000000E+00  0.14999999963E+04  0.15000000000E+04  0.10566000000E+00 0. -1.
        994   -1    0    0    0    0 -0.00000000000E+00 -0.00000000000E+00  0.11368683772E-12  0.17120000000E+03  0.17120000000E+03 0.  0.
         13    1    1    2    0    0 -0.35676065601E+01 -0.13629566067E+02  0.33012244575E+02  0.35893068184E+02  0.10566000000E+00 0. -1.
        994    1    1    2    0    0  0.36174476835E+01  0.17620808513E+02  0.39072126394E+01  0.17218677397E+03  0.17120000000E+03 0.  0.
        998    1    1    2    0    0 -0.49841123368E-01 -0.39912424464E+01  0.14630805391E+04  0.14631201578E+04  0.10000000000E+02 0. -1.
</event>
<event>
 5    1  0.1252945E-008  0.3837686E+03  0.7957747E-01  0.3434911E+00
         13   -1    0    0    0    0  0.00000000000E+00  0.00000000000E+00  0.14999999963E+04  0.15000000000E+04  0.10566000000E+00 0. -1.
        994   -1    0    0    0    0 -0.00000000000E+00 -0.00000000000E+00  0.11368683772E-12  0.17120000000E+03  0.17120000000E+03 0.  0.
         13    1    1    2    0    0 -0.63433654586E+02 -0.17653659807E+02  0.39321663074E+03  0.39869137198E+03  0.10566000000E+00 0. -1.
        994    1    1    2    0    0  0.10267673191E+03  0.44988439138E+02  0.44902773372E+02  0.20950458226E+03  0.17120000000E+03 0.  0.
        998    1    1    2    0    0 -0.39243077320E+02 -0.27334779331E+02  0.10618805922E+04  0.10630040458E+04  0.10000000000E+02 0. -1.
</event>
<event>
 5    1  0.1252945E-008  0.3824483E+03  0.7957747E-01  0.3440567E+00
         13   -1    0    0    0    0  0.00000000000E+00  0.00000000000E+00  0.14999999963E+04  0.15000000000E+04  0.10566000000E+00 0.  1.
        994   -1    0    0    0    0 -0.00000000000E+00 -0.00000000000E+00  0.11368683772E-12  0.17120000000E+03  0.17120000000E+03 0.  0.
         13    1    1    2    0    0 -0.11217605156E+02 -0.26855271674E+01  0.22538887315E+02  0.25319149414E+02  0.10566000000E+00 0.  1.
        994    1    1    2    0    0 -0.14600155566E+01 -0.40290966908E+01  0.29632167996E+01  0.17127926296E+03  0.17120000000E+03 0.  0.
        998    1    1    2    0    0  0.12677620712E+02  0.67146238582E+01  0.14744978922E+04  0.14746015876E+04  0.10000000000E+02 0.  1.
</event>
<event>
 5    1  0.1252945E-008  0.3819450E+03  0.7957747E-01  0.3442733E+00
         13   -1    0    0    0    0  0.00000000000E+00  0.00000000000E+00  0.14999999963E+04  0.15000000000E+04  0.10566000000E+00 0.  1.
        994   -1    0    0    0    0 -0.00000000000E+00 -0.00000000000E+00  0.11368683772E-12  0.17120000000E+03  0.17120000000E+03 0.  0.
         13    1    1    2    0    0 -0.86069192129E+01 -0.14168019581E+02  0.40331579876E+02  0.43605725960E+02  0.10566000000E+00 0.  1.
        994    1    1    2    0    0  0.97510796603E+01  0.22757090153E+02  0.51932146671E+01  0.17305888647E+03  0.17120000000E+03 0.  0.
        998    1    1    2    0    0 -0.11441604474E+01 -0.85890705716E+01  0.14544752017E+04  0.14545353876E+04  0.10000000000E+02 0.  1.
</event>
<event>
 5    1  0.2576323E-008  0.3860950E+03  0.7957747E-01  0.3425041E+00
         13   -1    0    0    0    0  0.00000000000E+00  0.00000000000E+00  0.14999999963E+04  0.15000000000E+04  0.10566000000E+00 0.  1.
        994   -1    0    0    0    0 -0.00000000000E+00 -0.00000000000E+00  0.11368683772E-12  0.17120000000E+03  0.17120000000E+03 0.  0.
         13    1    1    2    0    0  0.10284698295E+02  0.13367284262E+00  0.48374734761E+02  0.49456233325E+02  0.10566000000E+00 0.  1.
        994    1    1    2    0    0 -0.97499861242E+01 -0.24089931567E+01  0.14180491555E+01  0.17150019341E+03  0.17120000000E+03 0.  0.
        998    1    1    2    0    0 -0.53471217084E+00  0.22753203141E+01  0.14502072124E+04  0.14502435733E+04  0.10000000000E+02 0.  1.
</event>
<event>
 5    1  0.1252945E-008  0.3858543E+03  0.7957747E-01  0.3426057E+00
         13   -1    0    0    0    0  0.00000000000E+00  0.00000000000E+00  0.14999999963E+04  0.15000000000E+04  0.10566000000E+00 0.  1.
        994   -1    0    0    0    0 -0.00000000000E+00 -0.00000000000E+00  0.11368683772E-12  0.17120000000E+03  0.17120000000E+03 0.  0.
         13    1    1    2    0    0  0.91676193321E+01  0.66009779954E+01  0.52434572941E+02  0.53637801580E+02  0.10566000000E+00 0.  1.
        994    1    1    2    0    0 -0.80020381786E+01 -0.65471437493E+01  0.15572598149E+01  0.17151898660E+03  0.17120000000E+03 0.  0.
        998    1    1    2    0    0 -0.11655811535E+01 -0.53834246081E-01  0.14460081635E+04  0.14460432118E+04  0.10000000000E+02 0.  0.
</event>
<event>
 5    1  0.1252945E-008  0.3888629E+03  0.7957747E-01  0.3413453E+00
         13   -1    0    0    0    0  0.00000000000E+00  0.00000000000E+00  0.14999999963E+04  0.15000000000E+04  0.10566000000E+00 0. -1.
        994   -1    0    0    0    0 -0.00000000000E+00 -0.00000000000E+00  0.11368683772E-12  0.17120000000E+03  0.17120000000E+03 0.  0.
         13    1    1    2    0    0  0.31108556124E+02 -0.87131662450E+02  0.19378284698E+03  0.21473581866E+03  0.10566000000E+00 0. -1.
        994    1    1    2    0    0 -0.67275762337E+02  0.40503852000E+02  0.44770735737E+02  0.19359868027E+03  0.17120000000E+03 0.  0.
        998    1    1    2    0    0  0.36167206213E+02  0.46627810450E+02  0.12614464136E+04  0.12628655011E+04  0.10000000000E+02 0. -1.
</event>
<event>
 5    1  0.1252945E-008  0.3860849E+03  0.7957747E-01  0.3425084E+00
         13   -1    0    0    0    0  0.00000000000E+00  0.00000000000E+00  0.14999999963E+04  0.15000000000E+04  0.10566000000E+00 0. -1.
        994   -1    0    0    0    0 -0.00000000000E+00 -0.00000000000E+00  0.11368683772E-12  0.17120000000E+03  0.17120000000E+03 0.  0.
         13    1    1    2    0    0  0.20925154465E+01  0.12525055745E+02  0.71674655392E+02  0.72790954328E+02  0.10566000000E+00 0. -1.
        994    1    1    2    0    0 -0.19015727695E+01 -0.13537274052E+02  0.17050873830E+01  0.17175337287E+03  0.17120000000E+03 0.  0.
        998    1    1    2    0    0 -0.19094267706E+00  0.10122183067E+01  0.14266202535E+04  0.14266556728E+04  0.10000000000E+02 0. -1.
</event>
<event>
 5    1  0.1252945E-008  0.3796477E+03  0.7957747E-01  0.3452694E+00
         13   -1    0    0    0    0  0.00000000000E+00  0.00000000000E+00  0.14999999963E+04  0.15000000000E+04  0.10566000000E+00 0. -1.
        994   -1    0    0    0    0 -0.00000000000E+00 -0.00000000000E+00  0.11368683772E-12  0.17120000000E+03  0.17120000000E+03 0.  0.
         13    1    1    2    0    0  0.32631485414E+01 -0.60249401765E+02  0.27612816528E+03  0.28264361549E+03  0.10566000000E+00 0. -1.
        994    1    1    2    0    0  0.91169527059E+02  0.10763806085E+03  0.74069508720E+02  0.23386655796E+03  0.17120000000E+03 0.  0.
        998    1    1    2    0    0 -0.94432675601E+02 -0.47388659088E+02  0.11498023223E+04  0.11546898266E+04  0.10000000000E+02 0. -1.
</event>
<event>
 5    1  0.1252945E-008  0.3746916E+03  0.7957747E-01  0.3474603E+00
         13   -1    0    0    0    0  0.00000000000E+00  0.00000000000E+00  0.14999999963E+04  0.15000000000E+04  0.10566000000E+00 0.  1.
        994   -1    0    0    0    0 -0.00000000000E+00 -0.00000000000E+00  0.11368683772E-12  0.17120000000E+03  0.17120000000E+03 0.  0.
         13    1    1    2    0    0 -0.13811328011E+02 -0.20592676824E+02  0.41084320925E+02  0.47986911863E+02  0.10566000000E+00 0.  1.
        994    1    1    2    0    0  0.16242562163E+02  0.20472327387E+02  0.91645070202E+01  0.17342538800E+03  0.17120000000E+03 0.  0.
        998    1    1    2    0    0 -0.24312341525E+01  0.12034943740E+00  0.14497511683E+04  0.14497877001E+04  0.10000000000E+02 0.  1.
</event>
<event>
 5    1  0.1252945E-008  0.3856815E+03  0.7957747E-01  0.3426787E+00
         13   -1    0    0    0    0  0.00000000000E+00  0.00000000000E+00  0.14999999963E+04  0.15000000000E+04  0.10566000000E+00 0.  1.
        994   -1    0    0    0    0 -0.00000000000E+00 -0.00000000000E+00  0.11368683772E-12  0.17120000000E+03  0.17120000000E+03 0.  0.
         13    1    1    2    0    0  0.98740922276E+01  0.85915582562E+01  0.73180154924E+02  0.74341501258E+02  0.10566000000E+00 0.  1.
        994    1    1    2    0    0  0.98276576950E+00  0.39395864312E+01  0.13462709189E+01  0.17125343388E+03  0.17120000000E+03 0.  0.
        998    1    1    2    0    0 -0.10856857997E+02 -0.12531144687E+02  0.14254735704E+04  0.14256050649E+04  0.10000000000E+02 0.  1.
</event>
<event>
 5    1  0.1252945E-008  0.3816081E+03  0.7957747E-01  0.3444186E+00
         13   -1    0    0    0    0  0.00000000000E+00  0.00000000000E+00  0.14999999963E+04  0.15000000000E+04  0.10566000000E+00 0. -1.
        994   -1    0    0    0    0 -0.00000000000E+00 -0.00000000000E+00  0.11368683772E-12  0.17120000000E+03  0.17120000000E+03 0.  0.
         13    1    1    2    0    0  0.11060645566E+02  0.45043418837E+01  0.20184692148E+02  0.23453356632E+02  0.10566000000E+00 0. -1.
        994    1    1    2    0    0 -0.84708071906E+01  0.13454488236E+01  0.35682424602E+01  0.17145185085E+03  0.17120000000E+03 0.  0.
        998    1    1    2    0    0 -0.25898383759E+01 -0.58497907073E+01  0.14762470617E+04  0.14762947925E+04  0.10000000000E+02 0. -1.
</event>
<event>
 5    1  0.1252945E-008  0.3761300E+03  0.7957747E-01  0.3468184E+00
         13   -1    0    0    0    0  0.00000000000E+00  0.00000000000E+00  0.14999999963E+04  0.15000000000E+04  0.10566000000E+00 0. -1.
        994   -1    0    0    0    0 -0.00000000000E+00 -0.00000000000E+00  0.11368683772E-12  0.17120000000E+03  0.17120000000E+03 0.  0.
         13    1    1    2    0    0 -0.32904643204E+02 -0.89411838215E+01  0.91019201747E+02  0.97196535757E+02  0.10566000000E+00 0. -1.
        994    1    1    2    0    0  0.24747295074E+02  0.97888266398E+01  0.85016453394E+01  0.17346460075E+03  0.17120000000E+03 0.  0.
        998    1    1    2    0    0  0.81573481302E+01 -0.84764281832E+00  0.14004791492E+04  0.14005388635E+04  0.10000000000E+02 0. -1.
</event>
<event>
 5    1  0.2008221E-008  0.3863082E+03  0.7957747E-01  0.3424143E+00
         13   -1    0    0    0    0  0.00000000000E+00  0.00000000000E+00  0.14999999963E+04  0.15000000000E+04  0.10566000000E+00 0. -1.
        994   -1    0    0    0    0 -0.00000000000E+00 -0.00000000000E+00  0.11368683772E-12  0.17120000000E+03  0.17120000000E+03 0.  0.
         13    1    1    2    0    0  0.85446248368E+01  0.82020806707E+01  0.71410834730E+02  0.72386485077E+02  0.10566000000E+00 0. -1.
        994    1    1    2    0    0 -0.55199447687E+01 -0.85414704243E+01  0.13208067370E+01  0.17150688335E+03  0.17120000000E+03 0.  0.
        998    1    1    2    0    0 -0.30246800680E+01  0.33938975360E+00  0.14272683548E+04  0.14273066316E+04  0.10000000000E+02 0. -1.
</event>
<event>
 5    1  0.1252945E-008  0.3846456E+03  0.7957747E-01  0.3431177E+00
         13   -1    0    0    0    0  0.00000000000E+00  0.00000000000E+00  0.14999999963E+04  0.15000000000E+04  0.10566000000E+00 0. -1.
        994   -1    0    0    0    0 -0.00000000000E+00 -0.00000000000E+00  0.11368683772E-12  0.17120000000E+03  0.17120000000E+03 0.  0.
         13    1    1    2    0    0 -0.10452906788E+02 -0.51517730217E+01  0.37373373313E+02  0.39148233963E+02  0.10566000000E+00 0. -1.
        994    1    1    2    0    0  0.49383042605E+01  0.67771029134E+01  0.20377553569E+01  0.17141735157E+03  0.17120000000E+03 0.  0.
        998    1    1    2    0    0  0.55146025279E+01 -0.16253298918E+01  0.14605888676E+04  0.14606344145E+04  0.10000000000E+02 0. -1.
</event>
<event>
 5    1  0.1252945E-008  0.3753858E+03  0.7957747E-01  0.3471499E+00
         13   -1    0    0    0    0  0.00000000000E+00  0.00000000000E+00  0.14999999963E+04  0.15000000000E+04  0.10566000000E+00 0. -1.
        994   -1    0    0    0    0 -0.00000000000E+00 -0.00000000000E+00  0.11368683772E-12  0.17120000000E+03  0.17120000000E+03 0.  0.
         13    1    1    2    0    0  0.10276390956E+02  0.13776579377E+02  0.20199448971E+02  0.26522203023E+02  0.10566000000E+00 0. -1.
        994    1    1    2    0    0 -0.98421407719E+01 -0.31295504841E+01  0.68429219436E+01  0.17164768394E+03  0.17120000000E+03 0.  0.
        998    1    1    2    0    0 -0.43425018400E+00 -0.10647028893E+02  0.14729576254E+04  0.14730301130E+04  0.10000000000E+02 0. -1.
</event>
<event>
 5    1  0.1252945E-008  0.3807251E+03  0.7957747E-01  0.3448007E+00
         13   -1    0    0    0    0  0.00000000000E+00  0.00000000000E+00  0.14999999963E+04  0.15000000000E+04  0.10566000000E+00 0.  1.
        994   -1    0    0    0    0 -0.00000000000E+00 -0.00000000000E+00  0.11368683772E-12  0.17120000000E+03  0.17120000000E+03 0.  0.
         13    1    1    2    0    0  0.73865612974E+01  0.20971474907E+02  0.61527990266E+02  0.65422234736E+02  0.10566000000E+00 0.  1.
        994    1    1    2    0    0 -0.62150868990E+01 -0.23751635065E+02  0.57803435685E+01  0.17304802757E+03  0.17120000000E+03 0.  0.
        998    1    1    2    0    0 -0.11714743984E+01  0.27801601580E+01  0.14326916624E+04  0.14327297377E+04  0.10000000000E+02 0.  1.
</event>
<event>
 5    1  0.1252945E-008  0.3699615E+03  0.7957747E-01  0.3496068E+00
         13   -1    0    0    0    0  0.00000000000E+00  0.00000000000E+00  0.14999999963E+04  0.15000000000E+04  0.10566000000E+00 0.  1.
        994   -1    0    0    0    0 -0.00000000000E+00 -0.00000000000E+00  0.11368683772E-12  0.17120000000E+03  0.17120000000E+03 0.  0.
         13    1    1    2    0    0 -0.47509650908E+02  0.30992311814E+02  0.23216815150E+03  0.23899738923E+03  0.10566000000E+00 0.  1.
        994    1    1    2    0    0 -0.21500223127E+02  0.23428614282E+01  0.10908392120E+02  0.17290512315E+03  0.17120000000E+03 0.  0.
        998    1    1    2    0    0  0.69009874035E+02 -0.33335173242E+02  0.12569234527E+04  0.12592974876E+04  0.10000000000E+02 0.  1.
</event>
<event>
 5    1  0.1252945E-008  0.3820592E+03  0.7957747E-01  0.3442241E+00
         13   -1    0    0    0    0  0.00000000000E+00  0.00000000000E+00  0.14999999963E+04  0.15000000000E+04  0.10566000000E+00 0. -1.
        994   -1    0    0    0    0 -0.00000000000E+00 -0.00000000000E+00  0.11368683772E-12  0.17120000000E+03  0.17120000000E+03 0.  0.
         13    1    1    2    0    0  0.82042812590E+01 -0.10628987135E+02  0.28588909561E+02  0.31585162853E+02  0.10566000000E+00 0. -1.
        994    1    1    2    0    0  0.10472987782E+01  0.39054167862E+01  0.31515830744E+01  0.17127673978E+03  0.17120000000E+03 0.  0.
        998    1    1    2    0    0 -0.92515800372E+01  0.67235703491E+01  0.14682595036E+04  0.14683380974E+04  0.10000000000E+02 0. -1.
</event>
<event>
 5    1  0.1252945E-008  0.3846229E+03  0.7957747E-01  0.3431273E+00
         13   -1    0    0    0    0  0.00000000000E+00  0.00000000000E+00  0.14999999963E+04  0.15000000000E+04  0.10566000000E+00 0. -1.
        994   -1    0    0    0    0 -0.00000000000E+00 -0.00000000000E+00  0.11368683772E-12  0.17120000000E+03  0.17120000000E+03 0.  0.
         13    1    1    2    0    0  0.13013754551E+02 -0.68423975408E+01  0.63052517263E+02  0.64744168146E+02  0.10566000000E+00 0. -1.
        994    1    1    2    0    0 -0.10612853106E+01 -0.32574099397E+01  0.18561324328E+01  0.17124433501E+03  0.17120000000E+03 0.  0.
        998    1    1    2    0    0 -0.11952469241E+02  0.10099807480E+02  0.14350913466E+04  0.14352114968E+04  0.10000000000E+02 0. -1.
</event>
<event>
 5    1  0.1252945E-008  0.3840948E+03  0.7957747E-01  0.3433520E+00
         13   -1    0    0    0    0  0.00000000000E+00  0.00000000000E+00  0.14999999963E+04  0.15000000000E+04  0.10566000000E+00 0.  1.
        994   -1    0    0    0    0 -0.00000000000E+00 -0.00000000000E+00  0.11368683772E-12  0.17120000000E+03  0.17120000000E+03 0.  0.
         13    1    1    2    0    0  0.55253804966E+01 -0.14986250927E+02  0.69105875402E+02  0.70927785286E+02  0.10566000000E+00 0.  1.
        994    1    1    2    0    0  0.56460323739E+01 -0.93542264542E+01  0.24740884603E+01  0.17156613986E+03  0.17120000000E+03 0.  0.
        998    1    1    2    0    0 -0.11171412871E+02  0.24340477381E+02  0.14284200324E+04  0.14287060748E+04  0.10000000000E+02 0.  1.
</event>
<event>
 5    1  0.1252945E-008  0.3811529E+03  0.7957747E-01  0.3446154E+00
         13   -1    0    0    0    0  0.00000000000E+00  0.00000000000E+00  0.14999999963E+04  0.15000000000E+04  0.10566000000E+00 0.  1.
        994   -1    0    0    0    0 -0.00000000000E+00 -0.00000000000E+00  0.11368683772E-12  0.17120000000E+03  0.17120000000E+03 0.  0.
         13    1    1    2    0    0 -0.73924216487E+01 -0.28641647857E+02  0.10847347819E+03  0.11243441878E+03  0.10566000000E+00 0.  1.
        994    1    1    2    0    0 -0.43651045523E+02  0.54170359818E+02  0.19841507551E+02  0.18585738371E+03  0.17120000000E+03 0.  0.
        998    1    1    2    0    0  0.51043467172E+02 -0.25528711961E+02  0.13716850105E+04  0.13729081975E+04  0.10000000000E+02 0.  1.
</event>
<event>
 5    1  0.1252945E-008  0.3725446E+03  0.7957747E-01  0.3484278E+00
         13   -1    0    0    0    0  0.00000000000E+00  0.00000000000E+00  0.14999999963E+04  0.15000000000E+04  0.10566000000E+00 0.  1.
        994   -1    0    0    0    0 -0.00000000000E+00 -0.00000000000E+00  0.11368683772E-12  0.17120000000E+03  0.17120000000E+03 0.  0.
         13    1    1    2    0    0  0.43302481626E+02 -0.40940250990E+02  0.13211403716E+03  0.14493218775E+03  0.10566000000E+00 0.  1.
        994    1    1    2    0    0 -0.32940883598E+02  0.42297593752E+02  0.22499221070E+02  0.18080332740E+03  0.17120000000E+03 0.  0.
        998    1    1    2    0    0 -0.10361598029E+02 -0.13573427620E+01  0.13453867380E+04  0.13454644849E+04  0.10000000000E+02 0.  1.
</event>
<event>
 5    1  0.1252945E-008  0.3810509E+03  0.7957747E-01  0.3446595E+00
         13   -1    0    0    0    0  0.00000000000E+00  0.00000000000E+00  0.14999999963E+04  0.15000000000E+04  0.10566000000E+00 0.  1.
        994   -1    0    0    0    0 -0.00000000000E+00 -0.00000000000E+00  0.11368683772E-12  0.17120000000E+03  0.17120000000E+03 0.  0.
         13    1    1    2    0    0 -0.28999206947E+01  0.13310352655E+02  0.25003368296E+02  0.28473753143E+02  0.10566000000E+00 0.  1.
        994    1    1    2    0    0  0.14736620835E+01  0.12991327469E+00  0.36109014769E+01  0.17124446609E+03  0.17120000000E+03 0.  0.
        998    1    1    2    0    0  0.14262586112E+01 -0.13440265930E+02  0.14713857265E+04  0.14714817808E+04  0.10000000000E+02 0.  1.
</event>
<event>
 5    1  0.1252945E-008  0.3840880E+03  0.7957747E-01  0.3433549E+00
         13   -1    0    0    0    0  0.00000000000E+00  0.00000000000E+00  0.14999999963E+04  0.15000000000E+04  0.10566000000E+00 0.  1.
        994   -1    0    0    0    0 -0.00000000000E+00 -0.00000000000E+00  0.11368683772E-12  0.17120000000E+03  0.17120000000E+03 0.  0.
         13    1    1    2    0    0 -0.14125399268E+02  0.13127936527E+02  0.85062237251E+02  0.87220783029E+02  0.10566000000E+00 0.  1.
        994    1    1    2    0    0  0.12108841036E+02 -0.15003090832E+02  0.33106550292E+01  0.17231400756E+03  0.17120000000E+03 0.  0.
        998    1    1    2    0    0  0.20165582313E+01  0.18751543057E+01  0.14116271040E+04  0.14116652094E+04  0.10000000000E+02 0.  1.
</event>
<event>
 5    1  0.1252945E-008  0.3856399E+03  0.7957747E-01  0.3426963E+00
         13   -1    0    0    0    0  0.00000000000E+00  0.00000000000E+00  0.14999999963E+04  0.15000000000E+04  0.10566000000E+00 0.  1.
        994   -1    0    0    0    0 -0.00000000000E+00 -0.00000000000E+00  0.11368683772E-12  0.17120000000E+03  0.17120000000E+03 0.  0.
         13    1    1    2    0    0 -0.48955303000E+01  0.11801873479E+02  0.61186622266E+02  0.62506514404E+02  0.10566000000E+00 0.  1.
        994    1    1    2    0    0  0.31651876995E+00 -0.12733420371E+02  0.18453773343E+01  0.17168309642E+03  0.17120000000E+03 0.  0.
        998    1    1    2    0    0  0.45790115300E+01  0.93154689162E+00  0.14369679967E+04  0.14370103892E+04  0.10000000000E+02 0.  1.
</event>
<event>
 5    1  0.1252945E-008  0.3822789E+03  0.7957747E-01  0.3441296E+00
         13   -1    0    0    0    0  0.00000000000E+00  0.00000000000E+00  0.14999999963E+04  0.15000000000E+04  0.10566000000E+00 0.  1.
        994   -1    0    0    0    0 -0.00000000000E+00 -0.00000000000E+00  0.11368683772E-12  0.17120000000E+03  0.17120000000E+03 0.  0.
         13    1    1    2    0    0 -0.48624984064E+01  0.18930147909E+02  0.63517734847E+02  0.66456814510E+02  0.10566000000E+00 0.  1.
        994    1    1    2    0    0  0.74830973678E+00 -0.10949559321E+02  0.33869509316E+01  0.17158486021E+03  0.17120000000E+03 0.  0.
        998    1    1    2    0    0  0.41141886696E+01 -0.79805885884E+01  0.14330953105E+04  0.14331583253E+04  0.10000000000E+02 0.  1.
</event>
<event>
 5    1  0.1252945E-008  0.3761043E+03  0.7957747E-01  0.3468299E+00
         13   -1    0    0    0    0  0.00000000000E+00  0.00000000000E+00  0.14999999963E+04  0.15000000000E+04  0.10566000000E+00 0.  1.
        994   -1    0    0    0    0 -0.00000000000E+00 -0.00000000000E+00  0.11368683772E-12  0.17120000000E+03  0.17120000000E+03 0.  0.
         13    1    1    2    0    0  0.41002240573E+00 -0.54862069120E+02  0.22762847445E+03  0.23414685197E+03  0.10566000000E+00 0.  1.
        994    1    1    2    0    0 -0.26850171487E+02  0.42788524861E+02  0.14803970246E+02  0.17910998605E+03  0.17120000000E+03 0.  0.
        998    1    1    2    0    0  0.26440149082E+02  0.12073544258E+02  0.12575675516E+04  0.12579431620E+04  0.10000000000E+02 0.  1.
</event>
<event>
 5    1  0.1252945E-008  0.3846125E+03  0.7957747E-01  0.3431317E+00
         13   -1    0    0    0    0  0.00000000000E+00  0.00000000000E+00  0.14999999963E+04  0.15000000000E+04  0.10566000000E+00 0. -1.
        994   -1    0    0    0    0 -0.00000000000E+00 -0.00000000000E+00  0.11368683772E-12  0.17120000000E+03  0.17120000000E+03 0.  0.
         13    1    1    2    0    0  0.10925768764E+02  0.40674617951E+01  0.36544487116E+02  0.38359188875E+02  0.10566000000E+00 0. -1.
        994    1    1    2    0    0 -0.87112548728E+01 -0.64397497716E+01  0.22091467923E+01  0.17155662817E+03  0.17120000000E+03 0.  0.
        998    1    1    2    0    0 -0.22145138911E+01  0.23722879765E+01  0.14612463624E+04  0.14612841830E+04  0.10000000000E+02 0. -1.
</event>
<event>
 5    1  0.1252945E-008  0.3726091E+03  0.7957747E-01  0.3483985E+00
         13   -1    0    0    0    0  0.00000000000E+00  0.00000000000E+00  0.14999999963E+04  0.15000000000E+04  0.10566000000E+00 0. -1.
        994   -1    0    0    0    0 -0.00000000000E+00 -0.00000000000E+00  0.11368683772E-12  0.17120000000E+03  0.17120000000E+03 0.  0.
         13    1    1    2    0    0 -0.39240125483E+02 -0.79115751730E+01  0.11326854172E+03  0.12013390104E+03  0.10566000000E+00 0. -1.
        994    1    1    2    0    0 -0.17847184865E+02  0.52970089260E+02  0.18695239264E+02  0.18106160370E+03  0.17120000000E+03 0.  0.
        998    1    1    2    0    0  0.57087310348E+02 -0.45058514087E+02  0.13680362153E+04  0.13700044953E+04  0.10000000000E+02 0. -1.
</event>
<event>
 5    1  0.1252945E-008  0.3844949E+03  0.7957747E-01  0.3431817E+00
         13   -1    0    0    0    0  0.00000000000E+00  0.00000000000E+00  0.14999999963E+04  0.15000000000E+04  0.10566000000E+00 0. -1.
        994   -1    0    0    0    0 -0.00000000000E+00 -0.00000000000E+00  0.11368683772E-12  0.17120000000E+03  0.17120000000E+03 0.  0.
         13    1    1    2    0    0  0.68138059996E+00  0.12624218867E+02  0.43297930070E+02  0.45106064935E+02  0.10566000000E+00 0. -1.
        994    1    1    2    0    0 -0.60594497744E+00 -0.30421460483E+01  0.19128402792E+01  0.17123878293E+03  0.17120000000E+03 0.  0.
        998    1    1    2    0    0 -0.75435622520E-01 -0.95820728185E+01  0.14547892259E+04  0.14548551521E+04  0.10000000000E+02 0. -1.
</event>
<event>
 5    1  0.1252945E-008  0.3310243E+03  0.7957747E-01  0.3696738E+00
         13   -1    0    0    0    0  0.00000000000E+00  0.00000000000E+00  0.14999999963E+04  0.15000000000E+04  0.10566000000E+00 0.  1.
        994   -1    0    0    0    0 -0.00000000000E+00 -0.00000000000E+00  0.11368683772E-12  0.17120000000E+03  0.17120000000E+03 0.  0.
         13    1    1    2    0    0 -0.24816846304E+03  0.14692400313E+02  0.76975766073E+03  0.80890686738E+03  0.10566000000E+00 0.  1.
        994    1    1    2    0    0  0.23278828853E+03 -0.20866336022E+01  0.25165892350E+03  0.38319237349E+03  0.17120000000E+03 0.  0.
        998    1    1    2    0    0  0.15380174503E+02 -0.12605766711E+02  0.47858341204E+03  0.47910075914E+03  0.10000000000E+02 0.  1.
</event>
<event>
 5    1  0.1252945E-008  0.3811715E+03  0.7957747E-01  0.3446073E+00
         13   -1    0    0    0    0  0.00000000000E+00  0.00000000000E+00  0.14999999963E+04  0.15000000000E+04  0.10566000000E+00 0. -1.
        994   -1    0    0    0    0 -0.00000000000E+00 -0.00000000000E+00  0.11368683772E-12  0.17120000000E+03  0.17120000000E+03 0.  0.
         13    1    1    2    0    0  0.27046561392E+02  0.61161112922E+01  0.10339450651E+03  0.10704839299E+03  0.10566000000E+00 0. -1.
        994    1    1    2    0    0 -0.23818344113E+02 -0.15947253670E+01  0.54428762260E+01  0.17294196011E+03  0.17120000000E+03 0.  0.
        998    1    1    2    0    0 -0.32282172789E+01 -0.45213859252E+01  0.13911626135E+04  0.13912096469E+04  0.10000000000E+02 0. -1.
</event>
<event>
 5    1  0.1252945E-008  0.3815534E+03  0.7957747E-01  0.3444422E+00
         13   -1    0    0    0    0  0.00000000000E+00  0.00000000000E+00  0.14999999963E+04  0.15000000000E+04  0.10566000000E+00 0. -1.
        994   -1    0    0    0    0 -0.00000000000E+00 -0.00000000000E+00  0.11368683772E-12  0.17120000000E+03  0.17120000000E+03 0.  0.
         13    1    1    2    0    0  0.10443228114E+02  0.15447392888E+02  0.53905646842E+02  0.57039572982E+02  0.10566000000E+00 0. -1.
        994    1    1    2    0    0  0.48353797637E+01 -0.55653064933E+00  0.34298376444E+01  0.17130351546E+03  0.17120000000E+03 0.  0.
        998    1    1    2    0    0 -0.15278607877E+02 -0.14890862238E+02  0.14426645118E+04  0.14428569116E+04  0.10000000000E+02 0. -1.
</event>
<event>
 5    1  0.1252945E-008  0.3698251E+03  0.7957747E-01  0.3496695E+00
         13   -1    0    0    0    0  0.00000000000E+00  0.00000000000E+00  0.14999999963E+04  0.15000000000E+04  0.10566000000E+00 0.  1.
        994   -1    0    0    0    0 -0.00000000000E+00 -0.00000000000E+00  0.11368683772E-12  0.17120000000E+03  0.17120000000E+03 0.  0.
         13    1    1    2    0    0  0.50289725832E+02 -0.62778801489E+02  0.28401492249E+03  0.29518591058E+03  0.10566000000E+00 0.  1.
        994    1    1    2    0    0 -0.68357535245E+02  0.44333862291E+02  0.32691385776E+02  0.19239649340E+03  0.17120000000E+03 0.  0.
        998    1    1    2    0    0  0.18067809413E+02  0.18444939198E+02  0.11832936880E+04  0.11836175960E+04  0.10000000000E+02 0.  1.
</event>
<event>
 5    1  0.1252945E-008  0.3692987E+03  0.7957747E-01  0.3499120E+00
         13   -1    0    0    0    0  0.00000000000E+00  0.00000000000E+00  0.14999999963E+04  0.15000000000E+04  0.10566000000E+00 0.  1.
        994   -1    0    0    0    0 -0.00000000000E+00 -0.00000000000E+00  0.11368683772E-12  0.17120000000E+03  0.17120000000E+03 0.  0.
         13    1    1    2    0    0  0.53121701415E+01 -0.21731474402E+02  0.21685805215E+02  0.31157044840E+02  0.10566000000E+00 0.  1.
        994    1    1    2    0    0 -0.76858944671E+01  0.18697311008E+02  0.11053788323E+02  0.17274341854E+03  0.17120000000E+03 0.  0.
        998    1    1    2    0    0  0.23737243256E+01  0.30341633942E+01  0.14672604027E+04  0.14672995366E+04  0.10000000000E+02 0.  1.
</event>
<event>
 5    1  0.1252945E-008  0.3849061E+03  0.7957747E-01  0.3430071E+00
         13   -1    0    0    0    0  0.00000000000E+00  0.00000000000E+00  0.14999999963E+04  0.15000000000E+04  0.10566000000E+00 0.  1.
        994   -1    0    0    0    0 -0.00000000000E+00 -0.00000000000E+00  0.11368683772E-12  0.17120000000E+03  0.17120000000E+03 0.  0.
         13    1    1    2    0    0  0.94570538756E+01  0.90265985610E+01  0.52204865319E+02  0.53817046339E+02  0.10566000000E+00 0.  1.
        994    1    1    2    0    0 -0.22178222191E+02  0.16188885660E+02  0.41609482560E+01  0.17343790546E+03  0.17120000000E+03 0.  0.
        998    1    1    2    0    0  0.12721168315E+02 -0.25215484221E+02  0.14436341827E+04  0.14439450482E+04  0.10000000000E+02 0.  1.
</event>
<event>
 5    1  0.1252945E-008  0.3843826E+03  0.7957747E-01  0.3432295E+00
         13   -1    0    0    0    0  0.00000000000E+00  0.00000000000E+00  0.14999999963E+04  0.15000000000E+04  0.10566000000E+00 0. -1.
        994   -1    0    0    0    0 -0.00000000000E+00 -0.00000000000E+00  0.11368683772E-12  0.17120000000E+03  0.17120000000E+03 0.  0.
         13    1    1    2    0    0 -0.42600892042E+01 -0.94462501657E+01  0.27235905852E+02  0.29140791579E+02  0.10566000000E+00 0. -1.
        994    1    1    2    0    0  0.25218806807E+01  0.65677158484E+01  0.21000849483E+01  0.17135736089E+03  0.17120000000E+03 0.  0.
        998    1    1    2    0    0  0.17382085235E+01  0.28785343173E+01  0.14706640055E+04  0.14707018475E+04  0.10000000000E+02 0. -1.
</event>
<event>
 5    1  0.1252945E-008  0.3807236E+03  0.7957747E-01  0.3448014E+00
         13   -1    0    0    0    0  0.00000000000E+00  0.00000000000E+00  0.14999999963E+04  0.15000000000E+04  0.10566000000E+00 0.  1.
        994   -1    0    0    0    0 -0.00000000000E+00 -0.00000000000E+00  0.11368683772E-12  0.17120000000E+03  0.17120000000E+03 0.  0.
         13    1    1    2    0    0  0.70423710692E+01  0.29037762322E+02  0.10869112350E+03  0.11272336990E+03  0.10566000000E+00 0.  1.
        994    1    1    2    0    0 -0.12906833596E+02 -0.29448742431E+02  0.72237237146E+01  0.17434287186E+03  0.17120000000E+03 0.  0.
        998    1    1    2    0    0  0.58644625267E+01  0.41098010923E+00  0.13840851491E+04  0.13841337582E+04  0.10000000000E+02 0.  1.
</event>
<event>
 5    1  0.1252945E-008  0.3854010E+03  0.7957747E-01  0.3427973E+00
         13   -1    0    0    0    0  0.00000000000E+00  0.00000000000E+00  0.14999999963E+04  0.15000000000E+04  0.10566000000E+00 0. -1.
        994   -1    0    0    0    0 -0.00000000000E+00 -0.00000000000E+00  0.11368683772E-12  0.17120000000E+03  0.17120000000E+03 0.  0.
         13    1    1    2    0    0  0.66271337142E+01  0.14144929951E+02  0.90259382112E+02  0.91601119905E+02  0.10566000000E+00 0. -1.
        994    1    1    2    0    0 -0.40225197071E+01 -0.20042785270E+01  0.14975039439E+01  0.17126552576E+03  0.17120000000E+03 0.  0.
        998    1    1    2    0    0 -0.26046140071E+01 -0.12140651424E+02  0.14082431102E+04  0.14083333543E+04  0.10000000000E+02 0. -1.
</event>
<event>
 5    1  0.1328744E-008  0.3852620E+03  0.7957747E-01  0.3428562E+00
         13   -1    0    0    0    0  0.00000000000E+00  0.00000000000E+00  0.14999999963E+04  0.15000000000E+04  0.10566000000E+00 0. -1.
        994   -1    0    0    0    0 -0.00000000000E+00 -0.00000000000E+00  0.11368683772E-12  0.17120000000E+03  0.17120000000E+03 0.  0.
         13    1    1    2    0    0 -0.18571857935E+01  0.11131153427E+02  0.48916612148E+02  0.50201571925E+02  0.10566000000E+00 0. -1.
        994    1    1    2    0    0  0.79175002512E+01  0.17842394635E+02  0.27531679123E+01  0.17233124438E+03  0.17120000000E+03 0.  0.
        998    1    1    2    0    0 -0.60603144578E+01 -0.28973548062E+02  0.14483302162E+04  0.14486671837E+04  0.10000000000E+02 0. -1.
</event>
<event>
 5    1  0.1252945E-008  0.3698406E+03  0.7957747E-01  0.3496624E+00
         13   -1    0    0    0    0  0.00000000000E+00  0.00000000000E+00  0.14999999963E+04  0.15000000000E+04  0.10566000000E+00 0.  1.
        994   -1    0    0    0    0 -0.00000000000E+00 -0.00000000000E+00  0.11368683772E-12  0.17120000000E+03  0.17120000000E+03 0.  0.
         13    1    1    2    0    0  0.16289746004E+02 -0.60225392986E+02  0.16946320000E+03  0.18058305874E+03  0.10566000000E+00 0.  1.
        994    1    1    2    0    0 -0.29470795297E+02  0.72123387893E+02  0.30656543237E+02  0.19057695165E+03  0.17120000000E+03 0.  0.
        998    1    1    2    0    0  0.13181049293E+02 -0.11897994907E+02  0.12998802530E+04  0.13000399896E+04  0.10000000000E+02 0.  1.
</event>
<event>
 5    1  0.1252945E-008  0.3806532E+03  0.7957747E-01  0.3448319E+00
         13   -1    0    0    0    0  0.00000000000E+00  0.00000000000E+00  0.14999999963E+04  0.15000000000E+04  0.10566000000E+00 0.  1.
        994   -1    0    0    0    0 -0.00000000000E+00 -0.00000000000E+00  0.11368683772E-12  0.17120000000E+03  0.17120000000E+03 0.  0.
         13    1    1    2    0    0 -0.36039942265E+02  0.11200938939E+02  0.20053649713E+03  0.20405694381E+03  0.10566000000E+00 0.  1.
        994    1    1    2    0    0  0.11787938160E+02 -0.29904841105E+01  0.42972911598E+01  0.17168519212E+03  0.17120000000E+03 0.  0.
        998    1    1    2    0    0  0.24252004106E+02 -0.82104548288E+01  0.12951662080E+04  0.12954578641E+04  0.10000000000E+02 0.  1.
</event>
<event>
 5    1  0.1252945E-008  0.3780385E+03  0.7957747E-01  0.3459744E+00
         13   -1    0    0    0    0  0.00000000000E+00  0.00000000000E+00  0.14999999963E+04  0.15000000000E+04  0.10566000000E+00 0. -1.
        994   -1    0    0    0    0 -0.00000000000E+00 -0.00000000000E+00  0.11368683772E-12  0.17120000000E+03  0.17120000000E+03 0.  0.
         13    1    1    2    0    0 -0.48779795605E+01 -0.32553802858E+02  0.97689825282E+02  0.10308665235E+03  0.10566000000E+00 0. -1.
        994    1    1    2    0    0  0.61950406976E+01  0.32733167393E+02  0.88699770858E+01  0.17463663782E+03  0.17120000000E+03 0.  0.
        998    1    1    2    0    0 -0.13170611371E+01 -0.17936453521E+00  0.13934401939E+04  0.13934767098E+04  0.10000000000E+02 0.  0.
</event>
<event>
 5    1  0.1252945E-008  0.3814876E+03  0.7957747E-01  0.3444707E+00
         13   -1    0    0    0    0  0.00000000000E+00  0.00000000000E+00  0.14999999963E+04  0.15000000000E+04  0.10566000000E+00 0.  1.
        994   -1    0    0    0    0 -0.00000000000E+00 -0.00000000000E+00  0.11368683772E-12  0.17120000000E+03  0.17120000000E+03 0.  0.
         13    1    1    2    0    0 -0.15357783788E+02 -0.21675841926E+02  0.90873353781E+02  0.94676719618E+02  0.10566000000E+00 0.  1.
        994    1    1    2    0    0  0.29213845778E+02  0.28766950489E+02  0.89962853531E+01  0.17627069914E+03  0.17120000000E+03 0.  0.
        998    1    1    2    0    0 -0.13856061990E+02 -0.70911085628E+01  0.14001303571E+04  0.14002525812E+04  0.10000000000E+02 0.  1.
</event>
<event>
 5    1  0.1252945E-008  0.3731406E+03  0.7957747E-01  0.3481581E+00
         13   -1    0    0    0    0  0.00000000000E+00  0.00000000000E+00  0.14999999963E+04  0.15000000000E+04  0.10566000000E+00 0.  1.
        994   -1    0    0    0    0 -0.00000000000E+00 -0.00000000000E+00  0.11368683772E-12  0.17120000000E+03  0.17120000000E+03 0.  0.
         13    1    1    2    0    0 -0.56964524798E+02  0.47317753357E+01  0.10579525913E+03  0.12024971851E+03  0.10566000000E+00 0.  1.
        994    1    1    2    0    0  0.87396373517E+02  0.37475369287E+02  0.45303022469E+02  0.20100829150E+03  0.17120000000E+03 0.  0.
        998    1    1    2    0    0 -0.30431848720E+02 -0.42207144622E+02  0.13489017147E+04  0.13499419900E+04  0.10000000000E+02 0.  1.
</event>
<event>
 5    1  0.1252945E-008  0.3857372E+03  0.7957747E-01  0.3426552E+00
         13   -1    0    0    0    0  0.00000000000E+00  0.00000000000E+00  0.14999999963E+04  0.15000000000E+04  0.10566000000E+00 0.  1.
        994   -1    0    0    0    0 -0.00000000000E+00 -0.00000000000E+00  0.11368683772E-12  0.17120000000E+03  0.17120000000E+03 0.  0.
         13    1    1    2    0    0 -0.11340898126E+02  0.51829114471E-01  0.49528992895E+02  0.50810933447E+02  0.10566000000E+00 0.  1.
        994    1    1    2    0    0  0.13082275235E+02 -0.19792050069E+01  0.18391510243E+01  0.17172037053E+03  0.17120000000E+03 0.  0.
        998    1    1    2    0    0 -0.17413771090E+01  0.19273758924E+01  0.14486318524E+04  0.14486686960E+04  0.10000000000E+02 0.  1.
</event>
<event>
 5    1  0.1252945E-008  0.3811082E+03  0.7957747E-01  0.3446347E+00
         13   -1    0    0    0    0  0.00000000000E+00  0.00000000000E+00  0.14999999963E+04  0.15000000000E+04  0.10566000000E+00 0. -1.
        994   -1    0    0    0    0 -0.00000000000E+00 -0.00000000000E+00  0.11368683772E-12  0.17120000000E+03  0.17120000000E+03 0.  0.
         13    1    1    2    0    0 -0.63565520678E+01  0.11350896500E+02  0.22793780697E+02  0.26245308305E+02  0.10566000000E+00 0. -1.
        994    1    1    2    0    0 -0.81246256524E+01 -0.52301780788E+01  0.38858201959E+01  0.17151648289E+03  0.17120000000E+03 0.  0.
        998    1    1    2    0    0  0.14481177720E+02 -0.61207184216E+01  0.14733203954E+04  0.14734382088E+04  0.10000000000E+02 0. -1.
</event>
<event>
 5    1  0.1252945E-008  0.3730626E+03  0.7957747E-01  0.3481933E+00
         13   -1    0    0    0    0  0.00000000000E+00  0.00000000000E+00  0.14999999963E+04  0.15000000000E+04  0.10566000000E+00 0. -1.
        994   -1    0    0    0    0 -0.00000000000E+00 -0.00000000000E+00  0.11368683772E-12  0.17120000000E+03  0.17120000000E+03 0.  0.
         13    1    1    2    0    0  0.80084872113E+01  0.61105035465E+02  0.28944822868E+03  0.29593622535E+03  0.10566000000E+00 0. -1.
        994    1    1    2    0    0  0.66464739180E+01 -0.13024026808E+02  0.84088642117E+01  0.17202892166E+03  0.17120000000E+03 0.  0.
        998    1    1    2    0    0 -0.14654961129E+02 -0.48081008657E+02  0.12021429034E+04  0.12032348530E+04  0.10000000000E+02 0. -1.
</event>
<event>
 5    1  0.1252945E-008  0.3837801E+03  0.7957747E-01  0.3434863E+00
         13   -1    0    0    0    0  0.00000000000E+00  0.00000000000E+00  0.14999999963E+04  0.15000000000E+04  0.10566000000E+00 0. -1.
        994   -1    0    0    0    0 -0.00000000000E+00 -0.00000000000E+00  0.11368683772E-12  0.17120000000E+03  0.17120000000E+03 0.  0.
         13    1    1    2    0    0  0.98407276612E+01 -0.16114548167E+02  0.85358252378E+02  0.87421742127E+02  0.10566000000E+00 0. -1.
        994    1    1    2    0    0  0.10390294591E+02  0.67970361723E+01  0.27461764570E+01  0.17167160338E+03  0.17120000000E+03 0.  0.
        998    1    1    2    0    0 -0.20231022252E+02  0.93175119949E+01  0.14118955674E+04  0.14121066545E+04  0.10000000000E+02 0. -1.
</event>
<event>
 5    1  0.1252945E-008  0.3793187E+03  0.7957747E-01  0.3454130E+00
         13   -1    0    0    0    0  0.00000000000E+00  0.00000000000E+00  0.14999999963E+04  0.15000000000E+04  0.10566000000E+00 0.  1.
        994   -1    0    0    0    0 -0.00000000000E+00 -0.00000000000E+00  0.11368683772E-12  0.17120000000E+03  0.17120000000E+03 0.  0.
         13    1    1    2    0    0 -0.37512827760E+02 -0.49945902881E+01  0.15817076163E+03  0.16263504905E+03  0.10566000000E+00 0.  1.
        994    1    1    2    0    0  0.22945653286E+02 -0.24451462210E+01  0.62635387932E+01  0.17286166048E+03  0.17120000000E+03 0.  0.
        998    1    1    2    0    0  0.14567174474E+02  0.74397365092E+01  0.13355656959E+04  0.13357032905E+04  0.10000000000E+02 0.  1.
</event>
<event>
 5    1  0.1252945E-008  0.3845964E+03  0.7957747E-01  0.3431386E+00
         13   -1    0    0    0    0  0.00000000000E+00  0.00000000000E+00  0.14999999963E+04  0.15000000000E+04  0.10566000000E+00 0.  1.
        994   -1    0    0    0    0 -0.00000000000E+00 -0.00000000000E+00  0.11368683772E-12  0.17120000000E+03  0.17120000000E+03 0.  0.
         13    1    1    2    0    0 -0.84363420491E+01  0.97713311034E+01  0.45284687931E+02  0.47088904253E+02  0.10566000000E+00 0.  1.
        994    1    1    2    0    0  0.85543040279E+01 -0.38704446071E+01  0.21210149397E+01  0.17147039151E+03  0.17120000000E+03 0.  0.
        998    1    1    2    0    0 -0.11796197880E+00 -0.59008864963E+01  0.14525942934E+04  0.14526407042E+04  0.10000000000E+02 0.  1.
</event>
<event>
 5    1  0.1252945E-008  0.3838945E+03  0.7957747E-01  0.3434374E+00
         13   -1    0    0    0    0  0.00000000000E+00  0.00000000000E+00  0.14999999963E+04  0.15000000000E+04  0.10566000000E+00 0. -1.
        994   -1    0    0    0    0 -0.00000000000E+00 -0.00000000000E+00  0.11368683772E-12  0.17120000000E+03  0.17120000000E+03 0.  0.
         13    1    1    2    0    0 -0.10810038864E+02 -0.27824503797E+01  0.28036329467E+02  0.30176910119E+02  0.10566000000E+00 0. -1.
        994    1    1    2    0    0  0.51050259301E+01  0.71258810167E+01  0.24336345649E+01  0.17144154119E+03  0.17120000000E+03 0.  0.
        998    1    1    2    0    0  0.57050129335E+01 -0.43434306369E+01  0.14695300322E+04  0.14695815487E+04  0.10000000000E+02 0. -1.
</event>
<event>
 5    1  0.1252945E-008  0.3800175E+03  0.7957747E-01  0.3451082E+00
         13   -1    0    0    0    0  0.00000000000E+00  0.00000000000E+00  0.14999999963E+04  0.15000000000E+04  0.10566000000E+00 0.  1.
        994   -1    0    0    0    0 -0.00000000000E+00 -0.00000000000E+00  0.11368683772E-12  0.17120000000E+03  0.17120000000E+03 0.  0.
         13    1    1    2    0    0  0.14106917086E+02  0.83775852433E+01  0.30987970602E+02  0.35063578401E+02  0.10566000000E+00 0.  1.
        994    1    1    2    0    0 -0.12814078042E+02 -0.59349453535E+00  0.46745502151E+01  0.17174354210E+03  0.17120000000E+03 0.  0.
        998    1    1    2    0    0 -0.12928390441E+01 -0.77840907080E+01  0.14643374755E+04  0.14643928795E+04  0.10000000000E+02 0.  1.
</event>
<event>
 5    1  0.1252945E-008  0.3691734E+03  0.7957747E-01  0.3499699E+00
         13   -1    0    0    0    0  0.00000000000E+00  0.00000000000E+00  0.14999999963E+04  0.15000000000E+04  0.10566000000E+00 0. -1.
        994   -1    0    0    0    0 -0.00000000000E+00 -0.00000000000E+00  0.11368683772E-12  0.17120000000E+03  0.17120000000E+03 0.  0.
         13    1    1    2    0    0 -0.71999174030E+01  0.35971088596E+02  0.58043574610E+02  0.68664588711E+02  0.10566000000E+00 0. -1.
        994    1    1    2    0    0  0.91300255160E+01 -0.35329305043E+02  0.15158179267E+02  0.17570067604E+03  0.17120000000E+03 0.  0.
        998    1    1    2    0    0 -0.19301081130E+01 -0.64178355307E+00  0.14267982424E+04  0.14268347353E+04  0.10000000000E+02 0. -1.
</event>
<event>
 5    1  0.1396686E-008  0.3860118E+03  0.7957747E-01  0.3425392E+00
         13   -1    0    0    0    0  0.00000000000E+00  0.00000000000E+00  0.14999999963E+04  0.15000000000E+04  0.10566000000E+00 0. -1.
        994   -1    0    0    0    0 -0.00000000000E+00 -0.00000000000E+00  0.11368683772E-12  0.17120000000E+03  0.17120000000E+03 0.  0.
         13    1    1    2    0    0  0.39354496678E+01  0.10653616852E+02  0.57980264312E+02  0.59082226852E+02  0.10566000000E+00 0. -1.
        994    1    1    2    0    0  0.32325327289E+01 -0.89741470845E+01  0.14269351364E+01  0.17147145747E+03  0.17120000000E+03 0.  0.
        998    1    1    2    0    0 -0.71679823967E+01 -0.16794697671E+01  0.14405927968E+04  0.14406463157E+04  0.10000000000E+02 0. -1.
</event>
<event>
 5    1  0.1252945E-008  0.3840864E+03  0.7957747E-01  0.3433556E+00
         13   -1    0    0    0    0  0.00000000000E+00  0.00000000000E+00  0.14999999963E+04  0.15000000000E+04  0.10566000000E+00 0.  1.
        994   -1    0    0    0    0 -0.00000000000E+00 -0.00000000000E+00  0.11368683772E-12  0.17120000000E+03  0.17120000000E+03 0.  0.
         13    1    1    2    0    0 -0.10513855846E+02  0.13011779097E+01  0.27005282985E+02  0.29009148588E+02  0.10566000000E+00 0.  1.
        994    1    1    2    0    0  0.87331691535E+00  0.22101423494E+01  0.21030455533E+01  0.17122940814E+03  0.17120000000E+03 0.  0.
        998    1    1    2    0    0  0.96405389305E+01 -0.35113202590E+01  0.14708916677E+04  0.14709614433E+04  0.10000000000E+02 0.  1.
</event>
<event>
 5    1  0.1252945E-008  0.3744935E+03  0.7957747E-01  0.3475491E+00
         13   -1    0    0    0    0  0.00000000000E+00  0.00000000000E+00  0.14999999963E+04  0.15000000000E+04  0.10566000000E+00 0. -1.
        994   -1    0    0    0    0 -0.00000000000E+00 -0.00000000000E+00  0.11368683772E-12  0.17120000000E+03  0.17120000000E+03 0.  0.
         13    1    1    2    0    0  0.78753093400E+02  0.27214371382E+02  0.24680500284E+03  0.26049067607E+03  0.10566000000E+00 0. -1.
        994    1    1    2    0    0 -0.52153871042E+02 -0.23671068445E+02  0.25079687994E+02  0.18226018900E+03  0.17120000000E+03 0.  0.
        998    1    1    2    0    0 -0.26599222358E+02 -0.35433029375E+01  0.12281153054E+04  0.12284491349E+04  0.10000000000E+02 0. -1.
</event>
<event>
 5    1  0.1252945E-008  0.3718507E+03  0.7957747E-01  0.3487428E+00
         13   -1    0    0    0    0  0.00000000000E+00  0.00000000000E+00  0.14999999963E+04  0.15000000000E+04  0.10566000000E+00 0.  1.
        994   -1    0    0    0    0 -0.00000000000E+00 -0.00000000000E+00  0.11368683772E-12  0.17120000000E+03  0.17120000000E+03 0.  0.
         13    1    1    2    0    0  0.18285820018E+02 -0.83711329013E+01  0.20516768696E+02  0.28729706603E+02  0.10566000000E+00 0.  1.
        994    1    1    2    0    0 -0.21023302153E+02  0.24486832226E+01  0.98455526771E+01  0.17278411440E+03  0.17120000000E+03 0.  0.
        998    1    1    2    0    0  0.27374821357E+01  0.59224496788E+01  0.14696376749E+04  0.14696861790E+04  0.10000000000E+02 0.  1.
</event>
<event>
 5    1  0.1252945E-008  0.3789581E+03  0.7957747E-01  0.3455708E+00
         13   -1    0    0    0    0  0.00000000000E+00  0.00000000000E+00  0.14999999963E+04  0.15000000000E+04  0.10566000000E+00 0.  1.
        994   -1    0    0    0    0 -0.00000000000E+00 -0.00000000000E+00  0.11368683772E-12  0.17120000000E+03  0.17120000000E+03 0.  0.
         13    1    1    2    0    0 -0.71174834902E+01 -0.16408855631E+02  0.32046015487E+02  0.36699691920E+02  0.10566000000E+00 0.  1.
        994    1    1    2    0    0  0.31616485016E+01  0.16463255021E+02  0.56032713958E+01  0.17211005618E+03  0.17120000000E+03 0.  0.
        998    1    1    2    0    0  0.39558349886E+01 -0.54399389211E-01  0.14623507094E+04  0.14623902519E+04  0.10000000000E+02 0.  1.
</event>
<event>
 5    1  0.1252945E-008  0.3730509E+03  0.7957747E-01  0.3481986E+00
         13   -1    0    0    0    0  0.00000000000E+00  0.00000000000E+00  0.14999999963E+04  0.15000000000E+04  0.10566000000E+00 0. -1.
        994   -1    0    0    0    0 -0.00000000000E+00 -0.00000000000E+00  0.11368683772E-12  0.17120000000E+03  0.17120000000E+03 0.  0.
         13    1    1    2    0    0 -0.57057731880E+02 -0.24449132278E+01  0.22151951175E+03  0.22876290699E+03  0.10566000000E+00 0. -1.
        994    1    1    2    0    0  0.23675618962E+02  0.32013948067E+02  0.13127349187E+02  0.17625888659E+03  0.17120000000E+03 0.  0.
        998    1    1    2    0    0  0.33382112918E+02 -0.29569034839E+02  0.12653531353E+04  0.12661782064E+04  0.10000000000E+02 0. -1.
</event>
<event>
 5    1  0.1252945E-008  0.3821754E+03  0.7957747E-01  0.3441741E+00
         13   -1    0    0    0    0  0.00000000000E+00  0.00000000000E+00  0.14999999963E+04  0.15000000000E+04  0.10566000000E+00 0. -1.
        994   -1    0    0    0    0 -0.00000000000E+00 -0.00000000000E+00  0.11368683772E-12  0.17120000000E+03  0.17120000000E+03 0.  0.
         13    1    1    2    0    0 -0.13993932223E+02  0.13723175940E+02  0.65365506347E+02  0.68240869580E+02  0.10566000000E+00 0. -1.
        994    1    1    2    0    0  0.52049548462E+01  0.18977921663E+01  0.31409047154E+01  0.17131841247E+03  0.17120000000E+03 0.  0.
        998    1    1    2    0    0  0.87889773773E+01 -0.15620968106E+02  0.14314935852E+04  0.14316407179E+04  0.10000000000E+02 0. -1.
</event>
<event>
 5    1  0.1252945E-008  0.3835419E+03  0.7957747E-01  0.3435880E+00
         13   -1    0    0    0    0  0.00000000000E+00  0.00000000000E+00  0.14999999963E+04  0.15000000000E+04  0.10566000000E+00 0. -1.
        994   -1    0    0    0    0 -0.00000000000E+00 -0.00000000000E+00  0.11368683772E-12  0.17120000000E+03  0.17120000000E+03 0.  0.
         13    1    1    2    0    0 -0.22257986655E+02  0.15651068245E+01  0.12615262038E+03  0.12811074242E+03  0.10566000000E+00 0. -1.
        994    1    1    2    0    0 -0.65403692006E+01  0.29184610150E+02  0.53171262807E+01  0.17387417787E+03  0.17120000000E+03 0.  0.
        998    1    1    2    0    0  0.28798355856E+02 -0.30749716974E+02  0.13685302496E+04  0.13692150797E+04  0.10000000000E+02 0. -1.
</event>
<event>
 5    1  0.1252945E-008  0.3813932E+03  0.7957747E-01  0.3445115E+00
         13   -1    0    0    0    0  0.00000000000E+00  0.00000000000E+00  0.14999999963E+04  0.15000000000E+04  0.10566000000E+00 0.  1.
        994   -1    0    0    0    0 -0.00000000000E+00 -0.00000000000E+00  0.11368683772E-12  0.17120000000E+03  0.17120000000E+03 0.  0.
         13    1    1    2    0    0 -0.98560427087E+01  0.13474391254E+02  0.36636006126E+02  0.40260512993E+02  0.10566000000E+00 0.  1.
        994    1    1    2    0    0  0.50249872959E+02 -0.22426721363E+01  0.11896812940E+02  0.17883247319E+03  0.17120000000E+03 0.  0.
        998    1    1    2    0    0 -0.40393830251E+02 -0.11231719118E+02  0.14514671772E+04  0.14521070138E+04  0.10000000000E+02 0.  1.
</event>
<event>
 5    1  0.1252945E-008  0.3824970E+03  0.7957747E-01  0.3440357E+00
         13   -1    0    0    0    0  0.00000000000E+00  0.00000000000E+00  0.14999999963E+04  0.15000000000E+04  0.10566000000E+00 0. -1.
        994   -1    0    0    0    0 -0.00000000000E+00 -0.00000000000E+00  0.11368683772E-12  0.17120000000E+03  0.17120000000E+03 0.  0.
         13    1    1    2    0    0  0.62979954767E+01  0.24387541929E+02  0.10071201593E+03  0.10381395987E+03  0.10566000000E+00 0. -1.
        994    1    1    2    0    0 -0.77797347416E+01 -0.28132254120E+02  0.57077487276E+01  0.17376411134E+03  0.17120000000E+03 0.  0.
        998    1    1    2    0    0  0.14817392649E+01  0.37447121912E+01  0.13935802316E+04  0.13936219288E+04  0.10000000000E+02 0. -1.
</event>
<event>
 5    1  0.1252945E-008  0.3890207E+03  0.7957747E-01  0.3412797E+00
         13   -1    0    0    0    0  0.00000000000E+00  0.00000000000E+00  0.14999999963E+04  0.15000000000E+04  0.10566000000E+00 0. -1.
        994   -1    0    0    0    0 -0.00000000000E+00 -0.00000000000E+00  0.11368683772E-12  0.17120000000E+03  0.17120000000E+03 0.  0.
         13    1    1    2    0    0  0.37057461553E+02 -0.70638007768E+02  0.13416441604E+03  0.15608678769E+03  0.10566000000E+00 0. -1.
        994    1    1    2    0    0 -0.24968190381E+02  0.66738592219E+02  0.40664259774E+02  0.18984328338E+03  0.17120000000E+03 0.  0.
        998    1    1    2    0    0 -0.12089271172E+02  0.38994155497E+01  0.13251713205E+04  0.13252699289E+04  0.10000000000E+02 0. -1.
</event>
<event>
 5    1  0.1252945E-008  0.3794198E+03  0.7957747E-01  0.3453689E+00
         13   -1    0    0    0    0  0.00000000000E+00  0.00000000000E+00  0.14999999963E+04  0.15000000000E+04  0.10566000000E+00 0.  1.
        994   -1    0    0    0    0 -0.00000000000E+00 -0.00000000000E+00  0.11368683772E-12  0.17120000000E+03  0.17120000000E+03 0.  0.
         13    1    1    2    0    0 -0.19163056965E+02 -0.79278145835E+01  0.51079745566E+02  0.55129162586E+02  0.10566000000E+00 0.  1.
        994    1    1    2    0    0 -0.17169896165E+01 -0.20388397290E+02  0.58296925685E+01  0.17251684008E+03  0.17120000000E+03 0.  0.
        998    1    1    2    0    0  0.20880046582E+02  0.28316211873E+02  0.14430905581E+04  0.14435539973E+04  0.10000000000E+02 0.  1.
</event>
<event>
 5    1  0.1252945E-008  0.3842534E+03  0.7957747E-01  0.3432845E+00
         13   -1    0    0    0    0  0.00000000000E+00  0.00000000000E+00  0.14999999963E+04  0.15000000000E+04  0.10566000000E+00 0.  1.
        994   -1    0    0    0    0 -0.00000000000E+00 -0.00000000000E+00  0.11368683772E-12  0.17120000000E+03  0.17120000000E+03 0.  0.
         13    1    1    2    0    0 -0.97927185654E+01  0.14616741697E+02  0.76317943500E+02  0.78319768506E+02  0.10566000000E+00 0.  1.
        994    1    1    2    0    0  0.30409543619E+01 -0.13419257743E+02  0.26256601465E+01  0.17177211058E+03  0.17120000000E+03 0.  0.
        998    1    1    2    0    0  0.67517642035E+01 -0.11974839538E+01  0.14210563926E+04  0.14211081209E+04  0.10000000000E+02 0.  1.
</event>
<event>
 5    1  0.1252945E-008  0.3848215E+03  0.7957747E-01  0.3430430E+00
         13   -1    0    0    0    0  0.00000000000E+00  0.00000000000E+00  0.14999999963E+04  0.15000000000E+04  0.10566000000E+00 0. -1.
        994   -1    0    0    0    0 -0.00000000000E+00 -0.00000000000E+00  0.11368683772E-12  0.17120000000E+03  0.17120000000E+03 0.  0.
         13    1    1    2    0    0 -0.18247724921E+01  0.18624311771E+02  0.93689725023E+02  0.95540413033E+02  0.10566000000E+00 0. -1.
        994    1    1    2    0    0  0.74636480074E+01 -0.22756926707E+02  0.36084783958E+01  0.17290472773E+03  0.17120000000E+03 0.  0.
        998    1    1    2    0    0 -0.56388755152E+01  0.41326149355E+01  0.14027017929E+04  0.14027548592E+04  0.10000000000E+02 0. -1.
</event>
<event>
 5    1  0.1252945E-008  0.3817302E+03  0.7957747E-01  0.3443659E+00
         13   -1    0    0    0    0  0.00000000000E+00  0.00000000000E+00  0.14999999963E+04  0.15000000000E+04  0.10566000000E+00 0. -1.
        994   -1    0    0    0    0 -0.00000000000E+00 -0.00000000000E+00  0.11368683772E-12  0.17120000000E+03  0.17120000000E+03 0.  0.
         13    1    1    2    0    0 -0.96138321195E+01  0.89605516831E+01  0.24578530926E+02  0.27871716865E+02  0.10566000000E+00 0. -1.
        994    1    1    2    0    0  0.23261660638E+02 -0.35564890858E+00  0.50633471457E+01  0.17284764628E+03  0.17120000000E+03 0.  0.
        998    1    1    2    0    0 -0.13647828519E+02 -0.86049027745E+01  0.14703581182E+04  0.14704806369E+04  0.10000000000E+02 0. -1.
</event>
<event>
 5    1  0.1252945E-008  0.3814002E+03  0.7957747E-01  0.3445084E+00
         13   -1    0    0    0    0  0.00000000000E+00  0.00000000000E+00  0.14999999963E+04  0.15000000000E+04  0.10566000000E+00 0. -1.
        994   -1    0    0    0    0 -0.00000000000E+00 -0.00000000000E+00  0.11368683772E-12  0.17120000000E+03  0.17120000000E+03 0.  0.
         13    1    1    2    0    0 -0.19052886518E+02  0.42518504930E+01  0.54098793443E+02  0.57513314400E+02  0.10566000000E+00 0. -1.
        994    1    1    2    0    0  0.75727447204E+01 -0.31779254648E+02  0.69874917965E+01  0.17442916193E+03  0.17120000000E+03 0.  0.
        998    1    1    2    0    0  0.11480141797E+02  0.27527404155E+02  0.14389137110E+04  0.14392575237E+04  0.10000000000E+02 0. -1.
</event>
<event>
 5    1  0.1252945E-008  0.3803060E+03  0.7957747E-01  0.3449827E+00
         13   -1    0    0    0    0  0.00000000000E+00  0.00000000000E+00  0.14999999963E+04  0.15000000000E+04  0.10566000000E+00 0.  1.
        994   -1    0    0    0    0 -0.00000000000E+00 -0.00000000000E+00  0.11368683772E-12  0.17120000000E+03  0.17120000000E+03 0.  0.
         13    1    1    2    0    0  0.18979856401E+02  0.52004018525E+02  0.33134782041E+03  0.33594053364E+03  0.10566000000E+00 0.  1.
        994    1    1    2    0    0 -0.89549678411E+01 -0.46201623149E+02  0.11410791442E+02  0.17791691205E+03  0.17120000000E+03 0.  0.
        998    1    1    2    0    0 -0.10024888560E+02 -0.58023953758E+01  0.11572413844E+04  0.11573425543E+04  0.10000000000E+02 0.  1.
</event>
<event>
 5    1  0.1252945E-008  0.3796530E+03  0.7957747E-01  0.3452671E+00
         13   -1    0    0    0    0  0.00000000000E+00  0.00000000000E+00  0.14999999963E+04  0.15000000000E+04  0.10566000000E+00 0.  1.
        994   -1    0    0    0    0 -0.00000000000E+00 -0.00000000000E+00  0.11368683772E-12  0.17120000000E+03  0.17120000000E+03 0.  0.
         13    1    1    2    0    0 -0.57470416608E+02 -0.18643513017E+02  0.32218923742E+03  0.32780534656E+03  0.10566000000E+00 0.  1.
        994    1    1    2    0    0  0.63144527982E+02  0.12611231486E+02  0.18312226829E+02  0.18382342676E+03  0.17120000000E+03 0.  0.
        998    1    1    2    0    0 -0.56741113739E+01  0.60322815314E+01  0.11594985320E+04  0.11595712267E+04  0.10000000000E+02 0.  1.
</event>
<event>
 5    1  0.1252945E-008  0.3820356E+03  0.7957747E-01  0.3442343E+00
         13   -1    0    0    0    0  0.00000000000E+00  0.00000000000E+00  0.14999999963E+04  0.15000000000E+04  0.10566000000E+00 0. -1.
        994   -1    0    0    0    0 -0.00000000000E+00 -0.00000000000E+00  0.11368683772E-12  0.17120000000E+03  0.17120000000E+03 0.  0.
         13    1    1    2    0    0  0.19484665790E+02  0.19726562561E+00  0.58525254296E+02  0.61683933638E+02  0.10566000000E+00 0. -1.
        994    1    1    2    0    0 -0.18249840514E+02  0.15410316616E+01  0.42237049134E+01  0.17222865946E+03  0.17120000000E+03 0.  0.
        998    1    1    2    0    0 -0.12348252757E+01 -0.17382972872E+01  0.14372510371E+04  0.14372874069E+04  0.10000000000E+02 0. -1.
</event>
<event>
 5    1  0.1252945E-008  0.3838583E+03  0.7957747E-01  0.3434529E+00
         13   -1    0    0    0    0  0.00000000000E+00  0.00000000000E+00  0.14999999963E+04  0.15000000000E+04  0.10566000000E+00 0.  1.
        994   -1    0    0    0    0 -0.00000000000E+00 -0.00000000000E+00  0.11368683772E-12  0.17120000000E+03  0.17120000000E+03 0.  0.
         13    1    1    2    0    0 -0.35897570062E+01  0.13682930972E+02  0.44365198061E+02  0.46565984563E+02  0.10566000000E+00 0.  1.
        994    1    1    2    0    0  0.89378225133E+01 -0.10529172707E+02  0.28279320591E+01  0.17177946719E+03  0.17120000000E+03 0.  0.
        998    1    1    2    0    0 -0.53480655071E+01 -0.31537582655E+01  0.14528068662E+04  0.14528545482E+04  0.10000000000E+02 0.  1.
</event>
<event>
 5    1  0.1252945E-008  0.3844298E+03  0.7957747E-01  0.3432094E+00
         13   -1    0    0    0    0  0.00000000000E+00  0.00000000000E+00  0.14999999963E+04  0.15000000000E+04  0.10566000000E+00 0. -1.
        994   -1    0    0    0    0 -0.00000000000E+00 -0.00000000000E+00  0.11368683772E-12  0.17120000000E+03  0.17120000000E+03 0.  0.
         13    1    1    2    0    0 -0.10504973172E+02 -0.37121954619E+01  0.32117632510E+02  0.33995416435E+02  0.10566000000E+00 0. -1.
        994    1    1    2    0    0  0.73231308127E+01 -0.34305862564E+00  0.20906027864E+01  0.17136964887E+03  0.17120000000E+03 0.  0.
        998    1    1    2    0    0  0.31818423597E+01  0.40552540876E+01  0.14657917610E+04  0.14658349347E+04  0.10000000000E+02 0. -1.
</event>
<event>
 5    1  0.1252945E-008  0.3753252E+03  0.7957747E-01  0.3471769E+00
         13   -1    0    0    0    0  0.00000000000E+00  0.00000000000E+00  0.14999999963E+04  0.15000000000E+04  0.10566000000E+00 0. -1.
        994   -1    0    0    0    0 -0.00000000000E+00 -0.00000000000E+00  0.11368683772E-12  0.17120000000E+03  0.17120000000E+03 0.  0.
         13    1    1    2    0    0  0.20212308190E+02 -0.16151917274E+02  0.46222200880E+02  0.52970981227E+02  0.10566000000E+00 0. -1.
        994    1    1    2    0    0 -0.24850218220E+02  0.24699774868E+02  0.10691490326E+02  0.17507529863E+03  0.17120000000E+03 0.  0.
        998    1    1    2    0    0  0.46379100302E+01 -0.85478575936E+01  0.14430863051E+04  0.14431537201E+04  0.10000000000E+02 0. -1.
</event>
<event>
 5    1  0.1252945E-008  0.3686137E+03  0.7957747E-01  0.3502286E+00
         13   -1    0    0    0    0  0.00000000000E+00  0.00000000000E+00  0.14999999963E+04  0.15000000000E+04  0.10566000000E+00 0. -1.
        994   -1    0    0    0    0 -0.00000000000E+00 -0.00000000000E+00  0.11368683772E-12  0.17120000000E+03  0.17120000000E+03 0.  0.
         13    1    1    2    0    0 -0.37688414386E+02  0.68772815999E+02  0.22766029118E+03  0.24078898676E+03  0.10566000000E+00 0. -1.
        994    1    1    2    0    0  0.66900914282E+02 -0.73824503735E+02  0.45583896603E+02  0.20325629465E+03  0.17120000000E+03 0.  0.
        998    1    1    2    0    0 -0.29212499896E+02  0.50516877363E+01  0.12267558085E+04  0.12271547186E+04  0.10000000000E+02 0. -1.
</event>
<event>
 5    1  0.1252945E-008  0.3822634E+03  0.7957747E-01  0.3441362E+00
         13   -1    0    0    0    0  0.00000000000E+00  0.00000000000E+00  0.14999999963E+04  0.15000000000E+04  0.10566000000E+00 0. -1.
        994   -1    0    0    0    0 -0.00000000000E+00 -0.00000000000E+00  0.11368683772E-12  0.17120000000E+03  0.17120000000E+03 0.  0.
         13    1    1    2    0    0 -0.87120655698E+01 -0.11209556405E+02  0.32511310292E+02  0.35476058155E+02  0.10566000000E+00 0. -1.
        994    1    1    2    0    0  0.93206456504E+01  0.57100999473E+01  0.33914628089E+01  0.17158211357E+03  0.17120000000E+03 0.  0.
        998    1    1    2    0    0 -0.60858008061E+00  0.54994564574E+01  0.14640972232E+04  0.14641418283E+04  0.10000000000E+02 0. -1.
</event>
<event>
 5    1  0.1252945E-008  0.3684847E+03  0.7957747E-01  0.3502884E+00
         13   -1    0    0    0    0  0.00000000000E+00  0.00000000000E+00  0.14999999963E+04  0.15000000000E+04  0.10566000000E+00 0.  1.
        994   -1    0    0    0    0 -0.00000000000E+00 -0.00000000000E+00  0.11368683772E-12  0.17120000000E+03  0.17120000000E+03 0.  0.
         13    1    1    2    0    0  0.51318371432E+01  0.22223845580E+02  0.20944099445E+02  0.30966135219E+02  0.10566000000E+00 0.  1.
        994    1    1    2    0    0 -0.19550559221E+02 -0.25152613251E+02  0.13598981501E+02  0.17466897440E+03  0.17120000000E+03 0.  0.
        998    1    1    2    0    0  0.14418722077E+02  0.29287676707E+01  0.14654569153E+04  0.14655648904E+04  0.10000000000E+02 0.  1.
</event>
<event>
 5    1  0.1252945E-008  0.3798288E+03  0.7957747E-01  0.3451904E+00
         13   -1    0    0    0    0  0.00000000000E+00  0.00000000000E+00  0.14999999963E+04  0.15000000000E+04  0.10566000000E+00 0.  1.
        994   -1    0    0    0    0 -0.00000000000E+00 -0.00000000000E+00  0.11368683772E-12  0.17120000000E+03  0.17120000000E+03 0.  0.
         13    1    1    2    0    0  0.19426690544E+02  0.10830108975E+02  0.57116567081E+02  0.61294379555E+02  0.10566000000E+00 0.  1.
        994    1    1    2    0    0 -0.16803769669E+02  0.11440457154E+01  0.51689767275E+01  0.17210413660E+03  0.17120000000E+03 0.  0.
        998    1    1    2    0    0 -0.26229208750E+01 -0.11974154690E+02  0.14377144525E+04  0.14378014838E+04  0.10000000000E+02 0.  1.
</event>
<event>
 5    1  0.1252945E-008  0.3852736E+03  0.7957747E-01  0.3428512E+00
         13   -1    0    0    0    0  0.00000000000E+00  0.00000000000E+00  0.14999999963E+04  0.15000000000E+04  0.10566000000E+00 0. -1.
        994   -1    0    0    0    0 -0.00000000000E+00 -0.00000000000E+00  0.11368683772E-12  0.17120000000E+03  0.17120000000E+03 0.  0.
         13    1    1    2    0    0  0.51242326253E+01 -0.13351645168E+02  0.69252670830E+02  0.70713985674E+02  0.10566000000E+00 0. -1.
        994    1    1    2    0    0 -0.27959090755E+01  0.75861879396E+01  0.17091508312E+01  0.17139932483E+03  0.17120000000E+03 0.  0.
        998    1    1    2    0    0 -0.23283235498E+01  0.57654572284E+01  0.14290381746E+04  0.14290866895E+04  0.10000000000E+02 0. -1.
</event>
<event>
 5    1  0.1252945E-008  0.3808943E+03  0.7957747E-01  0.3447274E+00
         13   -1    0    0    0    0  0.00000000000E+00  0.00000000000E+00  0.14999999963E+04  0.15000000000E+04  0.10566000000E+00 0.  1.
        994   -1    0    0    0    0 -0.00000000000E+00 -0.00000000000E+00  0.11368683772E-12  0.17120000000E+03  0.17120000000E+03 0.  0.
         13    1    1    2    0    0  0.20101337868E+02  0.12381647715E+02  0.70964666831E+02  0.74788796532E+02  0.10566000000E+00 0.  1.
        994    1    1    2    0    0 -0.24120856901E+02 -0.89414619430E+01  0.58912400363E+01  0.17322214693E+03  0.17120000000E+03 0.  0.
        998    1    1    2    0    0  0.40195190329E+01 -0.34401857719E+01  0.14231440894E+04  0.14231890565E+04  0.10000000000E+02 0.  1.
</event>
<event>
 5    1  0.1252945E-008  0.3842837E+03  0.7957747E-01  0.3432716E+00
         13   -1    0    0    0    0  0.00000000000E+00  0.00000000000E+00  0.14999999963E+04  0.15000000000E+04  0.10566000000E+00 0. -1.
        994   -1    0    0    0    0 -0.00000000000E+00 -0.00000000000E+00  0.11368683772E-12  0.17120000000E+03  0.17120000000E+03 0.  0.
         13    1    1    2    0    0  0.16255777304E+02 -0.29742005426E+01  0.69914873767E+02  0.71841470632E+02  0.10566000000E+00 0. -1.
        994    1    1    2    0    0 -0.31975197346E+01  0.26454614930E+02  0.43302777459E+01  0.17331549870E+03  0.17120000000E+03 0.  0.
        998    1    1    2    0    0 -0.13058257570E+02 -0.23480414388E+02  0.14257548448E+04  0.14260430307E+04  0.10000000000E+02 0. -1.
</event>
<event>
 5    1  0.1252945E-008  0.3722130E+03  0.7957747E-01  0.3485782E+00
         13   -1    0    0    0    0  0.00000000000E+00  0.00000000000E+00  0.14999999963E+04  0.15000000000E+04  0.10566000000E+00 0. -1.
        994   -1    0    0    0    0 -0.00000000000E+00 -0.00000000000E+00  0.11368683772E-12  0.17120000000E+03  0.17120000000E+03 0.  0.
         13    1    1    2    0    0 -0.65886904566E+02  0.18565464365E+02  0.17101371635E+03  0.18420494837E+03  0.10566000000E+00 0. -1.
        994    1    1    2    0    0  0.61200231600E+02 -0.23073752075E+02  0.27342763009E+02  0.18529687820E+03  0.17120000000E+03 0.  0.
        998    1    1    2    0    0  0.46866729661E+01  0.45082877097E+01  0.13016435169E+04  0.13016981734E+04  0.10000000000E+02 0. -1.
</event>
<event>
 5    1  0.1252945E-008  0.3805949E+03  0.7957747E-01  0.3448572E+00
         13   -1    0    0    0    0  0.00000000000E+00  0.00000000000E+00  0.14999999963E+04  0.15000000000E+04  0.10566000000E+00 0. -1.
        994   -1    0    0    0    0 -0.00000000000E+00 -0.00000000000E+00  0.11368683772E-12  0.17120000000E+03  0.17120000000E+03 0.  0.
         13    1    1    2    0    0 -0.20436068349E+02  0.35853944134E+02  0.48817347649E+02  0.63924039258E+02  0.10566000000E+00 0. -1.
        994    1    1    2    0    0 -0.17719406054E+02 -0.53397068320E+01  0.17899123037E+02  0.17312512361E+03  0.17120000000E+03 0.  0.
        998    1    1    2    0    0  0.38155474403E+02 -0.30514237302E+02  0.14332835256E+04  0.14341508371E+04  0.10000000000E+02 0. -1.
</event>
<event>
 5    1  0.1252945E-008  0.3828412E+03  0.7957747E-01  0.3438880E+00
         13   -1    0    0    0    0  0.00000000000E+00  0.00000000000E+00  0.14999999963E+04  0.15000000000E+04  0.10566000000E+00 0. -1.
        994   -1    0    0    0    0 -0.00000000000E+00 -0.00000000000E+00  0.11368683772E-12  0.17120000000E+03  0.17120000000E+03 0.  0.
         13    1    1    2    0    0  0.10680983359E+02 -0.11646439708E+02  0.46678833300E+02  0.49281310916E+02  0.10566000000E+00 0. -1.
        994    1    1    2    0    0  0.42712620697E+00  0.52268228737E+01  0.27968156431E+01  0.17130313567E+03  0.17120000000E+03 0.  0.
        998    1    1    2    0    0 -0.11108109566E+02  0.64196168341E+01  0.14505243473E+04  0.14506155534E+04  0.10000000000E+02 0. -1.
</event>
<event>
 5    1  0.1252945E-008  0.3839661E+03  0.7957747E-01  0.3434069E+00
         13   -1    0    0    0    0  0.00000000000E+00  0.00000000000E+00  0.14999999963E+04  0.15000000000E+04  0.10566000000E+00 0.  1.
        994   -1    0    0    0    0 -0.00000000000E+00 -0.00000000000E+00  0.11368683772E-12  0.17120000000E+03  0.17120000000E+03 0.  0.
         13    1    1    2    0    0 -0.80186698181E+01 -0.11875189614E+02  0.50395310361E+02  0.52392916166E+02  0.10566000000E+00 0.  1.
        994    1    1    2    0    0  0.13489004822E+02 -0.12191380019E+02  0.32359091753E+01  0.17219318833E+03  0.17120000000E+03 0.  0.
        998    1    1    2    0    0 -0.54703350035E+01  0.24066569632E+02  0.14463687767E+04  0.14466138955E+04  0.10000000000E+02 0.  1.
</event>
<event>
 5    1  0.1252945E-008  0.3835460E+03  0.7957747E-01  0.3435862E+00
         13   -1    0    0    0    0  0.00000000000E+00  0.00000000000E+00  0.14999999963E+04  0.15000000000E+04  0.10566000000E+00 0. -1.
        994   -1    0    0    0    0 -0.00000000000E+00 -0.00000000000E+00  0.11368683772E-12  0.17120000000E+03  0.17120000000E+03 0.  0.
         13    1    1    2    0    0  0.97330333637E+01  0.94229679541E+01  0.38605264183E+02  0.40913345625E+02  0.10566000000E+00 0. -1.
        994    1    1    2    0    0 -0.63192653928E+00 -0.98891454158E+01  0.26782756757E+01  0.17150745666E+03  0.17120000000E+03 0.  0.
        998    1    1    2    0    0 -0.91011068244E+01  0.46617746165E+00  0.14587164564E+04  0.14587791977E+04  0.10000000000E+02 0. -1.
</event>
<event>
 5    1  0.1252945E-008  0.3856088E+03  0.7957747E-01  0.3427094E+00
         13   -1    0    0    0    0  0.00000000000E+00  0.00000000000E+00  0.14999999963E+04  0.15000000000E+04  0.10566000000E+00 0. -1.
        994   -1    0    0    0    0 -0.00000000000E+00 -0.00000000000E+00  0.11368683772E-12  0.17120000000E+03  0.17120000000E+03 0.  0.
         13    1    1    2    0    0 -0.15137387806E+01  0.13196234194E+02  0.63987837861E+02  0.65352020322E+02  0.10566000000E+00 0. -1.
        994    1    1    2    0    0 -0.12014073017E+01 -0.15400679531E+02  0.21117888178E+01  0.17190847554E+03  0.17120000000E+03 0.  0.
        998    1    1    2    0    0  0.27151460823E+01  0.22044453370E+01  0.14339003696E+04  0.14339395041E+04  0.10000000000E+02 0. -1.
</event>
<event>
 5    1  0.1252945E-008  0.3858600E+03  0.7957747E-01  0.3426033E+00
         13   -1    0    0    0    0  0.00000000000E+00  0.00000000000E+00  0.14999999963E+04  0.15000000000E+04  0.10566000000E+00 0.  1.
        994   -1    0    0    0    0 -0.00000000000E+00 -0.00000000000E+00  0.11368683772E-12  0.17120000000E+03  0.17120000000E+03 0.  0.
         13    1    1    2    0    0  0.89139983945E+01 -0.49971236240E+01  0.50786226843E+02  0.51804272149E+02  0.10566000000E+00 0.  1.
        994    1    1    2    0    0 -0.88759664404E+01 -0.42612813884E+02  0.74420171166E+01  0.17680344540E+03  0.17120000000E+03 0.  0.
        998    1    1    2    0    0 -0.38031954104E-01  0.47609937508E+02  0.14417717523E+04  0.14425922824E+04  0.10000000000E+02 0.  1.
</event>
<event>
 5    1  0.1252945E-008  0.3798055E+03  0.7957747E-01  0.3452006E+00
         13   -1    0    0    0    0  0.00000000000E+00  0.00000000000E+00  0.14999999963E+04  0.15000000000E+04  0.10566000000E+00 0. -1.
        994   -1    0    0    0    0 -0.00000000000E+00 -0.00000000000E+00  0.11368683772E-12  0.17120000000E+03  0.17120000000E+03 0.  0.
         13    1    1    2    0    0  0.66372825268E+02 -0.24919316196E+02  0.42812142704E+03  0.43395194631E+03  0.10566000000E+00 0. -1.
        994    1    1    2    0    0 -0.65752244282E+02  0.24140386737E+02  0.20821184535E+02  0.18614262710E+03  0.17120000000E+03 0.  0.
        998    1    1    2    0    0 -0.62058098579E+00  0.77892945849E+00  0.10510573847E+04  0.10511054266E+04  0.10000000000E+02 0.  0.
</event>
<event>
 5    1  0.1252945E-008  0.3800326E+03  0.7957747E-01  0.3451016E+00
         13   -1    0    0    0    0  0.00000000000E+00  0.00000000000E+00  0.14999999963E+04  0.15000000000E+04  0.10566000000E+00 0.  1.
        994   -1    0    0    0    0 -0.00000000000E+00 -0.00000000000E+00  0.11368683772E-12  0.17120000000E+03  0.17120000000E+03 0.  0.
         13    1    1    2    0    0  0.34790089610E+01 -0.54299376526E+02  0.28178613958E+03  0.28699122882E+03  0.10566000000E+00 0.  1.
        994    1    1    2    0    0 -0.10036933871E+01  0.58725085889E+02  0.15734721186E+02  0.18167736393E+03  0.17120000000E+03 0.  0.
        998    1    1    2    0    0 -0.24753155738E+01 -0.44257093624E+01  0.12024791355E+04  0.12025314073E+04  0.10000000000E+02 0.  0.
</event>
<event>
 5    1  0.1252945E-008  0.3800797E+03  0.7957747E-01  0.3450811E+00
         13   -1    0    0    0    0  0.00000000000E+00  0.00000000000E+00  0.14999999963E+04  0.15000000000E+04  0.10566000000E+00 0. -1.
        994   -1    0    0    0    0 -0.00000000000E+00 -0.00000000000E+00  0.11368683772E-12  0.17120000000E+03  0.17120000000E+03 0.  0.
         13    1    1    2    0    0 -0.12062320991E+01  0.15532101200E+02  0.27627839270E+02  0.31717658021E+02  0.10566000000E+00 0. -1.
        994    1    1    2    0    0 -0.60145051070E+00 -0.15367708659E+02  0.48837817882E+01  0.17195877278E+03  0.17120000000E+03 0.  0.
        998    1    1    2    0    0  0.18076826098E+01 -0.16439254134E+00  0.14674883752E+04  0.14675235692E+04  0.10000000000E+02 0. -1.
</event>
<event>
 5    1  0.1252945E-008  0.3720210E+03  0.7957747E-01  0.3486654E+00
         13   -1    0    0    0    0  0.00000000000E+00  0.00000000000E+00  0.14999999963E+04  0.15000000000E+04  0.10566000000E+00 0.  1.
        994   -1    0    0    0    0 -0.00000000000E+00 -0.00000000000E+00  0.11368683772E-12  0.17120000000E+03  0.17120000000E+03 0.  0.
         13    1    1    2    0    0 -0.26111648199E+01  0.13304918515E+03  0.67952033628E+03  0.69242819298E+03  0.10566000000E+00 0.  1.
        994    1    1    2    0    0  0.38962254793E+01 -0.86601917729E+02  0.38964905859E+02  0.19581311656E+03  0.17120000000E+03 0.  0.
        998    1    1    2    0    0 -0.12850606593E+01 -0.46447267425E+02  0.78151475414E+03  0.78295869046E+03  0.10000000000E+02 0.  1.
</event>
<event>
 5    1  0.1252945E-008  0.3837394E+03  0.7957747E-01  0.3435036E+00
         13   -1    0    0    0    0  0.00000000000E+00  0.00000000000E+00  0.14999999963E+04  0.15000000000E+04  0.10566000000E+00 0. -1.
        994   -1    0    0    0    0 -0.00000000000E+00 -0.00000000000E+00  0.11368683772E-12  0.17120000000E+03  0.17120000000E+03 0.  0.
         13    1    1    2    0    0 -0.19141352811E+02 -0.10546217411E+02  0.11535550737E+03  0.11740748841E+03  0.10566000000E+00 0. -1.
        994    1    1    2    0    0  0.46769056977E+01 -0.58912653173E+01  0.24441551793E+01  0.17138259640E+03  0.17120000000E+03 0.  0.
        998    1    1    2    0    0  0.14464447113E+02  0.16437482728E+02  0.13822003337E+04  0.13824099152E+04  0.10000000000E+02 0. -1.
</event>
<event>
 5    1  0.1252945E-008  0.3831623E+03  0.7957747E-01  0.3437504E+00
         13   -1    0    0    0    0  0.00000000000E+00  0.00000000000E+00  0.14999999963E+04  0.15000000000E+04  0.10566000000E+00 0. -1.
        994   -1    0    0    0    0 -0.00000000000E+00 -0.00000000000E+00  0.11368683772E-12  0.17120000000E+03  0.17120000000E+03 0.  0.
         13    1    1    2    0    0  0.18048546908E+02  0.15344083301E+02  0.10859230564E+03  0.11114625925E+03  0.10566000000E+00 0. -1.
        994    1    1    2    0    0  0.32281671951E+00 -0.25679448979E+02  0.47303271559E+01  0.17318012099E+03  0.17120000000E+03 0.  0.
        998    1    1    2    0    0 -0.18371363628E+02  0.10335365679E+02  0.13866773635E+04  0.13868736198E+04  0.10000000000E+02 0. -1.
</event>
<event>
 5    1  0.1252945E-008  0.3845987E+03  0.7957747E-01  0.3431376E+00
         13   -1    0    0    0    0  0.00000000000E+00  0.00000000000E+00  0.14999999963E+04  0.15000000000E+04  0.10566000000E+00 0.  1.
        994   -1    0    0    0    0 -0.00000000000E+00 -0.00000000000E+00  0.11368683772E-12  0.17120000000E+03  0.17120000000E+03 0.  0.
         13    1    1    2    0    0 -0.84656642303E+01 -0.11652884227E+02  0.55630292903E+02  0.57464752973E+02  0.10566000000E+00 0.  1.
        994    1    1    2    0    0  0.14075835352E+02  0.50458348057E+01  0.25661110281E+01  0.17187092400E+03  0.17120000000E+03 0.  0.
        998    1    1    2    0    0 -0.56101711222E+01  0.66070494217E+01  0.14418035923E+04  0.14418643230E+04  0.10000000000E+02 0.  1.
</event>
<event>
 5    1  0.1252945E-008  0.3698558E+03  0.7957747E-01  0.3496554E+00
         13   -1    0    0    0    0  0.00000000000E+00  0.00000000000E+00  0.14999999963E+04  0.15000000000E+04  0.10566000000E+00 0. -1.
        994   -1    0    0    0    0 -0.00000000000E+00 -0.00000000000E+00  0.11368683772E-12  0.17120000000E+03  0.17120000000E+03 0.  0.
         13    1    1    2    0    0  0.74728907362E+01 -0.14726313582E+02  0.74760821011E+01  0.18127641195E+02  0.10566000000E+00 0. -1.
        994    1    1    2    0    0 -0.16909706008E+02  0.16320429868E+02  0.12794802380E+02  0.17327850864E+03  0.17120000000E+03 0.  0.
        998    1    1    2    0    0  0.94368152715E+01 -0.15941162869E+01  0.14797291118E+04  0.14797938502E+04  0.10000000000E+02 0. -1.
</event>
<event>
 5    1  0.1252945E-008  0.3857818E+03  0.7957747E-01  0.3426363E+00
         13   -1    0    0    0    0  0.00000000000E+00  0.00000000000E+00  0.14999999963E+04  0.15000000000E+04  0.10566000000E+00 0. -1.
        994   -1    0    0    0    0 -0.00000000000E+00 -0.00000000000E+00  0.11368683772E-12  0.17120000000E+03  0.17120000000E+03 0.  0.
         13    1    1    2    0    0 -0.68822836933E+01 -0.11058869864E+02  0.68519709893E+02  0.69746872614E+02  0.10566000000E+00 0. -1.
        994    1    1    2    0    0  0.55847213062E+00  0.10647184110E+02  0.16154483871E+01  0.17153927858E+03  0.17120000000E+03 0.  0.
        998    1    1    2    0    0  0.63238115627E+01  0.41168575391E+00  0.14298648380E+04  0.14299138488E+04  0.10000000000E+02 0. -1.
</event>
<event>
 5    1  0.1252945E-008  0.3786253E+03  0.7957747E-01  0.3457166E+00
         13   -1    0    0    0    0  0.00000000000E+00  0.00000000000E+00  0.14999999963E+04  0.15000000000E+04  0.10566000000E+00 0. -1.
        994   -1    0    0    0    0 -0.00000000000E+00 -0.00000000000E+00  0.11368683772E-12  0.17120000000E+03  0.17120000000E+03 0.  0.
         13    1    1    2    0    0  0.60040777573E+02  0.29658592307E+02  0.37297893064E+03  0.37894303125E+03  0.10566000000E+00 0. -1.
        994    1    1    2    0    0 -0.58763734478E+02 -0.18009936746E+02  0.17620788695E+02  0.18274973736E+03  0.17120000000E+03 0.  0.
        998    1    1    2    0    0 -0.12770430946E+01 -0.11648655560E+02  0.11094002769E+04  0.11095072314E+04  0.10000000000E+02 0. -1.
</event>
<event>
 5    1  0.1252945E-008  0.3839079E+03  0.7957747E-01  0.3434317E+00
         13   -1    0    0    0    0  0.00000000000E+00  0.00000000000E+00  0.14999999963E+04  0.15000000000E+04  0.10566000000E+00 0. -1.
        994   -1    0    0    0    0 -0.00000000000E+00 -0.00000000000E+00  0.11368683772E-12  0.17120000000E+03  0.17120000000E+03 0.  0.
         13    1    1    2    0    0  0.37331956513E+01  0.98743462506E+01  0.25260485880E+02  0.27377778846E+02  0.10566000000E+00 0. -1.
        994    1    1    2    0    0 -0.17167044226E+01 -0.37599501408E+01  0.22297230773E+01  0.17126440367E+03  0.17120000000E+03 0.  0.
        998    1    1    2    0    0 -0.20164912287E+01 -0.61143961099E+01  0.14725097873E+04  0.14725578175E+04  0.10000000000E+02 0. -1.
</event>
<event>
 5    1  0.1252945E-008  0.3805765E+03  0.7957747E-01  0.3448652E+00
         13   -1    0    0    0    0  0.00000000000E+00  0.00000000000E+00  0.14999999963E+04  0.15000000000E+04  0.10566000000E+00 0. -1.
        994   -1    0    0    0    0 -0.00000000000E+00 -0.00000000000E+00  0.11368683772E-12  0.17120000000E+03  0.17120000000E+03 0.  0.
         13    1    1    2    0    0  0.22040193403E+02  0.27874412843E+02  0.16867826284E+03  0.17238074294E+03  0.10566000000E+00 0. -1.
        994    1    1    2    0    0  0.41065135698E-02 -0.20540486834E+02  0.52514356192E+01  0.17250776560E+03  0.17120000000E+03 0.  0.
        998    1    1    2    0    0 -0.22044299916E+02 -0.73339260094E+01  0.13260702978E+04  0.13263114915E+04  0.10000000000E+02 0. -1.
</event>
<event>
 5    1  0.1252945E-008  0.3830305E+03  0.7957747E-01  0.3438068E+00
         13   -1    0    0    0    0  0.00000000000E+00  0.00000000000E+00  0.14999999963E+04  0.15000000000E+04  0.10566000000E+00 0.  1.
        994   -1    0    0    0    0 -0.00000000000E+00 -0.00000000000E+00  0.11368683772E-12  0.17120000000E+03  0.17120000000E+03 0.  0.
         13    1    1    2    0    0  0.48682842208E+01 -0.19528637449E+02  0.76141522061E+02  0.78756653164E+02  0.10566000000E+00 0.  1.
        994    1    1    2    0    0  0.87265316247E+01  0.17189478843E+02  0.38421252783E+01  0.17232478772E+03  0.17120000000E+03 0.  0.
        998    1    1    2    0    0 -0.13594815845E+02  0.23391586055E+01  0.14200163489E+04  0.14201185591E+04  0.10000000000E+02 0.  1.
</event>
<event>
 5    1  0.1252945E-008  0.3695718E+03  0.7957747E-01  0.3497861E+00
         13   -1    0    0    0    0  0.00000000000E+00  0.00000000000E+00  0.14999999963E+04  0.15000000000E+04  0.10566000000E+00 0.  1.
        994   -1    0    0    0    0 -0.00000000000E+00 -0.00000000000E+00  0.11368683772E-12  0.17120000000E+03  0.17120000000E+03 0.  0.
         13    1    1    2    0    0 -0.47729046685E+02 -0.22626945490E+02  0.15025911417E+03  0.15927288883E+03  0.10566000000E+00 0.  1.
        994    1    1    2    0    0  0.25982665767E+02 -0.29922372884E+01  0.11865374462E+02  0.17359227954E+03  0.17120000000E+03 0.  0.
        998    1    1    2    0    0  0.21746380918E+02  0.25619182779E+02  0.13378755076E+04  0.13383348316E+04  0.10000000000E+02 0.  1.
</event>
<event>
 5    1  0.1252945E-008  0.3854296E+03  0.7957747E-01  0.3427852E+00
         13   -1    0    0    0    0  0.00000000000E+00  0.00000000000E+00  0.14999999963E+04  0.15000000000E+04  0.10566000000E+00 0. -1.
        994   -1    0    0    0    0 -0.00000000000E+00 -0.00000000000E+00  0.11368683772E-12  0.17120000000E+03  0.17120000000E+03 0.  0.
         13    1    1    2    0    0  0.26382712023E+01 -0.14338328062E+02  0.76342741020E+02  0.77722412450E+02  0.10566000000E+00 0. -1.
        994    1    1    2    0    0 -0.24878029277E+01  0.74101407486E+01  0.16176988698E+01  0.17138598630E+03  0.17120000000E+03 0.  0.
        998    1    1    2    0    0 -0.15046827458E+00  0.69281873137E+01  0.14220395564E+04  0.14220916013E+04  0.10000000000E+02 0. -1.
</event>
<event>
 5    1  0.1252945E-008  0.3769463E+03  0.7957747E-01  0.3464563E+00
         13   -1    0    0    0    0  0.00000000000E+00  0.00000000000E+00  0.14999999963E+04  0.15000000000E+04  0.10566000000E+00 0.  1.
        994   -1    0    0    0    0 -0.00000000000E+00 -0.00000000000E+00  0.11368683772E-12  0.17120000000E+03  0.17120000000E+03 0.  0.
         13    1    1    2    0    0  0.33781635091E+02  0.18975432831E+02  0.14203347805E+03  0.14722359176E+03  0.10566000000E+00 0.  1.
        994    1    1    2    0    0 -0.17712264613E+02  0.16680119953E+02  0.76842208713E+01  0.17309083734E+03  0.17120000000E+03 0.  0.
        998    1    1    2    0    0 -0.16069370478E+02 -0.35655552784E+02  0.13502822974E+04  0.13508855709E+04  0.10000000000E+02 0.  1.
</event>
<event>
 5    1  0.1252945E-008  0.3978304E+03  0.7957747E-01  0.3377015E+00
         13   -1    0    0    0    0  0.00000000000E+00  0.00000000000E+00  0.14999999963E+04  0.15000000000E+04  0.10566000000E+00 0.  1.
        994   -1    0    0    0    0 -0.00000000000E+00 -0.00000000000E+00  0.11368683772E-12  0.17120000000E+03  0.17120000000E+03 0.  0.
         13    1    1    2    0    0  0.43143725770E+02 -0.20089157307E+02  0.32298802742E+02  0.57516772660E+02  0.10566000000E+00 0.  1.
        994    1    1    2    0    0 -0.40315333590E+02  0.19597677867E+02  0.34325097852E+02  0.18026937467E+03  0.17120000000E+03 0.  0.
        998    1    1    2    0    0 -0.28283921803E+01  0.49147944033E+00  0.14333760957E+04  0.14334138527E+04  0.10000000000E+02 0.  1.
</event>
<event>
 5    1  0.1252945E-008  0.3844257E+03  0.7957747E-01  0.3432112E+00
         13   -1    0    0    0    0  0.00000000000E+00  0.00000000000E+00  0.14999999963E+04  0.15000000000E+04  0.10566000000E+00 0. -1.
        994   -1    0    0    0    0 -0.00000000000E+00 -0.00000000000E+00  0.11368683772E-12  0.17120000000E+03  0.17120000000E+03 0.  0.
         13    1    1    2    0    0 -0.87101234223E+01  0.14387495346E+02  0.71384364006E+02  0.73338972320E+02  0.10566000000E+00 0. -1.
        994    1    1    2    0    0  0.11033023514E+02 -0.11897000331E+02  0.27834292331E+01  0.17198969069E+03  0.17120000000E+03 0.  0.
        998    1    1    2    0    0 -0.23229000918E+01 -0.24904950154E+01  0.14258322030E+04  0.14258713370E+04  0.10000000000E+02 0. -1.
</event>
<event>
 5    1  0.1252945E-008  0.3840135E+03  0.7957747E-01  0.3433867E+00
         13   -1    0    0    0    0  0.00000000000E+00  0.00000000000E+00  0.14999999963E+04  0.15000000000E+04  0.10566000000E+00 0. -1.
        994   -1    0    0    0    0 -0.00000000000E+00 -0.00000000000E+00  0.11368683772E-12  0.17120000000E+03  0.17120000000E+03 0.  0.
         13    1    1    2    0    0  0.12038646675E+02 -0.40176701868E+01  0.37223204711E+02  0.39327456319E+02  0.10566000000E+00 0. -1.
        994    1    1    2    0    0 -0.94768682365E+01  0.30427020606E+01  0.24476180912E+01  0.17150655935E+03  0.17120000000E+03 0.  0.
        998    1    1    2    0    0 -0.25617784388E+01  0.97496812619E+00  0.14603291735E+04  0.14603659843E+04  0.10000000000E+02 0. -1.
</event>
<event>
 5    1  0.1252945E-008  0.3793376E+03  0.7957747E-01  0.3454048E+00
         13   -1    0    0    0    0  0.00000000000E+00  0.00000000000E+00  0.14999999963E+04  0.15000000000E+04  0.10566000000E+00 0. -1.
        994   -1    0    0    0    0 -0.00000000000E+00 -0.00000000000E+00  0.11368683772E-12  0.17120000000E+03  0.17120000000E+03 0.  0.
         13    1    1    2    0    0  0.20341108565E+02 -0.33492138270E+02  0.19010597997E+03  0.19410249563E+03  0.10566000000E+00 0. -1.
        994    1    1    2    0    0  0.80134769946E+01  0.13574855991E+02  0.53008218741E+01  0.17200590467E+03  0.17120000000E+03 0.  0.
        998    1    1    2    0    0 -0.28354585560E+02  0.19917282279E+02  0.13045931944E+04  0.13050915997E+04  0.10000000000E+02 0. -1.
</event>
<event>
 5    1  0.1252945E-008  0.3832649E+03  0.7957747E-01  0.3437064E+00
         13   -1    0    0    0    0  0.00000000000E+00  0.00000000000E+00  0.14999999963E+04  0.15000000000E+04  0.10566000000E+00 0. -1.
        994   -1    0    0    0    0 -0.00000000000E+00 -0.00000000000E+00  0.11368683772E-12  0.17120000000E+03  0.17120000000E+03 0.  0.
         13    1    1    2    0    0  0.68778357870E+01 -0.13675023166E+02  0.47372176068E+02  0.49783984504E+02  0.10566000000E+00 0. -1.
        994    1    1    2    0    0 -0.74221766514E+01  0.17338228129E+01  0.26861975048E+01  0.17139063716E+03  0.17120000000E+03 0.  0.
        998    1    1    2    0    0  0.54434086441E+00  0.11941200353E+02  0.14499416227E+04  0.14500253783E+04  0.10000000000E+02 0. -1.
</event>
<event>
 5    1  0.1252945E-008  0.3820738E+03  0.7957747E-01  0.3442178E+00
         13   -1    0    0    0    0  0.00000000000E+00  0.00000000000E+00  0.14999999963E+04  0.15000000000E+04  0.10566000000E+00 0.  1.
        994   -1    0    0    0    0 -0.00000000000E+00 -0.00000000000E+00  0.11368683772E-12  0.17120000000E+03  0.17120000000E+03 0.  0.
         13    1    1    2    0    0 -0.42380695191E+02  0.61482948892E+01  0.22639713302E+03  0.23041180061E+03  0.10566000000E+00 0.  1.
        994    1    1    2    0    0  0.55226288854E+02 -0.62681361291E+01  0.13415364567E+02  0.18049555263E+03  0.17120000000E+03 0.  0.
        998    1    1    2    0    0 -0.12845593663E+02  0.11984123996E+00  0.12601874987E+04  0.12602926468E+04  0.10000000000E+02 0. -1.
</event>
<event>
 5    1  0.1252945E-008  0.3841449E+03  0.7957747E-01  0.3433307E+00
         13   -1    0    0    0    0  0.00000000000E+00  0.00000000000E+00  0.14999999963E+04  0.15000000000E+04  0.10566000000E+00 0. -1.
        994   -1    0    0    0    0 -0.00000000000E+00 -0.00000000000E+00  0.11368683772E-12  0.17120000000E+03  0.17120000000E+03 0.  0.
         13    1    1    2    0    0 -0.10741580441E+02  0.28509864681E+01  0.30562599018E+02  0.32520659541E+02  0.10566000000E+00 0. -1.
        994    1    1    2    0    0  0.31882713995E+01  0.16065936093E+02  0.29404786997E+01  0.17200687716E+03  0.17120000000E+03 0.  0.
        998    1    1    2    0    0  0.75533090412E+01 -0.18916922561E+02  0.14664969186E+04  0.14666724633E+04  0.10000000000E+02 0. -1.
</event>
<event>
 5    1  0.1252945E-008  0.3948501E+03  0.7957747E-01  0.3388942E+00
         13   -1    0    0    0    0  0.00000000000E+00  0.00000000000E+00  0.14999999963E+04  0.15000000000E+04  0.10566000000E+00 0.  1.
        994   -1    0    0    0    0 -0.00000000000E+00 -0.00000000000E+00  0.11368683772E-12  0.17120000000E+03  0.17120000000E+03 0.  0.
         13    1    1    2    0    0 -0.12971631960E+03 -0.85706811816E+02  0.36076781698E+03  0.39284272947E+03  0.10566000000E+00 0.  1.
        994    1    1    2    0    0  0.12178765343E+03  0.83877545085E+02  0.11451009748E+03  0.25355409191E+03  0.17120000000E+03 0.  0.
        998    1    1    2    0    0  0.79286661680E+01  0.18292667316E+01  0.10247220818E+04  0.10248031786E+04  0.10000000000E+02 0.  1.
</event>
<event>
 5    1  0.1252945E-008  0.3831914E+03  0.7957747E-01  0.3437379E+00
         13   -1    0    0    0    0  0.00000000000E+00  0.00000000000E+00  0.14999999963E+04  0.15000000000E+04  0.10566000000E+00 0. -1.
        994   -1    0    0    0    0 -0.00000000000E+00 -0.00000000000E+00  0.11368683772E-12  0.17120000000E+03  0.17120000000E+03 0.  0.
         13    1    1    2    0    0 -0.78895244498E+01  0.76816748514E+01  0.23406592173E+02  0.25867594510E+02  0.10566000000E+00 0. -1.
        994    1    1    2    0    0  0.49428466887E+01  0.46365325541E+00  0.26122575230E+01  0.17129188713E+03  0.17120000000E+03 0.  0.
        998    1    1    2    0    0  0.29466777611E+01 -0.81453281068E+01  0.14739811466E+04  0.14740405184E+04  0.10000000000E+02 0. -1.
</event>
<event>
 5    1  0.1296605E-008  0.3859588E+03  0.7957747E-01  0.3425616E+00
         13   -1    0    0    0    0  0.00000000000E+00  0.00000000000E+00  0.14999999963E+04  0.15000000000E+04  0.10566000000E+00 0.  1.
        994   -1    0    0    0    0 -0.00000000000E+00 -0.00000000000E+00  0.11368683772E-12  0.17120000000E+03  0.17120000000E+03 0.  0.
         13    1    1    2    0    0  0.14137647768E+02  0.13370836969E+00  0.81231039144E+02  0.82452312561E+02  0.10566000000E+00 0.  1.
        994    1    1    2    0    0 -0.18202437159E+02 -0.16521069177E+01  0.22507973073E+01  0.17218758452E+03  0.17120000000E+03 0.  0.
        998    1    1    2    0    0  0.40647893916E+01  0.15183985481E+01  0.14165181598E+04  0.14165601029E+04  0.10000000000E+02 0.  0.
</event>
<event>
 5    1  0.1252945E-008  0.3803382E+03  0.7957747E-01  0.3449687E+00
         13   -1    0    0    0    0  0.00000000000E+00  0.00000000000E+00  0.14999999963E+04  0.15000000000E+04  0.10566000000E+00 0. -1.
        994   -1    0    0    0    0 -0.00000000000E+00 -0.00000000000E+00  0.11368683772E-12  0.17120000000E+03  0.17120000000E+03 0.  0.
         13    1    1    2    0    0 -0.32178919934E+02 -0.11664884822E+02  0.15225421770E+03  0.15605419058E+03  0.10566000000E+00 0. -1.
        994    1    1    2    0    0  0.93390892083E+01  0.16555604751E+02  0.51699251985E+01  0.17232955278E+03  0.17120000000E+03 0.  0.
        998    1    1    2    0    0  0.22839830726E+02 -0.48907199291E+01  0.13425758534E+04  0.13428162566E+04  0.10000000000E+02 0. -1.
</event>
<event>
 5    1  0.1252945E-008  0.3847322E+03  0.7957747E-01  0.3430809E+00
         13   -1    0    0    0    0  0.00000000000E+00  0.00000000000E+00  0.14999999963E+04  0.15000000000E+04  0.10566000000E+00 0. -1.
        994   -1    0    0    0    0 -0.00000000000E+00 -0.00000000000E+00  0.11368683772E-12  0.17120000000E+03  0.17120000000E+03 0.  0.
         13    1    1    2    0    0  0.12317422880E+02 -0.87366779851E+01  0.63596635155E+02  0.65365064183E+02  0.10566000000E+00 0. -1.
        994    1    1    2    0    0 -0.86155009242E+01  0.92833722652E+01  0.22913040280E+01  0.17168313234E+03  0.17120000000E+03 0.  0.
        998    1    1    2    0    0 -0.37019219558E+01 -0.54669428006E+00  0.14341120571E+04  0.14341518035E+04  0.10000000000E+02 0. -1.
</event>
<event>
 5    1  0.1252945E-008  0.3837633E+03  0.7957747E-01  0.3434934E+00
         13   -1    0    0    0    0  0.00000000000E+00  0.00000000000E+00  0.14999999963E+04  0.15000000000E+04  0.10566000000E+00 0.  1.
        994   -1    0    0    0    0 -0.00000000000E+00 -0.00000000000E+00  0.11368683772E-12  0.17120000000E+03  0.17120000000E+03 0.  0.
         13    1    1    2    0    0 -0.81300111399E+01  0.10675148999E+02  0.38252697368E+02  0.40538079719E+02  0.10566000000E+00 0.  1.
        994    1    1    2    0    0  0.13556399704E+02 -0.10443372245E+02  0.32128989758E+01  0.17208312734E+03  0.17120000000E+03 0.  0.
        998    1    1    2    0    0 -0.54263885644E+01 -0.23177675363E+00  0.14585343999E+04  0.14585787929E+04  0.10000000000E+02 0.  1.
</event>
<event>
 5    1  0.1252945E-008  0.3837949E+03  0.7957747E-01  0.3434799E+00
         13   -1    0    0    0    0  0.00000000000E+00  0.00000000000E+00  0.14999999963E+04  0.15000000000E+04  0.10566000000E+00 0. -1.
        994   -1    0    0    0    0 -0.00000000000E+00 -0.00000000000E+00  0.11368683772E-12  0.17120000000E+03  0.17120000000E+03 0.  0.
         13    1    1    2    0    0 -0.30623944094E+02  0.82731670409E+01  0.18723837027E+03  0.18990652887E+03  0.10566000000E+00 0. -1.
        994    1    1    2    0    0  0.39216495881E+02 -0.38864696303E+01  0.73739973401E+01  0.17583189140E+03  0.17120000000E+03 0.  0.
        998    1    1    2    0    0 -0.85925517869E+01 -0.43866974107E+01  0.13053876287E+04  0.13054615797E+04  0.10000000000E+02 0. -1.
</event>
<event>
 5    1  0.1252945E-008  0.3747204E+03  0.7957747E-01  0.3474474E+00
         13   -1    0    0    0    0  0.00000000000E+00  0.00000000000E+00  0.14999999963E+04  0.15000000000E+04  0.10566000000E+00 0.  1.
        994   -1    0    0    0    0 -0.00000000000E+00 -0.00000000000E+00  0.11368683772E-12  0.17120000000E+03  0.17120000000E+03 0.  0.
         13    1    1    2    0    0  0.17328665836E+02 -0.64001197857E+01  0.21737568714E+02  0.28526781287E+02  0.10566000000E+00 0.  1.
        994    1    1    2    0    0 -0.17084898398E+02  0.10979884727E+02  0.82269399433E+01  0.17259656475E+03  0.17120000000E+03 0.  0.
        998    1    1    2    0    0 -0.24376743868E+00 -0.45797649410E+01  0.14700354876E+04  0.14700766540E+04  0.10000000000E+02 0.  1.
</event>
<event>
 5    1  0.1252945E-008  0.3839895E+03  0.7957747E-01  0.3433969E+00
         13   -1    0    0    0    0  0.00000000000E+00  0.00000000000E+00  0.14999999963E+04  0.15000000000E+04  0.10566000000E+00 0.  1.
        994   -1    0    0    0    0 -0.00000000000E+00 -0.00000000000E+00  0.11368683772E-12  0.17120000000E+03  0.17120000000E+03 0.  0.
         13    1    1    2    0    0 -0.17382656925E+02 -0.82220595071E+01  0.87097480683E+02  0.89194962468E+02  0.10566000000E+00 0.  1.
        994    1    1    2    0    0  0.99922793277E+01  0.40069100067E+01  0.25151898825E+01  0.17155660044E+03  0.17120000000E+03 0.  0.
        998    1    1    2    0    0  0.73903775971E+01  0.42151495003E+01  0.14103873257E+04  0.14104484371E+04  0.10000000000E+02 0.  1.
</event>
<event>
 5    1  0.1252945E-008  0.3812965E+03  0.7957747E-01  0.3445532E+00
         13   -1    0    0    0    0  0.00000000000E+00  0.00000000000E+00  0.14999999963E+04  0.15000000000E+04  0.10566000000E+00 0. -1.
        994   -1    0    0    0    0 -0.00000000000E+00 -0.00000000000E+00  0.11368683772E-12  0.17120000000E+03  0.17120000000E+03 0.  0.
         13    1    1    2    0    0 -0.34972689193E+01 -0.12121322567E+02  0.21207042910E+02  0.24676044733E+02  0.10566000000E+00 0. -1.
        994    1    1    2    0    0 -0.28873541408E+01  0.14420831752E+02  0.42003994842E+01  0.17188187967E+03  0.17120000000E+03 0.  0.
        998    1    1    2    0    0  0.63846230602E+01 -0.22995091851E+01  0.14745925539E+04  0.14746420756E+04  0.10000000000E+02 0. -1.
</event>
<event>
 5    1  0.1252945E-008  0.3834434E+03  0.7957747E-01  0.3436301E+00
         13   -1    0    0    0    0  0.00000000000E+00  0.00000000000E+00  0.14999999963E+04  0.15000000000E+04  0.10566000000E+00 0. -1.
        994   -1    0    0    0    0 -0.00000000000E+00 -0.00000000000E+00  0.11368683772E-12  0.17120000000E+03  0.17120000000E+03 0.  0.
         13    1    1    2    0    0  0.22260176377E+02 -0.17597894697E+02  0.15641029455E+03  0.15896349504E+03  0.10566000000E+00 0. -1.
        994    1    1    2    0    0 -0.19453592770E+02  0.15275955909E+02  0.44297606228E+01  0.17303427371E+03  0.17120000000E+03 0.  0.
        998    1    1    2    0    0 -0.28065836065E+01  0.23219387884E+01  0.13391599411E+04  0.13392022312E+04  0.10000000000E+02 0.  0.
</event>
<event>
 5    1  0.1252945E-008  0.3839768E+03  0.7957747E-01  0.3434024E+00
         13   -1    0    0    0    0  0.00000000000E+00  0.00000000000E+00  0.14999999963E+04  0.15000000000E+04  0.10566000000E+00 0.  1.
        994   -1    0    0    0    0 -0.00000000000E+00 -0.00000000000E+00  0.11368683772E-12  0.17120000000E+03  0.17120000000E+03 0.  0.
         13    1    1    2    0    0 -0.28012956541E+01 -0.15957137592E+02  0.62841980796E+02  0.64896865964E+02  0.10566000000E+00 0.  1.
        994    1    1    2    0    0 -0.14875855785E+02  0.78741420597E+01  0.30743189235E+01  0.17205285419E+03  0.17120000000E+03 0.  0.
        998    1    1    2    0    0  0.17677151439E+02  0.80829955323E+01  0.14340836966E+04  0.14342502798E+04  0.10000000000E+02 0.  1.
</event>
<event>
 5    1  0.1252945E-008  0.3741419E+03  0.7957747E-01  0.3477069E+00
         13   -1    0    0    0    0  0.00000000000E+00  0.00000000000E+00  0.14999999963E+04  0.15000000000E+04  0.10566000000E+00 0. -1.
        994   -1    0    0    0    0 -0.00000000000E+00 -0.00000000000E+00  0.11368683772E-12  0.17120000000E+03  0.17120000000E+03 0.  0.
         13    1    1    2    0    0  0.14122657929E+02  0.73527000729E+01  0.14503004875E+02  0.21537408845E+02  0.10566000000E+00 0. -1.
        994    1    1    2    0    0 -0.13798605365E+02 -0.94465779528E+01  0.80739061217E+01  0.17220414427E+03  0.17120000000E+03 0.  0.
        998    1    1    2    0    0 -0.32405256396E+00  0.20938778799E+01  0.14774230853E+04  0.14774584469E+04  0.10000000000E+02 0. -1.
</event>
<event>
 5    1  0.1252945E-008  0.3855400E+03  0.7957747E-01  0.3427385E+00
         13   -1    0    0    0    0  0.00000000000E+00  0.00000000000E+00  0.14999999963E+04  0.15000000000E+04  0.10566000000E+00 0.  1.
        994   -1    0    0    0    0 -0.00000000000E+00 -0.00000000000E+00  0.11368683772E-12  0.17120000000E+03  0.17120000000E+03 0.  0.
         13    1    1    2    0    0 -0.50758801994E+01 -0.91073756570E+01  0.38823050066E+02  0.40198871024E+02  0.10566000000E+00 0.  1.
        994    1    1    2    0    0  0.75964578781E+01  0.10431918151E+02  0.19091483512E+01  0.17169628981E+03  0.17120000000E+03 0.  0.
        998    1    1    2    0    0 -0.25205776787E+01 -0.13245424936E+01  0.14592677979E+04  0.14593048392E+04  0.10000000000E+02 0.  1.
</event>
<event>
 5    1  0.1252945E-008  0.3788579E+03  0.7957747E-01  0.3456147E+00
         13   -1    0    0    0    0  0.00000000000E+00  0.00000000000E+00  0.14999999963E+04  0.15000000000E+04  0.10566000000E+00 0.  1.
        994   -1    0    0    0    0 -0.00000000000E+00 -0.00000000000E+00  0.11368683772E-12  0.17120000000E+03  0.17120000000E+03 0.  0.
         13    1    1    2    0    0 -0.38069514252E+02 -0.87791698176E+02  0.54070453968E+03  0.54910662041E+03  0.10566000000E+00 0.  1.
        994    1    1    2    0    0  0.43277377034E+02  0.95226884072E+02  0.42347479816E+02  0.20504594573E+03  0.17120000000E+03 0.  0.
        998    1    1    2    0    0 -0.52078627821E+01 -0.74351858967E+01  0.91694797679E+03  0.91704743386E+03  0.10000000000E+02 0.  1.
</event>
<event>
 5    1  0.1252945E-008  0.3696322E+03  0.7957747E-01  0.3497583E+00
         13   -1    0    0    0    0  0.00000000000E+00  0.00000000000E+00  0.14999999963E+04  0.15000000000E+04  0.10566000000E+00 0.  1.
        994   -1    0    0    0    0 -0.00000000000E+00 -0.00000000000E+00  0.11368683772E-12  0.17120000000E+03  0.17120000000E+03 0.  0.
         13    1    1    2    0    0 -0.22667077193E+02  0.39910423688E+02  0.89225345688E+02  0.10033848606E+03  0.10566000000E+00 0.  1.
        994    1    1    2    0    0  0.24660569884E+02 -0.38228593850E+02  0.18005413612E+02  0.17805393569E+03  0.17120000000E+03 0.  0.
        998    1    1    2    0    0 -0.19934926917E+01 -0.16818298374E+01  0.13927692370E+04  0.13928075783E+04  0.10000000000E+02 0.  1.
</event>
<event>
 5    1  0.1252945E-008  0.3833105E+03  0.7957747E-01  0.3436869E+00
         13   -1    0    0    0    0  0.00000000000E+00  0.00000000000E+00  0.14999999963E+04  0.15000000000E+04  0.10566000000E+00 0. -1.
        994   -1    0    0    0    0 -0.00000000000E+00 -0.00000000000E+00  0.11368683772E-12  0.17120000000E+03  0.17120000000E+03 0.  0.
         13    1    1    2    0    0  0.17173150602E+02  0.92794834141E+01  0.78129140099E+02  0.80530737056E+02  0.10566000000E+00 0. -1.
        994    1    1    2    0    0 -0.71146701391E+01 -0.49816791445E+01  0.27207398822E+01  0.17144176295E+03  0.17120000000E+03 0.  0.
        998    1    1    2    0    0 -0.10058480463E+02 -0.42978042696E+01  0.14191501163E+04  0.14192275000E+04  0.10000000000E+02 0. -1.
</event>
<event>
 5    1  0.1252945E-008  0.3715260E+03  0.7957747E-01  0.3488907E+00
         13   -1    0    0    0    0  0.00000000000E+00  0.00000000000E+00  0.14999999963E+04  0.15000000000E+04  0.10566000000E+00 0.  1.
        994   -1    0    0    0    0 -0.00000000000E+00 -0.00000000000E+00  0.11368683772E-12  0.17120000000E+03  0.17120000000E+03 0.  0.
         13    1    1    2    0    0  0.22738871017E+02 -0.29481573877E+01  0.16824473320E+02  0.28439795246E+02  0.10566000000E+00 0.  1.
        994    1    1    2    0    0 -0.32201417185E+02 -0.24715200213E+02  0.17561924495E+02  0.17682090822E+03  0.17120000000E+03 0.  0.
        998    1    1    2    0    0  0.94625461682E+01  0.27663357600E+02  0.14656135985E+04  0.14659392965E+04  0.10000000000E+02 0.  1.
</event>
<event>
 5    1  0.1252945E-008  0.3854650E+03  0.7957747E-01  0.3427702E+00
         13   -1    0    0    0    0  0.00000000000E+00  0.00000000000E+00  0.14999999963E+04  0.15000000000E+04  0.10566000000E+00 0. -1.
        994   -1    0    0    0    0 -0.00000000000E+00 -0.00000000000E+00  0.11368683772E-12  0.17120000000E+03  0.17120000000E+03 0.  0.
         13    1    1    2    0    0 -0.11218881631E+02 -0.79419170822E+01  0.70262600247E+02  0.71594563407E+02  0.10566000000E+00 0. -1.
        994    1    1    2    0    0  0.27385195491E+01  0.32601348192E+01  0.14589644674E+01  0.17125915025E+03  0.17120000000E+03 0.  0.
        998    1    1    2    0    0  0.84803620815E+01  0.46817822630E+01  0.14282784316E+04  0.14283462863E+04  0.10000000000E+02 0. -1.
</event>
<event>
 5    1  0.1252945E-008  0.3811097E+03  0.7957747E-01  0.3446341E+00
         13   -1    0    0    0    0  0.00000000000E+00  0.00000000000E+00  0.14999999963E+04  0.15000000000E+04  0.10566000000E+00 0. -1.
        994   -1    0    0    0    0 -0.00000000000E+00 -0.00000000000E+00  0.11368683772E-12  0.17120000000E+03  0.17120000000E+03 0.  0.
         13    1    1    2    0    0  0.38445671247E+02  0.17641762148E+02  0.21864124365E+03  0.22269554553E+03  0.10566000000E+00 0. -1.
        994    1    1    2    0    0 -0.36873872291E+02 -0.16466647987E+02  0.90249552387E+01  0.17612984634E+03  0.17120000000E+03 0.  0.
        998    1    1    2    0    0 -0.15717989569E+01 -0.11751141615E+01  0.12723337974E+04  0.12723746081E+04  0.10000000000E+02 0.  0.
</event>
<event>
 5    1  0.1252945E-008  0.3839806E+03  0.7957747E-01  0.3434007E+00
         13   -1    0    0    0    0  0.00000000000E+00  0.00000000000E+00  0.14999999963E+04  0.15000000000E+04  0.10566000000E+00 0. -1.
        994   -1    0    0    0    0 -0.00000000000E+00 -0.00000000000E+00  0.11368683772E-12  0.17120000000E+03  0.17120000000E+03 0.  0.
         13    1    1    2    0    0  0.10773981084E+02  0.79191353408E+01  0.41088110395E+02  0.43209204492E+02  0.10566000000E+00 0. -1.
        994    1    1    2    0    0 -0.74514270847E+01 -0.70785512811E+01  0.24856849925E+01  0.17152623206E+03  0.17120000000E+03 0.  0.
        998    1    1    2    0    0 -0.33225539990E+01 -0.84058405962E+00  0.14564262009E+04  0.14564645635E+04  0.10000000000E+02 0. -1.
</event>
<event>
 5    1  0.1252945E-008  0.3816693E+03  0.7957747E-01  0.3443922E+00
         13   -1    0    0    0    0  0.00000000000E+00  0.00000000000E+00  0.14999999963E+04  0.15000000000E+04  0.10566000000E+00 0. -1.
        994   -1    0    0    0    0 -0.00000000000E+00 -0.00000000000E+00  0.11368683772E-12  0.17120000000E+03  0.17120000000E+03 0.  0.
         13    1    1    2    0    0  0.12705307428E+02  0.62077096747E+01  0.29843502256E+02  0.33024328717E+02  0.10566000000E+00 0. -1.
        994    1    1    2    0    0  0.73993857464E+00 -0.66832370859E+01  0.34432041898E+01  0.17136659191E+03  0.17120000000E+03 0.  0.
        998    1    1    2    0    0 -0.13445246002E+02  0.47552741115E+00  0.14667132898E+04  0.14668090794E+04  0.10000000000E+02 0. -1.
</event>
<event>
 5    1  0.1252945E-008  0.3807833E+03  0.7957747E-01  0.3447755E+00
         13   -1    0    0    0    0  0.00000000000E+00  0.00000000000E+00  0.14999999963E+04  0.15000000000E+04  0.10566000000E+00 0. -1.
        994   -1    0    0    0    0 -0.00000000000E+00 -0.00000000000E+00  0.11368683772E-12  0.17120000000E+03  0.17120000000E+03 0.  0.
         13    1    1    2    0    0 -0.85259889505E+02  0.36464202650E+02  0.19305651105E+03  0.21417216079E+03  0.10566000000E+00 0. -1.
        994    1    1    2    0    0  0.10950309492E+03 -0.47206800329E+02  0.70449231353E+02  0.22020886447E+03  0.17120000000E+03 0.  0.
        998    1    1    2    0    0 -0.24243205412E+02  0.10742597680E+02  0.12364942539E+04  0.12368189747E+04  0.10000000000E+02 0. -1.
</event>
<event>
 5    1  0.1252945E-008  0.3849397E+03  0.7957747E-01  0.3429928E+00
         13   -1    0    0    0    0  0.00000000000E+00  0.00000000000E+00  0.14999999963E+04  0.15000000000E+04  0.10566000000E+00 0. -1.
        994   -1    0    0    0    0 -0.00000000000E+00 -0.00000000000E+00  0.11368683772E-12  0.17120000000E+03  0.17120000000E+03 0.  0.
         13    1    1    2    0    0  0.29169993927E+01  0.14871333697E+02  0.68527473404E+02  0.70183268851E+02  0.10566000000E+00 0. -1.
        994    1    1    2    0    0 -0.38338672984E+01 -0.10858014972E+02  0.20963196743E+01  0.17159962000E+03  0.17120000000E+03 0.  0.
        998    1    1    2    0    0  0.91686790568E+00 -0.40133187258E+01  0.14293762032E+04  0.14294171112E+04  0.10000000000E+02 0.  0.
</event>
<event>
 5    1  0.1252945E-008  0.3858848E+03  0.7957747E-01  0.3425928E+00
         13   -1    0    0    0    0  0.00000000000E+00  0.00000000000E+00  0.14999999963E+04  0.15000000000E+04  0.10566000000E+00 0.  1.
        994   -1    0    0    0    0 -0.00000000000E+00 -0.00000000000E+00  0.11368683772E-12  0.17120000000E+03  0.17120000000E+03 0.  0.
         13    1    1    2    0    0 -0.10014018699E+02 -0.75145765729E+01  0.67961196016E+02  0.69104882314E+02  0.10566000000E+00 0.  1.
        994    1    1    2    0    0  0.31419661095E+01  0.46688492444E+01  0.12953292813E+01  0.17129736712E+03  0.17120000000E+03 0.  0.
        998    1    1    2    0    0  0.68720525899E+01  0.28457273285E+01  0.14307434710E+04  0.14307977506E+04  0.10000000000E+02 0.  1.
</event>
<event>
 5    1  0.1252945E-008  0.3806600E+03  0.7957747E-01  0.3448290E+00
         13   -1    0    0    0    0  0.00000000000E+00  0.00000000000E+00  0.14999999963E+04  0.15000000000E+04  0.10566000000E+00 0. -1.
        994   -1    0    0    0    0 -0.00000000000E+00 -0.00000000000E+00  0.11368683772E-12  0.17120000000E+03  0.17120000000E+03 0.  0.
         13    1    1    2    0    0  0.54323528617E+02  0.85935632093E+02  0.33009040209E+03  0.34539204296E+03  0.10566000000E+00 0. -1.
        994    1    1    2    0    0 -0.25735141634E+02 -0.38535105066E+02  0.24530795228E+02  0.17904874127E+03  0.17120000000E+03 0.  0.
        998    1    1    2    0    0 -0.28588386983E+02 -0.47400527028E+02  0.11453787990E+04  0.11467592158E+04  0.10000000000E+02 0.  1.
</event>
<event>
 5    1  0.1252945E-008  0.3831608E+03  0.7957747E-01  0.3437510E+00
         13   -1    0    0    0    0  0.00000000000E+00  0.00000000000E+00  0.14999999963E+04  0.15000000000E+04  0.10566000000E+00 0.  1.
        994   -1    0    0    0    0 -0.00000000000E+00 -0.00000000000E+00  0.11368683772E-12  0.17120000000E+03  0.17120000000E+03 0.  0.
         13    1    1    2    0    0 -0.42546099298E+00 -0.10278227945E+02  0.19426936698E+02  0.21982720948E+02  0.10566000000E+00 0.  1.
        994    1    1    2    0    0 -0.21520043824E+01  0.14207690517E+02  0.32294558993E+01  0.17183235719E+03  0.17120000000E+03 0.  0.
        998    1    1    2    0    0  0.25774653754E+01 -0.39294625726E+01  0.14773436037E+04  0.14773849219E+04  0.10000000000E+02 0.  1.
</event>
<event>
 5    1  0.1252945E-008  0.3824380E+03  0.7957747E-01  0.3440611E+00
         13   -1    0    0    0    0  0.00000000000E+00  0.00000000000E+00  0.14999999963E+04  0.15000000000E+04  0.10566000000E+00 0.  1.
        994   -1    0    0    0    0 -0.00000000000E+00 -0.00000000000E+00  0.11368683772E-12  0.17120000000E+03  0.17120000000E+03 0.  0.
         13    1    1    2    0    0  0.27531599011E+02  0.19883441906E+02  0.19161790629E+03  0.19460414534E+03  0.10566000000E+00 0.  1.
        994    1    1    2    0    0 -0.17306328283E+02 -0.15909633687E+02  0.47422414081E+01  0.17287149648E+03  0.17120000000E+03 0.  0.
        998    1    1    2    0    0 -0.10225270728E+02 -0.39738082192E+01  0.13036398486E+04  0.13037243582E+04  0.10000000000E+02 0.  1.
</event>
<event>
 5    1  0.1252945E-008  0.3816540E+03  0.7957747E-01  0.3443988E+00
         13   -1    0    0    0    0  0.00000000000E+00  0.00000000000E+00  0.14999999963E+04  0.15000000000E+04  0.10566000000E+00 0.  1.
        994   -1    0    0    0    0 -0.00000000000E+00 -0.00000000000E+00  0.11368683772E-12  0.17120000000E+03  0.17120000000E+03 0.  0.
         13    1    1    2    0    0  0.15715492918E+02  0.57855851556E+02  0.91082856508E+02  0.10904299240E+03  0.10566000000E+00 0.  1.
        994    1    1    2    0    0 -0.78922152379E+01 -0.66018025352E+02  0.33537553706E+02  0.18669460153E+03  0.17120000000E+03 0.  0.
        998    1    1    2    0    0 -0.78232776796E+01  0.81621737956E+01  0.13753795861E+04  0.13754624061E+04  0.10000000000E+02 0.  1.
</event>
<event>
 5    1  0.1252945E-008  0.3821109E+03  0.7957747E-01  0.3442018E+00
         13   -1    0    0    0    0  0.00000000000E+00  0.00000000000E+00  0.14999999963E+04  0.15000000000E+04  0.10566000000E+00 0. -1.
        994   -1    0    0    0    0 -0.00000000000E+00 -0.00000000000E+00  0.11368683772E-12  0.17120000000E+03  0.17120000000E+03 0.  0.
         13    1    1    2    0    0 -0.16800363881E+02  0.10325366469E+02  0.65909049732E+02  0.68795925896E+02  0.10566000000E+00 0. -1.
        994    1    1    2    0    0 -0.69681914187E+01 -0.13571145428E+02  0.38443440217E+01  0.17192135022E+03  0.17120000000E+03 0.  0.
        998    1    1    2    0    0  0.23768555300E+02  0.32457789588E+01  0.14302466025E+04  0.14304827239E+04  0.10000000000E+02 0. -1.
</event>
<event>
 5    1  0.1252945E-008  0.3848863E+03  0.7957747E-01  0.3430155E+00
         13   -1    0    0    0    0  0.00000000000E+00  0.00000000000E+00  0.14999999963E+04  0.15000000000E+04  0.10566000000E+00 0. -1.
        994   -1    0    0    0    0 -0.00000000000E+00 -0.00000000000E+00  0.11368683772E-12  0.17120000000E+03  0.17120000000E+03 0.  0.
         13    1    1    2    0    0  0.14968759949E+02 -0.95365295717E+01  0.89347334374E+02  0.91093174797E+02  0.10566000000E+00 0. -1.
        994    1    1    2    0    0 -0.15514001396E+02  0.81895558956E+01  0.26997376585E+01  0.17211763898E+03  0.17120000000E+03 0.  0.
        998    1    1    2    0    0  0.54524144693E+00  0.13469736761E+01  0.14079529242E+04  0.14079891862E+04  0.10000000000E+02 0. -1.
</event>
<event>
 5    1  0.1252945E-008  0.3762414E+03  0.7957747E-01  0.3467689E+00
         13   -1    0    0    0    0  0.00000000000E+00  0.00000000000E+00  0.14999999963E+04  0.15000000000E+04  0.10566000000E+00 0.  1.
        994   -1    0    0    0    0 -0.00000000000E+00 -0.00000000000E+00  0.11368683772E-12  0.17120000000E+03  0.17120000000E+03 0.  0.
         13    1    1    2    0    0 -0.51686158456E+02  0.14020780368E+03  0.74731363034E+03  0.76210718435E+03  0.10566000000E+00 0.  1.
        994    1    1    2    0    0  0.68717491057E+02 -0.14188320596E+03  0.95423833998E+02  0.25153148074E+03  0.17120000000E+03 0.  0.
        998    1    1    2    0    0 -0.17031332602E+02  0.16754022784E+01  0.65726253194E+03  0.65756133490E+03  0.10000000000E+02 0.  1.
</event>
<event>
 5    1  0.1252945E-008  0.3794839E+03  0.7957747E-01  0.3453409E+00
         13   -1    0    0    0    0  0.00000000000E+00  0.00000000000E+00  0.14999999963E+04  0.15000000000E+04  0.10566000000E+00 0. -1.
        994   -1    0    0    0    0 -0.00000000000E+00 -0.00000000000E+00  0.11368683772E-12  0.17120000000E+03  0.17120000000E+03 0.  0.
         13    1    1    2    0    0  0.77641897513E+01  0.39109513910E+02  0.17154432832E+03  0.17611730313E+03  0.10566000000E+00 0. -1.
        994    1    1    2    0    0 -0.21920365783E+02 -0.26596498340E+02  0.83818895320E+01  0.17483584367E+03  0.17120000000E+03 0.  0.
        998    1    1    2    0    0  0.14156176032E+02 -0.12513015570E+02  0.13200737784E+04  0.13202468532E+04  0.10000000000E+02 0. -1.
</event>
<event>
 5    1  0.1252945E-008  0.3836859E+03  0.7957747E-01  0.3435265E+00
         13   -1    0    0    0    0  0.00000000000E+00  0.00000000000E+00  0.14999999963E+04  0.15000000000E+04  0.10566000000E+00 0. -1.
        994   -1    0    0    0    0 -0.00000000000E+00 -0.00000000000E+00  0.11368683772E-12  0.17120000000E+03  0.17120000000E+03 0.  0.
         13    1    1    2    0    0 -0.18226235490E+02 -0.15667560804E+02  0.12939147250E+03  0.13160483441E+03  0.10566000000E+00 0. -1.
        994    1    1    2    0    0  0.92957906230E+01  0.62731350085E+01  0.26994610028E+01  0.17158814363E+03  0.17120000000E+03 0.  0.
        998    1    1    2    0    0  0.89304448674E+01  0.93944257953E+01  0.13679090628E+04  0.13680070220E+04  0.10000000000E+02 0. -1.
</event>
<event>
 5    1  0.1252945E-008  0.3772841E+03  0.7957747E-01  0.3463070E+00
         13   -1    0    0    0    0  0.00000000000E+00  0.00000000000E+00  0.14999999963E+04  0.15000000000E+04  0.10566000000E+00 0.  1.
        994   -1    0    0    0    0 -0.00000000000E+00 -0.00000000000E+00  0.11368683772E-12  0.17120000000E+03  0.17120000000E+03 0.  0.
         13    1    1    2    0    0  0.42152169460E+01  0.27500004548E+02  0.66973956742E+02  0.72522688517E+02  0.10566000000E+00 0.  1.
        994    1    1    2    0    0  0.19937513087E+01 -0.22908759558E+02  0.72961795157E+01  0.17289147042E+03  0.17120000000E+03 0.  0.
        998    1    1    2    0    0 -0.62089682547E+01 -0.45912449903E+01  0.14257298600E+04  0.14257858411E+04  0.10000000000E+02 0.  1.
</event>
<event>
 5    1  0.1252945E-008  0.3850004E+03  0.7957747E-01  0.3429671E+00
         13   -1    0    0    0    0  0.00000000000E+00  0.00000000000E+00  0.14999999963E+04  0.15000000000E+04  0.10566000000E+00 0.  1.
        994   -1    0    0    0    0 -0.00000000000E+00 -0.00000000000E+00  0.11368683772E-12  0.17120000000E+03  0.17120000000E+03 0.  0.
         13    1    1    2    0    0  0.11517316183E+02  0.14529874755E+02  0.95218083412E+02  0.97006496716E+02  0.10566000000E+00 0.  1.
        994    1    1    2    0    0 -0.16758066279E+02 -0.19240109881E+02  0.37738374995E+01  0.17313202033E+03  0.17120000000E+03 0.  0.
        998    1    1    2    0    0  0.52407500960E+01  0.47102351262E+01  0.14010080754E+04  0.14010614830E+04  0.10000000000E+02 0.  1.
</event>
<event>
 5    1  0.1252945E-008  0.3843381E+03  0.7957747E-01  0.3432484E+00
         13   -1    0    0    0    0  0.00000000000E+00  0.00000000000E+00  0.14999999963E+04  0.15000000000E+04  0.10566000000E+00 0. -1.
        994   -1    0    0    0    0 -0.00000000000E+00 -0.00000000000E+00  0.11368683772E-12  0.17120000000E+03  0.17120000000E+03 0.  0.
         13    1    1    2    0    0  0.19879303765E+01 -0.11558246615E+02  0.35579985015E+02  0.37463201007E+02  0.10566000000E+00 0. -1.
        994    1    1    2    0    0 -0.24179626974E+01  0.16788095285E+01  0.19876749721E+01  0.17123684124E+03  0.17120000000E+03 0.  0.
        998    1    1    2    0    0  0.43003232093E+00  0.98794370864E+01  0.14624323363E+04  0.14624999578E+04  0.10000000000E+02 0. -1.
</event>
<event>
 5    1  0.1252945E-008  0.3842015E+03  0.7957747E-01  0.3433066E+00
         13   -1    0    0    0    0  0.00000000000E+00  0.00000000000E+00  0.14999999963E+04  0.15000000000E+04  0.10566000000E+00 0.  1.
        994   -1    0    0    0    0 -0.00000000000E+00 -0.00000000000E+00  0.11368683772E-12  0.17120000000E+03  0.17120000000E+03 0.  0.
         13    1    1    2    0    0  0.20094646180E+02  0.49399144495E+01  0.10459176606E+03  0.10661916456E+03  0.10566000000E+00 0.  1.
        994    1    1    2    0    0 -0.13200982593E+02 -0.43766578266E+01  0.26651127922E+01  0.17178464396E+03  0.17120000000E+03 0.  0.
        998    1    1    2    0    0 -0.68936635868E+01 -0.56325662282E+00  0.13927431174E+04  0.13927961915E+04  0.10000000000E+02 0.  1.
</event>
<event>
 5    1  0.1252945E-008  0.3856894E+03  0.7957747E-01  0.3426754E+00
         13   -1    0    0    0    0  0.00000000000E+00  0.00000000000E+00  0.14999999963E+04  0.15000000000E+04  0.10566000000E+00 0. -1.
        994   -1    0    0    0    0 -0.00000000000E+00 -0.00000000000E+00  0.11368683772E-12  0.17120000000E+03  0.17120000000E+03 0.  0.
         13    1    1    2    0    0 -0.39245872335E+00  0.11217871369E+02  0.47850195129E+02  0.49149231935E+02  0.10566000000E+00 0. -1.
        994    1    1    2    0    0  0.21902604105E+02 -0.12008563910E+02  0.33382560077E+01  0.17304483126E+03  0.17120000000E+03 0.  0.
        998    1    1    2    0    0 -0.21510145382E+02  0.79069254111E+00  0.14488115451E+04  0.14490059368E+04  0.10000000000E+02 0. -1.
</event>
<event>
 5    1  0.1252945E-008  0.3860449E+03  0.7957747E-01  0.3425253E+00
         13   -1    0    0    0    0  0.00000000000E+00  0.00000000000E+00  0.14999999963E+04  0.15000000000E+04  0.10566000000E+00 0.  1.
        994   -1    0    0    0    0 -0.00000000000E+00 -0.00000000000E+00  0.11368683772E-12  0.17120000000E+03  0.17120000000E+03 0.  0.
         13    1    1    2    0    0  0.88857586206E+01 -0.83725280611E+01  0.67794449647E+02  0.68885081835E+02  0.10566000000E+00 0.  1.
        994    1    1    2    0    0 -0.34617359122E+01  0.83088924340E+01  0.13778560064E+01  0.17144200126E+03  0.17120000000E+03 0.  0.
        998    1    1    2    0    0 -0.54240227084E+01  0.63635627092E-01  0.14308276906E+04  0.14308729169E+04  0.10000000000E+02 0.  1.
</event>
<event>
 5    1  0.2340472E-008  0.3861416E+03  0.7957747E-01  0.3424845E+00
         13   -1    0    0    0    0  0.00000000000E+00  0.00000000000E+00  0.14999999963E+04  0.15000000000E+04  0.10566000000E+00 0.  1.
        994   -1    0    0    0    0 -0.00000000000E+00 -0.00000000000E+00  0.11368683772E-12  0.17120000000E+03  0.17120000000E+03 0.  0.
         13    1    1    2    0    0  0.10853927042E+02  0.29325224626E+01  0.61692153085E+02  0.62708375330E+02  0.10566000000E+00 0.  1.
        994    1    1    2    0    0 -0.32872863227E+01 -0.46218192743E+01  0.11698370084E+01  0.17129791588E+03  0.17120000000E+03 0.  0.
        998    1    1    2    0    0 -0.75666407193E+01  0.16892968117E+01  0.14371380062E+04  0.14371937088E+04  0.10000000000E+02 0.  1.
</event>
<event>
 5    1  0.1252945E-008  0.3707607E+03  0.7957747E-01  0.3492402E+00
         13   -1    0    0    0    0  0.00000000000E+00  0.00000000000E+00  0.14999999963E+04  0.15000000000E+04  0.10566000000E+00 0. -1.
        994   -1    0    0    0    0 -0.00000000000E+00 -0.00000000000E+00  0.11368683772E-12  0.17120000000E+03  0.17120000000E+03 0.  0.
         13    1    1    2    0    0 -0.24013966155E+01  0.10308189435E+03  0.47427706801E+03  0.48535594367E+03  0.10566000000E+00 0. -1.
        994    1    1    2    0    0 -0.60405570114E+01 -0.57771011294E+02  0.23263946349E+02  0.18227624441E+03  0.17120000000E+03 0.  0.
        998    1    1    2    0    0  0.84419536268E+01 -0.45310883059E+02  0.10024589819E+04  0.10035678119E+04  0.10000000000E+02 0. -1.
</event>
<event>
 5    1  0.1252945E-008  0.3748055E+03  0.7957747E-01  0.3474093E+00
         13   -1    0    0    0    0  0.00000000000E+00  0.00000000000E+00  0.14999999963E+04  0.15000000000E+04  0.10566000000E+00 0. -1.
        994   -1    0    0    0    0 -0.00000000000E+00 -0.00000000000E+00  0.11368683772E-12  0.17120000000E+03  0.17120000000E+03 0.  0.
         13    1    1    2    0    0  0.62386999048E+00 -0.11848213144E+02  0.72935979336E+01  0.13927566310E+02  0.10566000000E+00 0. -1.
        994    1    1    2    0    0  0.56965966977E+00  0.87554939084E+01  0.70405227349E+01  0.17156920512E+03  0.17120000000E+03 0.  0.
        998    1    1    2    0    0 -0.11935296603E+01  0.30927192355E+01  0.14856658756E+04  0.14857032286E+04  0.10000000000E+02 0. -1.
</event>
<event>
 5    1  0.1252945E-008  0.3835433E+03  0.7957747E-01  0.3435874E+00
         13   -1    0    0    0    0  0.00000000000E+00  0.00000000000E+00  0.14999999963E+04  0.15000000000E+04  0.10566000000E+00 0.  1.
        994   -1    0    0    0    0 -0.00000000000E+00 -0.00000000000E+00  0.11368683772E-12  0.17120000000E+03  0.17120000000E+03 0.  0.
         13    1    1    2    0    0 -0.89305403722E+01 -0.22258532009E+02  0.11610574845E+03  0.11855696009E+03  0.10566000000E+00 0.  1.
        994    1    1    2    0    0  0.11592907590E+02  0.18154570978E+02  0.38897184542E+01  0.17259360899E+03  0.17120000000E+03 0.  0.
        998    1    1    2    0    0 -0.26623672182E+01  0.41039610312E+01  0.13800045294E+04  0.13800494309E+04  0.10000000000E+02 0.  1.
</event>
<event>
 5    1  0.1252945E-008  0.3800402E+03  0.7957747E-01  0.3450983E+00
         13   -1    0    0    0    0  0.00000000000E+00  0.00000000000E+00  0.14999999963E+04  0.15000000000E+04  0.10566000000E+00 0. -1.
        994   -1    0    0    0    0 -0.00000000000E+00 -0.00000000000E+00  0.11368683772E-12  0.17120000000E+03  0.17120000000E+03 0.  0.
         13    1    1    2    0    0  0.27669711032E+02  0.40443261553E+02  0.69457279068E+02  0.85003500476E+02  0.10566000000E+00 0. -1.
        994    1    1    2    0    0 -0.10322357373E+02 -0.22625027998E+02  0.18593733753E+02  0.17399313173E+03  0.17120000000E+03 0.  0.
        998    1    1    2    0    0 -0.17347353659E+02 -0.17818233555E+02  0.14119489835E+04  0.14122033678E+04  0.10000000000E+02 0. -1.
</event>
<event>
 5    1  0.1252945E-008  0.3826721E+03  0.7957747E-01  0.3439606E+00
         13   -1    0    0    0    0  0.00000000000E+00  0.00000000000E+00  0.14999999963E+04  0.15000000000E+04  0.10566000000E+00 0.  1.
        994   -1    0    0    0    0 -0.00000000000E+00 -0.00000000000E+00  0.11368683772E-12  0.17120000000E+03  0.17120000000E+03 0.  0.
         13    1    1    2    0    0 -0.21955856940E+02  0.76832717746E+01  0.96583241886E+02  0.99344985260E+02  0.10566000000E+00 0.  1.
        994    1    1    2    0    0  0.11510616331E+02 -0.84066558492E+01  0.34638585353E+01  0.17182725182E+03  0.17120000000E+03 0.  0.
        998    1    1    2    0    0  0.10445240609E+02  0.72338407464E+00  0.13999528959E+04  0.14000277629E+04  0.10000000000E+02 0.  1.
</event>
<event>
 5    1  0.1252945E-008  0.3834885E+03  0.7957747E-01  0.3436108E+00
         13   -1    0    0    0    0  0.00000000000E+00  0.00000000000E+00  0.14999999963E+04  0.15000000000E+04  0.10566000000E+00 0. -1.
        994   -1    0    0    0    0 -0.00000000000E+00 -0.00000000000E+00  0.11368683772E-12  0.17120000000E+03  0.17120000000E+03 0.  0.
         13    1    1    2    0    0  0.19648232391E+02  0.38054847125E+00  0.76587728909E+02  0.79068889184E+02  0.10566000000E+00 0. -1.
        994    1    1    2    0    0 -0.21083368592E+02 -0.28613936772E+01  0.38799573829E+01  0.17256068519E+03  0.17120000000E+03 0.  0.
        998    1    1    2    0    0  0.14351362013E+01  0.24808452060E+01  0.14195323100E+04  0.14195704256E+04  0.10000000000E+02 0. -1.
</event>
<event>
 5    1  0.1252945E-008  0.3795287E+03  0.7957747E-01  0.3453213E+00
         13   -1    0    0    0    0  0.00000000000E+00  0.00000000000E+00  0.14999999963E+04  0.15000000000E+04  0.10566000000E+00 0. -1.
        994   -1    0    0    0    0 -0.00000000000E+00 -0.00000000000E+00  0.11368683772E-12  0.17120000000E+03  0.17120000000E+03 0.  0.
         13    1    1    2    0    0 -0.59962873638E+01 -0.26528890560E+02  0.90916572682E+02  0.94897691483E+02  0.10566000000E+00 0. -1.
        994    1    1    2    0    0  0.63737193896E+01 -0.32823017487E+01  0.45433577893E+01  0.17141026779E+03  0.17120000000E+03 0.  0.
        998    1    1    2    0    0 -0.37743202581E+00  0.29811192309E+02  0.14045400658E+04  0.14048920407E+04  0.10000000000E+02 0. -1.
</event>
<event>
 5    1  0.1252945E-008  0.3789357E+03  0.7957747E-01  0.3455806E+00
         13   -1    0    0    0    0  0.00000000000E+00  0.00000000000E+00  0.14999999963E+04  0.15000000000E+04  0.10566000000E+00 0.  1.
        994   -1    0    0    0    0 -0.00000000000E+00 -0.00000000000E+00  0.11368683772E-12  0.17120000000E+03  0.17120000000E+03 0.  0.
         13    1    1    2    0    0  0.11461277220E+02 -0.19814487275E+02  0.53249982676E+02  0.57961595911E+02  0.10566000000E+00 0.  1.
        994    1    1    2    0    0 -0.48189660200E+01  0.20616746200E+02  0.61766374519E+01  0.17261478357E+03  0.17120000000E+03 0.  0.
        998    1    1    2    0    0 -0.66423112002E+01 -0.80225892513E+00  0.14405733762E+04  0.14406236205E+04  0.10000000000E+02 0.  1.
</event>
<event>
 5    1  0.1252945E-008  0.3108251E+03  0.7957747E-01  0.3821645E+00
         13   -1    0    0    0    0  0.00000000000E+00  0.00000000000E+00  0.14999999963E+04  0.15000000000E+04  0.10566000000E+00 0. -1.
        994   -1    0    0    0    0 -0.00000000000E+00 -0.00000000000E+00  0.11368683772E-12  0.17120000000E+03  0.17120000000E+03 0.  0.
         13    1    1    2    0    0 -0.97230229602E+02  0.18110792804E+03  0.71465062834E+03  0.74362580032E+03  0.10566000000E+00 0. -1.
        994    1    1    2    0    0  0.95816819355E+02 -0.15878529742E+03  0.15382775886E+03  0.29557749059E+03  0.17120000000E+03 0.  0.
        998    1    1    2    0    0  0.14134102478E+01 -0.22322630625E+02  0.63152160908E+03  0.63199670910E+03  0.10000000000E+02 0. -1.
</event>
<event>
 5    1  0.1252945E-008  0.3802110E+03  0.7957747E-01  0.3450240E+00
         13   -1    0    0    0    0  0.00000000000E+00  0.00000000000E+00  0.14999999963E+04  0.15000000000E+04  0.10566000000E+00 0. -1.
        994   -1    0    0    0    0 -0.00000000000E+00 -0.00000000000E+00  0.11368683772E-12  0.17120000000E+03  0.17120000000E+03 0.  0.
         13    1    1    2    0    0  0.14199079310E+02  0.11925799162E+02  0.42213409238E+02  0.46106633171E+02  0.10566000000E+00 0. -1.
        994    1    1    2    0    0 -0.14397192533E+01 -0.64095158767E+01  0.41708293999E+01  0.17137675018E+03  0.17120000000E+03 0.  0.
        998    1    1    2    0    0 -0.12759360056E+02 -0.55162832849E+01  0.14536157576E+04  0.14537166166E+04  0.10000000000E+02 0. -1.
</event>
<event>
 5    1  0.1252945E-008  0.3759957E+03  0.7957747E-01  0.3468782E+00
         13   -1    0    0    0    0  0.00000000000E+00  0.00000000000E+00  0.14999999963E+04  0.15000000000E+04  0.10566000000E+00 0. -1.
        994   -1    0    0    0    0 -0.00000000000E+00 -0.00000000000E+00  0.11368683772E-12  0.17120000000E+03  0.17120000000E+03 0.  0.
         13    1    1    2    0    0  0.12055388237E+02 -0.42385003302E+02  0.13938414211E+03  0.14618403170E+03  0.10566000000E+00 0. -1.
        994    1    1    2    0    0  0.62514797148E+02  0.71622383911E+02  0.37429318090E+02  0.19936965565E+03  0.17120000000E+03 0.  0.
        998    1    1    2    0    0 -0.74570185385E+02 -0.29237380609E+02  0.13231865361E+04  0.13256463127E+04  0.10000000000E+02 0. -1.
</event>
<event>
 5    1  0.1252945E-008  0.3847283E+03  0.7957747E-01  0.3430825E+00
         13   -1    0    0    0    0  0.00000000000E+00  0.00000000000E+00  0.14999999963E+04  0.15000000000E+04  0.10566000000E+00 0. -1.
        994   -1    0    0    0    0 -0.00000000000E+00 -0.00000000000E+00  0.11368683772E-12  0.17120000000E+03  0.17120000000E+03 0.  0.
         13    1    1    2    0    0  0.15477844279E+02 -0.74072878316E+01  0.90606953704E+02  0.92217475568E+02  0.10566000000E+00 0. -1.
        994    1    1    2    0    0  0.18416537224E+01  0.28669521575E+01  0.18033102015E+01  0.17124340288E+03  0.17120000000E+03 0.  0.
        998    1    1    2    0    0 -0.17319498002E+02  0.45403356741E+01  0.14075897324E+04  0.14077391215E+04  0.10000000000E+02 0. -1.
</event>
<event>
 5    1  0.1252945E-008  0.3854564E+03  0.7957747E-01  0.3427739E+00
         13   -1    0    0    0    0  0.00000000000E+00  0.00000000000E+00  0.14999999963E+04  0.15000000000E+04  0.10566000000E+00 0. -1.
        994   -1    0    0    0    0 -0.00000000000E+00 -0.00000000000E+00  0.11368683772E-12  0.17120000000E+03  0.17120000000E+03 0.  0.
         13    1    1    2    0    0  0.10637565840E+02 -0.12613280057E+02  0.92804567349E+02  0.94260020824E+02  0.10566000000E+00 0. -1.
        994    1    1    2    0    0 -0.87892868979E+01  0.14358004671E+02  0.23348910910E+01  0.17204155190E+03  0.17120000000E+03 0.  0.
        998    1    1    2    0    0 -0.18482789422E+01 -0.17447246144E+01  0.14048605378E+04  0.14048984273E+04  0.10000000000E+02 0. -1.
</event>
<event>
 5    1  0.1252945E-008  0.3723582E+03  0.7957747E-01  0.3485123E+00
         13   -1    0    0    0    0  0.00000000000E+00  0.00000000000E+00  0.14999999963E+04  0.15000000000E+04  0.10566000000E+00 0. -1.
        994   -1    0    0    0    0 -0.00000000000E+00 -0.00000000000E+00  0.11368683772E-12  0.17120000000E+03  0.17120000000E+03 0.  0.
         13    1    1    2    0    0  0.66616798729E+02  0.96628361925E+02  0.38055097136E+03  0.39823848529E+03  0.10566000000E+00 0. -1.
        994    1    1    2    0    0 -0.82745600360E+02 -0.96759846628E+02  0.71753312112E+02  0.22509393616E+03  0.17120000000E+03 0.  0.
        998    1    1    2    0    0  0.16128801631E+02  0.13148470308E+00  0.10476957128E+04  0.10478675785E+04  0.10000000000E+02 0. -1.
</event>
<event>
 5    1  0.1252945E-008  0.3781902E+03  0.7957747E-01  0.3459077E+00
         13   -1    0    0    0    0  0.00000000000E+00  0.00000000000E+00  0.14999999963E+04  0.15000000000E+04  0.10566000000E+00 0. -1.
        994   -1    0    0    0    0 -0.00000000000E+00 -0.00000000000E+00  0.11368683772E-12  0.17120000000E+03  0.17120000000E+03 0.  0.
         13    1    1    2    0    0 -0.50970297239E+01 -0.21975429386E+02  0.47545276073E+02  0.52625693816E+02  0.10566000000E+00 0. -1.
        994    1    1    2    0    0  0.12441380691E+02  0.17929224002E+02  0.66527868117E+01  0.17271347544E+03  0.17120000000E+03 0.  0.
        998    1    1    2    0    0 -0.73443509667E+01  0.40462053837E+01  0.14458019334E+04  0.14458608307E+04  0.10000000000E+02 0. -1.
</event>
<event>
 5    1  0.1252945E-008  0.3791007E+03  0.7957747E-01  0.3455084E+00
         13   -1    0    0    0    0  0.00000000000E+00  0.00000000000E+00  0.14999999963E+04  0.15000000000E+04  0.10566000000E+00 0.  1.
        994   -1    0    0    0    0 -0.00000000000E+00 -0.00000000000E+00  0.11368683772E-12  0.17120000000E+03  0.17120000000E+03 0.  0.
         13    1    1    2    0    0 -0.65470108693E+02  0.74914024359E+02  0.43133932289E+03  0.44266473636E+03  0.10566000000E+00 0.  1.
        994    1    1    2    0    0  0.75658826856E+02  0.40300147050E+02  0.42879261165E+02  0.19620507377E+03  0.17120000000E+03 0.  0.
        998    1    1    2    0    0 -0.10188718163E+02 -0.11521417141E+03  0.10257814122E+04  0.10323301899E+04  0.10000000000E+02 0.  1.
</event>
<event>
 5    1  0.1252945E-008  0.3932810E+03  0.7957747E-01  0.3395293E+00
         13   -1    0    0    0    0  0.00000000000E+00  0.00000000000E+00  0.14999999963E+04  0.15000000000E+04  0.10566000000E+00 0. -1.
        994   -1    0    0    0    0 -0.00000000000E+00 -0.00000000000E+00  0.11368683772E-12  0.17120000000E+03  0.17120000000E+03 0.  0.
         13    1    1    2    0    0 -0.21799486950E+02 -0.65869792529E+02  0.84574833197E+02  0.10939360481E+03  0.10566000000E+00 0. -1.
        994    1    1    2    0    0  0.24969451871E+02  0.79306056587E+02  0.50678778520E+02  0.19695355475E+03  0.17120000000E+03 0.  0.
        998    1    1    2    0    0 -0.31699649205E+01 -0.13436264059E+02  0.13647463846E+04  0.13648528404E+04  0.10000000000E+02 0. -1.
</event>
<event>
 5    1  0.1252945E-008  0.3888218E+03  0.7957747E-01  0.3413624E+00
         13   -1    0    0    0    0  0.00000000000E+00  0.00000000000E+00  0.14999999963E+04  0.15000000000E+04  0.10566000000E+00 0. -1.
        994   -1    0    0    0    0 -0.00000000000E+00 -0.00000000000E+00  0.11368683772E-12  0.17120000000E+03  0.17120000000E+03 0.  0.
         13    1    1    2    0    0  0.51497586297E+02 -0.86120421001E+02  0.21164355189E+03  0.23422581525E+03  0.10566000000E+00 0. -1.
        994    1    1    2    0    0 -0.39089785595E+02  0.74863692047E+02  0.48497854382E+02  0.19696209180E+03  0.17120000000E+03 0.  0.
        998    1    1    2    0    0 -0.12407800702E+02  0.11256728954E+02  0.12398585900E+04  0.12400120930E+04  0.10000000000E+02 0. -1.
</event>
<event>
 5    1  0.1252945E-008  0.3852448E+03  0.7957747E-01  0.3428635E+00
         13   -1    0    0    0    0  0.00000000000E+00  0.00000000000E+00  0.14999999963E+04  0.15000000000E+04  0.10566000000E+00 0.  1.
        994   -1    0    0    0    0 -0.00000000000E+00 -0.00000000000E+00  0.11368683772E-12  0.17120000000E+03  0.17120000000E+03 0.  0.
         13    1    1    2    0    0 -0.20447169442E+02  0.30169521252E+01  0.12090497324E+03  0.12265892734E+03  0.10566000000E+00 0.  1.
        994    1    1    2    0    0  0.29631348360E+02 -0.14379253058E+02  0.50814284111E+01  0.17441341875E+03  0.17120000000E+03 0.  0.
        998    1    1    2    0    0 -0.91841789174E+01  0.11362300933E+02  0.13740135946E+04  0.13741276539E+04  0.10000000000E+02 0.  1.
</event>
<event>
 5    1  0.1252945E-008  0.3852668E+03  0.7957747E-01  0.3428541E+00
         13   -1    0    0    0    0  0.00000000000E+00  0.00000000000E+00  0.14999999963E+04  0.15000000000E+04  0.10566000000E+00 0.  1.
        994   -1    0    0    0    0 -0.00000000000E+00 -0.00000000000E+00  0.11368683772E-12  0.17120000000E+03  0.17120000000E+03 0.  0.
         13    1    1    2    0    0 -0.15091677445E+01  0.10709879917E+02  0.40492073427E+02  0.41911791772E+02  0.10566000000E+00 0.  1.
        994    1    1    2    0    0  0.60023781504E+01  0.41187295352E+00  0.16166691020E+01  0.17131331472E+03  0.17120000000E+03 0.  0.
        998    1    1    2    0    0 -0.44932104059E+01 -0.11121752871E+02  0.14578912537E+04  0.14579748935E+04  0.10000000000E+02 0.  1.
</event>
<event>
 5    1  0.1252945E-008  0.3685516E+03  0.7957747E-01  0.3502574E+00
         13   -1    0    0    0    0  0.00000000000E+00  0.00000000000E+00  0.14999999963E+04  0.15000000000E+04  0.10566000000E+00 0.  1.
        994   -1    0    0    0    0 -0.00000000000E+00 -0.00000000000E+00  0.11368683772E-12  0.17120000000E+03  0.17120000000E+03 0.  0.
         13    1    1    2    0    0  0.33026814736E+02 -0.83020302802E+02  0.32270633716E+03  0.33484702832E+03  0.10566000000E+00 0.  1.
        994    1    1    2    0    0 -0.35880049557E+02  0.74673762949E+02  0.34273979875E+02  0.19325551616E+03  0.17120000000E+03 0.  0.
        998    1    1    2    0    0  0.28532348210E+01  0.83465398535E+01  0.11430196792E+04  0.11430974555E+04  0.10000000000E+02 0.  0.
</event>
<event>
 5    1  0.1252945E-008  0.3829533E+03  0.7957747E-01  0.3438399E+00
         13   -1    0    0    0    0  0.00000000000E+00  0.00000000000E+00  0.14999999963E+04  0.15000000000E+04  0.10566000000E+00 0. -1.
        994   -1    0    0    0    0 -0.00000000000E+00 -0.00000000000E+00  0.11368683772E-12  0.17120000000E+03  0.17120000000E+03 0.  0.
         13    1    1    2    0    0 -0.14111975210E+02  0.18205150377E+02  0.92610213891E+02  0.95431851211E+02  0.10566000000E+00 0. -1.
        994    1    1    2    0    0  0.16893338151E+02 -0.19936099068E+02  0.49135739786E+01  0.17325246356E+03  0.17120000000E+03 0.  0.
        998    1    1    2    0    0 -0.27813629404E+01  0.17309486908E+01  0.14024762084E+04  0.14025156852E+04  0.10000000000E+02 0. -1.
</event>
<event>
 5    1  0.1252945E-008  0.3686693E+03  0.7957747E-01  0.3502029E+00
         13   -1    0    0    0    0  0.00000000000E+00  0.00000000000E+00  0.14999999963E+04  0.15000000000E+04  0.10566000000E+00 0. -1.
        994   -1    0    0    0    0 -0.00000000000E+00 -0.00000000000E+00  0.11368683772E-12  0.17120000000E+03  0.17120000000E+03 0.  0.
         13    1    1    2    0    0 -0.46563458948E+01  0.22688891608E+02  0.22568825658E+02  0.32339301401E+02  0.10566000000E+00 0. -1.
        994    1    1    2    0    0  0.14879626731E+01 -0.19424520048E+02  0.11285697777E+02  0.17267406576E+03  0.17120000000E+03 0.  0.
        998    1    1    2    0    0  0.31683832217E+01 -0.32643715606E+01  0.14661454728E+04  0.14661866328E+04  0.10000000000E+02 0. -1.
</event>
<event>
 5    1  0.1252945E-008  0.3859364E+03  0.7957747E-01  0.3425711E+00
         13   -1    0    0    0    0  0.00000000000E+00  0.00000000000E+00  0.14999999963E+04  0.15000000000E+04  0.10566000000E+00 0. -1.
        994   -1    0    0    0    0 -0.00000000000E+00 -0.00000000000E+00  0.11368683772E-12  0.17120000000E+03  0.17120000000E+03 0.  0.
         13    1    1    2    0    0  0.15055616525E+01 -0.10071260029E+02  0.48400775268E+02  0.49460521682E+02  0.10566000000E+00 0. -1.
        994    1    1    2    0    0 -0.76464013237E+01 -0.56360111837E+01  0.14618427920E+01  0.17146955724E+03  0.17120000000E+03 0.  0.
        998    1    1    2    0    0  0.61408396712E+01  0.15707271213E+02  0.14501373782E+04  0.14502699211E+04  0.10000000000E+02 0. -1.
</event>
<event>
 5    1  0.1252945E-008  0.3842135E+03  0.7957747E-01  0.3433015E+00
         13   -1    0    0    0    0  0.00000000000E+00  0.00000000000E+00  0.14999999963E+04  0.15000000000E+04  0.10566000000E+00 0. -1.
        994   -1    0    0    0    0 -0.00000000000E+00 -0.00000000000E+00  0.11368683772E-12  0.17120000000E+03  0.17120000000E+03 0.  0.
         13    1    1    2    0    0  0.84546433414E+01 -0.10431274244E+02  0.43803439409E+02  0.45815335254E+02  0.10566000000E+00 0. -1.
        994    1    1    2    0    0 -0.39842477102E+01  0.10690295977E+02  0.24503877983E+01  0.17159720586E+03  0.17120000000E+03 0.  0.
        998    1    1    2    0    0 -0.44703956311E+01 -0.25902173385E+00  0.14537461691E+04  0.14537874589E+04  0.10000000000E+02 0. -1.
</event>
<event>
 5    1  0.1252945E-008  0.3711096E+03  0.7957747E-01  0.3490807E+00
         13   -1    0    0    0    0  0.00000000000E+00  0.00000000000E+00  0.14999999963E+04  0.15000000000E+04  0.10566000000E+00 0.  1.
        994   -1    0    0    0    0 -0.00000000000E+00 -0.00000000000E+00  0.11368683772E-12  0.17120000000E+03  0.17120000000E+03 0.  0.
         13    1    1    2    0    0 -0.35194457264E+02 -0.57526982391E+01  0.51577392321E+02  0.62705517475E+02  0.10566000000E+00 0.  1.
        994    1    1    2    0    0  0.18675482809E+02  0.12012496810E+01  0.12756802921E+02  0.17269161149E+03  0.17120000000E+03 0.  0.
        998    1    1    2    0    0  0.16518974454E+02  0.45514485581E+01  0.14356658010E+04  0.14358028710E+04  0.10000000000E+02 0.  1.
</event>
<event>
 5    1  0.1252945E-008  0.3825872E+03  0.7957747E-01  0.3439970E+00
         13   -1    0    0    0    0  0.00000000000E+00  0.00000000000E+00  0.14999999963E+04  0.15000000000E+04  0.10566000000E+00 0.  1.
        994   -1    0    0    0    0 -0.00000000000E+00 -0.00000000000E+00  0.11368683772E-12  0.17120000000E+03  0.17120000000E+03 0.  0.
         13    1    1    2    0    0 -0.20629138474E+02 -0.27326332662E+01  0.78773532971E+02  0.81475820336E+02  0.10566000000E+00 0.  1.
        994    1    1    2    0    0  0.65506121267E+01 -0.68828970928E+01  0.31321032802E+01  0.17149208396E+03  0.17120000000E+03 0.  0.
        998    1    1    2    0    0  0.14078526347E+02  0.96155303589E+01  0.14180943600E+04  0.14182320957E+04  0.10000000000E+02 0.  1.
</event>
<event>
 5    1  0.1252945E-008  0.3850499E+03  0.7957747E-01  0.3429461E+00
         13   -1    0    0    0    0  0.00000000000E+00  0.00000000000E+00  0.14999999963E+04  0.15000000000E+04  0.10566000000E+00 0. -1.
        994   -1    0    0    0    0 -0.00000000000E+00 -0.00000000000E+00  0.11368683772E-12  0.17120000000E+03  0.17120000000E+03 0.  0.
         13    1    1    2    0    0  0.14588143828E+02 -0.55795000976E+01  0.78588561501E+02  0.80125638372E+02  0.10566000000E+00 0. -1.
        994    1    1    2    0    0 -0.47690708070E+01  0.30144237241E+01  0.17100371335E+01  0.17130147406E+03  0.17120000000E+03 0.  0.
        998    1    1    2    0    0 -0.98190730210E+01  0.25650763735E+01  0.14197013976E+04  0.14197728876E+04  0.10000000000E+02 0. -1.
</event>
<event>
 5    1  0.1252945E-008  0.3847613E+03  0.7957747E-01  0.3430685E+00
         13   -1    0    0    0    0  0.00000000000E+00  0.00000000000E+00  0.14999999963E+04  0.15000000000E+04  0.10566000000E+00 0. -1.
        994   -1    0    0    0    0 -0.00000000000E+00 -0.00000000000E+00  0.11368683772E-12  0.17120000000E+03  0.17120000000E+03 0.  0.
         13    1    1    2    0    0 -0.73014799887E+01  0.12102131067E+02  0.60383358528E+02  0.62015597534E+02  0.10566000000E+00 0. -1.
        994    1    1    2    0    0 -0.22016829824E+02 -0.13756790882E+02  0.39700891305E+01  0.17320274738E+03  0.17120000000E+03 0.  0.
        998    1    1    2    0    0  0.29318309812E+02  0.16546598155E+01  0.14356465486E+04  0.14359816551E+04  0.10000000000E+02 0. -1.
</event>
<event>
 5    1  0.1252945E-008  0.3781084E+03  0.7957747E-01  0.3459436E+00
         13   -1    0    0    0    0  0.00000000000E+00  0.00000000000E+00  0.14999999963E+04  0.15000000000E+04  0.10566000000E+00 0.  1.
        994   -1    0    0    0    0 -0.00000000000E+00 -0.00000000000E+00  0.11368683772E-12  0.17120000000E+03  0.17120000000E+03 0.  0.
         13    1    1    2    0    0  0.43183955276E+02 -0.27292913069E+02  0.30769123296E+03  0.31190329126E+03  0.10566000000E+00 0.  1.
        994    1    1    2    0    0 -0.68991434407E+01  0.39873584281E+01  0.53046869738E+01  0.17146742230E+03  0.17120000000E+03 0.  0.
        998    1    1    2    0    0 -0.36284811835E+02  0.23305554641E+02  0.11870040763E+04  0.11878292864E+04  0.10000000000E+02 0.  1.
</event>
<event>
 5    1  0.1252945E-008  0.4005706E+03  0.7957747E-01  0.3366206E+00
         13   -1    0    0    0    0  0.00000000000E+00  0.00000000000E+00  0.14999999963E+04  0.15000000000E+04  0.10566000000E+00 0. -1.
        994   -1    0    0    0    0 -0.00000000000E+00 -0.00000000000E+00  0.11368683772E-12  0.17120000000E+03  0.17120000000E+03 0.  0.
         13    1    1    2    0    0  0.11300651513E+03  0.52832841861E+02  0.30519193361E+03  0.32970275878E+03  0.10566000000E+00 0. -1.
        994    1    1    2    0    0 -0.53119586288E+02 -0.74800873679E+01  0.39497757123E+02  0.18370398736E+03  0.17120000000E+03 0.  0.
        998    1    1    2    0    0 -0.59886928844E+02 -0.45352754493E+02  0.11553103055E+04  0.11577932539E+04  0.10000000000E+02 0. -1.
</event>
<event>
 5    1  0.1252945E-008  0.3809410E+03  0.7957747E-01  0.3447072E+00
         13   -1    0    0    0    0  0.00000000000E+00  0.00000000000E+00  0.14999999963E+04  0.15000000000E+04  0.10566000000E+00 0.  1.
        994   -1    0    0    0    0 -0.00000000000E+00 -0.00000000000E+00  0.11368683772E-12  0.17120000000E+03  0.17120000000E+03 0.  0.
         13    1    1    2    0    0 -0.22412885698E+02 -0.29532266637E-01  0.68185021244E+02  0.71774275361E+02  0.10566000000E+00 0.  1.
        994    1    1    2    0    0  0.11641020007E+02 -0.10520087420E+02  0.44797621987E+01  0.17197585254E+03  0.17120000000E+03 0.  0.
        998    1    1    2    0    0  0.10771865691E+02  0.10549619687E+02  0.14273352128E+04  0.14274498721E+04  0.10000000000E+02 0.  1.
</event>
<event>
 5    1  0.1252945E-008  0.3830976E+03  0.7957747E-01  0.3437781E+00
         13   -1    0    0    0    0  0.00000000000E+00  0.00000000000E+00  0.14999999963E+04  0.15000000000E+04  0.10566000000E+00 0.  1.
        994   -1    0    0    0    0 -0.00000000000E+00 -0.00000000000E+00  0.11368683772E-12  0.17120000000E+03  0.17120000000E+03 0.  0.
         13    1    1    2    0    0  0.11089512507E+02 -0.46750302097E+01  0.28279427995E+02  0.30733864171E+02  0.10566000000E+00 0.  1.
        994    1    1    2    0    0  0.25895987279E+01 -0.27644968778E+00  0.26000380064E+01  0.17123954755E+03  0.17120000000E+03 0.  0.
        998    1    1    2    0    0 -0.13679111235E+02  0.49514798975E+01  0.14691205303E+04  0.14692265883E+04  0.10000000000E+02 0.  1.
</event>
<event>
 5    1  0.1252945E-008  0.3695213E+03  0.7957747E-01  0.3498094E+00
         13   -1    0    0    0    0  0.00000000000E+00  0.00000000000E+00  0.14999999963E+04  0.15000000000E+04  0.10566000000E+00 0. -1.
        994   -1    0    0    0    0 -0.00000000000E+00 -0.00000000000E+00  0.11368683772E-12  0.17120000000E+03  0.17120000000E+03 0.  0.
         13    1    1    2    0    0 -0.82826770537E+02  0.46724276877E+02  0.35346771011E+03  0.36603669928E+03  0.10566000000E+00 0. -1.
        994    1    1    2    0    0  0.57743627192E+02 -0.63195463282E+02  0.36718852337E+02  0.19489922313E+03  0.17120000000E+03 0.  0.
        998    1    1    2    0    0  0.25083143345E+02  0.16471186405E+02  0.11098134338E+04  0.11102640776E+04  0.10000000000E+02 0. -1.
</event>
<event>
 5    1  0.1252945E-008  0.3755985E+03  0.7957747E-01  0.3470550E+00
         13   -1    0    0    0    0  0.00000000000E+00  0.00000000000E+00  0.14999999963E+04  0.15000000000E+04  0.10566000000E+00 0. -1.
        994   -1    0    0    0    0 -0.00000000000E+00 -0.00000000000E+00  0.11368683772E-12  0.17120000000E+03  0.17120000000E+03 0.  0.
         13    1    1    2    0    0  0.28662118546E+02 -0.91576874797E+01  0.67213753998E+02  0.73641565505E+02  0.10566000000E+00 0. -1.
        994    1    1    2    0    0 -0.23492968166E+02  0.88225564068E+01  0.85109945483E+01  0.17323866221E+03  0.17120000000E+03 0.  0.
        998    1    1    2    0    0 -0.51691503803E+01  0.33513107287E+00  0.14242752477E+04  0.14243197723E+04  0.10000000000E+02 0. -1.
</event>
<event>
 5    1  0.1252945E-008  0.3821134E+03  0.7957747E-01  0.3442008E+00
         13   -1    0    0    0    0  0.00000000000E+00  0.00000000000E+00  0.14999999963E+04  0.15000000000E+04  0.10566000000E+00 0.  1.
        994   -1    0    0    0    0 -0.00000000000E+00 -0.00000000000E+00  0.11368683772E-12  0.17120000000E+03  0.17120000000E+03 0.  0.
         13    1    1    2    0    0  0.29548996250E+02 -0.98681456683E+01  0.13808751097E+03  0.14155809877E+03  0.10566000000E+00 0.  1.
        994    1    1    2    0    0 -0.35512188047E+02  0.12067019377E+02  0.77541616822E+01  0.17543174023E+03  0.17120000000E+03 0.  0.
        998    1    1    2    0    0  0.59631917968E+01 -0.21988737083E+01  0.13541583236E+04  0.13542101610E+04  0.10000000000E+02 0.  1.
</event>
<event>
 5    1  0.1252945E-008  0.2764118E+03  0.7957747E-01  0.4080279E+00
         13   -1    0    0    0    0  0.00000000000E+00  0.00000000000E+00  0.14999999963E+04  0.15000000000E+04  0.10566000000E+00 0. -1.
        994   -1    0    0    0    0 -0.00000000000E+00 -0.00000000000E+00  0.11368683772E-12  0.17120000000E+03  0.17120000000E+03 0.  0.
         13    1    1    2    0    0  0.16491198885E+03  0.10729296337E+03  0.42455889910E+03  0.46792949685E+03  0.10566000000E+00 0. -1.
        994    1    1    2    0    0 -0.16156024229E+03 -0.11112553583E+03  0.20131160934E+03  0.32906899072E+03  0.17120000000E+03 0.  0.
        998    1    1    2    0    0 -0.33517465615E+01  0.38325724636E+01  0.87412948784E+03  0.87420151242E+03  0.10000000000E+02 0. -1.
</event>
<event>
 5    1  0.1252945E-008  0.3846002E+03  0.7957747E-01  0.3431370E+00
         13   -1    0    0    0    0  0.00000000000E+00  0.00000000000E+00  0.14999999963E+04  0.15000000000E+04  0.10566000000E+00 0.  1.
        994   -1    0    0    0    0 -0.00000000000E+00 -0.00000000000E+00  0.11368683772E-12  0.17120000000E+03  0.17120000000E+03 0.  0.
         13    1    1    2    0    0  0.13683000636E+01 -0.10080773407E+02  0.27715491607E+02  0.29523784930E+02  0.10566000000E+00 0.  1.
        994    1    1    2    0    0  0.16997526807E+02  0.10999119812E+02  0.31796951082E+01  0.17242229269E+03  0.17120000000E+03 0.  0.
        998    1    1    2    0    0 -0.18365826870E+02 -0.91834640444E+00  0.14691048096E+04  0.14692539224E+04  0.10000000000E+02 0.  1.
</event>
<event>
 5    1  0.1252945E-008  0.3845783E+03  0.7957747E-01  0.3431463E+00
         13   -1    0    0    0    0  0.00000000000E+00  0.00000000000E+00  0.14999999963E+04  0.15000000000E+04  0.10566000000E+00 0.  1.
        994   -1    0    0    0    0 -0.00000000000E+00 -0.00000000000E+00  0.11368683772E-12  0.17120000000E+03  0.17120000000E+03 0.  0.
         13    1    1    2    0    0 -0.82716320925E+01  0.68288691132E+01  0.32185937760E+02  0.33926377707E+02  0.10566000000E+00 0.  1.
        994    1    1    2    0    0 -0.53343334388E+01 -0.30586708905E+01  0.19641886399E+01  0.17132165251E+03  0.17120000000E+03 0.  0.
        998    1    1    2    0    0  0.13605965531E+02 -0.37701982226E+01  0.14658498699E+04  0.14659519698E+04  0.10000000000E+02 0.  1.
</event>
<event>
 5    1  0.1252945E-008  0.3831671E+03  0.7957747E-01  0.3437483E+00
         13   -1    0    0    0    0  0.00000000000E+00  0.00000000000E+00  0.14999999963E+04  0.15000000000E+04  0.10566000000E+00 0.  1.
        994   -1    0    0    0    0 -0.00000000000E+00 -0.00000000000E+00  0.11368683772E-12  0.17120000000E+03  0.17120000000E+03 0.  0.
         13    1    1    2    0    0 -0.16754584688E+02  0.57082738882E+01  0.65527157303E+02  0.67875768924E+02  0.10566000000E+00 0.  1.
        994    1    1    2    0    0 -0.31668838251E+01 -0.15319857525E+01  0.25838210332E+01  0.17125563426E+03  0.17120000000E+03 0.  0.
        998    1    1    2    0    0  0.19921468513E+02 -0.41762881356E+01  0.14318890179E+04  0.14320685968E+04  0.10000000000E+02 0.  1.
</event>
<event>
 5    1  0.1252945E-008  0.3797477E+03  0.7957747E-01  0.3452258E+00
         13   -1    0    0    0    0  0.00000000000E+00  0.00000000000E+00  0.14999999963E+04  0.15000000000E+04  0.10566000000E+00 0. -1.
        994   -1    0    0    0    0 -0.00000000000E+00 -0.00000000000E+00  0.11368683772E-12  0.17120000000E+03  0.17120000000E+03 0.  0.
         13    1    1    2    0    0  0.60064505705E+01  0.29909376550E+02  0.96306850684E+02  0.10102311076E+03  0.10566000000E+00 0. -1.
        994    1    1    2    0    0 -0.27193991042E+02 -0.36896563888E+02  0.11321679006E+02  0.17759079366E+03  0.17120000000E+03 0.  0.
        998    1    1    2    0    0  0.21187540471E+02  0.69871873379E+01  0.13923714666E+04  0.13925860956E+04  0.10000000000E+02 0. -1.
</event>
<event>
 5    1  0.1252945E-008  0.3842914E+03  0.7957747E-01  0.3432683E+00
         13   -1    0    0    0    0  0.00000000000E+00  0.00000000000E+00  0.14999999963E+04  0.15000000000E+04  0.10566000000E+00 0.  1.
        994   -1    0    0    0    0 -0.00000000000E+00 -0.00000000000E+00  0.11368683772E-12  0.17120000000E+03  0.17120000000E+03 0.  0.
         13    1    1    2    0    0  0.16022799989E+02 -0.78137663346E+01  0.81547525335E+02  0.83473319786E+02  0.10566000000E+00 0.  1.
        994    1    1    2    0    0 -0.11775789580E+02 -0.51300123468E+01  0.25263961745E+01  0.17169976390E+03  0.17120000000E+03 0.  0.
        998    1    1    2    0    0 -0.42470104093E+01  0.12943778681E+02  0.14159260748E+04  0.14160269163E+04  0.10000000000E+02 0.  1.
</event>
<event>
 5    1  0.1252945E-008  0.3749178E+03  0.7957747E-01  0.3473590E+00
         13   -1    0    0    0    0  0.00000000000E+00  0.00000000000E+00  0.14999999963E+04  0.15000000000E+04  0.10566000000E+00 0.  1.
        994   -1    0    0    0    0 -0.00000000000E+00 -0.00000000000E+00  0.11368683772E-12  0.17120000000E+03  0.17120000000E+03 0.  0.
         13    1    1    2    0    0 -0.11427179079E+02  0.31832362639E+02  0.39244680325E+02  0.51807681194E+02  0.10566000000E+00 0.  1.
        994    1    1    2    0    0 -0.21967222210E+02 -0.59130592214E+01  0.15406279306E+02  0.17339064728E+03  0.17120000000E+03 0.  0.
        998    1    1    2    0    0  0.33394401288E+02 -0.25919303417E+02  0.14453490366E+04  0.14460016715E+04  0.10000000000E+02 0.  1.
</event>
<event>
 5    1  0.1252945E-008  0.3843738E+03  0.7957747E-01  0.3432332E+00
         13   -1    0    0    0    0  0.00000000000E+00  0.00000000000E+00  0.14999999963E+04  0.15000000000E+04  0.10566000000E+00 0. -1.
        994   -1    0    0    0    0 -0.00000000000E+00 -0.00000000000E+00  0.11368683772E-12  0.17120000000E+03  0.17120000000E+03 0.  0.
         13    1    1    2    0    0  0.83817486205E+01 -0.11688724413E+02  0.53987971592E+02  0.55871211093E+02  0.10566000000E+00 0. -1.
        994    1    1    2    0    0 -0.59900978944E+01  0.30626374374E+01  0.20904991326E+01  0.17134488965E+03  0.17120000000E+03 0.  0.
        998    1    1    2    0    0 -0.23916507261E+01  0.86260869752E+01  0.14439215256E+04  0.14439838993E+04  0.10000000000E+02 0. -1.
</event>
<event>
 5    1  0.1252945E-008  0.3816924E+03  0.7957747E-01  0.3443822E+00
         13   -1    0    0    0    0  0.00000000000E+00  0.00000000000E+00  0.14999999963E+04  0.15000000000E+04  0.10566000000E+00 0. -1.
        994   -1    0    0    0    0 -0.00000000000E+00 -0.00000000000E+00  0.11368683772E-12  0.17120000000E+03  0.17120000000E+03 0.  0.
         13    1    1    2    0    0 -0.12935451496E+02 -0.10312287776E+01  0.24349482268E+02  0.27591625341E+02  0.10566000000E+00 0. -1.
        994    1    1    2    0    0  0.94631496864E+01  0.35249348832E+00  0.35794165692E+01  0.17149906028E+03  0.17120000000E+03 0.  0.
        998    1    1    2    0    0  0.34723018099E+01  0.67873528926E+00  0.14720710974E+04  0.14721093144E+04  0.10000000000E+02 0. -1.
</event>
<event>
 5    1  0.1252945E-008  0.3688416E+03  0.7957747E-01  0.3501231E+00
         13   -1    0    0    0    0  0.00000000000E+00  0.00000000000E+00  0.14999999963E+04  0.15000000000E+04  0.10566000000E+00 0.  1.
        994   -1    0    0    0    0 -0.00000000000E+00 -0.00000000000E+00  0.11368683772E-12  0.17120000000E+03  0.17120000000E+03 0.  0.
         13    1    1    2    0    0  0.34963744906E+02  0.22961991505E+02  0.85701774114E+02  0.95365202050E+02  0.10566000000E+00 0.  1.
        994    1    1    2    0    0 -0.20417840271E+02 -0.13613695803E+02  0.11969229417E+02  0.17336355836E+03  0.17120000000E+03 0.  0.
        998    1    1    2    0    0 -0.14545904635E+02 -0.93482957019E+01  0.14023289927E+04  0.14024712396E+04  0.10000000000E+02 0.  1.
</event>
<event>
 5    1  0.1252945E-008  0.3844182E+03  0.7957747E-01  0.3432143E+00
         13   -1    0    0    0    0  0.00000000000E+00  0.00000000000E+00  0.14999999963E+04  0.15000000000E+04  0.10566000000E+00 0.  1.
        994   -1    0    0    0    0 -0.00000000000E+00 -0.00000000000E+00  0.11368683772E-12  0.17120000000E+03  0.17120000000E+03 0.  0.
         13    1    1    2    0    0 -0.15002894740E+02  0.67404110144E+01  0.67066256433E+02  0.69053703067E+02  0.10566000000E+00 0.  1.
        994    1    1    2    0    0  0.17299137486E+02 -0.65894871230E+01  0.30491700231E+01  0.17222490800E+03  0.17120000000E+03 0.  0.
        998    1    1    2    0    0 -0.22962427464E+01 -0.15092389140E+00  0.14298845698E+04  0.14299213889E+04  0.10000000000E+02 0.  1.
</event>
<event>
 5    1  0.1252945E-008  0.3835357E+03  0.7957747E-01  0.3435906E+00
         13   -1    0    0    0    0  0.00000000000E+00  0.00000000000E+00  0.14999999963E+04  0.15000000000E+04  0.10566000000E+00 0.  1.
        994   -1    0    0    0    0 -0.00000000000E+00 -0.00000000000E+00  0.11368683772E-12  0.17120000000E+03  0.17120000000E+03 0.  0.
         13    1    1    2    0    0  0.79116582995E+01  0.24869291955E+02  0.14255017015E+03  0.14491941966E+03  0.10566000000E+00 0.  1.
        994    1    1    2    0    0 -0.10422582513E+02 -0.14360866960E+02  0.33999774335E+01  0.17215070308E+03  0.17120000000E+03 0.  0.
        998    1    1    2    0    0  0.25109242140E+01 -0.10508424995E+02  0.13540498487E+04  0.13541298773E+04  0.10000000000E+02 0.  1.
</event>
<event>
 5    1  0.1252945E-008  0.3827423E+03  0.7957747E-01  0.3439304E+00
         13   -1    0    0    0    0  0.00000000000E+00  0.00000000000E+00  0.14999999963E+04  0.15000000000E+04  0.10566000000E+00 0.  1.
        994   -1    0    0    0    0 -0.00000000000E+00 -0.00000000000E+00  0.11368683772E-12  0.17120000000E+03  0.17120000000E+03 0.  0.
         13    1    1    2    0    0  0.16289132185E+02 -0.13573880799E+02  0.77993292085E+02  0.80824197129E+02  0.10566000000E+00 0.  1.
        994    1    1    2    0    0 -0.10278906453E+02  0.18750813676E+02  0.42714826492E+01  0.17258312344E+03  0.17120000000E+03 0.  0.
        998    1    1    2    0    0 -0.60102257322E+01 -0.51769328777E+01  0.14177352215E+04  0.14177926794E+04  0.10000000000E+02 0.  1.
</event>
<event>
 5    1  0.1252945E-008  0.3760583E+03  0.7957747E-01  0.3468503E+00
         13   -1    0    0    0    0  0.00000000000E+00  0.00000000000E+00  0.14999999963E+04  0.15000000000E+04  0.10566000000E+00 0. -1.
        994   -1    0    0    0    0 -0.00000000000E+00 -0.00000000000E+00  0.11368683772E-12  0.17120000000E+03  0.17120000000E+03 0.  0.
         13    1    1    2    0    0  0.22790196116E+02 -0.13547412082E+02  0.18374577910E+02  0.32257738460E+02  0.10566000000E+00 0. -1.
        994    1    1    2    0    0 -0.27490626313E+02  0.12309952611E+02  0.17426208576E+02  0.17470083633E+03  0.17120000000E+03 0.  0.
        998    1    1    2    0    0  0.47004301976E+01  0.12374594714E+01  0.14641992098E+04  0.14642414252E+04  0.10000000000E+02 0. -1.
</event>
<event>
 5    1  0.1344481E-008  0.3852892E+03  0.7957747E-01  0.3428447E+00
         13   -1    0    0    0    0  0.00000000000E+00  0.00000000000E+00  0.14999999963E+04  0.15000000000E+04  0.10566000000E+00 0.  1.
        994   -1    0    0    0    0 -0.00000000000E+00 -0.00000000000E+00  0.11368683772E-12  0.17120000000E+03  0.17120000000E+03 0.  0.
         13    1    1    2    0    0 -0.29093299871E+01  0.11970793801E+02  0.52415812812E+02  0.53844151976E+02  0.10566000000E+00 0.  1.
        994    1    1    2    0    0  0.12935225182E+01 -0.39602464937E+01  0.15436429631E+01  0.17125764096E+03  0.17120000000E+03 0.  0.
        998    1    1    2    0    0  0.16158074689E+01 -0.80105473069E+01  0.14460405405E+04  0.14460982071E+04  0.10000000000E+02 0.  1.
</event>
<event>
 5    1  0.1252945E-008  0.3824977E+03  0.7957747E-01  0.3440354E+00
         13   -1    0    0    0    0  0.00000000000E+00  0.00000000000E+00  0.14999999963E+04  0.15000000000E+04  0.10566000000E+00 0.  1.
        994   -1    0    0    0    0 -0.00000000000E+00 -0.00000000000E+00  0.11368683772E-12  0.17120000000E+03  0.17120000000E+03 0.  0.
         13    1    1    2    0    0 -0.19604501979E+02  0.30909797345E+02  0.18216221102E+03  0.18580321406E+03  0.10566000000E+00 0.  1.
        994    1    1    2    0    0  0.26563147227E+02 -0.44379733161E+02  0.11798424261E+02  0.17923114774E+03  0.17120000000E+03 0.  0.
        998    1    1    2    0    0 -0.69586452475E+01  0.13469935816E+02  0.13060393610E+04  0.13061656382E+04  0.10000000000E+02 0.  1.
</event>
<event>
 5    1  0.1252945E-008  0.3807299E+03  0.7957747E-01  0.3447986E+00
         13   -1    0    0    0    0  0.00000000000E+00  0.00000000000E+00  0.14999999963E+04  0.15000000000E+04  0.10566000000E+00 0.  1.
        994   -1    0    0    0    0 -0.00000000000E+00 -0.00000000000E+00  0.11368683772E-12  0.17120000000E+03  0.17120000000E+03 0.  0.
         13    1    1    2    0    0  0.41670367235E+02 -0.11989954246E+01  0.23731839085E+03  0.24095204273E+03  0.10566000000E+00 0.  1.
        994    1    1    2    0    0 -0.19899216299E+02  0.47528824078E+01  0.51622528733E+01  0.17249538416E+03  0.17120000000E+03 0.  0.
        998    1    1    2    0    0 -0.21771150936E+02 -0.35538869832E+01  0.12575193526E+04  0.12577525731E+04  0.10000000000E+02 0.  1.
</event>
<event>
 5    1  0.1252945E-008  0.3834739E+03  0.7957747E-01  0.3436171E+00
         13   -1    0    0    0    0  0.00000000000E+00  0.00000000000E+00  0.14999999963E+04  0.15000000000E+04  0.10566000000E+00 0.  1.
        994   -1    0    0    0    0 -0.00000000000E+00 -0.00000000000E+00  0.11368683772E-12  0.17120000000E+03  0.17120000000E+03 0.  0.
         13    1    1    2    0    0  0.47589953523E+01  0.15239689582E+02  0.52527119944E+02  0.54899960555E+02  0.10566000000E+00 0.  1.
        994    1    1    2    0    0 -0.14580203450E+02 -0.72566743176E+01  0.32668487422E+01  0.17200393587E+03  0.17120000000E+03 0.  0.
        998    1    1    2    0    0  0.98212080972E+01 -0.79830152640E+01  0.14442060276E+04  0.14442961036E+04  0.10000000000E+02 0.  1.
</event>
<event>
 5    1  0.1252945E-008  0.3830182E+03  0.7957747E-01  0.3438121E+00
         13   -1    0    0    0    0  0.00000000000E+00  0.00000000000E+00  0.14999999963E+04  0.15000000000E+04  0.10566000000E+00 0.  1.
        994   -1    0    0    0    0 -0.00000000000E+00 -0.00000000000E+00  0.11368683772E-12  0.17120000000E+03  0.17120000000E+03 0.  0.
         13    1    1    2    0    0 -0.14857600598E+02 -0.31252627906E+01  0.42285348523E+02  0.44928581402E+02  0.10566000000E+00 0.  1.
        994    1    1    2    0    0  0.16606438568E+02 -0.40548821489E+01  0.35850562201E+01  0.17208866464E+03  0.17120000000E+03 0.  0.
        998    1    1    2    0    0 -0.17488379695E+01  0.71801449394E+01  0.14541295915E+04  0.14541827540E+04  0.10000000000E+02 0.  1.
</event>
<event>
 5    1  0.1252945E-008  0.3769985E+03  0.7957747E-01  0.3464333E+00
         13   -1    0    0    0    0  0.00000000000E+00  0.00000000000E+00  0.14999999963E+04  0.15000000000E+04  0.10566000000E+00 0.  1.
        994   -1    0    0    0    0 -0.00000000000E+00 -0.00000000000E+00  0.11368683772E-12  0.17120000000E+03  0.17120000000E+03 0.  0.
         13    1    1    2    0    0 -0.61554404660E+02  0.64057366949E+02  0.37796178577E+03  0.38826204252E+03  0.10566000000E+00 0.  1.
        994    1    1    2    0    0  0.24731200897E+02  0.24473792928E+02  0.19039455859E+02  0.17573428726E+03  0.17120000000E+03 0.  0.
        998    1    1    2    0    0  0.36823203763E+02 -0.88531159877E+02  0.11029987546E+04  0.11072036702E+04  0.10000000000E+02 0.  1.
</event>
<event>
 5    1  0.1252945E-008  0.3801477E+03  0.7957747E-01  0.3450515E+00
         13   -1    0    0    0    0  0.00000000000E+00  0.00000000000E+00  0.14999999963E+04  0.15000000000E+04  0.10566000000E+00 0. -1.
        994   -1    0    0    0    0 -0.00000000000E+00 -0.00000000000E+00  0.11368683772E-12  0.17120000000E+03  0.17120000000E+03 0.  0.
         13    1    1    2    0    0 -0.14379748404E+02 -0.17979237297E+01  0.24780593787E+02  0.28707119088E+02  0.10566000000E+00 0. -1.
        994    1    1    2    0    0  0.25270539554E+01 -0.27365292204E+01  0.41049547985E+01  0.17128971145E+03  0.17120000000E+03 0.  0.
        998    1    1    2    0    0  0.11852694448E+02  0.45344529500E+01  0.14711144477E+04  0.14712031695E+04  0.10000000000E+02 0. -1.
</event>
<event>
 5    1  0.1252945E-008  0.3826926E+03  0.7957747E-01  0.3439517E+00
         13   -1    0    0    0    0  0.00000000000E+00  0.00000000000E+00  0.14999999963E+04  0.15000000000E+04  0.10566000000E+00 0.  1.
        994   -1    0    0    0    0 -0.00000000000E+00 -0.00000000000E+00  0.11368683772E-12  0.17120000000E+03  0.17120000000E+03 0.  0.
         13    1    1    2    0    0  0.18791737130E+02 -0.32234155102E+01  0.65170811831E+02  0.67902619027E+02  0.10566000000E+00 0.  1.
        994    1    1    2    0    0 -0.10904747030E+02 -0.25375570699E+01  0.31955093569E+01  0.17159546609E+03  0.17120000000E+03 0.  0.
        998    1    1    2    0    0 -0.78869900999E+01  0.57609725801E+01  0.14316336751E+04  0.14317019149E+04  0.10000000000E+02 0.  1.
</event>
<event>
 5    1  0.2264614E-008  0.3861527E+03  0.7957747E-01  0.3424798E+00
         13   -1    0    0    0    0  0.00000000000E+00  0.00000000000E+00  0.14999999963E+04  0.15000000000E+04  0.10566000000E+00 0.  1.
        994   -1    0    0    0    0 -0.00000000000E+00 -0.00000000000E+00  0.11368683772E-12  0.17120000000E+03  0.17120000000E+03 0.  0.
         13    1    1    2    0    0 -0.10238858848E+02 -0.61409875964E+01  0.70308062502E+02  0.71314660316E+02  0.10566000000E+00 0.  1.
        994    1    1    2    0    0  0.26014165005E+01  0.40733360287E+01  0.11354785842E+01  0.17127197303E+03  0.17120000000E+03 0.  0.
        998    1    1    2    0    0  0.76374423471E+01  0.20676515677E+01  0.14285564552E+04  0.14286133667E+04  0.10000000000E+02 0.  1.
</event>
<event>
 5    1  0.1252945E-008  0.3805403E+03  0.7957747E-01  0.3448809E+00
         13   -1    0    0    0    0  0.00000000000E+00  0.00000000000E+00  0.14999999963E+04  0.15000000000E+04  0.10566000000E+00 0. -1.
        994   -1    0    0    0    0 -0.00000000000E+00 -0.00000000000E+00  0.11368683772E-12  0.17120000000E+03  0.17120000000E+03 0.  0.
         13    1    1    2    0    0  0.27247457867E+02  0.31299943716E+02  0.20450210349E+03  0.20867015104E+03  0.10566000000E+00 0. -1.
        994    1    1    2    0    0 -0.19318333634E+02 -0.29002572632E+02  0.79235019558E+01  0.17489016301E+03  0.17120000000E+03 0.  0.
        998    1    1    2    0    0 -0.79291242328E+01 -0.22973710839E+01  0.12875743908E+04  0.12876396860E+04  0.10000000000E+02 0.  0.
</event>
<event>
 5    1  0.1252945E-008  0.3846356E+03  0.7957747E-01  0.3431219E+00
         13   -1    0    0    0    0  0.00000000000E+00  0.00000000000E+00  0.14999999963E+04  0.15000000000E+04  0.10566000000E+00 0. -1.
        994   -1    0    0    0    0 -0.00000000000E+00 -0.00000000000E+00  0.11368683772E-12  0.17120000000E+03  0.17120000000E+03 0.  0.
         13    1    1    2    0    0  0.42124118949E+01 -0.11682691821E+02  0.41851584354E+02  0.43655423250E+02  0.10566000000E+00 0. -1.
        994    1    1    2    0    0 -0.57777733362E+01  0.91659105626E+01  0.21977929171E+01  0.17155659962E+03  0.17120000000E+03 0.  0.
        998    1    1    2    0    0  0.15653614413E+01  0.25167812586E+01  0.14559506190E+04  0.14559879771E+04  0.10000000000E+02 0. -1.
</event>
<event>
 5    1  0.1252945E-008  0.3757542E+03  0.7957747E-01  0.3469857E+00
         13   -1    0    0    0    0  0.00000000000E+00  0.00000000000E+00  0.14999999963E+04  0.15000000000E+04  0.10566000000E+00 0. -1.
        994   -1    0    0    0    0 -0.00000000000E+00 -0.00000000000E+00  0.11368683772E-12  0.17120000000E+03  0.17120000000E+03 0.  0.
         13    1    1    2    0    0  0.72066581532E+02 -0.72250418590E+02  0.53022966535E+03  0.53996039146E+03  0.10566000000E+00 0. -1.
        994    1    1    2    0    0 -0.57730977310E+02  0.86021704189E+02  0.43597330056E+02  0.20479933233E+03  0.17120000000E+03 0.  0.
        998    1    1    2    0    0 -0.14335604222E+02 -0.13771285599E+02  0.92617300087E+03  0.92644027622E+03  0.10000000000E+02 0.  1.
</event>
<event>
 5    1  0.1252945E-008  0.2951035E+03  0.7957747E-01  0.3931608E+00
         13   -1    0    0    0    0  0.00000000000E+00  0.00000000000E+00  0.14999999963E+04  0.15000000000E+04  0.10566000000E+00 0.  1.
        994   -1    0    0    0    0 -0.00000000000E+00 -0.00000000000E+00  0.11368683772E-12  0.17120000000E+03  0.17120000000E+03 0.  0.
         13    1    1    2    0    0 -0.17919748860E+02  0.16531768283E+03  0.82337118764E+03  0.83999474847E+03  0.10566000000E+00 0.  1.
        994    1    1    2    0    0 -0.37544130685E+01 -0.47089690987E+02  0.38428819949E+02  0.18170786669E+03  0.17120000000E+03 0.  0.
        998    1    1    2    0    0  0.21674161929E+02 -0.11822799184E+03  0.63819998869E+03  0.64949738484E+03  0.10000000000E+02 0.  1.
</event>
<event>
 5    1  0.1252945E-008  0.3844811E+03  0.7957747E-01  0.3431876E+00
         13   -1    0    0    0    0  0.00000000000E+00  0.00000000000E+00  0.14999999963E+04  0.15000000000E+04  0.10566000000E+00 0. -1.
        994   -1    0    0    0    0 -0.00000000000E+00 -0.00000000000E+00  0.11368683772E-12  0.17120000000E+03  0.17120000000E+03 0.  0.
         13    1    1    2    0    0  0.10361696656E+02  0.24106285189E+01  0.31813955268E+02  0.33545712115E+02  0.10566000000E+00 0. -1.
        994    1    1    2    0    0  0.62765064084E+01  0.16762060360E+02  0.29440237974E+01  0.17215826578E+03  0.17120000000E+03 0.  0.
        998    1    1    2    0    0 -0.16638203064E+02 -0.19172688879E+02  0.14652420172E+04  0.14654960221E+04  0.10000000000E+02 0. -1.
</event>
<event>
 5    1  0.1252945E-008  0.3818247E+03  0.7957747E-01  0.3443252E+00
         13   -1    0    0    0    0  0.00000000000E+00  0.00000000000E+00  0.14999999963E+04  0.15000000000E+04  0.10566000000E+00 0. -1.
        994   -1    0    0    0    0 -0.00000000000E+00 -0.00000000000E+00  0.11368683772E-12  0.17120000000E+03  0.17120000000E+03 0.  0.
         13    1    1    2    0    0 -0.24978722213E+02 -0.25484654680E+01  0.96918421920E+02  0.10011804488E+03  0.10566000000E+00 0. -1.
        994    1    1    2    0    0  0.15490204626E+02  0.19168628919E+01  0.40248202385E+01  0.17195714577E+03  0.17120000000E+03 0.  0.
        998    1    1    2    0    0  0.94885175872E+01  0.63160257613E+00  0.13990567541E+04  0.13991248093E+04  0.10000000000E+02 0. -1.
</event>
<event>
 5    1  0.1252945E-008  0.3770686E+03  0.7957747E-01  0.3464023E+00
         13   -1    0    0    0    0  0.00000000000E+00  0.00000000000E+00  0.14999999963E+04  0.15000000000E+04  0.10566000000E+00 0.  1.
        994   -1    0    0    0    0 -0.00000000000E+00 -0.00000000000E+00  0.11368683772E-12  0.17120000000E+03  0.17120000000E+03 0.  0.
         13    1    1    2    0    0 -0.31392565084E+02  0.34812237742E+02  0.16744406666E+03  0.17388188998E+03  0.10566000000E+00 0.  1.
        994    1    1    2    0    0  0.48596051292E+02 -0.27289418587E+02  0.16178846239E+02  0.18076914458E+03  0.17120000000E+03 0.  0.
        998    1    1    2    0    0 -0.17203486209E+02 -0.75228191549E+01  0.13163770834E+04  0.13165489654E+04  0.10000000000E+02 0.  1.
</event>
<event>
 5    1  0.1252945E-008  0.3827252E+03  0.7957747E-01  0.3439377E+00
         13   -1    0    0    0    0  0.00000000000E+00  0.00000000000E+00  0.14999999963E+04  0.15000000000E+04  0.10566000000E+00 0. -1.
        994   -1    0    0    0    0 -0.00000000000E+00 -0.00000000000E+00  0.11368683772E-12  0.17120000000E+03  0.17120000000E+03 0.  0.
         13    1    1    2    0    0 -0.14768840985E+02 -0.77322844025E+02  0.38852155119E+03  0.39641638182E+03  0.10566000000E+00 0. -1.
        994    1    1    2    0    0  0.98520804504E+01  0.14254442861E+03  0.73637918953E+02  0.23483602944E+03  0.17120000000E+03 0.  0.
        998    1    1    2    0    0  0.49167605351E+01 -0.65221584584E+02  0.10378405261E+04  0.10399475887E+04  0.10000000000E+02 0. -1.
</event>
<event>
 5    1  0.1252945E-008  0.3840291E+03  0.7957747E-01  0.3433800E+00
         13   -1    0    0    0    0  0.00000000000E+00  0.00000000000E+00  0.14999999963E+04  0.15000000000E+04  0.10566000000E+00 0.  1.
        994   -1    0    0    0    0 -0.00000000000E+00 -0.00000000000E+00  0.11368683772E-12  0.17120000000E+03  0.17120000000E+03 0.  0.
         13    1    1    2    0    0  0.16315334695E+02 -0.37366830093E+01  0.66379671344E+02  0.68457467656E+02  0.10566000000E+00 0.  1.
        994    1    1    2    0    0 -0.93968474245E+01  0.17671312556E+01  0.24146048969E+01  0.17148380043E+03  0.17120000000E+03 0.  0.
        998    1    1    2    0    0 -0.69184872705E+01  0.19695517537E+01  0.14312057200E+04  0.14312587319E+04  0.10000000000E+02 0.  1.
</event>
<event>
 5    1  0.1252945E-008  0.3857644E+03  0.7957747E-01  0.3426437E+00
         13   -1    0    0    0    0  0.00000000000E+00  0.00000000000E+00  0.14999999963E+04  0.15000000000E+04  0.10566000000E+00 0.  1.
        994   -1    0    0    0    0 -0.00000000000E+00 -0.00000000000E+00  0.11368683772E-12  0.17120000000E+03  0.17120000000E+03 0.  0.
         13    1    1    2    0    0  0.48407117461E+01  0.95271143434E+01  0.45650640033E+02  0.46884864267E+02  0.10566000000E+00 0.  1.
        994    1    1    2    0    0 -0.19062281193E+01 -0.84908509904E+01  0.14995533099E+01  0.17142758505E+03  0.17120000000E+03 0.  0.
        998    1    1    2    0    0 -0.29344836268E+01 -0.10362633530E+01  0.14528498029E+04  0.14528875507E+04  0.10000000000E+02 0.  1.
</event>
<event>
 5    1  0.1252945E-008  0.3860878E+03  0.7957747E-01  0.3425072E+00
         13   -1    0    0    0    0  0.00000000000E+00  0.00000000000E+00  0.14999999963E+04  0.15000000000E+04  0.10566000000E+00 0. -1.
        994   -1    0    0    0    0 -0.00000000000E+00 -0.00000000000E+00  0.11368683772E-12  0.17120000000E+03  0.17120000000E+03 0.  0.
         13    1    1    2    0    0  0.62881084724E+01  0.98177457357E+01  0.61127250080E+02  0.62229256028E+02  0.10566000000E+00 0. -1.
        994    1    1    2    0    0 -0.37120533141E+01 -0.12036655977E+02  0.16111238495E+01  0.17167031236E+03  0.17120000000E+03 0.  0.
        998    1    1    2    0    0 -0.25760551582E+01  0.22189102413E+01  0.14372616223E+04  0.14373004316E+04  0.10000000000E+02 0. -1.
</event>
<event>
 5    1  0.1252945E-008  0.3853116E+03  0.7957747E-01  0.3428352E+00
         13   -1    0    0    0    0  0.00000000000E+00  0.00000000000E+00  0.14999999963E+04  0.15000000000E+04  0.10566000000E+00 0. -1.
        994   -1    0    0    0    0 -0.00000000000E+00 -0.00000000000E+00  0.11368683772E-12  0.17120000000E+03  0.17120000000E+03 0.  0.
         13    1    1    2    0    0 -0.13910635459E+01 -0.13450270846E+02  0.73670272688E+02  0.74901035277E+02  0.10566000000E+00 0. -1.
        994    1    1    2    0    0  0.38184208868E+02 -0.15985422613E+02  0.71255187864E+01  0.17627756681E+03  0.17120000000E+03 0.  0.
        998    1    1    2    0    0 -0.36793145322E+02  0.29435693460E+02  0.14192042048E+04  0.14200213979E+04  0.10000000000E+02 0. -1.
</event>
<event>
 5    1  0.1252945E-008  0.3841218E+03  0.7957747E-01  0.3433405E+00
         13   -1    0    0    0    0  0.00000000000E+00  0.00000000000E+00  0.14999999963E+04  0.15000000000E+04  0.10566000000E+00 0. -1.
        994   -1    0    0    0    0 -0.00000000000E+00 -0.00000000000E+00  0.11368683772E-12  0.17120000000E+03  0.17120000000E+03 0.  0.
         13    1    1    2    0    0 -0.72355723515E+00  0.10431199466E+02  0.26131733025E+02  0.28146262492E+02  0.10566000000E+00 0. -1.
        994    1    1    2    0    0 -0.29234935142E+01 -0.46336853610E+01  0.21657753189E+01  0.17130133811E+03  0.17120000000E+03 0.  0.
        998    1    1    2    0    0  0.36470507494E+01 -0.57975141052E+01  0.14717024879E+04  0.14717523994E+04  0.10000000000E+02 0. -1.
</event>
<event>
 5    1  0.1252945E-008  0.3821342E+03  0.7957747E-01  0.3441918E+00
         13   -1    0    0    0    0  0.00000000000E+00  0.00000000000E+00  0.14999999963E+04  0.15000000000E+04  0.10566000000E+00 0. -1.
        994   -1    0    0    0    0 -0.00000000000E+00 -0.00000000000E+00  0.11368683772E-12  0.17120000000E+03  0.17120000000E+03 0.  0.
         13    1    1    2    0    0 -0.10696989835E+02 -0.62679267028E+02  0.36612357965E+03  0.37160409422E+03  0.10566000000E+00 0. -1.
        994    1    1    2    0    0  0.35581705513E+02  0.86485243960E+02  0.32656090634E+02  0.19779184878E+03  0.17120000000E+03 0.  0.
        998    1    1    2    0    0 -0.24884715678E+02 -0.23805976932E+02  0.11012203260E+04  0.11018040570E+04  0.10000000000E+02 0. -1.
</event>
<event>
 5    1  0.1252945E-008  0.3761517E+03  0.7957747E-01  0.3468088E+00
         13   -1    0    0    0    0  0.00000000000E+00  0.00000000000E+00  0.14999999963E+04  0.15000000000E+04  0.10566000000E+00 0. -1.
        994   -1    0    0    0    0 -0.00000000000E+00 -0.00000000000E+00  0.11368683772E-12  0.17120000000E+03  0.17120000000E+03 0.  0.
         13    1    1    2    0    0 -0.63764371716E+02  0.13696870137E+02  0.28526252899E+03  0.29262300142E+03  0.10566000000E+00 0. -1.
        994    1    1    2    0    0  0.65123210086E+02 -0.14232715495E+01  0.20593593742E+02  0.18432741060E+03  0.17120000000E+03 0.  0.
        998    1    1    2    0    0 -0.13588383700E+01 -0.12273598587E+02  0.11941438735E+04  0.11942495880E+04  0.10000000000E+02 0. -1.
</event>
<event>
 5    1  0.1252945E-008  0.3817296E+03  0.7957747E-01  0.3443662E+00
         13   -1    0    0    0    0  0.00000000000E+00  0.00000000000E+00  0.14999999963E+04  0.15000000000E+04  0.10566000000E+00 0. -1.
        994   -1    0    0    0    0 -0.00000000000E+00 -0.00000000000E+00  0.11368683772E-12  0.17120000000E+03  0.17120000000E+03 0.  0.
         13    1    1    2    0    0 -0.77147128384E+01  0.16636789932E+02  0.51313826284E+02  0.54492380251E+02  0.10566000000E+00 0. -1.
        994    1    1    2    0    0 -0.11686144024E+01 -0.90952106591E+01  0.35421242809E+01  0.17148199661E+03  0.17120000000E+03 0.  0.
        998    1    1    2    0    0  0.88833272408E+01 -0.75415792726E+01  0.14451440457E+04  0.14452256231E+04  0.10000000000E+02 0. -1.
</event>
<event>
 5    1  0.1252945E-008  0.3793880E+03  0.7957747E-01  0.3453828E+00
         13   -1    0    0    0    0  0.00000000000E+00  0.00000000000E+00  0.14999999963E+04  0.15000000000E+04  0.10566000000E+00 0. -1.
        994   -1    0    0    0    0 -0.00000000000E+00 -0.00000000000E+00  0.11368683772E-12  0.17120000000E+03  0.17120000000E+03 0.  0.
         13    1    1    2    0    0  0.24511582075E+02  0.18945330272E+02  0.10323559028E+03  0.10778377178E+03  0.10566000000E+00 0. -1.
        994    1    1    2    0    0 -0.25263377589E+02 -0.81001848835E+01  0.68036513787E+01  0.17337699073E+03  0.17120000000E+03 0.  0.
        998    1    1    2    0    0  0.75179551456E+00 -0.10845145389E+02  0.13899607546E+04  0.13900392375E+04  0.10000000000E+02 0. -1.
</event>
<event>
 5    1  0.1252945E-008  0.3817565E+03  0.7957747E-01  0.3443546E+00
         13   -1    0    0    0    0  0.00000000000E+00  0.00000000000E+00  0.14999999963E+04  0.15000000000E+04  0.10566000000E+00 0.  1.
        994   -1    0    0    0    0 -0.00000000000E+00 -0.00000000000E+00  0.11368683772E-12  0.17120000000E+03  0.17120000000E+03 0.  0.
         13    1    1    2    0    0 -0.20546719975E+02 -0.10415337620E+02  0.88827210698E+02  0.91765633458E+02  0.10566000000E+00 0.  1.
        994    1    1    2    0    0 -0.32205542188E+01 -0.11817073074E+01  0.32882184272E+01  0.17126593585E+03  0.17120000000E+03 0.  0.
        998    1    1    2    0    0  0.23767274194E+02  0.11597044928E+02  0.14078845672E+04  0.14081684307E+04  0.10000000000E+02 0.  1.
</event>
<event>
 5    1  0.1252945E-008  0.3830897E+03  0.7957747E-01  0.3437814E+00
         13   -1    0    0    0    0  0.00000000000E+00  0.00000000000E+00  0.14999999963E+04  0.15000000000E+04  0.10566000000E+00 0.  1.
        994   -1    0    0    0    0 -0.00000000000E+00 -0.00000000000E+00  0.11368683772E-12  0.17120000000E+03  0.17120000000E+03 0.  0.
         13    1    1    2    0    0 -0.12126481789E+02  0.10480941747E+02  0.49093986997E+02  0.51644287426E+02  0.10566000000E+00 0.  1.
        994    1    1    2    0    0  0.12746929876E+02 -0.79196978510E+00  0.31214757886E+01  0.17170409153E+03  0.17120000000E+03 0.  0.
        998    1    1    2    0    0 -0.62044808659E+00 -0.96889719623E+01  0.14477845335E+04  0.14478516210E+04  0.10000000000E+02 0.  1.
</event>
<event>
 5    1  0.1252945E-008  0.3809369E+03  0.7957747E-01  0.3447089E+00
         13   -1    0    0    0    0  0.00000000000E+00  0.00000000000E+00  0.14999999963E+04  0.15000000000E+04  0.10566000000E+00 0.  1.
        994   -1    0    0    0    0 -0.00000000000E+00 -0.00000000000E+00  0.11368683772E-12  0.17120000000E+03  0.17120000000E+03 0.  0.
         13    1    1    2    0    0 -0.91754177445E+01 -0.81623523384E+01  0.18362651309E+02  0.22090957734E+02  0.10566000000E+00 0.  1.
        994    1    1    2    0    0  0.20328112827E+02  0.11462878792E+02  0.54781157796E+01  0.17287012325E+03  0.17120000000E+03 0.  0.
        998    1    1    2    0    0 -0.11152695082E+02 -0.33005264540E+01  0.14761592292E+04  0.14762389190E+04  0.10000000000E+02 0.  1.
</event>
<event>
 5    1  0.1252945E-008  0.3716221E+03  0.7957747E-01  0.3488469E+00
         13   -1    0    0    0    0  0.00000000000E+00  0.00000000000E+00  0.14999999963E+04  0.15000000000E+04  0.10566000000E+00 0.  1.
        994   -1    0    0    0    0 -0.00000000000E+00 -0.00000000000E+00  0.11368683772E-12  0.17120000000E+03  0.17120000000E+03 0.  0.
         13    1    1    2    0    0  0.19133400223E+02 -0.13436537961E+02  0.18922315754E+02  0.30078110878E+02  0.10566000000E+00 0.  1.
        994    1    1    2    0    0 -0.15573757558E+02 -0.26003008721E+02  0.15035983243E+02  0.17451137264E+03  0.17120000000E+03 0.  0.
        998    1    1    2    0    0 -0.35596426654E+01  0.39439546682E+02  0.14660416973E+04  0.14666105165E+04  0.10000000000E+02 0.  1.
</event>
<event>
 5    1  0.1252945E-008  0.2983079E+03  0.7957747E-01  0.3908173E+00
         13   -1    0    0    0    0  0.00000000000E+00  0.00000000000E+00  0.14999999963E+04  0.15000000000E+04  0.10566000000E+00 0.  1.
        994   -1    0    0    0    0 -0.00000000000E+00 -0.00000000000E+00  0.11368683772E-12  0.17120000000E+03  0.17120000000E+03 0.  0.
         13    1    1    2    0    0  0.17607424161E+03  0.28456949080E+02  0.67239141205E+03  0.69564513847E+03  0.10566000000E+00 0.  1.
        994    1    1    2    0    0 -0.15073536433E+03 -0.34615965400E+02  0.10684991418E+03  0.25425530335E+03  0.17120000000E+03 0.  0.
        998    1    1    2    0    0 -0.25338877281E+02  0.61590163194E+01  0.72075867005E+03  0.72129955818E+03  0.10000000000E+02 0. -1.
</event>
<event>
 5    1  0.1252945E-008  0.3850952E+03  0.7957747E-01  0.3429269E+00
         13   -1    0    0    0    0  0.00000000000E+00  0.00000000000E+00  0.14999999963E+04  0.15000000000E+04  0.10566000000E+00 0. -1.
        994   -1    0    0    0    0 -0.00000000000E+00 -0.00000000000E+00  0.11368683772E-12  0.17120000000E+03  0.17120000000E+03 0.  0.
         13    1    1    2    0    0  0.12145092555E+02 -0.61167910211E+01  0.56516442931E+02  0.58129492438E+02  0.10566000000E+00 0. -1.
        994    1    1    2    0    0 -0.10974783312E+02  0.10888218317E+02  0.23690329515E+01  0.17191291832E+03  0.17120000000E+03 0.  0.
        998    1    1    2    0    0 -0.11703092429E+01 -0.47714272963E+01  0.14411145204E+04  0.14411575892E+04  0.10000000000E+02 0. -1.
</event>
<event>
 5    1  0.1252945E-008  0.3839183E+03  0.7957747E-01  0.3434273E+00
         13   -1    0    0    0    0  0.00000000000E+00  0.00000000000E+00  0.14999999963E+04  0.15000000000E+04  0.10566000000E+00 0.  1.
        994   -1    0    0    0    0 -0.00000000000E+00 -0.00000000000E+00  0.11368683772E-12  0.17120000000E+03  0.17120000000E+03 0.  0.
         13    1    1    2    0    0  0.95056957041E+01 -0.61963819320E+01  0.29147174615E+02  0.31278144957E+02  0.10566000000E+00 0.  1.
        994    1    1    2    0    0 -0.70596774412E+01  0.20986624196E+01  0.23471911321E+01  0.17137442264E+03  0.17120000000E+03 0.  0.
        998    1    1    2    0    0 -0.24460182629E+01  0.40977195124E+01  0.14685056305E+04  0.14685474324E+04  0.10000000000E+02 0.  1.
</event>
<event>
 5    1  0.1252945E-008  0.3844348E+03  0.7957747E-01  0.3432073E+00
         13   -1    0    0    0    0  0.00000000000E+00  0.00000000000E+00  0.14999999963E+04  0.15000000000E+04  0.10566000000E+00 0. -1.
        994   -1    0    0    0    0 -0.00000000000E+00 -0.00000000000E+00  0.11368683772E-12  0.17120000000E+03  0.17120000000E+03 0.  0.
         13    1    1    2    0    0 -0.10742652591E+01  0.22672482257E+02  0.12998360049E+03  0.13195053262E+03  0.10566000000E+00 0. -1.
        994    1    1    2    0    0 -0.67060363686E+00 -0.18171129235E+02  0.30011291494E+01  0.17218910077E+03  0.17120000000E+03 0.  0.
        998    1    1    2    0    0  0.17448688959E+01 -0.45013530215E+01  0.13670152666E+04  0.13670603666E+04  0.10000000000E+02 0. -1.
</event>
<event>
 5    1  0.1252945E-008  0.3788426E+03  0.7957747E-01  0.3456214E+00
         13   -1    0    0    0    0  0.00000000000E+00  0.00000000000E+00  0.14999999963E+04  0.15000000000E+04  0.10566000000E+00 0. -1.
        994   -1    0    0    0    0 -0.00000000000E+00 -0.00000000000E+00  0.11368683772E-12  0.17120000000E+03  0.17120000000E+03 0.  0.
         13    1    1    2    0    0 -0.28373395112E+01  0.30508552809E+02  0.12445507031E+03  0.12817136178E+03  0.10566000000E+00 0. -1.
        994    1    1    2    0    0  0.59952198003E+02  0.26202977865E+02  0.19220869977E+02  0.18428169724E+03  0.17120000000E+03 0.  0.
        998    1    1    2    0    0 -0.57114858492E+02 -0.56711530674E+02  0.13563240560E+04  0.13587469410E+04  0.10000000000E+02 0. -1.
</event>
<event>
 5    1  0.1252945E-008  0.3829439E+03  0.7957747E-01  0.3438439E+00
         13   -1    0    0    0    0  0.00000000000E+00  0.00000000000E+00  0.14999999963E+04  0.15000000000E+04  0.10566000000E+00 0.  1.
        994   -1    0    0    0    0 -0.00000000000E+00 -0.00000000000E+00  0.11368683772E-12  0.17120000000E+03  0.17120000000E+03 0.  0.
         13    1    1    2    0    0  0.30413822437E+02 -0.41717597156E+02  0.26270519632E+03  0.26773006900E+03  0.10566000000E+00 0.  1.
        994    1    1    2    0    0 -0.21236345900E+02  0.11223604874E+03  0.47124664338E+02  0.21113523394E+03  0.17120000000E+03 0.  0.
        998    1    1    2    0    0 -0.91774765371E+01 -0.70518451581E+02  0.11901701356E+04  0.11923346971E+04  0.10000000000E+02 0.  1.
</event>
<event>
 5    1  0.1252945E-008  0.3433909E+03  0.7957747E-01  0.3627896E+00
         13   -1    0    0    0    0  0.00000000000E+00  0.00000000000E+00  0.14999999963E+04  0.15000000000E+04  0.10566000000E+00 0.  1.
        994   -1    0    0    0    0 -0.00000000000E+00 -0.00000000000E+00  0.11368683772E-12  0.17120000000E+03  0.17120000000E+03 0.  0.
         13    1    1    2    0    0 -0.37227856040E+02  0.21998202821E+03  0.98941253052E+03  0.10142559700E+04  0.10566000000E+00 0.  1.
        994    1    1    2    0    0  0.43693383772E+02 -0.17968708449E+03  0.14865785357E+03  0.29258359070E+03  0.17120000000E+03 0.  0.
        998    1    1    2    0    0 -0.64655277324E+01 -0.40294943717E+02  0.36192961219E+03  0.36436043929E+03  0.10000000000E+02 0. -1.
</event>
<event>
 5    1  0.1252945E-008  0.3838846E+03  0.7957747E-01  0.3434417E+00
         13   -1    0    0    0    0  0.00000000000E+00  0.00000000000E+00  0.14999999963E+04  0.15000000000E+04  0.10566000000E+00 0. -1.
        994   -1    0    0    0    0 -0.00000000000E+00 -0.00000000000E+00  0.11368683772E-12  0.17120000000E+03  0.17120000000E+03 0.  0.
         13    1    1    2    0    0  0.84468249764E+01  0.79487505356E+01  0.30937134395E+02  0.33040111015E+02  0.10566000000E+00 0. -1.
        994    1    1    2    0    0 -0.25952301069E+01  0.55570959237E+00  0.22081927289E+01  0.17123480998E+03  0.17120000000E+03 0.  0.
        998    1    1    2    0    0 -0.58515948696E+01 -0.85044601280E+01  0.14668546692E+04  0.14669250790E+04  0.10000000000E+02 0. -1.
</event>
<event>
 5    1  0.1252945E-008  0.3785877E+03  0.7957747E-01  0.3457331E+00
         13   -1    0    0    0    0  0.00000000000E+00  0.00000000000E+00  0.14999999963E+04  0.15000000000E+04  0.10566000000E+00 0. -1.
        994   -1    0    0    0    0 -0.00000000000E+00 -0.00000000000E+00  0.11368683772E-12  0.17120000000E+03  0.17120000000E+03 0.  0.
         13    1    1    2    0    0  0.46327384641E+01 -0.13753812933E+02  0.19478206407E+02  0.24290766245E+02  0.10566000000E+00 0. -1.
        994    1    1    2    0    0 -0.78423800808E+01  0.12117713528E+02  0.55477999772E+01  0.17189694585E+03  0.17120000000E+03 0.  0.
        998    1    1    2    0    0  0.32096416167E+01  0.16360994046E+01  0.14749739899E+04  0.14750122879E+04  0.10000000000E+02 0. -1.
</event>
<event>
 5    1  0.1252945E-008  0.3835699E+03  0.7957747E-01  0.3435760E+00
         13   -1    0    0    0    0  0.00000000000E+00  0.00000000000E+00  0.14999999963E+04  0.15000000000E+04  0.10566000000E+00 0.  1.
        994   -1    0    0    0    0 -0.00000000000E+00 -0.00000000000E+00  0.11368683772E-12  0.17120000000E+03  0.17120000000E+03 0.  0.
         13    1    1    2    0    0 -0.22188877375E+02  0.17875030424E+02  0.16135483068E+03  0.16385132144E+03  0.10566000000E+00 0.  1.
        994    1    1    2    0    0  0.18642174059E+02 -0.16788084559E+02  0.44240174907E+01  0.17308489931E+03  0.17120000000E+03 0.  0.
        998    1    1    2    0    0  0.35467033163E+01 -0.10869458654E+01  0.13342211481E+04  0.13342637793E+04  0.10000000000E+02 0.  1.
</event>
<event>
 5    1  0.1252945E-008  0.3851693E+03  0.7957747E-01  0.3428955E+00
         13   -1    0    0    0    0  0.00000000000E+00  0.00000000000E+00  0.14999999963E+04  0.15000000000E+04  0.10566000000E+00 0.  1.
        994   -1    0    0    0    0 -0.00000000000E+00 -0.00000000000E+00  0.11368683772E-12  0.17120000000E+03  0.17120000000E+03 0.  0.
         13    1    1    2    0    0 -0.10500139988E+02 -0.31663554770E+01  0.41345361444E+02  0.42775329616E+02  0.10566000000E+00 0.  1.
        994    1    1    2    0    0 -0.38996629499E+01 -0.24651551040E+01  0.16160909017E+01  0.17126977582E+03  0.17120000000E+03 0.  0.
        998    1    1    2    0    0  0.14399802938E+02  0.56315105810E+01  0.14570385439E+04  0.14571548946E+04  0.10000000000E+02 0.  1.
</event>
<event>
 5    1  0.1252945E-008  0.3774955E+03  0.7957747E-01  0.3462137E+00
         13   -1    0    0    0    0  0.00000000000E+00  0.00000000000E+00  0.14999999963E+04  0.15000000000E+04  0.10566000000E+00 0. -1.
        994   -1    0    0    0    0 -0.00000000000E+00 -0.00000000000E+00  0.11368683772E-12  0.17120000000E+03  0.17120000000E+03 0.  0.
         13    1    1    2    0    0  0.11518067599E+02 -0.68284950037E+01  0.14356755340E+02  0.19632162723E+02  0.10566000000E+00 0. -1.
        994    1    1    2    0    0 -0.27222398801E+01  0.66349387153E+01  0.55761888862E+01  0.17144085535E+03  0.17120000000E+03 0.  0.
        998    1    1    2    0    0 -0.87958277191E+01  0.19355628840E+00  0.14800670521E+04  0.14801269819E+04  0.10000000000E+02 0. -1.
</event>
<event>
 5    1  0.1252945E-008  0.3768064E+03  0.7957747E-01  0.3465183E+00
         13   -1    0    0    0    0  0.00000000000E+00  0.00000000000E+00  0.14999999963E+04  0.15000000000E+04  0.10566000000E+00 0. -1.
        994   -1    0    0    0    0 -0.00000000000E+00 -0.00000000000E+00  0.11368683772E-12  0.17120000000E+03  0.17120000000E+03 0.  0.
         13    1    1    2    0    0 -0.89065581763E+01  0.37869440999E+02  0.15379875977E+03  0.15864265193E+03  0.10566000000E+00 0. -1.
        994    1    1    2    0    0 -0.39337174148E+01  0.65158169826E+01  0.59497577558E+01  0.17147235818E+03  0.17120000000E+03 0.  0.
        998    1    1    2    0    0  0.12840275591E+02 -0.44385257982E+02  0.13402514788E+04  0.13410849899E+04  0.10000000000E+02 0. -1.
</event>
<event>
 5    1  0.1252945E-008  0.3721713E+03  0.7957747E-01  0.3485971E+00
         13   -1    0    0    0    0  0.00000000000E+00  0.00000000000E+00  0.14999999963E+04  0.15000000000E+04  0.10566000000E+00 0.  1.
        994   -1    0    0    0    0 -0.00000000000E+00 -0.00000000000E+00  0.11368683772E-12  0.17120000000E+03  0.17120000000E+03 0.  0.
         13    1    1    2    0    0  0.12203580892E+03  0.15781698254E+03  0.81126990860E+03  0.83543869578E+03  0.10566000000E+00 0.  1.
        994    1    1    2    0    0 -0.12006292433E+03 -0.16488897775E+03  0.16795002527E+03  0.31483349849E+03  0.17120000000E+03 0.  0.
        998    1    1    2    0    0 -0.19728845861E+01  0.70719952116E+01  0.52078006241E+03  0.52092780574E+03  0.10000000000E+02 0.  0.
</event>
<event>
 5    1  0.1252945E-008  0.2668692E+03  0.7957747E-01  0.4165190E+00
         13   -1    0    0    0    0  0.00000000000E+00  0.00000000000E+00  0.14999999963E+04  0.15000000000E+04  0.10566000000E+00 0. -1.
        994   -1    0    0    0    0 -0.00000000000E+00 -0.00000000000E+00  0.11368683772E-12  0.17120000000E+03  0.17120000000E+03 0.  0.
         13    1    1    2    0    0  0.17981420639E+03 -0.24452940614E+02  0.53436508244E+03  0.56433779567E+03  0.10566000000E+00 0. -1.
        994    1    1    2    0    0 -0.93932011611E+02  0.98463341017E+01  0.71115771913E+02  0.20805544000E+03  0.17120000000E+03 0.  0.
        998    1    1    2    0    0 -0.85882194774E+02  0.14606606512E+02  0.89451914192E+03  0.89880676433E+03  0.10000000000E+02 0. -1.
</event>
<event>
 5    1  0.1252945E-008  0.3860627E+03  0.7957747E-01  0.3425178E+00
         13   -1    0    0    0    0  0.00000000000E+00  0.00000000000E+00  0.14999999963E+04  0.15000000000E+04  0.10566000000E+00 0.  1.
        994   -1    0    0    0    0 -0.00000000000E+00 -0.00000000000E+00  0.11368683772E-12  0.17120000000E+03  0.17120000000E+03 0.  0.
         13    1    1    2    0    0 -0.59606858991E+01 -0.90147166494E+01  0.59182342726E+02  0.60161081666E+02  0.10566000000E+00 0.  1.
        994    1    1    2    0    0  0.22875429034E+01 -0.86884743385E+01  0.13680628687E+01  0.17144105120E+03  0.17120000000E+03 0.  0.
        998    1    1    2    0    0  0.36731429957E+01  0.17703190988E+02  0.14394495907E+04  0.14395978671E+04  0.10000000000E+02 0.  1.
</event>
<event>
 5    1  0.1252945E-008  0.3745868E+03  0.7957747E-01  0.3475073E+00
         13   -1    0    0    0    0  0.00000000000E+00  0.00000000000E+00  0.14999999963E+04  0.15000000000E+04  0.10566000000E+00 0. -1.
        994   -1    0    0    0    0 -0.00000000000E+00 -0.00000000000E+00  0.11368683772E-12  0.17120000000E+03  0.17120000000E+03 0.  0.
         13    1    1    2    0    0  0.15083605612E+02  0.13893003232E+02  0.27244078278E+02  0.34099584489E+02  0.10566000000E+00 0. -1.
        994    1    1    2    0    0 -0.15193404565E+02 -0.12783840896E+02  0.82342924032E+01  0.17254422535E+03  0.17120000000E+03 0.  0.
        998    1    1    2    0    0  0.10979895287E+00 -0.11091623356E+01  0.14645216256E+04  0.14645561902E+04  0.10000000000E+02 0. -1.
</event>
<event>
 5    1  0.1252945E-008  0.2542576E+03  0.7957747E-01  0.4288604E+00
         13   -1    0    0    0    0  0.00000000000E+00  0.00000000000E+00  0.14999999963E+04  0.15000000000E+04  0.10566000000E+00 0.  1.
        994   -1    0    0    0    0 -0.00000000000E+00 -0.00000000000E+00  0.11368683772E-12  0.17120000000E+03  0.17120000000E+03 0.  0.
         13    1    1    2    0    0 -0.13561431066E+03 -0.14564182802E+03  0.25252547824E+03  0.32151502554E+03  0.10566000000E+00 0.  1.
        994    1    1    2    0    0  0.12048357376E+03  0.12163604944E+03  0.23714729709E+03  0.33890987089E+03  0.17120000000E+03 0.  0.
        998    1    1    2    0    0  0.15130736899E+02  0.24005778578E+02  0.10103272210E+04  0.10107751036E+04  0.10000000000E+02 0.  1.
</event>
<event>
 5    1  0.1252945E-008  0.3825569E+03  0.7957747E-01  0.3440100E+00
         13   -1    0    0    0    0  0.00000000000E+00  0.00000000000E+00  0.14999999963E+04  0.15000000000E+04  0.10566000000E+00 0. -1.
        994   -1    0    0    0    0 -0.00000000000E+00 -0.00000000000E+00  0.11368683772E-12  0.17120000000E+03  0.17120000000E+03 0.  0.
         13    1    1    2    0    0 -0.29739910251E+02  0.38520025688E+01  0.12540422164E+03  0.12894002542E+03  0.10566000000E+00 0. -1.
        994    1    1    2    0    0  0.49371571903E+02 -0.29659314893E+02  0.13923192867E+02  0.18116435182E+03  0.17120000000E+03 0.  0.
        998    1    1    2    0    0 -0.19631661652E+02  0.25807312325E+02  0.13606725818E+04  0.13610956228E+04  0.10000000000E+02 0. -1.
</event>
<event>
 5    1  0.1252945E-008  0.3769604E+03  0.7957747E-01  0.3464501E+00
         13   -1    0    0    0    0  0.00000000000E+00  0.00000000000E+00  0.14999999963E+04  0.15000000000E+04  0.10566000000E+00 0. -1.
        994   -1    0    0    0    0 -0.00000000000E+00 -0.00000000000E+00  0.11368683772E-12  0.17120000000E+03  0.17120000000E+03 0.  0.
         13    1    1    2    0    0 -0.41183395182E+02 -0.13572317112E+02  0.13840319133E+03  0.14503701033E+03  0.10566000000E+00 0. -1.
        994    1    1    2    0    0  0.51752402948E+02  0.28175194182E+02  0.17491728657E+02  0.18189984428E+03  0.17120000000E+03 0.  0.
        998    1    1    2    0    0 -0.10569007766E+02 -0.14602877070E+02  0.13441050763E+04  0.13442631454E+04  0.10000000000E+02 0. -1.
</event>
<event>
 5    1  0.1252945E-008  0.3770139E+03  0.7957747E-01  0.3464264E+00
         13   -1    0    0    0    0  0.00000000000E+00  0.00000000000E+00  0.14999999963E+04  0.15000000000E+04  0.10566000000E+00 0. -1.
        994   -1    0    0    0    0 -0.00000000000E+00 -0.00000000000E+00  0.11368683772E-12  0.17120000000E+03  0.17120000000E+03 0.  0.
         13    1    1    2    0    0 -0.24747061007E+02  0.99209801636E+01  0.65440942937E+02  0.70663788834E+02  0.10566000000E+00 0. -1.
        994    1    1    2    0    0 -0.23919676353E+01  0.10113766318E+01  0.56709272699E+01  0.17131358326E+03  0.17120000000E+03 0.  0.
        998    1    1    2    0    0  0.27139028642E+02 -0.10932356795E+02  0.14288881261E+04  0.14292226279E+04  0.10000000000E+02 0. -1.
</event>
<event>
 5    1  0.1252945E-008  0.3839748E+03  0.7957747E-01  0.3434032E+00
         13   -1    0    0    0    0  0.00000000000E+00  0.00000000000E+00  0.14999999963E+04  0.15000000000E+04  0.10566000000E+00 0.  1.
        994   -1    0    0    0    0 -0.00000000000E+00 -0.00000000000E+00  0.11368683772E-12  0.17120000000E+03  0.17120000000E+03 0.  0.
         13    1    1    2    0    0 -0.10106284627E+02  0.57408849296E+00  0.24041204336E+02  0.26085575257E+02  0.10566000000E+00 0.  1.
        994    1    1    2    0    0 -0.20095167674E+01 -0.61783278098E+00  0.21545559060E+01  0.17122646404E+03  0.17120000000E+03 0.  0.
        998    1    1    2    0    0  0.12115801394E+02  0.43744288019E-01  0.14738042360E+04  0.14738879607E+04  0.10000000000E+02 0.  1.
</event>
<event>
 5    1  0.1252945E-008  0.3833336E+03  0.7957747E-01  0.3436770E+00
         13   -1    0    0    0    0  0.00000000000E+00  0.00000000000E+00  0.14999999963E+04  0.15000000000E+04  0.10566000000E+00 0.  1.
        994   -1    0    0    0    0 -0.00000000000E+00 -0.00000000000E+00  0.11368683772E-12  0.17120000000E+03  0.17120000000E+03 0.  0.
         13    1    1    2    0    0  0.99716167934E+01  0.11313099332E+02  0.43897877781E+02  0.46416098454E+02  0.10566000000E+00 0.  1.
        994    1    1    2    0    0 -0.12575979562E+02 -0.13392866118E+02  0.35765424751E+01  0.17222007949E+03  0.17120000000E+03 0.  0.
        998    1    1    2    0    0  0.26043627684E+01  0.20797667862E+01  0.14525255760E+04  0.14525638221E+04  0.10000000000E+02 0.  1.
</event>
<event>
 5    1  0.1252945E-008  0.3770812E+03  0.7957747E-01  0.3463967E+00
         13   -1    0    0    0    0  0.00000000000E+00  0.00000000000E+00  0.14999999963E+04  0.15000000000E+04  0.10566000000E+00 0.  1.
        994   -1    0    0    0    0 -0.00000000000E+00 -0.00000000000E+00  0.11368683772E-12  0.17120000000E+03  0.17120000000E+03 0.  0.
         13    1    1    2    0    0 -0.32499175867E+02  0.59480395045E+01  0.98289971275E+02  0.10369428732E+03  0.10566000000E+00 0.  1.
        994    1    1    2    0    0  0.13126015119E+02 -0.13765125835E+01  0.62020337061E+01  0.17181994146E+03  0.17120000000E+03 0.  0.
        998    1    1    2    0    0  0.19373160748E+02 -0.45715269209E+01  0.13955079913E+04  0.13956857712E+04  0.10000000000E+02 0.  1.
</event>
<event>
 5    1  0.1252945E-008  0.3796080E+03  0.7957747E-01  0.3452867E+00
         13   -1    0    0    0    0  0.00000000000E+00  0.00000000000E+00  0.14999999963E+04  0.15000000000E+04  0.10566000000E+00 0. -1.
        994   -1    0    0    0    0 -0.00000000000E+00 -0.00000000000E+00  0.11368683772E-12  0.17120000000E+03  0.17120000000E+03 0.  0.
         13    1    1    2    0    0  0.16118564243E+02 -0.43669787845E+00  0.27968248174E+02  0.32283631894E+02  0.10566000000E+00 0. -1.
        994    1    1    2    0    0 -0.14572855223E+02  0.35661995253E+01  0.50849473973E+01  0.17193133100E+03  0.17120000000E+03 0.  0.
        998    1    1    2    0    0 -0.15457090201E+01 -0.31295016468E+01  0.14669468007E+04  0.14669850371E+04  0.10000000000E+02 0. -1.
</event>
<event>
 5    1  0.1252945E-008  0.3824830E+03  0.7957747E-01  0.3440418E+00
         13   -1    0    0    0    0  0.00000000000E+00  0.00000000000E+00  0.14999999963E+04  0.15000000000E+04  0.10566000000E+00 0. -1.
        994   -1    0    0    0    0 -0.00000000000E+00 -0.00000000000E+00  0.11368683772E-12  0.17120000000E+03  0.17120000000E+03 0.  0.
         13    1    1    2    0    0  0.11661886189E+02  0.48025772477E+01  0.26608132741E+02  0.29446022307E+02  0.10566000000E+00 0. -1.
        994    1    1    2    0    0 -0.10144393220E+02  0.46211704313E+01  0.32970990500E+01  0.17159421550E+03  0.17120000000E+03 0.  0.
        998    1    1    2    0    0 -0.15174929691E+01 -0.94237476791E+01  0.14700947645E+04  0.14701597622E+04  0.10000000000E+02 0. -1.
</event>
<event>
 5    1  0.1252945E-008  0.3860308E+03  0.7957747E-01  0.3425312E+00
         13   -1    0    0    0    0  0.00000000000E+00  0.00000000000E+00  0.14999999963E+04  0.15000000000E+04  0.10566000000E+00 0.  1.
        994   -1    0    0    0    0 -0.00000000000E+00 -0.00000000000E+00  0.11368683772E-12  0.17120000000E+03  0.17120000000E+03 0.  0.
         13    1    1    2    0    0 -0.32797480027E+01  0.11587898419E+02  0.59972551012E+02  0.61169879644E+02  0.10566000000E+00 0.  1.
        994    1    1    2    0    0  0.21784159005E+01 -0.20733708462E+02  0.25450995491E+01  0.17248347658E+03  0.17120000000E+03 0.  0.
        998    1    1    2    0    0  0.11013321022E+01  0.91458100434E+01  0.14374823457E+04  0.14375466438E+04  0.10000000000E+02 0.  1.
</event>
<event>
 5    1  0.1252945E-008  0.3819473E+03  0.7957747E-01  0.3442723E+00
         13   -1    0    0    0    0  0.00000000000E+00  0.00000000000E+00  0.14999999963E+04  0.15000000000E+04  0.10566000000E+00 0.  1.
        994   -1    0    0    0    0 -0.00000000000E+00 -0.00000000000E+00  0.11368683772E-12  0.17120000000E+03  0.17120000000E+03 0.  0.
         13    1    1    2    0    0 -0.15740346933E+02  0.11974607972E+02  0.59592449882E+02  0.62788701250E+02  0.10566000000E+00 0.  1.
        994    1    1    2    0    0  0.20546379839E+02 -0.25177530187E+01  0.45779073574E+01  0.17250765212E+03  0.17120000000E+03 0.  0.
        998    1    1    2    0    0 -0.48060329058E+01 -0.94568549530E+01  0.14358296390E+04  0.14359036466E+04  0.10000000000E+02 0.  1.
</event>
<event>
 5    1  0.1252945E-008  0.3827366E+03  0.7957747E-01  0.3439328E+00
         13   -1    0    0    0    0  0.00000000000E+00  0.00000000000E+00  0.14999999963E+04  0.15000000000E+04  0.10566000000E+00 0. -1.
        994   -1    0    0    0    0 -0.00000000000E+00 -0.00000000000E+00  0.11368683772E-12  0.17120000000E+03  0.17120000000E+03 0.  0.
         13    1    1    2    0    0 -0.17012206393E+02 -0.23880513239E+02  0.16116601157E+02  0.33458183989E+02  0.10566000000E+00 0. -1.
        994    1    1    2    0    0 -0.10436492241E+02  0.48589789682E+02  0.26934815640E+02  0.18029091027E+03  0.17120000000E+03 0.  0.
        998    1    1    2    0    0  0.27448698634E+02 -0.24709276443E+02  0.14569485795E+04  0.14574509057E+04  0.10000000000E+02 0. -1.
</event>
<event>
 5    1  0.1252945E-008  0.3833188E+03  0.7957747E-01  0.3436834E+00
         13   -1    0    0    0    0  0.00000000000E+00  0.00000000000E+00  0.14999999963E+04  0.15000000000E+04  0.10566000000E+00 0.  1.
        994   -1    0    0    0    0 -0.00000000000E+00 -0.00000000000E+00  0.11368683772E-12  0.17120000000E+03  0.17120000000E+03 0.  0.
         13    1    1    2    0    0  0.26697916160E+02  0.10246030342E+02  0.14082940209E+03  0.14370348473E+03  0.10566000000E+00 0.  1.
        994    1    1    2    0    0 -0.32326158855E+02 -0.22787839162E+02  0.76568876179E+01  0.17587590537E+03  0.17120000000E+03 0.  0.
        998    1    1    2    0    0  0.56282426950E+01  0.12541808820E+02  0.13515137066E+04  0.13516206099E+04  0.10000000000E+02 0.  1.
</event>
<event>
 5    1  0.1252945E-008  0.3776494E+03  0.7957747E-01  0.3461458E+00
         13   -1    0    0    0    0  0.00000000000E+00  0.00000000000E+00  0.14999999963E+04  0.15000000000E+04  0.10566000000E+00 0.  1.
        994   -1    0    0    0    0 -0.00000000000E+00 -0.00000000000E+00  0.11368683772E-12  0.17120000000E+03  0.17120000000E+03 0.  0.
         13    1    1    2    0    0 -0.89970276568E+02 -0.45124599178E+02  0.54739632265E+03  0.55657310870E+03  0.10566000000E+00 0.  1.
        994    1    1    2    0    0  0.98826092720E+02  0.40614567041E+02  0.44806319260E+02  0.20672006652E+03  0.17120000000E+03 0.  0.
        998    1    1    2    0    0 -0.88558161521E+01  0.45100321366E+01  0.90779735437E+03  0.90790682478E+03  0.10000000000E+02 0.  0.
</event>
<event>
 5    1  0.1252945E-008  0.3790667E+03  0.7957747E-01  0.3455232E+00
         13   -1    0    0    0    0  0.00000000000E+00  0.00000000000E+00  0.14999999963E+04  0.15000000000E+04  0.10566000000E+00 0. -1.
        994   -1    0    0    0    0 -0.00000000000E+00 -0.00000000000E+00  0.11368683772E-12  0.17120000000E+03  0.17120000000E+03 0.  0.
         13    1    1    2    0    0 -0.79441221587E+02  0.37451574039E+01  0.42195796854E+03  0.42938732197E+03  0.10566000000E+00 0. -1.
        994    1    1    2    0    0  0.92777150256E+02 -0.36594178821E+01  0.34078885005E+02  0.19771646707E+03  0.17120000000E+03 0.  0.
        998    1    1    2    0    0 -0.13335928669E+02 -0.85739521803E-01  0.10439631427E+04  0.10440962110E+04  0.10000000000E+02 0. -1.
</event>
<event>
 5    1  0.1252945E-008  0.3787716E+03  0.7957747E-01  0.3456525E+00
         13   -1    0    0    0    0  0.00000000000E+00  0.00000000000E+00  0.14999999963E+04  0.15000000000E+04  0.10566000000E+00 0. -1.
        994   -1    0    0    0    0 -0.00000000000E+00 -0.00000000000E+00  0.11368683772E-12  0.17120000000E+03  0.17120000000E+03 0.  0.
         13    1    1    2    0    0 -0.23326709353E+02 -0.18085354834E+02  0.91748566253E+02  0.96379593288E+02  0.10566000000E+00 0. -1.
        994    1    1    2    0    0  0.75645995132E+01  0.12847956196E+02  0.55010125744E+01  0.17193601799E+03  0.17120000000E+03 0.  0.
        998    1    1    2    0    0  0.15762109840E+02  0.52373986384E+01  0.14027504175E+04  0.14028843887E+04  0.10000000000E+02 0. -1.
</event>
<event>
 5    1  0.1252945E-008  0.3774021E+03  0.7957747E-01  0.3462549E+00
         13   -1    0    0    0    0  0.00000000000E+00  0.00000000000E+00  0.14999999963E+04  0.15000000000E+04  0.10566000000E+00 0.  1.
        994   -1    0    0    0    0 -0.00000000000E+00 -0.00000000000E+00  0.11368683772E-12  0.17120000000E+03  0.17120000000E+03 0.  0.
         13    1    1    2    0    0  0.16362664190E+02  0.76871038380E+01  0.28207371167E+02  0.33503660949E+02  0.10566000000E+00 0.  1.
        994    1    1    2    0    0 -0.79044583475E+01  0.19579431253E+01  0.56739677064E+01  0.17148745701E+03  0.17120000000E+03 0.  0.
        998    1    1    2    0    0 -0.84582058423E+01 -0.96450469634E+01  0.14661186574E+04  0.14662088820E+04  0.10000000000E+02 0.  1.
</event>
<event>
 5    1  0.1252945E-008  0.3845035E+03  0.7957747E-01  0.3431781E+00
         13   -1    0    0    0    0  0.00000000000E+00  0.00000000000E+00  0.14999999963E+04  0.15000000000E+04  0.10566000000E+00 0.  1.
        994   -1    0    0    0    0 -0.00000000000E+00 -0.00000000000E+00  0.11368683772E-12  0.17120000000E+03  0.17120000000E+03 0.  0.
         13    1    1    2    0    0  0.12511986801E+02  0.14947381889E+02  0.10451544492E+03  0.10631774748E+03  0.10566000000E+00 0.  1.
        994    1    1    2    0    0 -0.42687618298E+01 -0.66156684701E+01  0.20810546117E+01  0.17139358268E+03  0.17120000000E+03 0.  0.
        998    1    1    2    0    0 -0.82432249712E+01 -0.83317134191E+01  0.13934034967E+04  0.13934886698E+04  0.10000000000E+02 0.  1.
</event>
<event>
 5    1  0.1252945E-008  0.3694568E+03  0.7957747E-01  0.3498391E+00
         13   -1    0    0    0    0  0.00000000000E+00  0.00000000000E+00  0.14999999963E+04  0.15000000000E+04  0.10566000000E+00 0.  1.
        994   -1    0    0    0    0 -0.00000000000E+00 -0.00000000000E+00  0.11368683772E-12  0.17120000000E+03  0.17120000000E+03 0.  0.
         13    1    1    2    0    0 -0.14608975766E+02 -0.54040432771E+01  0.85038953701E+01  0.17746922471E+02  0.10566000000E+00 0.  1.
        994    1    1    2    0    0 -0.10746716169E+01  0.20541787506E+02  0.11020374147E+02  0.17278312591E+03  0.17120000000E+03 0.  0.
        998    1    1    2    0    0  0.15683647383E+02 -0.15137744229E+02  0.14804757268E+04  0.14806699516E+04  0.10000000000E+02 0.  1.
</event>
<event>
 5    1  0.1252945E-008  0.3714209E+03  0.7957747E-01  0.3489386E+00
         13   -1    0    0    0    0  0.00000000000E+00  0.00000000000E+00  0.14999999963E+04  0.15000000000E+04  0.10566000000E+00 0.  1.
        994   -1    0    0    0    0 -0.00000000000E+00 -0.00000000000E+00  0.11368683772E-12  0.17120000000E+03  0.17120000000E+03 0.  0.
         13    1    1    2    0    0  0.52551508487E+02  0.12610237508E+02  0.12290094383E+03  0.13425845333E+03  0.10566000000E+00 0.  1.
        994    1    1    2    0    0 -0.18769827504E+02 -0.50441871797E+02  0.21939995717E+02  0.18079682593E+03  0.17120000000E+03 0.  0.
        998    1    1    2    0    0 -0.33781680983E+02  0.37831634289E+02  0.13551590567E+04  0.13561447207E+04  0.10000000000E+02 0.  1.
</event>
<event>
 5    1  0.1252945E-008  0.3807772E+03  0.7957747E-01  0.3447781E+00
         13   -1    0    0    0    0  0.00000000000E+00  0.00000000000E+00  0.14999999963E+04  0.15000000000E+04  0.10566000000E+00 0. -1.
        994   -1    0    0    0    0 -0.00000000000E+00 -0.00000000000E+00  0.11368683772E-12  0.17120000000E+03  0.17120000000E+03 0.  0.
         13    1    1    2    0    0 -0.20600190725E+02  0.48831671049E+02  0.31878553457E+03  0.32316114892E+03  0.10566000000E+00 0. -1.
        994    1    1    2    0    0  0.11854952318E+02 -0.45398553073E+02  0.11117242851E+02  0.17786118633E+03  0.17120000000E+03 0.  0.
        998    1    1    2    0    0  0.87452384072E+01 -0.34331179762E+01  0.11700972189E+04  0.11701776648E+04  0.10000000000E+02 0. -1.
</event>
<event>
 5    1  0.1252945E-008  0.3853601E+03  0.7957747E-01  0.3428146E+00
         13   -1    0    0    0    0  0.00000000000E+00  0.00000000000E+00  0.14999999963E+04  0.15000000000E+04  0.10566000000E+00 0.  1.
        994   -1    0    0    0    0 -0.00000000000E+00 -0.00000000000E+00  0.11368683772E-12  0.17120000000E+03  0.17120000000E+03 0.  0.
         13    1    1    2    0    0  0.23157642385E+00 -0.10852601370E+02  0.40482851974E+02  0.41913065411E+02  0.10566000000E+00 0.  1.
        994    1    1    2    0    0 -0.14969356149E+01  0.80353566364E+01  0.16709274950E+01  0.17140314983E+03  0.17120000000E+03 0.  0.
        998    1    1    2    0    0  0.12653591911E+01  0.28172447337E+01  0.14578462168E+04  0.14578837848E+04  0.10000000000E+02 0.  1.
</event>
<event>
 5    1  0.1252945E-008  0.3824429E+03  0.7957747E-01  0.3440590E+00
         13   -1    0    0    0    0  0.00000000000E+00  0.00000000000E+00  0.14999999963E+04  0.15000000000E+04  0.10566000000E+00 0. -1.
        994   -1    0    0    0    0 -0.00000000000E+00 -0.00000000000E+00  0.11368683772E-12  0.17120000000E+03  0.17120000000E+03 0.  0.
         13    1    1    2    0    0  0.16283745580E+02 -0.64543373948E+01  0.48827278329E+02  0.51874204711E+02  0.10566000000E+00 0. -1.
        994    1    1    2    0    0 -0.21881951438E+02  0.14471847729E+02  0.51907540614E+01  0.17327619024E+03  0.17120000000E+03 0.  0.
        998    1    1    2    0    0  0.55982058582E+01 -0.80175103344E+01  0.14459819639E+04  0.14460496051E+04  0.10000000000E+02 0. -1.
</event>
<event>
 5    1  0.1252945E-008  0.3723529E+03  0.7957747E-01  0.3485147E+00
         13   -1    0    0    0    0  0.00000000000E+00  0.00000000000E+00  0.14999999963E+04  0.15000000000E+04  0.10566000000E+00 0. -1.
        994   -1    0    0    0    0 -0.00000000000E+00 -0.00000000000E+00  0.11368683772E-12  0.17120000000E+03  0.17120000000E+03 0.  0.
         13    1    1    2    0    0  0.59382092147E+02  0.85604782077E+02  0.60617064143E+03  0.61505875270E+03  0.10566000000E+00 0. -1.
        994    1    1    2    0    0 -0.35899213594E+02 -0.60655280299E+02  0.25280338181E+02  0.18685917709E+03  0.17120000000E+03 0.  0.
        998    1    1    2    0    0 -0.23482878553E+02 -0.24949501777E+02  0.86854901667E+03  0.86928207020E+03  0.10000000000E+02 0. -1.
</event>
<event>
 5    1  0.1252945E-008  0.3720979E+03  0.7957747E-01  0.3486305E+00
         13   -1    0    0    0    0  0.00000000000E+00  0.00000000000E+00  0.14999999963E+04  0.15000000000E+04  0.10566000000E+00 0.  1.
        994   -1    0    0    0    0 -0.00000000000E+00 -0.00000000000E+00  0.11368683772E-12  0.17120000000E+03  0.17120000000E+03 0.  0.
         13    1    1    2    0    0 -0.25950473410E+02 -0.10731971325E+03  0.53433199814E+03  0.54562042055E+03  0.10566000000E+00 0.  1.
        994    1    1    2    0    0  0.22583854752E+02  0.95237468990E+02  0.41817155278E+02  0.20158948502E+03  0.17120000000E+03 0.  0.
        998    1    1    2    0    0  0.33666186578E+01  0.12082244264E+02  0.92385084286E+03  0.92399009443E+03  0.10000000000E+02 0.  1.
</event>
<event>
 5    1  0.1252945E-008  0.3820266E+03  0.7957747E-01  0.3442381E+00
         13   -1    0    0    0    0  0.00000000000E+00  0.00000000000E+00  0.14999999963E+04  0.15000000000E+04  0.10566000000E+00 0. -1.
        994   -1    0    0    0    0 -0.00000000000E+00 -0.00000000000E+00  0.11368683772E-12  0.17120000000E+03  0.17120000000E+03 0.  0.
         13    1    1    2    0    0  0.18894668371E+02 -0.99812270155E+00  0.57576986891E+02  0.60606314236E+02  0.10566000000E+00 0. -1.
        994    1    1    2    0    0 -0.84973232213E+01 -0.10271314185E+02  0.37039325445E+01  0.17175815414E+03  0.17120000000E+03 0.  0.
        998    1    1    2    0    0 -0.10397345150E+02  0.11269436886E+02  0.14387190768E+04  0.14388355316E+04  0.10000000000E+02 0. -1.
</event>
<event>
 5    1  0.1888608E-008  0.3862046E+03  0.7957747E-01  0.3424579E+00
         13   -1    0    0    0    0  0.00000000000E+00  0.00000000000E+00  0.14999999963E+04  0.15000000000E+04  0.10566000000E+00 0. -1.
        994   -1    0    0    0    0 -0.00000000000E+00 -0.00000000000E+00  0.11368683772E-12  0.17120000000E+03  0.17120000000E+03 0.  0.
         13    1    1    2    0    0  0.36223788519E+01 -0.93532770227E+01  0.51407234059E+02  0.52376715220E+02  0.10566000000E+00 0. -1.
        994    1    1    2    0    0 -0.36434725664E+01 -0.51443198498E-01  0.10767285762E+01  0.17124215860E+03  0.17120000000E+03 0.  0.
        998    1    1    2    0    0  0.21093714492E-01  0.94047202212E+01  0.14475160336E+04  0.14475811262E+04  0.10000000000E+02 0. -1.
</event>
<event>
 5    1  0.1252945E-008  0.3809542E+03  0.7957747E-01  0.3447014E+00
         13   -1    0    0    0    0  0.00000000000E+00  0.00000000000E+00  0.14999999963E+04  0.15000000000E+04  0.10566000000E+00 0.  1.
        994   -1    0    0    0    0 -0.00000000000E+00 -0.00000000000E+00  0.11368683772E-12  0.17120000000E+03  0.17120000000E+03 0.  0.
         13    1    1    2    0    0 -0.75252223215E+01 -0.19080820858E+02  0.55763791012E+02  0.59416481280E+02  0.10566000000E+00 0.  1.
        994    1    1    2    0    0 -0.55362634722E+02  0.40472567167E+02  0.19486828316E+02  0.18545141276E+03  0.17120000000E+03 0.  0.
        998    1    1    2    0    0  0.62887857044E+02 -0.21391746308E+02  0.14247493770E+04  0.14263321060E+04  0.10000000000E+02 0.  1.
</event>
<event>
 5    1  0.1252945E-008  0.3687041E+03  0.7957747E-01  0.3501868E+00
         13   -1    0    0    0    0  0.00000000000E+00  0.00000000000E+00  0.14999999963E+04  0.15000000000E+04  0.10566000000E+00 0.  1.
        994   -1    0    0    0    0 -0.00000000000E+00 -0.00000000000E+00  0.11368683772E-12  0.17120000000E+03  0.17120000000E+03 0.  0.
         13    1    1    2    0    0 -0.35841287016E+02 -0.31154541125E+02  0.17598891774E+03  0.18228360765E+03  0.10566000000E+00 0.  1.
        994    1    1    2    0    0 -0.11722129715E+03  0.54618521440E+02  0.70503935594E+02  0.22584122813E+03  0.17120000000E+03 0.  0.
        998    1    1    2    0    0  0.15306258417E+03 -0.23463980314E+02  0.12535071429E+04  0.12630751642E+04  0.10000000000E+02 0.  1.
</event>
<event>
 5    1  0.1252945E-008  0.3809139E+03  0.7957747E-01  0.3447189E+00
         13   -1    0    0    0    0  0.00000000000E+00  0.00000000000E+00  0.14999999963E+04  0.15000000000E+04  0.10566000000E+00 0.  1.
        994   -1    0    0    0    0 -0.00000000000E+00 -0.00000000000E+00  0.11368683772E-12  0.17120000000E+03  0.17120000000E+03 0.  0.
         13    1    1    2    0    0 -0.12104352181E+02 -0.31921217738E+02  0.14121450718E+03  0.14528257874E+03  0.10566000000E+00 0.  1.
        994    1    1    2    0    0  0.17037229466E+02  0.33415820613E+02  0.83756839153E+01  0.17546075440E+03  0.17120000000E+03 0.  0.
        998    1    1    2    0    0 -0.49328772850E+01 -0.14946028751E+01  0.13504098052E+04  0.13504566669E+04  0.10000000000E+02 0.  1.
</event>
<event>
 5    1  0.1252945E-008  0.3821436E+03  0.7957747E-01  0.3441877E+00
         13   -1    0    0    0    0  0.00000000000E+00  0.00000000000E+00  0.14999999963E+04  0.15000000000E+04  0.10566000000E+00 0.  1.
        994   -1    0    0    0    0 -0.00000000000E+00 -0.00000000000E+00  0.11368683772E-12  0.17120000000E+03  0.17120000000E+03 0.  0.
         13    1    1    2    0    0 -0.95835579229E+01 -0.12453109015E+02  0.38275725510E+02  0.41375920944E+02  0.10566000000E+00 0.  1.
        994    1    1    2    0    0  0.83318062334E+01  0.16108134903E+02  0.41474317452E+01  0.17220781688E+03  0.17120000000E+03 0.  0.
        998    1    1    2    0    0  0.12517516895E+01 -0.36550258878E+01  0.14575768390E+04  0.14576162622E+04  0.10000000000E+02 0.  1.
</event>
<event>
 5    1  0.1252945E-008  0.3832309E+03  0.7957747E-01  0.3437210E+00
         13   -1    0    0    0    0  0.00000000000E+00  0.00000000000E+00  0.14999999963E+04  0.15000000000E+04  0.10566000000E+00 0.  1.
        994   -1    0    0    0    0 -0.00000000000E+00 -0.00000000000E+00  0.11368683772E-12  0.17120000000E+03  0.17120000000E+03 0.  0.
         13    1    1    2    0    0 -0.57704145569E+01 -0.81684185246E+01  0.18561507031E+02  0.21084625978E+02  0.10566000000E+00 0.  1.
        994    1    1    2    0    0  0.35192408676E+01  0.15246510736E+02  0.33212681525E+01  0.17194566574E+03  0.17120000000E+03 0.  0.
        998    1    1    2    0    0  0.22511736893E+01 -0.70780922113E+01  0.14781172211E+04  0.14781697083E+04  0.10000000000E+02 0.  1.
</event>
<event>
 5    1  0.1252945E-008  0.3854147E+03  0.7957747E-01  0.3427915E+00
         13   -1    0    0    0    0  0.00000000000E+00  0.00000000000E+00  0.14999999963E+04  0.15000000000E+04  0.10566000000E+00 0. -1.
        994   -1    0    0    0    0 -0.00000000000E+00 -0.00000000000E+00  0.11368683772E-12  0.17120000000E+03  0.17120000000E+03 0.  0.
         13    1    1    2    0    0  0.50268825693E+01 -0.13640300117E+02  0.81149615600E+02  0.82441485987E+02  0.10566000000E+00 0. -1.
        994    1    1    2    0    0 -0.30349259528E+01 -0.28300517822E+01  0.14809203327E+01  0.17125668773E+03  0.17120000000E+03 0.  0.
        998    1    1    2    0    0 -0.19919566165E+01  0.16470351900E+02  0.14173694603E+04  0.14175018263E+04  0.10000000000E+02 0. -1.
</event>
<event>
 5    1  0.1252945E-008  0.3847970E+03  0.7957747E-01  0.3430534E+00
         13   -1    0    0    0    0  0.00000000000E+00  0.00000000000E+00  0.14999999963E+04  0.15000000000E+04  0.10566000000E+00 0.  1.
        994   -1    0    0    0    0 -0.00000000000E+00 -0.00000000000E+00  0.11368683772E-12  0.17120000000E+03  0.17120000000E+03 0.  0.
         13    1    1    2    0    0  0.18970110910E+02  0.48814477148E+01  0.10245699942E+03  0.10431271032E+03  0.10566000000E+00 0.  1.
        994    1    1    2    0    0 -0.21357902678E+02 -0.77960092267E+01  0.34339486858E+01  0.17273728541E+03  0.17120000000E+03 0.  0.
        998    1    1    2    0    0  0.23877917683E+01  0.29145615119E+01  0.13941090482E+04  0.13941500043E+04  0.10000000000E+02 0.  1.
</event>
<event>
 5    1  0.1252945E-008  0.3822022E+03  0.7957747E-01  0.3441625E+00
         13   -1    0    0    0    0  0.00000000000E+00  0.00000000000E+00  0.14999999963E+04  0.15000000000E+04  0.10566000000E+00 0.  1.
        994   -1    0    0    0    0 -0.00000000000E+00 -0.00000000000E+00  0.11368683772E-12  0.17120000000E+03  0.17120000000E+03 0.  0.
         13    1    1    2    0    0  0.16623576309E+02  0.42735684931E+01  0.46047863160E+02  0.49142889034E+02  0.10566000000E+00 0.  1.
        994    1    1    2    0    0 -0.18944859312E+02 -0.57082276291E+01  0.43259488172E+01  0.17239386703E+03  0.17120000000E+03 0.  0.
        998    1    1    2    0    0  0.23212830029E+01  0.14346591361E+01  0.14496261843E+04  0.14496632439E+04  0.10000000000E+02 0.  1.
</event>
<event>
 5    1  0.1252945E-008  0.3759530E+03  0.7957747E-01  0.3468971E+00
         13   -1    0    0    0    0  0.00000000000E+00  0.00000000000E+00  0.14999999963E+04  0.15000000000E+04  0.10566000000E+00 0. -1.
        994   -1    0    0    0    0 -0.00000000000E+00 -0.00000000000E+00  0.11368683772E-12  0.17120000000E+03  0.17120000000E+03 0.  0.
         13    1    1    2    0    0  0.30132448369E+02  0.25332012153E+02  0.11750687496E+03  0.12392559103E+03  0.10566000000E+00 0. -1.
        994    1    1    2    0    0 -0.24129037276E+02 -0.23300086090E+02  0.10011816822E+02  0.17474204110E+03  0.17120000000E+03 0.  0.
        998    1    1    2    0    0 -0.60034110931E+01 -0.20319260631E+01  0.13724813045E+04  0.13725323679E+04  0.10000000000E+02 0. -1.
</event>
<event>
 5    1  0.1252945E-008  0.3853287E+03  0.7957747E-01  0.3428279E+00
         13   -1    0    0    0    0  0.00000000000E+00  0.00000000000E+00  0.14999999963E+04  0.15000000000E+04  0.10566000000E+00 0. -1.
        994   -1    0    0    0    0 -0.00000000000E+00 -0.00000000000E+00  0.11368683772E-12  0.17120000000E+03  0.17120000000E+03 0.  0.
         13    1    1    2    0    0 -0.73474762433E+01  0.15328965385E+02  0.88408402007E+02  0.90027880661E+02  0.10566000000E+00 0. -1.
        994    1    1    2    0    0  0.54528097808E+01 -0.25811741589E+02  0.37567473036E+01  0.17326145644E+03  0.17120000000E+03 0.  0.
        998    1    1    2    0    0  0.18946664625E+01  0.10482776204E+02  0.14078348470E+04  0.14079106629E+04  0.10000000000E+02 0. -1.
</event>
<event>
 5    1  0.1252945E-008  0.4363514E+03  0.7957747E-01  0.3237366E+00
         13   -1    0    0    0    0  0.00000000000E+00  0.00000000000E+00  0.14999999963E+04  0.15000000000E+04  0.10566000000E+00 0.  1.
        994   -1    0    0    0    0 -0.00000000000E+00 -0.00000000000E+00  0.11368683772E-12  0.17120000000E+03  0.17120000000E+03 0.  0.
         13    1    1    2    0    0  0.85066090666E+02  0.58347056980E+02  0.99157116006E+02  0.14308306559E+03  0.10566000000E+00 0.  1.
        994    1    1    2    0    0 -0.59580261821E+02  0.51736344977E+01  0.68300791061E+02  0.19378083536E+03  0.17120000000E+03 0.  0.
        998    1    1    2    0    0 -0.25485828845E+02 -0.63520691477E+02  0.13325420892E+04  0.13343360991E+04  0.10000000000E+02 0.  1.
</event>
<event>
 5    1  0.1854255E-008  0.3858626E+03  0.7957747E-01  0.3426022E+00
         13   -1    0    0    0    0  0.00000000000E+00  0.00000000000E+00  0.14999999963E+04  0.15000000000E+04  0.10566000000E+00 0.  1.
        994   -1    0    0    0    0 -0.00000000000E+00 -0.00000000000E+00  0.11368683772E-12  0.17120000000E+03  0.17120000000E+03 0.  0.
         13    1    1    2    0    0  0.42705492720E+01  0.12718323152E+02  0.78261724147E+02  0.79403412807E+02  0.10566000000E+00 0.  1.
        994    1    1    2    0    0 -0.22473615390E+01 -0.39732626197E+01  0.12708043834E+01  0.17126556103E+03  0.17120000000E+03 0.  0.
        998    1    1    2    0    0 -0.20231877331E+01 -0.87450605325E+01  0.14204674677E+04  0.14205310262E+04  0.10000000000E+02 0.  1.
</event>
<event>
 5    1  0.1252945E-008  0.3824180E+03  0.7957747E-01  0.3440697E+00
         13   -1    0    0    0    0  0.00000000000E+00  0.00000000000E+00  0.14999999963E+04  0.15000000000E+04  0.10566000000E+00 0. -1.
        994   -1    0    0    0    0 -0.00000000000E+00 -0.00000000000E+00  0.11368683772E-12  0.17120000000E+03  0.17120000000E+03 0.  0.
         13    1    1    2    0    0 -0.15600060331E+02  0.83683974055E+01  0.52714314388E+02  0.55607571993E+02  0.10566000000E+00 0. -1.
        994    1    1    2    0    0  0.13674713824E+02  0.47611185703E+00  0.35386406003E+01  0.17178238110E+03  0.17120000000E+03 0.  0.
        998    1    1    2    0    0  0.19253465066E+01 -0.88445092626E+01  0.14437470413E+04  0.14438100469E+04  0.10000000000E+02 0. -1.
</event>
<event>
 5    1  0.1252945E-008  0.3827909E+03  0.7957747E-01  0.3439096E+00
         13   -1    0    0    0    0  0.00000000000E+00  0.00000000000E+00  0.14999999963E+04  0.15000000000E+04  0.10566000000E+00 0. -1.
        994   -1    0    0    0    0 -0.00000000000E+00 -0.00000000000E+00  0.11368683772E-12  0.17120000000E+03  0.17120000000E+03 0.  0.
         13    1    1    2    0    0  0.67001409500E+00 -0.15258400584E+02  0.40642739069E+02  0.43417866258E+02  0.10566000000E+00 0. -1.
        994    1    1    2    0    0 -0.52010418525E+01  0.17107825750E+02  0.37906891584E+01  0.17217298819E+03  0.17120000000E+03 0.  0.
        998    1    1    2    0    0  0.45310277575E+01 -0.18494251666E+01  0.14555665681E+04  0.14556091456E+04  0.10000000000E+02 0. -1.
</event>
<event>
 5    1  0.1252945E-008  0.3690714E+03  0.7957747E-01  0.3500169E+00
         13   -1    0    0    0    0  0.00000000000E+00  0.00000000000E+00  0.14999999963E+04  0.15000000000E+04  0.10566000000E+00 0.  1.
        994   -1    0    0    0    0 -0.00000000000E+00 -0.00000000000E+00  0.11368683772E-12  0.17120000000E+03  0.17120000000E+03 0.  0.
         13    1    1    2    0    0 -0.45943868575E+01 -0.26374522122E+02  0.30426954558E+02  0.40528194328E+02  0.10566000000E+00 0.  1.
        994    1    1    2    0    0  0.79257293621E+01  0.12335899821E+02  0.11198151743E+02  0.17219126056E+03  0.17120000000E+03 0.  0.
        998    1    1    2    0    0 -0.33313425046E+01  0.14038622300E+02  0.14583748900E+04  0.14584805451E+04  0.10000000000E+02 0.  1.
</event>
<event>
 5    1  0.1252945E-008  0.3837809E+03  0.7957747E-01  0.3434859E+00
         13   -1    0    0    0    0  0.00000000000E+00  0.00000000000E+00  0.14999999963E+04  0.15000000000E+04  0.10566000000E+00 0. -1.
        994   -1    0    0    0    0 -0.00000000000E+00 -0.00000000000E+00  0.11368683772E-12  0.17120000000E+03  0.17120000000E+03 0.  0.
         13    1    1    2    0    0 -0.16072149207E+02  0.56813345486E+01  0.68022008913E+02  0.70125575955E+02  0.10566000000E+00 0. -1.
        994    1    1    2    0    0 -0.76346180571E+00 -0.68689804302E+01  0.23943331866E+01  0.17135617467E+03  0.17120000000E+03 0.  0.
        998    1    1    2    0    0  0.16835611013E+02  0.11876458816E+01  0.14295836542E+04  0.14297182494E+04  0.10000000000E+02 0. -1.
</event>
<event>
 5    1  0.1252945E-008  0.3843012E+03  0.7957747E-01  0.3432641E+00
         13   -1    0    0    0    0  0.00000000000E+00  0.00000000000E+00  0.14999999963E+04  0.15000000000E+04  0.10566000000E+00 0. -1.
        994   -1    0    0    0    0 -0.00000000000E+00 -0.00000000000E+00  0.11368683772E-12  0.17120000000E+03  0.17120000000E+03 0.  0.
         13    1    1    2    0    0 -0.10363070777E+02  0.14062388090E+01  0.27766679106E+02  0.29671035980E+02  0.10566000000E+00 0. -1.
        994    1    1    2    0    0  0.21051489464E+01  0.54901489506E+01  0.20914405717E+01  0.17131371081E+03  0.17120000000E+03 0.  0.
        998    1    1    2    0    0  0.82579218310E+01 -0.68963877596E+01  0.14701418766E+04  0.14702152532E+04  0.10000000000E+02 0. -1.
</event>
<event>
 5    1  0.1252945E-008  0.3850613E+03  0.7957747E-01  0.3429412E+00
         13   -1    0    0    0    0  0.00000000000E+00  0.00000000000E+00  0.14999999963E+04  0.15000000000E+04  0.10566000000E+00 0.  1.
        994   -1    0    0    0    0 -0.00000000000E+00 -0.00000000000E+00  0.11368683772E-12  0.17120000000E+03  0.17120000000E+03 0.  0.
         13    1    1    2    0    0 -0.37863495660E+01  0.10335580736E+02  0.38770832146E+02  0.40303216516E+02  0.10566000000E+00 0.  1.
        994    1    1    2    0    0 -0.59022437069E+00 -0.24660258708E+01  0.16208601381E+01  0.17122644900E+03  0.17120000000E+03 0.  0.
        998    1    1    2    0    0  0.43765739367E+01 -0.78695548656E+01  0.14596083040E+04  0.14596703345E+04  0.10000000000E+02 0.  1.
</event>
<event>
 5    1  0.1252945E-008  0.3779492E+03  0.7957747E-01  0.3460137E+00
         13   -1    0    0    0    0  0.00000000000E+00  0.00000000000E+00  0.14999999963E+04  0.15000000000E+04  0.10566000000E+00 0. -1.
        994   -1    0    0    0    0 -0.00000000000E+00 -0.00000000000E+00  0.11368683772E-12  0.17120000000E+03  0.17120000000E+03 0.  0.
         13    1    1    2    0    0  0.15709205369E+02 -0.55011829847E+02  0.28483689022E+03  0.29052563699E+03  0.10566000000E+00 0. -1.
        994    1    1    2    0    0 -0.13621813160E+02  0.42838582988E+02  0.12003442741E+02  0.17740975346E+03  0.17120000000E+03 0.  0.
        998    1    1    2    0    0 -0.20873922087E+01  0.12173246859E+02  0.12031596633E+04  0.12032646095E+04  0.10000000000E+02 0.  0.
</event>
<event>
 5    1  0.1252945E-008  0.3753275E+03  0.7957747E-01  0.3471759E+00
         13   -1    0    0    0    0  0.00000000000E+00  0.00000000000E+00  0.14999999963E+04  0.15000000000E+04  0.10566000000E+00 0. -1.
        994   -1    0    0    0    0 -0.00000000000E+00 -0.00000000000E+00  0.11368683772E-12  0.17120000000E+03  0.17120000000E+03 0.  0.
         13    1    1    2    0    0  0.12882323389E+02  0.39033363471E+02  0.12311214369E+03  0.12979279182E+03  0.10566000000E+00 0. -1.
        994    1    1    2    0    0 -0.10002691875E+02 -0.30528435198E+02  0.10022896714E+02  0.17447618078E+03  0.17120000000E+03 0.  0.
        998    1    1    2    0    0 -0.28796315136E+01 -0.85049282727E+01  0.13668649559E+04  0.13669310274E+04  0.10000000000E+02 0. -1.
</event>
<event>
 5    1  0.1252945E-008  0.3800566E+03  0.7957747E-01  0.3450912E+00
         13   -1    0    0    0    0  0.00000000000E+00  0.00000000000E+00  0.14999999963E+04  0.15000000000E+04  0.10566000000E+00 0. -1.
        994   -1    0    0    0    0 -0.00000000000E+00 -0.00000000000E+00  0.11368683772E-12  0.17120000000E+03  0.17120000000E+03 0.  0.
         13    1    1    2    0    0  0.27594826408E+02 -0.16211388546E+02  0.11773419307E+03  0.12200670041E+03  0.10566000000E+00 0. -1.
        994    1    1    2    0    0 -0.24195263018E+02  0.13241013970E+02  0.66513125330E+01  0.17353505456E+03  0.17120000000E+03 0.  0.
        998    1    1    2    0    0 -0.33995633900E+01  0.29703745758E+01  0.13756144907E+04  0.13756582450E+04  0.10000000000E+02 0. -1.
</event>
<event>
 5    1  0.1252945E-008  0.3823797E+03  0.7957747E-01  0.3440862E+00
         13   -1    0    0    0    0  0.00000000000E+00  0.00000000000E+00  0.14999999963E+04  0.15000000000E+04  0.10566000000E+00 0.  1.
        994   -1    0    0    0    0 -0.00000000000E+00 -0.00000000000E+00  0.11368683772E-12  0.17120000000E+03  0.17120000000E+03 0.  0.
         13    1    1    2    0    0  0.45694832079E+01 -0.24610006763E+02  0.12982002892E+03  0.13221113298E+03  0.10566000000E+00 0.  1.
        994    1    1    2    0    0  0.16949783533E+02 -0.10413605468E+02  0.42503808408E+01  0.17240430412E+03  0.17120000000E+03 0.  0.
        998    1    1    2    0    0 -0.21519266741E+02  0.35023612231E+02  0.13659295865E+04  0.13665845629E+04  0.10000000000E+02 0.  1.
</event>
<event>
 5    1  0.1252945E-008  0.3796374E+03  0.7957747E-01  0.3452739E+00
         13   -1    0    0    0    0  0.00000000000E+00  0.00000000000E+00  0.14999999963E+04  0.15000000000E+04  0.10566000000E+00 0. -1.
        994   -1    0    0    0    0 -0.00000000000E+00 -0.00000000000E+00  0.11368683772E-12  0.17120000000E+03  0.17120000000E+03 0.  0.
         13    1    1    2    0    0  0.74472670467E+01  0.80734561985E+01  0.12253832353E+02  0.16456307387E+02  0.10566000000E+00 0. -1.
        994    1    1    2    0    0 -0.42711717994E+00 -0.23496738743E+01  0.43353653043E+01  0.17127153526E+03  0.17120000000E+03 0.  0.
        998    1    1    2    0    0 -0.70201498668E+01 -0.57237823242E+01  0.14834107986E+04  0.14834721574E+04  0.10000000000E+02 0. -1.
</event>
<event>
 5    1  0.1252945E-008  0.3831765E+03  0.7957747E-01  0.3437443E+00
         13   -1    0    0    0    0  0.00000000000E+00  0.00000000000E+00  0.14999999963E+04  0.15000000000E+04  0.10566000000E+00 0.  1.
        994   -1    0    0    0    0 -0.00000000000E+00 -0.00000000000E+00  0.11368683772E-12  0.17120000000E+03  0.17120000000E+03 0.  0.
         13    1    1    2    0    0 -0.10754704043E+02  0.21314471991E+02  0.10558137566E+03  0.10824697883E+03  0.10566000000E+00 0.  1.
        994    1    1    2    0    0  0.11080966759E+02 -0.20377738964E+02  0.43201609229E+01  0.17281823937E+03  0.17120000000E+03 0.  0.
        998    1    1    2    0    0 -0.32626271641E+00 -0.93673302619E+00  0.13900984597E+04  0.13901347818E+04  0.10000000000E+02 0.  0.
</event>
<event>
 5    1  0.1252945E-008  0.3725658E+03  0.7957747E-01  0.3484181E+00
         13   -1    0    0    0    0  0.00000000000E+00  0.00000000000E+00  0.14999999963E+04  0.15000000000E+04  0.10566000000E+00 0.  1.
        994   -1    0    0    0    0 -0.00000000000E+00 -0.00000000000E+00  0.11368683772E-12  0.17120000000E+03  0.17120000000E+03 0.  0.
         13    1    1    2    0    0  0.27163314147E+02  0.29581450259E+02  0.10537300979E+03  0.11276697297E+03  0.10566000000E+00 0.  1.
        994    1    1    2    0    0 -0.71874448403E+01 -0.56856363636E+01  0.82219586246E+01  0.17164214642E+03  0.17120000000E+03 0.  0.
        998    1    1    2    0    0 -0.19975869307E+02 -0.23895813896E+02  0.13864050279E+04  0.13867908806E+04  0.10000000000E+02 0.  1.
</event>
<event>
 5    1  0.1252945E-008  0.3833581E+03  0.7957747E-01  0.3436666E+00
         13   -1    0    0    0    0  0.00000000000E+00  0.00000000000E+00  0.14999999963E+04  0.15000000000E+04  0.10566000000E+00 0. -1.
        994   -1    0    0    0    0 -0.00000000000E+00 -0.00000000000E+00  0.11368683772E-12  0.17120000000E+03  0.17120000000E+03 0.  0.
         13    1    1    2    0    0  0.94183066950E+01 -0.10338735865E+02  0.38690656276E+02  0.41140880002E+02  0.10566000000E+00 0. -1.
        994    1    1    2    0    0 -0.76535525752E+01  0.10264510592E+02  0.29897264028E+01  0.17170415111E+03  0.17120000000E+03 0.  0.
        998    1    1    2    0    0 -0.17647541198E+01  0.74225272369E-01  0.14583196136E+04  0.14583549689E+04  0.10000000000E+02 0. -1.
</event>
<event>
 5    1  0.1252945E-008  0.3764862E+03  0.7957747E-01  0.3466603E+00
         13   -1    0    0    0    0  0.00000000000E+00  0.00000000000E+00  0.14999999963E+04  0.15000000000E+04  0.10566000000E+00 0. -1.
        994   -1    0    0    0    0 -0.00000000000E+00 -0.00000000000E+00  0.11368683772E-12  0.17120000000E+03  0.17120000000E+03 0.  0.
         13    1    1    2    0    0 -0.45042176348E+02 -0.27831762044E+02  0.28247006013E+03  0.28738954516E+03  0.10566000000E+00 0. -1.
        994    1    1    2    0    0  0.69051848733E+01  0.21282651229E+01  0.60941345107E+01  0.17146075226E+03  0.17120000000E+03 0.  0.
        998    1    1    2    0    0  0.38136991475E+02  0.25703496921E+02  0.12114358016E+04  0.12123497026E+04  0.10000000000E+02 0. -1.
</event>
<event>
 5    1  0.1252945E-008  0.3838808E+03  0.7957747E-01  0.3434433E+00
         13   -1    0    0    0    0  0.00000000000E+00  0.00000000000E+00  0.14999999963E+04  0.15000000000E+04  0.10566000000E+00 0.  1.
        994   -1    0    0    0    0 -0.00000000000E+00 -0.00000000000E+00  0.11368683772E-12  0.17120000000E+03  0.17120000000E+03 0.  0.
         13    1    1    2    0    0  0.13560863737E+02  0.84108793009E+01  0.55395614967E+02  0.57648289112E+02  0.10566000000E+00 0.  1.
        994    1    1    2    0    0 -0.17804615630E+02 -0.65789698575E+01  0.33768997695E+01  0.17228212512E+03  0.17120000000E+03 0.  0.
        998    1    1    2    0    0  0.42437518935E+01 -0.18319094435E+01  0.14412274815E+04  0.14412695858E+04  0.10000000000E+02 0.  1.
</event>
<event>
 5    1  0.1252945E-008  0.3834102E+03  0.7957747E-01  0.3436443E+00
         13   -1    0    0    0    0  0.00000000000E+00  0.00000000000E+00  0.14999999963E+04  0.15000000000E+04  0.10566000000E+00 0. -1.
        994   -1    0    0    0    0 -0.00000000000E+00 -0.00000000000E+00  0.11368683772E-12  0.17120000000E+03  0.17120000000E+03 0.  0.
         13    1    1    2    0    0 -0.21443723534E+02 -0.35182186376E+01  0.98984183980E+02  0.10134145738E+03  0.10566000000E+00 0. -1.
        994    1    1    2    0    0  0.10266808010E+02  0.82443336042E+00  0.27722501720E+01  0.17153195740E+03  0.17120000000E+03 0.  0.
        998    1    1    2    0    0  0.11176915525E+02  0.26937852772E+01  0.13982435621E+04  0.13983265852E+04  0.10000000000E+02 0. -1.
</event>
<event>
 5    1  0.1252945E-008  0.3842405E+03  0.7957747E-01  0.3432900E+00
         13   -1    0    0    0    0  0.00000000000E+00  0.00000000000E+00  0.14999999963E+04  0.15000000000E+04  0.10566000000E+00 0.  1.
        994   -1    0    0    0    0 -0.00000000000E+00 -0.00000000000E+00  0.11368683772E-12  0.17120000000E+03  0.17120000000E+03 0.  0.
         13    1    1    2    0    0  0.97337991016E+01  0.11629279187E+02  0.59023710577E+02  0.60940926754E+02  0.10566000000E+00 0.  1.
        994    1    1    2    0    0 -0.95170016047E+01  0.33904349057E+01  0.23442436018E+01  0.17151385905E+03  0.17120000000E+03 0.  0.
        998    1    1    2    0    0 -0.21679749689E+00 -0.15019714093E+02  0.14386320421E+04  0.14387452142E+04  0.10000000000E+02 0.  1.
</event>
<event>
 5    1  0.1252945E-008  0.3734902E+03  0.7957747E-01  0.3480003E+00
         13   -1    0    0    0    0  0.00000000000E+00  0.00000000000E+00  0.14999999963E+04  0.15000000000E+04  0.10566000000E+00 0.  1.
        994   -1    0    0    0    0 -0.00000000000E+00 -0.00000000000E+00  0.11368683772E-12  0.17120000000E+03  0.17120000000E+03 0.  0.
         13    1    1    2    0    0 -0.17397799276E+02 -0.19887152577E+02  0.21574565800E+02  0.34112392334E+02  0.10566000000E+00 0.  1.
        994    1    1    2    0    0  0.17580233507E+02  0.19700942790E+02  0.15267782922E+02  0.17389576462E+03  0.17120000000E+03 0.  0.
        998    1    1    2    0    0 -0.18243423106E+00  0.18620978662E+00  0.14631576476E+04  0.14631918430E+04  0.10000000000E+02 0.  1.
</event>
<event>
 5    1  0.1252945E-008  0.3825871E+03  0.7957747E-01  0.3439971E+00
         13   -1    0    0    0    0  0.00000000000E+00  0.00000000000E+00  0.14999999963E+04  0.15000000000E+04  0.10566000000E+00 0.  1.
        994   -1    0    0    0    0 -0.00000000000E+00 -0.00000000000E+00  0.11368683772E-12  0.17120000000E+03  0.17120000000E+03 0.  0.
         13    1    1    2    0    0 -0.19690734997E+02  0.18051836814E+02  0.12696558690E+03  0.12974538635E+03  0.10566000000E+00 0.  1.
        994    1    1    2    0    0  0.90629554343E+00 -0.20076507284E+02  0.41727358489E+01  0.17242603992E+03  0.17120000000E+03 0.  0.
        998    1    1    2    0    0  0.18784439453E+02  0.20246704707E+01  0.13688616735E+04  0.13690285737E+04  0.10000000000E+02 0.  1.
</event>
<event>
 5    1  0.1252945E-008  0.3842144E+03  0.7957747E-01  0.3433011E+00
         13   -1    0    0    0    0  0.00000000000E+00  0.00000000000E+00  0.14999999963E+04  0.15000000000E+04  0.10566000000E+00 0. -1.
        994   -1    0    0    0    0 -0.00000000000E+00 -0.00000000000E+00  0.11368683772E-12  0.17120000000E+03  0.17120000000E+03 0.  0.
         13    1    1    2    0    0 -0.72358285826E+01 -0.10628406996E+02  0.39039892010E+02  0.41102853706E+02  0.10566000000E+00 0. -1.
        994    1    1    2    0    0  0.14273140860E+02  0.10414521739E+02  0.30506266129E+01  0.17213637366E+03  0.17120000000E+03 0.  0.
        998    1    1    2    0    0 -0.70373122769E+01  0.21388525745E+00  0.14579094777E+04  0.14579607726E+04  0.10000000000E+02 0. -1.
</event>
<event>
 5    1  0.1252945E-008  0.3832281E+03  0.7957747E-01  0.3437222E+00
         13   -1    0    0    0    0  0.00000000000E+00  0.00000000000E+00  0.14999999963E+04  0.15000000000E+04  0.10566000000E+00 0.  1.
        994   -1    0    0    0    0 -0.00000000000E+00 -0.00000000000E+00  0.11368683772E-12  0.17120000000E+03  0.17120000000E+03 0.  0.
         13    1    1    2    0    0  0.79132299367E+01 -0.83061974907E+01  0.24999621134E+02  0.27506441894E+02  0.10566000000E+00 0.  1.
        994    1    1    2    0    0 -0.19079203112E+02 -0.19172317111E+01  0.37295741649E+01  0.17231088617E+03  0.17120000000E+03 0.  0.
        998    1    1    2    0    0  0.11165973176E+02  0.10223429202E+02  0.14712708010E+04  0.14713826719E+04  0.10000000000E+02 0.  1.
</event>
<event>
 5    1  0.1252945E-008  0.3840424E+03  0.7957747E-01  0.3433744E+00
         13   -1    0    0    0    0  0.00000000000E+00  0.00000000000E+00  0.14999999963E+04  0.15000000000E+04  0.10566000000E+00 0.  1.
        994   -1    0    0    0    0 -0.00000000000E+00 -0.00000000000E+00  0.11368683772E-12  0.17120000000E+03  0.17120000000E+03 0.  0.
         13    1    1    2    0    0  0.16808065232E+02  0.97647672364E+01  0.89806199028E+02  0.91885941710E+02  0.10566000000E+00 0.  1.
        994    1    1    2    0    0 -0.12997267619E+02 -0.55061913398E+00  0.26647984444E+01  0.17171421985E+03  0.17120000000E+03 0.  0.
        998    1    1    2    0    0 -0.38107976132E+01 -0.92141481024E+01  0.14075289988E+04  0.14075998384E+04  0.10000000000E+02 0.  1.
</event>
<event>
 5    1  0.1252945E-008  0.3841550E+03  0.7957747E-01  0.3433264E+00
         13   -1    0    0    0    0  0.00000000000E+00  0.00000000000E+00  0.14999999963E+04  0.15000000000E+04  0.10566000000E+00 0. -1.
        994   -1    0    0    0    0 -0.00000000000E+00 -0.00000000000E+00  0.11368683772E-12  0.17120000000E+03  0.17120000000E+03 0.  0.
         13    1    1    2    0    0  0.18762607064E+01 -0.14557106467E+02  0.56084309831E+02  0.57973189288E+02  0.10566000000E+00 0. -1.
        994    1    1    2    0    0  0.38262738907E+01 -0.34156052653E+01  0.21369886679E+01  0.17129014406E+03  0.17120000000E+03 0.  0.
        998    1    1    2    0    0 -0.57025345971E+01  0.17972711732E+02  0.14417786978E+04  0.14419366667E+04  0.10000000000E+02 0. -1.
</event>
<event>
 5    1  0.1252945E-008  0.3726488E+03  0.7957747E-01  0.3483805E+00
         13   -1    0    0    0    0  0.00000000000E+00  0.00000000000E+00  0.14999999963E+04  0.15000000000E+04  0.10566000000E+00 0.  1.
        994   -1    0    0    0    0 -0.00000000000E+00 -0.00000000000E+00  0.11368683772E-12  0.17120000000E+03  0.17120000000E+03 0.  0.
         13    1    1    2    0    0 -0.60444803006E+01  0.18098037657E+02  0.91737707060E+01  0.21171772296E+02  0.10566000000E+00 0.  1.
        994    1    1    2    0    0  0.77373732296E+01 -0.17403291191E+02  0.13627323012E+02  0.17279434430E+03  0.17120000000E+03 0.  0.
        998    1    1    2    0    0 -0.16928929290E+01 -0.69474646599E+00  0.14771989026E+04  0.14772338834E+04  0.10000000000E+02 0.  1.
</event>
<event>
 5    1  0.1252945E-008  0.3731576E+03  0.7957747E-01  0.3481504E+00
         13   -1    0    0    0    0  0.00000000000E+00  0.00000000000E+00  0.14999999963E+04  0.15000000000E+04  0.10566000000E+00 0. -1.
        994   -1    0    0    0    0 -0.00000000000E+00 -0.00000000000E+00  0.11368683772E-12  0.17120000000E+03  0.17120000000E+03 0.  0.
         13    1    1    2    0    0 -0.12244045131E+03  0.75847385484E+02  0.82317870904E+03  0.83568396429E+03  0.10566000000E+00 0. -1.
        994    1    1    2    0    0  0.10130849675E+03 -0.70143447537E+02  0.61488636654E+02  0.21971301096E+03  0.17120000000E+03 0.  0.
        998    1    1    2    0    0  0.21131954564E+02 -0.57039379470E+01  0.61533265059E+03  0.61580302475E+03  0.10000000000E+02 0. -1.
</event>
<event>
 5    1  0.1252945E-008  0.3859896E+03  0.7957747E-01  0.3425486E+00
         13   -1    0    0    0    0  0.00000000000E+00  0.00000000000E+00  0.14999999963E+04  0.15000000000E+04  0.10566000000E+00 0. -1.
        994   -1    0    0    0    0 -0.00000000000E+00 -0.00000000000E+00  0.11368683772E-12  0.17120000000E+03  0.17120000000E+03 0.  0.
         13    1    1    2    0    0  0.76980110147E+01 -0.69401408056E+01  0.49230254278E+02  0.50309581873E+02  0.10566000000E+00 0. -1.
        994    1    1    2    0    0 -0.37705771266E+01 -0.10082274827E+01  0.11895439521E+01  0.17124861690E+03  0.17120000000E+03 0.  0.
        998    1    1    2    0    0 -0.39274338881E+01  0.79483682883E+01  0.14495801980E+04  0.14496418012E+04  0.10000000000E+02 0. -1.
</event>
<event>
 5    1  0.1252945E-008  0.3824907E+03  0.7957747E-01  0.3440384E+00
         13   -1    0    0    0    0  0.00000000000E+00  0.00000000000E+00  0.14999999963E+04  0.15000000000E+04  0.10566000000E+00 0.  1.
        994   -1    0    0    0    0 -0.00000000000E+00 -0.00000000000E+00  0.11368683772E-12  0.17120000000E+03  0.17120000000E+03 0.  0.
         13    1    1    2    0    0 -0.52998791498E+01 -0.12671726458E+02  0.31801491818E+02  0.34641123196E+02  0.10566000000E+00 0.  1.
        994    1    1    2    0    0  0.14533031678E+01  0.88055559052E+01  0.31452207584E+01  0.17146131435E+03  0.17120000000E+03 0.  0.
        998    1    1    2    0    0  0.38465759821E+01  0.38661705526E+01  0.14650532837E+04  0.14650975625E+04  0.10000000000E+02 0.  1.
</event>
<event>
 5    1  0.1252945E-008  0.3858401E+03  0.7957747E-01  0.3426117E+00
         13   -1    0    0    0    0  0.00000000000E+00  0.00000000000E+00  0.14999999963E+04  0.15000000000E+04  0.10566000000E+00 0.  1.
        994   -1    0    0    0    0 -0.00000000000E+00 -0.00000000000E+00  0.11368683772E-12  0.17120000000E+03  0.17120000000E+03 0.  0.
         13    1    1    2    0    0  0.93707641319E+01 -0.43228463690E+01  0.46761862094E+02  0.47887170846E+02  0.10566000000E+00 0.  1.
        994    1    1    2    0    0 -0.17669519015E+01 -0.79765991590E+01  0.14325711198E+01  0.17140081830E+03  0.17120000000E+03 0.  0.
        998    1    1    2    0    0 -0.76038122303E+01  0.12299445528E+02  0.14518055631E+04  0.14519120109E+04  0.10000000000E+02 0.  1.
</event>
<event>
 5    1  0.1252945E-008  0.3770096E+03  0.7957747E-01  0.3464284E+00
         13   -1    0    0    0    0  0.00000000000E+00  0.00000000000E+00  0.14999999963E+04  0.15000000000E+04  0.10566000000E+00 0. -1.
        994   -1    0    0    0    0 -0.00000000000E+00 -0.00000000000E+00  0.11368683772E-12  0.17120000000E+03  0.17120000000E+03 0.  0.
         13    1    1    2    0    0  0.33060598499E+02 -0.34591322672E+02  0.22200674524E+03  0.22710475308E+03  0.10566000000E+00 0. -1.
        994    1    1    2    0    0  0.29760834308E+01  0.21314681577E+02  0.72157510093E+01  0.17269823330E+03  0.17120000000E+03 0.  0.
        998    1    1    2    0    0 -0.36036681930E+02  0.13276641095E+02  0.12707775000E+04  0.12713970136E+04  0.10000000000E+02 0. -1.
</event>
<event>
 5    1  0.1252945E-008  0.3841835E+03  0.7957747E-01  0.3433143E+00
         13   -1    0    0    0    0  0.00000000000E+00  0.00000000000E+00  0.14999999963E+04  0.15000000000E+04  0.10566000000E+00 0.  1.
        994   -1    0    0    0    0 -0.00000000000E+00 -0.00000000000E+00  0.11368683772E-12  0.17120000000E+03  0.17120000000E+03 0.  0.
         13    1    1    2    0    0 -0.84945977241E+01  0.59615842010E+01  0.26437553466E+02  0.28401656184E+02  0.10566000000E+00 0.  1.
        994    1    1    2    0    0  0.52170698511E+01  0.47657816689E+01  0.22007302148E+01  0.17135989527E+03  0.17120000000E+03 0.  0.
        998    1    1    2    0    0  0.32775278731E+01 -0.10727365870E+02  0.14713617126E+04  0.14714384485E+04  0.10000000000E+02 0.  1.
</event>
<event>
 5    1  0.1252945E-008  0.3733009E+03  0.7957747E-01  0.3480857E+00
         13   -1    0    0    0    0  0.00000000000E+00  0.00000000000E+00  0.14999999963E+04  0.15000000000E+04  0.10566000000E+00 0.  1.
        994   -1    0    0    0    0 -0.00000000000E+00 -0.00000000000E+00  0.11368683772E-12  0.17120000000E+03  0.17120000000E+03 0.  0.
         13    1    1    2    0    0  0.43216170508E+01 -0.45794129787E+02  0.11263732318E+03  0.12166740087E+03  0.10566000000E+00 0.  1.
        994    1    1    2    0    0  0.17367617960E+02  0.76916987439E+02  0.29119456924E+02  0.19072294010E+03  0.17120000000E+03 0.  0.
        998    1    1    2    0    0 -0.21689235011E+02 -0.31122857652E+02  0.13582432162E+04  0.13588096590E+04  0.10000000000E+02 0.  1.
</event>
<event>
 5    1  0.1252945E-008  0.2740073E+03  0.7957747E-01  0.4101047E+00
         13   -1    0    0    0    0  0.00000000000E+00  0.00000000000E+00  0.14999999963E+04  0.15000000000E+04  0.10566000000E+00 0.  1.
        994   -1    0    0    0    0 -0.00000000000E+00 -0.00000000000E+00  0.11368683772E-12  0.17120000000E+03  0.17120000000E+03 0.  0.
         13    1    1    2    0    0 -0.12664737399E+03  0.77192620490E+02  0.60309397384E+03  0.62106409528E+03  0.10566000000E+00 0.  1.
        994    1    1    2    0    0  0.65648184989E+02 -0.30512301200E+02  0.40504656615E+02  0.19023867095E+03  0.17120000000E+03 0.  0.
        998    1    1    2    0    0  0.60999189000E+02 -0.46680319290E+02  0.85640136583E+03  0.85989723378E+03  0.10000000000E+02 0.  1.
</event>
<event>
 5    1  0.1252945E-008  0.3783950E+03  0.7957747E-01  0.3458177E+00
         13   -1    0    0    0    0  0.00000000000E+00  0.00000000000E+00  0.14999999963E+04  0.15000000000E+04  0.10566000000E+00 0. -1.
        994   -1    0    0    0    0 -0.00000000000E+00 -0.00000000000E+00  0.11368683772E-12  0.17120000000E+03  0.17120000000E+03 0.  0.
         13    1    1    2    0    0 -0.17204989796E+02 -0.19063669005E+02  0.57104984754E+02  0.62613302082E+02  0.10566000000E+00 0. -1.
        994    1    1    2    0    0  0.65732545958E+02  0.91287356215E+01  0.19892167163E+02  0.18468686939E+03  0.17120000000E+03 0.  0.
        998    1    1    2    0    0 -0.48527556162E+02  0.99349333837E+01  0.14230028444E+04  0.14238998285E+04  0.10000000000E+02 0. -1.
</event>
<event>
 5    1  0.1252945E-008  0.3735460E+03  0.7957747E-01  0.3479751E+00
         13   -1    0    0    0    0  0.00000000000E+00  0.00000000000E+00  0.14999999963E+04  0.15000000000E+04  0.10566000000E+00 0.  1.
        994   -1    0    0    0    0 -0.00000000000E+00 -0.00000000000E+00  0.11368683772E-12  0.17120000000E+03  0.17120000000E+03 0.  0.
         13    1    1    2    0    0 -0.13878963375E+02  0.16359474665E+01  0.97229549882E+01  0.17024951284E+02  0.10566000000E+00 0.  1.
        994    1    1    2    0    0  0.14222404443E+02  0.37547461051E+00  0.81190390496E+01  0.17198190767E+03  0.17120000000E+03 0.  0.
        998    1    1    2    0    0 -0.34344106827E+00 -0.20114220770E+01  0.14821580022E+04  0.14821931411E+04  0.10000000000E+02 0.  1.
</event>
<event>
 5    1  0.1252945E-008  0.3853051E+03  0.7957747E-01  0.3428379E+00
         13   -1    0    0    0    0  0.00000000000E+00  0.00000000000E+00  0.14999999963E+04  0.15000000000E+04  0.10566000000E+00 0.  1.
        994   -1    0    0    0    0 -0.00000000000E+00 -0.00000000000E+00  0.11368683772E-12  0.17120000000E+03  0.17120000000E+03 0.  0.
         13    1    1    2    0    0 -0.38055688604E+01 -0.10877278327E+02  0.48252921788E+02  0.49610010716E+02  0.10566000000E+00 0.  1.
        994    1    1    2    0    0 -0.85842501614E+01 -0.15788752296E+01  0.17290653173E+01  0.17143107030E+03  0.17120000000E+03 0.  0.
        998    1    1    2    0    0  0.12389819022E+02  0.12456153556E+02  0.14500180092E+04  0.14501589190E+04  0.10000000000E+02 0.  1.
</event>
<event>
 5    1  0.1252945E-008  0.3814986E+03  0.7957747E-01  0.3444659E+00
         13   -1    0    0    0    0  0.00000000000E+00  0.00000000000E+00  0.14999999963E+04  0.15000000000E+04  0.10566000000E+00 0. -1.
        994   -1    0    0    0    0 -0.00000000000E+00 -0.00000000000E+00  0.11368683772E-12  0.17120000000E+03  0.17120000000E+03 0.  0.
         13    1    1    2    0    0  0.10450256567E+03 -0.56767615886E+02  0.39404588337E+03  0.41160116352E+03  0.10566000000E+00 0. -1.
        994    1    1    2    0    0 -0.15074721699E+03 -0.78330908991E+02  0.13153245597E+03  0.27471927800E+03  0.17120000000E+03 0.  0.
        998    1    1    2    0    0  0.46244651321E+02  0.13509852488E+03  0.97442165694E+03  0.98487955848E+03  0.10000000000E+02 0. -1.
</event>
<event>
 5    1  0.1252945E-008  0.3712282E+03  0.7957747E-01  0.3490265E+00
         13   -1    0    0    0    0  0.00000000000E+00  0.00000000000E+00  0.14999999963E+04  0.15000000000E+04  0.10566000000E+00 0.  1.
        994   -1    0    0    0    0 -0.00000000000E+00 -0.00000000000E+00  0.11368683772E-12  0.17120000000E+03  0.17120000000E+03 0.  0.
         13    1    1    2    0    0 -0.36359298341E+02 -0.13180553033E+03  0.66234102682E+03  0.67630639755E+03  0.10566000000E+00 0.  1.
        994    1    1    2    0    0  0.37057407823E+02  0.11932520555E+03  0.64463865564E+02  0.22153281048E+03  0.17120000000E+03 0.  0.
        998    1    1    2    0    0 -0.69810948226E+00  0.12480324780E+02  0.77319510390E+03  0.77336079197E+03  0.10000000000E+02 0.  1.
</event>
<event>
 5    1  0.1252945E-008  0.3721315E+03  0.7957747E-01  0.3486152E+00
         13   -1    0    0    0    0  0.00000000000E+00  0.00000000000E+00  0.14999999963E+04  0.15000000000E+04  0.10566000000E+00 0. -1.
        994   -1    0    0    0    0 -0.00000000000E+00 -0.00000000000E+00  0.11368683772E-12  0.17120000000E+03  0.17120000000E+03 0.  0.
         13    1    1    2    0    0 -0.28717937934E+02 -0.19820587119E+01  0.44745746459E+02  0.53205652952E+02  0.10566000000E+00 0. -1.
        994    1    1    2    0    0  0.41320410985E+02 -0.12900319464E+02  0.14618386905E+02  0.17719179395E+03  0.17120000000E+03 0.  0.
        998    1    1    2    0    0 -0.12602473051E+02  0.14882378176E+02  0.14406358629E+04  0.14408025531E+04  0.10000000000E+02 0. -1.
</event>
<event>
 5    1  0.1252945E-008  0.3720350E+03  0.7957747E-01  0.3486590E+00
         13   -1    0    0    0    0  0.00000000000E+00  0.00000000000E+00  0.14999999963E+04  0.15000000000E+04  0.10566000000E+00 0. -1.
        994   -1    0    0    0    0 -0.00000000000E+00 -0.00000000000E+00  0.11368683772E-12  0.17120000000E+03  0.17120000000E+03 0.  0.
         13    1    1    2    0    0 -0.17708577732E+02  0.24850669514E+02  0.33966449743E+02  0.45660490282E+02  0.10566000000E+00 0. -1.
        994    1    1    2    0    0  0.85231927996E+01 -0.19850516258E+02  0.13663858349E+02  0.17309774359E+03  0.17120000000E+03 0.  0.
        998    1    1    2    0    0  0.91853849323E+01 -0.50001532559E+01  0.14523696882E+04  0.14524417661E+04  0.10000000000E+02 0. -1.
</event>
<event>
 5    1  0.1252945E-008  0.3813271E+03  0.7957747E-01  0.3445400E+00
         13   -1    0    0    0    0  0.00000000000E+00  0.00000000000E+00  0.14999999963E+04  0.15000000000E+04  0.10566000000E+00 0.  1.
        994   -1    0    0    0    0 -0.00000000000E+00 -0.00000000000E+00  0.11368683772E-12  0.17120000000E+03  0.17120000000E+03 0.  0.
         13    1    1    2    0    0  0.13825259119E+02 -0.36854003340E+02  0.22034887814E+03  0.22383698223E+03  0.10566000000E+00 0.  1.
        994    1    1    2    0    0 -0.13540083438E+02  0.20371473401E+02  0.54587335955E+01  0.17302476285E+03  0.17120000000E+03 0.  0.
        998    1    1    2    0    0 -0.28517568172E+00  0.16482529939E+02  0.12741923845E+04  0.12743382549E+04  0.10000000000E+02 0.  0.
</event>
<event>
 5    1  0.1252945E-008  0.3905042E+03  0.7957747E-01  0.3406658E+00
         13   -1    0    0    0    0  0.00000000000E+00  0.00000000000E+00  0.14999999963E+04  0.15000000000E+04  0.10566000000E+00 0. -1.
        994   -1    0    0    0    0 -0.00000000000E+00 -0.00000000000E+00  0.11368683772E-12  0.17120000000E+03  0.17120000000E+03 0.  0.
         13    1    1    2    0    0 -0.11921103749E+02 -0.15522637427E+02 -0.15065311023E+01  0.19630226368E+02  0.10566000000E+00 0. -1.
        994    1    1    2    0    0  0.28458717272E+02  0.21266792132E+02  0.26993372313E+02  0.17691878698E+03  0.17120000000E+03 0.  0.
        998    1    1    2    0    0 -0.16537613523E+02 -0.57441547049E+01  0.14745131551E+04  0.14746509867E+04  0.10000000000E+02 0. -1.
</event>
<event>
 5    1  0.1252945E-008  0.3757926E+03  0.7957747E-01  0.3469685E+00
         13   -1    0    0    0    0  0.00000000000E+00  0.00000000000E+00  0.14999999963E+04  0.15000000000E+04  0.10566000000E+00 0. -1.
        994   -1    0    0    0    0 -0.00000000000E+00 -0.00000000000E+00  0.11368683772E-12  0.17120000000E+03  0.17120000000E+03 0.  0.
         13    1    1    2    0    0 -0.17982802141E+02 -0.14778553665E+02  0.42419094053E+02  0.48385716132E+02  0.10566000000E+00 0. -1.
        994    1    1    2    0    0  0.57384737698E+01 -0.40188332585E+01  0.64386792058E+01  0.17146421694E+03  0.17120000000E+03 0.  0.
        998    1    1    2    0    0  0.12244328371E+02  0.18797386924E+02  0.14511422230E+04  0.14513500669E+04  0.10000000000E+02 0. -1.
</event>
<event>
 5    1  0.1252945E-008  0.3687374E+03  0.7957747E-01  0.3501714E+00
         13   -1    0    0    0    0  0.00000000000E+00  0.00000000000E+00  0.14999999963E+04  0.15000000000E+04  0.10566000000E+00 0. -1.
        994   -1    0    0    0    0 -0.00000000000E+00 -0.00000000000E+00  0.11368683772E-12  0.17120000000E+03  0.17120000000E+03 0.  0.
         13    1    1    2    0    0  0.56884057795E+02  0.69728188083E+01  0.14347939057E+03  0.15450165991E+03  0.10566000000E+00 0. -1.
        994    1    1    2    0    0 -0.54517338987E+02 -0.94115479002E+01  0.21002862848E+02  0.18113883552E+03  0.17120000000E+03 0.  0.
        998    1    1    2    0    0 -0.23667188080E+01  0.24387290918E+01  0.13355177429E+04  0.13355595046E+04  0.10000000000E+02 0.  0.
</event>
<event>
 5    1  0.1252945E-008  0.3800498E+03  0.7957747E-01  0.3450942E+00
         13   -1    0    0    0    0  0.00000000000E+00  0.00000000000E+00  0.14999999963E+04  0.15000000000E+04  0.10566000000E+00 0. -1.
        994   -1    0    0    0    0 -0.00000000000E+00 -0.00000000000E+00  0.11368683772E-12  0.17120000000E+03  0.17120000000E+03 0.  0.
         13    1    1    2    0    0  0.23961568719E+02 -0.14028704294E+02  0.90092011201E+02  0.94273766053E+02  0.10566000000E+00 0. -1.
        994    1    1    2    0    0 -0.21894679943E+02  0.66543141242E+01  0.58602358966E+01  0.17282198723E+03  0.17120000000E+03 0.  0.
        998    1    1    2    0    0 -0.20668887754E+01  0.73743901694E+01  0.14040477492E+04  0.14041042467E+04  0.10000000000E+02 0. -1.
</event>
<event>
 5    1  0.1252945E-008  0.3791493E+03  0.7957747E-01  0.3454871E+00
         13   -1    0    0    0    0  0.00000000000E+00  0.00000000000E+00  0.14999999963E+04  0.15000000000E+04  0.10566000000E+00 0. -1.
        994   -1    0    0    0    0 -0.00000000000E+00 -0.00000000000E+00  0.11368683772E-12  0.17120000000E+03  0.17120000000E+03 0.  0.
         13    1    1    2    0    0 -0.81173695669E+01 -0.76416856648E+01  0.11430042705E+02  0.15966968678E+02  0.10566000000E+00 0. -1.
        994    1    1    2    0    0  0.10187404289E+02  0.10296821079E+02  0.52668219342E+01  0.17189237081E+03  0.17120000000E+03 0.  0.
        998    1    1    2    0    0 -0.20700347220E+01 -0.26551354143E+01  0.14833031316E+04  0.14833406605E+04  0.10000000000E+02 0. -1.
</event>
<event>
 5    1  0.1252945E-008  0.3798400E+03  0.7957747E-01  0.3451856E+00
         13   -1    0    0    0    0  0.00000000000E+00  0.00000000000E+00  0.14999999963E+04  0.15000000000E+04  0.10566000000E+00 0. -1.
        994   -1    0    0    0    0 -0.00000000000E+00 -0.00000000000E+00  0.11368683772E-12  0.17120000000E+03  0.17120000000E+03 0.  0.
         13    1    1    2    0    0 -0.17614141923E+02  0.23831723847E+02  0.10307315611E+03  0.10724875632E+03  0.10566000000E+00 0. -1.
        994    1    1    2    0    0 -0.81322330163E+01 -0.28143960488E+02  0.70897290364E+01  0.17383302328E+03  0.17120000000E+03 0.  0.
        998    1    1    2    0    0  0.25746374939E+02  0.43122366410E+01  0.13898371111E+04  0.13901182204E+04  0.10000000000E+02 0. -1.
</event>
<event>
 5    1  0.1252945E-008  0.3838258E+03  0.7957747E-01  0.3434667E+00
         13   -1    0    0    0    0  0.00000000000E+00  0.00000000000E+00  0.14999999963E+04  0.15000000000E+04  0.10566000000E+00 0. -1.
        994   -1    0    0    0    0 -0.00000000000E+00 -0.00000000000E+00  0.11368683772E-12  0.17120000000E+03  0.17120000000E+03 0.  0.
         13    1    1    2    0    0  0.79310032923E+01  0.75744994565E+01  0.25936530697E+02  0.28160054046E+02  0.10566000000E+00 0. -1.
        994    1    1    2    0    0 -0.10492999809E+02 -0.81918974870E+01  0.27994549561E+01  0.17173959118E+03  0.17120000000E+03 0.  0.
        998    1    1    2    0    0  0.25619965170E+01  0.61739803048E+00  0.14712640106E+04  0.14713003548E+04  0.10000000000E+02 0. -1.
</event>
<event>
 5    1  0.1252945E-008  0.3773809E+03  0.7957747E-01  0.3462643E+00
         13   -1    0    0    0    0  0.00000000000E+00  0.00000000000E+00  0.14999999963E+04  0.15000000000E+04  0.10566000000E+00 0. -1.
        994   -1    0    0    0    0 -0.00000000000E+00 -0.00000000000E+00  0.11368683772E-12  0.17120000000E+03  0.17120000000E+03 0.  0.
         13    1    1    2    0    0  0.82396297184E+02 -0.33970628553E+02  0.45786627118E+03  0.46645973764E+03  0.10566000000E+00 0. -1.
        994    1    1    2    0    0 -0.84882688965E+02  0.48654706193E+02  0.38452755894E+02  0.20089899392E+03  0.17120000000E+03 0.  0.
        998    1    1    2    0    0  0.24863917805E+01 -0.14684077640E+02  0.10036809692E+04  0.10038412684E+04  0.10000000000E+02 0. -1.
</event>
<event>
 5    1  0.1252945E-008  0.3814215E+03  0.7957747E-01  0.3444992E+00
         13   -1    0    0    0    0  0.00000000000E+00  0.00000000000E+00  0.14999999963E+04  0.15000000000E+04  0.10566000000E+00 0.  1.
        994   -1    0    0    0    0 -0.00000000000E+00 -0.00000000000E+00  0.11368683772E-12  0.17120000000E+03  0.17120000000E+03 0.  0.
         13    1    1    2    0    0  0.27733433658E+01 -0.22429973163E+02  0.69349111262E+02  0.72939053507E+02  0.10566000000E+00 0.  1.
        994    1    1    2    0    0 -0.38041063045E+02  0.23212842162E+02  0.10053547032E+02  0.17719049728E+03  0.17120000000E+03 0.  0.
        998    1    1    2    0    0  0.35267719679E+02 -0.78286899853E+00  0.14205973380E+04  0.14210704492E+04  0.10000000000E+02 0.  1.
</event>
<event>
 5    1  0.1252945E-008  0.3797692E+03  0.7957747E-01  0.3452164E+00
         13   -1    0    0    0    0  0.00000000000E+00  0.00000000000E+00  0.14999999963E+04  0.15000000000E+04  0.10566000000E+00 0.  1.
        994   -1    0    0    0    0 -0.00000000000E+00 -0.00000000000E+00  0.11368683772E-12  0.17120000000E+03  0.17120000000E+03 0.  0.
         13    1    1    2    0    0 -0.68545703218E+00  0.17424449791E+02  0.33401806300E+02  0.37679876990E+02  0.10566000000E+00 0.  1.
        994    1    1    2    0    0  0.19075058251E+02 -0.17596271126E+02  0.65060934657E+01  0.17327797280E+03  0.17120000000E+03 0.  0.
        998    1    1    2    0    0 -0.18389601218E+02  0.17182133536E+00  0.14600920965E+04  0.14602421502E+04  0.10000000000E+02 0.  1.
</event>
<event>
 5    1  0.1252945E-008  0.3790765E+03  0.7957747E-01  0.3455190E+00
         13   -1    0    0    0    0  0.00000000000E+00  0.00000000000E+00  0.14999999963E+04  0.15000000000E+04  0.10566000000E+00 0.  1.
        994   -1    0    0    0    0 -0.00000000000E+00 -0.00000000000E+00  0.11368683772E-12  0.17120000000E+03  0.17120000000E+03 0.  0.
         13    1    1    2    0    0 -0.32173149805E+02 -0.67186413765E+01  0.10711620558E+03  0.11204527823E+03  0.10566000000E+00 0.  1.
        994    1    1    2    0    0  0.35789684140E+02  0.13952487675E+01  0.89136554589E+01  0.17513349612E+03  0.17120000000E+03 0.  0.
        998    1    1    2    0    0 -0.36165343349E+01  0.53233926090E+01  0.13839701352E+04  0.13840212257E+04  0.10000000000E+02 0.  1.
</event>
<event>
 5    1  0.1252945E-008  0.3848346E+03  0.7957747E-01  0.3430374E+00
         13   -1    0    0    0    0  0.00000000000E+00  0.00000000000E+00  0.14999999963E+04  0.15000000000E+04  0.10566000000E+00 0. -1.
        994   -1    0    0    0    0 -0.00000000000E+00 -0.00000000000E+00  0.11368683772E-12  0.17120000000E+03  0.17120000000E+03 0.  0.
         13    1    1    2    0    0  0.17071974650E+02 -0.59331538160E+01  0.95538332411E+02  0.97232909843E+02  0.10566000000E+00 0. -1.
        994    1    1    2    0    0 -0.10258960213E+02  0.48678198319E+01  0.21366554948E+01  0.17158947296E+03  0.17120000000E+03 0.  0.
        998    1    1    2    0    0 -0.68130144371E+01  0.10653339840E+01  0.14023250084E+04  0.14023776172E+04  0.10000000000E+02 0. -1.
</event>
<event>
 5    1  0.1252945E-008  0.4044335E+03  0.7957747E-01  0.3351214E+00
         13   -1    0    0    0    0  0.00000000000E+00  0.00000000000E+00  0.14999999963E+04  0.15000000000E+04  0.10566000000E+00 0. -1.
        994   -1    0    0    0    0 -0.00000000000E+00 -0.00000000000E+00  0.11368683772E-12  0.17120000000E+03  0.17120000000E+03 0.  0.
         13    1    1    2    0    0 -0.88384617747E+01  0.42862685168E+02  0.19382473063E+02  0.47864596650E+02  0.10566000000E+00 0. -1.
        994    1    1    2    0    0  0.98281959992E+01 -0.41525674397E+02  0.37748857828E+02  0.18043112630E+03  0.17120000000E+03 0.  0.
        998    1    1    2    0    0 -0.98973422449E+00 -0.13370107712E+01  0.14428686654E+04  0.14429042770E+04  0.10000000000E+02 0. -1.
</event>
<event>
 5    1  0.1252945E-008  0.3846273E+03  0.7957747E-01  0.3431255E+00
         13   -1    0    0    0    0  0.00000000000E+00  0.00000000000E+00  0.14999999963E+04  0.15000000000E+04  0.10566000000E+00 0. -1.
        994   -1    0    0    0    0 -0.00000000000E+00 -0.00000000000E+00  0.11368683772E-12  0.17120000000E+03  0.17120000000E+03 0.  0.
         13    1    1    2    0    0  0.17628025454E+02 -0.79380597372E+01  0.97471802955E+02  0.99370637560E+02  0.10566000000E+00 0. -1.
        994    1    1    2    0    0 -0.21520250791E+02  0.79303418912E-01  0.33416947032E+01  0.17257964656E+03  0.17120000000E+03 0.  0.
        998    1    1    2    0    0  0.38922253363E+01  0.78587563183E+01  0.13991864986E+04  0.13992497159E+04  0.10000000000E+02 0. -1.
</event>
<event>
 5    1  0.1252945E-008  0.3773755E+03  0.7957747E-01  0.3462666E+00
         13   -1    0    0    0    0  0.00000000000E+00  0.00000000000E+00  0.14999999963E+04  0.15000000000E+04  0.10566000000E+00 0. -1.
        994   -1    0    0    0    0 -0.00000000000E+00 -0.00000000000E+00  0.11368683772E-12  0.17120000000E+03  0.17120000000E+03 0.  0.
         13    1    1    2    0    0 -0.47790422218E+01 -0.14526274309E+02  0.18908884810E+02  0.24318901674E+02  0.10566000000E+00 0. -1.
        994    1    1    2    0    0 -0.17880099988E+00  0.14785056721E+02  0.62014711187E+01  0.17194920214E+03  0.17120000000E+03 0.  0.
        998    1    1    2    0    0  0.49578432216E+01 -0.25878241217E+00  0.14748896404E+04  0.14749318962E+04  0.10000000000E+02 0. -1.
</event>
<event>
 5    1  0.1451345E-008  0.3865997E+03  0.7957747E-01  0.3422916E+00
         13   -1    0    0    0    0  0.00000000000E+00  0.00000000000E+00  0.14999999963E+04  0.15000000000E+04  0.10566000000E+00 0. -1.
        994   -1    0    0    0    0 -0.00000000000E+00 -0.00000000000E+00  0.11368683772E-12  0.17120000000E+03  0.17120000000E+03 0.  0.
         13    1    1    2    0    0 -0.10001886437E+02  0.97675826797E+00  0.58019584500E+02  0.58883572740E+02  0.10566000000E+00 0. -1.
        994    1    1    2    0    0  0.15252459515E+02  0.69955944134E+01  0.17597306697E+01  0.17202939433E+03  0.17120000000E+03 0.  0.
        998    1    1    2    0    0 -0.52505730784E+01 -0.79723526813E+01  0.14402206811E+04  0.14402870329E+04  0.10000000000E+02 0. -1.
</event>
<event>
 5    1  0.1252945E-008  0.3790088E+03  0.7957747E-01  0.3455486E+00
         13   -1    0    0    0    0  0.00000000000E+00  0.00000000000E+00  0.14999999963E+04  0.15000000000E+04  0.10566000000E+00 0. -1.
        994   -1    0    0    0    0 -0.00000000000E+00 -0.00000000000E+00  0.11368683772E-12  0.17120000000E+03  0.17120000000E+03 0.  0.
         13    1    1    2    0    0  0.14570286231E+02 -0.10331916462E+02  0.32115794301E+02  0.36748838706E+02  0.10566000000E+00 0. -1.
        994    1    1    2    0    0 -0.14981334173E+02  0.77701603992E+01  0.55901480850E+01  0.17212061330E+03  0.17120000000E+03 0.  0.
        998    1    1    2    0    0  0.41104794188E+00  0.25617560627E+01  0.14622940539E+04  0.14623305480E+04  0.10000000000E+02 0. -1.
</event>
<event>
 5    1  0.1252945E-008  0.3820163E+03  0.7957747E-01  0.3442426E+00
         13   -1    0    0    0    0  0.00000000000E+00  0.00000000000E+00  0.14999999963E+04  0.15000000000E+04  0.10566000000E+00 0. -1.
        994   -1    0    0    0    0 -0.00000000000E+00 -0.00000000000E+00  0.11368683772E-12  0.17120000000E+03  0.17120000000E+03 0.  0.
         13    1    1    2    0    0  0.15292490239E+02 -0.24495786899E+02  0.14699111662E+03  0.14980087904E+03  0.10566000000E+00 0. -1.
        994    1    1    2    0    0 -0.16741072153E+01  0.25675193131E+01  0.31499845277E+01  0.17125640774E+03  0.17120000000E+03 0.  0.
        998    1    1    2    0    0 -0.13618383023E+02  0.21928267586E+02  0.13498588951E+04  0.13501427132E+04  0.10000000000E+02 0. -1.
</event>
<event>
 5    1  0.1252945E-008  0.3703604E+03  0.7957747E-01  0.3494236E+00
         13   -1    0    0    0    0  0.00000000000E+00  0.00000000000E+00  0.14999999963E+04  0.15000000000E+04  0.10566000000E+00 0. -1.
        994   -1    0    0    0    0 -0.00000000000E+00 -0.00000000000E+00  0.11368683772E-12  0.17120000000E+03  0.17120000000E+03 0.  0.
         13    1    1    2    0    0  0.55183798243E+02 -0.28768924152E+02  0.18561143514E+03  0.19576648999E+03  0.10566000000E+00 0. -1.
        994    1    1    2    0    0 -0.45958250179E+02  0.45545668509E+02  0.23680565891E+02  0.18454478557E+03  0.17120000000E+03 0.  0.
        998    1    1    2    0    0 -0.92255480643E+01 -0.16776744357E+02  0.12907079952E+04  0.12908887244E+04  0.10000000000E+02 0. -1.
</event>
<event>
 5    1  0.1252945E-008  0.3827477E+03  0.7957747E-01  0.3439281E+00
         13   -1    0    0    0    0  0.00000000000E+00  0.00000000000E+00  0.14999999963E+04  0.15000000000E+04  0.10566000000E+00 0. -1.
        994   -1    0    0    0    0 -0.00000000000E+00 -0.00000000000E+00  0.11368683772E-12  0.17120000000E+03  0.17120000000E+03 0.  0.
         13    1    1    2    0    0  0.73760422832E+01 -0.11946366997E+02  0.34032345924E+02  0.36814853217E+02  0.10566000000E+00 0. -1.
        994    1    1    2    0    0 -0.11150865105E+02  0.12008895007E+02  0.36426851021E+01  0.17202111646E+03  0.17120000000E+03 0.  0.
        998    1    1    2    0    0  0.37748228220E+01 -0.62528009412E-01  0.14623249653E+04  0.14623640303E+04  0.10000000000E+02 0. -1.
</event>
<event>
 5    1  0.1252945E-008  0.3792590E+03  0.7957747E-01  0.3454391E+00
         13   -1    0    0    0    0  0.00000000000E+00  0.00000000000E+00  0.14999999963E+04  0.15000000000E+04  0.10566000000E+00 0. -1.
        994   -1    0    0    0    0 -0.00000000000E+00 -0.00000000000E+00  0.11368683772E-12  0.17120000000E+03  0.17120000000E+03 0.  0.
         13    1    1    2    0    0  0.27302630393E+01  0.25435495032E+02  0.69585118519E+02  0.74138509745E+02  0.10566000000E+00 0. -1.
        994    1    1    2    0    0 -0.33110491064E+01 -0.20538116305E+02  0.59592754396E+01  0.17256225031E+03  0.17120000000E+03 0.  0.
        998    1    1    2    0    0  0.58078606706E+00 -0.48973787273E+01  0.14244556023E+04  0.14244992399E+04  0.10000000000E+02 0.  0.
</event>
<event>
 5    1  0.1252945E-008  0.3824426E+03  0.7957747E-01  0.3440592E+00
         13   -1    0    0    0    0  0.00000000000E+00  0.00000000000E+00  0.14999999963E+04  0.15000000000E+04  0.10566000000E+00 0.  1.
        994   -1    0    0    0    0 -0.00000000000E+00 -0.00000000000E+00  0.11368683772E-12  0.17120000000E+03  0.17120000000E+03 0.  0.
         13    1    1    2    0    0 -0.15266165038E+02  0.38953383218E+01  0.42496968064E+02  0.45323646304E+02  0.10566000000E+00 0.  1.
        994    1    1    2    0    0  0.58882160418E+01 -0.15551538070E+01  0.30282161261E+01  0.17133505095E+03  0.17120000000E+03 0.  0.
        998    1    1    2    0    0  0.93779489965E+01 -0.23401845148E+01  0.14544748121E+04  0.14545413027E+04  0.10000000000E+02 0.  1.
</event>
<event>
 5    1  0.1252945E-008  0.3997140E+03  0.7957747E-01  0.3369569E+00
         13   -1    0    0    0    0  0.00000000000E+00  0.00000000000E+00  0.14999999963E+04  0.15000000000E+04  0.10566000000E+00 0.  1.
        994   -1    0    0    0    0 -0.00000000000E+00 -0.00000000000E+00  0.11368683772E-12  0.17120000000E+03  0.17120000000E+03 0.  0.
         13    1    1    2    0    0  0.99276909629E+02 -0.86609178121E+02  0.35104690535E+03  0.37495465785E+03  0.10566000000E+00 0.  1.
        994    1    1    2    0    0 -0.67759952748E+02  0.68742305587E+01  0.45981256636E+02  0.18990098000E+03  0.17120000000E+03 0.  0.
        998    1    1    2    0    0 -0.31516956881E+02  0.79734947562E+02  0.11029718343E+04  0.11063443622E+04  0.10000000000E+02 0.  1.
</event>
<event>
 5    1  0.1252945E-008  0.3798300E+03  0.7957747E-01  0.3451899E+00
         13   -1    0    0    0    0  0.00000000000E+00  0.00000000000E+00  0.14999999963E+04  0.15000000000E+04  0.10566000000E+00 0.  1.
        994   -1    0    0    0    0 -0.00000000000E+00 -0.00000000000E+00  0.11368683772E-12  0.17120000000E+03  0.17120000000E+03 0.  0.
         13    1    1    2    0    0 -0.95870947826E+01  0.70277255577E+01  0.15078962424E+02  0.19201239145E+02  0.10566000000E+00 0.  1.
        994    1    1    2    0    0  0.33773812212E+01 -0.31092779924E+01  0.42894958237E+01  0.17131524768E+03  0.17120000000E+03 0.  0.
        998    1    1    2    0    0  0.62097135614E+01 -0.39184475653E+01  0.14806315380E+04  0.14806835132E+04  0.10000000000E+02 0.  1.
</event>
<event>
 5    1  0.1252945E-008  0.3801860E+03  0.7957747E-01  0.3450349E+00
         13   -1    0    0    0    0  0.00000000000E+00  0.00000000000E+00  0.14999999963E+04  0.15000000000E+04  0.10566000000E+00 0. -1.
        994   -1    0    0    0    0 -0.00000000000E+00 -0.00000000000E+00  0.11368683772E-12  0.17120000000E+03  0.17120000000E+03 0.  0.
         13    1    1    2    0    0 -0.23867622561E+02 -0.24105165347E+01  0.76862549364E+02  0.80519169490E+02  0.10566000000E+00 0. -1.
        994    1    1    2    0    0 -0.51632301714E+01 -0.56406638308E+01  0.42346490652E+01  0.17142300979E+03  0.17120000000E+03 0.  0.
        998    1    1    2    0    0  0.29030852733E+02  0.80511803655E+01  0.14189027978E+04  0.14192578207E+04  0.10000000000E+02 0. -1.
</event>
<event>
 5    1  0.1252945E-008  0.3815167E+03  0.7957747E-01  0.3444581E+00
         13   -1    0    0    0    0  0.00000000000E+00  0.00000000000E+00  0.14999999963E+04  0.15000000000E+04  0.10566000000E+00 0.  1.
        994   -1    0    0    0    0 -0.00000000000E+00 -0.00000000000E+00  0.11368683772E-12  0.17120000000E+03  0.17120000000E+03 0.  0.
         13    1    1    2    0    0  0.20252554430E+02 -0.61877118081E+00  0.59655234507E+02  0.63002436515E+02  0.10566000000E+00 0.  1.
        994    1    1    2    0    0 -0.13286084733E+02  0.66545815000E+01  0.41042534589E+01  0.17189266534E+03  0.17120000000E+03 0.  0.
        998    1    1    2    0    0 -0.69664696971E+01 -0.60358103192E+01  0.14362405083E+04  0.14363048981E+04  0.10000000000E+02 0.  1.
</event>
<event>
 5    1  0.1252945E-008  0.3692003E+03  0.7957747E-01  0.3499574E+00
         13   -1    0    0    0    0  0.00000000000E+00  0.00000000000E+00  0.14999999963E+04  0.15000000000E+04  0.10566000000E+00 0. -1.
        994   -1    0    0    0    0 -0.00000000000E+00 -0.00000000000E+00  0.11368683772E-12  0.17120000000E+03  0.17120000000E+03 0.  0.
         13    1    1    2    0    0  0.17715138970E+03 -0.45538081238E+02  0.63867290808E+03  0.66434887401E+03  0.10566000000E+00 0. -1.
        994    1    1    2    0    0 -0.19276830357E+03  0.75911346362E+02  0.17746629012E+03  0.32206501750E+03  0.17120000000E+03 0.  0.
        998    1    1    2    0    0  0.15616913872E+02 -0.30373265124E+02  0.68386079808E+03  0.68478610849E+03  0.10000000000E+02 0. -1.
</event>
<event>
 5    1  0.1252945E-008  0.3782840E+03  0.7957747E-01  0.3458665E+00
         13   -1    0    0    0    0  0.00000000000E+00  0.00000000000E+00  0.14999999963E+04  0.15000000000E+04  0.10566000000E+00 0.  1.
        994   -1    0    0    0    0 -0.00000000000E+00 -0.00000000000E+00  0.11368683772E-12  0.17120000000E+03  0.17120000000E+03 0.  0.
         13    1    1    2    0    0 -0.50339691838E+02 -0.62747734590E+01  0.21511470533E+03  0.22101539532E+03  0.10566000000E+00 0.  1.
        994    1    1    2    0    0  0.53980701482E+02  0.46197502268E+01  0.14934408927E+02  0.18018805397E+03  0.17120000000E+03 0.  0.
        998    1    1    2    0    0 -0.36410096446E+01  0.16550232322E+01  0.12699508820E+04  0.12699965507E+04  0.10000000000E+02 0.  1.
</event>
<event>
 5    1  0.1252945E-008  0.3742833E+03  0.7957747E-01  0.3476434E+00
         13   -1    0    0    0    0  0.00000000000E+00  0.00000000000E+00  0.14999999963E+04  0.15000000000E+04  0.10566000000E+00 0.  1.
        994   -1    0    0    0    0 -0.00000000000E+00 -0.00000000000E+00  0.11368683772E-12  0.17120000000E+03  0.17120000000E+03 0.  0.
         13    1    1    2    0    0 -0.54974164086E+02  0.42750109172E+01  0.24879206277E+03  0.25482922929E+03  0.10566000000E+00 0.  1.
        994    1    1    2    0    0  0.10288731619E+02  0.12621342466E+02  0.79512508167E+01  0.17215637854E+03  0.17120000000E+03 0.  0.
        998    1    1    2    0    0  0.44685432467E+02 -0.16896353384E+02  0.12432566827E+04  0.12442143922E+04  0.10000000000E+02 0.  1.
</event>
<event>
 5    1  0.1252945E-008  0.3711829E+03  0.7957747E-01  0.3490472E+00
         13   -1    0    0    0    0  0.00000000000E+00  0.00000000000E+00  0.14999999963E+04  0.15000000000E+04  0.10566000000E+00 0.  1.
        994   -1    0    0    0    0 -0.00000000000E+00 -0.00000000000E+00  0.11368683772E-12  0.17120000000E+03  0.17120000000E+03 0.  0.
         13    1    1    2    0    0 -0.14692897722E+03 -0.90861427148E+02  0.86742300704E+03  0.88445836962E+03  0.10566000000E+00 0.  1.
        994    1    1    2    0    0  0.13251954666E+03  0.80231148365E+02  0.96447438414E+02  0.25021993484E+03  0.17120000000E+03 0.  0.
        998    1    1    2    0    0  0.14409430562E+02  0.10630278783E+02  0.53612955082E+03  0.53652169554E+03  0.10000000000E+02 0. -1.
</event>
<event>
 5    1  0.1252945E-008  0.3839515E+03  0.7957747E-01  0.3434131E+00
         13   -1    0    0    0    0  0.00000000000E+00  0.00000000000E+00  0.14999999963E+04  0.15000000000E+04  0.10566000000E+00 0.  1.
        994   -1    0    0    0    0 -0.00000000000E+00 -0.00000000000E+00  0.11368683772E-12  0.17120000000E+03  0.17120000000E+03 0.  0.
         13    1    1    2    0    0 -0.73764745635E+01 -0.19778624284E+02  0.10361533609E+03  0.10574381965E+03  0.10566000000E+00 0.  1.
        994    1    1    2    0    0  0.99003754529E+01  0.97034854938E+01  0.27859964234E+01  0.17178293524E+03  0.17120000000E+03 0.  0.
        998    1    1    2    0    0 -0.25239008894E+01  0.10075138791E+02  0.13935986638E+04  0.13936732451E+04  0.10000000000E+02 0.  1.
</event>
<event>
 5    1  0.1252945E-008  0.3794023E+03  0.7957747E-01  0.3453765E+00
         13   -1    0    0    0    0  0.00000000000E+00  0.00000000000E+00  0.14999999963E+04  0.15000000000E+04  0.10566000000E+00 0.  1.
        994   -1    0    0    0    0 -0.00000000000E+00 -0.00000000000E+00  0.11368683772E-12  0.17120000000E+03  0.17120000000E+03 0.  0.
         13    1    1    2    0    0 -0.22981356202E+02  0.62910641164E+01  0.60862204353E+02  0.65360074229E+02  0.10566000000E+00 0.  1.
        994    1    1    2    0    0  0.14010808452E+02 -0.30615559390E+02  0.82415761410E+01  0.17467392137E+03  0.17120000000E+03 0.  0.
        998    1    1    2    0    0  0.89705477495E+01  0.24324495274E+02  0.14308962158E+04  0.14311660044E+04  0.10000000000E+02 0.  1.
</event>
<event>
 5    1  0.1252945E-008  0.3796985E+03  0.7957747E-01  0.3452472E+00
         13   -1    0    0    0    0  0.00000000000E+00  0.00000000000E+00  0.14999999963E+04  0.15000000000E+04  0.10566000000E+00 0. -1.
        994   -1    0    0    0    0 -0.00000000000E+00 -0.00000000000E+00  0.11368683772E-12  0.17120000000E+03  0.17120000000E+03 0.  0.
         13    1    1    2    0    0  0.54588726962E+01 -0.19098409888E+02  0.44649920548E+02  0.48868958659E+02  0.10566000000E+00 0. -1.
        994    1    1    2    0    0 -0.48650381478E+01  0.10606784686E+02  0.47412032574E+01  0.17166272597E+03  0.17120000000E+03 0.  0.
        998    1    1    2    0    0 -0.59383454845E+00  0.84916252022E+01  0.14506088725E+04  0.14506683154E+04  0.10000000000E+02 0. -1.
</event>
<event>
 5    1  0.1629198E-008  0.3862435E+03  0.7957747E-01  0.3424415E+00
         13   -1    0    0    0    0  0.00000000000E+00  0.00000000000E+00  0.14999999963E+04  0.15000000000E+04  0.10566000000E+00 0.  1.
        994   -1    0    0    0    0 -0.00000000000E+00 -0.00000000000E+00  0.11368683772E-12  0.17120000000E+03  0.17120000000E+03 0.  0.
         13    1    1    2    0    0  0.10897878567E+02  0.48503226907E+01  0.68473297211E+02  0.69504625619E+02  0.10566000000E+00 0.  1.
        994    1    1    2    0    0 -0.12537811666E+02 -0.34980969534E+01  0.15691678975E+01  0.17170129787E+03  0.17120000000E+03 0.  0.
        998    1    1    2    0    0  0.16399330993E+01 -0.13522257373E+01  0.14299575312E+04  0.14299940765E+04  0.10000000000E+02 0.  1.
</event>
<event>
 5    1  0.1252945E-008  0.3854988E+03  0.7957747E-01  0.3427559E+00
         13   -1    0    0    0    0  0.00000000000E+00  0.00000000000E+00  0.14999999963E+04  0.15000000000E+04  0.10566000000E+00 0. -1.
        994   -1    0    0    0    0 -0.00000000000E+00 -0.00000000000E+00  0.11368683772E-12  0.17120000000E+03  0.17120000000E+03 0.  0.
         13    1    1    2    0    0 -0.46888059078E+01 -0.10790207293E+02  0.52048757233E+02  0.53361950562E+02  0.10566000000E+00 0. -1.
        994    1    1    2    0    0 -0.25860693558E+01  0.36277569522E+01  0.14478591128E+01  0.17126407875E+03  0.17120000000E+03 0.  0.
        998    1    1    2    0    0  0.72748752636E+01  0.71624503404E+01  0.14465033799E+04  0.14465739707E+04  0.10000000000E+02 0. -1.
</event>
<event>
 5    1  0.1252945E-008  0.3836784E+03  0.7957747E-01  0.3435297E+00
         13   -1    0    0    0    0  0.00000000000E+00  0.00000000000E+00  0.14999999963E+04  0.15000000000E+04  0.10566000000E+00 0. -1.
        994   -1    0    0    0    0 -0.00000000000E+00 -0.00000000000E+00  0.11368683772E-12  0.17120000000E+03  0.17120000000E+03 0.  0.
         13    1    1    2    0    0 -0.59259158138E+01  0.10961004696E+02  0.33723187043E+02  0.35951698298E+02  0.10566000000E+00 0. -1.
        994    1    1    2    0    0 -0.13767350471E+01 -0.65437364749E+01  0.24353970510E+01  0.17134785393E+03  0.17120000000E+03 0.  0.
        998    1    1    2    0    0  0.73026508610E+01 -0.44172682215E+01  0.14638414122E+04  0.14639004478E+04  0.10000000000E+02 0. -1.
</event>
<event>
 5    1  0.1252945E-008  0.3721507E+03  0.7957747E-01  0.3486065E+00
         13   -1    0    0    0    0  0.00000000000E+00  0.00000000000E+00  0.14999999963E+04  0.15000000000E+04  0.10566000000E+00 0. -1.
        994   -1    0    0    0    0 -0.00000000000E+00 -0.00000000000E+00  0.11368683772E-12  0.17120000000E+03  0.17120000000E+03 0.  0.
         13    1    1    2    0    0  0.13205979938E+03 -0.32896412918E+02  0.64162717665E+03  0.65590198168E+03  0.10566000000E+00 0. -1.
        994    1    1    2    0    0 -0.13748702556E+03  0.32046024494E+01  0.76143223352E+02  0.23242242176E+03  0.17120000000E+03 0.  0.
        998    1    1    2    0    0  0.54272261765E+01  0.29691810469E+02  0.78222959628E+03  0.78287559656E+03  0.10000000000E+02 0. -1.
</event>
<event>
 5    1  0.1252945E-008  0.3755743E+03  0.7957747E-01  0.3470658E+00
         13   -1    0    0    0    0  0.00000000000E+00  0.00000000000E+00  0.14999999963E+04  0.15000000000E+04  0.10566000000E+00 0.  1.
        994   -1    0    0    0    0 -0.00000000000E+00 -0.00000000000E+00  0.11368683772E-12  0.17120000000E+03  0.17120000000E+03 0.  0.
         13    1    1    2    0    0 -0.78816933678E+01 -0.46867304902E+02  0.15726019087E+03  0.16428464370E+03  0.10566000000E+00 0.  1.
        994    1    1    2    0    0  0.18965413858E+02  0.45342949311E+02  0.14623993850E+02  0.17871477603E+03  0.17120000000E+03 0.  0.
        998    1    1    2    0    0 -0.11083720490E+02  0.15243555908E+01  0.13281158116E+04  0.13282005803E+04  0.10000000000E+02 0.  1.
</event>
<event>
 5    1  0.1252945E-008  0.3857276E+03  0.7957747E-01  0.3426592E+00
         13   -1    0    0    0    0  0.00000000000E+00  0.00000000000E+00  0.14999999963E+04  0.15000000000E+04  0.10566000000E+00 0. -1.
        994   -1    0    0    0    0 -0.00000000000E+00 -0.00000000000E+00  0.11368683772E-12  0.17120000000E+03  0.17120000000E+03 0.  0.
         13    1    1    2    0    0  0.11362217223E+02 -0.24444290142E+01  0.55523109597E+02  0.56726555305E+02  0.10566000000E+00 0. -1.
        994    1    1    2    0    0 -0.98420518220E+00  0.77703739064E+01  0.14706219735E+01  0.17138538473E+03  0.17120000000E+03 0.  0.
        998    1    1    2    0    0 -0.10378012040E+02 -0.53259448922E+01  0.14430062647E+04  0.14430880600E+04  0.10000000000E+02 0. -1.
</event>
<event>
 5    1  0.1252945E-008  0.3841295E+03  0.7957747E-01  0.3433372E+00
         13   -1    0    0    0    0  0.00000000000E+00  0.00000000000E+00  0.14999999963E+04  0.15000000000E+04  0.10566000000E+00 0. -1.
        994   -1    0    0    0    0 -0.00000000000E+00 -0.00000000000E+00  0.11368683772E-12  0.17120000000E+03  0.17120000000E+03 0.  0.
         13    1    1    2    0    0 -0.19206384001E+02 -0.13654895141E+02  0.12354725289E+03  0.12577470417E+03  0.10566000000E+00 0. -1.
        994    1    1    2    0    0  0.28240010917E+02  0.41856831343E+01  0.47554493099E+01  0.17362912330E+03  0.17120000000E+03 0.  0.
        998    1    1    2    0    0 -0.90336269162E+01  0.94692120070E+01  0.13716972941E+04  0.13717961725E+04  0.10000000000E+02 0. -1.
</event>
<event>
 5    1  0.1252945E-008  0.3784323E+03  0.7957747E-01  0.3458013E+00
         13   -1    0    0    0    0  0.00000000000E+00  0.00000000000E+00  0.14999999963E+04  0.15000000000E+04  0.10566000000E+00 0.  1.
        994   -1    0    0    0    0 -0.00000000000E+00 -0.00000000000E+00  0.11368683772E-12  0.17120000000E+03  0.17120000000E+03 0.  0.
         13    1    1    2    0    0  0.26881885377E+02  0.12339118071E+01  0.16639354959E+02  0.31639178201E+02  0.10566000000E+00 0.  1.
        994    1    1    2    0    0 -0.26757339848E+02  0.22239806233E+01  0.18070275116E+02  0.17423224779E+03  0.17120000000E+03 0.  0.
        998    1    1    2    0    0 -0.12454552854E+00 -0.34578924304E+01  0.14652903662E+04  0.14653285740E+04  0.10000000000E+02 0.  1.
</event>
<event>
 5    1  0.1252945E-008  0.3849145E+03  0.7957747E-01  0.3430035E+00
         13   -1    0    0    0    0  0.00000000000E+00  0.00000000000E+00  0.14999999963E+04  0.15000000000E+04  0.10566000000E+00 0. -1.
        994   -1    0    0    0    0 -0.00000000000E+00 -0.00000000000E+00  0.11368683772E-12  0.17120000000E+03  0.17120000000E+03 0.  0.
         13    1    1    2    0    0 -0.19094775238E+02  0.37246419834E+01  0.10893203880E+03  0.11065569863E+03  0.10566000000E+00 0. -1.
        994    1    1    2    0    0  0.15743532410E+02 -0.83047928058E+01  0.27155176971E+01  0.17214424891E+03  0.17120000000E+03 0.  0.
        998    1    1    2    0    0  0.33512428280E+01  0.45801508224E+01  0.13883524398E+04  0.13884000525E+04  0.10000000000E+02 0. -1.
</event>
<event>
 5    1  0.1252945E-008  0.3694546E+03  0.7957747E-01  0.3498401E+00
         13   -1    0    0    0    0  0.00000000000E+00  0.00000000000E+00  0.14999999963E+04  0.15000000000E+04  0.10566000000E+00 0. -1.
        994   -1    0    0    0    0 -0.00000000000E+00 -0.00000000000E+00  0.11368683772E-12  0.17120000000E+03  0.17120000000E+03 0.  0.
         13    1    1    2    0    0  0.52424489044E+01 -0.17154002741E+02  0.10209400020E+02  0.20639430548E+02  0.10566000000E+00 0. -1.
        994    1    1    2    0    0 -0.82434628763E+01  0.18580479468E+02  0.12093778268E+02  0.17282617964E+03  0.17120000000E+03 0.  0.
        998    1    1    2    0    0  0.30010139719E+01 -0.14264767269E+01  0.14776968180E+04  0.14777343898E+04  0.10000000000E+02 0. -1.
</event>
<event>
 5    1  0.1252945E-008  0.3722010E+03  0.7957747E-01  0.3485836E+00
         13   -1    0    0    0    0  0.00000000000E+00  0.00000000000E+00  0.14999999963E+04  0.15000000000E+04  0.10566000000E+00 0. -1.
        994   -1    0    0    0    0 -0.00000000000E+00 -0.00000000000E+00  0.11368683772E-12  0.17120000000E+03  0.17120000000E+03 0.  0.
         13    1    1    2    0    0  0.29944395289E+01  0.51625362896E+02  0.19880961697E+03  0.20542497347E+03  0.10566000000E+00 0. -1.
        994    1    1    2    0    0 -0.65460736428E+01  0.63896541048E+01  0.84103329865E+01  0.17165037856E+03  0.17120000000E+03 0.  0.
        998    1    1    2    0    0  0.35516341138E+01 -0.58015017001E+02  0.12927800463E+04  0.12941246480E+04  0.10000000000E+02 0. -1.
</event>
<event>
 5    1  0.1252945E-008  0.3705852E+03  0.7957747E-01  0.3493206E+00
         13   -1    0    0    0    0  0.00000000000E+00  0.00000000000E+00  0.14999999963E+04  0.15000000000E+04  0.10566000000E+00 0.  1.
        994   -1    0    0    0    0 -0.00000000000E+00 -0.00000000000E+00  0.11368683772E-12  0.17120000000E+03  0.17120000000E+03 0.  0.
         13    1    1    2    0    0  0.31723930474E+02  0.29397049190E+02  0.10764958018E+03  0.11601309212E+03  0.10566000000E+00 0.  1.
        994    1    1    2    0    0  0.14664395355E+02 -0.32669510022E+02  0.13401392888E+02  0.17541772632E+03  0.17120000000E+03 0.  0.
        998    1    1    2    0    0 -0.46388325829E+02  0.32724608327E+01  0.13789490232E+04  0.13797691816E+04  0.10000000000E+02 0.  1.
</event>
<event>
 5    1  0.1252945E-008  0.3691667E+03  0.7957747E-01  0.3499729E+00
         13   -1    0    0    0    0  0.00000000000E+00  0.00000000000E+00  0.14999999963E+04  0.15000000000E+04  0.10566000000E+00 0. -1.
        994   -1    0    0    0    0 -0.00000000000E+00 -0.00000000000E+00  0.11368683772E-12  0.17120000000E+03  0.17120000000E+03 0.  0.
         13    1    1    2    0    0 -0.19054038394E+02  0.72315621648E+02  0.20663145183E+03  0.21974797738E+03  0.10566000000E+00 0. -1.
        994    1    1    2    0    0  0.66932640503E+02 -0.93185344821E+02  0.56845108686E+02  0.21378562448E+03  0.17120000000E+03 0.  0.
        998    1    1    2    0    0 -0.47878602109E+02  0.20869723173E+02  0.12365234358E+04  0.12376663981E+04  0.10000000000E+02 0. -1.
</event>
<event>
 5    1  0.1252945E-008  0.3765093E+03  0.7957747E-01  0.3466500E+00
         13   -1    0    0    0    0  0.00000000000E+00  0.00000000000E+00  0.14999999963E+04  0.15000000000E+04  0.10566000000E+00 0.  1.
        994   -1    0    0    0    0 -0.00000000000E+00 -0.00000000000E+00  0.11368683772E-12  0.17120000000E+03  0.17120000000E+03 0.  0.
         13    1    1    2    0    0  0.38775229172E+02  0.25293039046E+02  0.18545265802E+03  0.19114380909E+03  0.10566000000E+00 0.  1.
        994    1    1    2    0    0 -0.16811662401E+02 -0.13608146741E+02  0.74894598683E+01  0.17272332112E+03  0.17120000000E+03 0.  0.
        998    1    1    2    0    0 -0.21963566771E+02 -0.11684892305E+02  0.13070578784E+04  0.13073328698E+04  0.10000000000E+02 0.  1.
</event>
<event>
 5    1  0.1252945E-008  0.3854787E+03  0.7957747E-01  0.3427644E+00
         13   -1    0    0    0    0  0.00000000000E+00  0.00000000000E+00  0.14999999963E+04  0.15000000000E+04  0.10566000000E+00 0. -1.
        994   -1    0    0    0    0 -0.00000000000E+00 -0.00000000000E+00  0.11368683772E-12  0.17120000000E+03  0.17120000000E+03 0.  0.
         13    1    1    2    0    0  0.57830107022E+01  0.13678020227E+02  0.75757116069E+02  0.77198984768E+02  0.10566000000E+00 0. -1.
        994    1    1    2    0    0 -0.10030201936E+02 -0.13631280940E+02  0.23336635912E+01  0.17205029136E+03  0.17120000000E+03 0.  0.
        998    1    1    2    0    0  0.42471912341E+01 -0.46739286878E-01  0.14219092166E+04  0.14219507239E+04  0.10000000000E+02 0. -1.
</event>
<event>
 5    1  0.1252945E-008  0.3840069E+03  0.7957747E-01  0.3433895E+00
         13   -1    0    0    0    0  0.00000000000E+00  0.00000000000E+00  0.14999999963E+04  0.15000000000E+04  0.10566000000E+00 0. -1.
        994   -1    0    0    0    0 -0.00000000000E+00 -0.00000000000E+00  0.11368683772E-12  0.17120000000E+03  0.17120000000E+03 0.  0.
         13    1    1    2    0    0  0.15013855097E+02 -0.13138186961E+02  0.99214169045E+02  0.10120024854E+03  0.10566000000E+00 0. -1.
        994    1    1    2    0    0  0.90599264393E+00  0.68048841475E+01  0.22795189572E+01  0.17135274575E+03  0.17120000000E+03 0.  0.
        998    1    1    2    0    0 -0.15919847740E+02  0.63333028133E+01  0.13985063083E+04  0.13986470057E+04  0.10000000000E+02 0. -1.
</event>
<event>
 5    1  0.1252945E-008  0.3707892E+03  0.7957747E-01  0.3492272E+00
         13   -1    0    0    0    0  0.00000000000E+00  0.00000000000E+00  0.14999999963E+04  0.15000000000E+04  0.10566000000E+00 0. -1.
        994   -1    0    0    0    0 -0.00000000000E+00 -0.00000000000E+00  0.11368683772E-12  0.17120000000E+03  0.17120000000E+03 0.  0.
         13    1    1    2    0    0  0.87688923551E+02 -0.68401252475E+02  0.49916516556E+03  0.51140390332E+03  0.10566000000E+00 0. -1.
        994    1    1    2    0    0 -0.95109138195E+02  0.44367899027E+02  0.47853910707E+02  0.20643084896E+03  0.17120000000E+03 0.  0.
        998    1    1    2    0    0  0.74202146445E+01  0.24033353448E+02  0.95298092001E+03  0.95336524772E+03  0.10000000000E+02 0. -1.
</event>
<event>
 5    1  0.1252945E-008  0.3836183E+03  0.7957747E-01  0.3435553E+00
         13   -1    0    0    0    0  0.00000000000E+00  0.00000000000E+00  0.14999999963E+04  0.15000000000E+04  0.10566000000E+00 0.  1.
        994   -1    0    0    0    0 -0.00000000000E+00 -0.00000000000E+00  0.11368683772E-12  0.17120000000E+03  0.17120000000E+03 0.  0.
         13    1    1    2    0    0  0.17221303040E+02  0.51204839296E+00  0.60944996864E+02  0.63333555709E+02  0.10566000000E+00 0.  1.
        994    1    1    2    0    0 -0.19092372751E+02  0.19967946868E+01  0.35359636370E+01  0.17230916669E+03  0.17120000000E+03 0.  0.
        998    1    1    2    0    0  0.18710697108E+01 -0.25088430797E+01  0.14355190358E+04  0.14355572776E+04  0.10000000000E+02 0.  1.
</event>
<event>
 5    1  0.1252945E-008  0.3858561E+03  0.7957747E-01  0.3426050E+00
         13   -1    0    0    0    0  0.00000000000E+00  0.00000000000E+00  0.14999999963E+04  0.15000000000E+04  0.10566000000E+00 0.  1.
        994   -1    0    0    0    0 -0.00000000000E+00 -0.00000000000E+00  0.11368683772E-12  0.17120000000E+03  0.17120000000E+03 0.  0.
         13    1    1    2    0    0  0.47848276592E+01  0.11042740141E+02  0.60394030880E+02  0.61581546064E+02  0.10566000000E+00 0.  1.
        994    1    1    2    0    0 -0.93860386908E+01 -0.53798218492E+01  0.15896398706E+01  0.17154884774E+03  0.17120000000E+03 0.  0.
        998    1    1    2    0    0  0.46012110315E+01 -0.56629182923E+01  0.14380163255E+04  0.14380696062E+04  0.10000000000E+02 0.  1.
</event>
<event>
 5    1  0.1252945E-008  0.3708076E+03  0.7957747E-01  0.3492188E+00
         13   -1    0    0    0    0  0.00000000000E+00  0.00000000000E+00  0.14999999963E+04  0.15000000000E+04  0.10566000000E+00 0.  1.
        994   -1    0    0    0    0 -0.00000000000E+00 -0.00000000000E+00  0.11368683772E-12  0.17120000000E+03  0.17120000000E+03 0.  0.
         13    1    1    2    0    0  0.14078257917E+01 -0.60917839416E+02  0.31061853973E+03  0.31653886573E+03  0.10566000000E+00 0.  1.
        994    1    1    2    0    0 -0.54258036697E+02 -0.17409381750E+02  0.20127967419E+02  0.18155328747E+03  0.17120000000E+03 0.  0.
        998    1    1    2    0    0  0.52850210905E+02  0.78327221165E+02  0.11692534891E+04  0.11731078468E+04  0.10000000000E+02 0.  1.
</event>
<event>
 5    1  0.1252945E-008  0.3298516E+03  0.7957747E-01  0.3703547E+00
         13   -1    0    0    0    0  0.00000000000E+00  0.00000000000E+00  0.14999999963E+04  0.15000000000E+04  0.10566000000E+00 0. -1.
        994   -1    0    0    0    0 -0.00000000000E+00 -0.00000000000E+00  0.11368683772E-12  0.17120000000E+03  0.17120000000E+03 0.  0.
         13    1    1    2    0    0 -0.93089470857E+01 -0.22513089643E+03  0.81182116945E+03  0.84251065237E+03  0.10566000000E+00 0. -1.
        994    1    1    2    0    0 -0.29300708173E+02  0.21903838725E+03  0.21209492967E+03  0.35089891106E+03  0.17120000000E+03 0.  0.
        998    1    1    2    0    0  0.38609655259E+02  0.60925091752E+01  0.47608389716E+03  0.47779043657E+03  0.10000000000E+02 0. -1.
</event>
<event>
 5    1  0.1252945E-008  0.3846638E+03  0.7957747E-01  0.3431099E+00
         13   -1    0    0    0    0  0.00000000000E+00  0.00000000000E+00  0.14999999963E+04  0.15000000000E+04  0.10566000000E+00 0. -1.
        994   -1    0    0    0    0 -0.00000000000E+00 -0.00000000000E+00  0.11368683772E-12  0.17120000000E+03  0.17120000000E+03 0.  0.
         13    1    1    2    0    0  0.11103935659E+02 -0.32532061395E+01  0.38180131698E+02  0.39895041770E+02  0.10566000000E+00 0. -1.
        994    1    1    2    0    0 -0.17283549125E+01 -0.26093628221E+01  0.18294049210E+01  0.17123837977E+03  0.17120000000E+03 0.  0.
        998    1    1    2    0    0 -0.93755807467E+01  0.58625689616E+01  0.14599904597E+04  0.14600665785E+04  0.10000000000E+02 0. -1.
</event>
<event>
 5    1  0.1252945E-008  0.3823189E+03  0.7957747E-01  0.3441123E+00
         13   -1    0    0    0    0  0.00000000000E+00  0.00000000000E+00  0.14999999963E+04  0.15000000000E+04  0.10566000000E+00 0. -1.
        994   -1    0    0    0    0 -0.00000000000E+00 -0.00000000000E+00  0.11368683772E-12  0.17120000000E+03  0.17120000000E+03 0.  0.
         13    1    1    2    0    0 -0.68251715416E+01  0.10396272702E+02  0.26447834290E+02  0.29226093741E+02  0.10566000000E+00 0. -1.
        994    1    1    2    0    0  0.60383431236E+01  0.14784473038E+02  0.38137151801E+01  0.17198554199E+03  0.17120000000E+03 0.  0.
        998    1    1    2    0    0  0.78682841807E+00 -0.25180745741E+02  0.14697384468E+04  0.14699883643E+04  0.10000000000E+02 0. -1.
</event>
<event>
 5    1  0.1252945E-008  0.3845823E+03  0.7957747E-01  0.3431446E+00
         13   -1    0    0    0    0  0.00000000000E+00  0.00000000000E+00  0.14999999963E+04  0.15000000000E+04  0.10566000000E+00 0.  1.
        994   -1    0    0    0    0 -0.00000000000E+00 -0.00000000000E+00  0.11368683772E-12  0.17120000000E+03  0.17120000000E+03 0.  0.
         13    1    1    2    0    0 -0.86541605066E+01 -0.12518641762E+02  0.62028164798E+02  0.63867951884E+02  0.10566000000E+00 0.  1.
        994    1    1    2    0    0  0.84025320219E+01  0.89967775350E+01  0.23368844385E+01  0.17165793189E+03  0.17120000000E+03 0.  0.
        998    1    1    2    0    0  0.25162848469E+00  0.35218642270E+01  0.14356349470E+04  0.14356741162E+04  0.10000000000E+02 0.  1.
</event>
<event>
 5    1  0.1252945E-008  0.3695735E+03  0.7957747E-01  0.3497853E+00
         13   -1    0    0    0    0  0.00000000000E+00  0.00000000000E+00  0.14999999963E+04  0.15000000000E+04  0.10566000000E+00 0. -1.
        994   -1    0    0    0    0 -0.00000000000E+00 -0.00000000000E+00  0.11368683772E-12  0.17120000000E+03  0.17120000000E+03 0.  0.
         13    1    1    2    0    0  0.33217005830E+02 -0.57645887818E+02  0.18139410874E+03  0.19321038199E+03  0.10566000000E+00 0. -1.
        994    1    1    2    0    0 -0.26758434413E+01  0.72924296913E+02  0.29540893622E+02  0.18843358940E+03  0.17120000000E+03 0.  0.
        998    1    1    2    0    0 -0.30541162389E+02 -0.15278409095E+02  0.12890649939E+04  0.12895560286E+04  0.10000000000E+02 0. -1.
</event>
<event>
 5    1  0.1252945E-008  0.3826694E+03  0.7957747E-01  0.3439617E+00
         13   -1    0    0    0    0  0.00000000000E+00  0.00000000000E+00  0.14999999963E+04  0.15000000000E+04  0.10566000000E+00 0.  1.
        994   -1    0    0    0    0 -0.00000000000E+00 -0.00000000000E+00  0.11368683772E-12  0.17120000000E+03  0.17120000000E+03 0.  0.
         13    1    1    2    0    0  0.27654309097E+01 -0.18031487700E+02  0.58692054398E+02  0.61461781379E+02  0.10566000000E+00 0.  1.
        994    1    1    2    0    0 -0.32685226748E+01  0.11656973339E+02  0.32775286465E+01  0.17165881994E+03  0.17120000000E+03 0.  0.
        998    1    1    2    0    0  0.50309176512E+00  0.63745143616E+01  0.14380304132E+04  0.14380793987E+04  0.10000000000E+02 0.  1.
</event>
<event>
 5    1  0.1252945E-008  0.2527911E+03  0.7957747E-01  0.4303878E+00
         13   -1    0    0    0    0  0.00000000000E+00  0.00000000000E+00  0.14999999963E+04  0.15000000000E+04  0.10566000000E+00 0. -1.
        994   -1    0    0    0    0 -0.00000000000E+00 -0.00000000000E+00  0.11368683772E-12  0.17120000000E+03  0.17120000000E+03 0.  0.
         13    1    1    2    0    0 -0.16092964810E+03 -0.60690438985E+02  0.30972531440E+03  0.35427596950E+03  0.10566000000E+00 0. -1.
        994    1    1    2    0    0  0.15806257059E+03  0.63851716110E+02  0.16724980238E+03  0.29384137603E+03  0.17120000000E+03 0.  0.
        998    1    1    2    0    0  0.28670775105E+01 -0.31612771260E+01  0.10230248795E+04  0.10230826545E+04  0.10000000000E+02 0.  0.
</event>
<event>
 5    1  0.1252945E-008  0.3846806E+03  0.7957747E-01  0.3431028E+00
         13   -1    0    0    0    0  0.00000000000E+00  0.00000000000E+00  0.14999999963E+04  0.15000000000E+04  0.10566000000E+00 0.  1.
        994   -1    0    0    0    0 -0.00000000000E+00 -0.00000000000E+00  0.11368683772E-12  0.17120000000E+03  0.17120000000E+03 0.  0.
         13    1    1    2    0    0 -0.90652741634E+01  0.84429145742E+01  0.45050064039E+02  0.46722386884E+02  0.10566000000E+00 0.  1.
        994    1    1    2    0    0 -0.15501930652E+00  0.32513570820E+01  0.18236841198E+01  0.17124065282E+03  0.17120000000E+03 0.  0.
        998    1    1    2    0    0  0.92202934700E+01 -0.11694271656E+02  0.14531262481E+04  0.14532369603E+04  0.10000000000E+02 0.  1.
</event>
<event>
 5    1  0.1252945E-008  0.3835695E+03  0.7957747E-01  0.3435762E+00
         13   -1    0    0    0    0  0.00000000000E+00  0.00000000000E+00  0.14999999963E+04  0.15000000000E+04  0.10566000000E+00 0.  1.
        994   -1    0    0    0    0 -0.00000000000E+00 -0.00000000000E+00  0.11368683772E-12  0.17120000000E+03  0.17120000000E+03 0.  0.
         13    1    1    2    0    0 -0.12705010852E+02  0.14816970977E+02  0.88624763541E+02  0.90748662836E+02  0.10566000000E+00 0.  1.
        994    1    1    2    0    0  0.21376249469E+01  0.47784947206E+01  0.24325499497E+01  0.17129728764E+03  0.17120000000E+03 0.  0.
        998    1    1    2    0    0  0.10567385905E+02 -0.19595465698E+02  0.14089426828E+04  0.14091540495E+04  0.10000000000E+02 0.  1.
</event>
<event>
 5    1  0.1252945E-008  0.2846694E+03  0.7957747E-01  0.4011933E+00
         13   -1    0    0    0    0  0.00000000000E+00  0.00000000000E+00  0.14999999963E+04  0.15000000000E+04  0.10566000000E+00 0. -1.
        994   -1    0    0    0    0 -0.00000000000E+00 -0.00000000000E+00  0.11368683772E-12  0.17120000000E+03  0.17120000000E+03 0.  0.
         13    1    1    2    0    0  0.12820433594E+03  0.12032668395E+03  0.55051659953E+03  0.57791296935E+03  0.10566000000E+00 0. -1.
        994    1    1    2    0    0 -0.12287681164E+03 -0.11709900419E+03  0.13034192821E+03  0.27406084337E+03  0.17120000000E+03 0.  0.
        998    1    1    2    0    0 -0.53275242929E+01 -0.32276797631E+01  0.81914146854E+03  0.81922618728E+03  0.10000000000E+02 0. -1.
</event>
<event>
 5    1  0.1252945E-008  0.3844138E+03  0.7957747E-01  0.3432162E+00
         13   -1    0    0    0    0  0.00000000000E+00  0.00000000000E+00  0.14999999963E+04  0.15000000000E+04  0.10566000000E+00 0. -1.
        994   -1    0    0    0    0 -0.00000000000E+00 -0.00000000000E+00  0.11368683772E-12  0.17120000000E+03  0.17120000000E+03 0.  0.
         13    1    1    2    0    0 -0.20071311905E+01  0.21757104613E+02  0.12257901506E+03  0.12451114920E+03  0.10566000000E+00 0. -1.
        994    1    1    2    0    0  0.14577713704E+01 -0.14857368527E+02  0.26561110517E+01  0.17187018771E+03  0.17120000000E+03 0.  0.
        998    1    1    2    0    0  0.54935982005E+00 -0.68997360862E+01  0.13747648702E+04  0.13748186631E+04  0.10000000000E+02 0. -1.
</event>
<event>
 5    1  0.1252945E-008  0.3833448E+03  0.7957747E-01  0.3436723E+00
         13   -1    0    0    0    0  0.00000000000E+00  0.00000000000E+00  0.14999999963E+04  0.15000000000E+04  0.10566000000E+00 0. -1.
        994   -1    0    0    0    0 -0.00000000000E+00 -0.00000000000E+00  0.11368683772E-12  0.17120000000E+03  0.17120000000E+03 0.  0.
         13    1    1    2    0    0  0.14195876125E+02 -0.37460497997E+01  0.43548139133E+02  0.45956581401E+02  0.10566000000E+00 0. -1.
        994    1    1    2    0    0 -0.83189899885E+01 -0.18453586543E+00  0.26831220802E+01  0.17142309877E+03  0.17120000000E+03 0.  0.
        998    1    1    2    0    0 -0.58768861361E+01  0.39305856651E+01  0.14537687351E+04  0.14538203198E+04  0.10000000000E+02 0. -1.
</event>
<event>
 5    1  0.1252945E-008  0.3789370E+03  0.7957747E-01  0.3455800E+00
         13   -1    0    0    0    0  0.00000000000E+00  0.00000000000E+00  0.14999999963E+04  0.15000000000E+04  0.10566000000E+00 0. -1.
        994   -1    0    0    0    0 -0.00000000000E+00 -0.00000000000E+00  0.11368683772E-12  0.17120000000E+03  0.17120000000E+03 0.  0.
         13    1    1    2    0    0  0.15063306266E+02  0.26750297339E+01  0.23449315950E+02  0.27998938592E+02  0.10566000000E+00 0. -1.
        994    1    1    2    0    0 -0.60388332833E+01  0.32433161385E+01  0.48283506861E+01  0.17140519122E+03  0.17120000000E+03 0.  0.
        998    1    1    2    0    0 -0.90244729830E+01 -0.59183458724E+01  0.14717223296E+04  0.14717958702E+04  0.10000000000E+02 0. -1.
</event>
<event>
 5    1  0.1252945E-008  0.3841096E+03  0.7957747E-01  0.3433457E+00
         13   -1    0    0    0    0  0.00000000000E+00  0.00000000000E+00  0.14999999963E+04  0.15000000000E+04  0.10566000000E+00 0. -1.
        994   -1    0    0    0    0 -0.00000000000E+00 -0.00000000000E+00  0.11368683772E-12  0.17120000000E+03  0.17120000000E+03 0.  0.
         13    1    1    2    0    0  0.81569971535E+01  0.69000854197E+01  0.26400823026E+02  0.28480912939E+02  0.10566000000E+00 0. -1.
        994    1    1    2    0    0 -0.17137838068E+02  0.40243373822E+00  0.30426581150E+01  0.17208301838E+03  0.17120000000E+03 0.  0.
        998    1    1    2    0    0  0.89808409148E+01 -0.73025191579E+01  0.14705565151E+04  0.14706360687E+04  0.10000000000E+02 0. -1.
</event>
<event>
 5    1  0.1252945E-008  0.3739489E+03  0.7957747E-01  0.3477937E+00
         13   -1    0    0    0    0  0.00000000000E+00  0.00000000000E+00  0.14999999963E+04  0.15000000000E+04  0.10566000000E+00 0. -1.
        994   -1    0    0    0    0 -0.00000000000E+00 -0.00000000000E+00  0.11368683772E-12  0.17120000000E+03  0.17120000000E+03 0.  0.
         13    1    1    2    0    0 -0.94365157809E+02  0.44494470717E+02  0.48273897640E+03  0.49388406680E+03  0.10566000000E+00 0. -1.
        994    1    1    2    0    0  0.99175530318E+02 -0.41367097262E+02  0.47694138346E+02  0.20768050795E+03  0.17120000000E+03 0.  0.
        998    1    1    2    0    0 -0.48103725087E+01 -0.31273734551E+01  0.96956688153E+03  0.96963542525E+03  0.10000000000E+02 0. -1.
</event>
<event>
 5    1  0.1252945E-008  0.3810620E+03  0.7957747E-01  0.3446547E+00
         13   -1    0    0    0    0  0.00000000000E+00  0.00000000000E+00  0.14999999963E+04  0.15000000000E+04  0.10566000000E+00 0. -1.
        994   -1    0    0    0    0 -0.00000000000E+00 -0.00000000000E+00  0.11368683772E-12  0.17120000000E+03  0.17120000000E+03 0.  0.
         13    1    1    2    0    0  0.11557119213E+02 -0.32315824710E+01  0.18156014968E+02  0.21763781228E+02  0.10566000000E+00 0. -1.
        994    1    1    2    0    0 -0.15444239395E+02  0.39042262822E+01  0.44438346976E+01  0.17199696271E+03  0.17120000000E+03 0.  0.
        998    1    1    2    0    0  0.38871201821E+01 -0.67264381116E+00  0.14774001466E+04  0.14774392561E+04  0.10000000000E+02 0. -1.
</event>
<event>
 5    1  0.1252945E-008  0.3846758E+03  0.7957747E-01  0.3431048E+00
         13   -1    0    0    0    0  0.00000000000E+00  0.00000000000E+00  0.14999999963E+04  0.15000000000E+04  0.10566000000E+00 0.  1.
        994   -1    0    0    0    0 -0.00000000000E+00 -0.00000000000E+00  0.11368683772E-12  0.17120000000E+03  0.17120000000E+03 0.  0.
         13    1    1    2    0    0 -0.16567403252E+02  0.35674052277E+01  0.95164815238E+02  0.96662083848E+02  0.10566000000E+00 0.  1.
        994    1    1    2    0    0 -0.11695127940E+02  0.22444319683E+01  0.22581983470E+01  0.17162853187E+03  0.17120000000E+03 0.  0.
        998    1    1    2    0    0  0.28262531192E+02 -0.58118371960E+01  0.14025769827E+04  0.14029093843E+04  0.10000000000E+02 0.  1.
</event>
<event>
 5    1  0.1252945E-008  0.3807419E+03  0.7957747E-01  0.3447935E+00
         13   -1    0    0    0    0  0.00000000000E+00  0.00000000000E+00  0.14999999963E+04  0.15000000000E+04  0.10566000000E+00 0.  1.
        994   -1    0    0    0    0 -0.00000000000E+00 -0.00000000000E+00  0.11368683772E-12  0.17120000000E+03  0.17120000000E+03 0.  0.
         13    1    1    2    0    0  0.77122332237E+01 -0.23837511628E+02  0.81195555710E+02  0.84973142422E+02  0.10566000000E+00 0.  1.
        994    1    1    2    0    0 -0.27782017380E+01  0.18141946034E+02  0.48832341776E+01  0.17225020925E+03  0.17120000000E+03 0.  0.
        998    1    1    2    0    0 -0.49340314857E+01  0.56955655944E+01  0.14139212064E+04  0.14139766483E+04  0.10000000000E+02 0.  1.
</event>
<event>
 5    1  0.1252945E-008  0.3815449E+03  0.7957747E-01  0.3444459E+00
         13   -1    0    0    0    0  0.00000000000E+00  0.00000000000E+00  0.14999999963E+04  0.15000000000E+04  0.10566000000E+00 0. -1.
        994   -1    0    0    0    0 -0.00000000000E+00 -0.00000000000E+00  0.11368683772E-12  0.17120000000E+03  0.17120000000E+03 0.  0.
         13    1    1    2    0    0 -0.27813257113E+02 -0.22121311581E+02  0.16780753374E+03  0.17152932473E+03  0.10566000000E+00 0. -1.
        994    1    1    2    0    0  0.23552393349E+02  0.27970365619E+02  0.78150707496E+01  0.17523576095E+03  0.17120000000E+03 0.  0.
        998    1    1    2    0    0  0.42608637643E+01 -0.58490540379E+01  0.13243773918E+04  0.13244349143E+04  0.10000000000E+02 0. -1.
</event>
<event>
 5    1  0.1252945E-008  0.3806206E+03  0.7957747E-01  0.3448461E+00
         13   -1    0    0    0    0  0.00000000000E+00  0.00000000000E+00  0.14999999963E+04  0.15000000000E+04  0.10566000000E+00 0.  1.
        994   -1    0    0    0    0 -0.00000000000E+00 -0.00000000000E+00  0.11368683772E-12  0.17120000000E+03  0.17120000000E+03 0.  0.
         13    1    1    2    0    0 -0.16078519957E+02 -0.23925216070E+01  0.32262739205E+02  0.36126700219E+02  0.10566000000E+00 0.  1.
        994    1    1    2    0    0  0.18740595237E+02  0.29538050844E+01  0.50218642190E+01  0.17232119427E+03  0.17120000000E+03 0.  0.
        998    1    1    2    0    0 -0.26620752797E+01 -0.56128347745E+00  0.14627153929E+04  0.14627521055E+04  0.10000000000E+02 0.  1.
</event>
<event>
 5    1  0.1252945E-008  0.3834659E+03  0.7957747E-01  0.3436205E+00
         13   -1    0    0    0    0  0.00000000000E+00  0.00000000000E+00  0.14999999963E+04  0.15000000000E+04  0.10566000000E+00 0.  1.
        994   -1    0    0    0    0 -0.00000000000E+00 -0.00000000000E+00  0.11368683772E-12  0.17120000000E+03  0.17120000000E+03 0.  0.
         13    1    1    2    0    0  0.28429946268E+02 -0.11611558783E+02  0.17984006239E+03  0.18244327707E+03  0.10566000000E+00 0.  1.
        994    1    1    2    0    0 -0.27889750188E+02  0.60352895124E+01  0.50895854050E+01  0.17363642119E+03  0.17120000000E+03 0.  0.
        998    1    1    2    0    0 -0.54019607975E+00  0.55762692706E+01  0.13150703485E+04  0.13151203017E+04  0.10000000000E+02 0.  1.
</event>
<event>
 5    1  0.1252945E-008  0.3811825E+03  0.7957747E-01  0.3446026E+00
         13   -1    0    0    0    0  0.00000000000E+00  0.00000000000E+00  0.14999999963E+04  0.15000000000E+04  0.10566000000E+00 0. -1.
        994   -1    0    0    0    0 -0.00000000000E+00 -0.00000000000E+00  0.11368683772E-12  0.17120000000E+03  0.17120000000E+03 0.  0.
         13    1    1    2    0    0  0.14026216829E+02 -0.72216754489E+01  0.32938628472E+02  0.36521935388E+02  0.10566000000E+00 0. -1.
        994    1    1    2    0    0 -0.18656375844E+02  0.46541271836E+01  0.47694989195E+01  0.17234241898E+03  0.17120000000E+03 0.  0.
        998    1    1    2    0    0  0.46301590146E+01  0.25675482653E+01  0.14622918689E+04  0.14623356456E+04  0.10000000000E+02 0. -1.
</event>
<event>
 5    1  0.1252945E-008  0.3838723E+03  0.7957747E-01  0.3434469E+00
         13   -1    0    0    0    0  0.00000000000E+00  0.00000000000E+00  0.14999999963E+04  0.15000000000E+04  0.10566000000E+00 0. -1.
        994   -1    0    0    0    0 -0.00000000000E+00 -0.00000000000E+00  0.11368683772E-12  0.17120000000E+03  0.17120000000E+03 0.  0.
         13    1    1    2    0    0  0.20983087497E+02 -0.94508229197E+01  0.13280088375E+03  0.13478016880E+03  0.10566000000E+00 0. -1.
        994    1    1    2    0    0  0.16169508107E+01  0.86557407893E+01  0.24470216736E+01  0.17144376423E+03  0.17120000000E+03 0.  0.
        998    1    1    2    0    0 -0.22600038308E+02  0.79508213035E+00  0.13647520909E+04  0.13649760670E+04  0.10000000000E+02 0. -1.
</event>
<event>
 5    1  0.1252945E-008  0.3384286E+03  0.7957747E-01  0.3654888E+00
         13   -1    0    0    0    0  0.00000000000E+00  0.00000000000E+00  0.14999999963E+04  0.15000000000E+04  0.10566000000E+00 0. -1.
        994   -1    0    0    0    0 -0.00000000000E+00 -0.00000000000E+00  0.11368683772E-12  0.17120000000E+03  0.17120000000E+03 0.  0.
         13    1    1    2    0    0 -0.11196682420E+02 -0.18346563603E+03  0.99052968974E+03  0.10074393693E+04  0.10566000000E+00 0. -1.
        994    1    1    2    0    0  0.43065179834E+02  0.15603997710E+03  0.10664334587E+03  0.25862197777E+03  0.17120000000E+03 0.  0.
        998    1    1    2    0    0 -0.31868497414E+02  0.27425658927E+02  0.40282696066E+03  0.40513865297E+03  0.10000000000E+02 0. -1.
</event>
<event>
 5    1  0.1252945E-008  0.3796513E+03  0.7957747E-01  0.3452678E+00
         13   -1    0    0    0    0  0.00000000000E+00  0.00000000000E+00  0.14999999963E+04  0.15000000000E+04  0.10566000000E+00 0.  1.
        994   -1    0    0    0    0 -0.00000000000E+00 -0.00000000000E+00  0.11368683772E-12  0.17120000000E+03  0.17120000000E+03 0.  0.
         13    1    1    2    0    0  0.34625898110E+02  0.95499089079E+01  0.17554001790E+03  0.17917718222E+03  0.10566000000E+00 0.  1.
        994    1    1    2    0    0  0.73079442751E+01 -0.15335378244E+02  0.52756661616E+01  0.17212162133E+03  0.17120000000E+03 0.  0.
        998    1    1    2    0    0 -0.41933842385E+02  0.57854693360E+01  0.13191843122E+04  0.13199011965E+04  0.10000000000E+02 0.  1.
</event>
<event>
 5    1  0.1252945E-008  0.3833115E+03  0.7957747E-01  0.3436865E+00
         13   -1    0    0    0    0  0.00000000000E+00  0.00000000000E+00  0.14999999963E+04  0.15000000000E+04  0.10566000000E+00 0. -1.
        994   -1    0    0    0    0 -0.00000000000E+00 -0.00000000000E+00  0.11368683772E-12  0.17120000000E+03  0.17120000000E+03 0.  0.
         13    1    1    2    0    0 -0.24274493352E+01  0.20822554320E+02  0.98739314103E+02  0.10094025259E+03  0.10566000000E+00 0. -1.
        994    1    1    2    0    0  0.67941268619E-01  0.39631165236E+01  0.25227081978E+01  0.17126445914E+03  0.17120000000E+03 0.  0.
        998    1    1    2    0    0  0.23595080665E+01 -0.24785670843E+02  0.13987379740E+04  0.13989952883E+04  0.10000000000E+02 0. -1.
</event>
<event>
 5    1  0.1252945E-008  0.3767666E+03  0.7957747E-01  0.3465360E+00
         13   -1    0    0    0    0  0.00000000000E+00  0.00000000000E+00  0.14999999963E+04  0.15000000000E+04  0.10566000000E+00 0.  1.
        994   -1    0    0    0    0 -0.00000000000E+00 -0.00000000000E+00  0.11368683772E-12  0.17120000000E+03  0.17120000000E+03 0.  0.
         13    1    1    2    0    0 -0.29257223530E+00  0.15371787867E+02  0.18595175466E+02  0.24128182182E+02  0.10566000000E+00 0.  1.
        994    1    1    2    0    0 -0.41027461282E+01  0.28214382062E+01  0.58581365215E+01  0.17137254974E+03  0.17120000000E+03 0.  0.
        998    1    1    2    0    0  0.43953183635E+01 -0.18193226073E+02  0.14755466843E+04  0.14756992681E+04  0.10000000000E+02 0.  1.
</event>
<event>
 5    1  0.1252945E-008  0.3770585E+03  0.7957747E-01  0.3464067E+00
         13   -1    0    0    0    0  0.00000000000E+00  0.00000000000E+00  0.14999999963E+04  0.15000000000E+04  0.10566000000E+00 0. -1.
        994   -1    0    0    0    0 -0.00000000000E+00 -0.00000000000E+00  0.11368683772E-12  0.17120000000E+03  0.17120000000E+03 0.  0.
         13    1    1    2    0    0  0.18524005932E+02  0.37481936888E+02  0.14846871297E+03  0.15424332817E+03  0.10566000000E+00 0. -1.
        994    1    1    2    0    0  0.44605456056E+01 -0.36773963457E+02  0.10271722755E+02  0.17546272865E+03  0.17120000000E+03 0.  0.
        998    1    1    2    0    0 -0.22984551537E+02 -0.70797343125E+00  0.13412595606E+04  0.13414939432E+04  0.10000000000E+02 0. -1.
</event>
<event>
 5    1  0.1252945E-008  0.3889616E+03  0.7957747E-01  0.3413043E+00
         13   -1    0    0    0    0  0.00000000000E+00  0.00000000000E+00  0.14999999963E+04  0.15000000000E+04  0.10566000000E+00 0.  1.
        994   -1    0    0    0    0 -0.00000000000E+00 -0.00000000000E+00  0.11368683772E-12  0.17120000000E+03  0.17120000000E+03 0.  0.
         13    1    1    2    0    0  0.57164937929E+02  0.32396522502E+02  0.13054395052E+03  0.14614752472E+03  0.10566000000E+00 0.  1.
        994    1    1    2    0    0  0.73770849699E+02 -0.14043149583E+02  0.42794736212E+02  0.19178158870E+03  0.17120000000E+03 0.  0.
        998    1    1    2    0    0 -0.13093578763E+03 -0.18353372919E+02  0.13266613095E+04  0.13332708866E+04  0.10000000000E+02 0.  1.
</event>
<event>
 5    1  0.1252945E-008  0.3844204E+03  0.7957747E-01  0.3432134E+00
         13   -1    0    0    0    0  0.00000000000E+00  0.00000000000E+00  0.14999999963E+04  0.15000000000E+04  0.10566000000E+00 0. -1.
        994   -1    0    0    0    0 -0.00000000000E+00 -0.00000000000E+00  0.11368683772E-12  0.17120000000E+03  0.17120000000E+03 0.  0.
         13    1    1    2    0    0  0.11107516892E+02  0.53504657657E+01  0.42231605932E+02  0.43994591930E+02  0.10566000000E+00 0. -1.
        994    1    1    2    0    0  0.66032926183E+01  0.19702804464E+01  0.20746576052E+01  0.17135118816E+03  0.17120000000E+03 0.  0.
        998    1    1    2    0    0 -0.17710809510E+02 -0.73207462121E+01  0.14556937327E+04  0.14558542199E+04  0.10000000000E+02 0. -1.
</event>
<event>
 5    1  0.1252945E-008  0.3832125E+03  0.7957747E-01  0.3437289E+00
         13   -1    0    0    0    0  0.00000000000E+00  0.00000000000E+00  0.14999999963E+04  0.15000000000E+04  0.10566000000E+00 0.  1.
        994   -1    0    0    0    0 -0.00000000000E+00 -0.00000000000E+00  0.11368683772E-12  0.17120000000E+03  0.17120000000E+03 0.  0.
         13    1    1    2    0    0 -0.12971888881E+02  0.58156439535E+01  0.43231231488E+02  0.45508704175E+02  0.10566000000E+00 0.  1.
        994    1    1    2    0    0 -0.54596205663E+01  0.17456395869E+02  0.36275430957E+01  0.17221246262E+03  0.17120000000E+03 0.  0.
        998    1    1    2    0    0  0.18431509447E+02 -0.23272039822E+02  0.14531412217E+04  0.14534788332E+04  0.10000000000E+02 0.  1.
</event>
<event>
 5    1  0.1252945E-008  0.3783969E+03  0.7957747E-01  0.3458169E+00
         13   -1    0    0    0    0  0.00000000000E+00  0.00000000000E+00  0.14999999963E+04  0.15000000000E+04  0.10566000000E+00 0. -1.
        994   -1    0    0    0    0 -0.00000000000E+00 -0.00000000000E+00  0.11368683772E-12  0.17120000000E+03  0.17120000000E+03 0.  0.
         13    1    1    2    0    0  0.99776120057E+01  0.34275132631E+02  0.11908188998E+03  0.12431751744E+03  0.10566000000E+00 0. -1.
        994    1    1    2    0    0 -0.22293445334E+02 -0.29097787003E+02  0.94735915467E+01  0.17533644188E+03  0.17120000000E+03 0.  0.
        998    1    1    2    0    0  0.12315833329E+02 -0.51773456283E+01  0.13714445148E+04  0.13715460407E+04  0.10000000000E+02 0. -1.
</event>
<event>
 5    1  0.1252945E-008  0.3830899E+03  0.7957747E-01  0.3437814E+00
         13   -1    0    0    0    0  0.00000000000E+00  0.00000000000E+00  0.14999999963E+04  0.15000000000E+04  0.10566000000E+00 0. -1.
        994   -1    0    0    0    0 -0.00000000000E+00 -0.00000000000E+00  0.11368683772E-12  0.17120000000E+03  0.17120000000E+03 0.  0.
         13    1    1    2    0    0 -0.69859830314E+00 -0.22055330802E+02  0.10194797523E+03  0.10430880343E+03  0.10566000000E+00 0. -1.
        994    1    1    2    0    0 -0.68495217226E+01  0.85422790260E+00  0.27391169086E+01  0.17136098860E+03  0.17120000000E+03 0.  0.
        998    1    1    2    0    0  0.75481200257E+01  0.21201102899E+02  0.13953129041E+04  0.13955302080E+04  0.10000000000E+02 0. -1.
</event>
<event>
 5    1  0.1252945E-008  0.3837770E+03  0.7957747E-01  0.3434876E+00
         13   -1    0    0    0    0  0.00000000000E+00  0.00000000000E+00  0.14999999963E+04  0.15000000000E+04  0.10566000000E+00 0.  1.
        994   -1    0    0    0    0 -0.00000000000E+00 -0.00000000000E+00  0.11368683772E-12  0.17120000000E+03  0.17120000000E+03 0.  0.
         13    1    1    2    0    0 -0.18777229365E+02  0.15908452824E+01  0.78118593336E+02  0.80359448232E+02  0.10566000000E+00 0.  1.
        994    1    1    2    0    0  0.13006347886E+02 -0.73968148512E+01  0.29781104608E+01  0.17187840789E+03  0.17120000000E+03 0.  0.
        998    1    1    2    0    0  0.57708814796E+01  0.58059695688E+01  0.14189032925E+04  0.14189621439E+04  0.10000000000E+02 0.  1.
</event>
<event>
 5    1  0.1252945E-008  0.3813159E+03  0.7957747E-01  0.3445449E+00
         13   -1    0    0    0    0  0.00000000000E+00  0.00000000000E+00  0.14999999963E+04  0.15000000000E+04  0.10566000000E+00 0.  1.
        994   -1    0    0    0    0 -0.00000000000E+00 -0.00000000000E+00  0.11368683772E-12  0.17120000000E+03  0.17120000000E+03 0.  0.
         13    1    1    2    0    0 -0.25061005500E+02 -0.15356712185E+02  0.13228277440E+03  0.13550876788E+03  0.10566000000E+00 0.  1.
        994    1    1    2    0    0  0.48851046664E+01  0.49341890194E+01  0.36308618253E+01  0.17137921002E+03  0.17120000000E+03 0.  0.
        998    1    1    2    0    0  0.20175900834E+02  0.10422523165E+02  0.13640863601E+04  0.13643120221E+04  0.10000000000E+02 0.  1.
</event>
<event>
 5    1  0.1252945E-008  0.3772739E+03  0.7957747E-01  0.3463115E+00
         13   -1    0    0    0    0  0.00000000000E+00  0.00000000000E+00  0.14999999963E+04  0.15000000000E+04  0.10566000000E+00 0. -1.
        994   -1    0    0    0    0 -0.00000000000E+00 -0.00000000000E+00  0.11368683772E-12  0.17120000000E+03  0.17120000000E+03 0.  0.
         13    1    1    2    0    0  0.32718576722E+02  0.19222984335E+02  0.10475043178E+03  0.11141226374E+03  0.10566000000E+00 0. -1.
        994    1    1    2    0    0 -0.48505990919E+02 -0.50912591461E+02  0.22382518653E+02  0.18642784198E+03  0.17120000000E+03 0.  0.
        998    1    1    2    0    0  0.15787414197E+02  0.31689607126E+02  0.13728670458E+04  0.13733598943E+04  0.10000000000E+02 0. -1.
</event>
<event>
 5    1  0.1252945E-008  0.3758438E+03  0.7957747E-01  0.3469457E+00
         13   -1    0    0    0    0  0.00000000000E+00  0.00000000000E+00  0.14999999963E+04  0.15000000000E+04  0.10566000000E+00 0.  1.
        994   -1    0    0    0    0 -0.00000000000E+00 -0.00000000000E+00  0.11368683772E-12  0.17120000000E+03  0.17120000000E+03 0.  0.
         13    1    1    2    0    0 -0.17523209994E+02 -0.18635618478E+02  0.44591561377E+02  0.51407856156E+02  0.10566000000E+00 0.  1.
        994    1    1    2    0    0  0.73490533634E+02  0.27806376076E+01  0.24804923566E+02  0.18797157953E+03  0.17120000000E+03 0.  0.
        998    1    1    2    0    0 -0.55967323640E+02  0.15854980871E+02  0.14306035113E+04  0.14318205643E+04  0.10000000000E+02 0.  1.
</event>
<event>
 5    1  0.1252945E-008  0.3856715E+03  0.7957747E-01  0.3426829E+00
         13   -1    0    0    0    0  0.00000000000E+00  0.00000000000E+00  0.14999999963E+04  0.15000000000E+04  0.10566000000E+00 0. -1.
        994   -1    0    0    0    0 -0.00000000000E+00 -0.00000000000E+00  0.11368683772E-12  0.17120000000E+03  0.17120000000E+03 0.  0.
         13    1    1    2    0    0 -0.29632613851E+01  0.14682550067E+02  0.84947306658E+02  0.86257835974E+02  0.10566000000E+00 0. -1.
        994    1    1    2    0    0  0.17544309597E+02 -0.99531808348E+01  0.26334044544E+01  0.17240430223E+03  0.17120000000E+03 0.  0.
        998    1    1    2    0    0 -0.14581048212E+02 -0.47293692318E+01  0.14124192852E+04  0.14125378618E+04  0.10000000000E+02 0. -1.
</event>
<event>
 5    1  0.1252945E-008  0.3846337E+03  0.7957747E-01  0.3431227E+00
         13   -1    0    0    0    0  0.00000000000E+00  0.00000000000E+00  0.14999999963E+04  0.15000000000E+04  0.10566000000E+00 0. -1.
        994   -1    0    0    0    0 -0.00000000000E+00 -0.00000000000E+00  0.11368683772E-12  0.17120000000E+03  0.17120000000E+03 0.  0.
         13    1    1    2    0    0 -0.11670468199E+02  0.17782203118E+02  0.12495565696E+03  0.12675304315E+03  0.10566000000E+00 0. -1.
        994    1    1    2    0    0  0.11513202082E+02 -0.79873779024E+01  0.24588641383E+01  0.17179009879E+03  0.17120000000E+03 0.  0.
        998    1    1    2    0    0  0.15726611701E+00 -0.97948252156E+01  0.13725854752E+04  0.13726568581E+04  0.10000000000E+02 0. -1.
</event>
<event>
 5    1  0.1252945E-008  0.3792069E+03  0.7957747E-01  0.3454619E+00
         13   -1    0    0    0    0  0.00000000000E+00  0.00000000000E+00  0.14999999963E+04  0.15000000000E+04  0.10566000000E+00 0.  1.
        994   -1    0    0    0    0 -0.00000000000E+00 -0.00000000000E+00  0.11368683772E-12  0.17120000000E+03  0.17120000000E+03 0.  0.
         13    1    1    2    0    0  0.21492282529E+02  0.16165960020E+02  0.74455195584E+02  0.79163399278E+02  0.10566000000E+00 0.  1.
        994    1    1    2    0    0 -0.45454109099E+02  0.12802882719E+02  0.12044851122E+02  0.17800142774E+03  0.17120000000E+03 0.  0.
        998    1    1    2    0    0  0.23961826571E+02 -0.28968842739E+02  0.14134999496E+04  0.14140351730E+04  0.10000000000E+02 0.  1.
</event>
<event>
 5    1  0.1252945E-008  0.3832354E+03  0.7957747E-01  0.3437191E+00
         13   -1    0    0    0    0  0.00000000000E+00  0.00000000000E+00  0.14999999963E+04  0.15000000000E+04  0.10566000000E+00 0.  1.
        994   -1    0    0    0    0 -0.00000000000E+00 -0.00000000000E+00  0.11368683772E-12  0.17120000000E+03  0.17120000000E+03 0.  0.
         13    1    1    2    0    0  0.34122255211E+00  0.16534583495E+02  0.57745710974E+02  0.60067355395E+02  0.10566000000E+00 0.  1.
        994    1    1    2    0    0 -0.38952385392E+01  0.34605025697E+01  0.25985810004E+01  0.17129898010E+03  0.17120000000E+03 0.  0.
        998    1    1    2    0    0  0.35540159871E+01 -0.19995086065E+02  0.14396557043E+04  0.14398336645E+04  0.10000000000E+02 0.  1.
</event>
<event>
 5    1  0.1252945E-008  0.3826954E+03  0.7957747E-01  0.3439505E+00
         13   -1    0    0    0    0  0.00000000000E+00  0.00000000000E+00  0.14999999963E+04  0.15000000000E+04  0.10566000000E+00 0. -1.
        994   -1    0    0    0    0 -0.00000000000E+00 -0.00000000000E+00  0.11368683772E-12  0.17120000000E+03  0.17120000000E+03 0.  0.
         13    1    1    2    0    0  0.12696760968E+02 -0.17109958937E+02  0.80937730179E+02  0.83695195587E+02  0.10566000000E+00 0. -1.
        994    1    1    2    0    0 -0.30511689201E+01  0.14275236669E+02  0.34850424271E+01  0.17185656093E+03  0.17120000000E+03 0.  0.
        998    1    1    2    0    0 -0.96455920476E+01  0.28347222677E+01  0.14155772237E+04  0.14156482435E+04  0.10000000000E+02 0. -1.
</event>
<event>
 5    1  0.1252945E-008  0.3613635E+03  0.7957747E-01  0.3536549E+00
         13   -1    0    0    0    0  0.00000000000E+00  0.00000000000E+00  0.14999999963E+04  0.15000000000E+04  0.10566000000E+00 0.  1.
        994   -1    0    0    0    0 -0.00000000000E+00 -0.00000000000E+00  0.11368683772E-12  0.17120000000E+03  0.17120000000E+03 0.  0.
         13    1    1    2    0    0  0.12064872770E+03 -0.26648284668E+03  0.86252994343E+03  0.91078380396E+03  0.10566000000E+00 0.  1.
        994    1    1    2    0    0 -0.12920238603E+03  0.26108596631E+03  0.40469241740E+03  0.52720444902E+03  0.17120000000E+03 0.  0.
        998    1    1    2    0    0  0.85536583254E+01  0.53968803673E+01  0.23277763544E+03  0.23321174703E+03  0.10000000000E+02 0.  0.
</event>
<event>
 5    1  0.1252945E-008  0.3822128E+03  0.7957747E-01  0.3441580E+00
         13   -1    0    0    0    0  0.00000000000E+00  0.00000000000E+00  0.14999999963E+04  0.15000000000E+04  0.10566000000E+00 0.  1.
        994   -1    0    0    0    0 -0.00000000000E+00 -0.00000000000E+00  0.11368683772E-12  0.17120000000E+03  0.17120000000E+03 0.  0.
         13    1    1    2    0    0  0.26570131817E+02 -0.11656767089E+02  0.12130012111E+03  0.12472202159E+03  0.10566000000E+00 0.  1.
        994    1    1    2    0    0 -0.36972315439E+02  0.10609034322E+02  0.79458427624E+01  0.17564760213E+03  0.17120000000E+03 0.  0.
        998    1    1    2    0    0  0.10402183622E+02  0.10477327670E+01  0.13707540324E+04  0.13708303763E+04  0.10000000000E+02 0.  1.
</event>
<event>
 5    1  0.1252945E-008  0.3767069E+03  0.7957747E-01  0.3465624E+00
         13   -1    0    0    0    0  0.00000000000E+00  0.00000000000E+00  0.14999999963E+04  0.15000000000E+04  0.10566000000E+00 0. -1.
        994   -1    0    0    0    0 -0.00000000000E+00 -0.00000000000E+00  0.11368683772E-12  0.17120000000E+03  0.17120000000E+03 0.  0.
         13    1    1    2    0    0  0.64566326398E+02  0.19228925863E+01  0.13093383600E+03  0.14600064587E+03  0.10566000000E+00 0. -1.
        994    1    1    2    0    0 -0.57318027390E+02  0.30989337170E+01  0.26422919442E+02  0.18248991842E+03  0.17120000000E+03 0.  0.
        998    1    1    2    0    0 -0.72482990079E+01 -0.50218263033E+01  0.13426432408E+04  0.13427094357E+04  0.10000000000E+02 0. -1.
</event>
<event>
 5    1  0.1252945E-008  0.3828514E+03  0.7957747E-01  0.3438836E+00
         13   -1    0    0    0    0  0.00000000000E+00  0.00000000000E+00  0.14999999963E+04  0.15000000000E+04  0.10566000000E+00 0.  1.
        994   -1    0    0    0    0 -0.00000000000E+00 -0.00000000000E+00  0.11368683772E-12  0.17120000000E+03  0.17120000000E+03 0.  0.
         13    1    1    2    0    0  0.27045265281E+02 -0.31488102935E+00  0.13044233251E+03  0.13321696138E+03  0.10566000000E+00 0.  1.
        994    1    1    2    0    0 -0.20886813841E+02  0.14693694922E+02  0.48634175218E+01  0.17316251469E+03  0.17120000000E+03 0.  0.
        998    1    1    2    0    0 -0.61584514394E+01 -0.14378813892E+02  0.13646942462E+04  0.13648205239E+04  0.10000000000E+02 0.  1.
</event>
<event>
 5    1  0.1252945E-008  0.3753676E+03  0.7957747E-01  0.3471580E+00
         13   -1    0    0    0    0  0.00000000000E+00  0.00000000000E+00  0.14999999963E+04  0.15000000000E+04  0.10566000000E+00 0.  1.
        994   -1    0    0    0    0 -0.00000000000E+00 -0.00000000000E+00  0.11368683772E-12  0.17120000000E+03  0.17120000000E+03 0.  0.
         13    1    1    2    0    0 -0.39386810712E+02  0.12765646648E+03  0.45478019991E+03  0.47399634565E+03  0.10566000000E+00 0.  1.
        994    1    1    2    0    0  0.26974199257E+02 -0.12373547469E+03  0.73398873676E+02  0.22524411153E+03  0.17120000000E+03 0.  0.
        998    1    1    2    0    0  0.12412611456E+02 -0.39209917809E+01  0.97182092269E+03  0.97195954282E+03  0.10000000000E+02 0.  0.
</event>
<event>
 5    1  0.1252945E-008  0.3813301E+03  0.7957747E-01  0.3445387E+00
         13   -1    0    0    0    0  0.00000000000E+00  0.00000000000E+00  0.14999999963E+04  0.15000000000E+04  0.10566000000E+00 0. -1.
        994   -1    0    0    0    0 -0.00000000000E+00 -0.00000000000E+00  0.11368683772E-12  0.17120000000E+03  0.17120000000E+03 0.  0.
         13    1    1    2    0    0 -0.19516665567E+02  0.10912390617E+02  0.60643423991E+02  0.64634484149E+02  0.10566000000E+00 0. -1.
        994    1    1    2    0    0  0.19689486641E+02 -0.70697937138E+02  0.21601461150E+02  0.18751516558E+03  0.17120000000E+03 0.  0.
        998    1    1    2    0    0 -0.17282107376E+00  0.59785546521E+02  0.14177551111E+04  0.14190503503E+04  0.10000000000E+02 0. -1.
</event>
<event>
 5    1  0.1252945E-008  0.3744863E+03  0.7957747E-01  0.3475523E+00
         13   -1    0    0    0    0  0.00000000000E+00  0.00000000000E+00  0.14999999963E+04  0.15000000000E+04  0.10566000000E+00 0. -1.
        994   -1    0    0    0    0 -0.00000000000E+00 -0.00000000000E+00  0.11368683772E-12  0.17120000000E+03  0.17120000000E+03 0.  0.
         13    1    1    2    0    0 -0.93055576252E+01  0.52161657127E+01  0.49534389458E+01  0.11762206803E+02  0.10566000000E+00 0. -1.
        994    1    1    2    0    0  0.11065306317E+02 -0.22035097729E+01  0.73763299867E+01  0.17172986550E+03  0.17120000000E+03 0.  0.
        998    1    1    2    0    0 -0.17597486914E+01 -0.30126559397E+01  0.14876702273E+04  0.14877079277E+04  0.10000000000E+02 0. -1.
</event>
<event>
 5    1  0.1252945E-008  0.3754583E+03  0.7957747E-01  0.3471176E+00
         13   -1    0    0    0    0  0.00000000000E+00  0.00000000000E+00  0.14999999963E+04  0.15000000000E+04  0.10566000000E+00 0.  1.
        994   -1    0    0    0    0 -0.00000000000E+00 -0.00000000000E+00  0.11368683772E-12  0.17120000000E+03  0.17120000000E+03 0.  0.
         13    1    1    2    0    0 -0.22434588195E+02 -0.27077816222E+02  0.10041894624E+03  0.10639781392E+03  0.10566000000E+00 0.  1.
        994    1    1    2    0    0  0.71852417658E+01  0.10840491637E+01  0.66227968454E+01  0.17148208157E+03  0.17120000000E+03 0.  0.
        998    1    1    2    0    0  0.15249346429E+02  0.25993767058E+02  0.13929582532E+04  0.13933201045E+04  0.10000000000E+02 0.  1.
</event>
<event>
 5    1  0.1252945E-008  0.3783366E+03  0.7957747E-01  0.3458433E+00
         13   -1    0    0    0    0  0.00000000000E+00  0.00000000000E+00  0.14999999963E+04  0.15000000000E+04  0.10566000000E+00 0.  1.
        994   -1    0    0    0    0 -0.00000000000E+00 -0.00000000000E+00  0.11368683772E-12  0.17120000000E+03  0.17120000000E+03 0.  0.
         13    1    1    2    0    0  0.20764791855E+02  0.19619459929E+01  0.40870709162E+02  0.45885202890E+02  0.10566000000E+00 0.  1.
        994    1    1    2    0    0 -0.20687489097E+02  0.13461529282E+00  0.64151482379E+01  0.17256472540E+03  0.17120000000E+03 0.  0.
        998    1    1    2    0    0 -0.77302758162E-01 -0.20965612857E+01  0.14527141389E+04  0.14527500717E+04  0.10000000000E+02 0.  1.
</event>
<event>
 5    1  0.1252945E-008  0.3802912E+03  0.7957747E-01  0.3449892E+00
         13   -1    0    0    0    0  0.00000000000E+00  0.00000000000E+00  0.14999999963E+04  0.15000000000E+04  0.10566000000E+00 0.  1.
        994   -1    0    0    0    0 -0.00000000000E+00 -0.00000000000E+00  0.11368683772E-12  0.17120000000E+03  0.17120000000E+03 0.  0.
         13    1    1    2    0    0  0.77121203806E+01  0.18204291570E+02  0.47178554185E+02  0.51153691669E+02  0.10566000000E+00 0.  1.
        994    1    1    2    0    0 -0.62629447786E+01 -0.13690825724E+02  0.47435815028E+01  0.17192616075E+03  0.17120000000E+03 0.  0.
        998    1    1    2    0    0 -0.14491756020E+01 -0.45134658463E+01  0.14480778606E+04  0.14481201476E+04  0.10000000000E+02 0.  1.
</event>
<event>
 5    1  0.1252945E-008  0.3857013E+03  0.7957747E-01  0.3426703E+00
         13   -1    0    0    0    0  0.00000000000E+00  0.00000000000E+00  0.14999999963E+04  0.15000000000E+04  0.10566000000E+00 0. -1.
        994   -1    0    0    0    0 -0.00000000000E+00 -0.00000000000E+00  0.11368683772E-12  0.17120000000E+03  0.17120000000E+03 0.  0.
         13    1    1    2    0    0  0.97706575718E+01  0.45055464857E+01  0.43822517568E+02  0.45124161029E+02  0.10566000000E+00 0. -1.
        994    1    1    2    0    0 -0.13416810555E+02 -0.30867877339E+01  0.19045107332E+01  0.17176322722E+03  0.17120000000E+03 0.  0.
        998    1    1    2    0    0  0.36461529830E+01 -0.14187587519E+01  0.14542729680E+04  0.14543126118E+04  0.10000000000E+02 0. -1.
</event>
<event>
 5    1  0.1252945E-008  0.3772825E+03  0.7957747E-01  0.3463077E+00
         13   -1    0    0    0    0  0.00000000000E+00  0.00000000000E+00  0.14999999963E+04  0.15000000000E+04  0.10566000000E+00 0. -1.
        994   -1    0    0    0    0 -0.00000000000E+00 -0.00000000000E+00  0.11368683772E-12  0.17120000000E+03  0.17120000000E+03 0.  0.
         13    1    1    2    0    0  0.15812640145E+02  0.94751601674E+01  0.47216824885E+01  0.19029548027E+02  0.10566000000E+00 0. -1.
        994    1    1    2    0    0 -0.16138792303E+02 -0.11241953766E+02  0.16231599424E+02  0.17308884124E+03  0.17120000000E+03 0.  0.
        998    1    1    2    0    0  0.32615215818E+00  0.17667935991E+01  0.14790467144E+04  0.14790816107E+04  0.10000000000E+02 0. -1.
</event>
<event>
 5    1  0.1252945E-008  0.3763742E+03  0.7957747E-01  0.3467100E+00
         13   -1    0    0    0    0  0.00000000000E+00  0.00000000000E+00  0.14999999963E+04  0.15000000000E+04  0.10566000000E+00 0. -1.
        994   -1    0    0    0    0 -0.00000000000E+00 -0.00000000000E+00  0.11368683772E-12  0.17120000000E+03  0.17120000000E+03 0.  0.
         13    1    1    2    0    0 -0.13473732188E+03  0.71571940477E+02  0.81026821208E+03  0.82450668599E+03  0.10566000000E+00 0. -1.
        994    1    1    2    0    0  0.13366608870E+03 -0.72086018725E+02  0.88483223858E+02  0.24536042523E+03  0.17120000000E+03 0.  0.
        998    1    1    2    0    0  0.10712331817E+01  0.51407824806E+00  0.60124856035E+03  0.60133288878E+03  0.10000000000E+02 0.  0.
</event>
<event>
 5    1  0.1252945E-008  0.3693497E+03  0.7957747E-01  0.3498885E+00
         13   -1    0    0    0    0  0.00000000000E+00  0.00000000000E+00  0.14999999963E+04  0.15000000000E+04  0.10566000000E+00 0. -1.
        994   -1    0    0    0    0 -0.00000000000E+00 -0.00000000000E+00  0.11368683772E-12  0.17120000000E+03  0.17120000000E+03 0.  0.
         13    1    1    2    0    0  0.47732025173E+02  0.69435494020E+02  0.26612635116E+03  0.27914669979E+03  0.10566000000E+00 0. -1.
        994    1    1    2    0    0 -0.58732866896E+02 -0.66146288211E+02  0.38410855898E+02  0.19649354938E+03  0.17120000000E+03 0.  0.
        998    1    1    2    0    0  0.11000841723E+02 -0.32892058087E+01  0.11954627892E+04  0.11955597508E+04  0.10000000000E+02 0. -1.
</event>
<event>
 5    1  0.1252945E-008  0.3855543E+03  0.7957747E-01  0.3427325E+00
         13   -1    0    0    0    0  0.00000000000E+00  0.00000000000E+00  0.14999999963E+04  0.15000000000E+04  0.10566000000E+00 0. -1.
        994   -1    0    0    0    0 -0.00000000000E+00 -0.00000000000E+00  0.11368683772E-12  0.17120000000E+03  0.17120000000E+03 0.  0.
         13    1    1    2    0    0 -0.11820993543E+02 -0.32100023176E+01  0.56881262734E+02  0.58185300700E+02  0.10566000000E+00 0. -1.
        994    1    1    2    0    0  0.49326479119E+01  0.32170267532E+00  0.14354270269E+01  0.17127736266E+03  0.17120000000E+03 0.  0.
        998    1    1    2    0    0  0.68883456307E+01  0.28882996423E+01  0.14416833065E+04  0.14417373366E+04  0.10000000000E+02 0. -1.
</event>
<event>
 5    1  0.1252945E-008  0.3768537E+03  0.7957747E-01  0.3464973E+00
         13   -1    0    0    0    0  0.00000000000E+00  0.00000000000E+00  0.14999999963E+04  0.15000000000E+04  0.10566000000E+00 0. -1.
        994   -1    0    0    0    0 -0.00000000000E+00 -0.00000000000E+00  0.11368683772E-12  0.17120000000E+03  0.17120000000E+03 0.  0.
         13    1    1    2    0    0 -0.68593752483E+01 -0.13339917669E+02  0.17445018208E+02  0.23007482621E+02  0.10566000000E+00 0. -1.
        994    1    1    2    0    0 -0.90352448422E+01  0.87773719413E+01  0.62660673514E+01  0.17177712743E+03  0.17120000000E+03 0.  0.
        998    1    1    2    0    0  0.15894620091E+02  0.45625457282E+01  0.14762889107E+04  0.14764153900E+04  0.10000000000E+02 0. -1.
</event>
<event>
 5    1  0.1252945E-008  0.3851141E+03  0.7957747E-01  0.3429189E+00
         13   -1    0    0    0    0  0.00000000000E+00  0.00000000000E+00  0.14999999963E+04  0.15000000000E+04  0.10566000000E+00 0. -1.
        994   -1    0    0    0    0 -0.00000000000E+00 -0.00000000000E+00  0.11368683772E-12  0.17120000000E+03  0.17120000000E+03 0.  0.
         13    1    1    2    0    0 -0.11985488833E+02 -0.10725508315E+02  0.75789712110E+02  0.77477610295E+02  0.10566000000E+00 0. -1.
        994    1    1    2    0    0  0.10815824331E+02  0.21908693309E+02  0.35384885005E+01  0.17297090449E+03  0.17120000000E+03 0.  0.
        998    1    1    2    0    0  0.11696645020E+01 -0.11183184995E+02  0.14206717957E+04  0.14207514852E+04  0.10000000000E+02 0. -1.
</event>
<event>
 5    1  0.1252945E-008  0.3854125E+03  0.7957747E-01  0.3427925E+00
         13   -1    0    0    0    0  0.00000000000E+00  0.00000000000E+00  0.14999999963E+04  0.15000000000E+04  0.10566000000E+00 0.  1.
        994   -1    0    0    0    0 -0.00000000000E+00 -0.00000000000E+00  0.11368683772E-12  0.17120000000E+03  0.17120000000E+03 0.  0.
         13    1    1    2    0    0 -0.73715740384E+01 -0.72491624689E+01  0.38112857469E+02  0.39490397931E+02  0.10566000000E+00 0.  1.
        994    1    1    2    0    0  0.63731944148E+01 -0.62650328279E+00  0.15601876568E+01  0.17132683473E+03  0.17120000000E+03 0.  0.
        998    1    1    2    0    0  0.99837962362E+00  0.78756657517E+01  0.14603269512E+04  0.14603827673E+04  0.10000000000E+02 0.  1.
</event>
<event>
 5    1  0.1252945E-008  0.3748589E+03  0.7957747E-01  0.3473854E+00
         13   -1    0    0    0    0  0.00000000000E+00  0.00000000000E+00  0.14999999963E+04  0.15000000000E+04  0.10566000000E+00 0.  1.
        994   -1    0    0    0    0 -0.00000000000E+00 -0.00000000000E+00  0.11368683772E-12  0.17120000000E+03  0.17120000000E+03 0.  0.
         13    1    1    2    0    0 -0.91781559113E+01  0.15207772783E+02  0.54924945884E+01  0.18592836249E+02  0.10566000000E+00 0.  1.
        994    1    1    2    0    0  0.92363569243E+01 -0.17100902717E+02  0.14876048512E+02  0.17294070655E+03  0.17120000000E+03 0.  0.
        998    1    1    2    0    0 -0.58201013033E-01  0.18931299338E+01  0.14796314532E+04  0.14796664572E+04  0.10000000000E+02 0.  1.
</event>
<event>
 5    1  0.1252945E-008  0.3784816E+03  0.7957747E-01  0.3457797E+00
         13   -1    0    0    0    0  0.00000000000E+00  0.00000000000E+00  0.14999999963E+04  0.15000000000E+04  0.10566000000E+00 0.  1.
        994   -1    0    0    0    0 -0.00000000000E+00 -0.00000000000E+00  0.11368683772E-12  0.17120000000E+03  0.17120000000E+03 0.  0.
         13    1    1    2    0    0  0.20817000148E+01 -0.20024081895E+02  0.38554231465E+02  0.43494106021E+02  0.10566000000E+00 0.  1.
        994    1    1    2    0    0 -0.70006231252E+01  0.19738980784E+02  0.63767193542E+01  0.17259414427E+03  0.17120000000E+03 0.  0.
        998    1    1    2    0    0  0.49189231103E+01  0.28510111075E+00  0.14550690455E+04  0.14551117497E+04  0.10000000000E+02 0.  1.
</event>
<event>
 5    1  0.1252945E-008  0.3782216E+03  0.7957747E-01  0.3458939E+00
         13   -1    0    0    0    0  0.00000000000E+00  0.00000000000E+00  0.14999999963E+04  0.15000000000E+04  0.10566000000E+00 0.  1.
        994   -1    0    0    0    0 -0.00000000000E+00 -0.00000000000E+00  0.11368683772E-12  0.17120000000E+03  0.17120000000E+03 0.  0.
         13    1    1    2    0    0 -0.28009904738E+02 -0.27611086493E+01  0.75884790280E+02  0.80936339454E+02  0.10566000000E+00 0.  1.
        994    1    1    2    0    0  0.20189700289E+02  0.57423197908E+01  0.65165718882E+01  0.17260505191E+03  0.17120000000E+03 0.  0.
        998    1    1    2    0    0  0.78202044496E+01 -0.29812111414E+01  0.14175986341E+04  0.14176586086E+04  0.10000000000E+02 0.  1.
</event>
<event>
 5    1  0.1252945E-008  0.3807703E+03  0.7957747E-01  0.3447811E+00
         13   -1    0    0    0    0  0.00000000000E+00  0.00000000000E+00  0.14999999963E+04  0.15000000000E+04  0.10566000000E+00 0. -1.
        994   -1    0    0    0    0 -0.00000000000E+00 -0.00000000000E+00  0.11368683772E-12  0.17120000000E+03  0.17120000000E+03 0.  0.
         13    1    1    2    0    0 -0.10984036867E+02 -0.11701540609E+02  0.41534206880E+02  0.44527257087E+02  0.10566000000E+00 0. -1.
        994    1    1    2    0    0  0.18330045483E+01 -0.72454116156E+02  0.21463524696E+02  0.18714454773E+03  0.17120000000E+03 0.  0.
        998    1    1    2    0    0  0.91510323190E+01  0.84155656765E+02  0.14370022647E+04  0.14395281952E+04  0.10000000000E+02 0. -1.
</event>
<event>
 5    1  0.1252945E-008  0.3849870E+03  0.7957747E-01  0.3429727E+00
         13   -1    0    0    0    0  0.00000000000E+00  0.00000000000E+00  0.14999999963E+04  0.15000000000E+04  0.10566000000E+00 0. -1.
        994   -1    0    0    0    0 -0.00000000000E+00 -0.00000000000E+00  0.11368683772E-12  0.17120000000E+03  0.17120000000E+03 0.  0.
         13    1    1    2    0    0  0.11501381707E+02 -0.86217469059E+01  0.63564112379E+02  0.65169194006E+02  0.10566000000E+00 0. -1.
        994    1    1    2    0    0 -0.94725237245E+00  0.12899167689E+02  0.21869488058E+01  0.17170180127E+03  0.17120000000E+03 0.  0.
        998    1    1    2    0    0 -0.10554129335E+02 -0.42774207831E+01  0.14342489351E+04  0.14343290047E+04  0.10000000000E+02 0. -1.
</event>
<event>
 5    1  0.1252945E-008  0.3755961E+03  0.7957747E-01  0.3470561E+00
         13   -1    0    0    0    0  0.00000000000E+00  0.00000000000E+00  0.14999999963E+04  0.15000000000E+04  0.10566000000E+00 0. -1.
        994   -1    0    0    0    0 -0.00000000000E+00 -0.00000000000E+00  0.11368683772E-12  0.17120000000E+03  0.17120000000E+03 0.  0.
         13    1    1    2    0    0  0.79358711778E+01 -0.20930862686E+02  0.35052238534E+02  0.41590259129E+02  0.10566000000E+00 0. -1.
        994    1    1    2    0    0 -0.52411486002E+01  0.31750876862E+02  0.98941017259E+01  0.17447899893E+03  0.17120000000E+03 0.  0.
        998    1    1    2    0    0 -0.26947225775E+01 -0.10820014176E+02  0.14550536560E+04  0.14551307419E+04  0.10000000000E+02 0. -1.
</event>
<event>
 5    1  0.1252945E-008  0.3843700E+03  0.7957747E-01  0.3432349E+00
         13   -1    0    0    0    0  0.00000000000E+00  0.00000000000E+00  0.14999999963E+04  0.15000000000E+04  0.10566000000E+00 0.  1.
        994   -1    0    0    0    0 -0.00000000000E+00 -0.00000000000E+00  0.11368683772E-12  0.17120000000E+03  0.17120000000E+03 0.  0.
         13    1    1    2    0    0  0.10671389201E+02 -0.21361758466E+02  0.13449972484E+03  0.13660303957E+03  0.10566000000E+00 0.  1.
        994    1    1    2    0    0 -0.13647927725E+02  0.20935243496E+02  0.40041052768E+01  0.17306075006E+03  0.17120000000E+03 0.  0.
        998    1    1    2    0    0  0.29765385241E+01  0.42651497047E+00  0.13614961662E+04  0.13615362104E+04  0.10000000000E+02 0.  1.
</event>
<event>
 5    1  0.1252945E-008  0.3847233E+03  0.7957747E-01  0.3430846E+00
         13   -1    0    0    0    0  0.00000000000E+00  0.00000000000E+00  0.14999999963E+04  0.15000000000E+04  0.10566000000E+00 0. -1.
        994   -1    0    0    0    0 -0.00000000000E+00 -0.00000000000E+00  0.11368683772E-12  0.17120000000E+03  0.17120000000E+03 0.  0.
         13    1    1    2    0    0  0.47919210532E+01  0.15443258672E+02  0.76908360769E+02  0.78589845820E+02  0.10566000000E+00 0. -1.
        994    1    1    2    0    0  0.69234738027E+01 -0.68984769637E+01  0.20820417794E+01  0.17149139445E+03  0.17120000000E+03 0.  0.
        998    1    1    2    0    0 -0.11715394856E+02 -0.85447817081E+01  0.14210095937E+04  0.14211187597E+04  0.10000000000E+02 0. -1.
</event>
<event>
 5    1  0.1252945E-008  0.3836224E+03  0.7957747E-01  0.3435536E+00
         13   -1    0    0    0    0  0.00000000000E+00  0.00000000000E+00  0.14999999963E+04  0.15000000000E+04  0.10566000000E+00 0. -1.
        994   -1    0    0    0    0 -0.00000000000E+00 -0.00000000000E+00  0.11368683772E-12  0.17120000000E+03  0.17120000000E+03 0.  0.
         13    1    1    2    0    0  0.51210904188E+01 -0.92072991934E+01  0.24261783408E+02  0.26450807619E+02  0.10566000000E+00 0. -1.
        994    1    1    2    0    0 -0.21516330932E+02 -0.18118470838E+02  0.49337752292E+01  0.17356558881E+03  0.17120000000E+03 0.  0.
        998    1    1    2    0    0  0.16395240514E+02  0.27325770031E+02  0.14708044376E+04  0.14711836036E+04  0.10000000000E+02 0. -1.
</event>
<event>
 5    1  0.1252945E-008  0.3783559E+03  0.7957747E-01  0.3458349E+00
         13   -1    0    0    0    0  0.00000000000E+00  0.00000000000E+00  0.14999999963E+04  0.15000000000E+04  0.10566000000E+00 0. -1.
        994   -1    0    0    0    0 -0.00000000000E+00 -0.00000000000E+00  0.11368683772E-12  0.17120000000E+03  0.17120000000E+03 0.  0.
         13    1    1    2    0    0 -0.92054224363E+01 -0.18012985456E+02  0.39751978708E+02  0.44603121219E+02  0.10566000000E+00 0. -1.
        994    1    1    2    0    0  0.23228087417E+01  0.95261887935E+01  0.52886303616E+01  0.17156209758E+03  0.17120000000E+03 0.  0.
        998    1    1    2    0    0  0.68826136946E+01  0.84867966628E+01  0.14549593872E+04  0.14550347812E+04  0.10000000000E+02 0. -1.
</event>
<event>
 5    1  0.1252945E-008  0.3696898E+03  0.7957747E-01  0.3497318E+00
         13   -1    0    0    0    0  0.00000000000E+00  0.00000000000E+00  0.14999999963E+04  0.15000000000E+04  0.10566000000E+00 0.  1.
        994   -1    0    0    0    0 -0.00000000000E+00 -0.00000000000E+00  0.11368683772E-12  0.17120000000E+03  0.17120000000E+03 0.  0.
         13    1    1    2    0    0 -0.17424338873E+02  0.12534832920E+02  0.20115350459E+02  0.29417139726E+02  0.10566000000E+00 0.  1.
        994    1    1    2    0    0  0.23770212109E+02 -0.35763253998E+01  0.11433866461E+02  0.17325699521E+03  0.17120000000E+03 0.  0.
        998    1    1    2    0    0 -0.63458732363E+01 -0.89585075199E+01  0.14684507794E+04  0.14685258651E+04  0.10000000000E+02 0.  1.
</event>
<event>
 5    1  0.1252945E-008  0.3808556E+03  0.7957747E-01  0.3447441E+00
         13   -1    0    0    0    0  0.00000000000E+00  0.00000000000E+00  0.14999999963E+04  0.15000000000E+04  0.10566000000E+00 0. -1.
        994   -1    0    0    0    0 -0.00000000000E+00 -0.00000000000E+00  0.11368683772E-12  0.17120000000E+03  0.17120000000E+03 0.  0.
         13    1    1    2    0    0  0.19493068051E+02  0.12425449435E+02  0.72430272719E+02  0.76029777494E+02  0.10566000000E+00 0. -1.
        994    1    1    2    0    0 -0.91830093608E+01 -0.40901062188E+01  0.40388003319E+01  0.17154243947E+03  0.17120000000E+03 0.  0.
        998    1    1    2    0    0 -0.10310058690E+02 -0.83353432158E+01  0.14235309232E+04  0.14236277830E+04  0.10000000000E+02 0. -1.
</event>
<event>
 5    1  0.1252945E-008  0.3751918E+03  0.7957747E-01  0.3472366E+00
         13   -1    0    0    0    0  0.00000000000E+00  0.00000000000E+00  0.14999999963E+04  0.15000000000E+04  0.10566000000E+00 0. -1.
        994   -1    0    0    0    0 -0.00000000000E+00 -0.00000000000E+00  0.11368683772E-12  0.17120000000E+03  0.17120000000E+03 0.  0.
         13    1    1    2    0    0  0.11096251610E+03  0.59293582518E+02  0.55533821175E+03  0.56941105495E+03  0.10566000000E+00 0. -1.
        994    1    1    2    0    0 -0.70388887467E+02 -0.33221057828E+02  0.35611086796E+02  0.19140486845E+03  0.17120000000E+03 0.  0.
        998    1    1    2    0    0 -0.40573628633E+02 -0.26072524690E+02  0.90905069773E+03  0.91038407660E+03  0.10000000000E+02 0.  1.
</event>
<event>
 5    1  0.1252945E-008  0.3823231E+03  0.7957747E-01  0.3441105E+00
         13   -1    0    0    0    0  0.00000000000E+00  0.00000000000E+00  0.14999999963E+04  0.15000000000E+04  0.10566000000E+00 0. -1.
        994   -1    0    0    0    0 -0.00000000000E+00 -0.00000000000E+00  0.11368683772E-12  0.17120000000E+03  0.17120000000E+03 0.  0.
         13    1    1    2    0    0 -0.16345444994E+01 -0.11254300175E+02  0.20534308633E+02  0.23473389257E+02  0.10566000000E+00 0. -1.
        994    1    1    2    0    0 -0.29383985936E+00  0.10179821872E+02  0.33091599590E+01  0.17153456111E+03  0.17120000000E+03 0.  0.
        998    1    1    2    0    0  0.19283843587E+01  0.10744783032E+01  0.14761565277E+04  0.14761920496E+04  0.10000000000E+02 0. -1.
</event>
<event>
 5    1  0.1252945E-008  0.3815419E+03  0.7957747E-01  0.3444472E+00
         13   -1    0    0    0    0  0.00000000000E+00  0.00000000000E+00  0.14999999963E+04  0.15000000000E+04  0.10566000000E+00 0.  1.
        994   -1    0    0    0    0 -0.00000000000E+00 -0.00000000000E+00  0.11368683772E-12  0.17120000000E+03  0.17120000000E+03 0.  0.
         13    1    1    2    0    0 -0.10813846980E+02  0.19306007695E+02  0.67848664454E+02  0.71366053918E+02  0.10566000000E+00 0.  1.
        994    1    1    2    0    0  0.13404646033E+01 -0.29404202709E+02  0.62438070001E+01  0.17382413270E+03  0.17120000000E+03 0.  0.
        998    1    1    2    0    0  0.94733823762E+01  0.10098195014E+02  0.14259075248E+04  0.14260098134E+04  0.10000000000E+02 0.  1.
</event>
<event>
 5    1  0.1252945E-008  0.3845606E+03  0.7957747E-01  0.3431538E+00
         13   -1    0    0    0    0  0.00000000000E+00  0.00000000000E+00  0.14999999963E+04  0.15000000000E+04  0.10566000000E+00 0.  1.
        994   -1    0    0    0    0 -0.00000000000E+00 -0.00000000000E+00  0.11368683772E-12  0.17120000000E+03  0.17120000000E+03 0.  0.
         13    1    1    2    0    0  0.67609136336E+01 -0.21009392795E+02  0.12603272806E+03  0.12795063206E+03  0.10566000000E+00 0.  1.
        994    1    1    2    0    0 -0.10367647548E+01  0.19496241804E+02  0.31047867197E+01  0.17233762800E+03  0.17120000000E+03 0.  0.
        998    1    1    2    0    0 -0.57241488788E+01  0.15131509908E+01  0.13708624815E+04  0.13709117399E+04  0.10000000000E+02 0.  1.
</event>
<event>
 5    1  0.1252945E-008  0.3884372E+03  0.7957747E-01  0.3415224E+00
         13   -1    0    0    0    0  0.00000000000E+00  0.00000000000E+00  0.14999999963E+04  0.15000000000E+04  0.10566000000E+00 0. -1.
        994   -1    0    0    0    0 -0.00000000000E+00 -0.00000000000E+00  0.11368683772E-12  0.17120000000E+03  0.17120000000E+03 0.  0.
         13    1    1    2    0    0  0.57065204583E+02 -0.69203033124E+02  0.17286498632E+03  0.19475064063E+03  0.10566000000E+00 0. -1.
        994    1    1    2    0    0 -0.72434854017E+02  0.38610719209E+02  0.46702544417E+02  0.19552023775E+03  0.17120000000E+03 0.  0.
        998    1    1    2    0    0  0.15369649434E+02  0.30592313915E+02  0.12804324655E+04  0.12809291216E+04  0.10000000000E+02 0. -1.
</event>
<event>
 5    1  0.1252945E-008  0.3858392E+03  0.7957747E-01  0.3426121E+00
         13   -1    0    0    0    0  0.00000000000E+00  0.00000000000E+00  0.14999999963E+04  0.15000000000E+04  0.10566000000E+00 0.  1.
        994   -1    0    0    0    0 -0.00000000000E+00 -0.00000000000E+00  0.11368683772E-12  0.17120000000E+03  0.17120000000E+03 0.  0.
         13    1    1    2    0    0  0.81374199163E+01 -0.10908329327E+02  0.77650440970E+02  0.78834075110E+02  0.10566000000E+00 0.  1.
        994    1    1    2    0    0 -0.82528177535E+01  0.36839209498E+01  0.14819816676E+01  0.17144479153E+03  0.17120000000E+03 0.  0.
        998    1    1    2    0    0  0.11539783723E+00  0.72244083770E+01  0.14208675736E+04  0.14209211334E+04  0.10000000000E+02 0.  1.
</event>
<event>
 5    1  0.1252945E-008  0.3776988E+03  0.7957747E-01  0.3461240E+00
         13   -1    0    0    0    0  0.00000000000E+00  0.00000000000E+00  0.14999999963E+04  0.15000000000E+04  0.10566000000E+00 0.  1.
        994   -1    0    0    0    0 -0.00000000000E+00 -0.00000000000E+00  0.11368683772E-12  0.17120000000E+03  0.17120000000E+03 0.  0.
         13    1    1    2    0    0 -0.12643631120E+02  0.29813619656E+02  0.97771146888E+02  0.10299476517E+03  0.10566000000E+00 0.  1.
        994    1    1    2    0    0  0.46659905448E+01 -0.17784331739E+02  0.64388926866E+01  0.17230482658E+03  0.17120000000E+03 0.  0.
        998    1    1    2    0    0  0.79776405749E+01 -0.12029287918E+02  0.13957899567E+04  0.13959004083E+04  0.10000000000E+02 0.  1.
</event>
<event>
 5    1  0.1252945E-008  0.3717621E+03  0.7957747E-01  0.3487832E+00
         13   -1    0    0    0    0  0.00000000000E+00  0.00000000000E+00  0.14999999963E+04  0.15000000000E+04  0.10566000000E+00 0. -1.
        994   -1    0    0    0    0 -0.00000000000E+00 -0.00000000000E+00  0.11368683772E-12  0.17120000000E+03  0.17120000000E+03 0.  0.
         13    1    1    2    0    0  0.10608038613E+02 -0.77737521136E+02  0.29148444046E+03  0.30185897845E+03  0.10566000000E+00 0. -1.
        994    1    1    2    0    0 -0.40123937373E+02  0.75929385861E+02  0.34140698385E+02  0.19455135382E+03  0.17120000000E+03 0.  0.
        998    1    1    2    0    0  0.29515898761E+02  0.18081352753E+01  0.11743748574E+04  0.11747896677E+04  0.10000000000E+02 0. -1.
</event>
<event>
 5    1  0.1252945E-008  0.3802383E+03  0.7957747E-01  0.3450121E+00
         13   -1    0    0    0    0  0.00000000000E+00  0.00000000000E+00  0.14999999963E+04  0.15000000000E+04  0.10566000000E+00 0.  1.
        994   -1    0    0    0    0 -0.00000000000E+00 -0.00000000000E+00  0.11368683772E-12  0.17120000000E+03  0.17120000000E+03 0.  0.
         13    1    1    2    0    0  0.10182392015E+02  0.90006460478E+01  0.22817044923E+02  0.26557888460E+02  0.10566000000E+00 0.  1.
        994    1    1    2    0    0  0.19868957013E+02 -0.13067972069E+01  0.53383793989E+01  0.17243671728E+03  0.17120000000E+03 0.  0.
        998    1    1    2    0    0 -0.30051349027E+02 -0.76938488409E+01  0.14718445720E+04  0.14722053943E+04  0.10000000000E+02 0.  1.
</event>
<event>
 5    1  0.1252945E-008  0.3820384E+03  0.7957747E-01  0.3442331E+00
         13   -1    0    0    0    0  0.00000000000E+00  0.00000000000E+00  0.14999999963E+04  0.15000000000E+04  0.10566000000E+00 0. -1.
        994   -1    0    0    0    0 -0.00000000000E+00 -0.00000000000E+00  0.11368683772E-12  0.17120000000E+03  0.17120000000E+03 0.  0.
         13    1    1    2    0    0 -0.90642139541E+01  0.21889029325E+02  0.89151827462E+02  0.92246133162E+02  0.10566000000E+00 0. -1.
        994    1    1    2    0    0  0.10750672674E+02 -0.11852534384E+02  0.39584185827E+01  0.17199176902E+03  0.17120000000E+03 0.  0.
        998    1    1    2    0    0 -0.16864587202E+01 -0.10036494941E+02  0.14068897502E+04  0.14069620978E+04  0.10000000000E+02 0. -1.
</event>
<event>
 5    1  0.1252945E-008  0.3794417E+03  0.7957747E-01  0.3453593E+00
         13   -1    0    0    0    0  0.00000000000E+00  0.00000000000E+00  0.14999999963E+04  0.15000000000E+04  0.10566000000E+00 0. -1.
        994   -1    0    0    0    0 -0.00000000000E+00 -0.00000000000E+00  0.11368683772E-12  0.17120000000E+03  0.17120000000E+03 0.  0.
         13    1    1    2    0    0  0.12910734637E+02  0.20770015585E+02  0.64155482484E+02  0.68658704569E+02  0.10566000000E+00 0. -1.
        994    1    1    2    0    0 -0.53301862140E+01 -0.23718564426E+02  0.63970064403E+01  0.17303566937E+03  0.17120000000E+03 0.  0.
        998    1    1    2    0    0 -0.75805484230E+01  0.29485488411E+01  0.14294475074E+04  0.14295056261E+04  0.10000000000E+02 0. -1.
</event>
<event>
 5    1  0.1252945E-008  0.3844183E+03  0.7957747E-01  0.3432143E+00
         13   -1    0    0    0    0  0.00000000000E+00  0.00000000000E+00  0.14999999963E+04  0.15000000000E+04  0.10566000000E+00 0. -1.
        994   -1    0    0    0    0 -0.00000000000E+00 -0.00000000000E+00  0.11368683772E-12  0.17120000000E+03  0.17120000000E+03 0.  0.
         13    1    1    2    0    0  0.17363912735E+02  0.66174936062E+01  0.81435976508E+02  0.83529193226E+02  0.10566000000E+00 0. -1.
        994    1    1    2    0    0 -0.26648797687E+02 -0.56565594119E+01  0.43683632269E+01  0.17340898962E+03  0.17120000000E+03 0.  0.
        998    1    1    2    0    0  0.92848849521E+01 -0.96093419421E+00  0.14141956565E+04  0.14142618172E+04  0.10000000000E+02 0. -1.
</event>
<event>
 5    1  0.1252945E-008  0.4041785E+03  0.7957747E-01  0.3352195E+00
         13   -1    0    0    0    0  0.00000000000E+00  0.00000000000E+00  0.14999999963E+04  0.15000000000E+04  0.10566000000E+00 0. -1.
        994   -1    0    0    0    0 -0.00000000000E+00 -0.00000000000E+00  0.11368683772E-12  0.17120000000E+03  0.17120000000E+03 0.  0.
         13    1    1    2    0    0  0.12129456704E+03 -0.56894452040E+00  0.35945453711E+03  0.37936825263E+03  0.10566000000E+00 0. -1.
        994    1    1    2    0    0  0.92475678893E+01  0.35750970281E+02  0.35749148305E+02  0.17874868109E+03  0.17120000000E+03 0.  0.
        998    1    1    2    0    0 -0.13054213493E+03 -0.35182025761E+02  0.11047963109E+04  0.11130830663E+04  0.10000000000E+02 0. -1.
</event>
<event>
 5    1  0.1252945E-008  0.3859768E+03  0.7957747E-01  0.3425540E+00
         13   -1    0    0    0    0  0.00000000000E+00  0.00000000000E+00  0.14999999963E+04  0.15000000000E+04  0.10566000000E+00 0. -1.
        994   -1    0    0    0    0 -0.00000000000E+00 -0.00000000000E+00  0.11368683772E-12  0.17120000000E+03  0.17120000000E+03 0.  0.
         13    1    1    2    0    0 -0.24723511150E+00  0.15152183359E+02  0.82202223020E+02  0.83587477646E+02  0.10566000000E+00 0. -1.
        994    1    1    2    0    0  0.11213835844E+02 -0.35593255376E+02  0.57247334172E+01  0.17531355485E+03  0.17120000000E+03 0.  0.
        998    1    1    2    0    0 -0.10966600733E+02  0.20441072017E+02  0.14120730398E+04  0.14122989675E+04  0.10000000000E+02 0. -1.
</event>
<event>
 5    1  0.1252945E-008  0.3814012E+03  0.7957747E-01  0.3445080E+00
         13   -1    0    0    0    0  0.00000000000E+00  0.00000000000E+00  0.14999999963E+04  0.15000000000E+04  0.10566000000E+00 0. -1.
        994   -1    0    0    0    0 -0.00000000000E+00 -0.00000000000E+00  0.11368683772E-12  0.17120000000E+03  0.17120000000E+03 0.  0.
         13    1    1    2    0    0 -0.12764759228E+02  0.49998899400E+02  0.76446287946E+02  0.92232722632E+02  0.10566000000E+00 0. -1.
        994    1    1    2    0    0  0.12142421018E+01 -0.14250819682E+02  0.17844567226E+02  0.17272066705E+03  0.17120000000E+03 0.  0.
        998    1    1    2    0    0  0.11550517126E+02 -0.35748079718E+02  0.14057091411E+04  0.14062466103E+04  0.10000000000E+02 0. -1.
</event>
<event>
 5    1  0.1252945E-008  0.3762870E+03  0.7957747E-01  0.3467487E+00
         13   -1    0    0    0    0  0.00000000000E+00  0.00000000000E+00  0.14999999963E+04  0.15000000000E+04  0.10566000000E+00 0. -1.
        994   -1    0    0    0    0 -0.00000000000E+00 -0.00000000000E+00  0.11368683772E-12  0.17120000000E+03  0.17120000000E+03 0.  0.
         13    1    1    2    0    0  0.75092263974E+01  0.47218377999E+02  0.17181603290E+03  0.17834439725E+03  0.10566000000E+00 0. -1.
        994    1    1    2    0    0 -0.23864619214E+02 -0.40553986417E+02  0.13550151275E+02  0.17806513545E+03  0.17120000000E+03 0.  0.
        998    1    1    2    0    0  0.16355392816E+02 -0.66643915826E+01  0.13146338121E+04  0.13147904673E+04  0.10000000000E+02 0. -1.
</event>
<event>
 5    1  0.1252945E-008  0.3762821E+03  0.7957747E-01  0.3467508E+00
         13   -1    0    0    0    0  0.00000000000E+00  0.00000000000E+00  0.14999999963E+04  0.15000000000E+04  0.10566000000E+00 0.  1.
        994   -1    0    0    0    0 -0.00000000000E+00 -0.00000000000E+00  0.11368683772E-12  0.17120000000E+03  0.17120000000E+03 0.  0.
         13    1    1    2    0    0 -0.75753600890E+01 -0.39121816543E+02  0.15139431993E+03  0.15655080288E+03  0.10566000000E+00 0.  1.
        994    1    1    2    0    0 -0.15832943798E+02 -0.11945087808E+01  0.68755261402E+01  0.17207214133E+03  0.17120000000E+03 0.  0.
        998    1    1    2    0    0  0.23408303887E+02  0.40316325324E+02  0.13417301502E+04  0.13425770558E+04  0.10000000000E+02 0.  1.
</event>
<event>
 5    1  0.1252945E-008  0.3849272E+03  0.7957747E-01  0.3429981E+00
         13   -1    0    0    0    0  0.00000000000E+00  0.00000000000E+00  0.14999999963E+04  0.15000000000E+04  0.10566000000E+00 0. -1.
        994   -1    0    0    0    0 -0.00000000000E+00 -0.00000000000E+00  0.11368683772E-12  0.17120000000E+03  0.17120000000E+03 0.  0.
         13    1    1    2    0    0  0.16015149519E+02 -0.53713272771E+01  0.92713729655E+02  0.94240028657E+02  0.10566000000E+00 0. -1.
        994    1    1    2    0    0  0.12159366183E+01  0.51176162724E+01  0.17573102309E+01  0.17128980307E+03  0.17120000000E+03 0.  0.
        998    1    1    2    0    0 -0.17231086137E+02  0.25371100463E+00  0.14055289564E+04  0.14056701683E+04  0.10000000000E+02 0. -1.
</event>
<event>
 5    1  0.1252945E-008  0.3722440E+03  0.7957747E-01  0.3485641E+00
         13   -1    0    0    0    0  0.00000000000E+00  0.00000000000E+00  0.14999999963E+04  0.15000000000E+04  0.10566000000E+00 0.  1.
        994   -1    0    0    0    0 -0.00000000000E+00 -0.00000000000E+00  0.11368683772E-12  0.17120000000E+03  0.17120000000E+03 0.  0.
         13    1    1    2    0    0 -0.38712875750E+02  0.59824221943E+01  0.93489637068E+02  0.10136468580E+03  0.10566000000E+00 0.  1.
        994    1    1    2    0    0  0.17522671134E+02 -0.16022701108E+02  0.10037600771E+02  0.17312990609E+03  0.17120000000E+03 0.  0.
        998    1    1    2    0    0  0.21190204616E+02  0.10040278914E+02  0.13964727584E+04  0.13967054081E+04  0.10000000000E+02 0.  1.
</event>
<event>
 5    1  0.1252945E-008  0.3859042E+03  0.7957747E-01  0.3425846E+00
         13   -1    0    0    0    0  0.00000000000E+00  0.00000000000E+00  0.14999999963E+04  0.15000000000E+04  0.10566000000E+00 0.  1.
        994   -1    0    0    0    0 -0.00000000000E+00 -0.00000000000E+00  0.11368683772E-12  0.17120000000E+03  0.17120000000E+03 0.  0.
         13    1    1    2    0    0 -0.44609898007E+02  0.76053186649E+02  0.19278954976E+03  0.21199516943E+03  0.10566000000E+00 0.  1.
        994    1    1    2    0    0  0.20294076765E+02 -0.52363834049E+02  0.31385078303E+02  0.18288871974E+03  0.17120000000E+03 0.  0.
        998    1    1    2    0    0  0.24315821241E+02 -0.23689352600E+02  0.12758253682E+04  0.12763161108E+04  0.10000000000E+02 0.  1.
</event>
<event>
 5    1  0.1252945E-008  0.3792952E+03  0.7957747E-01  0.3454233E+00
         13   -1    0    0    0    0  0.00000000000E+00  0.00000000000E+00  0.14999999963E+04  0.15000000000E+04  0.10566000000E+00 0.  1.
        994   -1    0    0    0    0 -0.00000000000E+00 -0.00000000000E+00  0.11368683772E-12  0.17120000000E+03  0.17120000000E+03 0.  0.
         13    1    1    2    0    0  0.15676423340E+02  0.21665669789E+01  0.27867471911E+02  0.32047642908E+02  0.10566000000E+00 0.  1.
        994    1    1    2    0    0  0.12039335957E+02  0.18205511690E+01  0.49862942999E+01  0.17170487223E+03  0.17120000000E+03 0.  0.
        998    1    1    2    0    0 -0.27715759297E+02 -0.39871181479E+01  0.14671462301E+04  0.14674474849E+04  0.10000000000E+02 0.  1.
</event>
<event>
 5    1  0.1252945E-008  0.3850048E+03  0.7957747E-01  0.3429652E+00
         13   -1    0    0    0    0  0.00000000000E+00  0.00000000000E+00  0.14999999963E+04  0.15000000000E+04  0.10566000000E+00 0. -1.
        994   -1    0    0    0    0 -0.00000000000E+00 -0.00000000000E+00  0.11368683772E-12  0.17120000000E+03  0.17120000000E+03 0.  0.
         13    1    1    2    0    0  0.14963333805E+02 -0.80596638236E+00  0.66630362016E+02  0.68294708776E+02  0.10566000000E+00 0. -1.
        994    1    1    2    0    0 -0.15808042232E+02 -0.69514026144E+01  0.26091015989E+01  0.17208853422E+03  0.17120000000E+03 0.  0.
        998    1    1    2    0    0  0.84470842719E+00  0.77573689968E+01  0.14307605327E+04  0.14308167570E+04  0.10000000000E+02 0. -1.
</event>
<event>
 5    1  0.1252945E-008  0.3854259E+03  0.7957747E-01  0.3427868E+00
         13   -1    0    0    0    0  0.00000000000E+00  0.00000000000E+00  0.14999999963E+04  0.15000000000E+04  0.10566000000E+00 0.  1.
        994   -1    0    0    0    0 -0.00000000000E+00 -0.00000000000E+00  0.11368683772E-12  0.17120000000E+03  0.17120000000E+03 0.  0.
         13    1    1    2    0    0 -0.16785725655E+02 -0.19771723793E+00  0.93969482630E+02  0.95457186779E+02  0.10566000000E+00 0.  1.
        994    1    1    2    0    0  0.18163164213E+02 -0.14131796539E-01  0.25030098573E+01  0.17217899347E+03  0.17120000000E+03 0.  0.
        998    1    1    2    0    0 -0.13774385579E+01  0.21184903446E+00  0.14035275038E+04  0.14035638198E+04  0.10000000000E+02 0.  1.
</event>
<event>
 5    1  0.1252945E-008  0.3793914E+03  0.7957747E-01  0.3453813E+00
         13   -1    0    0    0    0  0.00000000000E+00  0.00000000000E+00  0.14999999963E+04  0.15000000000E+04  0.10566000000E+00 0. -1.
        994   -1    0    0    0    0 -0.00000000000E+00 -0.00000000000E+00  0.11368683772E-12  0.17120000000E+03  0.17120000000E+03 0.  0.
         13    1    1    2    0    0  0.49008544671E+02 -0.29711155122E+02  0.29844189177E+03  0.30389498863E+03  0.10566000000E+00 0. -1.
        994    1    1    2    0    0 -0.48275159152E+02  0.29806992543E+02  0.15299513417E+02  0.18100404113E+03  0.17120000000E+03 0.  0.
        998    1    1    2    0    0 -0.73338551925E+00 -0.95837420579E-01  0.11862585911E+04  0.11863009702E+04  0.10000000000E+02 0.  0.
</event>
<event>
 5    1  0.1252945E-008  0.3852491E+03  0.7957747E-01  0.3428616E+00
         13   -1    0    0    0    0  0.00000000000E+00  0.00000000000E+00  0.14999999963E+04  0.15000000000E+04  0.10566000000E+00 0.  1.
        994   -1    0    0    0    0 -0.00000000000E+00 -0.00000000000E+00  0.11368683772E-12  0.17120000000E+03  0.17120000000E+03 0.  0.
         13    1    1    2    0    0  0.69302035868E+01 -0.12349583191E+02  0.64852546662E+02  0.66380749463E+02  0.10566000000E+00 0.  1.
        994    1    1    2    0    0  0.71349643914E+01  0.20099822296E+02  0.30027520256E+01  0.17254960763E+03  0.17120000000E+03 0.  0.
        998    1    1    2    0    0 -0.14065167978E+02 -0.77502391050E+01  0.14321446976E+04  0.14322696429E+04  0.10000000000E+02 0.  1.
</event>
<event>
 5    1  0.1252945E-008  0.3852528E+03  0.7957747E-01  0.3428601E+00
         13   -1    0    0    0    0  0.00000000000E+00  0.00000000000E+00  0.14999999963E+04  0.15000000000E+04  0.10566000000E+00 0.  1.
        994   -1    0    0    0    0 -0.00000000000E+00 -0.00000000000E+00  0.11368683772E-12  0.17120000000E+03  0.17120000000E+03 0.  0.
         13    1    1    2    0    0  0.99135458989E+01  0.22128715931E+01  0.34445628265E+02  0.35912221647E+02  0.10566000000E+00 0.  1.
        994    1    1    2    0    0 -0.52382930967E+01 -0.17100802502E+01  0.16044665893E+01  0.17129617159E+03  0.17120000000E+03 0.  0.
        998    1    1    2    0    0 -0.46752528022E+01 -0.50279134291E+00  0.14639499014E+04  0.14639916068E+04  0.10000000000E+02 0.  1.
</event>
<event>
 5    1  0.1252945E-008  0.3847255E+03  0.7957747E-01  0.3430837E+00
         13   -1    0    0    0    0  0.00000000000E+00  0.00000000000E+00  0.14999999963E+04  0.15000000000E+04  0.10566000000E+00 0.  1.
        994   -1    0    0    0    0 -0.00000000000E+00 -0.00000000000E+00  0.11368683772E-12  0.17120000000E+03  0.17120000000E+03 0.  0.
         13    1    1    2    0    0  0.27883401104E+01 -0.15872425121E+02  0.74874274675E+02  0.76589012866E+02  0.10566000000E+00 0.  1.
        994    1    1    2    0    0 -0.10185128610E+02  0.58940001032E+01  0.22224265539E+01  0.17161834186E+03  0.17120000000E+03 0.  0.
        998    1    1    2    0    0  0.73967884995E+01  0.99784250175E+01  0.14229032951E+04  0.14229926453E+04  0.10000000000E+02 0.  1.
</event>
<event>
 5    1  0.1252945E-008  0.3832098E+03  0.7957747E-01  0.3437300E+00
         13   -1    0    0    0    0  0.00000000000E+00  0.00000000000E+00  0.14999999963E+04  0.15000000000E+04  0.10566000000E+00 0. -1.
        994   -1    0    0    0    0 -0.00000000000E+00 -0.00000000000E+00  0.11368683772E-12  0.17120000000E+03  0.17120000000E+03 0.  0.
         13    1    1    2    0    0  0.26205697524E+02  0.95514492509E+01  0.14088249116E+03  0.14361704720E+03  0.10566000000E+00 0. -1.
        994    1    1    2    0    0 -0.27498650837E+02 -0.67280288850E+01  0.51771298752E+01  0.17360208767E+03  0.17120000000E+03 0.  0.
        998    1    1    2    0    0  0.12929533135E+01 -0.28234203659E+01  0.13539403752E+04  0.13539808651E+04  0.10000000000E+02 0. -1.
</event>
<event>
 5    1  0.1252945E-008  0.3832043E+03  0.7957747E-01  0.3437324E+00
         13   -1    0    0    0    0  0.00000000000E+00  0.00000000000E+00  0.14999999963E+04  0.15000000000E+04  0.10566000000E+00 0. -1.
        994   -1    0    0    0    0 -0.00000000000E+00 -0.00000000000E+00  0.11368683772E-12  0.17120000000E+03  0.17120000000E+03 0.  0.
         13    1    1    2    0    0 -0.15328672933E+02  0.22068243780E+02  0.14450292005E+03  0.14697986483E+03  0.10566000000E+00 0. -1.
        994    1    1    2    0    0  0.12642400353E+02 -0.85190655844E+01  0.32934261873E+01  0.17190896260E+03  0.17120000000E+03 0.  0.
        998    1    1    2    0    0  0.26862725802E+01 -0.13549178195E+02  0.13522036500E+04  0.13523111726E+04  0.10000000000E+02 0. -1.
</event>
<event>
 5    1  0.1252945E-008  0.3707648E+03  0.7957747E-01  0.3492384E+00
         13   -1    0    0    0    0  0.00000000000E+00  0.00000000000E+00  0.14999999963E+04  0.15000000000E+04  0.10566000000E+00 0. -1.
        994   -1    0    0    0    0 -0.00000000000E+00 -0.00000000000E+00  0.11368683772E-12  0.17120000000E+03  0.17120000000E+03 0.  0.
         13    1    1    2    0    0 -0.88995381217E+01  0.70581566930E+01  0.71993543904E+00  0.11381951755E+02  0.10566000000E+00 0. -1.
        994    1    1    2    0    0 -0.11330237569E+02  0.43775458323E+02  0.18545606611E+02  0.17803944664E+03  0.17120000000E+03 0.  0.
        998    1    1    2    0    0  0.20229775691E+02 -0.50833615016E+02  0.14807344542E+04  0.14817786016E+04  0.10000000000E+02 0. -1.
</event>
<event>
 5    1  0.1252945E-008  0.3802828E+03  0.7957747E-01  0.3449928E+00
         13   -1    0    0    0    0  0.00000000000E+00  0.00000000000E+00  0.14999999963E+04  0.15000000000E+04  0.10566000000E+00 0. -1.
        994   -1    0    0    0    0 -0.00000000000E+00 -0.00000000000E+00  0.11368683772E-12  0.17120000000E+03  0.17120000000E+03 0.  0.
         13    1    1    2    0    0 -0.85152880559E+01  0.13129742677E+02  0.29557566218E+02  0.33444897342E+02  0.10566000000E+00 0. -1.
        994    1    1    2    0    0 -0.12787897910E+02 -0.15058127799E+02  0.52949678723E+01  0.17241738378E+03  0.17120000000E+03 0.  0.
        998    1    1    2    0    0  0.21303185966E+02  0.19283851221E+01  0.14651474622E+04  0.14653377189E+04  0.10000000000E+02 0. -1.
</event>
<event>
 5    1  0.1252945E-008  0.3840141E+03  0.7957747E-01  0.3433864E+00
         13   -1    0    0    0    0  0.00000000000E+00  0.00000000000E+00  0.14999999963E+04  0.15000000000E+04  0.10566000000E+00 0. -1.
        994   -1    0    0    0    0 -0.00000000000E+00 -0.00000000000E+00  0.11368683772E-12  0.17120000000E+03  0.17120000000E+03 0.  0.
         13    1    1    2    0    0 -0.54685473697E+01  0.15440662470E+02  0.74555802290E+02  0.76334120071E+02  0.10566000000E+00 0. -1.
        994    1    1    2    0    0 -0.51253500923E+02 -0.31724257742E+01  0.10869381630E+02  0.17906582337E+03  0.17120000000E+03 0.  0.
        998    1    1    2    0    0  0.56722048293E+02 -0.12268236696E+02  0.14145748124E+04  0.14158000566E+04  0.10000000000E+02 0. -1.
</event>
<event>
 5    1  0.1252945E-008  0.3707592E+03  0.7957747E-01  0.3492409E+00
         13   -1    0    0    0    0  0.00000000000E+00  0.00000000000E+00  0.14999999963E+04  0.15000000000E+04  0.10566000000E+00 0.  1.
        994   -1    0    0    0    0 -0.00000000000E+00 -0.00000000000E+00  0.11368683772E-12  0.17120000000E+03  0.17120000000E+03 0.  0.
         13    1    1    2    0    0  0.59036676803E+02  0.28146411509E+02  0.19090598882E+03  0.20179855653E+03  0.10566000000E+00 0.  1.
        994    1    1    2    0    0 -0.42763514373E+02  0.12862153046E+02  0.18363765393E+02  0.17787866938E+03  0.17120000000E+03 0.  0.
        998    1    1    2    0    0 -0.16273162430E+02 -0.41008564555E+02  0.12907302421E+04  0.12915227741E+04  0.10000000000E+02 0.  1.
</event>
<event>
 5    1  0.1252945E-008  0.4070502E+03  0.7957747E-01  0.3341220E+00
         13   -1    0    0    0    0  0.00000000000E+00  0.00000000000E+00  0.14999999963E+04  0.15000000000E+04  0.10566000000E+00 0. -1.
        994   -1    0    0    0    0 -0.00000000000E+00 -0.00000000000E+00  0.11368683772E-12  0.17120000000E+03  0.17120000000E+03 0.  0.
         13    1    1    2    0    0 -0.24961787195E+02  0.81125143112E+02  0.98051585829E+02  0.12968617626E+03  0.10566000000E+00 0. -1.
        994    1    1    2    0    0  0.19615203432E+02 -0.76177855683E+02  0.57468338405E+02  0.19697683067E+03  0.17120000000E+03 0.  0.
        998    1    1    2    0    0  0.53465837622E+01 -0.49472874289E+01  0.13444800720E+04  0.13445369931E+04  0.10000000000E+02 0. -1.
</event>
<event>
 5    1  0.1252945E-008  0.3767532E+03  0.7957747E-01  0.3465419E+00
         13   -1    0    0    0    0  0.00000000000E+00  0.00000000000E+00  0.14999999963E+04  0.15000000000E+04  0.10566000000E+00 0.  1.
        994   -1    0    0    0    0 -0.00000000000E+00 -0.00000000000E+00  0.11368683772E-12  0.17120000000E+03  0.17120000000E+03 0.  0.
         13    1    1    2    0    0 -0.13609189214E+02  0.47048928736E+02  0.27254477024E+03  0.27691058967E+03  0.10566000000E+00 0.  1.
        994    1    1    2    0    0  0.31356088447E+01  0.84470417979E+01  0.60555392183E+01  0.17154385478E+03  0.17120000000E+03 0.  0.
        998    1    1    2    0    0  0.10473580369E+02 -0.55495970534E+02  0.12213996868E+04  0.12227455555E+04  0.10000000000E+02 0.  1.
</event>
<event>
 5    1  0.1252945E-008  0.3829494E+03  0.7957747E-01  0.3438416E+00
         13   -1    0    0    0    0  0.00000000000E+00  0.00000000000E+00  0.14999999963E+04  0.15000000000E+04  0.10566000000E+00 0.  1.
        994   -1    0    0    0    0 -0.00000000000E+00 -0.00000000000E+00  0.11368683772E-12  0.17120000000E+03  0.17120000000E+03 0.  0.
         13    1    1    2    0    0 -0.11370467918E+02  0.20788020603E+02  0.11644149229E+03  0.11882786556E+03  0.10566000000E+00 0.  1.
        994    1    1    2    0    0 -0.32865045915E+01 -0.14678902148E+01  0.26945334303E+01  0.17125903283E+03  0.17120000000E+03 0.  0.
        998    1    1    2    0    0  0.14656972510E+02 -0.19320130388E+02  0.13808639706E+04  0.13811131016E+04  0.10000000000E+02 0.  1.
</event>
<event>
 5    1  0.1344937E-008  0.3860493E+03  0.7957747E-01  0.3425234E+00
         13   -1    0    0    0    0  0.00000000000E+00  0.00000000000E+00  0.14999999963E+04  0.15000000000E+04  0.10566000000E+00 0.  1.
        994   -1    0    0    0    0 -0.00000000000E+00 -0.00000000000E+00  0.11368683772E-12  0.17120000000E+03  0.17120000000E+03 0.  0.
         13    1    1    2    0    0 -0.35978734965E+01  0.96055713993E+01  0.39620389680E+02  0.40926741112E+02  0.10566000000E+00 0.  1.
        994    1    1    2    0    0  0.26063151357E+02 -0.33031738843E+02  0.69341228009E+01  0.17643102247E+03  0.17120000000E+03 0.  0.
        998    1    1    2    0    0 -0.22465277860E+02  0.23426167444E+02  0.14534454838E+04  0.14538422364E+04  0.10000000000E+02 0.  1.
</event>
<event>
 5    1  0.1252945E-008  0.3822583E+03  0.7957747E-01  0.3441384E+00
         13   -1    0    0    0    0  0.00000000000E+00  0.00000000000E+00  0.14999999963E+04  0.15000000000E+04  0.10566000000E+00 0. -1.
        994   -1    0    0    0    0 -0.00000000000E+00 -0.00000000000E+00  0.11368683772E-12  0.17120000000E+03  0.17120000000E+03 0.  0.
         13    1    1    2    0    0  0.14190509113E+01 -0.36226559673E+02  0.20102965181E+03  0.20427263498E+03  0.10566000000E+00 0. -1.
        994    1    1    2    0    0 -0.77579732303E+01  0.30548750066E+02  0.63008066375E+01  0.17419113767E+03  0.17120000000E+03 0.  0.
        998    1    1    2    0    0  0.63389223190E+01  0.56778096074E+01  0.12926695378E+04  0.12927362273E+04  0.10000000000E+02 0. -1.
</event>
<event>
 5    1  0.1252945E-008  0.3725279E+03  0.7957747E-01  0.3484353E+00
         13   -1    0    0    0    0  0.00000000000E+00  0.00000000000E+00  0.14999999963E+04  0.15000000000E+04  0.10566000000E+00 0. -1.
        994   -1    0    0    0    0 -0.00000000000E+00 -0.00000000000E+00  0.11368683772E-12  0.17120000000E+03  0.17120000000E+03 0.  0.
         13    1    1    2    0    0 -0.22979362185E+02  0.38061866539E+02  0.73925073585E+02  0.86265198310E+02  0.10566000000E+00 0. -1.
        994    1    1    2    0    0  0.15889749266E+02 -0.35695764925E+02  0.17685978547E+02  0.17649052553E+03  0.17120000000E+03 0.  0.
        998    1    1    2    0    0  0.70896129188E+01 -0.23661016139E+01  0.14083889441E+04  0.14084442762E+04  0.10000000000E+02 0. -1.
</event>
<event>
 5    1  0.1252945E-008  0.3847411E+03  0.7957747E-01  0.3430771E+00
         13   -1    0    0    0    0  0.00000000000E+00  0.00000000000E+00  0.14999999963E+04  0.15000000000E+04  0.10566000000E+00 0.  1.
        994   -1    0    0    0    0 -0.00000000000E+00 -0.00000000000E+00  0.11368683772E-12  0.17120000000E+03  0.17120000000E+03 0.  0.
         13    1    1    2    0    0  0.58596174399E+01 -0.11811150656E+02  0.53575466374E+02  0.55174089549E+02  0.10566000000E+00 0.  1.
        994    1    1    2    0    0  0.44673323381E+01 -0.46227859128E+01  0.18947522639E+01  0.17133113346E+03  0.17120000000E+03 0.  0.
        998    1    1    2    0    0 -0.10326949778E+02  0.16433936569E+02  0.14445297776E+04  0.14446947770E+04  0.10000000000E+02 0.  1.
</event>
<event>
 5    1  0.1605609E-008  0.3845662E+03  0.7957747E-01  0.3431514E+00
         13   -1    0    0    0    0  0.00000000000E+00  0.00000000000E+00  0.14999999963E+04  0.15000000000E+04  0.10566000000E+00 0. -1.
        994   -1    0    0    0    0 -0.00000000000E+00 -0.00000000000E+00  0.11368683772E-12  0.17120000000E+03  0.17120000000E+03 0.  0.
         13    1    1    2    0    0 -0.23980839087E+01  0.10487789721E+02  0.30451465905E+02  0.32296245594E+02  0.10566000000E+00 0. -1.
        994    1    1    2    0    0  0.16122163860E+01 -0.11242623110E+02  0.22706071101E+01  0.17159135023E+03  0.17120000000E+03 0.  0.
        998    1    1    2    0    0  0.78586752272E+00  0.75483338962E+00  0.14672779233E+04  0.14673124042E+04  0.10000000000E+02 0. -1.
</event>
<event>
 5    1  0.1252945E-008  0.4117412E+03  0.7957747E-01  0.3323617E+00
         13   -1    0    0    0    0  0.00000000000E+00  0.00000000000E+00  0.14999999963E+04  0.15000000000E+04  0.10566000000E+00 0.  1.
        994   -1    0    0    0    0 -0.00000000000E+00 -0.00000000000E+00  0.11368683772E-12  0.17120000000E+03  0.17120000000E+03 0.  0.
         13    1    1    2    0    0  0.95819540870E+02  0.63125487799E+01  0.11165995842E+03  0.14727250308E+03  0.10566000000E+00 0.  1.
        994    1    1    2    0    0 -0.99052216982E+02  0.14187742300E+02  0.77530595555E+02  0.21291563345E+03  0.17120000000E+03 0.  0.
        998    1    1    2    0    0  0.32326761120E+01 -0.20500291080E+02  0.13108094423E+04  0.13110118635E+04  0.10000000000E+02 0.  1.
</event>
<event>
 5    1  0.1252945E-008  0.3628286E+03  0.7957747E-01  0.3529513E+00
         13   -1    0    0    0    0  0.00000000000E+00  0.00000000000E+00  0.14999999963E+04  0.15000000000E+04  0.10566000000E+00 0.  1.
        994   -1    0    0    0    0 -0.00000000000E+00 -0.00000000000E+00  0.11368683772E-12  0.17120000000E+03  0.17120000000E+03 0.  0.
         13    1    1    2    0    0  0.22633381252E+03 -0.97484690211E+02  0.11214945785E+04  0.11482510005E+04  0.10566000000E+00 0.  1.
        994    1    1    2    0    0 -0.18675604796E+03  0.11174936809E+03  0.20604960877E+03  0.34515449294E+03  0.17120000000E+03 0.  0.
        998    1    1    2    0    0 -0.39577764557E+02 -0.14264677883E+02  0.17245580905E+03  0.17779450654E+03  0.10000000000E+02 0.  1.
</event>
<event>
 5    1  0.1252945E-008  0.3826454E+03  0.7957747E-01  0.3439720E+00
         13   -1    0    0    0    0  0.00000000000E+00  0.00000000000E+00  0.14999999963E+04  0.15000000000E+04  0.10566000000E+00 0. -1.
        994   -1    0    0    0    0 -0.00000000000E+00 -0.00000000000E+00  0.11368683772E-12  0.17120000000E+03  0.17120000000E+03 0.  0.
         13    1    1    2    0    0 -0.11333711631E+03  0.65554264059E+02  0.71861023375E+03  0.73044051276E+03  0.10566000000E+00 0. -1.
        994    1    1    2    0    0  0.15166320241E+03 -0.72190708088E+02  0.10273258568E+03  0.26091502345E+03  0.17120000000E+03 0.  0.
        998    1    1    2    0    0 -0.38326086099E+02  0.66364440289E+01  0.67865717685E+03  0.67984446380E+03  0.10000000000E+02 0.  1.
</event>
<event>
 5    1  0.1252945E-008  0.3747468E+03  0.7957747E-01  0.3474356E+00
         13   -1    0    0    0    0  0.00000000000E+00  0.00000000000E+00  0.14999999963E+04  0.15000000000E+04  0.10566000000E+00 0.  1.
        994   -1    0    0    0    0 -0.00000000000E+00 -0.00000000000E+00  0.11368683772E-12  0.17120000000E+03  0.17120000000E+03 0.  0.
         13    1    1    2    0    0 -0.22399684804E+02 -0.13752446788E+03  0.50960960286E+03  0.52831494739E+03  0.10566000000E+00 0.  1.
        994    1    1    2    0    0 -0.55593939439E+01  0.12848611034E+03  0.74865938049E+02  0.22683460074E+03  0.17120000000E+03 0.  0.
        998    1    1    2    0    0  0.27959078747E+02  0.90383575368E+01  0.91552445537E+03  0.91605045187E+03  0.10000000000E+02 0.  1.
</event>
<event>
 5    1  0.1252945E-008  0.3859187E+03  0.7957747E-01  0.3425785E+00
         13   -1    0    0    0    0  0.00000000000E+00  0.00000000000E+00  0.14999999963E+04  0.15000000000E+04  0.10566000000E+00 0.  1.
        994   -1    0    0    0    0 -0.00000000000E+00 -0.00000000000E+00  0.11368683772E-12  0.17120000000E+03  0.17120000000E+03 0.  0.
         13    1    1    2    0    0  0.11365428239E+02 -0.17744955091E+01  0.58854291674E+02  0.59967996514E+02  0.10566000000E+00 0.  1.
        994    1    1    2    0    0 -0.25796932068E+01  0.28561623749E+01  0.12232577139E+01  0.17124762433E+03  0.17120000000E+03 0.  0.
        998    1    1    2    0    0 -0.87857350326E+01 -0.10816668658E+01  0.14399224469E+04  0.14399843792E+04  0.10000000000E+02 0.  1.
</event>
<event>
 5    1  0.1252945E-008  0.3793460E+03  0.7957747E-01  0.3454011E+00
         13   -1    0    0    0    0  0.00000000000E+00  0.00000000000E+00  0.14999999963E+04  0.15000000000E+04  0.10566000000E+00 0.  1.
        994   -1    0    0    0    0 -0.00000000000E+00 -0.00000000000E+00  0.11368683772E-12  0.17120000000E+03  0.17120000000E+03 0.  0.
         13    1    1    2    0    0 -0.13868839165E+02  0.31549865560E+02  0.16040718287E+03  0.16406771223E+03  0.10566000000E+00 0.  1.
        994    1    1    2    0    0  0.33614293893E+02  0.23542944598E+02  0.10126717195E+02  0.17634109389E+03  0.17120000000E+03 0.  0.
        998    1    1    2    0    0 -0.19745454729E+02 -0.55092810158E+02  0.13294660962E+04  0.13307911939E+04  0.10000000000E+02 0.  1.
</event>
<event>
 5    1  0.1252945E-008  0.3779445E+03  0.7957747E-01  0.3460158E+00
         13   -1    0    0    0    0  0.00000000000E+00  0.00000000000E+00  0.14999999963E+04  0.15000000000E+04  0.10566000000E+00 0. -1.
        994   -1    0    0    0    0 -0.00000000000E+00 -0.00000000000E+00  0.11368683772E-12  0.17120000000E+03  0.17120000000E+03 0.  0.
         13    1    1    2    0    0 -0.14394785246E+02 -0.17295658337E+02  0.46954141160E+02  0.52067765227E+02  0.10566000000E+00 0. -1.
        994    1    1    2    0    0  0.31952090649E+01  0.16339992880E+02  0.61079320708E+01  0.17211609908E+03  0.17120000000E+03 0.  0.
        998    1    1    2    0    0  0.11199576181E+02  0.95566545707E+00  0.14469379230E+04  0.14470161357E+04  0.10000000000E+02 0. -1.
</event>
<event>
 5    1  0.1252945E-008  0.3781193E+03  0.7957747E-01  0.3459388E+00
         13   -1    0    0    0    0  0.00000000000E+00  0.00000000000E+00  0.14999999963E+04  0.15000000000E+04  0.10566000000E+00 0.  1.
        994   -1    0    0    0    0 -0.00000000000E+00 -0.00000000000E+00  0.11368683772E-12  0.17120000000E+03  0.17120000000E+03 0.  0.
         13    1    1    2    0    0 -0.36813983555E+02 -0.53218403267E+01  0.12327054341E+03  0.12876035650E+03  0.10566000000E+00 0.  1.
        994    1    1    2    0    0  0.37023968048E+02  0.14660926757E+02  0.10438184655E+02  0.17607984746E+03  0.17120000000E+03 0.  0.
        998    1    1    2    0    0 -0.20998449246E+00 -0.93390864303E+01  0.13662912682E+04  0.13663597960E+04  0.10000000000E+02 0.  1.
</event>
<event>
 5    1  0.1252945E-008  0.3714016E+03  0.7957747E-01  0.3489474E+00
         13   -1    0    0    0    0  0.00000000000E+00  0.00000000000E+00  0.14999999963E+04  0.15000000000E+04  0.10566000000E+00 0. -1.
        994   -1    0    0    0    0 -0.00000000000E+00 -0.00000000000E+00  0.11368683772E-12  0.17120000000E+03  0.17120000000E+03 0.  0.
         13    1    1    2    0    0  0.18702264607E+02  0.95213683534E+00  0.10021995978E+02  0.21239887791E+02  0.10566000000E+00 0. -1.
        994    1    1    2    0    0 -0.58118154453E+01 -0.13199943593E+02  0.12412995323E+02  0.17225428344E+03  0.17120000000E+03 0.  0.
        998    1    1    2    0    0 -0.12890449161E+02  0.12247806758E+02  0.14775650050E+04  0.14777058288E+04  0.10000000000E+02 0. -1.
</event>
<event>
 5    1  0.1252945E-008  0.2759602E+03  0.7957747E-01  0.4084148E+00
         13   -1    0    0    0    0  0.00000000000E+00  0.00000000000E+00  0.14999999963E+04  0.15000000000E+04  0.10566000000E+00 0.  1.
        994   -1    0    0    0    0 -0.00000000000E+00 -0.00000000000E+00  0.11368683772E-12  0.17120000000E+03  0.17120000000E+03 0.  0.
         13    1    1    2    0    0  0.65439862981E+02 -0.20385499100E+03  0.34705044212E+03  0.40777843686E+03  0.10566000000E+00 0.  1.
        994    1    1    2    0    0 -0.72943769210E+02  0.19630834578E+03  0.27634701384E+03  0.38669739093E+03  0.17120000000E+03 0.  0.
        998    1    1    2    0    0  0.75039062294E+01  0.75466452172E+01  0.87660254031E+03  0.87672417221E+03  0.10000000000E+02 0.  1.
</event>
<event>
 5    1  0.1252945E-008  0.3737072E+03  0.7957747E-01  0.3479025E+00
         13   -1    0    0    0    0  0.00000000000E+00  0.00000000000E+00  0.14999999963E+04  0.15000000000E+04  0.10566000000E+00 0. -1.
        994   -1    0    0    0    0 -0.00000000000E+00 -0.00000000000E+00  0.11368683772E-12  0.17120000000E+03  0.17120000000E+03 0.  0.
         13    1    1    2    0    0 -0.80156693737E+02  0.56024193374E+02  0.43630105151E+03  0.44712685505E+03  0.10566000000E+00 0. -1.
        994    1    1    2    0    0  0.89861816292E+02 -0.49079638687E+02  0.44028561247E+02  0.20428389845E+03  0.17120000000E+03 0.  0.
        998    1    1    2    0    0 -0.97051225550E+01 -0.69445546872E+01  0.10196703835E+04  0.10197892465E+04  0.10000000000E+02 0. -1.
</event>
<event>
 5    1  0.1252945E-008  0.3824542E+03  0.7957747E-01  0.3440542E+00
         13   -1    0    0    0    0  0.00000000000E+00  0.00000000000E+00  0.14999999963E+04  0.15000000000E+04  0.10566000000E+00 0.  1.
        994   -1    0    0    0    0 -0.00000000000E+00 -0.00000000000E+00  0.11368683772E-12  0.17120000000E+03  0.17120000000E+03 0.  0.
         13    1    1    2    0    0  0.14081814580E+02  0.77511061170E+01  0.43447856188E+02  0.46326067384E+02  0.10566000000E+00 0.  1.
        994    1    1    2    0    0 -0.10107498731E+02 -0.54890711231E+01  0.33382080114E+01  0.17161839955E+03  0.17120000000E+03 0.  0.
        998    1    1    2    0    0 -0.39743158493E+01 -0.22620349939E+01  0.14532139321E+04  0.14532555331E+04  0.10000000000E+02 0.  1.
</event>
<event>
 5    1  0.1252945E-008  0.3831858E+03  0.7957747E-01  0.3437403E+00
         13   -1    0    0    0    0  0.00000000000E+00  0.00000000000E+00  0.14999999963E+04  0.15000000000E+04  0.10566000000E+00 0. -1.
        994   -1    0    0    0    0 -0.00000000000E+00 -0.00000000000E+00  0.11368683772E-12  0.17120000000E+03  0.17120000000E+03 0.  0.
         13    1    1    2    0    0  0.58747164941E+01 -0.85019285583E+01  0.19989208816E+02  0.22502771300E+02  0.10566000000E+00 0. -1.
        994    1    1    2    0    0 -0.53068173876E+01  0.82691887151E+01  0.28529903962E+01  0.17150545574E+03  0.17120000000E+03 0.  0.
        998    1    1    2    0    0 -0.56789910641E+00  0.23273984322E+00  0.14771577971E+04  0.14771917730E+04  0.10000000000E+02 0. -1.
</event>
<event>
 5    1  0.1252945E-008  0.3845575E+03  0.7957747E-01  0.3431551E+00
         13   -1    0    0    0    0  0.00000000000E+00  0.00000000000E+00  0.14999999963E+04  0.15000000000E+04  0.10566000000E+00 0.  1.
        994   -1    0    0    0    0 -0.00000000000E+00 -0.00000000000E+00  0.11368683772E-12  0.17120000000E+03  0.17120000000E+03 0.  0.
         13    1    1    2    0    0 -0.95731612000E+01 -0.96216139110E+01  0.45789472607E+02  0.47758850858E+02  0.10566000000E+00 0.  1.
        994    1    1    2    0    0  0.12821538065E+02  0.22197711678E+02  0.40171735438E+01  0.17315515564E+03  0.17120000000E+03 0.  0.
        998    1    1    2    0    0 -0.32483768650E+01 -0.12576097767E+02  0.14501933501E+04  0.14502859935E+04  0.10000000000E+02 0.  1.
</event>
<event>
 5    1  0.1252945E-008  0.3831623E+03  0.7957747E-01  0.3437504E+00
         13   -1    0    0    0    0  0.00000000000E+00  0.00000000000E+00  0.14999999963E+04  0.15000000000E+04  0.10566000000E+00 0.  1.
        994   -1    0    0    0    0 -0.00000000000E+00 -0.00000000000E+00  0.11368683772E-12  0.17120000000E+03  0.17120000000E+03 0.  0.
         13    1    1    2    0    0  0.16419266190E+02  0.16394631306E+02  0.12115955033E+03  0.12336135553E+03  0.10566000000E+00 0.  1.
        994    1    1    2    0    0  0.63082147632E+01  0.13750122564E+01  0.26832010204E+01  0.17134270863E+03  0.17120000000E+03 0.  0.
        998    1    1    2    0    0 -0.22727480953E+02 -0.17769643562E+02  0.13761572449E+04  0.13764959358E+04  0.10000000000E+02 0.  1.
</event>
<event>
 5    1  0.1252945E-008  0.3767450E+03  0.7957747E-01  0.3465455E+00
         13   -1    0    0    0    0  0.00000000000E+00  0.00000000000E+00  0.14999999963E+04  0.15000000000E+04  0.10566000000E+00 0.  1.
        994   -1    0    0    0    0 -0.00000000000E+00 -0.00000000000E+00  0.11368683772E-12  0.17120000000E+03  0.17120000000E+03 0.  0.
         13    1    1    2    0    0 -0.90976271458E+02 -0.50131777676E+02  0.49982790116E+03  0.51050741331E+03  0.10566000000E+00 0.  1.
        994    1    1    2    0    0  0.21258904661E+02  0.74606505737E+01  0.16370358249E+02  0.17345037032E+03  0.17120000000E+03 0.  0.
        998    1    1    2    0    0  0.69717366797E+02  0.42671127102E+02  0.98380173687E+03  0.98724221637E+03  0.10000000000E+02 0.  1.
</event>
<event>
 5    1  0.1252945E-008  0.3758745E+03  0.7957747E-01  0.3469321E+00
         13   -1    0    0    0    0  0.00000000000E+00  0.00000000000E+00  0.14999999963E+04  0.15000000000E+04  0.10566000000E+00 0. -1.
        994   -1    0    0    0    0 -0.00000000000E+00 -0.00000000000E+00  0.11368683772E-12  0.17120000000E+03  0.17120000000E+03 0.  0.
         13    1    1    2    0    0 -0.54478681043E+02 -0.10007553316E+03  0.59380353814E+03  0.60463682661E+03  0.10566000000E+00 0. -1.
        994    1    1    2    0    0  0.49626746492E+02  0.10458343289E+03  0.53092228575E+02  0.21337463096E+03  0.17120000000E+03 0.  0.
        998    1    1    2    0    0  0.48519345510E+01 -0.45078997298E+01  0.85310422957E+03  0.85318854243E+03  0.10000000000E+02 0. -1.
</event>
<event>
 5    1  0.1252945E-008  0.3845116E+03  0.7957747E-01  0.3431746E+00
         13   -1    0    0    0    0  0.00000000000E+00  0.00000000000E+00  0.14999999963E+04  0.15000000000E+04  0.10566000000E+00 0.  1.
        994   -1    0    0    0    0 -0.00000000000E+00 -0.00000000000E+00  0.11368683772E-12  0.17120000000E+03  0.17120000000E+03 0.  0.
         13    1    1    2    0    0  0.95713920533E+01 -0.14079091249E+02  0.66973442926E+02  0.69103441142E+02  0.10566000000E+00 0.  1.
        994    1    1    2    0    0 -0.90114666461E+02 -0.10533269163E+02  0.29474190288E+02  0.19598410845E+03  0.17120000000E+03 0.  0.
        998    1    1    2    0    0  0.80543274408E+02  0.24612360413E+02  0.14035523631E+04  0.14061124504E+04  0.10000000000E+02 0.  1.
</event>
<event>
 5    1  0.1252945E-008  0.3850799E+03  0.7957747E-01  0.3429333E+00
         13   -1    0    0    0    0  0.00000000000E+00  0.00000000000E+00  0.14999999963E+04  0.15000000000E+04  0.10566000000E+00 0. -1.
        994   -1    0    0    0    0 -0.00000000000E+00 -0.00000000000E+00  0.11368683772E-12  0.17120000000E+03  0.17120000000E+03 0.  0.
         13    1    1    2    0    0  0.51034835202E+01  0.14330171523E+02  0.75575049855E+02  0.77090846957E+02  0.10566000000E+00 0. -1.
        994    1    1    2    0    0 -0.71141544763E+00 -0.46592691205E+01  0.16635279695E+01  0.17127294657E+03  0.17120000000E+03 0.  0.
        998    1    1    2    0    0 -0.43920680726E+01 -0.96709024030E+01  0.14227614185E+04  0.14228362065E+04  0.10000000000E+02 0. -1.
</event>
<event>
 5    1  0.1252945E-008  0.3769310E+03  0.7957747E-01  0.3464631E+00
         13   -1    0    0    0    0  0.00000000000E+00  0.00000000000E+00  0.14999999963E+04  0.15000000000E+04  0.10566000000E+00 0. -1.
        994   -1    0    0    0    0 -0.00000000000E+00 -0.00000000000E+00  0.11368683772E-12  0.17120000000E+03  0.17120000000E+03 0.  0.
         13    1    1    2    0    0 -0.27744991736E+02  0.98591095053E+02  0.32808147829E+03  0.34369675028E+03  0.10566000000E+00 0. -1.
        994    1    1    2    0    0  0.32608624917E+01 -0.75564248872E+02  0.35446220875E+02  0.19049006144E+03  0.17120000000E+03 0.  0.
        998    1    1    2    0    0  0.24484129244E+02 -0.23026846181E+02  0.11364722971E+04  0.11370131883E+04  0.10000000000E+02 0. -1.
</event>
<event>
 5    1  0.1252945E-008  0.3780945E+03  0.7957747E-01  0.3459498E+00
         13   -1    0    0    0    0  0.00000000000E+00  0.00000000000E+00  0.14999999963E+04  0.15000000000E+04  0.10566000000E+00 0.  1.
        994   -1    0    0    0    0 -0.00000000000E+00 -0.00000000000E+00  0.11368683772E-12  0.17120000000E+03  0.17120000000E+03 0.  0.
         13    1    1    2    0    0  0.18151944065E+02 -0.36632108631E+02  0.17828862802E+03  0.18291596568E+03  0.10566000000E+00 0.  1.
        994    1    1    2    0    0  0.27727755272E+01  0.11538223629E+02  0.55720214456E+01  0.17170121232E+03  0.17120000000E+03 0.  0.
        998    1    1    2    0    0 -0.20924719592E+02  0.25093885002E+02  0.13161393468E+04  0.13165828220E+04  0.10000000000E+02 0.  1.
</event>
<event>
 5    1  0.1252945E-008  0.4505829E+03  0.7957747E-01  0.3191682E+00
         13   -1    0    0    0    0  0.00000000000E+00  0.00000000000E+00  0.14999999963E+04  0.15000000000E+04  0.10566000000E+00 0. -1.
        994   -1    0    0    0    0 -0.00000000000E+00 -0.00000000000E+00  0.11368683772E-12  0.17120000000E+03  0.17120000000E+03 0.  0.
         13    1    1    2    0    0 -0.61746901080E+02  0.74020422805E+02  0.57078012615E+02  0.11202505735E+03  0.10566000000E+00 0. -1.
        994    1    1    2    0    0  0.64200651528E+02 -0.54706632042E+02  0.98861405898E+02  0.21493616918E+03  0.17120000000E+03 0.  0.
        998    1    1    2    0    0 -0.24537504474E+01 -0.19313790763E+02  0.13440605778E+04  0.13442387735E+04  0.10000000000E+02 0. -1.
</event>
<event>
 5    1  0.1252945E-008  0.3834645E+03  0.7957747E-01  0.3436211E+00
         13   -1    0    0    0    0  0.00000000000E+00  0.00000000000E+00  0.14999999963E+04  0.15000000000E+04  0.10566000000E+00 0. -1.
        994   -1    0    0    0    0 -0.00000000000E+00 -0.00000000000E+00  0.11368683772E-12  0.17120000000E+03  0.17120000000E+03 0.  0.
         13    1    1    2    0    0  0.20591767295E+02 -0.17490601244E+02  0.13674073245E+03  0.13938429283E+03  0.10566000000E+00 0. -1.
        994    1    1    2    0    0 -0.24250678125E+02  0.17859640711E+02  0.53980999022E+01  0.17391274145E+03  0.17120000000E+03 0.  0.
        998    1    1    2    0    0  0.36589108305E+01 -0.36903946691E+00  0.13578611639E+04  0.13579029657E+04  0.10000000000E+02 0. -1.
</event>
<event>
 5    1  0.1252945E-008  0.3858454E+03  0.7957747E-01  0.3426094E+00
         13   -1    0    0    0    0  0.00000000000E+00  0.00000000000E+00  0.14999999963E+04  0.15000000000E+04  0.10566000000E+00 0.  1.
        994   -1    0    0    0    0 -0.00000000000E+00 -0.00000000000E+00  0.11368683772E-12  0.17120000000E+03  0.17120000000E+03 0.  0.
         13    1    1    2    0    0 -0.99603797262E+01  0.34732212108E+01  0.46760210024E+02  0.47935381874E+02  0.10566000000E+00 0.  1.
        994    1    1    2    0    0  0.39210289595E+01 -0.61827000962E+01  0.13867781242E+01  0.17136208274E+03  0.17120000000E+03 0.  0.
        998    1    1    2    0    0  0.60393507667E+01  0.27094788854E+01  0.14518530081E+04  0.14519025354E+04  0.10000000000E+02 0.  1.
</event>
<event>
 5    1  0.1252945E-008  0.3728373E+03  0.7957747E-01  0.3482952E+00
         13   -1    0    0    0    0  0.00000000000E+00  0.00000000000E+00  0.14999999963E+04  0.15000000000E+04  0.10566000000E+00 0.  1.
        994   -1    0    0    0    0 -0.00000000000E+00 -0.00000000000E+00  0.11368683772E-12  0.17120000000E+03  0.17120000000E+03 0.  0.
         13    1    1    2    0    0  0.65546423306E+02  0.60214190317E+01  0.22832300096E+03  0.23762153738E+03  0.10566000000E+00 0.  1.
        994    1    1    2    0    0 -0.69690131374E+02 -0.45279881857E+01  0.24683021974E+02  0.18653661480E+03  0.17120000000E+03 0.  0.
        998    1    1    2    0    0  0.41437080676E+01 -0.14934308459E+01  0.12469939733E+04  0.12470418478E+04  0.10000000000E+02 0.  0.
</event>
<event>
 5    1  0.1252945E-008  0.3779113E+03  0.7957747E-01  0.3460304E+00
         13   -1    0    0    0    0  0.00000000000E+00  0.00000000000E+00  0.14999999963E+04  0.15000000000E+04  0.10566000000E+00 0. -1.
        994   -1    0    0    0    0 -0.00000000000E+00 -0.00000000000E+00  0.11368683772E-12  0.17120000000E+03  0.17120000000E+03 0.  0.
         13    1    1    2    0    0  0.39306668642E+02 -0.17258971327E+02  0.19716491170E+03  0.20178429042E+03  0.10566000000E+00 0. -1.
        994    1    1    2    0    0 -0.12413862187E+02 -0.83711874484E+01  0.59462219484E+01  0.17195632675E+03  0.17120000000E+03 0.  0.
        998    1    1    2    0    0 -0.26892806455E+02  0.25630158775E+02  0.12968888626E+04  0.12974593828E+04  0.10000000000E+02 0. -1.
</event>
<event>
 5    1  0.1252945E-008  0.3838029E+03  0.7957747E-01  0.3434765E+00
         13   -1    0    0    0    0  0.00000000000E+00  0.00000000000E+00  0.14999999963E+04  0.15000000000E+04  0.10566000000E+00 0. -1.
        994   -1    0    0    0    0 -0.00000000000E+00 -0.00000000000E+00  0.11368683772E-12  0.17120000000E+03  0.17120000000E+03 0.  0.
         13    1    1    2    0    0 -0.21393360099E+02  0.98826664511E+00  0.10020069199E+03  0.10246385883E+03  0.10566000000E+00 0. -1.
        994    1    1    2    0    0  0.17460166990E+02  0.10439028094E+02  0.35930945850E+01  0.17244181937E+03  0.17120000000E+03 0.  0.
        998    1    1    2    0    0  0.39331931091E+01 -0.11427294739E+02  0.13962062097E+04  0.13962943218E+04  0.10000000000E+02 0. -1.
</event>
<event>
 5    1  0.1252945E-008  0.3853863E+03  0.7957747E-01  0.3428035E+00
         13   -1    0    0    0    0  0.00000000000E+00  0.00000000000E+00  0.14999999963E+04  0.15000000000E+04  0.10566000000E+00 0.  1.
        994   -1    0    0    0    0 -0.00000000000E+00 -0.00000000000E+00  0.11368683772E-12  0.17120000000E+03  0.17120000000E+03 0.  0.
         13    1    1    2    0    0 -0.98552448393E+01  0.41412304031E+01  0.43572042787E+02  0.44864347948E+02  0.10566000000E+00 0.  1.
        994    1    1    2    0    0 -0.46261553366E+01  0.11919591488E+02  0.19755844588E+01  0.17168815017E+03  0.17120000000E+03 0.  0.
        998    1    1    2    0    0  0.14481400176E+02 -0.16060821891E+02  0.14544523690E+04  0.14546475019E+04  0.10000000000E+02 0.  1.
</event>
<event>
 5    1  0.1252945E-008  0.3841088E+03  0.7957747E-01  0.3433461E+00
         13   -1    0    0    0    0  0.00000000000E+00  0.00000000000E+00  0.14999999963E+04  0.15000000000E+04  0.10566000000E+00 0. -1.
        994   -1    0    0    0    0 -0.00000000000E+00 -0.00000000000E+00  0.11368683772E-12  0.17120000000E+03  0.17120000000E+03 0.  0.
         13    1    1    2    0    0 -0.15905202531E+02 -0.16199436492E+02  0.13303698106E+03  0.13496016710E+03  0.10566000000E+00 0. -1.
        994    1    1    2    0    0  0.35088107754E+01  0.40314200816E+01  0.21674668828E+01  0.17129711619E+03  0.17120000000E+03 0.  0.
        998    1    1    2    0    0  0.12396391756E+02  0.12168016410E+02  0.13647955483E+04  0.13649427167E+04  0.10000000000E+02 0. -1.
</event>
<event>
 5    1  0.1252945E-008  0.3794232E+03  0.7957747E-01  0.3453674E+00
         13   -1    0    0    0    0  0.00000000000E+00  0.00000000000E+00  0.14999999963E+04  0.15000000000E+04  0.10566000000E+00 0. -1.
        994   -1    0    0    0    0 -0.00000000000E+00 -0.00000000000E+00  0.11368683772E-12  0.17120000000E+03  0.17120000000E+03 0.  0.
         13    1    1    2    0    0  0.25039169641E+02  0.20305270711E+01  0.68250207330E+02  0.72726783382E+02  0.10566000000E+00 0. -1.
        994    1    1    2    0    0 -0.22656875934E+02  0.18449101536E+02  0.72891650373E+01  0.17382829258E+03  0.17120000000E+03 0.  0.
        998    1    1    2    0    0 -0.23822937074E+01 -0.20479628607E+02  0.14244606239E+04  0.14246449240E+04  0.10000000000E+02 0. -1.
</event>
<event>
 5    1  0.1252945E-008  0.3738069E+03  0.7957747E-01  0.3478576E+00
         13   -1    0    0    0    0  0.00000000000E+00  0.00000000000E+00  0.14999999963E+04  0.15000000000E+04  0.10566000000E+00 0.  1.
        994   -1    0    0    0    0 -0.00000000000E+00 -0.00000000000E+00  0.11368683772E-12  0.17120000000E+03  0.17120000000E+03 0.  0.
         13    1    1    2    0    0  0.55080945701E+01 -0.56454580106E+02  0.97005221021E+02  0.11237207300E+03  0.10566000000E+00 0.  1.
        994    1    1    2    0    0  0.24582920920E+02  0.10024060557E+03  0.51739915037E+02  0.20649202845E+03  0.17120000000E+03 0.  0.
        998    1    1    2    0    0 -0.30091015490E+02 -0.43786025461E+02  0.13512548602E+04  0.13523358986E+04  0.10000000000E+02 0.  1.
</event>
<event>
 5    1  0.1252945E-008  0.3831591E+03  0.7957747E-01  0.3437517E+00
         13   -1    0    0    0    0  0.00000000000E+00  0.00000000000E+00  0.14999999963E+04  0.15000000000E+04  0.10566000000E+00 0.  1.
        994   -1    0    0    0    0 -0.00000000000E+00 -0.00000000000E+00  0.11368683772E-12  0.17120000000E+03  0.17120000000E+03 0.  0.
         13    1    1    2    0    0  0.85986286774E+00 -0.11118086140E+02  0.23300421703E+02  0.25831608915E+02  0.10566000000E+00 0.  1.
        994    1    1    2    0    0  0.77698655121E+00  0.10583355567E+02  0.29195321593E+01  0.17155341673E+03  0.17120000000E+03 0.  0.
        998    1    1    2    0    0 -0.16368494189E+01  0.53473057282E+00  0.14737800424E+04  0.14738149744E+04  0.10000000000E+02 0.  1.
</event>
<event>
 5    1  0.1252945E-008  0.2922679E+03  0.7957747E-01  0.3952814E+00
         13   -1    0    0    0    0  0.00000000000E+00  0.00000000000E+00  0.14999999963E+04  0.15000000000E+04  0.10566000000E+00 0. -1.
        994   -1    0    0    0    0 -0.00000000000E+00 -0.00000000000E+00  0.11368683772E-12  0.17120000000E+03  0.17120000000E+03 0.  0.
         13    1    1    2    0    0  0.13293674122E+03  0.26199735927E+02  0.79244937868E+03  0.80394939658E+03  0.10566000000E+00 0. -1.
        994    1    1    2    0    0 -0.22068212911E+02 -0.46013061216E+02  0.30996123027E+02  0.18131300964E+03  0.17120000000E+03 0.  0.
        998    1    1    2    0    0 -0.11086852831E+03  0.19813325288E+02  0.67655449457E+03  0.68593759378E+03  0.10000000000E+02 0. -1.
</event>
<event>
 5    1  0.1252945E-008  0.3828009E+03  0.7957747E-01  0.3439053E+00
         13   -1    0    0    0    0  0.00000000000E+00  0.00000000000E+00  0.14999999963E+04  0.15000000000E+04  0.10566000000E+00 0. -1.
        994   -1    0    0    0    0 -0.00000000000E+00 -0.00000000000E+00  0.11368683772E-12  0.17120000000E+03  0.17120000000E+03 0.  0.
         13    1    1    2    0    0 -0.24006133116E+01  0.10587753834E+02  0.20851447511E+02  0.23508668675E+02  0.10566000000E+00 0. -1.
        994    1    1    2    0    0 -0.24102614149E+01 -0.42783012706E+01  0.28057954518E+01  0.17129339074E+03  0.17120000000E+03 0.  0.
        998    1    1    2    0    0  0.48108747265E+01 -0.63094525629E+01  0.14763427533E+04  0.14763979406E+04  0.10000000000E+02 0. -1.
</event>
<event>
 5    1  0.1252945E-008  0.3686467E+03  0.7957747E-01  0.3502133E+00
         13   -1    0    0    0    0  0.00000000000E+00  0.00000000000E+00  0.14999999963E+04  0.15000000000E+04  0.10566000000E+00 0.  1.
        994   -1    0    0    0    0 -0.00000000000E+00 -0.00000000000E+00  0.11368683772E-12  0.17120000000E+03  0.17120000000E+03 0.  0.
         13    1    1    2    0    0  0.48797701539E+02 -0.97275450031E+01  0.11125296361E+03  0.12187318771E+03  0.10566000000E+00 0.  1.
        994    1    1    2    0    0 -0.44556223972E+02  0.94865510235E+01  0.17480883190E+02  0.17801761998E+03  0.17120000000E+03 0.  0.
        998    1    1    2    0    0 -0.42414775671E+01  0.24099397964E+00  0.13712661495E+04  0.13713091923E+04  0.10000000000E+02 0.  1.
</event>
<event>
 5    1  0.1252945E-008  0.3753714E+03  0.7957747E-01  0.3471563E+00
         13   -1    0    0    0    0  0.00000000000E+00  0.00000000000E+00  0.14999999963E+04  0.15000000000E+04  0.10566000000E+00 0. -1.
        994   -1    0    0    0    0 -0.00000000000E+00 -0.00000000000E+00  0.11368683772E-12  0.17120000000E+03  0.17120000000E+03 0.  0.
         13    1    1    2    0    0 -0.13857655324E+02  0.20758025796E+02  0.44159092212E+02  0.50724420500E+02  0.10566000000E+00 0. -1.
        994    1    1    2    0    0  0.18817139323E+02 -0.18662603016E+02  0.88763386275E+01  0.17346644307E+03  0.17120000000E+03 0.  0.
        998    1    1    2    0    0 -0.49594839984E+01 -0.20954227801E+01  0.14469645654E+04  0.14470091364E+04  0.10000000000E+02 0. -1.
</event>
<event>
 5    1  0.1252945E-008  0.3840522E+03  0.7957747E-01  0.3433702E+00
         13   -1    0    0    0    0  0.00000000000E+00  0.00000000000E+00  0.14999999963E+04  0.15000000000E+04  0.10566000000E+00 0. -1.
        994   -1    0    0    0    0 -0.00000000000E+00 -0.00000000000E+00  0.11368683772E-12  0.17120000000E+03  0.17120000000E+03 0.  0.
         13    1    1    2    0    0 -0.16594940002E+02 -0.14918291724E+02  0.10321288494E+03  0.10559762423E+03  0.10566000000E+00 0. -1.
        994    1    1    2    0    0  0.26046049229E+02  0.20832923615E+02  0.57796930017E+01  0.17451433247E+03  0.17120000000E+03 0.  0.
        998    1    1    2    0    0 -0.94511092265E+01 -0.59146318911E+01  0.13910074183E+04  0.13910880433E+04  0.10000000000E+02 0. -1.
</event>
<event>
 5    1  0.1252945E-008  0.3849751E+03  0.7957747E-01  0.3429778E+00
         13   -1    0    0    0    0  0.00000000000E+00  0.00000000000E+00  0.14999999963E+04  0.15000000000E+04  0.10566000000E+00 0. -1.
        994   -1    0    0    0    0 -0.00000000000E+00 -0.00000000000E+00  0.11368683772E-12  0.17120000000E+03  0.17120000000E+03 0.  0.
         13    1    1    2    0    0  0.15215732893E+02 -0.51810920775E+01  0.78410927309E+02  0.80041532519E+02  0.10566000000E+00 0. -1.
        994    1    1    2    0    0 -0.15756672877E+02 -0.11228847292E+02  0.28746989494E+01  0.17231385216E+03  0.17120000000E+03 0.  0.
        998    1    1    2    0    0  0.54093998468E+00  0.16409939369E+02  0.14187143700E+04  0.14188446153E+04  0.10000000000E+02 0. -1.
</event>
<event>
 5    1  0.1252945E-008  0.3809633E+03  0.7957747E-01  0.3446975E+00
         13   -1    0    0    0    0  0.00000000000E+00  0.00000000000E+00  0.14999999963E+04  0.15000000000E+04  0.10566000000E+00 0. -1.
        994   -1    0    0    0    0 -0.00000000000E+00 -0.00000000000E+00  0.11368683772E-12  0.17120000000E+03  0.17120000000E+03 0.  0.
         13    1    1    2    0    0 -0.21326273687E+02 -0.42543076709E+02  0.26651710085E+03  0.27073252397E+03  0.10566000000E+00 0. -1.
        994    1    1    2    0    0 -0.10345716738E+02  0.56665522348E+02  0.14784460438E+02  0.18123475260E+03  0.17120000000E+03 0.  0.
        998    1    1    2    0    0  0.31671990425E+02 -0.14122445639E+02  0.12186984350E+04  0.12192327234E+04  0.10000000000E+02 0. -1.
</event>
<event>
 5    1  0.1252945E-008  0.3855902E+03  0.7957747E-01  0.3427173E+00
         13   -1    0    0    0    0  0.00000000000E+00  0.00000000000E+00  0.14999999963E+04  0.15000000000E+04  0.10566000000E+00 0. -1.
        994   -1    0    0    0    0 -0.00000000000E+00 -0.00000000000E+00  0.11368683772E-12  0.17120000000E+03  0.17120000000E+03 0.  0.
         13    1    1    2    0    0  0.42959678087E+01  0.12244193323E+02  0.62274726813E+02  0.63612328783E+02  0.10566000000E+00 0. -1.
        994    1    1    2    0    0 -0.98213476725E+01 -0.83836173934E+01  0.18848829960E+01  0.17169664148E+03  0.17120000000E+03 0.  0.
        998    1    1    2    0    0  0.55253798638E+01 -0.38605759293E+01  0.14358403865E+04  0.14358910297E+04  0.10000000000E+02 0.  0.
</event>
<event>
 5    1  0.1252945E-008  0.3723743E+03  0.7957747E-01  0.3485050E+00
         13   -1    0    0    0    0  0.00000000000E+00  0.00000000000E+00  0.14999999963E+04  0.15000000000E+04  0.10566000000E+00 0.  1.
        994   -1    0    0    0    0 -0.00000000000E+00 -0.00000000000E+00  0.11368683772E-12  0.17120000000E+03  0.17120000000E+03 0.  0.
         13    1    1    2    0    0  0.88743295509E+02  0.20087580965E+03  0.95621787487E+03  0.98111115516E+03  0.10566000000E+00 0.  1.
        994    1    1    2    0    0 -0.10651928010E+03 -0.18416450120E+03  0.18386964513E+03  0.32921179647E+03  0.17120000000E+03 0.  0.
        998    1    1    2    0    0  0.17775984590E+02 -0.16711308456E+02  0.35991247628E+03  0.36087704837E+03  0.10000000000E+02 0.  1.
</event>
<event>
 5    1  0.1252945E-008  0.3856276E+03  0.7957747E-01  0.3427015E+00
         13   -1    0    0    0    0  0.00000000000E+00  0.00000000000E+00  0.14999999963E+04  0.15000000000E+04  0.10566000000E+00 0. -1.
        994   -1    0    0    0    0 -0.00000000000E+00 -0.00000000000E+00  0.11368683772E-12  0.17120000000E+03  0.17120000000E+03 0.  0.
         13    1    1    2    0    0  0.13303220549E+02 -0.13817902348E+01  0.67276787608E+02  0.68593456948E+02  0.10566000000E+00 0. -1.
        994    1    1    2    0    0 -0.10630555905E+02  0.32187441719E+01  0.17238696891E+01  0.17156858908E+03  0.17120000000E+03 0.  0.
        998    1    1    2    0    0 -0.26726646434E+01 -0.18369539371E+01  0.14309993390E+04  0.14310379540E+04  0.10000000000E+02 0. -1.
</event>
<event>
 5    1  0.1252945E-008  0.3849255E+03  0.7957747E-01  0.3429988E+00
         13   -1    0    0    0    0  0.00000000000E+00  0.00000000000E+00  0.14999999963E+04  0.15000000000E+04  0.10566000000E+00 0.  1.
        994   -1    0    0    0    0 -0.00000000000E+00 -0.00000000000E+00  0.11368683772E-12  0.17120000000E+03  0.17120000000E+03 0.  0.
         13    1    1    2    0    0  0.91561076518E+01 -0.57081480273E+01  0.33891428002E+02  0.35567644247E+02  0.10566000000E+00 0.  1.
        994    1    1    2    0    0 -0.12193367445E+02  0.39974615505E+01  0.22089479144E+01  0.17169443019E+03  0.17120000000E+03 0.  0.
        998    1    1    2    0    0  0.30372597929E+01  0.17106864767E+01  0.14638996204E+04  0.14639379256E+04  0.10000000000E+02 0.  1.
</event>
<event>
 5    1  0.1252945E-008  0.3839223E+03  0.7957747E-01  0.3434256E+00
         13   -1    0    0    0    0  0.00000000000E+00  0.00000000000E+00  0.14999999963E+04  0.15000000000E+04  0.10566000000E+00 0.  1.
        994   -1    0    0    0    0 -0.00000000000E+00 -0.00000000000E+00  0.11368683772E-12  0.17120000000E+03  0.17120000000E+03 0.  0.
         13    1    1    2    0    0  0.23605705194E+02 -0.19911426947E+01  0.13133965686E+03  0.13345902216E+03  0.10566000000E+00 0.  1.
        994    1    1    2    0    0 -0.11476218284E+02  0.13093715170E+02  0.31672117999E+01  0.17211223139E+03  0.17120000000E+03 0.  0.
        998    1    1    2    0    0 -0.12129486909E+02 -0.11102572476E+02  0.13654931276E+04  0.13656287465E+04  0.10000000000E+02 0.  1.
</event>
<event>
 5    1  0.1252945E-008  0.3860590E+03  0.7957747E-01  0.3425193E+00
         13   -1    0    0    0    0  0.00000000000E+00  0.00000000000E+00  0.14999999963E+04  0.15000000000E+04  0.10566000000E+00 0.  1.
        994   -1    0    0    0    0 -0.00000000000E+00 -0.00000000000E+00  0.11368683772E-12  0.17120000000E+03  0.17120000000E+03 0.  0.
         13    1    1    2    0    0 -0.45259941077E+01 -0.10774701358E+02  0.63117575299E+02  0.64190484401E+02  0.10566000000E+00 0.  1.
        994    1    1    2    0    0  0.40872044517E+01  0.55057574418E+01  0.12593626053E+01  0.17134189388E+03  0.17120000000E+03 0.  0.
        998    1    1    2    0    0  0.43878965600E+00  0.52689439165E+01  0.14356230584E+04  0.14356676217E+04  0.10000000000E+02 0.  1.
</event>
<event>
 5    1  0.1252945E-008  0.3812643E+03  0.7957747E-01  0.3445672E+00
         13   -1    0    0    0    0  0.00000000000E+00  0.00000000000E+00  0.14999999963E+04  0.15000000000E+04  0.10566000000E+00 0. -1.
        994   -1    0    0    0    0 -0.00000000000E+00 -0.00000000000E+00  0.11368683772E-12  0.17120000000E+03  0.17120000000E+03 0.  0.
         13    1    1    2    0    0  0.25815925402E+02 -0.27660387932E+01  0.10613794328E+03  0.10926750268E+03  0.10566000000E+00 0. -1.
        994    1    1    2    0    0  0.21595610033E+01 -0.59438506421E+01  0.36294397263E+01  0.17135520388E+03  0.17120000000E+03 0.  0.
        998    1    1    2    0    0 -0.27975486405E+02  0.87098894353E+01  0.13902326133E+04  0.13905772934E+04  0.10000000000E+02 0. -1.
</event>
<event>
 5    1  0.1252945E-008  0.3773327E+03  0.7957747E-01  0.3462855E+00
         13   -1    0    0    0    0  0.00000000000E+00  0.00000000000E+00  0.14999999963E+04  0.15000000000E+04  0.10566000000E+00 0. -1.
        994   -1    0    0    0    0 -0.00000000000E+00 -0.00000000000E+00  0.11368683772E-12  0.17120000000E+03  0.17120000000E+03 0.  0.
         13    1    1    2    0    0  0.17852708213E+02 -0.15550307155E+03  0.84411031695E+03  0.85849994921E+03  0.10566000000E+00 0. -1.
        994    1    1    2    0    0  0.10908602383E+01  0.16007419527E+03  0.97452273019E+02  0.25383325921E+03  0.17120000000E+03 0.  0.
        998    1    1    2    0    0 -0.18943568452E+02 -0.45711237229E+01  0.55843740631E+03  0.55886679158E+03  0.10000000000E+02 0. -1.
</event>
<event>
 5    1  0.1252945E-008  0.3836816E+03  0.7957747E-01  0.3435283E+00
         13   -1    0    0    0    0  0.00000000000E+00  0.00000000000E+00  0.14999999963E+04  0.15000000000E+04  0.10566000000E+00 0.  1.
        994   -1    0    0    0    0 -0.00000000000E+00 -0.00000000000E+00  0.11368683772E-12  0.17120000000E+03  0.17120000000E+03 0.  0.
         13    1    1    2    0    0  0.72024149410E+02 -0.96367443889E+01  0.15211765321E+03  0.16858272902E+03  0.10566000000E+00 0.  1.
        994    1    1    2    0    0 -0.21139032456E+02 -0.53188734526E+01  0.20111562227E+02  0.17375000444E+03  0.17120000000E+03 0.  0.
        998    1    1    2    0    0 -0.50885116955E+02  0.14955617842E+02  0.13277707808E+04  0.13288672665E+04  0.10000000000E+02 0.  1.
</event>
<event>
 5    1  0.1252945E-008  0.3854532E+03  0.7957747E-01  0.3427752E+00
         13   -1    0    0    0    0  0.00000000000E+00  0.00000000000E+00  0.14999999963E+04  0.15000000000E+04  0.10566000000E+00 0.  1.
        994   -1    0    0    0    0 -0.00000000000E+00 -0.00000000000E+00  0.11368683772E-12  0.17120000000E+03  0.17120000000E+03 0.  0.
         13    1    1    2    0    0 -0.14115893641E+02  0.47241682569E+01  0.83369227883E+02  0.84687753193E+02  0.10566000000E+00 0.  1.
        994    1    1    2    0    0  0.19590868882E+01 -0.40212118872E+01  0.14709834650E+01  0.17126474231E+03  0.17120000000E+03 0.  0.
        998    1    1    2    0    0  0.12156806752E+02 -0.70295636971E+00  0.14151597849E+04  0.14152475045E+04  0.10000000000E+02 0.  1.
</event>
<event>
 5    1  0.1252945E-008  0.3907802E+03  0.7957747E-01  0.3405521E+00
         13   -1    0    0    0    0  0.00000000000E+00  0.00000000000E+00  0.14999999963E+04  0.15000000000E+04  0.10566000000E+00 0. -1.
        994   -1    0    0    0    0 -0.00000000000E+00 -0.00000000000E+00  0.11368683772E-12  0.17120000000E+03  0.17120000000E+03 0.  0.
         13    1    1    2    0    0 -0.25042540170E+02 -0.49282587072E+02  0.65316312948E+02  0.85569469485E+02  0.10566000000E+00 0. -1.
        994    1    1    2    0    0  0.30001093479E+02 -0.32501693864E+01  0.25823099416E+02  0.17574669748E+03  0.17120000000E+03 0.  0.
        998    1    1    2    0    0 -0.49585533087E+01  0.52532756458E+02  0.14088605839E+04  0.14098838330E+04  0.10000000000E+02 0. -1.
</event>
<event>
 5    1  0.1252945E-008  0.3839976E+03  0.7957747E-01  0.3433935E+00
         13   -1    0    0    0    0  0.00000000000E+00  0.00000000000E+00  0.14999999963E+04  0.15000000000E+04  0.10566000000E+00 0. -1.
        994   -1    0    0    0    0 -0.00000000000E+00 -0.00000000000E+00  0.11368683772E-12  0.17120000000E+03  0.17120000000E+03 0.  0.
         13    1    1    2    0    0  0.10918514232E+02 -0.16685660639E+02  0.95142209735E+02  0.97209446358E+02  0.10566000000E+00 0. -1.
        994    1    1    2    0    0 -0.92757531323E+01  0.49642928645E+01  0.24939156221E+01  0.17154108375E+03  0.17120000000E+03 0.  0.
        998    1    1    2    0    0 -0.16427610999E+01  0.11721367775E+02  0.14023638709E+04  0.14024494699E+04  0.10000000000E+02 0. -1.
</event>
<event>
 5    1  0.1252945E-008  0.3824468E+03  0.7957747E-01  0.3440573E+00
         13   -1    0    0    0    0  0.00000000000E+00  0.00000000000E+00  0.14999999963E+04  0.15000000000E+04  0.10566000000E+00 0. -1.
        994   -1    0    0    0    0 -0.00000000000E+00 -0.00000000000E+00  0.11368683772E-12  0.17120000000E+03  0.17120000000E+03 0.  0.
         13    1    1    2    0    0  0.15114361708E+02  0.42010382324E+01  0.43569964757E+02  0.46308159594E+02  0.10566000000E+00 0. -1.
        994    1    1    2    0    0  0.26900531050E+01 -0.23551590089E+01  0.29454640405E+01  0.17126266061E+03  0.17120000000E+03 0.  0.
        998    1    1    2    0    0 -0.17804414813E+02 -0.18458792235E+01  0.14534845675E+04  0.14536291798E+04  0.10000000000E+02 0. -1.
</event>
<event>
 5    1  0.1252945E-008  0.3710639E+03  0.7957747E-01  0.3491016E+00
         13   -1    0    0    0    0  0.00000000000E+00  0.00000000000E+00  0.14999999963E+04  0.15000000000E+04  0.10566000000E+00 0. -1.
        994   -1    0    0    0    0 -0.00000000000E+00 -0.00000000000E+00  0.11368683772E-12  0.17120000000E+03  0.17120000000E+03 0.  0.
         13    1    1    2    0    0  0.20141409407E+02 -0.21616526441E+02  0.45479628116E+02  0.54234291052E+02  0.10566000000E+00 0. -1.
        994    1    1    2    0    0 -0.16901090097E+02  0.23857514937E+02  0.11664592391E+02  0.17406990142E+03  0.17120000000E+03 0.  0.
        998    1    1    2    0    0 -0.32403193099E+01 -0.22409884953E+01  0.14428557758E+04  0.14428958075E+04  0.10000000000E+02 0. -1.
</event>
<event>
 5    1  0.1252945E-008  0.2439767E+03  0.7957747E-01  0.4400212E+00
         13   -1    0    0    0    0  0.00000000000E+00  0.00000000000E+00  0.14999999963E+04  0.15000000000E+04  0.10566000000E+00 0. -1.
        994   -1    0    0    0    0 -0.00000000000E+00 -0.00000000000E+00  0.11368683772E-12  0.17120000000E+03  0.17120000000E+03 0.  0.
         13    1    1    2    0    0  0.15793390634E+03  0.23663791682E+02  0.12828758356E+03  0.20484337692E+03  0.10566000000E+00 0. -1.
        994    1    1    2    0    0 -0.18725861162E+03 -0.32460144631E+02  0.30035375305E+03  0.39451396120E+03  0.17120000000E+03 0.  0.
        998    1    1    2    0    0  0.29324705277E+02  0.87963529489E+01  0.10713586597E+04  0.10718426619E+04  0.10000000000E+02 0. -1.
</event>
<event>
 5    1  0.1252945E-008  0.3858652E+03  0.7957747E-01  0.3426011E+00
         13   -1    0    0    0    0  0.00000000000E+00  0.00000000000E+00  0.14999999963E+04  0.15000000000E+04  0.10566000000E+00 0. -1.
        994   -1    0    0    0    0 -0.00000000000E+00 -0.00000000000E+00  0.11368683772E-12  0.17120000000E+03  0.17120000000E+03 0.  0.
         13    1    1    2    0    0 -0.10928408663E+02  0.26042937807E+01  0.55117263647E+02  0.56250656689E+02  0.10566000000E+00 0. -1.
        994    1    1    2    0    0  0.13291874101E+01 -0.26591334771E+01  0.12301652218E+01  0.17123022816E+03  0.17120000000E+03 0.  0.
        998    1    1    2    0    0  0.95992212529E+01  0.54839696381E-01  0.14436525674E+04  0.14437191151E+04  0.10000000000E+02 0. -1.
</event>
<event>
 5    1  0.1252945E-008  0.3778577E+03  0.7957747E-01  0.3460540E+00
         13   -1    0    0    0    0  0.00000000000E+00  0.00000000000E+00  0.14999999963E+04  0.15000000000E+04  0.10566000000E+00 0. -1.
        994   -1    0    0    0    0 -0.00000000000E+00 -0.00000000000E+00  0.11368683772E-12  0.17120000000E+03  0.17120000000E+03 0.  0.
         13    1    1    2    0    0  0.23583531557E+01  0.43961185391E+02  0.15178213307E+03  0.15803789018E+03  0.10566000000E+00 0. -1.
        994    1    1    2    0    0 -0.71540465658E+01 -0.59670756427E+02  0.17476464617E+02  0.18228177740E+03  0.17120000000E+03 0.  0.
        998    1    1    2    0    0  0.47956934100E+01  0.15709571036E+02  0.13307413986E+04  0.13308803324E+04  0.10000000000E+02 0.  0.
</event>
<event>
 5    1  0.1252945E-008  0.3834689E+03  0.7957747E-01  0.3436192E+00
         13   -1    0    0    0    0  0.00000000000E+00  0.00000000000E+00  0.14999999963E+04  0.15000000000E+04  0.10566000000E+00 0.  1.
        994   -1    0    0    0    0 -0.00000000000E+00 -0.00000000000E+00  0.11368683772E-12  0.17120000000E+03  0.17120000000E+03 0.  0.
         13    1    1    2    0    0 -0.14566756550E+02  0.15095462688E+02  0.10703432136E+03  0.10907071332E+03  0.10566000000E+00 0.  1.
        994    1    1    2    0    0 -0.12173062037E+02  0.13070574365E+01  0.28877628009E+01  0.17166150125E+03  0.17120000000E+03 0.  0.
        998    1    1    2    0    0  0.26739818587E+02 -0.16402520124E+02  0.13900779121E+04  0.13904677854E+04  0.10000000000E+02 0.  1.
</event>
<event>
 5    1  0.1252945E-008  0.3853725E+03  0.7957747E-01  0.3428094E+00
         13   -1    0    0    0    0  0.00000000000E+00  0.00000000000E+00  0.14999999963E+04  0.15000000000E+04  0.10566000000E+00 0. -1.
        994   -1    0    0    0    0 -0.00000000000E+00 -0.00000000000E+00  0.11368683772E-12  0.17120000000E+03  0.17120000000E+03 0.  0.
         13    1    1    2    0    0  0.17572793414E+02  0.13175186734E+01 -0.65823373279E+00  0.17634720285E+02  0.10566000000E+00 0. -1.
        994    1    1    2    0    0 -0.16329326329E+02 -0.18773186649E+01  0.20309602231E+02  0.17318224842E+03  0.17120000000E+03 0.  0.
        998    1    1    2    0    0 -0.12434670848E+01  0.55979999140E+00  0.14803486278E+04  0.14803830313E+04  0.10000000000E+02 0. -1.
</event>
<event>
 5    1  0.1252945E-008  0.3860533E+03  0.7957747E-01  0.3425217E+00
         13   -1    0    0    0    0  0.00000000000E+00  0.00000000000E+00  0.14999999963E+04  0.15000000000E+04  0.10566000000E+00 0.  1.
        994   -1    0    0    0    0 -0.00000000000E+00 -0.00000000000E+00  0.11368683772E-12  0.17120000000E+03  0.17120000000E+03 0.  0.
         13    1    1    2    0    0  0.44521918915E+01 -0.10041577409E+02  0.64561228171E+02  0.65489072649E+02  0.10566000000E+00 0.  1.
        994    1    1    2    0    0  0.52380495926E+01 -0.11622959469E+02  0.16409806200E+01  0.17168186616E+03  0.17120000000E+03 0.  0.
        998    1    1    2    0    0 -0.96902414842E+01  0.21664536878E+02  0.14337977875E+04  0.14340290612E+04  0.10000000000E+02 0.  1.
</event>
<event>
 5    1  0.1252945E-008  0.3848404E+03  0.7957747E-01  0.3430350E+00
         13   -1    0    0    0    0  0.00000000000E+00  0.00000000000E+00  0.14999999963E+04  0.15000000000E+04  0.10566000000E+00 0. -1.
        994   -1    0    0    0    0 -0.00000000000E+00 -0.00000000000E+00  0.11368683772E-12  0.17120000000E+03  0.17120000000E+03 0.  0.
         13    1    1    2    0    0  0.27132585288E+01  0.12384947090E+02  0.47089494506E+02  0.48766590440E+02  0.10566000000E+00 0. -1.
        994    1    1    2    0    0  0.10959888100E+01 -0.80372905030E+01  0.19259481732E+01  0.17140288360E+03  0.17120000000E+03 0.  0.
        998    1    1    2    0    0 -0.38092473389E+01 -0.43476565871E+01  0.14509845536E+04  0.14510305260E+04  0.10000000000E+02 0. -1.
</event>
<event>
 5    1  0.1252945E-008  0.3830963E+03  0.7957747E-01  0.3437786E+00
         13   -1    0    0    0    0  0.00000000000E+00  0.00000000000E+00  0.14999999963E+04  0.15000000000E+04  0.10566000000E+00 0. -1.
        994   -1    0    0    0    0 -0.00000000000E+00 -0.00000000000E+00  0.11368683772E-12  0.17120000000E+03  0.17120000000E+03 0.  0.
         13    1    1    2    0    0  0.25509736368E+01 -0.21310022403E+02  0.96602932662E+02  0.98958386629E+02  0.10566000000E+00 0. -1.
        994    1    1    2    0    0 -0.28080479870E+01 -0.54274934167E+00  0.26053152201E+01  0.17124370756E+03  0.17120000000E+03 0.  0.
        998    1    1    2    0    0  0.25707435022E+00  0.21852771744E+02  0.14007917484E+04  0.14009979058E+04  0.10000000000E+02 0. -1.
</event>
<event>
 5    1  0.1252945E-008  0.3860354E+03  0.7957747E-01  0.3425293E+00
         13   -1    0    0    0    0  0.00000000000E+00  0.00000000000E+00  0.14999999963E+04  0.15000000000E+04  0.10566000000E+00 0. -1.
        994   -1    0    0    0    0 -0.00000000000E+00 -0.00000000000E+00  0.11368683772E-12  0.17120000000E+03  0.17120000000E+03 0.  0.
         13    1    1    2    0    0 -0.67424063495E+01 -0.10167042989E+02  0.61663672907E+02  0.62858957413E+02  0.10566000000E+00 0. -1.
        994    1    1    2    0    0  0.17185754121E+02  0.13224610017E+02  0.26597414379E+01  0.17258839671E+03  0.17120000000E+03 0.  0.
        998    1    1    2    0    0 -0.10443347772E+02 -0.30575670281E+01  0.14356765819E+04  0.14357526459E+04  0.10000000000E+02 0. -1.
</event>
<event>
 5    1  0.1252945E-008  0.3798640E+03  0.7957747E-01  0.3451751E+00
         13   -1    0    0    0    0  0.00000000000E+00  0.00000000000E+00  0.14999999963E+04  0.15000000000E+04  0.10566000000E+00 0.  1.
        994   -1    0    0    0    0 -0.00000000000E+00 -0.00000000000E+00  0.11368683772E-12  0.17120000000E+03  0.17120000000E+03 0.  0.
         13    1    1    2    0    0 -0.51114090328E+01  0.19693045977E+02  0.51503789482E+02  0.55376836829E+02  0.10566000000E+00 0.  1.
        994    1    1    2    0    0 -0.11030412566E+01  0.69831602914E+01  0.43689944100E+01  0.17140160250E+03  0.17120000000E+03 0.  0.
        998    1    1    2    0    0  0.62144502894E+01 -0.26676206268E+02  0.14441272124E+04  0.14444215607E+04  0.10000000000E+02 0.  1.
</event>
<event>
 5    1  0.1252945E-008  0.3842189E+03  0.7957747E-01  0.3432992E+00
         13   -1    0    0    0    0  0.00000000000E+00  0.00000000000E+00  0.14999999963E+04  0.15000000000E+04  0.10566000000E+00 0.  1.
        994   -1    0    0    0    0 -0.00000000000E+00 -0.00000000000E+00  0.11368683772E-12  0.17120000000E+03  0.17120000000E+03 0.  0.
         13    1    1    2    0    0  0.14812231632E+02  0.23693037699E+02  0.16193471379E+03  0.16432779721E+03  0.10566000000E+00 0.  1.
        994    1    1    2    0    0 -0.33546519043E+02 -0.22719868561E+02  0.74495014949E+01  0.17608661630E+03  0.17120000000E+03 0.  0.
        998    1    1    2    0    0  0.18734287411E+02 -0.97316913839E+00  0.13306157810E+04  0.13307855865E+04  0.10000000000E+02 0.  1.
</event>
<event>
 5    1  0.1252945E-008  0.3758322E+03  0.7957747E-01  0.3469509E+00
         13   -1    0    0    0    0  0.00000000000E+00  0.00000000000E+00  0.14999999963E+04  0.15000000000E+04  0.10566000000E+00 0.  1.
        994   -1    0    0    0    0 -0.00000000000E+00 -0.00000000000E+00  0.11368683772E-12  0.17120000000E+03  0.17120000000E+03 0.  0.
         13    1    1    2    0    0 -0.19509170401E+02  0.98476584927E+01  0.34094218103E+02  0.40497049023E+02  0.10566000000E+00 0.  1.
        994    1    1    2    0    0  0.34592481918E+02  0.87048272085E+00  0.10321554621E+02  0.17496677409E+03  0.17120000000E+03 0.  0.
        998    1    1    2    0    0 -0.15083311517E+02 -0.10718141214E+02  0.14555842236E+04  0.14557361769E+04  0.10000000000E+02 0.  1.
</event>
<event>
 5    1  0.1252945E-008  0.3823108E+03  0.7957747E-01  0.3441158E+00
         13   -1    0    0    0    0  0.00000000000E+00  0.00000000000E+00  0.14999999963E+04  0.15000000000E+04  0.10566000000E+00 0. -1.
        994   -1    0    0    0    0 -0.00000000000E+00 -0.00000000000E+00  0.11368683772E-12  0.17120000000E+03  0.17120000000E+03 0.  0.
         13    1    1    2    0    0  0.14822373095E+02 -0.94466279017E+01  0.50199244304E+02  0.53187562602E+02  0.10566000000E+00 0. -1.
        994    1    1    2    0    0 -0.12624990073E+02  0.86095411417E+01  0.37462647164E+01  0.17192146193E+03  0.17120000000E+03 0.  0.
        998    1    1    2    0    0 -0.21973830225E+01  0.83708676002E+00  0.14460544873E+04  0.14460909755E+04  0.10000000000E+02 0. -1.
</event>
<event>
 5    1  0.1252945E-008  0.3704672E+03  0.7957747E-01  0.3493747E+00
         13   -1    0    0    0    0  0.00000000000E+00  0.00000000000E+00  0.14999999963E+04  0.15000000000E+04  0.10566000000E+00 0.  1.
        994   -1    0    0    0    0 -0.00000000000E+00 -0.00000000000E+00  0.11368683772E-12  0.17120000000E+03  0.17120000000E+03 0.  0.
         13    1    1    2    0    0 -0.14740747130E+02 -0.63654954625E+02  0.16223610331E+03  0.17489942040E+03  0.10566000000E+00 0.  1.
        994    1    1    2    0    0  0.46098602452E+02  0.10853066138E+03  0.58673411032E+02  0.21599998789E+03  0.17120000000E+03 0.  0.
        998    1    1    2    0    0 -0.31357855322E+02 -0.44875706756E+02  0.12790904819E+04  0.12803005917E+04  0.10000000000E+02 0.  1.
</event>
<event>
 5    1  0.1252945E-008  0.3765964E+03  0.7957747E-01  0.3466114E+00
         13   -1    0    0    0    0  0.00000000000E+00  0.00000000000E+00  0.14999999963E+04  0.15000000000E+04  0.10566000000E+00 0.  1.
        994   -1    0    0    0    0 -0.00000000000E+00 -0.00000000000E+00  0.11368683772E-12  0.17120000000E+03  0.17120000000E+03 0.  0.
         13    1    1    2    0    0  0.49389437068E+01  0.35316225904E+02  0.10062741705E+03  0.10675915512E+03  0.10566000000E+00 0.  1.
        994    1    1    2    0    0 -0.66705262234E+01 -0.33658085662E+02  0.98522293261E+01  0.17488244358E+03  0.17120000000E+03 0.  0.
        998    1    1    2    0    0  0.17315825166E+01 -0.16581402416E+01  0.13895203499E+04  0.13895584013E+04  0.10000000000E+02 0.  0.
</event>
<event>
 5    1  0.1252945E-008  0.3695359E+03  0.7957747E-01  0.3498027E+00
         13   -1    0    0    0    0  0.00000000000E+00  0.00000000000E+00  0.14999999963E+04  0.15000000000E+04  0.10566000000E+00 0. -1.
        994   -1    0    0    0    0 -0.00000000000E+00 -0.00000000000E+00  0.11368683772E-12  0.17120000000E+03  0.17120000000E+03 0.  0.
         13    1    1    2    0    0  0.27500147775E+02  0.57724134932E+02  0.20253434968E+03  0.21238763582E+03  0.10566000000E+00 0. -1.
        994    1    1    2    0    0 -0.85594259601E+01 -0.21282605268E+02  0.12532405912E+02  0.17318404735E+03  0.17120000000E+03 0.  0.
        998    1    1    2    0    0 -0.18940721815E+02 -0.36441529664E+02  0.12849332407E+04  0.12856283168E+04  0.10000000000E+02 0. -1.
</event>
<event>
 5    1  0.1252945E-008  0.3798561E+03  0.7957747E-01  0.3451786E+00
         13   -1    0    0    0    0  0.00000000000E+00  0.00000000000E+00  0.14999999963E+04  0.15000000000E+04  0.10566000000E+00 0. -1.
        994   -1    0    0    0    0 -0.00000000000E+00 -0.00000000000E+00  0.11368683772E-12  0.17120000000E+03  0.17120000000E+03 0.  0.
         13    1    1    2    0    0 -0.16998915301E+01  0.29401399180E+02  0.99981686411E+02  0.10422898199E+03  0.10566000000E+00 0. -1.
        994    1    1    2    0    0 -0.79956023772E+01 -0.21725609013E+02  0.60003071577E+01  0.17286230194E+03  0.17120000000E+03 0.  0.
        998    1    1    2    0    0  0.96954939073E+01 -0.76757901670E+01  0.13940180027E+04  0.13941087161E+04  0.10000000000E+02 0. -1.
</event>
<event>
 5    1  0.1252945E-008  0.3923725E+03  0.7957747E-01  0.3398994E+00
         13   -1    0    0    0    0  0.00000000000E+00  0.00000000000E+00  0.14999999963E+04  0.15000000000E+04  0.10566000000E+00 0. -1.
        994   -1    0    0    0    0 -0.00000000000E+00 -0.00000000000E+00  0.11368683772E-12  0.17120000000E+03  0.17120000000E+03 0.  0.
         13    1    1    2    0    0  0.65075154190E+02  0.10531939910E+03  0.25911837305E+03  0.28717467495E+03  0.10566000000E+00 0. -1.
        994    1    1    2    0    0 -0.63010420608E+02 -0.10817770175E+03  0.85628325184E+02  0.22872336639E+03  0.17120000000E+03 0.  0.
        998    1    1    2    0    0 -0.20647335814E+01  0.28583026419E+01  0.11552532980E+04  0.11553019587E+04  0.10000000000E+02 0. -1.
</event>
<event>
 5    1  0.1252945E-008  0.3837638E+03  0.7957747E-01  0.3434932E+00
         13   -1    0    0    0    0  0.00000000000E+00  0.00000000000E+00  0.14999999963E+04  0.15000000000E+04  0.10566000000E+00 0.  1.
        994   -1    0    0    0    0 -0.00000000000E+00 -0.00000000000E+00  0.11368683772E-12  0.17120000000E+03  0.17120000000E+03 0.  0.
         13    1    1    2    0    0 -0.86115906855E+01  0.11039320201E+02  0.43945294130E+02  0.46121861680E+02  0.10566000000E+00 0.  1.
        994    1    1    2    0    0 -0.45476579562E-01 -0.63847411736E+01  0.23797357419E+01  0.17133554836E+03  0.17120000000E+03 0.  0.
        998    1    1    2    0    0  0.86570672651E+01 -0.46545790273E+01  0.14536749664E+04  0.14537425900E+04  0.10000000000E+02 0.  1.
</event>
<event>
 5    1  0.1252945E-008  0.3776457E+03  0.7957747E-01  0.3461474E+00
         13   -1    0    0    0    0  0.00000000000E+00  0.00000000000E+00  0.14999999963E+04  0.15000000000E+04  0.10566000000E+00 0. -1.
        994   -1    0    0    0    0 -0.00000000000E+00 -0.00000000000E+00  0.11368683772E-12  0.17120000000E+03  0.17120000000E+03 0.  0.
         13    1    1    2    0    0  0.13252704260E+02 -0.18060766308E+01  0.14330481341E+02  0.19602804455E+02  0.10566000000E+00 0. -1.
        994    1    1    2    0    0 -0.13166778910E+02  0.31137215694E+01  0.59433041311E+01  0.17183661482E+03  0.17120000000E+03 0.  0.
        998    1    1    2    0    0 -0.85925349775E-01 -0.13076449386E+01  0.14797262108E+04  0.14797605807E+04  0.10000000000E+02 0. -1.
</event>
<event>
 5    1  0.1252945E-008  0.3817288E+03  0.7957747E-01  0.3443665E+00
         13   -1    0    0    0    0  0.00000000000E+00  0.00000000000E+00  0.14999999963E+04  0.15000000000E+04  0.10566000000E+00 0. -1.
        994   -1    0    0    0    0 -0.00000000000E+00 -0.00000000000E+00  0.11368683772E-12  0.17120000000E+03  0.17120000000E+03 0.  0.
         13    1    1    2    0    0  0.15733939401E+02 -0.16786780233E+02  0.77320149245E+02  0.80670747381E+02  0.10566000000E+00 0. -1.
        994    1    1    2    0    0 -0.20066151884E+02  0.10474051268E+02  0.49678613220E+01  0.17276132625E+03  0.17120000000E+03 0.  0.
        998    1    1    2    0    0  0.43322124824E+01  0.63127289657E+01  0.14177119857E+04  0.14177679264E+04  0.10000000000E+02 0. -1.
</event>
<event>
 5    1  0.1252945E-008  0.3750335E+03  0.7957747E-01  0.3473073E+00
         13   -1    0    0    0    0  0.00000000000E+00  0.00000000000E+00  0.14999999963E+04  0.15000000000E+04  0.10566000000E+00 0. -1.
        994   -1    0    0    0    0 -0.00000000000E+00 -0.00000000000E+00  0.11368683772E-12  0.17120000000E+03  0.17120000000E+03 0.  0.
         13    1    1    2    0    0 -0.32198493187E+01  0.50907448741E+02  0.20561733457E+03  0.21185002999E+03  0.10566000000E+00 0. -1.
        994    1    1    2    0    0 -0.24884848801E+02 -0.21667628206E+02  0.10370876962E+02  0.17465891589E+03  0.17120000000E+03 0.  0.
        998    1    1    2    0    0  0.28104698120E+02 -0.29239820535E+02  0.12840117847E+04  0.12846910541E+04  0.10000000000E+02 0. -1.
</event>
<event>
 5    1  0.1252945E-008  0.3838159E+03  0.7957747E-01  0.3434710E+00
         13   -1    0    0    0    0  0.00000000000E+00  0.00000000000E+00  0.14999999963E+04  0.15000000000E+04  0.10566000000E+00 0. -1.
        994   -1    0    0    0    0 -0.00000000000E+00 -0.00000000000E+00  0.11368683772E-12  0.17120000000E+03  0.17120000000E+03 0.  0.
         13    1    1    2    0    0  0.97569517934E+01  0.53816840894E+01  0.27789986526E+02  0.29940860827E+02  0.10566000000E+00 0. -1.
        994    1    1    2    0    0 -0.12926982949E+01 -0.37685392388E+01  0.22715560690E+01  0.17126141692E+03  0.17120000000E+03 0.  0.
        998    1    1    2    0    0 -0.84642534985E+01 -0.16131448506E+01  0.14699384537E+04  0.14699977223E+04  0.10000000000E+02 0. -1.
</event>
<event>
 5    1  0.1252945E-008  0.3770210E+03  0.7957747E-01  0.3464233E+00
         13   -1    0    0    0    0  0.00000000000E+00  0.00000000000E+00  0.14999999963E+04  0.15000000000E+04  0.10566000000E+00 0. -1.
        994   -1    0    0    0    0 -0.00000000000E+00 -0.00000000000E+00  0.11368683772E-12  0.17120000000E+03  0.17120000000E+03 0.  0.
         13    1    1    2    0    0 -0.43136586550E+02 -0.38758472277E+02  0.32247996401E+03  0.32765274701E+03  0.10566000000E+00 0. -1.
        994    1    1    2    0    0  0.33144525855E+01  0.32114942483E+02  0.91718070460E+01  0.17445892689E+03  0.17120000000E+03 0.  0.
        998    1    1    2    0    0  0.39822133964E+02  0.66435297941E+01  0.11683482252E+04  0.11690883261E+04  0.10000000000E+02 0. -1.
</event>
<event>
 5    1  0.1252945E-008  0.3842317E+03  0.7957747E-01  0.3432937E+00
         13   -1    0    0    0    0  0.00000000000E+00  0.00000000000E+00  0.14999999963E+04  0.15000000000E+04  0.10566000000E+00 0. -1.
        994   -1    0    0    0    0 -0.00000000000E+00 -0.00000000000E+00  0.11368683772E-12  0.17120000000E+03  0.17120000000E+03 0.  0.
         13    1    1    2    0    0 -0.13247085037E+02 -0.74090822585E+01  0.54025314282E+02  0.56117069678E+02  0.10566000000E+00 0. -1.
        994    1    1    2    0    0  0.17821660005E+02  0.89097124523E+01  0.33220009831E+01  0.17238755823E+03  0.17120000000E+03 0.  0.
        998    1    1    2    0    0 -0.45745749679E+01 -0.15006301938E+01  0.14426526810E+04  0.14426953721E+04  0.10000000000E+02 0. -1.
</event>
<event>
 5    1  0.1252945E-008  0.3834353E+03  0.7957747E-01  0.3436336E+00
         13   -1    0    0    0    0  0.00000000000E+00  0.00000000000E+00  0.14999999963E+04  0.15000000000E+04  0.10566000000E+00 0.  1.
        994   -1    0    0    0    0 -0.00000000000E+00 -0.00000000000E+00  0.11368683772E-12  0.17120000000E+03  0.17120000000E+03 0.  0.
         13    1    1    2    0    0 -0.21120483652E+02 -0.10486286568E+02  0.11222963325E+03  0.11468015861E+03  0.10566000000E+00 0.  1.
        994    1    1    2    0    0  0.18734339131E+02  0.23170328343E+01  0.35877494234E+01  0.17227494319E+03  0.17120000000E+03 0.  0.
        998    1    1    2    0    0  0.23861445214E+01  0.81692537340E+01  0.13841826136E+04  0.13842448982E+04  0.10000000000E+02 0.  1.
</event>
<event>
 5    1  0.1252945E-008  0.3694156E+03  0.7957747E-01  0.3498581E+00
         13   -1    0    0    0    0  0.00000000000E+00  0.00000000000E+00  0.14999999963E+04  0.15000000000E+04  0.10566000000E+00 0.  1.
        994   -1    0    0    0    0 -0.00000000000E+00 -0.00000000000E+00  0.11368683772E-12  0.17120000000E+03  0.17120000000E+03 0.  0.
         13    1    1    2    0    0 -0.16999237371E+02  0.14034766112E+02  0.20660927851E+02  0.30213140100E+02  0.10566000000E+00 0.  1.
        994    1    1    2    0    0  0.23114434834E+02 -0.17192710091E+02  0.12455431801E+02  0.17405299239E+03  0.17120000000E+03 0.  0.
        998    1    1    2    0    0 -0.61151974628E+01  0.31579439794E+01  0.14668836366E+04  0.14669338675E+04  0.10000000000E+02 0.  1.
</event>
<event>
 5    1  0.1252945E-008  0.3874040E+03  0.7957747E-01  0.3419540E+00
         13   -1    0    0    0    0  0.00000000000E+00  0.00000000000E+00  0.14999999963E+04  0.15000000000E+04  0.10566000000E+00 0.  1.
        994   -1    0    0    0    0 -0.00000000000E+00 -0.00000000000E+00  0.11368683772E-12  0.17120000000E+03  0.17120000000E+03 0.  0.
         13    1    1    2    0    0  0.53493527027E+02 -0.37936741502E+02  0.10291808475E+03  0.12203645817E+03  0.10566000000E+00 0.  1.
        994    1    1    2    0    0 -0.13017278055E+02  0.34422626603E+02  0.25516600117E+02  0.17696017527E+03  0.17120000000E+03 0.  0.
        998    1    1    2    0    0 -0.40476248972E+02  0.35141148993E+01  0.13715653114E+04  0.13722033666E+04  0.10000000000E+02 0.  1.
</event>
<event>
 5    1  0.1252945E-008  0.3798157E+03  0.7957747E-01  0.3451961E+00
         13   -1    0    0    0    0  0.00000000000E+00  0.00000000000E+00  0.14999999963E+04  0.15000000000E+04  0.10566000000E+00 0.  1.
        994   -1    0    0    0    0 -0.00000000000E+00 -0.00000000000E+00  0.11368683772E-12  0.17120000000E+03  0.17120000000E+03 0.  0.
         13    1    1    2    0    0 -0.91641846652E+01  0.41472718161E+02  0.21124025752E+03  0.21546792382E+03  0.10566000000E+00 0.  1.
        994    1    1    2    0    0  0.40563370508E+02 -0.18526101266E+02  0.10906852271E+02  0.17724842138E+03  0.17120000000E+03 0.  0.
        998    1    1    2    0    0 -0.31399185843E+02 -0.22946616896E+02  0.12778528865E+04  0.12784836548E+04  0.10000000000E+02 0.  1.
</event>
<event>
 5    1  0.1252945E-008  0.3783490E+03  0.7957747E-01  0.3458379E+00
         13   -1    0    0    0    0  0.00000000000E+00  0.00000000000E+00  0.14999999963E+04  0.15000000000E+04  0.10566000000E+00 0. -1.
        994   -1    0    0    0    0 -0.00000000000E+00 -0.00000000000E+00  0.11368683772E-12  0.17120000000E+03  0.17120000000E+03 0.  0.
         13    1    1    2    0    0 -0.70183532442E+01 -0.90199744379E+01  0.10877038085E+02  0.15777780029E+02  0.10566000000E+00 0. -1.
        994    1    1    2    0    0 -0.41513888963E+01  0.16314784606E+02  0.59220623716E+01  0.17212761850E+03  0.17120000000E+03 0.  0.
        998    1    1    2    0    0  0.11169742141E+02 -0.72948101677E+01  0.14832008958E+04  0.14832946015E+04  0.10000000000E+02 0. -1.
</event>
<event>
 5    1  0.1260042E-008  0.3862074E+03  0.7957747E-01  0.3424568E+00
         13   -1    0    0    0    0  0.00000000000E+00  0.00000000000E+00  0.14999999963E+04  0.15000000000E+04  0.10566000000E+00 0.  1.
        994   -1    0    0    0    0 -0.00000000000E+00 -0.00000000000E+00  0.11368683772E-12  0.17120000000E+03  0.17120000000E+03 0.  0.
         13    1    1    2    0    0  0.69766635610E+01  0.75179657450E+01  0.51075018682E+02  0.52094743889E+02  0.10566000000E+00 0.  1.
        994    1    1    2    0    0 -0.10026812183E+02 -0.28071763756E+01  0.13870965387E+01  0.17152195556E+03  0.17120000000E+03 0.  0.
        998    1    1    2    0    0  0.30501486218E+01 -0.47107893694E+01  0.14475378811E+04  0.14475833006E+04  0.10000000000E+02 0.  1.
</event>
<event>
 5    1  0.1252945E-008  0.3842724E+03  0.7957747E-01  0.3432764E+00
         13   -1    0    0    0    0  0.00000000000E+00  0.00000000000E+00  0.14999999963E+04  0.15000000000E+04  0.10566000000E+00 0.  1.
        994   -1    0    0    0    0 -0.00000000000E+00 -0.00000000000E+00  0.11368683772E-12  0.17120000000E+03  0.17120000000E+03 0.  0.
         13    1    1    2    0    0 -0.93111583765E+01 -0.36828315730E+01  0.25251272821E+02  0.27164293877E+02  0.10566000000E+00 0.  1.
        994    1    1    2    0    0  0.22310518512E+01 -0.53038577729E+01  0.21009593252E+01  0.17130955178E+03  0.17120000000E+03 0.  0.
        998    1    1    2    0    0  0.70801065252E+01  0.89866893458E+01  0.14726477641E+04  0.14727261543E+04  0.10000000000E+02 0.  1.
</event>
<event>
 5    1  0.1252945E-008  0.3778782E+03  0.7957747E-01  0.3460449E+00
         13   -1    0    0    0    0  0.00000000000E+00  0.00000000000E+00  0.14999999963E+04  0.15000000000E+04  0.10566000000E+00 0.  1.
        994   -1    0    0    0    0 -0.00000000000E+00 -0.00000000000E+00  0.11368683772E-12  0.17120000000E+03  0.17120000000E+03 0.  0.
         13    1    1    2    0    0 -0.31748455009E+02 -0.19823572734E+02  0.12477099463E+03  0.13026415738E+03  0.10566000000E+00 0.  1.
        994    1    1    2    0    0  0.29679225489E+02  0.17065248471E+02  0.91640248356E+01  0.17482991301E+03  0.17120000000E+03 0.  0.
        998    1    1    2    0    0  0.20692295204E+01  0.27583242627E+01  0.13660649768E+04  0.13661059296E+04  0.10000000000E+02 0.  1.
</event>
<event>
 5    1  0.1252945E-008  0.3789918E+03  0.7957747E-01  0.3455560E+00
         13   -1    0    0    0    0  0.00000000000E+00  0.00000000000E+00  0.14999999963E+04  0.15000000000E+04  0.10566000000E+00 0. -1.
        994   -1    0    0    0    0 -0.00000000000E+00 -0.00000000000E+00  0.11368683772E-12  0.17120000000E+03  0.17120000000E+03 0.  0.
         13    1    1    2    0    0 -0.21681067410E+02 -0.79967206517E+01  0.52280513278E+02  0.57160121220E+02  0.10566000000E+00 0. -1.
        994    1    1    2    0    0  0.33037710414E+02  0.45863095336E+01  0.83834779630E+01  0.17462029449E+03  0.17120000000E+03 0.  0.
        998    1    1    2    0    0 -0.11356643004E+02  0.34104111181E+01  0.14393360050E+04  0.14394195843E+04  0.10000000000E+02 0. -1.
</event>
<event>
 5    1  0.1252945E-008  0.3848440E+03  0.7957747E-01  0.3430334E+00
         13   -1    0    0    0    0  0.00000000000E+00  0.00000000000E+00  0.14999999963E+04  0.15000000000E+04  0.10566000000E+00 0.  1.
        994   -1    0    0    0    0 -0.00000000000E+00 -0.00000000000E+00  0.11368683772E-12  0.17120000000E+03  0.17120000000E+03 0.  0.
         13    1    1    2    0    0  0.16895970826E+01 -0.13211339248E+02  0.57722877884E+02  0.59239649039E+02  0.10566000000E+00 0.  1.
        994    1    1    2    0    0  0.76289986778E+01 -0.82623067480E+01  0.21238123819E+01  0.17158210254E+03  0.17120000000E+03 0.  0.
        998    1    1    2    0    0 -0.93185957604E+01  0.21473645996E+02  0.14401533060E+04  0.14403782484E+04  0.10000000000E+02 0.  1.
</event>
<event>
 5    1  0.1252945E-008  0.4002542E+03  0.7957747E-01  0.3367446E+00
         13   -1    0    0    0    0  0.00000000000E+00  0.00000000000E+00  0.14999999963E+04  0.15000000000E+04  0.10566000000E+00 0. -1.
        994   -1    0    0    0    0 -0.00000000000E+00 -0.00000000000E+00  0.11368683772E-12  0.17120000000E+03  0.17120000000E+03 0.  0.
         13    1    1    2    0    0 -0.16408966087E+03  0.11867769117E+01  0.38046005952E+03  0.41433886289E+03  0.10566000000E+00 0. -1.
        994    1    1    2    0    0  0.14362911743E+03  0.84830727401E+02  0.14775275750E+03  0.28100870633E+03  0.17120000000E+03 0.  0.
        998    1    1    2    0    0  0.20460543442E+02 -0.86017504313E+02  0.97178717926E+03  0.97585243078E+03  0.10000000000E+02 0. -1.
</event>
<event>
 5    1  0.1252945E-008  0.2878436E+03  0.7957747E-01  0.3986818E+00
         13   -1    0    0    0    0  0.00000000000E+00  0.00000000000E+00  0.14999999963E+04  0.15000000000E+04  0.10566000000E+00 0.  1.
        994   -1    0    0    0    0 -0.00000000000E+00 -0.00000000000E+00  0.11368683772E-12  0.17120000000E+03  0.17120000000E+03 0.  0.
         13    1    1    2    0    0 -0.71300007941E+02  0.14805015417E+03  0.58374240650E+03  0.60643033202E+03  0.10566000000E+00 0.  1.
        994    1    1    2    0    0  0.73748093207E+02 -0.14984324610E+03  0.11844800548E+03  0.26689164403E+03  0.17120000000E+03 0.  0.
        998    1    1    2    0    0 -0.24480852659E+01  0.17930919308E+01  0.79780958429E+03  0.79787802394E+03  0.10000000000E+02 0. -1.
</event>
<event>
 5    1  0.1252945E-008  0.3724425E+03  0.7957747E-01  0.3484740E+00
         13   -1    0    0    0    0  0.00000000000E+00  0.00000000000E+00  0.14999999963E+04  0.15000000000E+04  0.10566000000E+00 0. -1.
        994   -1    0    0    0    0 -0.00000000000E+00 -0.00000000000E+00  0.11368683772E-12  0.17120000000E+03  0.17120000000E+03 0.  0.
         13    1    1    2    0    0  0.87944691717E+02  0.26669503879E+03  0.10454700862E+04  0.10825286254E+04  0.10566000000E+00 0. -1.
        994    1    1    2    0    0 -0.10448494581E+03 -0.25527461292E+03  0.33290496246E+03  0.46499181276E+03  0.17120000000E+03 0.  0.
        998    1    1    2    0    0  0.16540254097E+02 -0.11420425872E+02  0.12162494763E+03  0.12367956185E+03  0.10000000000E+02 0. -1.
</event>
<event>
 5    1  0.1252945E-008  0.3844113E+03  0.7957747E-01  0.3432173E+00
         13   -1    0    0    0    0  0.00000000000E+00  0.00000000000E+00  0.14999999963E+04  0.15000000000E+04  0.10566000000E+00 0.  1.
        994   -1    0    0    0    0 -0.00000000000E+00 -0.00000000000E+00  0.11368683772E-12  0.17120000000E+03  0.17120000000E+03 0.  0.
         13    1    1    2    0    0 -0.11105249789E+02  0.53534256883E+01  0.37074871191E+02  0.39070999185E+02  0.10566000000E+00 0.  1.
        994    1    1    2    0    0  0.18216665576E+02 -0.92435774677E+01  0.32988576768E+01  0.17244597151E+03  0.17120000000E+03 0.  0.
        998    1    1    2    0    0 -0.71114157870E+01  0.38901517794E+01  0.14596262674E+04  0.14596830293E+04  0.10000000000E+02 0.  1.
</event>
<event>
 5    1  0.1252945E-008  0.3687372E+03  0.7957747E-01  0.3501715E+00
         13   -1    0    0    0    0  0.00000000000E+00  0.00000000000E+00  0.14999999963E+04  0.15000000000E+04  0.10566000000E+00 0. -1.
        994   -1    0    0    0    0 -0.00000000000E+00 -0.00000000000E+00  0.11368683772E-12  0.17120000000E+03  0.17120000000E+03 0.  0.
         13    1    1    2    0    0  0.25743930804E+02  0.87891072359E+02  0.40424869899E+03  0.41449319943E+03  0.10566000000E+00 0. -1.
        994    1    1    2    0    0 -0.87282935291E+02 -0.42412661425E+02  0.43386993622E+02  0.20151678803E+03  0.17120000000E+03 0.  0.
        998    1    1    2    0    0  0.61539004488E+02 -0.45478410934E+02  0.10523643037E+04  0.10551900125E+04  0.10000000000E+02 0. -1.
</event>
<event>
 5    1  0.1252945E-008  0.3746735E+03  0.7957747E-01  0.3474684E+00
         13   -1    0    0    0    0  0.00000000000E+00  0.00000000000E+00  0.14999999963E+04  0.15000000000E+04  0.10566000000E+00 0. -1.
        994   -1    0    0    0    0 -0.00000000000E+00 -0.00000000000E+00  0.11368683772E-12  0.17120000000E+03  0.17120000000E+03 0.  0.
         13    1    1    2    0    0  0.83632456958E+01 -0.73658523602E+01 -0.16406281370E+01  0.11265100278E+02  0.10566000000E+00 0. -1.
        994    1    1    2    0    0 -0.18078064959E+01  0.12311662358E+02  0.13982165935E+02  0.17222016769E+03  0.17120000000E+03 0.  0.
        998    1    1    2    0    0 -0.65554391999E+01 -0.49458099982E+01  0.14876584585E+04  0.14877147320E+04  0.10000000000E+02 0. -1.
</event>
<event>
 5    1  0.1252945E-008  0.3748496E+03  0.7957747E-01  0.3473896E+00
         13   -1    0    0    0    0  0.00000000000E+00  0.00000000000E+00  0.14999999963E+04  0.15000000000E+04  0.10566000000E+00 0. -1.
        994   -1    0    0    0    0 -0.00000000000E+00 -0.00000000000E+00  0.11368683772E-12  0.17120000000E+03  0.17120000000E+03 0.  0.
         13    1    1    2    0    0  0.59333691756E+02 -0.74672429583E+01  0.11953763545E+03  0.13366190238E+03  0.10566000000E+00 0. -1.
        994    1    1    2    0    0 -0.57915301943E+02 -0.77321974039E+01  0.25769591523E+02  0.18272241494E+03  0.17120000000E+03 0.  0.
        998    1    1    2    0    0 -0.14183898135E+01  0.15199440362E+02  0.13546927693E+04  0.13548156827E+04  0.10000000000E+02 0. -1.
</event>
<event>
 5    1  0.1252945E-008  0.3824195E+03  0.7957747E-01  0.3440691E+00
         13   -1    0    0    0    0  0.00000000000E+00  0.00000000000E+00  0.14999999963E+04  0.15000000000E+04  0.10566000000E+00 0.  1.
        994   -1    0    0    0    0 -0.00000000000E+00 -0.00000000000E+00  0.11368683772E-12  0.17120000000E+03  0.17120000000E+03 0.  0.
         13    1    1    2    0    0  0.92504557678E+01  0.43213815260E+01  0.16606727285E+02  0.19494610161E+02  0.10566000000E+00 0.  1.
        994    1    1    2    0    0 -0.91990341779E+01 -0.24922629770E+01  0.32180651686E+01  0.17149527559E+03  0.17120000000E+03 0.  0.
        998    1    1    2    0    0 -0.51421589877E-01 -0.18291185490E+01  0.14801752038E+04  0.14802101143E+04  0.10000000000E+02 0.  1.
</event>
<event>
 5    1  0.1252945E-008  0.3747198E+03  0.7957747E-01  0.3474477E+00
         13   -1    0    0    0    0  0.00000000000E+00  0.00000000000E+00  0.14999999963E+04  0.15000000000E+04  0.10566000000E+00 0. -1.
        994   -1    0    0    0    0 -0.00000000000E+00 -0.00000000000E+00  0.11368683772E-12  0.17120000000E+03  0.17120000000E+03 0.  0.
         13    1    1    2    0    0 -0.24582098951E+02  0.38131284026E+00  0.16500818088E+02  0.29609342274E+02  0.10566000000E+00 0. -1.
        994    1    1    2    0    0  0.24178284714E+02  0.13509402600E+02  0.16188162251E+02  0.17417976348E+03  0.17120000000E+03 0.  0.
        998    1    1    2    0    0  0.40381423727E+00 -0.13890715440E+02  0.14673110159E+04  0.14674108942E+04  0.10000000000E+02 0. -1.
</event>
<event>
 5    1  0.1252945E-008  0.3786712E+03  0.7957747E-01  0.3456965E+00
         13   -1    0    0    0    0  0.00000000000E+00  0.00000000000E+00  0.14999999963E+04  0.15000000000E+04  0.10566000000E+00 0. -1.
        994   -1    0    0    0    0 -0.00000000000E+00 -0.00000000000E+00  0.11368683772E-12  0.17120000000E+03  0.17120000000E+03 0.  0.
         13    1    1    2    0    0  0.10975996433E+03  0.19858467754E+03  0.10152859723E+04  0.10403310726E+04  0.10566000000E+00 0. -1.
        994    1    1    2    0    0 -0.12229767581E+03 -0.19373221499E+03  0.20798399941E+03  0.35363212049E+03  0.17120000000E+03 0.  0.
        998    1    1    2    0    0  0.12537711475E+02 -0.48524625563E+01  0.27673002454E+03  0.27723680687E+03  0.10000000000E+02 0.  0.
</event>
<event>
 5    1  0.1252945E-008  0.3852829E+03  0.7957747E-01  0.3428473E+00
         13   -1    0    0    0    0  0.00000000000E+00  0.00000000000E+00  0.14999999963E+04  0.15000000000E+04  0.10566000000E+00 0. -1.
        994   -1    0    0    0    0 -0.00000000000E+00 -0.00000000000E+00  0.11368683772E-12  0.17120000000E+03  0.17120000000E+03 0.  0.
         13    1    1    2    0    0 -0.11288628154E+02  0.11699848618E+02  0.97351046894E+02  0.98699326637E+02  0.10566000000E+00 0. -1.
        994    1    1    2    0    0  0.23791118256E+01  0.28613115877E+01  0.15352652674E+01  0.17124731915E+03  0.17120000000E+03 0.  0.
        998    1    1    2    0    0  0.89095163281E+01 -0.14561160205E+02  0.14011136841E+04  0.14012533542E+04  0.10000000000E+02 0. -1.
</event>
<event>
 5    1  0.1252945E-008  0.3749654E+03  0.7957747E-01  0.3473377E+00
         13   -1    0    0    0    0  0.00000000000E+00  0.00000000000E+00  0.14999999963E+04  0.15000000000E+04  0.10566000000E+00 0.  1.
        994   -1    0    0    0    0 -0.00000000000E+00 -0.00000000000E+00  0.11368683772E-12  0.17120000000E+03  0.17120000000E+03 0.  0.
         13    1    1    2    0    0 -0.94638115114E+01  0.31412825826E+02  0.82517175361E+02  0.88799914123E+02  0.10566000000E+00 0.  1.
        994    1    1    2    0    0  0.79739554579E+01 -0.36409715312E+01  0.69577488721E+01  0.17156541292E+03  0.17120000000E+03 0.  0.
        998    1    1    2    0    0  0.14898560535E+01 -0.27771854295E+02  0.14105250720E+04  0.14108346730E+04  0.10000000000E+02 0.  1.
</event>
<event>
 5    1  0.1252945E-008  0.3736088E+03  0.7957747E-01  0.3479468E+00
         13   -1    0    0    0    0  0.00000000000E+00  0.00000000000E+00  0.14999999963E+04  0.15000000000E+04  0.10566000000E+00 0.  1.
        994   -1    0    0    0    0 -0.00000000000E+00 -0.00000000000E+00  0.11368683772E-12  0.17120000000E+03  0.17120000000E+03 0.  0.
         13    1    1    2    0    0  0.99361456340E+01  0.16991222629E+02  0.22886958262E+02  0.30186961739E+02  0.10566000000E+00 0.  1.
        994    1    1    2    0    0 -0.45609903809E+02  0.85567995515E+01  0.14785395920E+02  0.17799306188E+03  0.17120000000E+03 0.  0.
        998    1    1    2    0    0  0.35673758175E+02 -0.25548022180E+02  0.14623276421E+04  0.14630199764E+04  0.10000000000E+02 0.  1.
</event>
<event>
 5    1  0.1252945E-008  0.3826547E+03  0.7957747E-01  0.3439680E+00
         13   -1    0    0    0    0  0.00000000000E+00  0.00000000000E+00  0.14999999963E+04  0.15000000000E+04  0.10566000000E+00 0. -1.
        994   -1    0    0    0    0 -0.00000000000E+00 -0.00000000000E+00  0.11368683772E-12  0.17120000000E+03  0.17120000000E+03 0.  0.
         13    1    1    2    0    0  0.13269255792E+02  0.39327212654E+01  0.31927363422E+02  0.34798091111E+02  0.10566000000E+00 0. -1.
        994    1    1    2    0    0 -0.17871263023E+02 -0.12272524908E+02  0.43580927523E+01  0.17262221723E+03  0.17120000000E+03 0.  0.
        998    1    1    2    0    0  0.46020072305E+01  0.83398036422E+01  0.14637145401E+04  0.14637796917E+04  0.10000000000E+02 0. -1.
</event>
<event>
 5    1  0.1252945E-008  0.3795850E+03  0.7957747E-01  0.3452967E+00
         13   -1    0    0    0    0  0.00000000000E+00  0.00000000000E+00  0.14999999963E+04  0.15000000000E+04  0.10566000000E+00 0.  1.
        994   -1    0    0    0    0 -0.00000000000E+00 -0.00000000000E+00  0.11368683772E-12  0.17120000000E+03  0.17120000000E+03 0.  0.
         13    1    1    2    0    0  0.68409509207E+02 -0.15364641640E+02  0.12842052382E+03  0.14631396128E+03  0.10566000000E+00 0.  1.
        994    1    1    2    0    0 -0.81592155360E+02  0.19707275750E+02  0.42056844174E+02  0.19525336022E+03  0.17120000000E+03 0.  0.
        998    1    1    2    0    0  0.13182646152E+02 -0.43426341100E+01  0.13295226283E+04  0.13296326785E+04  0.10000000000E+02 0.  1.
</event>
<event>
 5    1  0.1252945E-008  0.3835422E+03  0.7957747E-01  0.3435879E+00
         13   -1    0    0    0    0  0.00000000000E+00  0.00000000000E+00  0.14999999963E+04  0.15000000000E+04  0.10566000000E+00 0.  1.
        994   -1    0    0    0    0 -0.00000000000E+00 -0.00000000000E+00  0.11368683772E-12  0.17120000000E+03  0.17120000000E+03 0.  0.
         13    1    1    2    0    0  0.72374502789E+01  0.81254953566E+01  0.23884244274E+02  0.26246383559E+02  0.10566000000E+00 0.  1.
        994    1    1    2    0    0 -0.30313924628E+01 -0.14886504424E+02  0.31186277180E+01  0.17190102732E+03  0.17120000000E+03 0.  0.
        998    1    1    2    0    0 -0.42060578161E+01  0.67610090670E+01  0.14729971243E+04  0.14730525891E+04  0.10000000000E+02 0.  1.
</event>
<event>
 5    1  0.1252945E-008  0.3771714E+03  0.7957747E-01  0.3463568E+00
         13   -1    0    0    0    0  0.00000000000E+00  0.00000000000E+00  0.14999999963E+04  0.15000000000E+04  0.10566000000E+00 0. -1.
        994   -1    0    0    0    0 -0.00000000000E+00 -0.00000000000E+00  0.11368683772E-12  0.17120000000E+03  0.17120000000E+03 0.  0.
         13    1    1    2    0    0  0.37718705974E+02  0.24396306035E+02  0.16875092649E+03  0.17462750895E+03  0.10566000000E+00 0. -1.
        994    1    1    2    0    0 -0.30260931514E+02 -0.20538264093E+02  0.10094712145E+02  0.17535360698E+03  0.17120000000E+03 0.  0.
        998    1    1    2    0    0 -0.74577744603E+01 -0.38580419413E+01  0.13211543576E+04  0.13212188841E+04  0.10000000000E+02 0. -1.
</event>
<event>
 5    1  0.1252945E-008  0.3827114E+03  0.7957747E-01  0.3439437E+00
         13   -1    0    0    0    0  0.00000000000E+00  0.00000000000E+00  0.14999999963E+04  0.15000000000E+04  0.10566000000E+00 0. -1.
        994   -1    0    0    0    0 -0.00000000000E+00 -0.00000000000E+00  0.11368683772E-12  0.17120000000E+03  0.17120000000E+03 0.  0.
         13    1    1    2    0    0 -0.10480453297E+02  0.11699115826E+02  0.43439079338E+02  0.46191709106E+02  0.10566000000E+00 0. -1.
        994    1    1    2    0    0  0.12520682574E+02 -0.42441236267E+01  0.33499577328E+01  0.17174237187E+03  0.17120000000E+03 0.  0.
        998    1    1    2    0    0 -0.20402292773E+01 -0.74549921989E+01  0.14532109592E+04  0.14532659190E+04  0.10000000000E+02 0. -1.
</event>
<event>
 5    1  0.1252945E-008  0.3863218E+03  0.7957747E-01  0.3424086E+00
         13   -1    0    0    0    0  0.00000000000E+00  0.00000000000E+00  0.14999999963E+04  0.15000000000E+04  0.10566000000E+00 0.  1.
        994   -1    0    0    0    0 -0.00000000000E+00 -0.00000000000E+00  0.11368683772E-12  0.17120000000E+03  0.17120000000E+03 0.  0.
         13    1    1    2    0    0  0.95829095216E+01  0.49187354763E+01  0.60924564611E+02  0.61869538956E+02  0.10566000000E+00 0.  1.
        994    1    1    2    0    0 -0.10130158964E+02  0.53626978105E+01  0.14056429637E+01  0.17158902786E+03  0.17120000000E+03 0.  0.
        998    1    1    2    0    0  0.54724944258E+00 -0.10281433287E+02  0.14376697887E+04  0.14377414332E+04  0.10000000000E+02 0.  1.
</event>
<event>
 5    1  0.1252945E-008  0.2467699E+03  0.7957747E-01  0.4368812E+00
         13   -1    0    0    0    0  0.00000000000E+00  0.00000000000E+00  0.14999999963E+04  0.15000000000E+04  0.10566000000E+00 0.  1.
        994   -1    0    0    0    0 -0.00000000000E+00 -0.00000000000E+00  0.11368683772E-12  0.17120000000E+03  0.17120000000E+03 0.  0.
         13    1    1    2    0    0 -0.59380166023E+02  0.14814773489E+03  0.47739001477E+03  0.50336367850E+03  0.10566000000E+00 0.  1.
        994    1    1    2    0    0 -0.89934547393E+01 -0.40033149982E+02  0.44820755218E+02  0.18166418311E+03  0.17120000000E+03 0.  0.
        998    1    1    2    0    0  0.68373620762E+02 -0.10811458491E+03  0.97778922630E+03  0.98617213839E+03  0.10000000000E+02 0.  1.
</event>
<event>
 5    1  0.1252945E-008  0.3825159E+03  0.7957747E-01  0.3440277E+00
         13   -1    0    0    0    0  0.00000000000E+00  0.00000000000E+00  0.14999999963E+04  0.15000000000E+04  0.10566000000E+00 0.  1.
        994   -1    0    0    0    0 -0.00000000000E+00 -0.00000000000E+00  0.11368683772E-12  0.17120000000E+03  0.17120000000E+03 0.  0.
         13    1    1    2    0    0  0.10386272135E+02  0.17415402516E+02  0.75909642074E+02  0.78571342215E+02  0.10566000000E+00 0.  1.
        994    1    1    2    0    0  0.11539226810E+02 -0.68240016012E+01  0.34645777780E+01  0.17175902903E+03  0.17120000000E+03 0.  0.
        998    1    1    2    0    0 -0.21925498945E+02 -0.10591400915E+02  0.14206257764E+04  0.14208696288E+04  0.10000000000E+02 0.  1.
</event>
<event>
 5    1  0.1252945E-008  0.3807072E+03  0.7957747E-01  0.3448085E+00
         13   -1    0    0    0    0  0.00000000000E+00  0.00000000000E+00  0.14999999963E+04  0.15000000000E+04  0.10566000000E+00 0.  1.
        994   -1    0    0    0    0 -0.00000000000E+00 -0.00000000000E+00  0.11368683772E-12  0.17120000000E+03  0.17120000000E+03 0.  0.
         13    1    1    2    0    0 -0.34487857658E+00  0.34762993562E+02  0.15345657425E+03  0.15734521286E+03  0.10566000000E+00 0.  1.
        994    1    1    2    0    0 -0.45148575468E+01 -0.25597076165E+02  0.60330145837E+01  0.17326693716E+03  0.17120000000E+03 0.  0.
        998    1    1    2    0    0  0.48597361234E+01 -0.91659173968E+01  0.13405104074E+04  0.13405878500E+04  0.10000000000E+02 0.  1.
</event>
<event>
 5    1  0.1252945E-008  0.3789351E+03  0.7957747E-01  0.3455808E+00
         13   -1    0    0    0    0  0.00000000000E+00  0.00000000000E+00  0.14999999963E+04  0.15000000000E+04  0.10566000000E+00 0.  1.
        994   -1    0    0    0    0 -0.00000000000E+00 -0.00000000000E+00  0.11368683772E-12  0.17120000000E+03  0.17120000000E+03 0.  0.
         13    1    1    2    0    0 -0.39552210456E+02  0.13391827043E+02  0.13982655291E+03  0.14592873071E+03  0.10566000000E+00 0.  1.
        994    1    1    2    0    0  0.10721681830E+03  0.61569561986E+02  0.57791504325E+02  0.21894189882E+03  0.17120000000E+03 0.  0.
        998    1    1    2    0    0 -0.67664607840E+02 -0.74961389029E+02  0.13023819390E+04  0.13063293705E+04  0.10000000000E+02 0.  1.
</event>
<event>
 5    1  0.1252945E-008  0.3846713E+03  0.7957747E-01  0.3431067E+00
         13   -1    0    0    0    0  0.00000000000E+00  0.00000000000E+00  0.14999999963E+04  0.15000000000E+04  0.10566000000E+00 0.  1.
        994   -1    0    0    0    0 -0.00000000000E+00 -0.00000000000E+00  0.11368683772E-12  0.17120000000E+03  0.17120000000E+03 0.  0.
         13    1    1    2    0    0  0.51452334348E+01  0.16304785066E+02  0.97158865208E+02  0.98651790129E+02  0.10566000000E+00 0.  1.
        994    1    1    2    0    0 -0.10316615962E+02  0.15630894928E+02  0.29490123163E+01  0.17224660843E+03  0.17120000000E+03 0.  0.
        998    1    1    2    0    0  0.51713825269E+01 -0.31935679994E+02  0.13998921188E+04  0.14003016014E+04  0.10000000000E+02 0.  1.
</event>
<event>
 5    1  0.1252945E-008  0.3771641E+03  0.7957747E-01  0.3463600E+00
         13   -1    0    0    0    0  0.00000000000E+00  0.00000000000E+00  0.14999999963E+04  0.15000000000E+04  0.10566000000E+00 0.  1.
        994   -1    0    0    0    0 -0.00000000000E+00 -0.00000000000E+00  0.11368683772E-12  0.17120000000E+03  0.17120000000E+03 0.  0.
         13    1    1    2    0    0  0.25172948098E+02  0.14455167135E+02  0.72641717213E+02  0.78226973715E+02  0.10566000000E+00 0.  1.
        994    1    1    2    0    0 -0.17550667794E+02 -0.12563762606E+02  0.71452963135E+01  0.17270312484E+03  0.17120000000E+03 0.  0.
        998    1    1    2    0    0 -0.76222803047E+01 -0.18914045289E+01  0.14202129828E+04  0.14202699014E+04  0.10000000000E+02 0.  1.
</event>
<event>
 5    1  0.1252945E-008  0.3830633E+03  0.7957747E-01  0.3437928E+00
         13   -1    0    0    0    0  0.00000000000E+00  0.00000000000E+00  0.14999999963E+04  0.15000000000E+04  0.10566000000E+00 0. -1.
        994   -1    0    0    0    0 -0.00000000000E+00 -0.00000000000E+00  0.11368683772E-12  0.17120000000E+03  0.17120000000E+03 0.  0.
         13    1    1    2    0    0 -0.20505334966E+02 -0.27884914027E+01  0.85917848594E+02  0.88374952998E+02  0.10566000000E+00 0. -1.
        994    1    1    2    0    0  0.51804038590E+01 -0.28306812224E+01  0.27100932826E+01  0.17132318566E+03  0.17120000000E+03 0.  0.
        998    1    1    2    0    0  0.15324931107E+02  0.56191726252E+01  0.14113720544E+04  0.14115018613E+04  0.10000000000E+02 0. -1.
</event>
<event>
 5    1  0.1252945E-008  0.3819550E+03  0.7957747E-01  0.3442690E+00
         13   -1    0    0    0    0  0.00000000000E+00  0.00000000000E+00  0.14999999963E+04  0.15000000000E+04  0.10566000000E+00 0.  1.
        994   -1    0    0    0    0 -0.00000000000E+00 -0.00000000000E+00  0.11368683772E-12  0.17120000000E+03  0.17120000000E+03 0.  0.
         13    1    1    2    0    0 -0.32763300053E+02  0.27998783025E+02  0.25401031077E+03  0.25764047590E+03  0.10566000000E+00 0.  1.
        994    1    1    2    0    0  0.30529007946E+02 -0.26237068175E+02  0.85503930189E+01  0.17607655521E+03  0.17120000000E+03 0.  0.
        998    1    1    2    0    0  0.22342921073E+01 -0.17617148501E+01  0.12374392925E+04  0.12374829689E+04  0.10000000000E+02 0.  1.
</event>
<event>
 5    1  0.1252945E-008  0.3739832E+03  0.7957747E-01  0.3477783E+00
         13   -1    0    0    0    0  0.00000000000E+00  0.00000000000E+00  0.14999999963E+04  0.15000000000E+04  0.10566000000E+00 0. -1.
        994   -1    0    0    0    0 -0.00000000000E+00 -0.00000000000E+00  0.11368683772E-12  0.17120000000E+03  0.17120000000E+03 0.  0.
         13    1    1    2    0    0  0.18017730894E+02  0.13944483324E+01  0.19630598355E+02  0.26682478681E+02  0.10566000000E+00 0. -1.
        994    1    1    2    0    0 -0.11713917514E+02 -0.16864151529E+01  0.76796643289E+01  0.17178031640E+03  0.17120000000E+03 0.  0.
        998    1    1    2    0    0 -0.63038133805E+01  0.29196682052E+00  0.14726897336E+04  0.14727372049E+04  0.10000000000E+02 0. -1.
</event>
<event>
 5    1  0.1252945E-008  0.3833162E+03  0.7957747E-01  0.3436845E+00
         13   -1    0    0    0    0  0.00000000000E+00  0.00000000000E+00  0.14999999963E+04  0.15000000000E+04  0.10566000000E+00 0. -1.
        994   -1    0    0    0    0 -0.00000000000E+00 -0.00000000000E+00  0.11368683772E-12  0.17120000000E+03  0.17120000000E+03 0.  0.
         13    1    1    2    0    0  0.12987646548E+01  0.11850655679E+02  0.28711145369E+02  0.31088034066E+02  0.10566000000E+00 0. -1.
        994    1    1    2    0    0  0.16631063359E+01 -0.12594613323E+01  0.24828071799E+01  0.17123071131E+03  0.17120000000E+03 0.  0.
        998    1    1    2    0    0 -0.29618709906E+01 -0.10591194347E+02  0.14688060437E+04  0.14688812546E+04  0.10000000000E+02 0. -1.
</event>
<event>
 5    1  0.1252945E-008  0.3778191E+03  0.7957747E-01  0.3460710E+00
         13   -1    0    0    0    0  0.00000000000E+00  0.00000000000E+00  0.14999999963E+04  0.15000000000E+04  0.10566000000E+00 0.  1.
        994   -1    0    0    0    0 -0.00000000000E+00 -0.00000000000E+00  0.11368683772E-12  0.17120000000E+03  0.17120000000E+03 0.  0.
         13    1    1    2    0    0  0.20770849117E+01  0.31147594930E+02  0.97654097195E+02  0.10252229423E+03  0.10566000000E+00 0.  1.
        994    1    1    2    0    0  0.12470108984E+02 -0.51898851180E+01  0.58526669088E+01  0.17183169741E+03  0.17120000000E+03 0.  0.
        998    1    1    2    0    0 -0.14547193895E+02 -0.25957709812E+02  0.13964932322E+04  0.13968460084E+04  0.10000000000E+02 0.  1.
</event>
<event>
 5    1  0.1252945E-008  0.3820183E+03  0.7957747E-01  0.3442417E+00
         13   -1    0    0    0    0  0.00000000000E+00  0.00000000000E+00  0.14999999963E+04  0.15000000000E+04  0.10566000000E+00 0.  1.
        994   -1    0    0    0    0 -0.00000000000E+00 -0.00000000000E+00  0.11368683772E-12  0.17120000000E+03  0.17120000000E+03 0.  0.
         13    1    1    2    0    0 -0.35655065478E+01 -0.23748868040E+02  0.99305444400E+02  0.10216801858E+03  0.10566000000E+00 0.  1.
        994    1    1    2    0    0  0.44943211525E+01  0.24539304965E+00  0.31850524124E+01  0.17128877283E+03  0.17120000000E+03 0.  0.
        998    1    1    2    0    0 -0.92881460465E+00  0.23503474990E+02  0.13975094995E+04  0.13977432086E+04  0.10000000000E+02 0.  1.
</event>
<event>
 5    1  0.1252945E-008  0.3773293E+03  0.7957747E-01  0.3462870E+00
         13   -1    0    0    0    0  0.00000000000E+00  0.00000000000E+00  0.14999999963E+04  0.15000000000E+04  0.10566000000E+00 0. -1.
        994   -1    0    0    0    0 -0.00000000000E+00 -0.00000000000E+00  0.11368683772E-12  0.17120000000E+03  0.17120000000E+03 0.  0.
         13    1    1    2    0    0  0.27721366084E+02 -0.13353552595E+02  0.10026894371E+03  0.10488404903E+03  0.10566000000E+00 0. -1.
        994    1    1    2    0    0  0.13545417240E+02 -0.14018329027E+02  0.67700597644E+01  0.17243916488E+03  0.17120000000E+03 0.  0.
        998    1    1    2    0    0 -0.41266783324E+02  0.27371881621E+02  0.13929609928E+04  0.13938767861E+04  0.10000000000E+02 0. -1.
</event>
<event>
 5    1  0.1252945E-008  0.3836021E+03  0.7957747E-01  0.3435622E+00
         13   -1    0    0    0    0  0.00000000000E+00  0.00000000000E+00  0.14999999963E+04  0.15000000000E+04  0.10566000000E+00 0.  1.
        994   -1    0    0    0    0 -0.00000000000E+00 -0.00000000000E+00  0.11368683772E-12  0.17120000000E+03  0.17120000000E+03 0.  0.
         13    1    1    2    0    0 -0.24732006910E+01  0.13646399442E+02  0.40240274353E+02  0.42563268007E+02  0.10566000000E+00 0.  1.
        994    1    1    2    0    0  0.47992729821E+00 -0.12089921759E+02  0.28095243990E+01  0.17165002175E+03  0.17120000000E+03 0.  0.
        998    1    1    2    0    0  0.19932733928E+01 -0.15564776832E+01  0.14569501975E+04  0.14569867102E+04  0.10000000000E+02 0.  1.
</event>
<event>
 5    1  0.1252945E-008  0.3766842E+03  0.7957747E-01  0.3465724E+00
         13   -1    0    0    0    0  0.00000000000E+00  0.00000000000E+00  0.14999999963E+04  0.15000000000E+04  0.10566000000E+00 0.  1.
        994   -1    0    0    0    0 -0.00000000000E+00 -0.00000000000E+00  0.11368683772E-12  0.17120000000E+03  0.17120000000E+03 0.  0.
         13    1    1    2    0    0  0.62057102237E+01 -0.57458555772E+02  0.23596923248E+03  0.24294338088E+03  0.10566000000E+00 0.  1.
        994    1    1    2    0    0  0.26236085179E+02  0.65587363739E+02  0.22873245019E+02  0.18660830578E+03  0.17120000000E+03 0.  0.
        998    1    1    2    0    0 -0.32441795403E+02 -0.81288079673E+01  0.12411575188E+04  0.12416483133E+04  0.10000000000E+02 0.  1.
</event>
<event>
 5    1  0.1252945E-008  0.3849561E+03  0.7957747E-01  0.3429858E+00
         13   -1    0    0    0    0  0.00000000000E+00  0.00000000000E+00  0.14999999963E+04  0.15000000000E+04  0.10566000000E+00 0. -1.
        994   -1    0    0    0    0 -0.00000000000E+00 -0.00000000000E+00  0.11368683772E-12  0.17120000000E+03  0.17120000000E+03 0.  0.
         13    1    1    2    0    0 -0.11734102520E+02 -0.29354851462E+00  0.42650297199E+02  0.44236120398E+02  0.10566000000E+00 0. -1.
        994    1    1    2    0    0  0.29747349558E+01 -0.18401296815E+01  0.16921758873E+01  0.17124409066E+03  0.17120000000E+03 0.  0.
        998    1    1    2    0    0  0.87593675641E+01  0.21336781962E+01  0.14556575232E+04  0.14557197889E+04  0.10000000000E+02 0. -1.
</event>
<event>
 5    1  0.1252945E-008  0.3820423E+03  0.7957747E-01  0.3442314E+00
         13   -1    0    0    0    0  0.00000000000E+00  0.00000000000E+00  0.14999999963E+04  0.15000000000E+04  0.10566000000E+00 0.  1.
        994   -1    0    0    0    0 -0.00000000000E+00 -0.00000000000E+00  0.11368683772E-12  0.17120000000E+03  0.17120000000E+03 0.  0.
         13    1    1    2    0    0  0.18705984147E+02  0.14055393302E+02  0.92266471596E+02  0.95187083518E+02  0.10566000000E+00 0.  1.
        994    1    1    2    0    0 -0.20111375685E+01 -0.47111144039E+01  0.31928746977E+01  0.17130637385E+03  0.17120000000E+03 0.  0.
        998    1    1    2    0    0 -0.16694846579E+02 -0.93442788978E+01  0.14045406500E+04  0.14047065426E+04  0.10000000000E+02 0.  1.
</event>
<event>
 5    1  0.1252945E-008  0.3815079E+03  0.7957747E-01  0.3444619E+00
         13   -1    0    0    0    0  0.00000000000E+00  0.00000000000E+00  0.14999999963E+04  0.15000000000E+04  0.10566000000E+00 0. -1.
        994   -1    0    0    0    0 -0.00000000000E+00 -0.00000000000E+00  0.11368683772E-12  0.17120000000E+03  0.17120000000E+03 0.  0.
         13    1    1    2    0    0  0.34947911864E+01  0.10542561920E+02  0.16786483539E+02  0.20128496489E+02  0.10566000000E+00 0. -1.
        994    1    1    2    0    0 -0.61574346216E+01 -0.86922158966E+01  0.37514476991E+01  0.17157208974E+03  0.17120000000E+03 0.  0.
        998    1    1    2    0    0  0.26626434351E+01 -0.18503460234E+01  0.14794620650E+04  0.14794994138E+04  0.10000000000E+02 0. -1.
</event>
<event>
 5    1  0.1252945E-008  0.3798023E+03  0.7957747E-01  0.3452020E+00
         13   -1    0    0    0    0  0.00000000000E+00  0.00000000000E+00  0.14999999963E+04  0.15000000000E+04  0.10566000000E+00 0.  1.
        994   -1    0    0    0    0 -0.00000000000E+00 -0.00000000000E+00  0.11368683772E-12  0.17120000000E+03  0.17120000000E+03 0.  0.
         13    1    1    2    0    0  0.27495654202E+02 -0.10987726565E+02  0.98420390146E+02  0.10277803995E+03  0.10566000000E+00 0.  1.
        994    1    1    2    0    0 -0.25118235546E+02  0.53405388512E+01  0.64420002032E+01  0.17323506134E+03  0.17120000000E+03 0.  0.
        998    1    1    2    0    0 -0.23774186557E+01  0.56471877136E+01  0.13951376059E+04  0.13951868987E+04  0.10000000000E+02 0.  1.
</event>
<event>
 5    1  0.1252945E-008  0.3858102E+03  0.7957747E-01  0.3426243E+00
         13   -1    0    0    0    0  0.00000000000E+00  0.00000000000E+00  0.14999999963E+04  0.15000000000E+04  0.10566000000E+00 0.  1.
        994   -1    0    0    0    0 -0.00000000000E+00 -0.00000000000E+00  0.11368683772E-12  0.17120000000E+03  0.17120000000E+03 0.  0.
         13    1    1    2    0    0  0.58828090792E+01 -0.11897097263E+02  0.73589172722E+02  0.74776506149E+02  0.10566000000E+00 0.  1.
        994    1    1    2    0    0  0.76974171543E+00  0.77011983224E+01  0.14249015031E+01  0.17138077868E+03  0.17120000000E+03 0.  0.
        998    1    1    2    0    0 -0.66525507946E+01  0.41958989406E+01  0.14249859221E+04  0.14250427152E+04  0.10000000000E+02 0.  1.
</event>
<event>
 5    1  0.1252945E-008  0.3708709E+03  0.7957747E-01  0.3491898E+00
         13   -1    0    0    0    0  0.00000000000E+00  0.00000000000E+00  0.14999999963E+04  0.15000000000E+04  0.10566000000E+00 0.  1.
        994   -1    0    0    0    0 -0.00000000000E+00 -0.00000000000E+00  0.11368683772E-12  0.17120000000E+03  0.17120000000E+03 0.  0.
         13    1    1    2    0    0  0.14880351773E+02 -0.73199137434E+01  0.69849032711E+01  0.17994611522E+02  0.10566000000E+00 0.  1.
        994    1    1    2    0    0 -0.95144897342E+01  0.35426145304E+01  0.11761603557E+02  0.17190360948E+03  0.17120000000E+03 0.  0.
        998    1    1    2    0    0 -0.53658620387E+01  0.37772992130E+01  0.14812534895E+04  0.14813017790E+04  0.10000000000E+02 0.  1.
</event>
<event>
 5    1  0.1252945E-008  0.3785066E+03  0.7957747E-01  0.3457687E+00
         13   -1    0    0    0    0  0.00000000000E+00  0.00000000000E+00  0.14999999963E+04  0.15000000000E+04  0.10566000000E+00 0. -1.
        994   -1    0    0    0    0 -0.00000000000E+00 -0.00000000000E+00  0.11368683772E-12  0.17120000000E+03  0.17120000000E+03 0.  0.
         13    1    1    2    0    0 -0.56604317009E+01 -0.67417558701E+02  0.30052235798E+03  0.30804361139E+03  0.10566000000E+00 0. -1.
        994    1    1    2    0    0 -0.20069890697E+02  0.95964318204E+02  0.37890584597E+02  0.20089073468E+03  0.17120000000E+03 0.  0.
        998    1    1    2    0    0  0.25730322398E+02 -0.28546759503E+02  0.11615870537E+04  0.11622656539E+04  0.10000000000E+02 0. -1.
</event>
<event>
 5    1  0.1252945E-008  0.3719170E+03  0.7957747E-01  0.3487127E+00
         13   -1    0    0    0    0  0.00000000000E+00  0.00000000000E+00  0.14999999963E+04  0.15000000000E+04  0.10566000000E+00 0.  1.
        994   -1    0    0    0    0 -0.00000000000E+00 -0.00000000000E+00  0.11368683772E-12  0.17120000000E+03  0.17120000000E+03 0.  0.
         13    1    1    2    0    0  0.18899721250E+02  0.80756902867E+00  0.18574253651E+02  0.26511614319E+02  0.10566000000E+00 0.  1.
        994    1    1    2    0    0 -0.19177496373E+01  0.57399145368E+01  0.83963059685E+01  0.17151257195E+03  0.17120000000E+03 0.  0.
        998    1    1    2    0    0 -0.16981971613E+02 -0.65474835654E+01  0.14730294367E+04  0.14731758137E+04  0.10000000000E+02 0.  1.
</event>
<event>
 5    1  0.1442403E-008  0.3859242E+03  0.7957747E-01  0.3425762E+00
         13   -1    0    0    0    0  0.00000000000E+00  0.00000000000E+00  0.14999999963E+04  0.15000000000E+04  0.10566000000E+00 0. -1.
        994   -1    0    0    0    0 -0.00000000000E+00 -0.00000000000E+00  0.11368683772E-12  0.17120000000E+03  0.17120000000E+03 0.  0.
         13    1    1    2    0    0  0.39449212608E+01  0.95330978074E+01  0.45995213837E+02  0.47138235197E+02  0.10566000000E+00 0. -1.
        994    1    1    2    0    0  0.28973811716E+00 -0.72082962705E+01  0.13426580700E+01  0.17135718898E+03  0.17120000000E+03 0.  0.
        998    1    1    2    0    0 -0.42346593780E+01 -0.23248015369E+01  0.14526621244E+04  0.14527045758E+04  0.10000000000E+02 0. -1.
</event>
<event>
 5    1  0.1252945E-008  0.3694010E+03  0.7957747E-01  0.3498649E+00
         13   -1    0    0    0    0  0.00000000000E+00  0.00000000000E+00  0.14999999963E+04  0.15000000000E+04  0.10566000000E+00 0. -1.
        994   -1    0    0    0    0 -0.00000000000E+00 -0.00000000000E+00  0.11368683772E-12  0.17120000000E+03  0.17120000000E+03 0.  0.
         13    1    1    2    0    0 -0.37220325655E+01  0.11288481675E+02  0.17242533454E+01  0.12011143101E+02  0.10566000000E+00 0. -1.
        994    1    1    2    0    0 -0.41032543719E+01 -0.10832218724E+02  0.11090619416E+02  0.17194945623E+03  0.17120000000E+03 0.  0.
        998    1    1    2    0    0  0.78252869374E+01 -0.45626295073E+00  0.14871851235E+04  0.14872394007E+04  0.10000000000E+02 0. -1.
</event>
<event>
 5    1  0.1252945E-008  0.3833048E+03  0.7957747E-01  0.3436894E+00
         13   -1    0    0    0    0  0.00000000000E+00  0.00000000000E+00  0.14999999963E+04  0.15000000000E+04  0.10566000000E+00 0. -1.
        994   -1    0    0    0    0 -0.00000000000E+00 -0.00000000000E+00  0.11368683772E-12  0.17120000000E+03  0.17120000000E+03 0.  0.
         13    1    1    2    0    0  0.18356500893E+02  0.14620990013E+01  0.75190589030E+02  0.77412755417E+02  0.10566000000E+00 0. -1.
        994    1    1    2    0    0  0.60691019161E+01  0.91038130345E+00  0.25986945795E+01  0.17132967054E+03  0.17120000000E+03 0.  0.
        998    1    1    2    0    0 -0.24425602809E+02 -0.23724803048E+01  0.14222107127E+04  0.14224575740E+04  0.10000000000E+02 0. -1.
</event>
<event>
 5    1  0.1252945E-008  0.3808690E+03  0.7957747E-01  0.3447383E+00
         13   -1    0    0    0    0  0.00000000000E+00  0.00000000000E+00  0.14999999963E+04  0.15000000000E+04  0.10566000000E+00 0. -1.
        994   -1    0    0    0    0 -0.00000000000E+00 -0.00000000000E+00  0.11368683772E-12  0.17120000000E+03  0.17120000000E+03 0.  0.
         13    1    1    2    0    0  0.24630662602E+02 -0.70730748457E+01  0.97339168375E+02  0.10065596253E+03  0.10566000000E+00 0. -1.
        994    1    1    2    0    0  0.92634244210E+01  0.20458809895E+02  0.53781948177E+01  0.17275051060E+03  0.17120000000E+03 0.  0.
        998    1    1    2    0    0 -0.33894087023E+02 -0.13385735049E+02  0.13972826331E+04  0.13977935269E+04  0.10000000000E+02 0. -1.
</event>
<event>
 5    1  0.1252945E-008  0.3820907E+03  0.7957747E-01  0.3442105E+00
         13   -1    0    0    0    0  0.00000000000E+00  0.00000000000E+00  0.14999999963E+04  0.15000000000E+04  0.10566000000E+00 0. -1.
        994   -1    0    0    0    0 -0.00000000000E+00 -0.00000000000E+00  0.11368683772E-12  0.17120000000E+03  0.17120000000E+03 0.  0.
         13    1    1    2    0    0 -0.16090306583E+02  0.23582547516E+02  0.11948361552E+03  0.12284697821E+03  0.10566000000E+00 0. -1.
        994    1    1    2    0    0  0.17499540817E+02 -0.26881586971E+02  0.65047629467E+01  0.17430033158E+03  0.17120000000E+03 0.  0.
        998    1    1    2    0    0 -0.14092342343E+01  0.32990394541E+01  0.13740116178E+04  0.13740526902E+04  0.10000000000E+02 0. -1.
</event>
<event>
 5    1  0.1252945E-008  0.3835308E+03  0.7957747E-01  0.3435927E+00
         13   -1    0    0    0    0  0.00000000000E+00  0.00000000000E+00  0.14999999963E+04  0.15000000000E+04  0.10566000000E+00 0. -1.
        994   -1    0    0    0    0 -0.00000000000E+00 -0.00000000000E+00  0.11368683772E-12  0.17120000000E+03  0.17120000000E+03 0.  0.
         13    1    1    2    0    0  0.89397532307E+01  0.14595673397E+02  0.60388449785E+02  0.62767259787E+02  0.10566000000E+00 0. -1.
        994    1    1    2    0    0 -0.66989112718E+01 -0.12874356669E+02  0.30576356456E+01  0.17184124536E+03  0.17120000000E+03 0.  0.
        998    1    1    2    0    0 -0.22408419589E+01 -0.17213167274E+01  0.14365539108E+04  0.14365914949E+04  0.10000000000E+02 0. -1.
</event>
<event>
 5    1  0.1252945E-008  0.3848035E+03  0.7957747E-01  0.3430506E+00
         13   -1    0    0    0    0  0.00000000000E+00  0.00000000000E+00  0.14999999963E+04  0.15000000000E+04  0.10566000000E+00 0.  1.
        994   -1    0    0    0    0 -0.00000000000E+00 -0.00000000000E+00  0.11368683772E-12  0.17120000000E+03  0.17120000000E+03 0.  0.
         13    1    1    2    0    0  0.81346682395E+01  0.16332013677E+02  0.85029775508E+02  0.86965403380E+02  0.10566000000E+00 0.  1.
        994    1    1    2    0    0 -0.94589413756E+01 -0.28556217309E+02  0.47113237255E+01  0.17388664610E+03  0.17120000000E+03 0.  0.
        998    1    1    2    0    0  0.13242731361E+01  0.12224203632E+02  0.14102588970E+04  0.14103479505E+04  0.10000000000E+02 0.  1.
</event>
<event>
 5    1  0.1252945E-008  0.3705440E+03  0.7957747E-01  0.3493394E+00
         13   -1    0    0    0    0  0.00000000000E+00  0.00000000000E+00  0.14999999963E+04  0.15000000000E+04  0.10566000000E+00 0. -1.
        994   -1    0    0    0    0 -0.00000000000E+00 -0.00000000000E+00  0.11368683772E-12  0.17120000000E+03  0.17120000000E+03 0.  0.
         13    1    1    2    0    0  0.52334810335E+02 -0.69119315715E+02  0.25119071323E+03  0.26573143915E+03  0.10566000000E+00 0. -1.
        994    1    1    2    0    0 -0.67874917321E+02  0.76413382301E+02  0.48770987640E+02  0.20526582431E+03  0.17120000000E+03 0.  0.
        998    1    1    2    0    0  0.15540106986E+02 -0.72940665859E+01  0.12000382954E+04  0.12002027365E+04  0.10000000000E+02 0. -1.
</event>
<event>
 5    1  0.1252945E-008  0.3843811E+03  0.7957747E-01  0.3432301E+00
         13   -1    0    0    0    0  0.00000000000E+00  0.00000000000E+00  0.14999999963E+04  0.15000000000E+04  0.10566000000E+00 0.  1.
        994   -1    0    0    0    0 -0.00000000000E+00 -0.00000000000E+00  0.11368683772E-12  0.17120000000E+03  0.17120000000E+03 0.  0.
         13    1    1    2    0    0 -0.23743617419E+01  0.11064915992E+02  0.31734315873E+02  0.33691956423E+02  0.10566000000E+00 0.  1.
        994    1    1    2    0    0 -0.43918659814E+00 -0.14586030411E+02  0.26397519660E+01  0.17184107035E+03  0.17120000000E+03 0.  0.
        998    1    1    2    0    0  0.28135483400E+01  0.35211144187E+01  0.14656259284E+04  0.14656669732E+04  0.10000000000E+02 0.  1.
</event>
<event>
 5    1  0.1252945E-008  0.3817790E+03  0.7957747E-01  0.3443449E+00
         13   -1    0    0    0    0  0.00000000000E+00  0.00000000000E+00  0.14999999963E+04  0.15000000000E+04  0.10566000000E+00 0. -1.
        994   -1    0    0    0    0 -0.00000000000E+00 -0.00000000000E+00  0.11368683772E-12  0.17120000000E+03  0.17120000000E+03 0.  0.
         13    1    1    2    0    0  0.59588153870E+01 -0.15001136688E+02  0.41835021443E+02  0.44841072310E+02  0.10566000000E+00 0. -1.
        994    1    1    2    0    0  0.67342225952E+01 -0.47940260371E+01  0.34649336038E+01  0.17143447204E+03  0.17120000000E+03 0.  0.
        998    1    1    2    0    0 -0.12693037982E+02  0.19795162725E+02  0.14547000412E+04  0.14549244556E+04  0.10000000000E+02 0. -1.
</event>
<event>
 5    1  0.1252945E-008  0.3841217E+03  0.7957747E-01  0.3433406E+00
         13   -1    0    0    0    0  0.00000000000E+00  0.00000000000E+00  0.14999999963E+04  0.15000000000E+04  0.10566000000E+00 0. -1.
        994   -1    0    0    0    0 -0.00000000000E+00 -0.00000000000E+00  0.11368683772E-12  0.17120000000E+03  0.17120000000E+03 0.  0.
         13    1    1    2    0    0  0.11445632708E+02  0.17525762315E+01  0.34452719608E+02  0.36346596594E+02  0.10566000000E+00 0. -1.
        994    1    1    2    0    0  0.93350245536E+01  0.58579261651E+01  0.24675084393E+01  0.17157210315E+03  0.17120000000E+03 0.  0.
        998    1    1    2    0    0 -0.20780657262E+02 -0.76105023965E+01  0.14630797682E+04  0.14632813003E+04  0.10000000000E+02 0. -1.
</event>
<event>
 5    1  0.1252945E-008  0.3836547E+03  0.7957747E-01  0.3435398E+00
         13   -1    0    0    0    0  0.00000000000E+00  0.00000000000E+00  0.14999999963E+04  0.15000000000E+04  0.10566000000E+00 0. -1.
        994   -1    0    0    0    0 -0.00000000000E+00 -0.00000000000E+00  0.11368683772E-12  0.17120000000E+03  0.17120000000E+03 0.  0.
         13    1    1    2    0    0 -0.25313978233E+01  0.10645018759E+02  0.25330967612E+02  0.27593359410E+02  0.10566000000E+00 0. -1.
        994    1    1    2    0    0  0.54212582040E+01 -0.60380646171E+01  0.25170842828E+01  0.17141068805E+03  0.17120000000E+03 0.  0.
        998    1    1    2    0    0 -0.28898603807E+01 -0.46069541422E+01  0.14721519444E+04  0.14721959525E+04  0.10000000000E+02 0. -1.
</event>
<event>
 5    1  0.1252945E-008  0.3835247E+03  0.7957747E-01  0.3435953E+00
         13   -1    0    0    0    0  0.00000000000E+00  0.00000000000E+00  0.14999999963E+04  0.15000000000E+04  0.10566000000E+00 0.  1.
        994   -1    0    0    0    0 -0.00000000000E+00 -0.00000000000E+00  0.11368683772E-12  0.17120000000E+03  0.17120000000E+03 0.  0.
         13    1    1    2    0    0 -0.78848587722E+01  0.13059244211E+02  0.50028290592E+02  0.52302541820E+02  0.10566000000E+00 0.  1.
        994    1    1    2    0    0 -0.66582268933E+01 -0.86694548367E+01  0.27593392732E+01  0.17157081741E+03  0.17120000000E+03 0.  0.
        998    1    1    2    0    0  0.14543085665E+02 -0.43897893743E+01  0.14472123664E+04  0.14473266408E+04  0.10000000000E+02 0.  1.
</event>
<event>
 5    1  0.1252945E-008  0.3818427E+03  0.7957747E-01  0.3443174E+00
         13   -1    0    0    0    0  0.00000000000E+00  0.00000000000E+00  0.14999999963E+04  0.15000000000E+04  0.10566000000E+00 0. -1.
        994   -1    0    0    0    0 -0.00000000000E+00 -0.00000000000E+00  0.11368683772E-12  0.17120000000E+03  0.17120000000E+03 0.  0.
         13    1    1    2    0    0  0.20015009230E+02  0.23212126123E+01  0.59065053568E+02  0.62407374079E+02  0.10566000000E+00 0. -1.
        994    1    1    2    0    0 -0.22489742009E+02 -0.22630553292E+02  0.65954875356E+01  0.17427240428E+03  0.17120000000E+03 0.  0.
        998    1    1    2    0    0  0.24747327791E+01  0.20309340680E+02  0.14343394552E+04  0.14345202216E+04  0.10000000000E+02 0. -1.
</event>
<event>
 5    1  0.1252945E-008  0.3763405E+03  0.7957747E-01  0.3467249E+00
         13   -1    0    0    0    0  0.00000000000E+00  0.00000000000E+00  0.14999999963E+04  0.15000000000E+04  0.10566000000E+00 0.  1.
        994   -1    0    0    0    0 -0.00000000000E+00 -0.00000000000E+00  0.11368683772E-12  0.17120000000E+03  0.17120000000E+03 0.  0.
         13    1    1    2    0    0 -0.64574551884E+02 -0.18894846514E+02  0.30426139276E+03  0.31161176850E+03  0.10566000000E+00 0.  1.
        994    1    1    2    0    0  0.62108511756E+02  0.21440142336E+02  0.20743309106E+02  0.18454504005E+03  0.17120000000E+03 0.  0.
        998    1    1    2    0    0  0.24660401281E+01 -0.25452958217E+01  0.11749952944E+04  0.11750431914E+04  0.10000000000E+02 0.  0.
</event>
<event>
 5    1  0.1252945E-008  0.3839102E+03  0.7957747E-01  0.3434308E+00
         13   -1    0    0    0    0  0.00000000000E+00  0.00000000000E+00  0.14999999963E+04  0.15000000000E+04  0.10566000000E+00 0.  1.
        994   -1    0    0    0    0 -0.00000000000E+00 -0.00000000000E+00  0.11368683772E-12  0.17120000000E+03  0.17120000000E+03 0.  0.
         13    1    1    2    0    0  0.62982858722E+01 -0.11835266956E+02  0.42298689788E+02  0.44372652284E+02  0.10566000000E+00 0.  1.
        994    1    1    2    0    0  0.21917756030E+01  0.26055850842E+01  0.22104559427E+01  0.17124812136E+03  0.17120000000E+03 0.  0.
        998    1    1    2    0    0 -0.84900614752E+01  0.92296818720E+01  0.14554908505E+04  0.14555792264E+04  0.10000000000E+02 0.  1.
</event>
<event>
 5    1  0.1252945E-008  0.3772178E+03  0.7957747E-01  0.3463363E+00
         13   -1    0    0    0    0  0.00000000000E+00  0.00000000000E+00  0.14999999963E+04  0.15000000000E+04  0.10566000000E+00 0. -1.
        994   -1    0    0    0    0 -0.00000000000E+00 -0.00000000000E+00  0.11368683772E-12  0.17120000000E+03  0.17120000000E+03 0.  0.
         13    1    1    2    0    0 -0.24831245695E+02  0.20223910715E+02  0.86646042217E+02  0.92375024347E+02  0.10566000000E+00 0. -1.
        994    1    1    2    0    0  0.23491894448E+02 -0.18653035238E+02  0.85861039066E+01  0.17402001611E+03  0.17120000000E+03 0.  0.
        998    1    1    2    0    0  0.13393512472E+01 -0.15708754769E+01  0.14047678502E+04  0.14048049595E+04  0.10000000000E+02 0. -1.
</event>
<event>
 5    1  0.1252945E-008  0.2929319E+03  0.7957747E-01  0.3947808E+00
         13   -1    0    0    0    0  0.00000000000E+00  0.00000000000E+00  0.14999999963E+04  0.15000000000E+04  0.10566000000E+00 0. -1.
        994   -1    0    0    0    0 -0.00000000000E+00 -0.00000000000E+00  0.11368683772E-12  0.17120000000E+03  0.17120000000E+03 0.  0.
         13    1    1    2    0    0  0.19901244378E+03  0.17477543691E+02  0.54899286765E+03  0.58421280131E+03  0.10566000000E+00 0. -1.
        994    1    1    2    0    0 -0.19997685813E+03 -0.17357834907E+02  0.18809290206E+03  0.32400681787E+03  0.17120000000E+03 0.  0.
        998    1    1    2    0    0  0.96441434976E+00 -0.11970878392E+00  0.76291422656E+03  0.76298038082E+03  0.10000000000E+02 0.  0.
</event>
<event>
 5    1  0.1252945E-008  0.4040562E+03  0.7957747E-01  0.3352666E+00
         13   -1    0    0    0    0  0.00000000000E+00  0.00000000000E+00  0.14999999963E+04  0.15000000000E+04  0.10566000000E+00 0.  1.
        994   -1    0    0    0    0 -0.00000000000E+00 -0.00000000000E+00  0.11368683772E-12  0.17120000000E+03  0.17120000000E+03 0.  0.
         13    1    1    2    0    0 -0.42264800167E+02  0.10574688363E+03  0.55530936343E+03  0.56686613676E+03  0.10566000000E+00 0.  1.
        994    1    1    2    0    0 -0.40260839595E+02  0.53881412689E+02  0.48466573771E+02  0.19021721954E+03  0.17120000000E+03 0.  0.
        998    1    1    2    0    0  0.82525639762E+02 -0.15962829632E+03  0.89622405908E+03  0.91411664369E+03  0.10000000000E+02 0. -1.
</event>
<event>
 5    1  0.1252945E-008  0.3837187E+03  0.7957747E-01  0.3435124E+00
         13   -1    0    0    0    0  0.00000000000E+00  0.00000000000E+00  0.14999999963E+04  0.15000000000E+04  0.10566000000E+00 0.  1.
        994   -1    0    0    0    0 -0.00000000000E+00 -0.00000000000E+00  0.11368683772E-12  0.17120000000E+03  0.17120000000E+03 0.  0.
         13    1    1    2    0    0 -0.67372963336E+01  0.90807431701E+01  0.27610968896E+02  0.29836685905E+02  0.10566000000E+00 0.  1.
        994    1    1    2    0    0  0.24144754106E+01 -0.64191643527E+01  0.24229383303E+01  0.17135444550E+03  0.17120000000E+03 0.  0.
        998    1    1    2    0    0  0.43228209230E+01 -0.26615788174E+01  0.14699660891E+04  0.14700088686E+04  0.10000000000E+02 0.  1.
</event>
<event>
 5    1  0.1252945E-008  0.3751539E+03  0.7957747E-01  0.3472535E+00
         13   -1    0    0    0    0  0.00000000000E+00  0.00000000000E+00  0.14999999963E+04  0.15000000000E+04  0.10566000000E+00 0. -1.
        994   -1    0    0    0    0 -0.00000000000E+00 -0.00000000000E+00  0.11368683772E-12  0.17120000000E+03  0.17120000000E+03 0.  0.
         13    1    1    2    0    0  0.39711830657E+02 -0.39428289607E+02  0.20782680735E+03  0.21522920929E+03  0.10566000000E+00 0. -1.
        994    1    1    2    0    0 -0.32568269694E+02  0.42080365047E+02  0.16280884332E+02  0.18001654510E+03  0.17120000000E+03 0.  0.
        998    1    1    2    0    0 -0.71435609629E+01 -0.26520754402E+01  0.12758923046E+04  0.12759542456E+04  0.10000000000E+02 0. -1.
</event>
<event>
 5    1  0.1252945E-008  0.3831982E+03  0.7957747E-01  0.3437350E+00
         13   -1    0    0    0    0  0.00000000000E+00  0.00000000000E+00  0.14999999963E+04  0.15000000000E+04  0.10566000000E+00 0.  1.
        994   -1    0    0    0    0 -0.00000000000E+00 -0.00000000000E+00  0.11368683772E-12  0.17120000000E+03  0.17120000000E+03 0.  0.
         13    1    1    2    0    0 -0.18935152028E+02 -0.51541719020E+01  0.72660542194E+02  0.75264008837E+02  0.10566000000E+00 0.  1.
        994    1    1    2    0    0  0.18768493738E+02  0.55598113576E+01  0.37958891682E+01  0.17235723551E+03  0.17120000000E+03 0.  0.
        998    1    1    2    0    0  0.16665828930E+00 -0.40563945557E+00  0.14235435649E+04  0.14235787556E+04  0.10000000000E+02 0.  0.
</event>
<event>
 5    1  0.1252945E-008  0.3781144E+03  0.7957747E-01  0.3459410E+00
         13   -1    0    0    0    0  0.00000000000E+00  0.00000000000E+00  0.14999999963E+04  0.15000000000E+04  0.10566000000E+00 0.  1.
        994   -1    0    0    0    0 -0.00000000000E+00 -0.00000000000E+00  0.11368683772E-12  0.17120000000E+03  0.17120000000E+03 0.  0.
         13    1    1    2    0    0  0.25623000227E+01  0.48335942270E+02  0.21366602953E+03  0.21908014980E+03  0.10566000000E+00 0.  1.
        994    1    1    2    0    0 -0.85324351131E+01 -0.37194360578E+02  0.10002271708E+02  0.17568639204E+03  0.17120000000E+03 0.  0.
        998    1    1    2    0    0  0.59701350903E+01 -0.11141581691E+02  0.12763316950E+04  0.12764334582E+04  0.10000000000E+02 0.  1.
</event>
<event>
 5    1  0.1252945E-008  0.3752173E+03  0.7957747E-01  0.3472252E+00
         13   -1    0    0    0    0  0.00000000000E+00  0.00000000000E+00  0.14999999963E+04  0.15000000000E+04  0.10566000000E+00 0.  1.
        994   -1    0    0    0    0 -0.00000000000E+00 -0.00000000000E+00  0.11368683772E-12  0.17120000000E+03  0.17120000000E+03 0.  0.
         13    1    1    2    0    0 -0.73252981391E+01 -0.10029770221E+02  0.87576791993E+01  0.15197512708E+02  0.10566000000E+00 0.  1.
        994    1    1    2    0    0  0.33874416152E+01  0.98075340241E+01  0.69329672220E+01  0.17165421206E+03  0.17120000000E+03 0.  0.
        998    1    1    2    0    0  0.39378565240E+01  0.22223619677E+00  0.14843093499E+04  0.14843482752E+04  0.10000000000E+02 0.  1.
</event>
<event>
 5    1  0.1252945E-008  0.3799444E+03  0.7957747E-01  0.3451401E+00
         13   -1    0    0    0    0  0.00000000000E+00  0.00000000000E+00  0.14999999963E+04  0.15000000000E+04  0.10566000000E+00 0.  1.
        994   -1    0    0    0    0 -0.00000000000E+00 -0.00000000000E+00  0.11368683772E-12  0.17120000000E+03  0.17120000000E+03 0.  0.
         13    1    1    2    0    0 -0.24821017047E+02  0.50882987623E+02  0.30876588297E+03  0.31391327301E+03  0.10566000000E+00 0.  1.
        994    1    1    2    0    0  0.64584351002E+01 -0.60023163206E+02  0.16444475746E+02  0.18227548460E+03  0.17120000000E+03 0.  0.
        998    1    1    2    0    0  0.18362581947E+02  0.91401755836E+01  0.11747896376E+04  0.11750112424E+04  0.10000000000E+02 0.  1.
</event>
<event>
 5    1  0.1252945E-008  0.3750721E+03  0.7957747E-01  0.3472900E+00
         13   -1    0    0    0    0  0.00000000000E+00  0.00000000000E+00  0.14999999963E+04  0.15000000000E+04  0.10566000000E+00 0.  1.
        994   -1    0    0    0    0 -0.00000000000E+00 -0.00000000000E+00  0.11368683772E-12  0.17120000000E+03  0.17120000000E+03 0.  0.
         13    1    1    2    0    0 -0.64442450695E+02  0.44702524886E+02  0.37306999328E+03  0.38122483685E+03  0.10566000000E+00 0.  1.
        994    1    1    2    0    0  0.60700677307E+02 -0.35233352405E+02  0.23570506499E+02  0.18652337688E+03  0.17120000000E+03 0.  0.
        998    1    1    2    0    0  0.37417733876E+01 -0.94691724811E+01  0.11033594965E+04  0.11034517863E+04  0.10000000000E+02 0. -1.
</event>
<event>
 5    1  0.1252945E-008  0.3813378E+03  0.7957747E-01  0.3445354E+00
         13   -1    0    0    0    0  0.00000000000E+00  0.00000000000E+00  0.14999999963E+04  0.15000000000E+04  0.10566000000E+00 0. -1.
        994   -1    0    0    0    0 -0.00000000000E+00 -0.00000000000E+00  0.11368683772E-12  0.17120000000E+03  0.17120000000E+03 0.  0.
         13    1    1    2    0    0  0.84206367486E+01  0.95150786392E+01  0.22922553148E+02  0.26208747616E+02  0.10566000000E+00 0. -1.
        994    1    1    2    0    0 -0.12980689302E+02  0.19273823527E+02  0.52586000484E+01  0.17284985231E+03  0.17120000000E+03 0.  0.
        998    1    1    2    0    0  0.45600525533E+01 -0.28788902166E+02  0.14718188431E+04  0.14721414001E+04  0.10000000000E+02 0. -1.
</event>
<event>
 5    1  0.1252945E-008  0.3843182E+03  0.7957747E-01  0.3432569E+00
         13   -1    0    0    0    0  0.00000000000E+00  0.00000000000E+00  0.14999999963E+04  0.15000000000E+04  0.10566000000E+00 0.  1.
        994   -1    0    0    0    0 -0.00000000000E+00 -0.00000000000E+00  0.11368683772E-12  0.17120000000E+03  0.17120000000E+03 0.  0.
         13    1    1    2    0    0  0.70156190274E+01 -0.12186065028E+02  0.48686820973E+02  0.50676787504E+02  0.10566000000E+00 0.  1.
        994    1    1    2    0    0 -0.59581066098E+01  0.12792498031E+02  0.26256915544E+01  0.17180070226E+03  0.17120000000E+03 0.  0.
        998    1    1    2    0    0 -0.10575124175E+01 -0.60643300336E+00  0.14486874838E+04  0.14487225102E+04  0.10000000000E+02 0.  1.
</event>
<event>
 5    1  0.1252945E-008  0.3726311E+03  0.7957747E-01  0.3483886E+00
         13   -1    0    0    0    0  0.00000000000E+00  0.00000000000E+00  0.14999999963E+04  0.15000000000E+04  0.10566000000E+00 0. -1.
        994   -1    0    0    0    0 -0.00000000000E+00 -0.00000000000E+00  0.11368683772E-12  0.17120000000E+03  0.17120000000E+03 0.  0.
         13    1    1    2    0    0 -0.25758924154E+02  0.44863203901E+02  0.14871899201E+03  0.15745976942E+03  0.10566000000E+00 0. -1.
        994    1    1    2    0    0  0.31153818856E+02 -0.45387520163E+02  0.18357145797E+02  0.18076784066E+03  0.17120000000E+03 0.  0.
        998    1    1    2    0    0 -0.53948947024E+01  0.52431626138E+00  0.13329238585E+04  0.13329723899E+04  0.10000000000E+02 0. -1.
</event>
<event>
 5    1  0.1252945E-008  0.3825640E+03  0.7957747E-01  0.3440070E+00
         13   -1    0    0    0    0  0.00000000000E+00  0.00000000000E+00  0.14999999963E+04  0.15000000000E+04  0.10566000000E+00 0. -1.
        994   -1    0    0    0    0 -0.00000000000E+00 -0.00000000000E+00  0.11368683772E-12  0.17120000000E+03  0.17120000000E+03 0.  0.
         13    1    1    2    0    0 -0.12219340163E+02 -0.10917187297E+01  0.25420010801E+02  0.28225737138E+02  0.10566000000E+00 0. -1.
        994    1    1    2    0    0  0.82980504611E+01  0.15818029338E+01  0.30809784886E+01  0.17143597105E+03  0.17120000000E+03 0.  0.
        998    1    1    2    0    0  0.39212897020E+01 -0.49008420408E+00  0.14714990070E+04  0.14715382918E+04  0.10000000000E+02 0. -1.
</event>
<event>
 5    1  0.1252945E-008  0.3728004E+03  0.7957747E-01  0.3483119E+00
         13   -1    0    0    0    0  0.00000000000E+00  0.00000000000E+00  0.14999999963E+04  0.15000000000E+04  0.10566000000E+00 0.  1.
        994   -1    0    0    0    0 -0.00000000000E+00 -0.00000000000E+00  0.11368683772E-12  0.17120000000E+03  0.17120000000E+03 0.  0.
         13    1    1    2    0    0  0.18903577678E+01  0.38183276763E+02  0.87263438663E+02  0.95270430712E+02  0.10566000000E+00 0.  1.
        994    1    1    2    0    0  0.24810518488E+01 -0.34463737483E+02  0.11912279290E+02  0.17505783963E+03  0.17120000000E+03 0.  0.
        998    1    1    2    0    0 -0.43714096166E+01 -0.37195392800E+01  0.14008242783E+04  0.14008717297E+04  0.10000000000E+02 0.  1.
</event>
<event>
 5    1  0.1252945E-008  0.3710012E+03  0.7957747E-01  0.3491302E+00
         13   -1    0    0    0    0  0.00000000000E+00  0.00000000000E+00  0.14999999963E+04  0.15000000000E+04  0.10566000000E+00 0. -1.
        994   -1    0    0    0    0 -0.00000000000E+00 -0.00000000000E+00  0.11368683772E-12  0.17120000000E+03  0.17120000000E+03 0.  0.
         13    1    1    2    0    0 -0.43383079401E+02 -0.25615773276E+01  0.11192698439E+03  0.12006795682E+03  0.10566000000E+00 0. -1.
        994    1    1    2    0    0  0.10147561717E+02  0.11694280352E+02  0.95731448674E+01  0.17216507864E+03  0.17120000000E+03 0.  0.
        998    1    1    2    0    0  0.33235517684E+02 -0.91327030249E+01  0.13784998670E+04  0.13789669645E+04  0.10000000000E+02 0. -1.
</event>
<event>
 5    1  0.1252945E-008  0.3840702E+03  0.7957747E-01  0.3433625E+00
         13   -1    0    0    0    0  0.00000000000E+00  0.00000000000E+00  0.14999999963E+04  0.15000000000E+04  0.10566000000E+00 0. -1.
        994   -1    0    0    0    0 -0.00000000000E+00 -0.00000000000E+00  0.11368683772E-12  0.17120000000E+03  0.17120000000E+03 0.  0.
         13    1    1    2    0    0 -0.67095561292E+01 -0.13463073229E+02  0.54191194953E+02  0.56240281460E+02  0.10566000000E+00 0. -1.
        994    1    1    2    0    0  0.58724455201E+01  0.59719995472E+01  0.23239097681E+01  0.17142050913E+03  0.17120000000E+03 0.  0.
        998    1    1    2    0    0  0.83711060912E+00  0.74910736820E+01  0.14434848916E+04  0.14435392094E+04  0.10000000000E+02 0. -1.
</event>
<event>
 5    1  0.1252945E-008  0.3809706E+03  0.7957747E-01  0.3446943E+00
         13   -1    0    0    0    0  0.00000000000E+00  0.00000000000E+00  0.14999999963E+04  0.15000000000E+04  0.10566000000E+00 0. -1.
        994   -1    0    0    0    0 -0.00000000000E+00 -0.00000000000E+00  0.11368683772E-12  0.17120000000E+03  0.17120000000E+03 0.  0.
         13    1    1    2    0    0 -0.14103130143E+02  0.18363275211E+02  0.71103089152E+02  0.74778129204E+02  0.10566000000E+00 0. -1.
        994    1    1    2    0    0  0.13471631124E+02 -0.12638361601E+02  0.47818248526E+01  0.17226003274E+03  0.17120000000E+03 0.  0.
        998    1    1    2    0    0  0.63149901931E+00 -0.57249136093E+01  0.14241150823E+04  0.14241618381E+04  0.10000000000E+02 0. -1.
</event>
<event>
 5    1  0.1252945E-008  0.3697161E+03  0.7957747E-01  0.3497197E+00
         13   -1    0    0    0    0  0.00000000000E+00  0.00000000000E+00  0.14999999963E+04  0.15000000000E+04  0.10566000000E+00 0.  1.
        994   -1    0    0    0    0 -0.00000000000E+00 -0.00000000000E+00  0.11368683772E-12  0.17120000000E+03  0.17120000000E+03 0.  0.
         13    1    1    2    0    0 -0.47321342323E+02  0.60083900083E+02  0.28657945755E+03  0.29660947581E+03  0.10566000000E+00 0.  1.
        994    1    1    2    0    0  0.35073368683E+02 -0.42971639159E+02  0.20142712577E+02  0.18108526122E+03  0.17120000000E+03 0.  0.
        998    1    1    2    0    0  0.12247973640E+02 -0.17112260924E+02  0.11932778262E+04  0.11935052630E+04  0.10000000000E+02 0.  1.
</event>
<event>
 5    1  0.1252945E-008  0.3800524E+03  0.7957747E-01  0.3450930E+00
         13   -1    0    0    0    0  0.00000000000E+00  0.00000000000E+00  0.14999999963E+04  0.15000000000E+04  0.10566000000E+00 0.  1.
        994   -1    0    0    0    0 -0.00000000000E+00 -0.00000000000E+00  0.11368683772E-12  0.17120000000E+03  0.17120000000E+03 0.  0.
         13    1    1    2    0    0 -0.12318701453E+02  0.67285725988E+01  0.22720078715E+02  0.26706501747E+02  0.10566000000E+00 0.  1.
        994    1    1    2    0    0  0.20032356763E+01 -0.28481191297E+01  0.41472073297E+01  0.17128562130E+03  0.17120000000E+03 0.  0.
        998    1    1    2    0    0  0.10315465777E+02 -0.38804534691E+01  0.14731327102E+04  0.14732078770E+04  0.10000000000E+02 0.  1.
</event>
<event>
 5    1  0.1252945E-008  0.3821951E+03  0.7957747E-01  0.3441656E+00
         13   -1    0    0    0    0  0.00000000000E+00  0.00000000000E+00  0.14999999963E+04  0.15000000000E+04  0.10566000000E+00 0. -1.
        994   -1    0    0    0    0 -0.00000000000E+00 -0.00000000000E+00  0.11368683772E-12  0.17120000000E+03  0.17120000000E+03 0.  0.
         13    1    1    2    0    0 -0.12884635955E+02 -0.96535375328E+01  0.45461267955E+02  0.48228027937E+02  0.10566000000E+00 0. -1.
        994    1    1    2    0    0  0.22687470517E+02 -0.45184474996E+02  0.11560151355E+02  0.17888385952E+03  0.17120000000E+03 0.  0.
        998    1    1    2    0    0 -0.98028345621E+01  0.54838012529E+02  0.14429785770E+04  0.14440881125E+04  0.10000000000E+02 0. -1.
</event>
<event>
 5    1  0.1252945E-008  0.3819407E+03  0.7957747E-01  0.3442751E+00
         13   -1    0    0    0    0  0.00000000000E+00  0.00000000000E+00  0.14999999963E+04  0.15000000000E+04  0.10566000000E+00 0.  1.
        994   -1    0    0    0    0 -0.00000000000E+00 -0.00000000000E+00  0.11368683772E-12  0.17120000000E+03  0.17120000000E+03 0.  0.
         13    1    1    2    0    0 -0.58263502306E+01  0.89605940378E+01  0.16350398781E+02  0.19534208632E+02  0.10566000000E+00 0.  1.
        994    1    1    2    0    0  0.43615196793E+01 -0.18254207605E+02  0.43275459204E+01  0.17228002381E+03  0.17120000000E+03 0.  0.
        998    1    1    2    0    0  0.14648305513E+01  0.92936135673E+01  0.14793220516E+04  0.14793857676E+04  0.10000000000E+02 0.  1.
</event>
<event>
 5    1  0.1252945E-008  0.3727615E+03  0.7957747E-01  0.3483295E+00
         13   -1    0    0    0    0  0.00000000000E+00  0.00000000000E+00  0.14999999963E+04  0.15000000000E+04  0.10566000000E+00 0. -1.
        994   -1    0    0    0    0 -0.00000000000E+00 -0.00000000000E+00  0.11368683772E-12  0.17120000000E+03  0.17120000000E+03 0.  0.
         13    1    1    2    0    0  0.34791615715E+02  0.13902153499E+03  0.71681694825E+03  0.73100204663E+03  0.10566000000E+00 0. -1.
        994    1    1    2    0    0 -0.34788253348E+02 -0.13016475597E+03  0.72816520200E+02  0.22970583772E+03  0.17120000000E+03 0.  0.
        998    1    1    2    0    0 -0.33623673637E-02 -0.88567790180E+01  0.71036652783E+03  0.71049211566E+03  0.10000000000E+02 0.  0.
</event>
<event>
 5    1  0.1252945E-008  0.3826340E+03  0.7957747E-01  0.3439769E+00
         13   -1    0    0    0    0  0.00000000000E+00  0.00000000000E+00  0.14999999963E+04  0.15000000000E+04  0.10566000000E+00 0.  1.
        994   -1    0    0    0    0 -0.00000000000E+00 -0.00000000000E+00  0.11368683772E-12  0.17120000000E+03  0.17120000000E+03 0.  0.
         13    1    1    2    0    0 -0.68735974456E+01 -0.79775391491E+01  0.19184711408E+02  0.21884967182E+02  0.10566000000E+00 0.  1.
        994    1    1    2    0    0 -0.86551103684E+01  0.47073086293E+01  0.31311440444E+01  0.17151184727E+03  0.17120000000E+03 0.  0.
        998    1    1    2    0    0  0.15528707814E+02  0.32702305198E+01  0.14776841408E+04  0.14778031856E+04  0.10000000000E+02 0.  1.
</event>
<event>
 5    1  0.1252945E-008  0.3858960E+03  0.7957747E-01  0.3425881E+00
         13   -1    0    0    0    0  0.00000000000E+00  0.00000000000E+00  0.14999999963E+04  0.15000000000E+04  0.10566000000E+00 0. -1.
        994   -1    0    0    0    0 -0.00000000000E+00 -0.00000000000E+00  0.11368683772E-12  0.17120000000E+03  0.17120000000E+03 0.  0.
         13    1    1    2    0    0  0.91285794731E+01  0.43280503893E+01  0.43095840406E+02  0.44264270103E+02  0.10566000000E+00 0. -1.
        994    1    1    2    0    0 -0.59451682769E+01 -0.64848435594E+01  0.14398016658E+01  0.17143194350E+03  0.17120000000E+03 0.  0.
        998    1    1    2    0    0 -0.31834111962E+01  0.21567931701E+01  0.14554643542E+04  0.14555037864E+04  0.10000000000E+02 0. -1.
</event>
<event>
 5    1  0.1252945E-008  0.3689488E+03  0.7957747E-01  0.3500736E+00
         13   -1    0    0    0    0  0.00000000000E+00  0.00000000000E+00  0.14999999963E+04  0.15000000000E+04  0.10566000000E+00 0.  1.
        994   -1    0    0    0    0 -0.00000000000E+00 -0.00000000000E+00  0.11368683772E-12  0.17120000000E+03  0.17120000000E+03 0.  0.
         13    1    1    2    0    0  0.53934375576E+02 -0.78102073146E+01  0.13474328391E+03  0.14534675755E+03  0.10566000000E+00 0.  1.
        994    1    1    2    0    0 -0.54343998161E+02  0.11994150806E+02  0.20645475555E+02  0.18119824903E+03  0.17120000000E+03 0.  0.
        998    1    1    2    0    0  0.40962258485E+00 -0.41839434913E+01  0.13446112368E+04  0.13446549934E+04  0.10000000000E+02 0.  0.
</event>
<event>
 5    1  0.1252945E-008  0.3800525E+03  0.7957747E-01  0.3450930E+00
         13   -1    0    0    0    0  0.00000000000E+00  0.00000000000E+00  0.14999999963E+04  0.15000000000E+04  0.10566000000E+00 0. -1.
        994   -1    0    0    0    0 -0.00000000000E+00 -0.00000000000E+00  0.11368683772E-12  0.17120000000E+03  0.17120000000E+03 0.  0.
         13    1    1    2    0    0 -0.97125765560E+01  0.22920055883E+02  0.73479702729E+02  0.77581834099E+02  0.10566000000E+00 0. -1.
        994    1    1    2    0    0  0.12133319181E+02 -0.13519602323E+02  0.52103584215E+01  0.17223990512E+03  0.17120000000E+03 0.  0.
        998    1    1    2    0    0 -0.24207426254E+01 -0.94004535598E+01  0.14213099351E+04  0.14213782608E+04  0.10000000000E+02 0. -1.
</event>
<event>
 5    1  0.2173196E-008  0.3862240E+03  0.7957747E-01  0.3424497E+00
         13   -1    0    0    0    0  0.00000000000E+00  0.00000000000E+00  0.14999999963E+04  0.15000000000E+04  0.10566000000E+00 0.  1.
        994   -1    0    0    0    0 -0.00000000000E+00 -0.00000000000E+00  0.11368683772E-12  0.17120000000E+03  0.17120000000E+03 0.  0.
         13    1    1    2    0    0 -0.10346282480E+02  0.17774349643E+01  0.56432701505E+02  0.57400921590E+02  0.10566000000E+00 0.  1.
        994    1    1    2    0    0  0.35036462631E+01  0.35361684273E+01  0.11048142851E+01  0.17127591961E+03  0.17120000000E+03 0.  0.
        998    1    1    2    0    0  0.68426362168E+01 -0.53136033916E+01  0.14424624805E+04  0.14425231588E+04  0.10000000000E+02 0.  1.
</event>
<event>
 5    1  0.1252945E-008  0.3796508E+03  0.7957747E-01  0.3452680E+00
         13   -1    0    0    0    0  0.00000000000E+00  0.00000000000E+00  0.14999999963E+04  0.15000000000E+04  0.10566000000E+00 0.  1.
        994   -1    0    0    0    0 -0.00000000000E+00 -0.00000000000E+00  0.11368683772E-12  0.17120000000E+03  0.17120000000E+03 0.  0.
         13    1    1    2    0    0  0.54151046714E+01 -0.26595084961E+02  0.90207896058E+02  0.94202428726E+02  0.10566000000E+00 0.  1.
        994    1    1    2    0    0  0.29175738352E+01  0.25521384936E+01  0.43598032280E+01  0.17129936816E+03  0.17120000000E+03 0.  0.
        998    1    1    2    0    0 -0.83326785066E+01  0.24042946467E+02  0.14054322970E+04  0.14056982031E+04  0.10000000000E+02 0.  1.
</event>
<event>
 5    1  0.1252945E-008  0.3816920E+03  0.7957747E-01  0.3443824E+00
         13   -1    0    0    0    0  0.00000000000E+00  0.00000000000E+00  0.14999999963E+04  0.15000000000E+04  0.10566000000E+00 0. -1.
        994   -1    0    0    0    0 -0.00000000000E+00 -0.00000000000E+00  0.11368683772E-12  0.17120000000E+03  0.17120000000E+03 0.  0.
         13    1    1    2    0    0 -0.27768016872E+02  0.37354512822E+02  0.24592028225E+03  0.25028627364E+03  0.10566000000E+00 0. -1.
        994    1    1    2    0    0  0.51563858616E+02 -0.37057111712E+02  0.16803310162E+02  0.18336807867E+03  0.17120000000E+03 0.  0.
        998    1    1    2    0    0 -0.23795841743E+02 -0.29740110973E+00  0.12372764039E+04  0.12375456477E+04  0.10000000000E+02 0. -1.
</event>
<event>
 5    1  0.1252945E-008  0.3842152E+03  0.7957747E-01  0.3433007E+00
         13   -1    0    0    0    0  0.00000000000E+00  0.00000000000E+00  0.14999999963E+04  0.15000000000E+04  0.10566000000E+00 0. -1.
        994   -1    0    0    0    0 -0.00000000000E+00 -0.00000000000E+00  0.11368683772E-12  0.17120000000E+03  0.17120000000E+03 0.  0.
         13    1    1    2    0    0 -0.21737262082E+01 -0.24526652153E+02  0.14032268697E+03  0.14246666064E+03  0.10566000000E+00 0. -1.
        994    1    1    2    0    0  0.46852569187E+01  0.22363792061E+02  0.37435269647E+01  0.17275863169E+03  0.17120000000E+03 0.  0.
        998    1    1    2    0    0 -0.25115307105E+01  0.21628600921E+01  0.13559337823E+04  0.13559747077E+04  0.10000000000E+02 0.  0.
</event>
<event>
 5    1  0.1252945E-008  0.3905384E+03  0.7957747E-01  0.3406518E+00
         13   -1    0    0    0    0  0.00000000000E+00  0.00000000000E+00  0.14999999963E+04  0.15000000000E+04  0.10566000000E+00 0. -1.
        994   -1    0    0    0    0 -0.00000000000E+00 -0.00000000000E+00  0.11368683772E-12  0.17120000000E+03  0.17120000000E+03 0.  0.
         13    1    1    2    0    0 -0.79215579207E+02 -0.49982582284E+02  0.19030169972E+03  0.21210401835E+03  0.10566000000E+00 0. -1.
        994    1    1    2    0    0  0.35049419079E+02  0.58923552171E+02  0.40186648412E+02  0.18874547276E+03  0.17120000000E+03 0.  0.
        998    1    1    2    0    0  0.44166160127E+02 -0.89409698862E+01  0.12695116481E+04  0.12703505089E+04  0.10000000000E+02 0. -1.
</event>
<event>
 5    1  0.1252945E-008  0.3794949E+03  0.7957747E-01  0.3453361E+00
         13   -1    0    0    0    0  0.00000000000E+00  0.00000000000E+00  0.14999999963E+04  0.15000000000E+04  0.10566000000E+00 0.  1.
        994   -1    0    0    0    0 -0.00000000000E+00 -0.00000000000E+00  0.11368683772E-12  0.17120000000E+03  0.17120000000E+03 0.  0.
         13    1    1    2    0    0  0.27590645530E+02 -0.11169297967E+02  0.96874099887E+02  0.10134396544E+03  0.10566000000E+00 0.  1.
        994    1    1    2    0    0 -0.21907035727E+02  0.82432282626E+01  0.62250539874E+01  0.17290477241E+03  0.17120000000E+03 0.  0.
        998    1    1    2    0    0 -0.56836098038E+01  0.29260697044E+01  0.13969008424E+04  0.13969512621E+04  0.10000000000E+02 0.  1.
</event>
<event>
 5    1  0.1252945E-008  0.3825986E+03  0.7957747E-01  0.3439921E+00
         13   -1    0    0    0    0  0.00000000000E+00  0.00000000000E+00  0.14999999963E+04  0.15000000000E+04  0.10566000000E+00 0.  1.
        994   -1    0    0    0    0 -0.00000000000E+00 -0.00000000000E+00  0.11368683772E-12  0.17120000000E+03  0.17120000000E+03 0.  0.
         13    1    1    2    0    0 -0.17649166570E+02  0.13508460102E+02  0.81522802802E+02  0.84498225518E+02  0.10566000000E+00 0.  1.
        994    1    1    2    0    0  0.22546368353E+02 -0.11404821009E+02  0.49459711314E+01  0.17312513191E+03  0.17120000000E+03 0.  0.
        998    1    1    2    0    0 -0.48972017823E+01 -0.21036390931E+01  0.14135312223E+04  0.14135766426E+04  0.10000000000E+02 0.  1.
</event>
<event>
 5    1  0.1252945E-008  0.3837441E+03  0.7957747E-01  0.3435016E+00
         13   -1    0    0    0    0  0.00000000000E+00  0.00000000000E+00  0.14999999963E+04  0.15000000000E+04  0.10566000000E+00 0.  1.
        994   -1    0    0    0    0 -0.00000000000E+00 -0.00000000000E+00  0.11368683772E-12  0.17120000000E+03  0.17120000000E+03 0.  0.
         13    1    1    2    0    0  0.14631831432E+02 -0.11516070297E+01  0.48671873327E+02  0.50836788913E+02  0.10566000000E+00 0.  1.
        994    1    1    2    0    0 -0.36307095788E+01 -0.35609433357E+01  0.23403461304E+01  0.17129150472E+03  0.17120000000E+03 0.  0.
        998    1    1    2    0    0 -0.11001121854E+02  0.47125503654E+01  0.14489877768E+04  0.14490717064E+04  0.10000000000E+02 0.  1.
</event>
<event>
 5    1  0.1252945E-008  0.3854812E+03  0.7957747E-01  0.3427634E+00
         13   -1    0    0    0    0  0.00000000000E+00  0.00000000000E+00  0.14999999963E+04  0.15000000000E+04  0.10566000000E+00 0. -1.
        994   -1    0    0    0    0 -0.00000000000E+00 -0.00000000000E+00  0.11368683772E-12  0.17120000000E+03  0.17120000000E+03 0.  0.
         13    1    1    2    0    0 -0.55128722477E+01  0.11044528923E+02  0.51634338227E+02  0.53089447423E+02  0.10566000000E+00 0. -1.
        994    1    1    2    0    0  0.13469753161E+02 -0.14240428347E+02  0.26540517975E+01  0.17233893362E+03  0.17120000000E+03 0.  0.
        998    1    1    2    0    0 -0.79568809133E+01  0.31958994237E+01  0.14457116063E+04  0.14457716190E+04  0.10000000000E+02 0. -1.
</event>
<event>
 5    1  0.1252945E-008  0.3853633E+03  0.7957747E-01  0.3428133E+00
         13   -1    0    0    0    0  0.00000000000E+00  0.00000000000E+00  0.14999999963E+04  0.15000000000E+04  0.10566000000E+00 0. -1.
        994   -1    0    0    0    0 -0.00000000000E+00 -0.00000000000E+00  0.11368683772E-12  0.17120000000E+03  0.17120000000E+03 0.  0.
         13    1    1    2    0    0 -0.53186714211E+00 -0.23244724073E+03  0.10543712749E+04  0.10796901403E+04  0.10566000000E+00 0. -1.
        994    1    1    2    0    0 -0.16530247888E+01  0.25002642843E+03  0.24452896457E+03  0.38938387475E+03  0.17120000000E+03 0.  0.
        998    1    1    2    0    0  0.21848919309E+01 -0.17579187704E+02  0.20109975684E+03  0.20212598496E+03  0.10000000000E+02 0. -1.
</event>
<event>
 5    1  0.1252945E-008  0.3841664E+03  0.7957747E-01  0.3433215E+00
         13   -1    0    0    0    0  0.00000000000E+00  0.00000000000E+00  0.14999999963E+04  0.15000000000E+04  0.10566000000E+00 0. -1.
        994   -1    0    0    0    0 -0.00000000000E+00 -0.00000000000E+00  0.11368683772E-12  0.17120000000E+03  0.17120000000E+03 0.  0.
         13    1    1    2    0    0 -0.11970188753E+02  0.66876097289E+01  0.44461658112E+02  0.46528053353E+02  0.10566000000E+00 0. -1.
        994    1    1    2    0    0  0.24954668605E+02  0.14626859917E+02  0.48084747976E+01  0.17369295307E+03  0.17120000000E+03 0.  0.
        998    1    1    2    0    0 -0.12984479851E+02 -0.21314469645E+02  0.14507298634E+04  0.14509789936E+04  0.10000000000E+02 0. -1.
</event>
<event>
 5    1  0.1252945E-008  0.3847654E+03  0.7957747E-01  0.3430668E+00
         13   -1    0    0    0    0  0.00000000000E+00  0.00000000000E+00  0.14999999963E+04  0.15000000000E+04  0.10566000000E+00 0. -1.
        994   -1    0    0    0    0 -0.00000000000E+00 -0.00000000000E+00  0.11368683772E-12  0.17120000000E+03  0.17120000000E+03 0.  0.
         13    1    1    2    0    0 -0.17100697633E+02  0.61027945062E+01  0.10279267907E+03  0.10438402174E+03  0.10566000000E+00 0. -1.
        994    1    1    2    0    0 -0.26344210072E+01 -0.95915746452E+01  0.20723450838E+01  0.17150123350E+03  0.17120000000E+03 0.  0.
        998    1    1    2    0    0  0.19735118640E+02  0.34887801390E+01  0.13951349721E+04  0.13953147448E+04  0.10000000000E+02 0. -1.
</event>
<event>
 5    1  0.1252945E-008  0.3856511E+03  0.7957747E-01  0.3426916E+00
         13   -1    0    0    0    0  0.00000000000E+00  0.00000000000E+00  0.14999999963E+04  0.15000000000E+04  0.10566000000E+00 0. -1.
        994   -1    0    0    0    0 -0.00000000000E+00 -0.00000000000E+00  0.11368683772E-12  0.17120000000E+03  0.17120000000E+03 0.  0.
         13    1    1    2    0    0 -0.16438191723E+02 -0.99616980725E+01  0.96262729364E+02  0.98162996105E+02  0.10566000000E+00 0. -1.
        994    1    1    2    0    0  0.64760160351E+02  0.12681715424E+02  0.15730846709E+02  0.18415103533E+03  0.17120000000E+03 0.  0.
        998    1    1    2    0    0 -0.48321968628E+02 -0.27200173510E+01  0.13880064202E+04  0.13888859686E+04  0.10000000000E+02 0. -1.
</event>
<event>
 5    1  0.1252945E-008  0.3729511E+03  0.7957747E-01  0.3482437E+00
         13   -1    0    0    0    0  0.00000000000E+00  0.00000000000E+00  0.14999999963E+04  0.15000000000E+04  0.10566000000E+00 0. -1.
        994   -1    0    0    0    0 -0.00000000000E+00 -0.00000000000E+00  0.11368683772E-12  0.17120000000E+03  0.17120000000E+03 0.  0.
         13    1    1    2    0    0 -0.26765382583E+02 -0.66917507569E+00  0.42211729545E+02  0.49986745997E+02  0.10566000000E+00 0. -1.
        994    1    1    2    0    0  0.26592277820E+02  0.28145334962E+01  0.10186115230E+02  0.17357496300E+03  0.17120000000E+03 0.  0.
        998    1    1    2    0    0  0.17310476374E+00 -0.21453584205E+01  0.14476021515E+04  0.14476382910E+04  0.10000000000E+02 0. -1.
</event>
<event>
 5    1  0.1252945E-008  0.3813065E+03  0.7957747E-01  0.3445489E+00
         13   -1    0    0    0    0  0.00000000000E+00  0.00000000000E+00  0.14999999963E+04  0.15000000000E+04  0.10566000000E+00 0.  1.
        994   -1    0    0    0    0 -0.00000000000E+00 -0.00000000000E+00  0.11368683772E-12  0.17120000000E+03  0.17120000000E+03 0.  0.
         13    1    1    2    0    0 -0.30987912221E+02  0.15137763327E+02  0.18018045795E+03  0.18345138640E+03  0.10566000000E+00 0.  1.
        994    1    1    2    0    0  0.95199768113E+01 -0.89997126267E+01  0.40465418198E+01  0.17174818569E+03  0.17120000000E+03 0.  0.
        998    1    1    2    0    0  0.21467935409E+02 -0.61380507002E+01  0.13157729965E+04  0.13160004279E+04  0.10000000000E+02 0.  1.
</event>
<event>
 5    1  0.1252945E-008  0.3856977E+03  0.7957747E-01  0.3426718E+00
         13   -1    0    0    0    0  0.00000000000E+00  0.00000000000E+00  0.14999999963E+04  0.15000000000E+04  0.10566000000E+00 0.  1.
        994   -1    0    0    0    0 -0.00000000000E+00 -0.00000000000E+00  0.11368683772E-12  0.17120000000E+03  0.17120000000E+03 0.  0.
         13    1    1    2    0    0 -0.72471822276E+01 -0.13671874929E+02  0.92284795577E+02  0.93573161073E+02  0.10566000000E+00 0.  1.
        994    1    1    2    0    0  0.79375105147E+01  0.94417661800E+01  0.17835148274E+01  0.17165305691E+03  0.17120000000E+03 0.  0.
        998    1    1    2    0    0 -0.69032828703E+00  0.42301087495E+01  0.14059316859E+04  0.14059737820E+04  0.10000000000E+02 0.  1.
</event>
<event>
 5    1  0.1252945E-008  0.3822160E+03  0.7957747E-01  0.3441566E+00
         13   -1    0    0    0    0  0.00000000000E+00  0.00000000000E+00  0.14999999963E+04  0.15000000000E+04  0.10566000000E+00 0.  1.
        994   -1    0    0    0    0 -0.00000000000E+00 -0.00000000000E+00  0.11368683772E-12  0.17120000000E+03  0.17120000000E+03 0.  0.
         13    1    1    2    0    0 -0.18523651441E+02  0.11294689407E+02  0.57943321241E+01  0.22456204495E+02  0.10566000000E+00 0.  1.
        994    1    1    2    0    0 -0.88431952368E+01 -0.34890400952E+02  0.22297326074E+02  0.17635802485E+03  0.17120000000E+03 0.  0.
        998    1    1    2    0    0  0.27366846678E+02  0.23595711545E+02  0.14719083381E+04  0.14723857707E+04  0.10000000000E+02 0.  1.
</event>
<event>
 5    1  0.1252945E-008  0.3853090E+03  0.7957747E-01  0.3428363E+00
         13   -1    0    0    0    0  0.00000000000E+00  0.00000000000E+00  0.14999999963E+04  0.15000000000E+04  0.10566000000E+00 0.  1.
        994   -1    0    0    0    0 -0.00000000000E+00 -0.00000000000E+00  0.11368683772E-12  0.17120000000E+03  0.17120000000E+03 0.  0.
         13    1    1    2    0    0  0.13283059017E+02 -0.99156341898E+01  0.85755682762E+02  0.87343046364E+02  0.10566000000E+00 0.  1.
        994    1    1    2    0    0 -0.16252739360E+02  0.14976717455E+02  0.30831875197E+01  0.17264819619E+03  0.17120000000E+03 0.  0.
        998    1    1    2    0    0  0.29696803425E+01 -0.50610832649E+01  0.14111611260E+04  0.14112087574E+04  0.10000000000E+02 0.  1.
</event>
<event>
 5    1  0.1252945E-008  0.3856473E+03  0.7957747E-01  0.3426932E+00
         13   -1    0    0    0    0  0.00000000000E+00  0.00000000000E+00  0.14999999963E+04  0.15000000000E+04  0.10566000000E+00 0. -1.
        994   -1    0    0    0    0 -0.00000000000E+00 -0.00000000000E+00  0.11368683772E-12  0.17120000000E+03  0.17120000000E+03 0.  0.
         13    1    1    2    0    0 -0.96199831314E+01 -0.46451922126E+01  0.47473566141E+02  0.48660790502E+02  0.10566000000E+00 0. -1.
        994    1    1    2    0    0 -0.64190417649E+01 -0.65099664911E-01  0.14443551342E+01  0.17132639755E+03  0.17120000000E+03 0.  0.
        998    1    1    2    0    0  0.16039024896E+02  0.47102918775E+01  0.14510820750E+04  0.14512128119E+04  0.10000000000E+02 0. -1.
</event>
<event>
 5    1  0.1252945E-008  0.3832560E+03  0.7957747E-01  0.3437102E+00
         13   -1    0    0    0    0  0.00000000000E+00  0.00000000000E+00  0.14999999963E+04  0.15000000000E+04  0.10566000000E+00 0.  1.
        994   -1    0    0    0    0 -0.00000000000E+00 -0.00000000000E+00  0.11368683772E-12  0.17120000000E+03  0.17120000000E+03 0.  0.
         13    1    1    2    0    0  0.12137223558E+02 -0.17217437945E+02  0.85617872230E+02  0.88171330796E+02  0.10566000000E+00 0.  1.
        994    1    1    2    0    0 -0.16650677517E+02  0.10540949723E+02  0.37839453643E+01  0.17237202478E+03  0.17120000000E+03 0.  0.
        998    1    1    2    0    0  0.45134539597E+01  0.66764882225E+01  0.14105981787E+04  0.14106566444E+04  0.10000000000E+02 0.  1.
</event>
<event>
 5    1  0.1252945E-008  0.3843811E+03  0.7957747E-01  0.3432301E+00
         13   -1    0    0    0    0  0.00000000000E+00  0.00000000000E+00  0.14999999963E+04  0.15000000000E+04  0.10566000000E+00 0.  1.
        994   -1    0    0    0    0 -0.00000000000E+00 -0.00000000000E+00  0.11368683772E-12  0.17120000000E+03  0.17120000000E+03 0.  0.
         13    1    1    2    0    0  0.18913294581E+02  0.27680650958E+01  0.86033654692E+02  0.88131582307E+02  0.10566000000E+00 0.  1.
        994    1    1    2    0    0 -0.24715014868E+02 -0.80991304740E+01  0.41698855179E+01  0.17321447924E+03  0.17120000000E+03 0.  0.
        998    1    1    2    0    0  0.58017202868E+01  0.53310653782E+01  0.14097964561E+04  0.14098539384E+04  0.10000000000E+02 0.  1.
</event>
<event>
 5    1  0.1350939E-008  0.3856349E+03  0.7957747E-01  0.3426984E+00
         13   -1    0    0    0    0  0.00000000000E+00  0.00000000000E+00  0.14999999963E+04  0.15000000000E+04  0.10566000000E+00 0. -1.
        994   -1    0    0    0    0 -0.00000000000E+00 -0.00000000000E+00  0.11368683772E-12  0.17120000000E+03  0.17120000000E+03 0.  0.
         13    1    1    2    0    0 -0.79908014558E+01  0.10837741298E+02  0.75463994481E+02  0.76655953268E+02  0.10566000000E+00 0. -1.
        994    1    1    2    0    0 -0.28518504141E+01  0.43375263771E+00  0.13425834745E+01  0.17122956439E+03  0.17120000000E+03 0.  0.
        998    1    1    2    0    0  0.10842651870E+02 -0.11271493936E+02  0.14231934183E+04  0.14233144823E+04  0.10000000000E+02 0. -1.
</event>
<event>
 5    1  0.1252945E-008  0.3783176E+03  0.7957747E-01  0.3458517E+00
         13   -1    0    0    0    0  0.00000000000E+00  0.00000000000E+00  0.14999999963E+04  0.15000000000E+04  0.10566000000E+00 0. -1.
        994   -1    0    0    0    0 -0.00000000000E+00 -0.00000000000E+00  0.11368683772E-12  0.17120000000E+03  0.17120000000E+03 0.  0.
         13    1    1    2    0    0 -0.18366854492E+02 -0.14650930482E+02  0.11108650104E+02  0.25988543227E+02  0.10566000000E+00 0. -1.
        994    1    1    2    0    0  0.20033462077E+02  0.12111037264E+02  0.17382191052E+02  0.17366518762E+03  0.17120000000E+03 0.  0.
        998    1    1    2    0    0 -0.16666075847E+01  0.25398932177E+01  0.14715091551E+04  0.14715462691E+04  0.10000000000E+02 0. -1.
</event>
<event>
 5    1  0.1252945E-008  0.3797543E+03  0.7957747E-01  0.3452229E+00
         13   -1    0    0    0    0  0.00000000000E+00  0.00000000000E+00  0.14999999963E+04  0.15000000000E+04  0.10566000000E+00 0. -1.
        994   -1    0    0    0    0 -0.00000000000E+00 -0.00000000000E+00  0.11368683772E-12  0.17120000000E+03  0.17120000000E+03 0.  0.
         13    1    1    2    0    0  0.21098030334E+02 -0.48811330719E+02  0.20235589378E+03  0.20922617380E+03  0.10566000000E+00 0. -1.
        994    1    1    2    0    0  0.55321321103E+01  0.11710684656E+03  0.51704561375E+02  0.21383970554E+03  0.17120000000E+03 0.  0.
        998    1    1    2    0    0 -0.26630162444E+02 -0.68295515841E+02  0.12459395411E+04  0.12481341207E+04  0.10000000000E+02 0. -1.
</event>
<event>
 5    1  0.1252945E-008  0.3860361E+03  0.7957747E-01  0.3425290E+00
         13   -1    0    0    0    0  0.00000000000E+00  0.00000000000E+00  0.14999999963E+04  0.15000000000E+04  0.10566000000E+00 0.  1.
        994   -1    0    0    0    0 -0.00000000000E+00 -0.00000000000E+00  0.11368683772E-12  0.17120000000E+03  0.17120000000E+03 0.  0.
         13    1    1    2    0    0 -0.94974677690E+00  0.13101581724E+02  0.77761915739E+02  0.78863680906E+02  0.10566000000E+00 0.  1.
        994    1    1    2    0    0  0.14421199691E+01 -0.92361515220E+01  0.14030622632E+01  0.17146076749E+03  0.17120000000E+03 0.  0.
        998    1    1    2    0    0 -0.49237319221E+00 -0.38654302021E+01  0.14208350183E+04  0.14208755516E+04  0.10000000000E+02 0.  1.
</event>
<event>
 5    1  0.1252945E-008  0.3814146E+03  0.7957747E-01  0.3445022E+00
         13   -1    0    0    0    0  0.00000000000E+00  0.00000000000E+00  0.14999999963E+04  0.15000000000E+04  0.10566000000E+00 0. -1.
        994   -1    0    0    0    0 -0.00000000000E+00 -0.00000000000E+00  0.11368683772E-12  0.17120000000E+03  0.17120000000E+03 0.  0.
         13    1    1    2    0    0 -0.73688952480E+00 -0.11960767781E+02  0.19872569495E+02  0.23206317124E+02  0.10566000000E+00 0. -1.
        994    1    1    2    0    0 -0.38642582364E+01  0.38862383968E+01  0.35207266867E+01  0.17132387708E+03  0.17120000000E+03 0.  0.
        998    1    1    2    0    0  0.46011477612E+01  0.80745293839E+01  0.14766067001E+04  0.14766698058E+04  0.10000000000E+02 0. -1.
</event>
<event>
 5    1  0.1252945E-008  0.3841549E+03  0.7957747E-01  0.3433264E+00
         13   -1    0    0    0    0  0.00000000000E+00  0.00000000000E+00  0.14999999963E+04  0.15000000000E+04  0.10566000000E+00 0. -1.
        994   -1    0    0    0    0 -0.00000000000E+00 -0.00000000000E+00  0.11368683772E-12  0.17120000000E+03  0.17120000000E+03 0.  0.
         13    1    1    2    0    0  0.81181494981E+01 -0.10617960141E+02  0.44173557424E+02  0.46151487174E+02  0.10566000000E+00 0. -1.
        994    1    1    2    0    0 -0.24169298373E+01  0.30580901047E+01  0.21004038981E+01  0.17125724849E+03  0.17120000000E+03 0.  0.
        998    1    1    2    0    0 -0.57012196607E+01  0.75598700361E+01  0.14537260350E+04  0.14537912643E+04  0.10000000000E+02 0. -1.
</event>
<event>
 5    1  0.1252945E-008  0.3838676E+03  0.7957747E-01  0.3434489E+00
         13   -1    0    0    0    0  0.00000000000E+00  0.00000000000E+00  0.14999999963E+04  0.15000000000E+04  0.10566000000E+00 0.  1.
        994   -1    0    0    0    0 -0.00000000000E+00 -0.00000000000E+00  0.11368683772E-12  0.17120000000E+03  0.17120000000E+03 0.  0.
         13    1    1    2    0    0 -0.12923409665E+01 -0.19873597065E+02  0.90539040717E+02  0.92703608687E+02  0.10566000000E+00 0.  1.
        994    1    1    2    0    0 -0.44962461667E+01  0.11937424517E+02  0.27306890566E+01  0.17169628708E+03  0.17120000000E+03 0.  0.
        998    1    1    2    0    0  0.57885871332E+01  0.79361725487E+01  0.14067302665E+04  0.14068001042E+04  0.10000000000E+02 0.  1.
</event>
<event>
 5    1  0.1252945E-008  0.3807577E+03  0.7957747E-01  0.3447866E+00
         13   -1    0    0    0    0  0.00000000000E+00  0.00000000000E+00  0.14999999963E+04  0.15000000000E+04  0.10566000000E+00 0.  1.
        994   -1    0    0    0    0 -0.00000000000E+00 -0.00000000000E+00  0.11368683772E-12  0.17120000000E+03  0.17120000000E+03 0.  0.
         13    1    1    2    0    0 -0.55630963244E+00  0.14941398034E+02  0.27773285976E+02  0.31542375205E+02  0.10566000000E+00 0.  1.
        994    1    1    2    0    0 -0.22449577132E+01 -0.16677469805E+02  0.46959906604E+01  0.17208913435E+03  0.17120000000E+03 0.  0.
        998    1    1    2    0    0  0.28012673457E+01  0.17360717712E+01  0.14675307196E+04  0.14675684904E+04  0.10000000000E+02 0.  1.
</event>
<event>
 5    1  0.1252945E-008  0.3821527E+03  0.7957747E-01  0.3441838E+00
         13   -1    0    0    0    0  0.00000000000E+00  0.00000000000E+00  0.14999999963E+04  0.15000000000E+04  0.10566000000E+00 0. -1.
        994   -1    0    0    0    0 -0.00000000000E+00 -0.00000000000E+00  0.11368683772E-12  0.17120000000E+03  0.17120000000E+03 0.  0.
         13    1    1    2    0    0 -0.13251630374E+02 -0.33951381384E+02  0.21575734981E+03  0.21881395560E+03  0.10566000000E+00 0. -1.
        994    1    1    2    0    0 -0.34383489044E+01  0.24826271885E+02  0.51382642506E+01  0.17310114898E+03  0.17120000000E+03 0.  0.
        998    1    1    2    0    0  0.16689979279E+02  0.91251094998E+01  0.12791043822E+04  0.12792848954E+04  0.10000000000E+02 0. -1.
</event>
<event>
 5    1  0.1252945E-008  0.3756502E+03  0.7957747E-01  0.3470320E+00
         13   -1    0    0    0    0  0.00000000000E+00  0.00000000000E+00  0.14999999963E+04  0.15000000000E+04  0.10566000000E+00 0. -1.
        994   -1    0    0    0    0 -0.00000000000E+00 -0.00000000000E+00  0.11368683772E-12  0.17120000000E+03  0.17120000000E+03 0.  0.
         13    1    1    2    0    0  0.46298798454E+02 -0.67159461164E+02  0.35751433546E+03  0.36670217232E+03  0.10566000000E+00 0. -1.
        994    1    1    2    0    0 -0.57854756369E+02  0.73122514508E+02  0.36428853621E+02  0.19831937963E+03  0.17120000000E+03 0.  0.
        998    1    1    2    0    0  0.11555957915E+02 -0.59630533438E+01  0.11060568072E+04  0.11061784480E+04  0.10000000000E+02 0. -1.
</event>
<event>
 5    1  0.1252945E-008  0.3773429E+03  0.7957747E-01  0.3462810E+00
         13   -1    0    0    0    0  0.00000000000E+00  0.00000000000E+00  0.14999999963E+04  0.15000000000E+04  0.10566000000E+00 0.  1.
        994   -1    0    0    0    0 -0.00000000000E+00 -0.00000000000E+00  0.11368683772E-12  0.17120000000E+03  0.17120000000E+03 0.  0.
         13    1    1    2    0    0  0.18519206522E+02 -0.25853324332E+02  0.93116286924E+02  0.98397202419E+02  0.10566000000E+00 0.  1.
        994    1    1    2    0    0 -0.14700668846E+02  0.50504874470E+01  0.62957513498E+01  0.17201945696E+03  0.17120000000E+03 0.  0.
        998    1    1    2    0    0 -0.38185376761E+01  0.20802836885E+02  0.14005879580E+04  0.14007833406E+04  0.10000000000E+02 0.  1.
</event>
<event>
 5    1  0.1252945E-008  0.4191868E+03  0.7957747E-01  0.3296475E+00
         13   -1    0    0    0    0  0.00000000000E+00  0.00000000000E+00  0.14999999963E+04  0.15000000000E+04  0.10566000000E+00 0. -1.
        994   -1    0    0    0    0 -0.00000000000E+00 -0.00000000000E+00  0.11368683772E-12  0.17120000000E+03  0.17120000000E+03 0.  0.
         13    1    1    2    0    0 -0.24856460111E+02 -0.47431951978E+02  0.23408967944E+02  0.58443345403E+02  0.10566000000E+00 0. -1.
        994    1    1    2    0    0 -0.73919781499E+01  0.27108369380E+02  0.43152643555E+02  0.17877666424E+03  0.17120000000E+03 0.  0.
        998    1    1    2    0    0  0.32248438261E+02  0.20323582598E+02  0.14334383848E+04  0.14339799904E+04  0.10000000000E+02 0. -1.
</event>
<event>
 5    1  0.1252945E-008  0.3841220E+03  0.7957747E-01  0.3433404E+00
         13   -1    0    0    0    0  0.00000000000E+00  0.00000000000E+00  0.14999999963E+04  0.15000000000E+04  0.10566000000E+00 0.  1.
        994   -1    0    0    0    0 -0.00000000000E+00 -0.00000000000E+00  0.11368683772E-12  0.17120000000E+03  0.17120000000E+03 0.  0.
         13    1    1    2    0    0 -0.11460281886E+02 -0.95665940908E+00  0.31450648803E+02  0.33487426481E+02  0.10566000000E+00 0.  1.
        994    1    1    2    0    0  0.81372572127E+01 -0.24608113088E+01  0.23050609259E+01  0.17142643861E+03  0.17120000000E+03 0.  0.
        998    1    1    2    0    0  0.33230246736E+01  0.34174707179E+01  0.14662442865E+04  0.14662861349E+04  0.10000000000E+02 0.  1.
</event>
<event>
 5    1  0.1252945E-008  0.3816568E+03  0.7957747E-01  0.3443976E+00
         13   -1    0    0    0    0  0.00000000000E+00  0.00000000000E+00  0.14999999963E+04  0.15000000000E+04  0.10566000000E+00 0.  1.
        994   -1    0    0    0    0 -0.00000000000E+00 -0.00000000000E+00  0.11368683772E-12  0.17120000000E+03  0.17120000000E+03 0.  0.
         13    1    1    2    0    0  0.48913319384E+01  0.17341280281E+02  0.52401294930E+02  0.55412561792E+02  0.10566000000E+00 0.  1.
        994    1    1    2    0    0  0.56174094224E+01  0.74563659111E+01  0.35889251190E+01  0.17149190379E+03  0.17120000000E+03 0.  0.
        998    1    1    2    0    0 -0.10508741361E+02 -0.24797646192E+02  0.14440097762E+04  0.14442955344E+04  0.10000000000E+02 0.  1.
</event>
<event>
 5    1  0.1252945E-008  0.3846537E+03  0.7957747E-01  0.3431142E+00
         13   -1    0    0    0    0  0.00000000000E+00  0.00000000000E+00  0.14999999963E+04  0.15000000000E+04  0.10566000000E+00 0.  1.
        994   -1    0    0    0    0 -0.00000000000E+00 -0.00000000000E+00  0.11368683772E-12  0.17120000000E+03  0.17120000000E+03 0.  0.
         13    1    1    2    0    0  0.57162884947E+01 -0.86704713741E+01  0.30242691363E+02  0.31976312684E+02  0.10566000000E+00 0.  1.
        994    1    1    2    0    0  0.11809923439E+01  0.27676260921E+01  0.18319926088E+01  0.17123624235E+03  0.17120000000E+03 0.  0.
        998    1    1    2    0    0 -0.68972808386E+01  0.59028452821E+01  0.14679253123E+04  0.14679874450E+04  0.10000000000E+02 0.  1.
</event>
<event>
 5    1  0.1252945E-008  0.3819463E+03  0.7957747E-01  0.3442727E+00
         13   -1    0    0    0    0  0.00000000000E+00  0.00000000000E+00  0.14999999963E+04  0.15000000000E+04  0.10566000000E+00 0. -1.
        994   -1    0    0    0    0 -0.00000000000E+00 -0.00000000000E+00  0.11368683772E-12  0.17120000000E+03  0.17120000000E+03 0.  0.
         13    1    1    2    0    0  0.13398549595E+02  0.47648059294E+01  0.31990882991E+02  0.35009316837E+02  0.10566000000E+00 0. -1.
        994    1    1    2    0    0  0.37462061144E+01 -0.95780932941E+01  0.35052876406E+01  0.17154445772E+03  0.17120000000E+03 0.  0.
        998    1    1    2    0    0 -0.17144755710E+02  0.48132873646E+01  0.14645038256E+04  0.14646462254E+04  0.10000000000E+02 0. -1.
</event>
<event>
 5    1  0.1252945E-008  0.3839595E+03  0.7957747E-01  0.3434097E+00
         13   -1    0    0    0    0  0.00000000000E+00  0.00000000000E+00  0.14999999963E+04  0.15000000000E+04  0.10566000000E+00 0. -1.
        994   -1    0    0    0    0 -0.00000000000E+00 -0.00000000000E+00  0.11368683772E-12  0.17120000000E+03  0.17120000000E+03 0.  0.
         13    1    1    2    0    0 -0.10378259116E+02 -0.35900283187E+01  0.29112191473E+02  0.31114746054E+02  0.10566000000E+00 0. -1.
        994    1    1    2    0    0 -0.68681314106E+01 -0.32049786999E+01  0.23372010356E+01  0.17138362123E+03  0.17120000000E+03 0.  0.
        998    1    1    2    0    0  0.17246390527E+02  0.67950070185E+01  0.14685506038E+04  0.14687016327E+04  0.10000000000E+02 0. -1.
</event>
<event>
 5    1  0.1252945E-008  0.3826265E+03  0.7957747E-01  0.3439801E+00
         13   -1    0    0    0    0  0.00000000000E+00  0.00000000000E+00  0.14999999963E+04  0.15000000000E+04  0.10566000000E+00 0.  1.
        994   -1    0    0    0    0 -0.00000000000E+00 -0.00000000000E+00  0.11368683772E-12  0.17120000000E+03  0.17120000000E+03 0.  0.
         13    1    1    2    0    0  0.16078977442E+02  0.42208196009E+01  0.51134183478E+02  0.53768622055E+02  0.10566000000E+00 0.  1.
        994    1    1    2    0    0  0.27475285120E+01 -0.17597799875E+01  0.28484334261E+01  0.17125477895E+03  0.17120000000E+03 0.  0.
        998    1    1    2    0    0 -0.18826505954E+02 -0.24610396134E+01  0.14460173794E+04  0.14461765990E+04  0.10000000000E+02 0.  1.
</event>
<event>
 5    1  0.1252945E-008  0.3836257E+03  0.7957747E-01  0.3435522E+00
         13   -1    0    0    0    0  0.00000000000E+00  0.00000000000E+00  0.14999999963E+04  0.15000000000E+04  0.10566000000E+00 0.  1.
        994   -1    0    0    0    0 -0.00000000000E+00 -0.00000000000E+00  0.11368683772E-12  0.17120000000E+03  0.17120000000E+03 0.  0.
         13    1    1    2    0    0 -0.20236763807E+02 -0.19215952765E+02  0.14341061742E+03  0.14610063587E+03  0.10566000000E+00 0.  1.
        994    1    1    2    0    0  0.33491744034E+02  0.18277042798E+02  0.71377372074E+01  0.17554524916E+03  0.17120000000E+03 0.  0.
        998    1    1    2    0    0 -0.13254980227E+02  0.93890996676E+00  0.13494516417E+04  0.13495541150E+04  0.10000000000E+02 0.  1.
</event>
<event>
 5    1  0.1252945E-008  0.3799675E+03  0.7957747E-01  0.3451300E+00
         13   -1    0    0    0    0  0.00000000000E+00  0.00000000000E+00  0.14999999963E+04  0.15000000000E+04  0.10566000000E+00 0.  1.
        994   -1    0    0    0    0 -0.00000000000E+00 -0.00000000000E+00  0.11368683772E-12  0.17120000000E+03  0.17120000000E+03 0.  0.
         13    1    1    2    0    0  0.15451040851E+02 -0.30185303967E+02  0.12393650902E+03  0.12849185449E+03  0.10566000000E+00 0.  1.
        994    1    1    2    0    0 -0.27863861065E+02  0.28695788736E+02  0.95168673400E+01  0.17606775346E+03  0.17120000000E+03 0.  0.
        998    1    1    2    0    0  0.12412820214E+02  0.14895152310E+01  0.13665466199E+04  0.13666403921E+04  0.10000000000E+02 0.  1.
</event>
<event>
 5    1  0.1252945E-008  0.3696467E+03  0.7957747E-01  0.3497516E+00
         13   -1    0    0    0    0  0.00000000000E+00  0.00000000000E+00  0.14999999963E+04  0.15000000000E+04  0.10566000000E+00 0. -1.
        994   -1    0    0    0    0 -0.00000000000E+00 -0.00000000000E+00  0.11368683772E-12  0.17120000000E+03  0.17120000000E+03 0.  0.
         13    1    1    2    0    0 -0.44965430483E+02 -0.35709898734E+02  0.15578199915E+03  0.16602749540E+03  0.10566000000E+00 0. -1.
        994    1    1    2    0    0  0.24725393929E+02  0.58416697060E+02  0.23515881900E+02  0.18408229763E+03  0.17120000000E+03 0.  0.
        998    1    1    2    0    0  0.20240036554E+02 -0.22706798325E+02  0.13207021152E+04  0.13210902070E+04  0.10000000000E+02 0. -1.
</event>
<event>
 5    1  0.1252945E-008  0.3800440E+03  0.7957747E-01  0.3450967E+00
         13   -1    0    0    0    0  0.00000000000E+00  0.00000000000E+00  0.14999999963E+04  0.15000000000E+04  0.10566000000E+00 0.  1.
        994   -1    0    0    0    0 -0.00000000000E+00 -0.00000000000E+00  0.11368683772E-12  0.17120000000E+03  0.17120000000E+03 0.  0.
         13    1    1    2    0    0  0.19584396008E+02 -0.28071132823E+02  0.17088649787E+03  0.17428064546E+03  0.10566000000E+00 0.  1.
        994    1    1    2    0    0  0.26076712364E+01 -0.69500406255E+01  0.42951404321E+01  0.17141467628E+03  0.17120000000E+03 0.  0.
        998    1    1    2    0    0 -0.22192067245E+02  0.35021173449E+02  0.13248183580E+04  0.13255046783E+04  0.10000000000E+02 0.  1.
</event>
<event>
 5    1  0.1252945E-008  0.3836558E+03  0.7957747E-01  0.3435393E+00
         13   -1    0    0    0    0  0.00000000000E+00  0.00000000000E+00  0.14999999963E+04  0.15000000000E+04  0.10566000000E+00 0. -1.
        994   -1    0    0    0    0 -0.00000000000E+00 -0.00000000000E+00  0.11368683772E-12  0.17120000000E+03  0.17120000000E+03 0.  0.
         13    1    1    2    0    0  0.88924178680E+00  0.15991813814E+02  0.57058698207E+02  0.59264112793E+02  0.10566000000E+00 0. -1.
        994    1    1    2    0    0  0.13961736772E+01 -0.42034337418E+01  0.23637606709E+01  0.17127359843E+03  0.17120000000E+03 0.  0.
        998    1    1    2    0    0 -0.22854154640E+01 -0.11788380072E+02  0.14405775374E+04  0.14406622888E+04  0.10000000000E+02 0. -1.
</event>
<event>
 5    1  0.1252945E-008  0.3855463E+03  0.7957747E-01  0.3427358E+00
         13   -1    0    0    0    0  0.00000000000E+00  0.00000000000E+00  0.14999999963E+04  0.15000000000E+04  0.10566000000E+00 0.  1.
        994   -1    0    0    0    0 -0.00000000000E+00 -0.00000000000E+00  0.11368683772E-12  0.17120000000E+03  0.17120000000E+03 0.  0.
         13    1    1    2    0    0  0.10786509774E+02  0.37682622775E+02  0.32022396376E+02  0.50613969278E+02  0.10566000000E+00 0.  1.
        994    1    1    2    0    0 -0.18938167002E+02 -0.25705467399E+02  0.23187535146E+02  0.17568872192E+03  0.17120000000E+03 0.  0.
        998    1    1    2    0    0  0.81516572279E+01 -0.11977155376E+02  0.14447900648E+04  0.14448973088E+04  0.10000000000E+02 0.  1.
</event>
<event>
 5    1  0.1252945E-008  0.3785797E+03  0.7957747E-01  0.3457366E+00
         13   -1    0    0    0    0  0.00000000000E+00  0.00000000000E+00  0.14999999963E+04  0.15000000000E+04  0.10566000000E+00 0.  1.
        994   -1    0    0    0    0 -0.00000000000E+00 -0.00000000000E+00  0.11368683772E-12  0.17120000000E+03  0.17120000000E+03 0.  0.
         13    1    1    2    0    0  0.41441036670E+02 -0.11034541297E+03  0.67839912771E+03  0.68856289279E+03  0.10566000000E+00 0.  1.
        994    1    1    2    0    0 -0.46851304001E+02  0.11476559035E+03  0.58327587325E+02  0.21926635141E+03  0.17120000000E+03 0.  0.
        998    1    1    2    0    0  0.54102673311E+01 -0.44201773826E+01  0.76327328124E+03  0.76337075581E+03  0.10000000000E+02 0.  1.
</event>
<event>
 5    1  0.1252945E-008  0.3830121E+03  0.7957747E-01  0.3438147E+00
         13   -1    0    0    0    0  0.00000000000E+00  0.00000000000E+00  0.14999999963E+04  0.15000000000E+04  0.10566000000E+00 0.  1.
        994   -1    0    0    0    0 -0.00000000000E+00 -0.00000000000E+00  0.11368683772E-12  0.17120000000E+03  0.17120000000E+03 0.  0.
         13    1    1    2    0    0  0.20934134642E+02 -0.34461022580E+01  0.81259563502E+02  0.83983578386E+02  0.10566000000E+00 0.  1.
        994    1    1    2    0    0 -0.21371348956E+02  0.34871252671E+01  0.41738976195E+01  0.17261447222E+03  0.17120000000E+03 0.  0.
        998    1    1    2    0    0  0.43721431471E+00 -0.41023009048E-01  0.14145665352E+04  0.14146019494E+04  0.10000000000E+02 0.  0.
</event>
<event>
 5    1  0.1252945E-008  0.3849150E+03  0.7957747E-01  0.3430033E+00
         13   -1    0    0    0    0  0.00000000000E+00  0.00000000000E+00  0.14999999963E+04  0.15000000000E+04  0.10566000000E+00 0.  1.
        994   -1    0    0    0    0 -0.00000000000E+00 -0.00000000000E+00  0.11368683772E-12  0.17120000000E+03  0.17120000000E+03 0.  0.
         13    1    1    2    0    0  0.43575976641E+01  0.14278735074E+02  0.67498717211E+02  0.69130014624E+02  0.10566000000E+00 0.  1.
        994    1    1    2    0    0 -0.57981583624E+01 -0.63317368881E+01  0.19148747392E+01  0.17142583317E+03  0.17120000000E+03 0.  0.
        998    1    1    2    0    0  0.14405606984E+01 -0.79469981863E+01  0.14305864043E+04  0.14306441522E+04  0.10000000000E+02 0.  1.
</event>
<event>
 5    1  0.1252945E-008  0.3722803E+03  0.7957747E-01  0.3485476E+00
         13   -1    0    0    0    0  0.00000000000E+00  0.00000000000E+00  0.14999999963E+04  0.15000000000E+04  0.10566000000E+00 0. -1.
        994   -1    0    0    0    0 -0.00000000000E+00 -0.00000000000E+00  0.11368683772E-12  0.17120000000E+03  0.17120000000E+03 0.  0.
         13    1    1    2    0    0  0.10342457458E+01  0.12846981959E+02  0.65853514539E+01  0.14473860146E+02  0.10566000000E+00 0. -1.
        994    1    1    2    0    0  0.77870418633E+00 -0.99201738914E+01  0.84217757411E+01  0.17169561013E+03  0.17120000000E+03 0.  0.
        998    1    1    2    0    0 -0.18129499321E+01 -0.29268080673E+01  0.14849928691E+04  0.14850305297E+04  0.10000000000E+02 0. -1.
</event>
<event>
 5    1  0.1313834E-008  0.3859457E+03  0.7957747E-01  0.3425671E+00
         13   -1    0    0    0    0  0.00000000000E+00  0.00000000000E+00  0.14999999963E+04  0.15000000000E+04  0.10566000000E+00 0.  1.
        994   -1    0    0    0    0 -0.00000000000E+00 -0.00000000000E+00  0.11368683772E-12  0.17120000000E+03  0.17120000000E+03 0.  0.
         13    1    1    2    0    0  0.10292414752E+02 -0.83548591743E-01  0.46167008737E+02  0.47300577603E+02  0.10566000000E+00 0.  1.
        994    1    1    2    0    0 -0.67273573221E+01 -0.28419019134E+01  0.13362125589E+01  0.17136090338E+03  0.17120000000E+03 0.  0.
        998    1    1    2    0    0 -0.35650574299E+01  0.29254505051E+01  0.14524967750E+04  0.14525385190E+04  0.10000000000E+02 0.  1.
</event>
<event>
 5    1  0.1252945E-008  0.3794298E+03  0.7957747E-01  0.3453645E+00
         13   -1    0    0    0    0  0.00000000000E+00  0.00000000000E+00  0.14999999963E+04  0.15000000000E+04  0.10566000000E+00 0. -1.
        994   -1    0    0    0    0 -0.00000000000E+00 -0.00000000000E+00  0.11368683772E-12  0.17120000000E+03  0.17120000000E+03 0.  0.
         13    1    1    2    0    0 -0.11440121642E+02  0.24040252616E+02  0.81507518198E+02  0.85745535253E+02  0.10566000000E+00 0. -1.
        994    1    1    2    0    0 -0.56746137858E+01 -0.12217071129E+02  0.50292069777E+01  0.17180276771E+03  0.17120000000E+03 0.  0.
        998    1    1    2    0    0  0.17114735428E+02 -0.11823181487E+02  0.14134632711E+04  0.14136516970E+04  0.10000000000E+02 0. -1.
</event>
<event>
 5    1  0.1252945E-008  0.3760796E+03  0.7957747E-01  0.3468408E+00
         13   -1    0    0    0    0  0.00000000000E+00  0.00000000000E+00  0.14999999963E+04  0.15000000000E+04  0.10566000000E+00 0.  1.
        994   -1    0    0    0    0 -0.00000000000E+00 -0.00000000000E+00  0.11368683772E-12  0.17120000000E+03  0.17120000000E+03 0.  0.
         13    1    1    2    0    0 -0.14823947241E+03  0.54690583023E+02  0.80426013982E+03  0.81963429938E+03  0.10566000000E+00 0.  1.
        994    1    1    2    0    0  0.14953659322E+03 -0.56696801521E+02  0.98341932299E+02  0.25407930979E+03  0.17120000000E+03 0.  0.
        998    1    1    2    0    0 -0.12971208094E+01  0.20062184980E+01  0.59739792416E+03  0.59748639083E+03  0.10000000000E+02 0.  0.
</event>
<event>
 5    1  0.1252945E-008  0.3829171E+03  0.7957747E-01  0.3438554E+00
         13   -1    0    0    0    0  0.00000000000E+00  0.00000000000E+00  0.14999999963E+04  0.15000000000E+04  0.10566000000E+00 0.  1.
        994   -1    0    0    0    0 -0.00000000000E+00 -0.00000000000E+00  0.11368683772E-12  0.17120000000E+03  0.17120000000E+03 0.  0.
         13    1    1    2    0    0 -0.75286820772E+02  0.12475425669E+03  0.41130299553E+03  0.43635065628E+03  0.10566000000E+00 0.  1.
        994    1    1    2    0    0  0.80196333807E+02 -0.11839417435E+03  0.97288768452E+02  0.24335812488E+03  0.17120000000E+03 0.  0.
        998    1    1    2    0    0 -0.49095130348E+01 -0.63600823425E+01  0.99140823230E+03  0.99149121884E+03  0.10000000000E+02 0.  1.
</event>
<event>
 5    1  0.1252945E-008  0.3830486E+03  0.7957747E-01  0.3437991E+00
         13   -1    0    0    0    0  0.00000000000E+00  0.00000000000E+00  0.14999999963E+04  0.15000000000E+04  0.10566000000E+00 0. -1.
        994   -1    0    0    0    0 -0.00000000000E+00 -0.00000000000E+00  0.11368683772E-12  0.17120000000E+03  0.17120000000E+03 0.  0.
         13    1    1    2    0    0  0.17642302669E+02 -0.16703294887E+02  0.10645694720E+03  0.10919406428E+03  0.10566000000E+00 0. -1.
        994    1    1    2    0    0 -0.19207093203E+02  0.14221585789E+02  0.44947090255E+01  0.17291850202E+03  0.17120000000E+03 0.  0.
        998    1    1    2    0    0  0.15647905343E+01  0.24817090980E+01  0.13890483401E+04  0.13890874337E+04  0.10000000000E+02 0. -1.
</event>
<event>
 5    1  0.1252945E-008  0.3957886E+03  0.7957747E-01  0.3385167E+00
         13   -1    0    0    0    0  0.00000000000E+00  0.00000000000E+00  0.14999999963E+04  0.15000000000E+04  0.10566000000E+00 0.  1.
        994   -1    0    0    0    0 -0.00000000000E+00 -0.00000000000E+00  0.11368683772E-12  0.17120000000E+03  0.17120000000E+03 0.  0.
         13    1    1    2    0    0 -0.30423608814E+02  0.35455157762E+02  0.32189707031E+02  0.56734932696E+02  0.10566000000E+00 0.  1.
        994    1    1    2    0    0  0.38077400964E+02 -0.38827429988E+02  0.36756565512E+02  0.18335196452E+03  0.17120000000E+03 0.  0.
        998    1    1    2    0    0 -0.76537921497E+01  0.33722722261E+01  0.14310537237E+04  0.14311131028E+04  0.10000000000E+02 0.  1.
</event>
<event>
 5    1  0.1252945E-008  0.3877376E+03  0.7957747E-01  0.3418144E+00
         13   -1    0    0    0    0  0.00000000000E+00  0.00000000000E+00  0.14999999963E+04  0.15000000000E+04  0.10566000000E+00 0.  1.
        994   -1    0    0    0    0 -0.00000000000E+00 -0.00000000000E+00  0.11368683772E-12  0.17120000000E+03  0.17120000000E+03 0.  0.
         13    1    1    2    0    0 -0.53023772162E+02 -0.10776655945E+03  0.21963008640E+03  0.25032486446E+03  0.10566000000E+00 0.  1.
        994    1    1    2    0    0  0.13321813022E+03  0.12665949929E+03  0.16084656460E+03  0.29827966127E+03  0.17120000000E+03 0.  0.
        998    1    1    2    0    0 -0.80194358063E+02 -0.18892939838E+02  0.11195233453E+04  0.11225954743E+04  0.10000000000E+02 0.  1.
</event>
<event>
 5    1  0.1252945E-008  0.3837592E+03  0.7957747E-01  0.3434952E+00
         13   -1    0    0    0    0  0.00000000000E+00  0.00000000000E+00  0.14999999963E+04  0.15000000000E+04  0.10566000000E+00 0.  1.
        994   -1    0    0    0    0 -0.00000000000E+00 -0.00000000000E+00  0.11368683772E-12  0.17120000000E+03  0.17120000000E+03 0.  0.
         13    1    1    2    0    0  0.12373029999E+02 -0.12045904149E+02  0.70018841898E+02  0.72116884728E+02  0.10566000000E+00 0.  1.
        994    1    1    2    0    0 -0.34268944869E+01 -0.29205837458E+01  0.23143686778E+01  0.17127483679E+03  0.17120000000E+03 0.  0.
        998    1    1    2    0    0 -0.89461355123E+01  0.14966487895E+02  0.14276667857E+04  0.14278082785E+04  0.10000000000E+02 0.  1.
</event>
<event>
 5    1  0.1252945E-008  0.3850098E+03  0.7957747E-01  0.3429631E+00
         13   -1    0    0    0    0  0.00000000000E+00  0.00000000000E+00  0.14999999963E+04  0.15000000000E+04  0.10566000000E+00 0. -1.
        994   -1    0    0    0    0 -0.00000000000E+00 -0.00000000000E+00  0.11368683772E-12  0.17120000000E+03  0.17120000000E+03 0.  0.
         13    1    1    2    0    0  0.10214750636E+02  0.66240709981E+01  0.44056138419E+02  0.45707482358E+02  0.10566000000E+00 0. -1.
        994    1    1    2    0    0 -0.65377324439E+01 -0.16550474868E+02  0.26673020136E+01  0.17214300643E+03  0.17120000000E+03 0.  0.
        998    1    1    2    0    0 -0.36770181922E+01  0.99264038703E+01  0.14532765558E+04  0.14533495112E+04  0.10000000000E+02 0. -1.
</event>
<event>
 5    1  0.1252945E-008  0.3845101E+03  0.7957747E-01  0.3431753E+00
         13   -1    0    0    0    0  0.00000000000E+00  0.00000000000E+00  0.14999999963E+04  0.15000000000E+04  0.10566000000E+00 0.  1.
        994   -1    0    0    0    0 -0.00000000000E+00 -0.00000000000E+00  0.11368683772E-12  0.17120000000E+03  0.17120000000E+03 0.  0.
         13    1    1    2    0    0  0.45034167720E+01 -0.15662130942E+02  0.67547694131E+02  0.69485863704E+02  0.10566000000E+00 0.  1.
        994    1    1    2    0    0 -0.10369257210E+02  0.15918133336E+02  0.30632701068E+01  0.17227806618E+03  0.17120000000E+03 0.  0.
        998    1    1    2    0    0  0.58658404384E+01 -0.25600239364E+00  0.14293890320E+04  0.14294360701E+04  0.10000000000E+02 0.  1.
</event>
<event>
 5    1  0.1252945E-008  0.3856347E+03  0.7957747E-01  0.3426985E+00
         13   -1    0    0    0    0  0.00000000000E+00  0.00000000000E+00  0.14999999963E+04  0.15000000000E+04  0.10566000000E+00 0. -1.
        994   -1    0    0    0    0 -0.00000000000E+00 -0.00000000000E+00  0.11368683772E-12  0.17120000000E+03  0.17120000000E+03 0.  0.
         13    1    1    2    0    0  0.27580338916E+01 -0.12543179506E+02  0.69411697232E+02  0.70589892901E+02  0.10566000000E+00 0. -1.
        994    1    1    2    0    0 -0.43028126763E+01 -0.53612377485E+01  0.14704328625E+01  0.17134427110E+03  0.17120000000E+03 0.  0.
        998    1    1    2    0    0  0.15447787846E+01  0.17904417254E+02  0.14291178662E+04  0.14292658360E+04  0.10000000000E+02 0. -1.
</event>
<event>
 5    1  0.1252945E-008  0.3832495E+03  0.7957747E-01  0.3437130E+00
         13   -1    0    0    0    0  0.00000000000E+00  0.00000000000E+00  0.14999999963E+04  0.15000000000E+04  0.10566000000E+00 0.  1.
        994   -1    0    0    0    0 -0.00000000000E+00 -0.00000000000E+00  0.11368683772E-12  0.17120000000E+03  0.17120000000E+03 0.  0.
         13    1    1    2    0    0  0.24769301737E+02  0.63194320328E+00  0.13393242453E+03  0.13620507761E+03  0.10566000000E+00 0.  1.
        994    1    1    2    0    0 -0.27127067783E+01 -0.88305723493E+01  0.27840398773E+01  0.17147165557E+03  0.17120000000E+03 0.  0.
        998    1    1    2    0    0 -0.22056594959E+02  0.81986291461E+01  0.13632835319E+04  0.13635232668E+04  0.10000000000E+02 0.  1.
</event>
<event>
 5    1  0.1252945E-008  0.3840632E+03  0.7957747E-01  0.3433655E+00
         13   -1    0    0    0    0  0.00000000000E+00  0.00000000000E+00  0.14999999963E+04  0.15000000000E+04  0.10566000000E+00 0.  1.
        994   -1    0    0    0    0 -0.00000000000E+00 -0.00000000000E+00  0.11368683772E-12  0.17120000000E+03  0.17120000000E+03 0.  0.
         13    1    1    2    0    0  0.10656787839E+02 -0.12322960310E+02  0.61342088063E+02  0.63468775077E+02  0.10566000000E+00 0.  1.
        994    1    1    2    0    0 -0.11043338551E+02  0.10632024419E+02  0.28714861348E+01  0.17190893142E+03  0.17120000000E+03 0.  0.
        998    1    1    2    0    0  0.38655071185E+00  0.16909358912E+01  0.14357864221E+04  0.14358222935E+04  0.10000000000E+02 0.  1.
</event>
<event>
 5    1  0.1252945E-008  0.3852097E+03  0.7957747E-01  0.3428783E+00
         13   -1    0    0    0    0  0.00000000000E+00  0.00000000000E+00  0.14999999963E+04  0.15000000000E+04  0.10566000000E+00 0. -1.
        994   -1    0    0    0    0 -0.00000000000E+00 -0.00000000000E+00  0.11368683772E-12  0.17120000000E+03  0.17120000000E+03 0.  0.
         13    1    1    2    0    0 -0.99993247760E+01  0.15474708970E+02  0.10901658910E+03  0.11056256590E+03  0.10566000000E+00 0. -1.
        994    1    1    2    0    0  0.13033725103E+01 -0.16312215031E+02  0.24066094116E+01  0.17199714796E+03  0.17120000000E+03 0.  0.
        998    1    1    2    0    0  0.86959522657E+01  0.83750606064E+00  0.13885767978E+04  0.13886402861E+04  0.10000000000E+02 0. -1.
</event>
<event>
 5    1  0.1252945E-008  0.4179989E+03  0.7957747E-01  0.3300742E+00
         13   -1    0    0    0    0  0.00000000000E+00  0.00000000000E+00  0.14999999963E+04  0.15000000000E+04  0.10566000000E+00 0. -1.
        994   -1    0    0    0    0 -0.00000000000E+00 -0.00000000000E+00  0.11368683772E-12  0.17120000000E+03  0.17120000000E+03 0.  0.
         13    1    1    2    0    0  0.11990498680E+03  0.28084946885E+02  0.25645339942E+03  0.28448959091E+03  0.10566000000E+00 0. -1.
        994    1    1    2    0    0  0.12508229053E+02 -0.41983583947E+02  0.47165054751E+02  0.18290177556E+03  0.17120000000E+03 0.  0.
        998    1    1    2    0    0 -0.13241321585E+03  0.13898637062E+02  0.11963815421E+04  0.12038086335E+04  0.10000000000E+02 0. -1.
</event>
<event>
 5    1  0.1252945E-008  0.3793211E+03  0.7957747E-01  0.3454120E+00
         13   -1    0    0    0    0  0.00000000000E+00  0.00000000000E+00  0.14999999963E+04  0.15000000000E+04  0.10566000000E+00 0. -1.
        994   -1    0    0    0    0 -0.00000000000E+00 -0.00000000000E+00  0.11368683772E-12  0.17120000000E+03  0.17120000000E+03 0.  0.
         13    1    1    2    0    0  0.18022709911E+02  0.25719711593E+02  0.11456119578E+03  0.11878804813E+03  0.10566000000E+00 0. -1.
        994    1    1    2    0    0  0.39647488819E+01 -0.13861470150E+02  0.51729698533E+01  0.17188385382E+03  0.17120000000E+03 0.  0.
        998    1    1    2    0    0 -0.21987458793E+02 -0.11858241444E+02  0.13802658306E+04  0.13805280980E+04  0.10000000000E+02 0. -1.
</event>
<event>
 5    1  0.1252945E-008  0.3789344E+03  0.7957747E-01  0.3455811E+00
         13   -1    0    0    0    0  0.00000000000E+00  0.00000000000E+00  0.14999999963E+04  0.15000000000E+04  0.10566000000E+00 0.  1.
        994   -1    0    0    0    0 -0.00000000000E+00 -0.00000000000E+00  0.11368683772E-12  0.17120000000E+03  0.17120000000E+03 0.  0.
         13    1    1    2    0    0 -0.86803483948E+02 -0.12096575788E+03  0.84254515285E+03  0.85559914981E+03  0.10566000000E+00 0.  1.
        994    1    1    2    0    0  0.11601098518E+03  0.11059883300E+03  0.96333816446E+02  0.25353558869E+03  0.17120000000E+03 0.  0.
        998    1    1    2    0    0 -0.29207501227E+02  0.10366924885E+02  0.56112102699E+03  0.56206526150E+03  0.10000000000E+02 0. -1.
</event>
<event>
 5    1  0.1252945E-008  0.3839826E+03  0.7957747E-01  0.3433999E+00
         13   -1    0    0    0    0  0.00000000000E+00  0.00000000000E+00  0.14999999963E+04  0.15000000000E+04  0.10566000000E+00 0. -1.
        994   -1    0    0    0    0 -0.00000000000E+00 -0.00000000000E+00  0.11368683772E-12  0.17120000000E+03  0.17120000000E+03 0.  0.
         13    1    1    2    0    0  0.36296532614E+01 -0.93259322679E+01  0.22408125344E+02  0.24541447409E+02  0.10566000000E+00 0. -1.
        994    1    1    2    0    0 -0.82228242735E+01  0.92163162987E+01  0.26396375086E+01  0.17166526443E+03  0.17120000000E+03 0.  0.
        998    1    1    2    0    0  0.45931710121E+01  0.10961596921E+00  0.14749522334E+04  0.14749932882E+04  0.10000000000E+02 0. -1.
</event>
<event>
 5    1  0.1252945E-008  0.3886485E+03  0.7957747E-01  0.3414344E+00
         13   -1    0    0    0    0  0.00000000000E+00  0.00000000000E+00  0.14999999963E+04  0.15000000000E+04  0.10566000000E+00 0. -1.
        994   -1    0    0    0    0 -0.00000000000E+00 -0.00000000000E+00  0.11368683772E-12  0.17120000000E+03  0.17120000000E+03 0.  0.
         13    1    1    2    0    0  0.15242391567E+02  0.14201776976E+02  0.76598058651E+00  0.20847514486E+02  0.10566000000E+00 0. -1.
        994    1    1    2    0    0 -0.18569701520E+02 -0.18728811382E+02  0.23768909592E+02  0.17484279583E+03  0.17120000000E+03 0.  0.
        998    1    1    2    0    0  0.33273099527E+01  0.45270344065E+01  0.14754651061E+04  0.14755096897E+04  0.10000000000E+02 0. -1.
</event>
<event>
 5    1  0.1252945E-008  0.3857522E+03  0.7957747E-01  0.3426488E+00
         13   -1    0    0    0    0  0.00000000000E+00  0.00000000000E+00  0.14999999963E+04  0.15000000000E+04  0.10566000000E+00 0. -1.
        994   -1    0    0    0    0 -0.00000000000E+00 -0.00000000000E+00  0.11368683772E-12  0.17120000000E+03  0.17120000000E+03 0.  0.
         13    1    1    2    0    0 -0.36411869877E+01 -0.10141411257E+02  0.46526313380E+02  0.47757883807E+02  0.10566000000E+00 0. -1.
        994    1    1    2    0    0  0.50903218668E+01  0.58943938679E+01  0.14561773630E+01  0.17138324220E+03  0.17120000000E+03 0.  0.
        998    1    1    2    0    0 -0.14491348790E+01  0.42470173888E+01  0.14520175055E+04  0.14520588740E+04  0.10000000000E+02 0. -1.
</event>
<event>
 5    1  0.1252945E-008  0.3825464E+03  0.7957747E-01  0.3440145E+00
         13   -1    0    0    0    0  0.00000000000E+00  0.00000000000E+00  0.14999999963E+04  0.15000000000E+04  0.10566000000E+00 0.  1.
        994   -1    0    0    0    0 -0.00000000000E+00 -0.00000000000E+00  0.11368683772E-12  0.17120000000E+03  0.17120000000E+03 0.  0.
         13    1    1    2    0    0  0.60217596255E+01  0.90961252867E+01  0.19941244203E+02  0.22730276475E+02  0.10566000000E+00 0.  1.
        994    1    1    2    0    0 -0.18729575844E+01 -0.42262506067E+01  0.29240903640E+01  0.17128735934E+03  0.17120000000E+03 0.  0.
        998    1    1    2    0    0 -0.41488020411E+01 -0.48698746800E+01  0.14771346617E+04  0.14771823642E+04  0.10000000000E+02 0.  1.
</event>
<event>
 5    1  0.1252945E-008  0.3798624E+03  0.7957747E-01  0.3451758E+00
         13   -1    0    0    0    0  0.00000000000E+00  0.00000000000E+00  0.14999999963E+04  0.15000000000E+04  0.10566000000E+00 0. -1.
        994   -1    0    0    0    0 -0.00000000000E+00 -0.00000000000E+00  0.11368683772E-12  0.17120000000E+03  0.17120000000E+03 0.  0.
         13    1    1    2    0    0 -0.17923072488E+02  0.14291306218E+01  0.35994561402E+02  0.40235538474E+02  0.10566000000E+00 0. -1.
        994    1    1    2    0    0  0.18854486126E+02 -0.33657695493E+01  0.54303948555E+01  0.17235355883E+03  0.17120000000E+03 0.  0.
        998    1    1    2    0    0 -0.93141363752E+00  0.19366389275E+01  0.14585750400E+04  0.14586109027E+04  0.10000000000E+02 0. -1.
</event>
<event>
 5    1  0.1252945E-008  0.3860987E+03  0.7957747E-01  0.3425026E+00
         13   -1    0    0    0    0  0.00000000000E+00  0.00000000000E+00  0.14999999963E+04  0.15000000000E+04  0.10566000000E+00 0. -1.
        994   -1    0    0    0    0 -0.00000000000E+00 -0.00000000000E+00  0.11368683772E-12  0.17120000000E+03  0.17120000000E+03 0.  0.
         13    1    1    2    0    0 -0.10087183802E+02  0.99600057388E+01  0.79848910044E+02  0.81097549844E+02  0.10566000000E+00 0. -1.
        994    1    1    2    0    0  0.20654401491E+02 -0.19808826567E+02  0.37740614111E+01  0.17361646653E+03  0.17120000000E+03 0.  0.
        998    1    1    2    0    0 -0.10567217689E+02  0.98488208285E+01  0.14163770248E+04  0.14164859836E+04  0.10000000000E+02 0. -1.
</event>
<event>
 5    1  0.1252945E-008  0.3826199E+03  0.7957747E-01  0.3439829E+00
         13   -1    0    0    0    0  0.00000000000E+00  0.00000000000E+00  0.14999999963E+04  0.15000000000E+04  0.10566000000E+00 0.  1.
        994   -1    0    0    0    0 -0.00000000000E+00 -0.00000000000E+00  0.11368683772E-12  0.17120000000E+03  0.17120000000E+03 0.  0.
         13    1    1    2    0    0 -0.11152011488E+02  0.32556988718E+01  0.22657712776E+02  0.25462718780E+02  0.10566000000E+00 0.  1.
        994    1    1    2    0    0  0.11969036718E+02 -0.37587575415E+00  0.32918238108E+01  0.17164986230E+03  0.17120000000E+03 0.  0.
        998    1    1    2    0    0 -0.81702523064E+00 -0.28798231176E+01  0.14740504597E+04  0.14740874189E+04  0.10000000000E+02 0.  1.
</event>
<event>
 5    1  0.1252945E-008  0.3835616E+03  0.7957747E-01  0.3435795E+00
         13   -1    0    0    0    0  0.00000000000E+00  0.00000000000E+00  0.14999999963E+04  0.15000000000E+04  0.10566000000E+00 0. -1.
        994   -1    0    0    0    0 -0.00000000000E+00 -0.00000000000E+00  0.11368683772E-12  0.17120000000E+03  0.17120000000E+03 0.  0.
         13    1    1    2    0    0 -0.15463142693E+02  0.75117645205E+01  0.66665338524E+02  0.68846306457E+02  0.10566000000E+00 0. -1.
        994    1    1    2    0    0 -0.48654975873E+01 -0.81692801860E+01  0.26447172888E+01  0.17148424049E+03  0.17120000000E+03 0.  0.
        998    1    1    2    0    0  0.20328640281E+02  0.65751566545E+00  0.14306899405E+04  0.14308694531E+04  0.10000000000E+02 0. -1.
</event>
<event>
 5    1  0.1252945E-008  0.3799443E+03  0.7957747E-01  0.3451401E+00
         13   -1    0    0    0    0  0.00000000000E+00  0.00000000000E+00  0.14999999963E+04  0.15000000000E+04  0.10566000000E+00 0.  1.
        994   -1    0    0    0    0 -0.00000000000E+00 -0.00000000000E+00  0.11368683772E-12  0.17120000000E+03  0.17120000000E+03 0.  0.
         13    1    1    2    0    0 -0.35862530728E+01 -0.26592593071E+02  0.82489269277E+02  0.86743979199E+02  0.10566000000E+00 0.  1.
        994    1    1    2    0    0  0.23073373774E+02  0.20515418737E+02  0.73550970710E+01  0.17411720316E+03  0.17120000000E+03 0.  0.
        998    1    1    2    0    0 -0.19487120701E+02  0.60771743334E+01  0.14101556299E+04  0.14103388176E+04  0.10000000000E+02 0.  1.
</event>
<event>
 5    1  0.1252945E-008  0.3816758E+03  0.7957747E-01  0.3443894E+00
         13   -1    0    0    0    0  0.00000000000E+00  0.00000000000E+00  0.14999999963E+04  0.15000000000E+04  0.10566000000E+00 0.  1.
        994   -1    0    0    0    0 -0.00000000000E+00 -0.00000000000E+00  0.11368683772E-12  0.17120000000E+03  0.17120000000E+03 0.  0.
         13    1    1    2    0    0  0.10291689896E+01  0.18402024646E+02  0.53727943213E+02  0.56801379788E+02  0.10566000000E+00 0.  1.
        994    1    1    2    0    0 -0.28306987673E+01  0.26774569105E+01  0.33400731028E+01  0.17127690364E+03  0.17120000000E+03 0.  0.
        998    1    1    2    0    0  0.18015297777E+01 -0.21079481556E+02  0.14429319800E+04  0.14431217166E+04  0.10000000000E+02 0.  1.
</event>
<event>
 5    1  0.1252945E-008  0.3846698E+03  0.7957747E-01  0.3431074E+00
         13   -1    0    0    0    0  0.00000000000E+00  0.00000000000E+00  0.14999999963E+04  0.15000000000E+04  0.10566000000E+00 0. -1.
        994   -1    0    0    0    0 -0.00000000000E+00 -0.00000000000E+00  0.11368683772E-12  0.17120000000E+03  0.17120000000E+03 0.  0.
         13    1    1    2    0    0  0.20585698765E+01 -0.21948360184E+02  0.12706040129E+03  0.12895861726E+03  0.10566000000E+00 0. -1.
        994    1    1    2    0    0 -0.65433726931E+02  0.22507041236E+02  0.17719757652E+02  0.18550355613E+03  0.17120000000E+03 0.  0.
        998    1    1    2    0    0  0.63375157055E+02 -0.55868105251E+00  0.13552198373E+04  0.13567378266E+04  0.10000000000E+02 0. -1.
</event>
<event>
 5    1  0.1252945E-008  0.3821584E+03  0.7957747E-01  0.3441814E+00
         13   -1    0    0    0    0  0.00000000000E+00  0.00000000000E+00  0.14999999963E+04  0.15000000000E+04  0.10566000000E+00 0. -1.
        994   -1    0    0    0    0 -0.00000000000E+00 -0.00000000000E+00  0.11368683772E-12  0.17120000000E+03  0.17120000000E+03 0.  0.
         13    1    1    2    0    0  0.70525399543E+01  0.93081112995E+01  0.21884081040E+02  0.24805310375E+02  0.10566000000E+00 0. -1.
        994    1    1    2    0    0  0.22901357031E+00  0.28513548494E+01  0.30747110840E+01  0.17125150078E+03  0.17120000000E+03 0.  0.
        998    1    1    2    0    0 -0.72815535246E+01 -0.12159466149E+02  0.14750412042E+04  0.14751431888E+04  0.10000000000E+02 0. -1.
</event>
<event>
 5    1  0.1252945E-008  0.3858405E+03  0.7957747E-01  0.3426115E+00
         13   -1    0    0    0    0  0.00000000000E+00  0.00000000000E+00  0.14999999963E+04  0.15000000000E+04  0.10566000000E+00 0.  1.
        994   -1    0    0    0    0 -0.00000000000E+00 -0.00000000000E+00  0.11368683772E-12  0.17120000000E+03  0.17120000000E+03 0.  0.
         13    1    1    2    0    0 -0.11806816354E+01 -0.10278786671E+02  0.45717161562E+02  0.46873419865E+02  0.10566000000E+00 0.  1.
        994    1    1    2    0    0  0.59472700296E+01  0.19639574598E+01  0.13420603449E+01  0.17131978367E+03  0.17120000000E+03 0.  0.
        998    1    1    2    0    0 -0.47665883942E+01  0.83148292109E+01  0.14529407744E+04  0.14530067965E+04  0.10000000000E+02 0.  1.
</event>
<event>
 5    1  0.1252945E-008  0.3833614E+03  0.7957747E-01  0.3436652E+00
         13   -1    0    0    0    0  0.00000000000E+00  0.00000000000E+00  0.14999999963E+04  0.15000000000E+04  0.10566000000E+00 0.  1.
        994   -1    0    0    0    0 -0.00000000000E+00 -0.00000000000E+00  0.11368683772E-12  0.17120000000E+03  0.17120000000E+03 0.  0.
         13    1    1    2    0    0 -0.18749543791E+02  0.47647955329E+01  0.81434374525E+02  0.83700759776E+02  0.10566000000E+00 0.  1.
        994    1    1    2    0    0  0.86583497960E+00  0.17838711626E+01  0.24588856569E+01  0.17122913883E+03  0.17120000000E+03 0.  0.
        998    1    1    2    0    0  0.17883708812E+02 -0.65486666955E+01  0.14161067361E+04  0.14162701014E+04  0.10000000000E+02 0.  1.
</event>
<event>
 5    1  0.1252945E-008  0.3685618E+03  0.7957747E-01  0.3502527E+00
         13   -1    0    0    0    0  0.00000000000E+00  0.00000000000E+00  0.14999999963E+04  0.15000000000E+04  0.10566000000E+00 0. -1.
        994   -1    0    0    0    0 -0.00000000000E+00 -0.00000000000E+00  0.11368683772E-12  0.17120000000E+03  0.17120000000E+03 0.  0.
         13    1    1    2    0    0  0.44804170878E+01 -0.10651184002E+02  0.19798919794E+01  0.11724034894E+02  0.10566000000E+00 0. -1.
        994    1    1    2    0    0 -0.97470632177E+00  0.12160103260E+02  0.10540059556E+02  0.17195741048E+03  0.17120000000E+03 0.  0.
        998    1    1    2    0    0 -0.35057107660E+01 -0.15089192578E+01  0.14874800447E+04  0.14875185546E+04  0.10000000000E+02 0. -1.
</event>
<event>
 5    1  0.1252945E-008  0.3824782E+03  0.7957747E-01  0.3440438E+00
         13   -1    0    0    0    0  0.00000000000E+00  0.00000000000E+00  0.14999999963E+04  0.15000000000E+04  0.10566000000E+00 0. -1.
        994   -1    0    0    0    0 -0.00000000000E+00 -0.00000000000E+00  0.11368683772E-12  0.17120000000E+03  0.17120000000E+03 0.  0.
         13    1    1    2    0    0 -0.25071851673E+02 -0.62812221759E+01  0.12963394083E+03  0.13218555624E+03  0.10566000000E+00 0. -1.
        994    1    1    2    0    0  0.22467039296E+01 -0.14397963720E+02  0.35917643339E+01  0.17185659664E+03  0.17120000000E+03 0.  0.
        998    1    1    2    0    0  0.22825147743E+02  0.20679185896E+02  0.13667742911E+04  0.13671578471E+04  0.10000000000E+02 0. -1.
</event>
<event>
 5    1  0.1252945E-008  0.3731348E+03  0.7957747E-01  0.3481607E+00
         13   -1    0    0    0    0  0.00000000000E+00  0.00000000000E+00  0.14999999963E+04  0.15000000000E+04  0.10566000000E+00 0.  1.
        994   -1    0    0    0    0 -0.00000000000E+00 -0.00000000000E+00  0.11368683772E-12  0.17120000000E+03  0.17120000000E+03 0.  0.
         13    1    1    2    0    0 -0.62497593749E+02 -0.60449122755E+02  0.40878374951E+03  0.41792847558E+03  0.10566000000E+00 0.  1.
        994    1    1    2    0    0  0.59121591253E+02  0.42462022595E+02  0.25986939885E+02  0.18783808708E+03  0.17120000000E+03 0.  0.
        998    1    1    2    0    0  0.33760024961E+01  0.17987100161E+02  0.10652293069E+04  0.10654334373E+04  0.10000000000E+02 0.  1.
</event>
<event>
 5    1  0.1252945E-008  0.3828349E+03  0.7957747E-01  0.3438907E+00
         13   -1    0    0    0    0  0.00000000000E+00  0.00000000000E+00  0.14999999963E+04  0.15000000000E+04  0.10566000000E+00 0. -1.
        994   -1    0    0    0    0 -0.00000000000E+00 -0.00000000000E+00  0.11368683772E-12  0.17120000000E+03  0.17120000000E+03 0.  0.
         13    1    1    2    0    0  0.28033876226E+02  0.17393464912E+02  0.19625350328E+03  0.19900723492E+03  0.10566000000E+00 0. -1.
        994    1    1    2    0    0 -0.13488775221E+02 -0.19234279894E+02  0.45388825987E+01  0.17286395239E+03  0.17120000000E+03 0.  0.
        998    1    1    2    0    0 -0.14545101004E+02  0.18408149818E+01  0.12992076104E+04  0.12993288127E+04  0.10000000000E+02 0. -1.
</event>
<event>
 5    1  0.1252945E-008  0.3801977E+03  0.7957747E-01  0.3450298E+00
         13   -1    0    0    0    0  0.00000000000E+00  0.00000000000E+00  0.14999999963E+04  0.15000000000E+04  0.10566000000E+00 0.  1.
        994   -1    0    0    0    0 -0.00000000000E+00 -0.00000000000E+00  0.11368683772E-12  0.17120000000E+03  0.17120000000E+03 0.  0.
         13    1    1    2    0    0  0.22438334072E+02 -0.26676588659E+02  0.15688433876E+03  0.16071037966E+03  0.10566000000E+00 0.  1.
        994    1    1    2    0    0 -0.12503458859E+02  0.64215098522E+01  0.46936800910E+01  0.17184016674E+03  0.17120000000E+03 0.  0.
        998    1    1    2    0    0 -0.99348752130E+01  0.20255078806E+02  0.13384219774E+04  0.13386494536E+04  0.10000000000E+02 0.  1.
</event>
<event>
 5    1  0.1252945E-008  0.3758979E+03  0.7957747E-01  0.3469217E+00
         13   -1    0    0    0    0  0.00000000000E+00  0.00000000000E+00  0.14999999963E+04  0.15000000000E+04  0.10566000000E+00 0. -1.
        994   -1    0    0    0    0 -0.00000000000E+00 -0.00000000000E+00  0.11368683772E-12  0.17120000000E+03  0.17120000000E+03 0.  0.
         13    1    1    2    0    0  0.43574542153E+02 -0.20262074642E+02  0.20994934587E+03  0.21537880905E+03  0.10566000000E+00 0. -1.
        994    1    1    2    0    0 -0.70565289825E+01  0.15775027304E+01  0.63955891131E+01  0.17147194137E+03  0.17120000000E+03 0.  0.
        998    1    1    2    0    0 -0.36518013171E+02  0.18684571911E+02  0.12836550613E+04  0.12843492496E+04  0.10000000000E+02 0. -1.
</event>
<event>
 5    1  0.1252945E-008  0.3772537E+03  0.7957747E-01  0.3463204E+00
         13   -1    0    0    0    0  0.00000000000E+00  0.00000000000E+00  0.14999999963E+04  0.15000000000E+04  0.10566000000E+00 0.  1.
        994   -1    0    0    0    0 -0.00000000000E+00 -0.00000000000E+00  0.11368683772E-12  0.17120000000E+03  0.17120000000E+03 0.  0.
         13    1    1    2    0    0 -0.41149715052E+01 -0.16147982469E+02  0.23045684718E+02  0.28439498527E+02  0.10566000000E+00 0.  1.
        994    1    1    2    0    0  0.22547240120E+01  0.71762844878E+01  0.57168304264E+01  0.17146050563E+03  0.17120000000E+03 0.  0.
        998    1    1    2    0    0  0.18602474932E+01  0.89716979810E+01  0.14712374811E+04  0.14712999958E+04  0.10000000000E+02 0.  1.
</event>
<event>
 5    1  0.1252945E-008  0.3872395E+03  0.7957747E-01  0.3420229E+00
         13   -1    0    0    0    0  0.00000000000E+00  0.00000000000E+00  0.14999999963E+04  0.15000000000E+04  0.10566000000E+00 0. -1.
        994   -1    0    0    0    0 -0.00000000000E+00 -0.00000000000E+00  0.11368683772E-12  0.17120000000E+03  0.17120000000E+03 0.  0.
         13    1    1    2    0    0 -0.48615554470E+02  0.83475096812E+02  0.20976507016E+03  0.23093929884E+03  0.10566000000E+00 0. -1.
        994    1    1    2    0    0  0.45777794031E+02 -0.61167931231E+02  0.42433300464E+02  0.19221640728E+03  0.17120000000E+03 0.  0.
        998    1    1    2    0    0  0.28377604392E+01 -0.22307165580E+02  0.12478016257E+04  0.12480442939E+04  0.10000000000E+02 0. -1.
</event>
<event>
 5    1  0.1252945E-008  0.3792383E+03  0.7957747E-01  0.3454482E+00
         13   -1    0    0    0    0  0.00000000000E+00  0.00000000000E+00  0.14999999963E+04  0.15000000000E+04  0.10566000000E+00 0. -1.
        994   -1    0    0    0    0 -0.00000000000E+00 -0.00000000000E+00  0.11368683772E-12  0.17120000000E+03  0.17120000000E+03 0.  0.
         13    1    1    2    0    0  0.15230886133E+02  0.84954028515E+01  0.31643535631E+02  0.36131375192E+02  0.10566000000E+00 0. -1.
        994    1    1    2    0    0 -0.12973636002E+02 -0.55117633168E+01  0.51843248405E+01  0.17185753399E+03  0.17120000000E+03 0.  0.
        998    1    1    2    0    0 -0.22572501305E+01 -0.29836395347E+01  0.14631721358E+04  0.14632110908E+04  0.10000000000E+02 0. -1.
</event>
<event>
 5    1  0.1252945E-008  0.3848008E+03  0.7957747E-01  0.3430518E+00
         13   -1    0    0    0    0  0.00000000000E+00  0.00000000000E+00  0.14999999963E+04  0.15000000000E+04  0.10566000000E+00 0. -1.
        994   -1    0    0    0    0 -0.00000000000E+00 -0.00000000000E+00  0.11368683772E-12  0.17120000000E+03  0.17120000000E+03 0.  0.
         13    1    1    2    0    0 -0.66816296074E+01  0.19800035652E+02  0.11460701644E+03  0.11649663072E+03  0.10566000000E+00 0. -1.
        994    1    1    2    0    0  0.15884627332E+02 -0.21192508136E+02  0.40407801088E+01  0.17328361634E+03  0.17120000000E+03 0.  0.
        998    1    1    2    0    0 -0.92029977245E+01  0.13924724832E+01  0.13813521997E+04  0.13814197529E+04  0.10000000000E+02 0. -1.
</event>
<event>
 5    1  0.1252945E-008  0.3784034E+03  0.7957747E-01  0.3458140E+00
         13   -1    0    0    0    0  0.00000000000E+00  0.00000000000E+00  0.14999999963E+04  0.15000000000E+04  0.10566000000E+00 0. -1.
        994   -1    0    0    0    0 -0.00000000000E+00 -0.00000000000E+00  0.11368683772E-12  0.17120000000E+03  0.17120000000E+03 0.  0.
         13    1    1    2    0    0  0.11853939702E+02  0.87729202442E+00  0.11098405129E+02  0.16262573234E+02  0.10566000000E+00 0. -1.
        994    1    1    2    0    0 -0.44664827814E+02 -0.44702278228E+01  0.11742776758E+02  0.17737604851E+03  0.17120000000E+03 0.  0.
        998    1    1    2    0    0  0.32810888113E+02  0.35929357984E+01  0.14771588144E+04  0.14775613783E+04  0.10000000000E+02 0. -1.
</event>
<event>
 5    1  0.1252945E-008  0.4035360E+03  0.7957747E-01  0.3354672E+00
         13   -1    0    0    0    0  0.00000000000E+00  0.00000000000E+00  0.14999999963E+04  0.15000000000E+04  0.10566000000E+00 0.  1.
        994   -1    0    0    0    0 -0.00000000000E+00 -0.00000000000E+00  0.11368683772E-12  0.17120000000E+03  0.17120000000E+03 0.  0.
         13    1    1    2    0    0  0.48429268088E+02  0.13254680771E+03  0.29753869936E+03  0.32930736254E+03  0.10566000000E+00 0.  1.
        994    1    1    2    0    0  0.18707484343E+02 -0.12256998763E+03  0.94052599430E+02  0.23136270939E+03  0.17120000000E+03 0.  0.
        998    1    1    2    0    0 -0.67136752431E+02 -0.99768200831E+01  0.11084086975E+04  0.11105299281E+04  0.10000000000E+02 0.  1.
</event>
<event>
 5    1  0.1252945E-008  0.3851346E+03  0.7957747E-01  0.3429102E+00
         13   -1    0    0    0    0  0.00000000000E+00  0.00000000000E+00  0.14999999963E+04  0.15000000000E+04  0.10566000000E+00 0.  1.
        994   -1    0    0    0    0 -0.00000000000E+00 -0.00000000000E+00  0.11368683772E-12  0.17120000000E+03  0.17120000000E+03 0.  0.
         13    1    1    2    0    0  0.14371685232E+02  0.68564106420E+01  0.78823628807E+02  0.80415989241E+02  0.10566000000E+00 0.  1.
        994    1    1    2    0    0 -0.15982110118E+02 -0.58614226609E+00  0.24045529179E+01  0.17196218561E+03  0.17120000000E+03 0.  0.
        998    1    1    2    0    0  0.16104248869E+01 -0.62702683759E+01  0.14187718146E+04  0.14188218251E+04  0.10000000000E+02 0.  1.
</event>
<event>
 5    1  0.1252945E-008  0.3774675E+03  0.7957747E-01  0.3462260E+00
         13   -1    0    0    0    0  0.00000000000E+00  0.00000000000E+00  0.14999999963E+04  0.15000000000E+04  0.10566000000E+00 0.  1.
        994   -1    0    0    0    0 -0.00000000000E+00 -0.00000000000E+00  0.11368683772E-12  0.17120000000E+03  0.17120000000E+03 0.  0.
         13    1    1    2    0    0  0.60291819022E+02  0.55497595050E+01  0.27183476470E+03  0.27849605694E+03  0.10566000000E+00 0.  1.
        994    1    1    2    0    0 -0.62652542201E+02 -0.43546471041E+01  0.18831369876E+02  0.18332584239E+03  0.17120000000E+03 0.  0.
        998    1    1    2    0    0  0.23607231788E+01 -0.11951124008E+01  0.12093338617E+04  0.12093781007E+04  0.10000000000E+02 0.  1.
</event>
<event>
 5    1  0.1252945E-008  0.3787509E+03  0.7957747E-01  0.3456615E+00
         13   -1    0    0    0    0  0.00000000000E+00  0.00000000000E+00  0.14999999963E+04  0.15000000000E+04  0.10566000000E+00 0. -1.
        994   -1    0    0    0    0 -0.00000000000E+00 -0.00000000000E+00  0.11368683772E-12  0.17120000000E+03  0.17120000000E+03 0.  0.
         13    1    1    2    0    0 -0.80884679701E+01  0.29093938775E+02  0.96965995044E+02  0.10155932230E+03  0.10566000000E+00 0. -1.
        994    1    1    2    0    0 -0.17200400393E+02 -0.17511171069E+02  0.67900691668E+01  0.17308391007E+03  0.17120000000E+03 0.  0.
        998    1    1    2    0    0  0.25288868363E+02 -0.11582767706E+02  0.13962439321E+04  0.13965567676E+04  0.10000000000E+02 0. -1.
</event>
<event>
 5    1  0.1252945E-008  0.3828158E+03  0.7957747E-01  0.3438989E+00
         13   -1    0    0    0    0  0.00000000000E+00  0.00000000000E+00  0.14999999963E+04  0.15000000000E+04  0.10566000000E+00 0. -1.
        994   -1    0    0    0    0 -0.00000000000E+00 -0.00000000000E+00  0.11368683772E-12  0.17120000000E+03  0.17120000000E+03 0.  0.
         13    1    1    2    0    0  0.13321692594E+01  0.45185515485E+02  0.49041664633E+02  0.66697837435E+02  0.10566000000E+00 0. -1.
        994    1    1    2    0    0 -0.18454694443E+01 -0.44275952680E+02  0.25107366355E+02  0.17861574843E+03  0.17120000000E+03 0.  0.
        998    1    1    2    0    0  0.51330018489E+00 -0.90956280561E+00  0.14258509653E+04  0.14258864141E+04  0.10000000000E+02 0. -1.
</event>
<event>
 5    1  0.1252945E-008  0.3793379E+03  0.7957747E-01  0.3454047E+00
         13   -1    0    0    0    0  0.00000000000E+00  0.00000000000E+00  0.14999999963E+04  0.15000000000E+04  0.10566000000E+00 0.  1.
        994   -1    0    0    0    0 -0.00000000000E+00 -0.00000000000E+00  0.11368683772E-12  0.17120000000E+03  0.17120000000E+03 0.  0.
         13    1    1    2    0    0  0.19685104956E+02  0.29102724908E+01  0.41635952540E+02  0.46146904024E+02  0.10566000000E+00 0.  1.
        994    1    1    2    0    0 -0.17572227119E+02 -0.17200624950E+02  0.64960846564E+01  0.17307883689E+03  0.17120000000E+03 0.  0.
        998    1    1    2    0    0 -0.21128778378E+01  0.14290352459E+02  0.14518679591E+04  0.14519742591E+04  0.10000000000E+02 0.  1.
</event>
<event>
 5    1  0.1252945E-008  0.3826532E+03  0.7957747E-01  0.3439686E+00
         13   -1    0    0    0    0  0.00000000000E+00  0.00000000000E+00  0.14999999963E+04  0.15000000000E+04  0.10566000000E+00 0. -1.
        994   -1    0    0    0    0 -0.00000000000E+00 -0.00000000000E+00  0.11368683772E-12  0.17120000000E+03  0.17120000000E+03 0.  0.
         13    1    1    2    0    0  0.19356276128E+02 -0.13413263683E+02  0.96961738095E+02  0.99780613781E+02  0.10566000000E+00 0. -1.
        994    1    1    2    0    0 -0.19432796134E+02  0.14374395932E+01  0.40590418187E+01  0.17235317119E+03  0.17120000000E+03 0.  0.
        998    1    1    2    0    0  0.76520005152E-01  0.11975824090E+02  0.13989792164E+04  0.13990662150E+04  0.10000000000E+02 0. -1.
</event>
<event>
 5    1  0.1252945E-008  0.3766406E+03  0.7957747E-01  0.3465918E+00
         13   -1    0    0    0    0  0.00000000000E+00  0.00000000000E+00  0.14999999963E+04  0.15000000000E+04  0.10566000000E+00 0. -1.
        994   -1    0    0    0    0 -0.00000000000E+00 -0.00000000000E+00  0.11368683772E-12  0.17120000000E+03  0.17120000000E+03 0.  0.
         13    1    1    2    0    0  0.62780492622E+01 -0.49722376006E+02  0.19297615161E+03  0.19937786946E+03  0.10566000000E+00 0. -1.
        994    1    1    2    0    0  0.73512900694E+01  0.46664971783E+02  0.13420248167E+02  0.17810447529E+03  0.17120000000E+03 0.  0.
        998    1    1    2    0    0 -0.13629339332E+02  0.30574042237E+01  0.12936035965E+04  0.12937176552E+04  0.10000000000E+02 0.  0.
</event>
<event>
 5    1  0.1252945E-008  0.3744606E+03  0.7957747E-01  0.3475638E+00
         13   -1    0    0    0    0  0.00000000000E+00  0.00000000000E+00  0.14999999963E+04  0.15000000000E+04  0.10566000000E+00 0.  1.
        994   -1    0    0    0    0 -0.00000000000E+00 -0.00000000000E+00  0.11368683772E-12  0.17120000000E+03  0.17120000000E+03 0.  0.
         13    1    1    2    0    0  0.32324045329E+01 -0.13408078268E+02  0.10448351971E+02  0.17303300981E+02  0.10566000000E+00 0.  1.
        994    1    1    2    0    0 -0.28349936276E+01  0.14312846548E+02  0.76812732819E+01  0.17199225775E+03  0.17120000000E+03 0.  0.
        998    1    1    2    0    0 -0.39741090529E+00 -0.90476828031E+00  0.14818703710E+04  0.14819044413E+04  0.10000000000E+02 0.  1.
</event>
<event>
 5    1  0.1252945E-008  0.3861242E+03  0.7957747E-01  0.3424918E+00
         13   -1    0    0    0    0  0.00000000000E+00  0.00000000000E+00  0.14999999963E+04  0.15000000000E+04  0.10566000000E+00 0. -1.
        994   -1    0    0    0    0 -0.00000000000E+00 -0.00000000000E+00  0.11368683772E-12  0.17120000000E+03  0.17120000000E+03 0.  0.
         13    1    1    2    0    0  0.42417918407E+01 -0.10739276160E+02  0.66924249328E+02  0.67913114805E+02  0.10566000000E+00 0. -1.
        994    1    1    2    0    0  0.32494098587E+01  0.13929677697E+01  0.11139963679E+01  0.17124012384E+03  0.17120000000E+03 0.  0.
        998    1    1    2    0    0 -0.74912016993E+01  0.93463083902E+01  0.14319617506E+04  0.14320467614E+04  0.10000000000E+02 0. -1.
</event>
<event>
 5    1  0.1252945E-008  0.3823396E+03  0.7957747E-01  0.3441034E+00
         13   -1    0    0    0    0  0.00000000000E+00  0.00000000000E+00  0.14999999963E+04  0.15000000000E+04  0.10566000000E+00 0.  1.
        994   -1    0    0    0    0 -0.00000000000E+00 -0.00000000000E+00  0.11368683772E-12  0.17120000000E+03  0.17120000000E+03 0.  0.
         13    1    1    2    0    0  0.22959944490E+02  0.13368630904E+01  0.84135189085E+02  0.87222058336E+02  0.10566000000E+00 0.  1.
        994    1    1    2    0    0 -0.23855224668E+02  0.17039540834E+01  0.48564850588E+01  0.17293062381E+03  0.17120000000E+03 0.  0.
        998    1    1    2    0    0  0.89528017752E+00 -0.30408171738E+01  0.14110083221E+04  0.14110473179E+04  0.10000000000E+02 0.  1.
</event>
<event>
 5    1  0.1252945E-008  0.3820248E+03  0.7957747E-01  0.3442389E+00
         13   -1    0    0    0    0  0.00000000000E+00  0.00000000000E+00  0.14999999963E+04  0.15000000000E+04  0.10566000000E+00 0. -1.
        994   -1    0    0    0    0 -0.00000000000E+00 -0.00000000000E+00  0.11368683772E-12  0.17120000000E+03  0.17120000000E+03 0.  0.
         13    1    1    2    0    0  0.22111755633E+02  0.21242086137E+01  0.75063640508E+02  0.78281564176E+02  0.10566000000E+00 0. -1.
        994    1    1    2    0    0 -0.22493168878E+02  0.24331732434E+01  0.48160926223E+01  0.17275560114E+03  0.17120000000E+03 0.  0.
        998    1    1    2    0    0  0.38141324432E+00 -0.45573818571E+01  0.14201202631E+04  0.14201628347E+04  0.10000000000E+02 0. -1.
</event>
<event>
 5    1  0.1252945E-008  0.3813175E+03  0.7957747E-01  0.3445442E+00
         13   -1    0    0    0    0  0.00000000000E+00  0.00000000000E+00  0.14999999963E+04  0.15000000000E+04  0.10566000000E+00 0. -1.
        994   -1    0    0    0    0 -0.00000000000E+00 -0.00000000000E+00  0.11368683772E-12  0.17120000000E+03  0.17120000000E+03 0.  0.
         13    1    1    2    0    0 -0.33760791986E+02 -0.10515812108E+02  0.17762082993E+03  0.18110644320E+03  0.10566000000E+00 0. -1.
        994    1    1    2    0    0  0.15659022949E+02  0.24359573633E+02  0.62657839975E+01  0.17374491036E+03  0.17120000000E+03 0.  0.
        998    1    1    2    0    0  0.18101769037E+02 -0.13843761525E+02  0.13161133824E+04  0.13163486464E+04  0.10000000000E+02 0. -1.
</event>
<event>
 5    1  0.1252945E-008  0.3859264E+03  0.7957747E-01  0.3425753E+00
         13   -1    0    0    0    0  0.00000000000E+00  0.00000000000E+00  0.14999999963E+04  0.15000000000E+04  0.10566000000E+00 0.  1.
        994   -1    0    0    0    0 -0.00000000000E+00 -0.00000000000E+00  0.11368683772E-12  0.17120000000E+03  0.17120000000E+03 0.  0.
         13    1    1    2    0    0  0.46432230235E+01  0.95456580007E+01  0.49622814904E+02  0.50745581382E+02  0.10566000000E+00 0.  1.
        994    1    1    2    0    0  0.65713975457E+01 -0.77811198163E+01  0.15110833362E+01  0.17150933638E+03  0.17120000000E+03 0.  0.
        998    1    1    2    0    0 -0.11214620569E+02 -0.17645381845E+01  0.14488660980E+04  0.14489450822E+04  0.10000000000E+02 0.  1.
</event>
<event>
 5    1  0.1252945E-008  0.3977974E+03  0.7957747E-01  0.3377146E+00
         13   -1    0    0    0    0  0.00000000000E+00  0.00000000000E+00  0.14999999963E+04  0.15000000000E+04  0.10566000000E+00 0. -1.
        994   -1    0    0    0    0 -0.00000000000E+00 -0.00000000000E+00  0.11368683772E-12  0.17120000000E+03  0.17120000000E+03 0.  0.
         13    1    1    2    0    0 -0.48495377771E+02  0.64647347085E+02  0.10791309637E+03  0.13481961535E+03  0.10566000000E+00 0. -1.
        994    1    1    2    0    0  0.51267982396E+02 -0.59975519993E+02  0.51052764524E+02  0.19529796154E+03  0.17120000000E+03 0.  0.
        998    1    1    2    0    0 -0.27726046247E+01 -0.46718270924E+01  0.13410341354E+04  0.13410824231E+04  0.10000000000E+02 0. -1.
</event>
<event>
 5    1  0.1252945E-008  0.3771881E+03  0.7957747E-01  0.3463494E+00
         13   -1    0    0    0    0  0.00000000000E+00  0.00000000000E+00  0.14999999963E+04  0.15000000000E+04  0.10566000000E+00 0.  1.
        994   -1    0    0    0    0 -0.00000000000E+00 -0.00000000000E+00  0.11368683772E-12  0.17120000000E+03  0.17120000000E+03 0.  0.
         13    1    1    2    0    0 -0.18015082653E+02 -0.80165520371E+01  0.32168795803E+02  0.37731298639E+02  0.10566000000E+00 0.  1.
        994    1    1    2    0    0  0.19606857156E+02  0.31761132943E+01  0.68917014131E+01  0.17248609246E+03  0.17120000000E+03 0.  0.
        998    1    1    2    0    0 -0.15917745028E+01  0.48404387428E+01  0.14609394991E+04  0.14609826089E+04  0.10000000000E+02 0.  1.
</event>
<event>
 5    1  0.1252945E-008  0.3764997E+03  0.7957747E-01  0.3466542E+00
         13   -1    0    0    0    0  0.00000000000E+00  0.00000000000E+00  0.14999999963E+04  0.15000000000E+04  0.10566000000E+00 0.  1.
        994   -1    0    0    0    0 -0.00000000000E+00 -0.00000000000E+00  0.11368683772E-12  0.17120000000E+03  0.17120000000E+03 0.  0.
         13    1    1    2    0    0 -0.41538835027E+02  0.33646452384E+02  0.27822385529E+03  0.28331269542E+03  0.10566000000E+00 0.  1.
        994    1    1    2    0    0  0.13368875642E+02 -0.18670013031E+01  0.65270813739E+01  0.17185533254E+03  0.17120000000E+03 0.  0.
        998    1    1    2    0    0  0.28169959385E+02 -0.31779451081E+02  0.12152490596E+04  0.12160319720E+04  0.10000000000E+02 0.  1.
</event>
<event>
 5    1  0.1252945E-008  0.3847294E+03  0.7957747E-01  0.3430820E+00
         13   -1    0    0    0    0  0.00000000000E+00  0.00000000000E+00  0.14999999963E+04  0.15000000000E+04  0.10566000000E+00 0. -1.
        994   -1    0    0    0    0 -0.00000000000E+00 -0.00000000000E+00  0.11368683772E-12  0.17120000000E+03  0.17120000000E+03 0.  0.
         13    1    1    2    0    0  0.19432080217E+01 -0.12127634328E+02  0.41040806171E+02  0.42839403672E+02  0.10566000000E+00 0. -1.
        994    1    1    2    0    0  0.22668663337E+01  0.16076489154E+02  0.26326290453E+01  0.17198826391E+03  0.17120000000E+03 0.  0.
        998    1    1    2    0    0 -0.42100743554E+01 -0.39488548255E+01  0.14563265611E+04  0.14563723324E+04  0.10000000000E+02 0. -1.
</event>
<event>
 5    1  0.1252945E-008  0.3731507E+03  0.7957747E-01  0.3481535E+00
         13   -1    0    0    0    0  0.00000000000E+00  0.00000000000E+00  0.14999999963E+04  0.15000000000E+04  0.10566000000E+00 0.  1.
        994   -1    0    0    0    0 -0.00000000000E+00 -0.00000000000E+00  0.11368683772E-12  0.17120000000E+03  0.17120000000E+03 0.  0.
         13    1    1    2    0    0  0.27145560870E+02 -0.44509511520E+02  0.16572700849E+03  0.17373379233E+03  0.10566000000E+00 0.  1.
        994    1    1    2    0    0 -0.21194052900E+02  0.36315994066E+02  0.13703322696E+02  0.17681985283E+03  0.17120000000E+03 0.  0.
        998    1    1    2    0    0 -0.59515079702E+01  0.81935174532E+01  0.13205696651E+04  0.13206463548E+04  0.10000000000E+02 0.  1.
</event>
<event>
 5    1  0.1252945E-008  0.3844061E+03  0.7957747E-01  0.3432195E+00
         13   -1    0    0    0    0  0.00000000000E+00  0.00000000000E+00  0.14999999963E+04  0.15000000000E+04  0.10566000000E+00 0. -1.
        994   -1    0    0    0    0 -0.00000000000E+00 -0.00000000000E+00  0.11368683772E-12  0.17120000000E+03  0.17120000000E+03 0.  0.
         13    1    1    2    0    0  0.18577919814E+02 -0.91346254808E+00  0.91425324124E+02  0.93298309597E+02  0.10566000000E+00 0. -1.
        994    1    1    2    0    0 -0.93371901720E+01 -0.61977021655E+01  0.23392380951E+01  0.17158236118E+03  0.17120000000E+03 0.  0.
        998    1    1    2    0    0 -0.92407296423E+01  0.71111647135E+01  0.14062354341E+04  0.14063193292E+04  0.10000000000E+02 0. -1.
</event>
<event>
 5    1  0.1252945E-008  0.3838497E+03  0.7957747E-01  0.3434565E+00
         13   -1    0    0    0    0  0.00000000000E+00  0.00000000000E+00  0.14999999963E+04  0.15000000000E+04  0.10566000000E+00 0.  1.
        994   -1    0    0    0    0 -0.00000000000E+00 -0.00000000000E+00  0.11368683772E-12  0.17120000000E+03  0.17120000000E+03 0.  0.
         13    1    1    2    0    0  0.26754854083E+02 -0.47678265021E+01  0.15501386066E+03  0.15737808789E+03  0.10566000000E+00 0.  1.
        994    1    1    2    0    0 -0.28470514514E+02 -0.12912353592E+02  0.54350202306E+01  0.17411570439E+03  0.17120000000E+03 0.  0.
        998    1    1    2    0    0  0.17156604312E+01  0.17680180094E+02  0.13395511154E+04  0.13397062077E+04  0.10000000000E+02 0.  1.
</event>
<event>
 5    1  0.1252945E-008  0.3751396E+03  0.7957747E-01  0.3472599E+00
         13   -1    0    0    0    0  0.00000000000E+00  0.00000000000E+00  0.14999999963E+04  0.15000000000E+04  0.10566000000E+00 0.  1.
        994   -1    0    0    0    0 -0.00000000000E+00 -0.00000000000E+00  0.11368683772E-12  0.17120000000E+03  0.17120000000E+03 0.  0.
         13    1    1    2    0    0 -0.66758253939E+01 -0.41561528197E+02  0.13775092954E+03  0.14403908158E+03  0.10566000000E+00 0.  1.
        994    1    1    2    0    0  0.39641635139E+01  0.15821762738E+02  0.75114674400E+01  0.17213920213E+03  0.17120000000E+03 0.  0.
        998    1    1    2    0    0  0.27116618800E+01  0.25739765460E+02  0.13547375993E+04  0.13550217163E+04  0.10000000000E+02 0.  1.
</event>
<event>
 5    1  0.1252945E-008  0.3833373E+03  0.7957747E-01  0.3436755E+00
         13   -1    0    0    0    0  0.00000000000E+00  0.00000000000E+00  0.14999999963E+04  0.15000000000E+04  0.10566000000E+00 0. -1.
        994   -1    0    0    0    0 -0.00000000000E+00 -0.00000000000E+00  0.11368683772E-12  0.17120000000E+03  0.17120000000E+03 0.  0.
         13    1    1    2    0    0  0.14752633268E+02 -0.21133556312E+02  0.14996619777E+03  0.15216484163E+03  0.10566000000E+00 0. -1.
        994    1    1    2    0    0 -0.36384805520E+01  0.16166327025E+00  0.25017608698E+01  0.17125701003E+03  0.17120000000E+03 0.  0.
        998    1    1    2    0    0 -0.11114152716E+02  0.20971893042E+02  0.13475320376E+04  0.13477781483E+04  0.10000000000E+02 0. -1.
</event>
<event>
 5    1  0.1252945E-008  0.3822277E+03  0.7957747E-01  0.3441516E+00
         13   -1    0    0    0    0  0.00000000000E+00  0.00000000000E+00  0.14999999963E+04  0.15000000000E+04  0.10566000000E+00 0.  1.
        994   -1    0    0    0    0 -0.00000000000E+00 -0.00000000000E+00  0.11368683772E-12  0.17120000000E+03  0.17120000000E+03 0.  0.
         13    1    1    2    0    0  0.93263525723E+01  0.25188470759E+02  0.14150291176E+03  0.14402959804E+03  0.10566000000E+00 0.  1.
        994    1    1    2    0    0  0.10955555416E+02  0.41557946010E+01  0.34685744510E+01  0.17163556109E+03  0.17120000000E+03 0.  0.
        998    1    1    2    0    0 -0.20281907988E+02 -0.29344265360E+02  0.13550285101E+04  0.13555348409E+04  0.10000000000E+02 0.  1.
</event>
<event>
 5    1  0.1252945E-008  0.3820072E+03  0.7957747E-01  0.3442465E+00
         13   -1    0    0    0    0  0.00000000000E+00  0.00000000000E+00  0.14999999963E+04  0.15000000000E+04  0.10566000000E+00 0.  1.
        994   -1    0    0    0    0 -0.00000000000E+00 -0.00000000000E+00  0.11368683772E-12  0.17120000000E+03  0.17120000000E+03 0.  0.
         13    1    1    2    0    0  0.35754015685E+02  0.72949452126E+01  0.19164778926E+03  0.19509088178E+03  0.10566000000E+00 0.  1.
        994    1    1    2    0    0 -0.32398813937E+02 -0.10361886030E+02  0.69752991598E+01  0.17468585124E+03  0.17120000000E+03 0.  0.
        998    1    1    2    0    0 -0.33552017473E+01  0.30669408169E+01  0.13013769079E+04  0.13014232670E+04  0.10000000000E+02 0.  1.
</event>
<event>
 5    1  0.1252945E-008  0.3847056E+03  0.7957747E-01  0.3430922E+00
         13   -1    0    0    0    0  0.00000000000E+00  0.00000000000E+00  0.14999999963E+04  0.15000000000E+04  0.10566000000E+00 0.  1.
        994   -1    0    0    0    0 -0.00000000000E+00 -0.00000000000E+00  0.11368683772E-12  0.17120000000E+03  0.17120000000E+03 0.  0.
         13    1    1    2    0    0  0.12471421632E+01 -0.14669939157E+02  0.60587365714E+02  0.62350641750E+02  0.10566000000E+00 0.  1.
        994    1    1    2    0    0 -0.32709637821E+00  0.10504588845E+02  0.21400221834E+01  0.17153563208E+03  0.17120000000E+03 0.  0.
        998    1    1    2    0    0 -0.92004578495E+00  0.41653503125E+01  0.14372726084E+04  0.14373137262E+04  0.10000000000E+02 0.  1.
</event>
<event>
 5    1  0.1252945E-008  0.3829811E+03  0.7957747E-01  0.3438280E+00
         13   -1    0    0    0    0  0.00000000000E+00  0.00000000000E+00  0.14999999963E+04  0.15000000000E+04  0.10566000000E+00 0.  1.
        994   -1    0    0    0    0 -0.00000000000E+00 -0.00000000000E+00  0.11368683772E-12  0.17120000000E+03  0.17120000000E+03 0.  0.
         13    1    1    2    0    0 -0.15187761087E+02 -0.85331064419E+01  0.56369906899E+02  0.59000504746E+02  0.10566000000E+00 0.  1.
        994    1    1    2    0    0  0.94811167626E+01  0.95518941596E+01  0.32356376165E+01  0.17175866676E+03  0.17120000000E+03 0.  0.
        998    1    1    2    0    0  0.57066443244E+01 -0.10187877177E+01  0.14403944518E+04  0.14404408285E+04  0.10000000000E+02 0.  1.
</event>
<event>
 5    1  0.1252945E-008  0.3858872E+03  0.7957747E-01  0.3425918E+00
         13   -1    0    0    0    0  0.00000000000E+00  0.00000000000E+00  0.14999999963E+04  0.15000000000E+04  0.10566000000E+00 0. -1.
        994   -1    0    0    0    0 -0.00000000000E+00 -0.00000000000E+00  0.11368683772E-12  0.17120000000E+03  0.17120000000E+03 0.  0.
         13    1    1    2    0    0 -0.10235147032E+02 -0.87920474302E+01  0.80935674216E+02  0.82052744364E+02  0.10566000000E+00 0. -1.
        994    1    1    2    0    0  0.94292834118E+00  0.38396824174E+01  0.12415786963E+01  0.17125014976E+03  0.17120000000E+03 0.  0.
        998    1    1    2    0    0  0.92922186910E+01  0.49523650128E+01  0.14178227434E+04  0.14178971059E+04  0.10000000000E+02 0. -1.
</event>
<event>
 5    1  0.1252945E-008  0.3698720E+03  0.7957747E-01  0.3496480E+00
         13   -1    0    0    0    0  0.00000000000E+00  0.00000000000E+00  0.14999999963E+04  0.15000000000E+04  0.10566000000E+00 0. -1.
        994   -1    0    0    0    0 -0.00000000000E+00 -0.00000000000E+00  0.11368683772E-12  0.17120000000E+03  0.17120000000E+03 0.  0.
         13    1    1    2    0    0 -0.19717111236E+02  0.14758938132E+02  0.29515477132E+02  0.38441712821E+02  0.10566000000E+00 0. -1.
        994    1    1    2    0    0  0.14748234866E+02  0.11564322383E+02  0.10551945263E+02  0.17254572592E+03  0.17120000000E+03 0.  0.
        998    1    1    2    0    0  0.49688763699E+01 -0.26323260514E+02  0.14599325739E+04  0.14602125613E+04  0.10000000000E+02 0. -1.
</event>
<event>
 5    1  0.1252945E-008  0.3810045E+03  0.7957747E-01  0.3446796E+00
         13   -1    0    0    0    0  0.00000000000E+00  0.00000000000E+00  0.14999999963E+04  0.15000000000E+04  0.10566000000E+00 0.  1.
        994   -1    0    0    0    0 -0.00000000000E+00 -0.00000000000E+00  0.11368683772E-12  0.17120000000E+03  0.17120000000E+03 0.  0.
         13    1    1    2    0    0 -0.11524154149E+02  0.24917805179E+01  0.17648105268E+02  0.21224558478E+02  0.10566000000E+00 0.  1.
        994    1    1    2    0    0  0.87861111665E+01  0.81688876371E-03  0.38842101374E+01  0.17146930582E+03  0.17120000000E+03 0.  0.
        998    1    1    2    0    0  0.27380429824E+01 -0.24925974066E+01  0.14784676809E+04  0.14785061357E+04  0.10000000000E+02 0.  1.
</event>
<event>
 5    1  0.1252945E-008  0.3811721E+03  0.7957747E-01  0.3446071E+00
         13   -1    0    0    0    0  0.00000000000E+00  0.00000000000E+00  0.14999999963E+04  0.15000000000E+04  0.10566000000E+00 0.  1.
        994   -1    0    0    0    0 -0.00000000000E+00 -0.00000000000E+00  0.11368683772E-12  0.17120000000E+03  0.17120000000E+03 0.  0.
         13    1    1    2    0    0 -0.31867974377E+02 -0.34009938934E+02  0.24675665890E+03  0.25111969977E+03  0.10566000000E+00 0.  1.
        994    1    1    2    0    0  0.37906741504E+02  0.34960546759E+02  0.12448902686E+02  0.17923051096E+03  0.17120000000E+03 0.  0.
        998    1    1    2    0    0 -0.60387671269E+01 -0.95060782547E+00  0.12407944347E+04  0.12408497893E+04  0.10000000000E+02 0.  1.
</event>
<event>
 5    1  0.1252945E-008  0.3841848E+03  0.7957747E-01  0.3433137E+00
         13   -1    0    0    0    0  0.00000000000E+00  0.00000000000E+00  0.14999999963E+04  0.15000000000E+04  0.10566000000E+00 0. -1.
        994   -1    0    0    0    0 -0.00000000000E+00 -0.00000000000E+00  0.11368683772E-12  0.17120000000E+03  0.17120000000E+03 0.  0.
         13    1    1    2    0    0  0.91847556810E+01  0.82751841461E+01  0.38156678085E+02  0.40109620493E+02  0.10566000000E+00 0. -1.
        994    1    1    2    0    0  0.34441688087E-02 -0.28758648950E+01  0.20626669116E+01  0.17123657672E+03  0.17120000000E+03 0.  0.
        998    1    1    2    0    0 -0.91881998498E+01 -0.53993192511E+01  0.14597806513E+04  0.14598538028E+04  0.10000000000E+02 0. -1.
</event>
<event>
 5    1  0.1252945E-008  0.4108288E+03  0.7957747E-01  0.3327009E+00
         13   -1    0    0    0    0  0.00000000000E+00  0.00000000000E+00  0.14999999963E+04  0.15000000000E+04  0.10566000000E+00 0. -1.
        994   -1    0    0    0    0 -0.00000000000E+00 -0.00000000000E+00  0.11368683772E-12  0.17120000000E+03  0.17120000000E+03 0.  0.
         13    1    1    2    0    0 -0.67258237927E+02  0.22805501557E+02  0.59725150573E+02  0.92794753329E+02  0.10566000000E+00 0. -1.
        994    1    1    2    0    0  0.64996702102E+02 -0.27407424005E+02  0.55102953322E+02  0.19318776783E+03  0.17120000000E+03 0.  0.
        998    1    1    2    0    0  0.22615358248E+01  0.46019224482E+01  0.13851718924E+04  0.13852174788E+04  0.10000000000E+02 0. -1.
</event>
<event>
 5    1  0.1252945E-008  0.3812267E+03  0.7957747E-01  0.3445834E+00
         13   -1    0    0    0    0  0.00000000000E+00  0.00000000000E+00  0.14999999963E+04  0.15000000000E+04  0.10566000000E+00 0.  1.
        994   -1    0    0    0    0 -0.00000000000E+00 -0.00000000000E+00  0.11368683772E-12  0.17120000000E+03  0.17120000000E+03 0.  0.
         13    1    1    2    0    0 -0.44724149447E+02  0.60666069527E+01  0.23086465748E+03  0.23523510474E+03  0.10566000000E+00 0.  1.
        994    1    1    2    0    0  0.54690327971E+02  0.78921907458E+01  0.13748548164E+02  0.18042112189E+03  0.17120000000E+03 0.  0.
        998    1    1    2    0    0 -0.99661785235E+01 -0.13958797699E+02  0.12553867906E+04  0.12555437734E+04  0.10000000000E+02 0.  1.
</event>
<event>
 5    1  0.1252945E-008  0.3850798E+03  0.7957747E-01  0.3429334E+00
         13   -1    0    0    0    0  0.00000000000E+00  0.00000000000E+00  0.14999999963E+04  0.15000000000E+04  0.10566000000E+00 0.  1.
        994   -1    0    0    0    0 -0.00000000000E+00 -0.00000000000E+00  0.11368683772E-12  0.17120000000E+03  0.17120000000E+03 0.  0.
         13    1    1    2    0    0 -0.73497226850E+01  0.14786725187E+02  0.80749179944E+02  0.82420306302E+02  0.10566000000E+00 0.  1.
        994    1    1    2    0    0  0.45858992999E+01 -0.19355227753E+02  0.28924186832E+01  0.17237593045E+03  0.17120000000E+03 0.  0.
        998    1    1    2    0    0  0.27638233851E+01  0.45685025668E+01  0.14163583977E+04  0.14164037632E+04  0.10000000000E+02 0.  1.
</event>
<event>
 5    1  0.1252945E-008  0.3754856E+03  0.7957747E-01  0.3471054E+00
         13   -1    0    0    0    0  0.00000000000E+00  0.00000000000E+00  0.14999999963E+04  0.15000000000E+04  0.10566000000E+00 0. -1.
        994   -1    0    0    0    0 -0.00000000000E+00 -0.00000000000E+00  0.11368683772E-12  0.17120000000E+03  0.17120000000E+03 0.  0.
         13    1    1    2    0    0 -0.13354499437E+02  0.28608365325E+02  0.77821865826E+02  0.83982350446E+02  0.10566000000E+00 0. -1.
        994    1    1    2    0    0 -0.73588669832E+01 -0.15343898863E+02  0.74129220668E+01  0.17220330882E+03  0.17120000000E+03 0.  0.
        998    1    1    2    0    0  0.20713366420E+02 -0.13264466461E+02  0.14147652084E+04  0.14150143407E+04  0.10000000000E+02 0. -1.
</event>
<event>
 5    1  0.1252945E-008  0.3790749E+03  0.7957747E-01  0.3455196E+00
         13   -1    0    0    0    0  0.00000000000E+00  0.00000000000E+00  0.14999999963E+04  0.15000000000E+04  0.10566000000E+00 0.  1.
        994   -1    0    0    0    0 -0.00000000000E+00 -0.00000000000E+00  0.11368683772E-12  0.17120000000E+03  0.17120000000E+03 0.  0.
         13    1    1    2    0    0  0.29764814296E+02 -0.76371050217E+01  0.96991869972E+02  0.10174332188E+03  0.10566000000E+00 0.  1.
        994    1    1    2    0    0 -0.26853484974E+02  0.44485835927E+01  0.70891770592E+01  0.17349523331E+03  0.17120000000E+03 0.  0.
        998    1    1    2    0    0 -0.29113293221E+01  0.31885214290E+01  0.13959189492E+04  0.13959614448E+04  0.10000000000E+02 0.  1.
</event>
<event>
 5    1  0.1252945E-008  0.3802604E+03  0.7957747E-01  0.3450025E+00
         13   -1    0    0    0    0  0.00000000000E+00  0.00000000000E+00  0.14999999963E+04  0.15000000000E+04  0.10566000000E+00 0. -1.
        994   -1    0    0    0    0 -0.00000000000E+00 -0.00000000000E+00  0.11368683772E-12  0.17120000000E+03  0.17120000000E+03 0.  0.
         13    1    1    2    0    0  0.52223490059E+01 -0.13942004805E+02  0.26469399559E+02  0.30369272368E+02  0.10566000000E+00 0. -1.
        994    1    1    2    0    0  0.19457246277E+00  0.57923507167E+01  0.41139438883E+01  0.17134746488E+03  0.17120000000E+03 0.  0.
        998    1    1    2    0    0 -0.54169214687E+01  0.81496540885E+01  0.14694166528E+04  0.14694832628E+04  0.10000000000E+02 0. -1.
</event>
<event>
 5    1  0.1252945E-008  0.3793542E+03  0.7957747E-01  0.3453975E+00
         13   -1    0    0    0    0  0.00000000000E+00  0.00000000000E+00  0.14999999963E+04  0.15000000000E+04  0.10566000000E+00 0. -1.
        994   -1    0    0    0    0 -0.00000000000E+00 -0.00000000000E+00  0.11368683772E-12  0.17120000000E+03  0.17120000000E+03 0.  0.
         13    1    1    2    0    0  0.24349408233E+02 -0.13836831686E+02  0.95858403530E+02  0.99865891493E+02  0.10566000000E+00 0. -1.
        994    1    1    2    0    0  0.29232887537E+01 -0.27319222440E+01  0.45131442731E+01  0.17130620972E+03  0.17120000000E+03 0.  0.
        998    1    1    2    0    0 -0.27272696987E+02  0.16568753930E+02  0.13996284485E+04  0.14000278988E+04  0.10000000000E+02 0. -1.
</event>
<event>
 5    1  0.1252945E-008  0.3815167E+03  0.7957747E-01  0.3444581E+00
         13   -1    0    0    0    0  0.00000000000E+00  0.00000000000E+00  0.14999999963E+04  0.15000000000E+04  0.10566000000E+00 0. -1.
        994   -1    0    0    0    0 -0.00000000000E+00 -0.00000000000E+00  0.11368683772E-12  0.17120000000E+03  0.17120000000E+03 0.  0.
         13    1    1    2    0    0  0.83938919048E+02 -0.83176298083E+02  0.47009714570E+03  0.48472195767E+03  0.10566000000E+00 0. -1.
        994    1    1    2    0    0 -0.62001873325E+02  0.75443332190E+01  0.31518980838E+02  0.18494333027E+03  0.17120000000E+03 0.  0.
        998    1    1    2    0    0 -0.21937045722E+02  0.75631964864E+02  0.99838386974E+03  0.10015347121E+04  0.10000000000E+02 0. -1.
</event>
<event>
 5    1  0.1252945E-008  0.3842796E+03  0.7957747E-01  0.3432733E+00
         13   -1    0    0    0    0  0.00000000000E+00  0.00000000000E+00  0.14999999963E+04  0.15000000000E+04  0.10566000000E+00 0. -1.
        994   -1    0    0    0    0 -0.00000000000E+00 -0.00000000000E+00  0.11368683772E-12  0.17120000000E+03  0.17120000000E+03 0.  0.
         13    1    1    2    0    0 -0.80790173513E+01  0.17180580709E+02  0.84526165831E+02  0.86632134621E+02  0.10566000000E+00 0. -1.
        994    1    1    2    0    0  0.24450951362E+01 -0.23618081557E+02  0.38489014904E+01  0.17288159621E+03  0.17120000000E+03 0.  0.
        998    1    1    2    0    0  0.56339222151E+01  0.64375008483E+01  0.14116249290E+04  0.14116862692E+04  0.10000000000E+02 0. -1.
</event>
<event>
 5    1  0.1252945E-008  0.3852538E+03  0.7957747E-01  0.3428597E+00
         13   -1    0    0    0    0  0.00000000000E+00  0.00000000000E+00  0.14999999963E+04  0.15000000000E+04  0.10566000000E+00 0.  1.
        994   -1    0    0    0    0 -0.00000000000E+00 -0.00000000000E+00  0.11368683772E-12  0.17120000000E+03  0.17120000000E+03 0.  0.
         13    1    1    2    0    0 -0.12647042495E+02 -0.96674553645E+00  0.55660304295E+02  0.57087327132E+02  0.10566000000E+00 0.  1.
        994    1    1    2    0    0  0.23520626613E+01 -0.10564760987E+01  0.15260357184E+01  0.17122621623E+03  0.17120000000E+03 0.  0.
        998    1    1    2    0    0  0.10294979833E+02  0.20232216351E+01  0.14428136563E+04  0.14428864566E+04  0.10000000000E+02 0.  1.
</event>
<event>
 5    1  0.1252945E-008  0.3839326E+03  0.7957747E-01  0.3434212E+00
         13   -1    0    0    0    0  0.00000000000E+00  0.00000000000E+00  0.14999999963E+04  0.15000000000E+04  0.10566000000E+00 0.  1.
        994   -1    0    0    0    0 -0.00000000000E+00 -0.00000000000E+00  0.11368683772E-12  0.17120000000E+03  0.17120000000E+03 0.  0.
         13    1    1    2    0    0 -0.19259470585E+02 -0.78142347863E+01  0.10529227742E+03  0.10732410876E+03  0.10566000000E+00 0.  1.
        994    1    1    2    0    0  0.12221688837E+01  0.10892240206E+02  0.25575518606E+01  0.17156956509E+03  0.17120000000E+03 0.  0.
        998    1    1    2    0    0  0.18037301701E+02 -0.30780054196E+01  0.13921501670E+04  0.13923063261E+04  0.10000000000E+02 0.  1.
</event>
<event>
 5    1  0.1252945E-008  0.3842919E+03  0.7957747E-01  0.3432681E+00
         13   -1    0    0    0    0  0.00000000000E+00  0.00000000000E+00  0.14999999963E+04  0.15000000000E+04  0.10566000000E+00 0. -1.
        994   -1    0    0    0    0 -0.00000000000E+00 -0.00000000000E+00  0.11368683772E-12  0.17120000000E+03  0.17120000000E+03 0.  0.
         13    1    1    2    0    0 -0.12748254201E+02 -0.20856052380E+02  0.12704866526E+03  0.12937877497E+03  0.10566000000E+00 0. -1.
        994    1    1    2    0    0  0.28888537312E+02  0.25240228756E+02  0.68479860672E+01  0.17557890434E+03  0.17120000000E+03 0.  0.
        998    1    1    2    0    0 -0.16140283111E+02 -0.43841763761E+01  0.13661033450E+04  0.13662423207E+04  0.10000000000E+02 0. -1.
</event>
<event>
 5    1  0.1252945E-008  0.3059247E+03  0.7957747E-01  0.3854610E+00
         13   -1    0    0    0    0  0.00000000000E+00  0.00000000000E+00  0.14999999963E+04  0.15000000000E+04  0.10566000000E+00 0. -1.
        994   -1    0    0    0    0 -0.00000000000E+00 -0.00000000000E+00  0.11368683772E-12  0.17120000000E+03  0.17120000000E+03 0.  0.
         13    1    1    2    0    0  0.38559359323E+02 -0.16520507826E+03  0.74047753268E+03  0.75966211544E+03  0.10566000000E+00 0. -1.
        994    1    1    2    0    0 -0.54530970011E+02  0.13932981984E+03  0.95279226781E+02  0.24652382530E+03  0.17120000000E+03 0.  0.
        998    1    1    2    0    0  0.15971610688E+02  0.25875258420E+02  0.66424323682E+03  0.66501405925E+03  0.10000000000E+02 0.  0.
</event>
<event>
 5    1  0.1252945E-008  0.3720966E+03  0.7957747E-01  0.3486310E+00
         13   -1    0    0    0    0  0.00000000000E+00  0.00000000000E+00  0.14999999963E+04  0.15000000000E+04  0.10566000000E+00 0. -1.
        994   -1    0    0    0    0 -0.00000000000E+00 -0.00000000000E+00  0.11368683772E-12  0.17120000000E+03  0.17120000000E+03 0.  0.
         13    1    1    2    0    0 -0.61079686025E+02 -0.34432375020E+02  0.35525083087E+03  0.36210423981E+03  0.10566000000E+00 0. -1.
        994    1    1    2    0    0  0.15823170890E+02  0.84696522633E+01  0.92838147882E+01  0.17238833187E+03  0.17120000000E+03 0.  0.
        998    1    1    2    0    0  0.45256515135E+02  0.25962722757E+02  0.11354653506E+04  0.11367074283E+04  0.10000000000E+02 0. -1.
</event>
<event>
 5    1  0.1252945E-008  0.3845281E+03  0.7957747E-01  0.3431676E+00
         13   -1    0    0    0    0  0.00000000000E+00  0.00000000000E+00  0.14999999963E+04  0.15000000000E+04  0.10566000000E+00 0.  1.
        994   -1    0    0    0    0 -0.00000000000E+00 -0.00000000000E+00  0.11368683772E-12  0.17120000000E+03  0.17120000000E+03 0.  0.
         13    1    1    2    0    0  0.39053719018E+01  0.19009518175E+02  0.97943673132E+02  0.99847824120E+02  0.10566000000E+00 0.  1.
        994    1    1    2    0    0 -0.43743691675E+01 -0.15681114232E+02  0.27380117207E+01  0.17199409629E+03  0.17120000000E+03 0.  0.
        998    1    1    2    0    0  0.46899726566E+00 -0.33284039433E+01  0.13993183114E+04  0.13993580796E+04  0.10000000000E+02 0.  1.
</event>
<event>
 5    1  0.1252945E-008  0.3805774E+03  0.7957747E-01  0.3448648E+00
         13   -1    0    0    0    0  0.00000000000E+00  0.00000000000E+00  0.14999999963E+04  0.15000000000E+04  0.10566000000E+00 0.  1.
        994   -1    0    0    0    0 -0.00000000000E+00 -0.00000000000E+00  0.11368683772E-12  0.17120000000E+03  0.17120000000E+03 0.  0.
         13    1    1    2    0    0  0.13444633286E+02  0.13091990191E+02  0.45894940316E+02  0.49583415393E+02  0.10566000000E+00 0.  1.
        994    1    1    2    0    0 -0.40021382714E+01 -0.93476740606E+00  0.38983318230E+01  0.17129368900E+03  0.17120000000E+03 0.  0.
        998    1    1    2    0    0 -0.94424950145E+01 -0.12157222785E+02  0.14502067241E+04  0.14503228956E+04  0.10000000000E+02 0.  1.
</event>
<event>
 5    1  0.1790042E-008  0.3864640E+03  0.7957747E-01  0.3423487E+00
         13   -1    0    0    0    0  0.00000000000E+00  0.00000000000E+00  0.14999999963E+04  0.15000000000E+04  0.10566000000E+00 0. -1.
        994   -1    0    0    0    0 -0.00000000000E+00 -0.00000000000E+00  0.11368683772E-12  0.17120000000E+03  0.17120000000E+03 0.  0.
         13    1    1    2    0    0  0.10110954408E+02  0.24892353354E+01  0.60496845526E+02  0.61386539031E+02  0.10566000000E+00 0. -1.
        994    1    1    2    0    0 -0.74230236287E+01 -0.47818887731E+01  0.11602750247E+01  0.17143148479E+03  0.17120000000E+03 0.  0.
        998    1    1    2    0    0 -0.26879307791E+01  0.22926534377E+01  0.14383428757E+04  0.14383819762E+04  0.10000000000E+02 0. -1.
</event>
<event>
 5    1  0.1252945E-008  0.3753089E+03  0.7957747E-01  0.3471843E+00
         13   -1    0    0    0    0  0.00000000000E+00  0.00000000000E+00  0.14999999963E+04  0.15000000000E+04  0.10566000000E+00 0.  1.
        994   -1    0    0    0    0 -0.00000000000E+00 -0.00000000000E+00  0.11368683772E-12  0.17120000000E+03  0.17120000000E+03 0.  0.
         13    1    1    2    0    0 -0.35390080892E+02  0.57328935635E+02  0.29023104984E+03  0.29794821386E+03  0.10566000000E+00 0.  1.
        994    1    1    2    0    0  0.26109012158E+02 -0.57488104256E+02  0.20179790169E+02  0.18358438544E+03  0.17120000000E+03 0.  0.
        998    1    1    2    0    0  0.92810687336E+01  0.15916862135E+00  0.11895891563E+04  0.11896674007E+04  0.10000000000E+02 0. -1.
</event>
<event>
 5    1  0.1252945E-008  0.3859485E+03  0.7957747E-01  0.3425659E+00
         13   -1    0    0    0    0  0.00000000000E+00  0.00000000000E+00  0.14999999963E+04  0.15000000000E+04  0.10566000000E+00 0.  1.
        994   -1    0    0    0    0 -0.00000000000E+00 -0.00000000000E+00  0.11368683772E-12  0.17120000000E+03  0.17120000000E+03 0.  0.
         13    1    1    2    0    0  0.11724084871E+02  0.14235969503E+01  0.60989987532E+02  0.62123027433E+02  0.10566000000E+00 0.  1.
        994    1    1    2    0    0 -0.74869208400E+01  0.66880450803E-01  0.13437430649E+01  0.17136891230E+03  0.17120000000E+03 0.  0.
        998    1    1    2    0    0 -0.42371640312E+01 -0.14904774011E+01  0.14376662657E+04  0.14377080603E+04  0.10000000000E+02 0.  1.
</event>
<event>
 5    1  0.1252945E-008  0.4363329E+03  0.7957747E-01  0.3237427E+00
         13   -1    0    0    0    0  0.00000000000E+00  0.00000000000E+00  0.14999999963E+04  0.15000000000E+04  0.10566000000E+00 0.  1.
        994   -1    0    0    0    0 -0.00000000000E+00 -0.00000000000E+00  0.11368683772E-12  0.17120000000E+03  0.17120000000E+03 0.  0.
         13    1    1    2    0    0  0.56752346929E+02 -0.10242706564E+03  0.12023459867E+03  0.16783474771E+03  0.10566000000E+00 0.  1.
        994    1    1    2    0    0 -0.28581152045E+02  0.86460053220E+02  0.91083634828E+02  0.21423793219E+03  0.17120000000E+03 0.  0.
        998    1    1    2    0    0 -0.28171194884E+02  0.15967012422E+02  0.12886817628E+04  0.12891273201E+04  0.10000000000E+02 0.  1.
</event>
<event>
 5    1  0.1252945E-008  0.3819197E+03  0.7957747E-01  0.3442842E+00
         13   -1    0    0    0    0  0.00000000000E+00  0.00000000000E+00  0.14999999963E+04  0.15000000000E+04  0.10566000000E+00 0.  1.
        994   -1    0    0    0    0 -0.00000000000E+00 -0.00000000000E+00  0.11368683772E-12  0.17120000000E+03  0.17120000000E+03 0.  0.
         13    1    1    2    0    0  0.87849312075E+01  0.79126910602E+01  0.21273372529E+02  0.24338308054E+02  0.10566000000E+00 0.  1.
        994    1    1    2    0    0 -0.27882928454E-01 -0.15086498090E+01  0.31747809206E+01  0.17123608275E+03  0.17120000000E+03 0.  0.
        998    1    1    2    0    0 -0.87570482790E+01 -0.64040412511E+01  0.14755518428E+04  0.14756256092E+04  0.10000000000E+02 0.  1.
</event>
<event>
 5    1  0.1252945E-008  0.3820822E+03  0.7957747E-01  0.3442142E+00
         13   -1    0    0    0    0  0.00000000000E+00  0.00000000000E+00  0.14999999963E+04  0.15000000000E+04  0.10566000000E+00 0.  1.
        994   -1    0    0    0    0 -0.00000000000E+00 -0.00000000000E+00  0.11368683772E-12  0.17120000000E+03  0.17120000000E+03 0.  0.
         13    1    1    2    0    0  0.40469328904E+01  0.13083804841E+02  0.29852037723E+02  0.32843856887E+02  0.10566000000E+00 0.  1.
        994    1    1    2    0    0 -0.57646188933E+01 -0.17939547667E+01  0.32067787447E+01  0.17133643084E+03  0.17120000000E+03 0.  0.
        998    1    1    2    0    0  0.17176860029E+01 -0.11289850074E+02  0.14669411798E+04  0.14670197123E+04  0.10000000000E+02 0.  1.
</event>
<event>
 5    1  0.1252945E-008  0.3708777E+03  0.7957747E-01  0.3491867E+00
         13   -1    0    0    0    0  0.00000000000E+00  0.00000000000E+00  0.14999999963E+04  0.15000000000E+04  0.10566000000E+00 0. -1.
        994   -1    0    0    0    0 -0.00000000000E+00 -0.00000000000E+00  0.11368683772E-12  0.17120000000E+03  0.17120000000E+03 0.  0.
         13    1    1    2    0    0  0.22403602600E+02  0.53720371902E+02  0.20343441426E+03  0.21159719241E+03  0.10566000000E+00 0. -1.
        994    1    1    2    0    0 -0.49414617761E+01 -0.20684806602E+02  0.10371653604E+02  0.17282734294E+03  0.17120000000E+03 0.  0.
        998    1    1    2    0    0 -0.17462140824E+02 -0.33035565300E+02  0.12861939284E+04  0.12867754646E+04  0.10000000000E+02 0. -1.
</event>
<event>
 5    1  0.1252945E-008  0.3793078E+03  0.7957747E-01  0.3454178E+00
         13   -1    0    0    0    0  0.00000000000E+00  0.00000000000E+00  0.14999999963E+04  0.15000000000E+04  0.10566000000E+00 0.  1.
        994   -1    0    0    0    0 -0.00000000000E+00 -0.00000000000E+00  0.11368683772E-12  0.17120000000E+03  0.17120000000E+03 0.  0.
         13    1    1    2    0    0 -0.48425856604E+02  0.61540146598E+02  0.44034096213E+03  0.44724984888E+03  0.10566000000E+00 0.  1.
        994    1    1    2    0    0  0.59431812962E+02 -0.62419326287E+02  0.29788542118E+02  0.19397193077E+03  0.17120000000E+03 0.  0.
        998    1    1    2    0    0 -0.11005956358E+02  0.87917968890E+00  0.10298704920E+04  0.10299782203E+04  0.10000000000E+02 0.  1.
</event>
<event>
 5    1  0.1252945E-008  0.3809882E+03  0.7957747E-01  0.3446867E+00
         13   -1    0    0    0    0  0.00000000000E+00  0.00000000000E+00  0.14999999963E+04  0.15000000000E+04  0.10566000000E+00 0. -1.
        994   -1    0    0    0    0 -0.00000000000E+00 -0.00000000000E+00  0.11368683772E-12  0.17120000000E+03  0.17120000000E+03 0.  0.
         13    1    1    2    0    0  0.34360649289E+02  0.11740237405E+02  0.16407567559E+03  0.16804560654E+03  0.10566000000E+00 0. -1.
        994    1    1    2    0    0 -0.30892433041E+02 -0.17056052721E+02  0.77954830727E+01  0.17497274333E+03  0.17120000000E+03 0.  0.
        998    1    1    2    0    0 -0.34682162475E+01  0.53158153157E+01  0.13281288376E+04  0.13281816501E+04  0.10000000000E+02 0. -1.
</event>
<event>
 5    1  0.1252945E-008  0.3802820E+03  0.7957747E-01  0.3449932E+00
         13   -1    0    0    0    0  0.00000000000E+00  0.00000000000E+00  0.14999999963E+04  0.15000000000E+04  0.10566000000E+00 0.  1.
        994   -1    0    0    0    0 -0.00000000000E+00 -0.00000000000E+00  0.11368683772E-12  0.17120000000E+03  0.17120000000E+03 0.  0.
         13    1    1    2    0    0  0.15044237856E+02 -0.40718435354E+01  0.30119205379E+02  0.33912928200E+02  0.10566000000E+00 0.  1.
        994    1    1    2    0    0  0.18755730851E+01 -0.52055846800E+01  0.40931252774E+01  0.17133828983E+03  0.17120000000E+03 0.  0.
        998    1    1    2    0    0 -0.16919810941E+02  0.92774282154E+01  0.14657876656E+04  0.14659487820E+04  0.10000000000E+02 0.  1.
</event>
<event>
 5    1  0.1252945E-008  0.3754490E+03  0.7957747E-01  0.3471217E+00
         13   -1    0    0    0    0  0.00000000000E+00  0.00000000000E+00  0.14999999963E+04  0.15000000000E+04  0.10566000000E+00 0. -1.
        994   -1    0    0    0    0 -0.00000000000E+00 -0.00000000000E+00  0.11368683772E-12  0.17120000000E+03  0.17120000000E+03 0.  0.
         13    1    1    2    0    0  0.91924857030E+01 -0.17084040942E+02  0.26181754109E+02  0.32586218875E+02  0.10566000000E+00 0. -1.
        994    1    1    2    0    0 -0.12102655097E+02  0.13880818789E+02  0.76002663201E+01  0.17235531741E+03  0.17120000000E+03 0.  0.
        998    1    1    2    0    0  0.29101693939E+01  0.32032221533E+01  0.14662179758E+04  0.14662584637E+04  0.10000000000E+02 0. -1.
</event>
<event>
 5    1  0.1252945E-008  0.3761202E+03  0.7957747E-01  0.3468228E+00
         13   -1    0    0    0    0  0.00000000000E+00  0.00000000000E+00  0.14999999963E+04  0.15000000000E+04  0.10566000000E+00 0. -1.
        994   -1    0    0    0    0 -0.00000000000E+00 -0.00000000000E+00  0.11368683772E-12  0.17120000000E+03  0.17120000000E+03 0.  0.
         13    1    1    2    0    0 -0.26009639724E+02  0.84714804563E+01  0.57711853660E+02  0.63866552722E+02  0.10566000000E+00 0. -1.
        994    1    1    2    0    0  0.20808383146E+02 -0.13205132327E+02  0.81641223289E+01  0.17315731929E+03  0.17120000000E+03 0.  0.
        998    1    1    2    0    0  0.52012565784E+01  0.47336518705E+01  0.14341240203E+04  0.14341761280E+04  0.10000000000E+02 0. -1.
</event>
<event>
 5    1  0.1252945E-008  0.3820860E+03  0.7957747E-01  0.3442125E+00
         13   -1    0    0    0    0  0.00000000000E+00  0.00000000000E+00  0.14999999963E+04  0.15000000000E+04  0.10566000000E+00 0.  1.
        994   -1    0    0    0    0 -0.00000000000E+00 -0.00000000000E+00  0.11368683772E-12  0.17120000000E+03  0.17120000000E+03 0.  0.
         13    1    1    2    0    0 -0.13291380515E+02 -0.18738549552E+02  0.91060050952E+02  0.93913460583E+02  0.10566000000E+00 0.  1.
        994    1    1    2    0    0 -0.47176111123E+01  0.49492226443E+01  0.32390497347E+01  0.17136709749E+03  0.17120000000E+03 0.  0.
        998    1    1    2    0    0  0.18008991627E+02  0.13789326908E+02  0.14057008956E+04  0.14059194419E+04  0.10000000000E+02 0.  1.
</event>
<event>
 5    1  0.1414133E-008  0.3834934E+03  0.7957747E-01  0.3436087E+00
         13   -1    0    0    0    0  0.00000000000E+00  0.00000000000E+00  0.14999999963E+04  0.15000000000E+04  0.10566000000E+00 0.  1.
        994   -1    0    0    0    0 -0.00000000000E+00 -0.00000000000E+00  0.11368683772E-12  0.17120000000E+03  0.17120000000E+03 0.  0.
         13    1    1    2    0    0  0.19108767094E+01 -0.11688107174E+02  0.28337487453E+02  0.30712988430E+02  0.10566000000E+00 0.  1.
        994    1    1    2    0    0 -0.54945163780E+00  0.11732304460E+02  0.28360176955E+01  0.17162584847E+03  0.17120000000E+03 0.  0.
        998    1    1    2    0    0 -0.13614250716E+01 -0.44197286226E-01  0.14688264911E+04  0.14688611631E+04  0.10000000000E+02 0.  1.
</event>
<event>
 5    1  0.1252945E-008  0.3808081E+03  0.7957747E-01  0.3447647E+00
         13   -1    0    0    0    0  0.00000000000E+00  0.00000000000E+00  0.14999999963E+04  0.15000000000E+04  0.10566000000E+00 0.  1.
        994   -1    0    0    0    0 -0.00000000000E+00 -0.00000000000E+00  0.11368683772E-12  0.17120000000E+03  0.17120000000E+03 0.  0.
         13    1    1    2    0    0  0.63664989693E+02  0.10797516363E+02  0.34425125692E+03  0.35025527309E+03  0.10566000000E+00 0.  1.
        994    1    1    2    0    0 -0.82396183754E+02 -0.32993005606E+02  0.30452401573E+02  0.19522924545E+03  0.17120000000E+03 0.  0.
        998    1    1    2    0    0  0.18731194061E+02  0.22195489243E+02  0.11252963378E+04  0.11257154815E+04  0.10000000000E+02 0.  1.
</event>
<event>
 5    1  0.1252945E-008  0.3828055E+03  0.7957747E-01  0.3439033E+00
         13   -1    0    0    0    0  0.00000000000E+00  0.00000000000E+00  0.14999999963E+04  0.15000000000E+04  0.10566000000E+00 0.  1.
        994   -1    0    0    0    0 -0.00000000000E+00 -0.00000000000E+00  0.11368683772E-12  0.17120000000E+03  0.17120000000E+03 0.  0.
         13    1    1    2    0    0  0.85364561806E+01  0.19735549073E+02  0.79410328923E+02  0.82270131184E+02  0.10566000000E+00 0.  1.
        994    1    1    2    0    0 -0.10612036744E+02 -0.21535716291E+02  0.46351247592E+01  0.17293734930E+03  0.17120000000E+03 0.  0.
        998    1    1    2    0    0  0.20755805638E+01  0.18001672174E+01  0.14159545426E+04  0.14159925195E+04  0.10000000000E+02 0.  1.
</event>
<event>
 5    1  0.1409235E-008  0.3860935E+03  0.7957747E-01  0.3425048E+00
         13   -1    0    0    0    0  0.00000000000E+00  0.00000000000E+00  0.14999999963E+04  0.15000000000E+04  0.10566000000E+00 0.  1.
        994   -1    0    0    0    0 -0.00000000000E+00 -0.00000000000E+00  0.11368683772E-12  0.17120000000E+03  0.17120000000E+03 0.  0.
         13    1    1    2    0    0 -0.42289427449E+01  0.10625910136E+02  0.56849944871E+02  0.57988975839E+02  0.10566000000E+00 0.  1.
        994    1    1    2    0    0  0.15230705694E+02 -0.12748823003E+02  0.23820889633E+01  0.17236479116E+03  0.17120000000E+03 0.  0.
        998    1    1    2    0    0 -0.11001762949E+02  0.21229128671E+01  0.14407679624E+04  0.14408462330E+04  0.10000000000E+02 0.  1.
</event>
<event>
 5    1  0.1252945E-008  0.3782445E+03  0.7957747E-01  0.3458838E+00
         13   -1    0    0    0    0  0.00000000000E+00  0.00000000000E+00  0.14999999963E+04  0.15000000000E+04  0.10566000000E+00 0. -1.
        994   -1    0    0    0    0 -0.00000000000E+00 -0.00000000000E+00  0.11368683772E-12  0.17120000000E+03  0.17120000000E+03 0.  0.
         13    1    1    2    0    0 -0.59080084530E+01 -0.14290679287E+02  0.21791082210E+02  0.26720600784E+02  0.10566000000E+00 0. -1.
        994    1    1    2    0    0  0.76627331037E+00  0.95643424795E+01  0.53315545004E+01  0.17155153539E+03  0.17120000000E+03 0.  0.
        998    1    1    2    0    0  0.51417351426E+01  0.47263368075E+01  0.14728773596E+04  0.14729278638E+04  0.10000000000E+02 0. -1.
</event>
<event>
 5    1  0.1252945E-008  0.4003301E+03  0.7957747E-01  0.3367148E+00
         13   -1    0    0    0    0  0.00000000000E+00  0.00000000000E+00  0.14999999963E+04  0.15000000000E+04  0.10566000000E+00 0. -1.
        994   -1    0    0    0    0 -0.00000000000E+00 -0.00000000000E+00  0.11368683772E-12  0.17120000000E+03  0.17120000000E+03 0.  0.
         13    1    1    2    0    0  0.63198023411E+01  0.17753053226E+02 -0.55490618357E+01  0.19644695257E+02  0.10566000000E+00 0. -1.
        994    1    1    2    0    0  0.99753574612E+01  0.32269097317E+02  0.32460213359E+02  0.17749340227E+03  0.17120000000E+03 0.  0.
        998    1    1    2    0    0 -0.16295159802E+02 -0.50022150542E+02  0.14730888448E+04  0.14740619025E+04  0.10000000000E+02 0. -1.
</event>
<event>
 5    1  0.1252945E-008  0.3786217E+03  0.7957747E-01  0.3457182E+00
         13   -1    0    0    0    0  0.00000000000E+00  0.00000000000E+00  0.14999999963E+04  0.15000000000E+04  0.10566000000E+00 0.  1.
        994   -1    0    0    0    0 -0.00000000000E+00 -0.00000000000E+00  0.11368683772E-12  0.17120000000E+03  0.17120000000E+03 0.  0.
         13    1    1    2    0    0 -0.39796383665E+01  0.83715936122E+02  0.49281586737E+03  0.49989167404E+03  0.10566000000E+00 0.  1.
        994    1    1    2    0    0 -0.11519116512E+01 -0.82512364213E+02  0.28050036996E+02  0.19210898398E+03  0.17120000000E+03 0.  0.
        998    1    1    2    0    0  0.51315500177E+01 -0.12035719093E+01  0.97913409191E+03  0.97919934198E+03  0.10000000000E+02 0.  1.
</event>
<event>
 5    1  0.1252945E-008  0.3413784E+03  0.7957747E-01  0.3638744E+00
         13   -1    0    0    0    0  0.00000000000E+00  0.00000000000E+00  0.14999999963E+04  0.15000000000E+04  0.10566000000E+00 0.  1.
        994   -1    0    0    0    0 -0.00000000000E+00 -0.00000000000E+00  0.11368683772E-12  0.17120000000E+03  0.17120000000E+03 0.  0.
         13    1    1    2    0    0  0.21871589053E+03  0.86909872869E+02  0.89823449728E+03  0.92855543186E+03  0.10566000000E+00 0.  1.
        994    1    1    2    0    0 -0.22377529299E+03 -0.44358915735E+02  0.22491665680E+03  0.36323551267E+03  0.17120000000E+03 0.  0.
        998    1    1    2    0    0  0.50594024583E+01 -0.42550957134E+02  0.37684884220E+03  0.37940905547E+03  0.10000000000E+02 0.  0.
</event>
<event>
 5    1  0.1252945E-008  0.3704671E+03  0.7957747E-01  0.3493747E+00
         13   -1    0    0    0    0  0.00000000000E+00  0.00000000000E+00  0.14999999963E+04  0.15000000000E+04  0.10566000000E+00 0. -1.
        994   -1    0    0    0    0 -0.00000000000E+00 -0.00000000000E+00  0.11368683772E-12  0.17120000000E+03  0.17120000000E+03 0.  0.
         13    1    1    2    0    0  0.25640738039E+02 -0.25315453143E+02  0.67499260980E+02  0.76514580388E+02  0.10566000000E+00 0. -1.
        994    1    1    2    0    0 -0.16173782363E+02  0.23916517140E+02  0.11908128587E+02  0.17402538480E+03  0.17120000000E+03 0.  0.
        998    1    1    2    0    0 -0.94669556757E+01  0.13989360038E+01  0.14205926067E+04  0.14206600348E+04  0.10000000000E+02 0. -1.
</event>
<event>
 5    1  0.1252945E-008  0.3991545E+03  0.7957747E-01  0.3371773E+00
         13   -1    0    0    0    0  0.00000000000E+00  0.00000000000E+00  0.14999999963E+04  0.15000000000E+04  0.10566000000E+00 0. -1.
        994   -1    0    0    0    0 -0.00000000000E+00 -0.00000000000E+00  0.11368683772E-12  0.17120000000E+03  0.17120000000E+03 0.  0.
         13    1    1    2    0    0  0.60035940327E+02 -0.43725398159E+01  0.56277582924E+02  0.82405162091E+02  0.10566000000E+00 0. -1.
        994    1    1    2    0    0 -0.51578282906E+02  0.23365234642E+01  0.37746833079E+02  0.18275678378E+03  0.17120000000E+03 0.  0.
        998    1    1    2    0    0 -0.84576574214E+01  0.20360163517E+01  0.14059755803E+04  0.14060380541E+04  0.10000000000E+02 0. -1.
</event>
<event>
 5    1  0.1252945E-008  0.3772743E+03  0.7957747E-01  0.3463113E+00
         13   -1    0    0    0    0  0.00000000000E+00  0.00000000000E+00  0.14999999963E+04  0.15000000000E+04  0.10566000000E+00 0.  1.
        994   -1    0    0    0    0 -0.00000000000E+00 -0.00000000000E+00  0.11368683772E-12  0.17120000000E+03  0.17120000000E+03 0.  0.
         13    1    1    2    0    0  0.20399769130E+02  0.20188207544E+01  0.34173190687E+02  0.39850274071E+02  0.10566000000E+00 0.  1.
        994    1    1    2    0    0 -0.30881480851E+02  0.46641363756E+01  0.88128862653E+01  0.17424846338E+03  0.17120000000E+03 0.  0.
        998    1    1    2    0    0  0.10481711722E+02 -0.66829571300E+01  0.14570139193E+04  0.14571012625E+04  0.10000000000E+02 0.  1.
</event>
<event>
 5    1  0.1252945E-008  0.3762096E+03  0.7957747E-01  0.3467831E+00
         13   -1    0    0    0    0  0.00000000000E+00  0.00000000000E+00  0.14999999963E+04  0.15000000000E+04  0.10566000000E+00 0. -1.
        994   -1    0    0    0    0 -0.00000000000E+00 -0.00000000000E+00  0.11368683772E-12  0.17120000000E+03  0.17120000000E+03 0.  0.
         13    1    1    2    0    0  0.21756324799E+01 -0.23325436917E+02  0.41947124757E+02  0.48045622313E+02  0.10566000000E+00 0. -1.
        994    1    1    2    0    0  0.16446844285E+01  0.23105041437E+02  0.78774377173E+01  0.17293941700E+03  0.17120000000E+03 0.  0.
        998    1    1    2    0    0 -0.38203169084E+01  0.22039547978E+00  0.14501754338E+04  0.14502149607E+04  0.10000000000E+02 0. -1.
</event>
<event>
 5    1  0.1252945E-008  0.3758906E+03  0.7957747E-01  0.3469249E+00
         13   -1    0    0    0    0  0.00000000000E+00  0.00000000000E+00  0.14999999963E+04  0.15000000000E+04  0.10566000000E+00 0.  1.
        994   -1    0    0    0    0 -0.00000000000E+00 -0.00000000000E+00  0.11368683772E-12  0.17120000000E+03  0.17120000000E+03 0.  0.
         13    1    1    2    0    0  0.18883704043E+02  0.69050872837E+01  0.29541309478E+02  0.35734781915E+02  0.10566000000E+00 0.  1.
        994    1    1    2    0    0 -0.18335608679E+02 -0.38281877305E+01  0.74120358231E+01  0.17238105419E+03  0.17120000000E+03 0.  0.
        998    1    1    2    0    0 -0.54809536416E+00 -0.30768995533E+01  0.14630466510E+04  0.14630841639E+04  0.10000000000E+02 0.  0.
</event>
<event>
 5    1  0.1252945E-008  0.3857221E+03  0.7957747E-01  0.3426615E+00
         13   -1    0    0    0    0  0.00000000000E+00  0.00000000000E+00  0.14999999963E+04  0.15000000000E+04  0.10566000000E+00 0.  1.
        994   -1    0    0    0    0 -0.00000000000E+00 -0.00000000000E+00  0.11368683772E-12  0.17120000000E+03  0.17120000000E+03 0.  0.
         13    1    1    2    0    0 -0.18787755808E+01  0.11733571502E+02  0.55075141927E+02  0.56342603065E+02  0.10566000000E+00 0.  1.
        994    1    1    2    0    0 -0.68018088145E+01 -0.11613491704E+02  0.18665713692E+01  0.17173835297E+03  0.17120000000E+03 0.  0.
        998    1    1    2    0    0  0.86805843954E+01 -0.12007979751E+00  0.14430582830E+04  0.14431190440E+04  0.10000000000E+02 0.  1.
</event>
<event>
 5    1  0.1252945E-008  0.3812971E+03  0.7957747E-01  0.3445530E+00
         13   -1    0    0    0    0  0.00000000000E+00  0.00000000000E+00  0.14999999963E+04  0.15000000000E+04  0.10566000000E+00 0.  1.
        994   -1    0    0    0    0 -0.00000000000E+00 -0.00000000000E+00  0.11368683772E-12  0.17120000000E+03  0.17120000000E+03 0.  0.
         13    1    1    2    0    0  0.11394974832E+02 -0.16292159151E+02  0.57791967574E+02  0.61116303728E+02  0.10566000000E+00 0.  1.
        994    1    1    2    0    0 -0.25411323376E+01  0.28230995712E+01  0.35278402394E+01  0.17127846596E+03  0.17120000000E+03 0.  0.
        998    1    1    2    0    0 -0.88538424942E+01  0.13469059580E+02  0.14386801885E+04  0.14388052303E+04  0.10000000000E+02 0.  1.
</event>
<event>
 5    1  0.1252945E-008  0.3839630E+03  0.7957747E-01  0.3434082E+00
         13   -1    0    0    0    0  0.00000000000E+00  0.00000000000E+00  0.14999999963E+04  0.15000000000E+04  0.10566000000E+00 0. -1.
        994   -1    0    0    0    0 -0.00000000000E+00 -0.00000000000E+00  0.11368683772E-12  0.17120000000E+03  0.17120000000E+03 0.  0.
         13    1    1    2    0    0  0.16534404667E+02 -0.14049056395E+01  0.65254994805E+02  0.67331907804E+02  0.10566000000E+00 0. -1.
        994    1    1    2    0    0 -0.62275555174E+01  0.43458314362E+01  0.23361793146E+01  0.17138426542E+03  0.17120000000E+03 0.  0.
        998    1    1    2    0    0 -0.10306849150E+02 -0.29409257967E+01  0.14324088222E+04  0.14324838268E+04  0.10000000000E+02 0. -1.
</event>
<event>
 5    1  0.1252945E-008  0.3769527E+03  0.7957747E-01  0.3464536E+00
         13   -1    0    0    0    0  0.00000000000E+00  0.00000000000E+00  0.14999999963E+04  0.15000000000E+04  0.10566000000E+00 0. -1.
        994   -1    0    0    0    0 -0.00000000000E+00 -0.00000000000E+00  0.11368683772E-12  0.17120000000E+03  0.17120000000E+03 0.  0.
         13    1    1    2    0    0 -0.27077187433E+02  0.51898119794E+02  0.13322970158E+03  0.14552234696E+03  0.10566000000E+00 0. -1.
        994    1    1    2    0    0  0.19162071295E+02  0.21339819985E+02  0.17616587405E+02  0.17447738262E+03  0.17120000000E+03 0.  0.
        998    1    1    2    0    0  0.79151161388E+01 -0.73237939780E+02  0.13491537073E+04  0.13512002704E+04  0.10000000000E+02 0. -1.
</event>
<event>
 5    1  0.1252945E-008  0.3844857E+03  0.7957747E-01  0.3431856E+00
         13   -1    0    0    0    0  0.00000000000E+00  0.00000000000E+00  0.14999999963E+04  0.15000000000E+04  0.10566000000E+00 0. -1.
        994   -1    0    0    0    0 -0.00000000000E+00 -0.00000000000E+00  0.11368683772E-12  0.17120000000E+03  0.17120000000E+03 0.  0.
         13    1    1    2    0    0  0.93965435456E+01 -0.79634610000E+01  0.39693135477E+02  0.41560412771E+02  0.10566000000E+00 0. -1.
        994    1    1    2    0    0 -0.69424234211E+01  0.62280050270E+01  0.21722796429E+01  0.17146761819E+03  0.17120000000E+03 0.  0.
        998    1    1    2    0    0 -0.24541201245E+01  0.17354559730E+01  0.14581345812E+04  0.14581719690E+04  0.10000000000E+02 0. -1.
</event>
<event>
 5    1  0.1252945E-008  0.3814799E+03  0.7957747E-01  0.3444740E+00
         13   -1    0    0    0    0  0.00000000000E+00  0.00000000000E+00  0.14999999963E+04  0.15000000000E+04  0.10566000000E+00 0.  1.
        994   -1    0    0    0    0 -0.00000000000E+00 -0.00000000000E+00  0.11368683772E-12  0.17120000000E+03  0.17120000000E+03 0.  0.
         13    1    1    2    0    0  0.20966202846E+02  0.81828073287E+01  0.75169675733E+02  0.78466752905E+02  0.10566000000E+00 0.  1.
        994    1    1    2    0    0 -0.79429495546E+01 -0.69585560825E+01  0.37590104149E+01  0.17156655300E+03  0.17120000000E+03 0.  0.
        998    1    1    2    0    0 -0.13023253292E+02 -0.12242512462E+01  0.14210713101E+04  0.14211666941E+04  0.10000000000E+02 0.  1.
</event>
<event>
 5    1  0.1252945E-008  0.3850428E+03  0.7957747E-01  0.3429491E+00
         13   -1    0    0    0    0  0.00000000000E+00  0.00000000000E+00  0.14999999963E+04  0.15000000000E+04  0.10566000000E+00 0.  1.
        994   -1    0    0    0    0 -0.00000000000E+00 -0.00000000000E+00  0.11368683772E-12  0.17120000000E+03  0.17120000000E+03 0.  0.
         13    1    1    2    0    0 -0.48825174405E+01  0.11102027919E+02  0.46836962722E+02  0.48381879268E+02  0.10566000000E+00 0.  1.
        994    1    1    2    0    0  0.16621061906E+01 -0.30309870930E+01  0.16481977322E+01  0.17124282769E+03  0.17120000000E+03 0.  0.
        998    1    1    2    0    0  0.32204112498E+01 -0.80710408259E+01  0.14515148358E+04  0.14515752930E+04  0.10000000000E+02 0.  1.
</event>
<event>
 5    1  0.1252945E-008  0.3685936E+03  0.7957747E-01  0.3502379E+00
         13   -1    0    0    0    0  0.00000000000E+00  0.00000000000E+00  0.14999999963E+04  0.15000000000E+04  0.10566000000E+00 0. -1.
        994   -1    0    0    0    0 -0.00000000000E+00 -0.00000000000E+00  0.11368683772E-12  0.17120000000E+03  0.17120000000E+03 0.  0.
         13    1    1    2    0    0  0.28549050580E+02 -0.18651280620E+02  0.51946687765E+02  0.62140068326E+02  0.10566000000E+00 0. -1.
        994    1    1    2    0    0 -0.31952906387E+02  0.72796563962E+01  0.13942497041E+02  0.17486513331E+03  0.17120000000E+03 0.  0.
        998    1    1    2    0    0  0.34038558069E+01  0.11371624224E+02  0.14341108115E+04  0.14341947984E+04  0.10000000000E+02 0. -1.
</event>
<event>
 5    1  0.1252945E-008  0.3853573E+03  0.7957747E-01  0.3428158E+00
         13   -1    0    0    0    0  0.00000000000E+00  0.00000000000E+00  0.14999999963E+04  0.15000000000E+04  0.10566000000E+00 0.  1.
        994   -1    0    0    0    0 -0.00000000000E+00 -0.00000000000E+00  0.11368683772E-12  0.17120000000E+03  0.17120000000E+03 0.  0.
         13    1    1    2    0    0  0.20341472352E+01 -0.16827962352E+02  0.95276609091E+02  0.96772731055E+02  0.10566000000E+00 0.  1.
        994    1    1    2    0    0  0.19969775908E+00  0.16078594566E+02  0.23026517684E+01  0.17196890209E+03  0.17120000000E+03 0.  0.
        998    1    1    2    0    0 -0.22338449943E+01  0.74936778607E+00  0.14024207354E+04  0.14024583669E+04  0.10000000000E+02 0.  1.
</event>
<event>
 5    1  0.1252945E-008  0.3981063E+03  0.7957747E-01  0.3375920E+00
         13   -1    0    0    0    0  0.00000000000E+00  0.00000000000E+00  0.14999999963E+04  0.15000000000E+04  0.10566000000E+00 0. -1.
        994   -1    0    0    0    0 -0.00000000000E+00 -0.00000000000E+00  0.11368683772E-12  0.17120000000E+03  0.17120000000E+03 0.  0.
         13    1    1    2    0    0 -0.98227058679E+02  0.11665838787E+03  0.33576997494E+03  0.36878072313E+03  0.10566000000E+00 0. -1.
        994    1    1    2    0    0  0.92540916098E+02 -0.10738653973E+03  0.10985007686E+03  0.24793581721E+03  0.17120000000E+03 0.  0.
        998    1    1    2    0    0  0.56861425808E+01 -0.92718481407E+01  0.10543799445E+04  0.10544834597E+04  0.10000000000E+02 0. -1.
</event>
<event>
 5    1  0.1252945E-008  0.3788082E+03  0.7957747E-01  0.3456364E+00
         13   -1    0    0    0    0  0.00000000000E+00  0.00000000000E+00  0.14999999963E+04  0.15000000000E+04  0.10566000000E+00 0.  1.
        994   -1    0    0    0    0 -0.00000000000E+00 -0.00000000000E+00  0.11368683772E-12  0.17120000000E+03  0.17120000000E+03 0.  0.
         13    1    1    2    0    0  0.58404749061E+01  0.44993806405E+02  0.25432910369E+03  0.25834445593E+03  0.10566000000E+00 0.  1.
        994    1    1    2    0    0 -0.93998024815E+00 -0.58509453886E+01  0.48538266219E+01  0.17137128335E+03  0.17120000000E+03 0.  0.
        998    1    1    2    0    0 -0.49004946580E+01 -0.39142861017E+02  0.12408170660E+04  0.12414842607E+04  0.10000000000E+02 0.  1.
</event>
<event>
 5    1  0.1252945E-008  0.3852961E+03  0.7957747E-01  0.3428417E+00
         13   -1    0    0    0    0  0.00000000000E+00  0.00000000000E+00  0.14999999963E+04  0.15000000000E+04  0.10566000000E+00 0. -1.
        994   -1    0    0    0    0 -0.00000000000E+00 -0.00000000000E+00  0.11368683772E-12  0.17120000000E+03  0.17120000000E+03 0.  0.
         13    1    1    2    0    0 -0.12034937672E+02 -0.99811855444E+01  0.83199702644E+02  0.84656160282E+02  0.10566000000E+00 0. -1.
        994    1    1    2    0    0 -0.86544415551E+01  0.26681526102E+02  0.40725086186E+01  0.17353048297E+03  0.17120000000E+03 0.  0.
        998    1    1    2    0    0  0.20689379228E+02 -0.16700340558E+02  0.14127277850E+04  0.14130133567E+04  0.10000000000E+02 0. -1.
</event>
<event>
 5    1  0.1252945E-008  0.3838169E+03  0.7957747E-01  0.3434706E+00
         13   -1    0    0    0    0  0.00000000000E+00  0.00000000000E+00  0.14999999963E+04  0.15000000000E+04  0.10566000000E+00 0.  1.
        994   -1    0    0    0    0 -0.00000000000E+00 -0.00000000000E+00  0.11368683772E-12  0.17120000000E+03  0.17120000000E+03 0.  0.
         13    1    1    2    0    0  0.16707147929E+02 -0.75217600514E+01  0.82706204688E+02  0.84711469850E+02  0.10566000000E+00 0.  1.
        994    1    1    2    0    0  0.78048831034E+01  0.92789625191E+01  0.27041817063E+01  0.17165013238E+03  0.17120000000E+03 0.  0.
        998    1    1    2    0    0 -0.24512031032E+02 -0.17572024677E+01  0.14145896099E+04  0.14148383978E+04  0.10000000000E+02 0.  1.
</event>
<event>
 5    1  0.1252945E-008  0.3854365E+03  0.7957747E-01  0.3427823E+00
         13   -1    0    0    0    0  0.00000000000E+00  0.00000000000E+00  0.14999999963E+04  0.15000000000E+04  0.10566000000E+00 0.  1.
        994   -1    0    0    0    0 -0.00000000000E+00 -0.00000000000E+00  0.11368683772E-12  0.17120000000E+03  0.17120000000E+03 0.  0.
         13    1    1    2    0    0 -0.55161450393E+01 -0.11671871212E+02  0.64101929614E+02  0.65389058549E+02  0.10566000000E+00 0.  1.
        994    1    1    2    0    0 -0.42511440690E+00 -0.31863487146E+01  0.14475273588E+01  0.17123629544E+03  0.17120000000E+03 0.  0.
        998    1    1    2    0    0  0.59412594462E+01  0.14858219927E+02  0.14344505393E+04  0.14345746460E+04  0.10000000000E+02 0.  1.
</event>
<event>
 5    1  0.1252945E-008  0.3848372E+03  0.7957747E-01  0.3430363E+00
         13   -1    0    0    0    0  0.00000000000E+00  0.00000000000E+00  0.14999999963E+04  0.15000000000E+04  0.10566000000E+00 0. -1.
        994   -1    0    0    0    0 -0.00000000000E+00 -0.00000000000E+00  0.11368683772E-12  0.17120000000E+03  0.17120000000E+03 0.  0.
         13    1    1    2    0    0 -0.11642566243E+02 -0.78651597259E+00  0.38092089747E+02  0.39839508298E+02  0.10566000000E+00 0. -1.
        994    1    1    2    0    0  0.14346475576E+02  0.35872393506E+02  0.66378890203E+01  0.17563072495E+03  0.17120000000E+03 0.  0.
        998    1    1    2    0    0 -0.27039093323E+01 -0.35085877533E+02  0.14552700175E+04  0.14557297667E+04  0.10000000000E+02 0. -1.
</event>
<event>
 5    1  0.1252945E-008  0.3805482E+03  0.7957747E-01  0.3448775E+00
         13   -1    0    0    0    0  0.00000000000E+00  0.00000000000E+00  0.14999999963E+04  0.15000000000E+04  0.10566000000E+00 0. -1.
        994   -1    0    0    0    0 -0.00000000000E+00 -0.00000000000E+00  0.11368683772E-12  0.17120000000E+03  0.17120000000E+03 0.  0.
         13    1    1    2    0    0  0.19701549106E+02 -0.20261080218E+02  0.11614933345E+03  0.11953803258E+03  0.10566000000E+00 0. -1.
        994    1    1    2    0    0  0.71258621533E-01 -0.66094975407E+01  0.40024622417E+01  0.17137429866E+03  0.17120000000E+03 0.  0.
        998    1    1    2    0    0 -0.19772807727E+02  0.26870577759E+02  0.13798482006E+04  0.13802876688E+04  0.10000000000E+02 0. -1.
</event>
<event>
 5    1  0.1252945E-008  0.3844766E+03  0.7957747E-01  0.3431895E+00
         13   -1    0    0    0    0  0.00000000000E+00  0.00000000000E+00  0.14999999963E+04  0.15000000000E+04  0.10566000000E+00 0.  1.
        994   -1    0    0    0    0 -0.00000000000E+00 -0.00000000000E+00  0.11368683772E-12  0.17120000000E+03  0.17120000000E+03 0.  0.
         13    1    1    2    0    0  0.13189384261E+02  0.18822535037E+00  0.44382445388E+02  0.46301273293E+02  0.10566000000E+00 0.  1.
        994    1    1    2    0    0 -0.14862118896E+02  0.10105389377E+01  0.26215490353E+01  0.17186685628E+03  0.17120000000E+03 0.  0.
        998    1    1    2    0    0  0.16727346352E+01 -0.11987642881E+01  0.14529960019E+04  0.14530318704E+04  0.10000000000E+02 0.  1.
</event>
<event>
 5    1  0.1252945E-008  0.3798250E+03  0.7957747E-01  0.3451921E+00
         13   -1    0    0    0    0  0.00000000000E+00  0.00000000000E+00  0.14999999963E+04  0.15000000000E+04  0.10566000000E+00 0.  1.
        994   -1    0    0    0    0 -0.00000000000E+00 -0.00000000000E+00  0.11368683772E-12  0.17120000000E+03  0.17120000000E+03 0.  0.
         13    1    1    2    0    0 -0.14757527123E+02  0.53353967141E+01  0.26730767859E+02  0.30996712395E+02  0.10566000000E+00 0.  1.
        994    1    1    2    0    0  0.18540107586E+02 -0.74482497179E+01  0.55579691269E+01  0.17245156721E+03  0.17120000000E+03 0.  0.
        998    1    1    2    0    0 -0.37825804626E+01  0.21128530037E+01  0.14677112593E+04  0.14677517204E+04  0.10000000000E+02 0.  1.
</event>
<event>
 5    1  0.1252945E-008  0.3820285E+03  0.7957747E-01  0.3442373E+00
         13   -1    0    0    0    0  0.00000000000E+00  0.00000000000E+00  0.14999999963E+04  0.15000000000E+04  0.10566000000E+00 0.  1.
        994   -1    0    0    0    0 -0.00000000000E+00 -0.00000000000E+00  0.11368683772E-12  0.17120000000E+03  0.17120000000E+03 0.  0.
         13    1    1    2    0    0 -0.17395205163E+02  0.10673314033E+02  0.65872586957E+02  0.68961740636E+02  0.10566000000E+00 0.  1.
        994    1    1    2    0    0  0.32345672770E+01 -0.20080756474E+02  0.44875950819E+01  0.17246239508E+03  0.17120000000E+03 0.  0.
        998    1    1    2    0    0  0.14160637886E+02  0.94074424414E+01  0.14296398142E+04  0.14297758643E+04  0.10000000000E+02 0.  1.
</event>
<event>
 5    1  0.1252945E-008  0.3858413E+03  0.7957747E-01  0.3426112E+00
         13   -1    0    0    0    0  0.00000000000E+00  0.00000000000E+00  0.14999999963E+04  0.15000000000E+04  0.10566000000E+00 0. -1.
        994   -1    0    0    0    0 -0.00000000000E+00 -0.00000000000E+00  0.11368683772E-12  0.17120000000E+03  0.17120000000E+03 0.  0.
         13    1    1    2    0    0  0.13685138318E+02  0.27920062182E+01  0.81300086382E+02  0.82491172372E+02  0.10566000000E+00 0. -1.
        994    1    1    2    0    0 -0.84982369688E+01 -0.29330804134E+01  0.14781186631E+01  0.17144225800E+03  0.17120000000E+03 0.  0.
        998    1    1    2    0    0 -0.51869013494E+01  0.14107419515E+00  0.14172217912E+04  0.14172665696E+04  0.10000000000E+02 0. -1.
</event>
<event>
 5    1  0.1252945E-008  0.3790174E+03  0.7957747E-01  0.3455448E+00
         13   -1    0    0    0    0  0.00000000000E+00  0.00000000000E+00  0.14999999963E+04  0.15000000000E+04  0.10566000000E+00 0.  1.
        994   -1    0    0    0    0 -0.00000000000E+00 -0.00000000000E+00  0.11368683772E-12  0.17120000000E+03  0.17120000000E+03 0.  0.
         13    1    1    2    0    0  0.25230889578E+02 -0.28007170513E+02  0.16873520953E+03  0.17289471215E+03  0.10566000000E+00 0.  1.
        994    1    1    2    0    0  0.10414099331E+02  0.17908808674E+02  0.60706846176E+01  0.17255570725E+03  0.17120000000E+03 0.  0.
        998    1    1    2    0    0 -0.35644988909E+02  0.10098361839E+02  0.13251941021E+04  0.13257495806E+04  0.10000000000E+02 0.  1.
</event>
<event>
 5    1  0.1252945E-008  0.3720263E+03  0.7957747E-01  0.3486630E+00
         13   -1    0    0    0    0  0.00000000000E+00  0.00000000000E+00  0.14999999963E+04  0.15000000000E+04  0.10566000000E+00 0. -1.
        994   -1    0    0    0    0 -0.00000000000E+00 -0.00000000000E+00  0.11368683772E-12  0.17120000000E+03  0.17120000000E+03 0.  0.
         13    1    1    2    0    0  0.10246379881E+03 -0.52456178771E+02  0.55360163176E+03  0.56544253342E+03  0.10566000000E+00 0. -1.
        994    1    1    2    0    0 -0.90288327021E+02  0.53125590459E+02  0.46892290619E+02  0.20611316619E+03  0.17120000000E+03 0.  0.
        998    1    1    2    0    0 -0.12175471788E+02 -0.66941168779E+00  0.89950607390E+03  0.89964430038E+03  0.10000000000E+02 0. -1.
</event>
<event>
 5    1  0.1252945E-008  0.3837006E+03  0.7957747E-01  0.3435202E+00
         13   -1    0    0    0    0  0.00000000000E+00  0.00000000000E+00  0.14999999963E+04  0.15000000000E+04  0.10566000000E+00 0. -1.
        994   -1    0    0    0    0 -0.00000000000E+00 -0.00000000000E+00  0.11368683772E-12  0.17120000000E+03  0.17120000000E+03 0.  0.
         13    1    1    2    0    0  0.32698121421E+01 -0.20891129926E+02  0.10493220399E+03  0.10704162545E+03  0.10566000000E+00 0. -1.
        994    1    1    2    0    0  0.52309164423E+00  0.30505573222E+01  0.23082713108E+01  0.17124353314E+03  0.17120000000E+03 0.  0.
        998    1    1    2    0    0 -0.37929037864E+01  0.17840572604E+02  0.13927595210E+04  0.13929148414E+04  0.10000000000E+02 0. -1.
</event>
<event>
 5    1  0.1252945E-008  0.3856300E+03  0.7957747E-01  0.3427005E+00
         13   -1    0    0    0    0  0.00000000000E+00  0.00000000000E+00  0.14999999963E+04  0.15000000000E+04  0.10566000000E+00 0. -1.
        994   -1    0    0    0    0 -0.00000000000E+00 -0.00000000000E+00  0.11368683772E-12  0.17120000000E+03  0.17120000000E+03 0.  0.
         13    1    1    2    0    0  0.11739229490E+02 -0.76500648684E+01  0.76544333475E+02  0.77816316751E+02  0.10566000000E+00 0. -1.
        994    1    1    2    0    0  0.30468515917E+01  0.17384056526E+02  0.23406468642E+01  0.17212323304E+03  0.17120000000E+03 0.  0.
        998    1    1    2    0    0 -0.14786081082E+02 -0.97339916575E+01  0.14211150159E+04  0.14212604502E+04  0.10000000000E+02 0. -1.
</event>
<event>
 5    1  0.1252945E-008  0.3859973E+03  0.7957747E-01  0.3425454E+00
         13   -1    0    0    0    0  0.00000000000E+00  0.00000000000E+00  0.14999999963E+04  0.15000000000E+04  0.10566000000E+00 0. -1.
        994   -1    0    0    0    0 -0.00000000000E+00 -0.00000000000E+00  0.11368683772E-12  0.17120000000E+03  0.17120000000E+03 0.  0.
         13    1    1    2    0    0 -0.96320994318E+01 -0.36065332876E+01  0.46067932414E+02  0.47202224341E+02  0.10566000000E+00 0. -1.
        994    1    1    2    0    0  0.11609808511E+02 -0.11183048310E+01  0.15818858671E+01  0.17160413929E+03  0.17120000000E+03 0.  0.
        998    1    1    2    0    0 -0.19777090793E+01  0.47248381186E+01  0.14523501780E+04  0.14523936364E+04  0.10000000000E+02 0. -1.
</event>
<event>
 5    1  0.1252945E-008  0.3813325E+03  0.7957747E-01  0.3445377E+00
         13   -1    0    0    0    0  0.00000000000E+00  0.00000000000E+00  0.14999999963E+04  0.15000000000E+04  0.10566000000E+00 0. -1.
        994   -1    0    0    0    0 -0.00000000000E+00 -0.00000000000E+00  0.11368683772E-12  0.17120000000E+03  0.17120000000E+03 0.  0.
         13    1    1    2    0    0  0.28177558755E+00  0.19320526064E+02  0.52414768877E+02  0.55863058324E+02  0.10566000000E+00 0. -1.
        994    1    1    2    0    0 -0.11601657865E+01 -0.13898617000E+02  0.41096915725E+01  0.17181631792E+03  0.17120000000E+03 0.  0.
        998    1    1    2    0    0  0.87839019893E+00 -0.54219090645E+01  0.14434755358E+04  0.14435206238E+04  0.10000000000E+02 0. -1.
</event>
<event>
 5    1  0.1252945E-008  0.3816813E+03  0.7957747E-01  0.3443870E+00
         13   -1    0    0    0    0  0.00000000000E+00  0.00000000000E+00  0.14999999963E+04  0.15000000000E+04  0.10566000000E+00 0. -1.
        994   -1    0    0    0    0 -0.00000000000E+00 -0.00000000000E+00  0.11368683772E-12  0.17120000000E+03  0.17120000000E+03 0.  0.
         13    1    1    2    0    0  0.11549430878E+02  0.22113821775E+02  0.95882034860E+02  0.99074649835E+02  0.10566000000E+00 0. -1.
        994    1    1    2    0    0 -0.96781615896E+00 -0.12010923562E+02  0.37696690957E+01  0.17166493340E+03  0.17120000000E+03 0.  0.
        998    1    1    2    0    0 -0.10581614719E+02 -0.10102898213E+02  0.14003482923E+04  0.14004604168E+04  0.10000000000E+02 0. -1.
</event>
<event>
 5    1  0.1252945E-008  0.3805599E+03  0.7957747E-01  0.3448724E+00
         13   -1    0    0    0    0  0.00000000000E+00  0.00000000000E+00  0.14999999963E+04  0.15000000000E+04  0.10566000000E+00 0. -1.
        994   -1    0    0    0    0 -0.00000000000E+00 -0.00000000000E+00  0.11368683772E-12  0.17120000000E+03  0.17120000000E+03 0.  0.
         13    1    1    2    0    0  0.15417194587E+02  0.31143460127E+00  0.29232815409E+02  0.33050802429E+02  0.10566000000E+00 0. -1.
        994    1    1    2    0    0 -0.11940489651E+02 -0.39198256492E-01  0.43266563253E+01  0.17167043072E+03  0.17120000000E+03 0.  0.
        998    1    1    2    0    0 -0.34767049359E+01 -0.27223634478E+00  0.14664405245E+04  0.14664787668E+04  0.10000000000E+02 0. -1.
</event>
<event>
 5    1  0.1252945E-008  0.3831444E+03  0.7957747E-01  0.3437580E+00
         13   -1    0    0    0    0  0.00000000000E+00  0.00000000000E+00  0.14999999963E+04  0.15000000000E+04  0.10566000000E+00 0. -1.
        994   -1    0    0    0    0 -0.00000000000E+00 -0.00000000000E+00  0.11368683772E-12  0.17120000000E+03  0.17120000000E+03 0.  0.
         13    1    1    2    0    0 -0.16083758110E+02  0.37720160780E+01  0.54320137387E+02  0.56776789888E+02  0.10566000000E+00 0. -1.
        994    1    1    2    0    0  0.36878038608E+00 -0.18870480232E+02  0.37337085099E+01  0.17227771650E+03  0.17120000000E+03 0.  0.
        998    1    1    2    0    0  0.15714977724E+02  0.15098464154E+02  0.14419461504E+04  0.14421454936E+04  0.10000000000E+02 0. -1.
</event>
<event>
 5    1  0.1252945E-008  0.3810050E+03  0.7957747E-01  0.3446794E+00
         13   -1    0    0    0    0  0.00000000000E+00  0.00000000000E+00  0.14999999963E+04  0.15000000000E+04  0.10566000000E+00 0.  1.
        994   -1    0    0    0    0 -0.00000000000E+00 -0.00000000000E+00  0.11368683772E-12  0.17120000000E+03  0.17120000000E+03 0.  0.
         13    1    1    2    0    0  0.11241487975E+01 -0.25944791272E+02  0.10653469869E+03  0.10965422515E+03  0.10566000000E+00 0.  1.
        994    1    1    2    0    0  0.86231314838E+00 -0.10048008749E+02  0.39656292930E+01  0.17154262526E+03  0.17120000000E+03 0.  0.
        998    1    1    2    0    0 -0.19864619459E+01  0.35992800020E+02  0.13894996683E+04  0.13900031496E+04  0.10000000000E+02 0.  1.
</event>
<event>
 5    1  0.1252945E-008  0.3709076E+03  0.7957747E-01  0.3491730E+00
         13   -1    0    0    0    0  0.00000000000E+00  0.00000000000E+00  0.14999999963E+04  0.15000000000E+04  0.10566000000E+00 0.  1.
        994   -1    0    0    0    0 -0.00000000000E+00 -0.00000000000E+00  0.11368683772E-12  0.17120000000E+03  0.17120000000E+03 0.  0.
         13    1    1    2    0    0 -0.47446774156E+02  0.46681543895E+02  0.24419524486E+03  0.25310411236E+03  0.10566000000E+00 0.  1.
        994    1    1    2    0    0  0.24245558029E+02 -0.35250704848E+02  0.15131269291E+02  0.17711254780E+03  0.17120000000E+03 0.  0.
        998    1    1    2    0    0  0.23201216126E+02 -0.11430839047E+02  0.12406734821E+04  0.12409833398E+04  0.10000000000E+02 0.  1.
</event>
<event>
 5    1  0.1252945E-008  0.3772507E+03  0.7957747E-01  0.3463218E+00
         13   -1    0    0    0    0  0.00000000000E+00  0.00000000000E+00  0.14999999963E+04  0.15000000000E+04  0.10566000000E+00 0.  1.
        994   -1    0    0    0    0 -0.00000000000E+00 -0.00000000000E+00  0.11368683772E-12  0.17120000000E+03  0.17120000000E+03 0.  0.
         13    1    1    2    0    0  0.36126449212E+02  0.24266189277E+02  0.12299488845E+03  0.13046732167E+03  0.10566000000E+00 0.  1.
        994    1    1    2    0    0 -0.57253313911E+02 -0.78652997456E+02  0.38152967618E+02  0.20057249288E+03  0.17120000000E+03 0.  0.
        998    1    1    2    0    0  0.21126864699E+02  0.54386808179E+02  0.13388521402E+04  0.13401601854E+04  0.10000000000E+02 0.  1.
</event>
<event>
 5    1  0.1252945E-008  0.3756143E+03  0.7957747E-01  0.3470480E+00
         13   -1    0    0    0    0  0.00000000000E+00  0.00000000000E+00  0.14999999963E+04  0.15000000000E+04  0.10566000000E+00 0.  1.
        994   -1    0    0    0    0 -0.00000000000E+00 -0.00000000000E+00  0.11368683772E-12  0.17120000000E+03  0.17120000000E+03 0.  0.
         13    1    1    2    0    0 -0.69379704175E+02  0.12251785312E+03  0.51780918040E+03  0.53661021809E+03  0.10566000000E+00 0.  1.
        994    1    1    2    0    0  0.45817589327E+02 -0.11491901637E+03  0.70748442479E+02  0.22275640042E+03  0.17120000000E+03 0.  0.
        998    1    1    2    0    0  0.23562114848E+02 -0.75988367527E+01  0.91144237340E+03  0.91183338149E+03  0.10000000000E+02 0.  1.
</event>
<event>
 5    1  0.1252945E-008  0.3776552E+03  0.7957747E-01  0.3461432E+00
         13   -1    0    0    0    0  0.00000000000E+00  0.00000000000E+00  0.14999999963E+04  0.15000000000E+04  0.10566000000E+00 0.  1.
        994   -1    0    0    0    0 -0.00000000000E+00 -0.00000000000E+00  0.11368683772E-12  0.17120000000E+03  0.17120000000E+03 0.  0.
         13    1    1    2    0    0 -0.73333057981E+02 -0.13709648135E+02  0.44597709260E+03  0.45217393792E+03  0.10566000000E+00 0.  1.
        994    1    1    2    0    0  0.56008618099E+02  0.85123177263E+02  0.41141183746E+02  0.20343293148E+03  0.17120000000E+03 0.  0.
        998    1    1    2    0    0  0.17324439882E+02 -0.71413529128E+02  0.10128817199E+04  0.10155931306E+04  0.10000000000E+02 0.  1.
</event>
<event>
 5    1  0.1252945E-008  0.3837612E+03  0.7957747E-01  0.3434943E+00
         13   -1    0    0    0    0  0.00000000000E+00  0.00000000000E+00  0.14999999963E+04  0.15000000000E+04  0.10566000000E+00 0.  1.
        994   -1    0    0    0    0 -0.00000000000E+00 -0.00000000000E+00  0.11368683772E-12  0.17120000000E+03  0.17120000000E+03 0.  0.
         13    1    1    2    0    0  0.38560093073E+01  0.16254103183E+02  0.60399871766E+02  0.62667538259E+02  0.10566000000E+00 0.  1.
        994    1    1    2    0    0 -0.36204571422E+01 -0.14163260148E+02  0.29523760428E+01  0.17184836971E+03  0.17120000000E+03 0.  0.
        998    1    1    2    0    0 -0.23555216506E+00 -0.20908430350E+01  0.14366477485E+04  0.14366840920E+04  0.10000000000E+02 0.  1.
</event>
<event>
 5    1  0.1252945E-008  0.3835359E+03  0.7957747E-01  0.3435906E+00
         13   -1    0    0    0    0  0.00000000000E+00  0.00000000000E+00  0.14999999963E+04  0.15000000000E+04  0.10566000000E+00 0. -1.
        994   -1    0    0    0    0 -0.00000000000E+00 -0.00000000000E+00  0.11368683772E-12  0.17120000000E+03  0.17120000000E+03 0.  0.
         13    1    1    2    0    0 -0.11671354932E+02 -0.13028179930E+02  0.64695318133E+02  0.67018276243E+02  0.10566000000E+00 0. -1.
        994    1    1    2    0    0  0.82308115887E+01  0.61732884791E+01  0.27086537242E+01  0.17153026717E+03  0.17120000000E+03 0.  0.
        998    1    1    2    0    0  0.34405433434E+01  0.68548914508E+01  0.14325960244E+04  0.14326514566E+04  0.10000000000E+02 0. -1.
</event>
<event>
 5    1  0.1252945E-008  0.3698717E+03  0.7957747E-01  0.3496481E+00
         13   -1    0    0    0    0  0.00000000000E+00  0.00000000000E+00  0.14999999963E+04  0.15000000000E+04  0.10566000000E+00 0.  1.
        994   -1    0    0    0    0 -0.00000000000E+00 -0.00000000000E+00  0.11368683772E-12  0.17120000000E+03  0.17120000000E+03 0.  0.
         13    1    1    2    0    0  0.65218239422E+02 -0.30776831485E+02  0.20299835156E+03  0.21542742167E+03  0.10566000000E+00 0.  1.
        994    1    1    2    0    0 -0.65925171202E+02  0.31813439301E+02  0.29837232462E+02  0.18856808733E+03  0.17120000000E+03 0.  0.
        998    1    1    2    0    0  0.70693178016E+00 -0.10366078155E+01  0.12671644123E+04  0.12672044910E+04  0.10000000000E+02 0.  0.
</event>
<event>
 5    1  0.1252945E-008  0.3816025E+03  0.7957747E-01  0.3444210E+00
         13   -1    0    0    0    0  0.00000000000E+00  0.00000000000E+00  0.14999999963E+04  0.15000000000E+04  0.10566000000E+00 0. -1.
        994   -1    0    0    0    0 -0.00000000000E+00 -0.00000000000E+00  0.11368683772E-12  0.17120000000E+03  0.17120000000E+03 0.  0.
         13    1    1    2    0    0 -0.11091024393E+02 -0.22813215599E+02  0.10288960464E+03  0.10597044651E+03  0.10566000000E+00 0. -1.
        994    1    1    2    0    0 -0.18038171501E+01  0.41661560268E+01  0.33949213263E+01  0.17129382973E+03  0.17120000000E+03 0.  0.
        998    1    1    2    0    0  0.12894841543E+02  0.18647059572E+02  0.13937154703E+04  0.13939357238E+04  0.10000000000E+02 0. -1.
</event>
<event>
 5    1  0.1252945E-008  0.3758397E+03  0.7957747E-01  0.3469476E+00
         13   -1    0    0    0    0  0.00000000000E+00  0.00000000000E+00  0.14999999963E+04  0.15000000000E+04  0.10566000000E+00 0.  1.
        994   -1    0    0    0    0 -0.00000000000E+00 -0.00000000000E+00  0.11368683772E-12  0.17120000000E+03  0.17120000000E+03 0.  0.
         13    1    1    2    0    0 -0.94438593564E+02 -0.44879707185E+02  0.52410430275E+03  0.53443256580E+03  0.10566000000E+00 0.  1.
        994    1    1    2    0    0  0.19795988190E+02  0.15778981711E+02  0.16351131677E+02  0.17383226662E+03  0.17120000000E+03 0.  0.
        998    1    1    2    0    0  0.74642605374E+02  0.29100725475E+02  0.95954456186E+03  0.96293516757E+03  0.10000000000E+02 0.  1.
</event>
<event>
 5    1  0.1252945E-008  0.3759683E+03  0.7957747E-01  0.3468904E+00
         13   -1    0    0    0    0  0.00000000000E+00  0.00000000000E+00  0.14999999963E+04  0.15000000000E+04  0.10566000000E+00 0.  1.
        994   -1    0    0    0    0 -0.00000000000E+00 -0.00000000000E+00  0.11368683772E-12  0.17120000000E+03  0.17120000000E+03 0.  0.
         13    1    1    2    0    0  0.29154396367E+02 -0.51570572364E+02  0.25820395718E+03  0.26491281100E+03  0.10566000000E+00 0.  1.
        994    1    1    2    0    0 -0.34233857706E+02  0.34074436721E+02  0.14128212762E+02  0.17844346625E+03  0.17120000000E+03 0.  0.
        998    1    1    2    0    0  0.50794613390E+01  0.17496135643E+02  0.12276678263E+04  0.12278437228E+04  0.10000000000E+02 0.  1.
</event>
<event>
 5    1  0.1252945E-008  0.3717742E+03  0.7957747E-01  0.3487776E+00
         13   -1    0    0    0    0  0.00000000000E+00  0.00000000000E+00  0.14999999963E+04  0.15000000000E+04  0.10566000000E+00 0.  1.
        994   -1    0    0    0    0 -0.00000000000E+00 -0.00000000000E+00  0.11368683772E-12  0.17120000000E+03  0.17120000000E+03 0.  0.
         13    1    1    2    0    0  0.34789192883E+02  0.25154352996E+02  0.99687124101E+02  0.10853830334E+03  0.10566000000E+00 0.  1.
        994    1    1    2    0    0 -0.40782404674E+02 -0.22156628617E+02  0.15784100222E+02  0.17808059564E+03  0.17120000000E+03 0.  0.
        998    1    1    2    0    0  0.59932117919E+01 -0.29977243787E+01  0.13845287720E+04  0.13845811010E+04  0.10000000000E+02 0.  1.
</event>
<event>
 5    1  0.1252945E-008  0.3696417E+03  0.7957747E-01  0.3497539E+00
         13   -1    0    0    0    0  0.00000000000E+00  0.00000000000E+00  0.14999999963E+04  0.15000000000E+04  0.10566000000E+00 0. -1.
        994   -1    0    0    0    0 -0.00000000000E+00 -0.00000000000E+00  0.11368683772E-12  0.17120000000E+03  0.17120000000E+03 0.  0.
         13    1    1    2    0    0  0.35138818288E+02 -0.17406087750E+03  0.70109745858E+03  0.72323549637E+03  0.10566000000E+00 0. -1.
        994    1    1    2    0    0 -0.15953749020E+02  0.18486406546E+03  0.14012842910E+03  0.28874670812E+03  0.17120000000E+03 0.  0.
        998    1    1    2    0    0 -0.19185069267E+02 -0.10803187965E+02  0.65877410860E+03  0.65921779551E+03  0.10000000000E+02 0. -1.
</event>
<event>
 5    1  0.1252945E-008  0.4140145E+03  0.7957747E-01  0.3315228E+00
         13   -1    0    0    0    0  0.00000000000E+00  0.00000000000E+00  0.14999999963E+04  0.15000000000E+04  0.10566000000E+00 0. -1.
        994   -1    0    0    0    0 -0.00000000000E+00 -0.00000000000E+00  0.11368683772E-12  0.17120000000E+03  0.17120000000E+03 0.  0.
         13    1    1    2    0    0  0.37898248734E+02  0.68273796433E+01  0.54059323838E+01  0.38886059699E+02  0.10566000000E+00 0. -1.
        994    1    1    2    0    0 -0.46065887359E+02 -0.71586454636E+01  0.45516590954E+02  0.18317890772E+03  0.17120000000E+03 0.  0.
        998    1    1    2    0    0  0.81676386244E+01  0.33126582027E+00  0.14490774729E+04  0.14491350326E+04  0.10000000000E+02 0. -1.
</event>
<event>
 5    1  0.1252945E-008  0.3772664E+03  0.7957747E-01  0.3463148E+00
         13   -1    0    0    0    0  0.00000000000E+00  0.00000000000E+00  0.14999999963E+04  0.15000000000E+04  0.10566000000E+00 0. -1.
        994   -1    0    0    0    0 -0.00000000000E+00 -0.00000000000E+00  0.11368683772E-12  0.17120000000E+03  0.17120000000E+03 0.  0.
         13    1    1    2    0    0  0.49222292221E+02 -0.93814072193E+02  0.55894526396E+03  0.56889694450E+03  0.10566000000E+00 0. -1.
        994    1    1    2    0    0 -0.56445494843E+02  0.98953805224E+02  0.50632626161E+02  0.21178067024E+03  0.17120000000E+03 0.  0.
        998    1    1    2    0    0  0.72232026224E+01 -0.51397330312E+01  0.89042210616E+03  0.89052238526E+03  0.10000000000E+02 0. -1.
</event>
<event>
 5    1  0.1252945E-008  0.3816725E+03  0.7957747E-01  0.3443908E+00
         13   -1    0    0    0    0  0.00000000000E+00  0.00000000000E+00  0.14999999963E+04  0.15000000000E+04  0.10566000000E+00 0. -1.
        994   -1    0    0    0    0 -0.00000000000E+00 -0.00000000000E+00  0.11368683772E-12  0.17120000000E+03  0.17120000000E+03 0.  0.
         13    1    1    2    0    0  0.28898503946E+02 -0.76161788313E+01  0.14763522332E+03  0.15062967848E+03  0.10566000000E+00 0. -1.
        994    1    1    2    0    0 -0.84454829441E+01 -0.12575642617E+02  0.40545146693E+01  0.17191670093E+03  0.17120000000E+03 0.  0.
        998    1    1    2    0    0 -0.20453021002E+02  0.20191821448E+02  0.13483102583E+04  0.13486536206E+04  0.10000000000E+02 0. -1.
</event>
<event>
 5    1  0.1252945E-008  0.3772237E+03  0.7957747E-01  0.3463337E+00
         13   -1    0    0    0    0  0.00000000000E+00  0.00000000000E+00  0.14999999963E+04  0.15000000000E+04  0.10566000000E+00 0. -1.
        994   -1    0    0    0    0 -0.00000000000E+00 -0.00000000000E+00  0.11368683772E-12  0.17120000000E+03  0.17120000000E+03 0.  0.
         13    1    1    2    0    0  0.17165336970E+02 -0.15645629374E+02  0.46888573886E+02  0.52325749272E+02  0.10566000000E+00 0. -1.
        994    1    1    2    0    0 -0.10988693543E+01  0.17893391284E+02  0.66262490219E+01  0.17226354269E+03  0.17120000000E+03 0.  0.
        998    1    1    2    0    0 -0.16066467616E+02 -0.22477619094E+01  0.14464851734E+04  0.14466107080E+04  0.10000000000E+02 0. -1.
</event>
<event>
 5    1  0.1252945E-008  0.4068972E+03  0.7957747E-01  0.3341800E+00
         13   -1    0    0    0    0  0.00000000000E+00  0.00000000000E+00  0.14999999963E+04  0.15000000000E+04  0.10566000000E+00 0. -1.
        994   -1    0    0    0    0 -0.00000000000E+00 -0.00000000000E+00  0.11368683772E-12  0.17120000000E+03  0.17120000000E+03 0.  0.
         13    1    1    2    0    0 -0.97236237074E+02 -0.51796106323E+02  0.22496882414E+03  0.25049691701E+03  0.10566000000E+00 0. -1.
        994    1    1    2    0    0  0.58304143428E+02 -0.74957213389E+02  0.69323956906E+02  0.20768535813E+03  0.17120000000E+03 0.  0.
        998    1    1    2    0    0  0.38932093646E+02  0.12675331971E+03  0.12057072152E+04  0.12130177249E+04  0.10000000000E+02 0. -1.
</event>
<event>
 5    1  0.1252945E-008  0.3724514E+03  0.7957747E-01  0.3484700E+00
         13   -1    0    0    0    0  0.00000000000E+00  0.00000000000E+00  0.14999999963E+04  0.15000000000E+04  0.10566000000E+00 0.  1.
        994   -1    0    0    0    0 -0.00000000000E+00 -0.00000000000E+00  0.11368683772E-12  0.17120000000E+03  0.17120000000E+03 0.  0.
         13    1    1    2    0    0  0.13569680254E+02  0.17107330081E-01  0.77920528581E+01  0.15648123422E+02  0.10566000000E+00 0.  1.
        994    1    1    2    0    0 -0.15423827525E+02 -0.54287249827E+01  0.89105723858E+01  0.17220976689E+03  0.17120000000E+03 0.  0.
        998    1    1    2    0    0  0.18541472708E+01  0.54116176526E+01  0.14832973710E+04  0.14833421097E+04  0.10000000000E+02 0.  1.
</event>
<event>
 5    1  0.1252945E-008  0.3851976E+03  0.7957747E-01  0.3428835E+00
         13   -1    0    0    0    0  0.00000000000E+00  0.00000000000E+00  0.14999999963E+04  0.15000000000E+04  0.10566000000E+00 0. -1.
        994   -1    0    0    0    0 -0.00000000000E+00 -0.00000000000E+00  0.11368683772E-12  0.17120000000E+03  0.17120000000E+03 0.  0.
         13    1    1    2    0    0 -0.10476385660E+02  0.11302339032E+02  0.87056357530E+02  0.88409943301E+02  0.10566000000E+00 0. -1.
        994    1    1    2    0    0 -0.30363633835E+02 -0.25131446069E+02  0.66545947692E+01  0.17580461732E+03  0.17120000000E+03 0.  0.
        998    1    1    2    0    0  0.40840019495E+02  0.13829107037E+02  0.14062890440E+04  0.14069854394E+04  0.10000000000E+02 0. -1.
</event>
<event>
 5    1  0.1252945E-008  0.3844615E+03  0.7957747E-01  0.3431959E+00
         13   -1    0    0    0    0  0.00000000000E+00  0.00000000000E+00  0.14999999963E+04  0.15000000000E+04  0.10566000000E+00 0.  1.
        994   -1    0    0    0    0 -0.00000000000E+00 -0.00000000000E+00  0.11368683772E-12  0.17120000000E+03  0.17120000000E+03 0.  0.
         13    1    1    2    0    0 -0.18074655578E+02 -0.80651364305E+00  0.89773057498E+02  0.91578145073E+02  0.10566000000E+00 0.  1.
        994    1    1    2    0    0  0.53416893168E+01  0.29900994930E+01  0.20211794617E+01  0.17132133407E+03  0.17120000000E+03 0.  0.
        998    1    1    2    0    0  0.12732966261E+02 -0.21835858500E+01  0.14082057593E+04  0.14083005209E+04  0.10000000000E+02 0.  1.
</event>
<event>
 5    1  0.1252945E-008  0.3850988E+03  0.7957747E-01  0.3429253E+00
         13   -1    0    0    0    0  0.00000000000E+00  0.00000000000E+00  0.14999999963E+04  0.15000000000E+04  0.10566000000E+00 0. -1.
        994   -1    0    0    0    0 -0.00000000000E+00 -0.00000000000E+00  0.11368683772E-12  0.17120000000E+03  0.17120000000E+03 0.  0.
         13    1    1    2    0    0 -0.11988075551E+02 -0.97556847686E+00  0.47565995847E+02  0.49063232814E+02  0.10566000000E+00 0. -1.
        994    1    1    2    0    0  0.56486202639E+00  0.48840664636E+01  0.16605671087E+01  0.17127863456E+03  0.17120000000E+03 0.  0.
        998    1    1    2    0    0  0.11423213524E+02 -0.39084979867E+01  0.14507734333E+04  0.14508581326E+04  0.10000000000E+02 0. -1.
</event>
<event>
 5    1  0.1252945E-008  0.3830561E+03  0.7957747E-01  0.3437958E+00
         13   -1    0    0    0    0  0.00000000000E+00  0.00000000000E+00  0.14999999963E+04  0.15000000000E+04  0.10566000000E+00 0. -1.
        994   -1    0    0    0    0 -0.00000000000E+00 -0.00000000000E+00  0.11368683772E-12  0.17120000000E+03  0.17120000000E+03 0.  0.
         13    1    1    2    0    0  0.15909810433E+02 -0.35976103480E+01  0.52297755210E+02  0.54782581468E+02  0.10566000000E+00 0. -1.
        994    1    1    2    0    0 -0.12080437763E+01  0.80515796394E+01  0.28177302475E+01  0.17141664712E+03  0.17120000000E+03 0.  0.
        998    1    1    2    0    0 -0.14701766657E+02 -0.44539692914E+01  0.14448845108E+04  0.14450007714E+04  0.10000000000E+02 0. -1.
</event>
<event>
 5    1  0.1252945E-008  0.3732457E+03  0.7957747E-01  0.3481106E+00
         13   -1    0    0    0    0  0.00000000000E+00  0.00000000000E+00  0.14999999963E+04  0.15000000000E+04  0.10566000000E+00 0. -1.
        994   -1    0    0    0    0 -0.00000000000E+00 -0.00000000000E+00  0.11368683772E-12  0.17120000000E+03  0.17120000000E+03 0.  0.
         13    1    1    2    0    0  0.68497969582E+02  0.94948504246E+02  0.57393645918E+03  0.58575614434E+03  0.10566000000E+00 0. -1.
        994    1    1    2    0    0 -0.61314856225E+02 -0.93246397767E+02  0.51446087068E+02  0.21073808902E+03  0.17120000000E+03 0.  0.
        998    1    1    2    0    0 -0.71831133562E+01 -0.17021064782E+01  0.87461745003E+03  0.87470576664E+03  0.10000000000E+02 0.  0.
</event>
<event>
 5    1  0.1252945E-008  0.3825505E+03  0.7957747E-01  0.3440128E+00
         13   -1    0    0    0    0  0.00000000000E+00  0.00000000000E+00  0.14999999963E+04  0.15000000000E+04  0.10566000000E+00 0.  1.
        994   -1    0    0    0    0 -0.00000000000E+00 -0.00000000000E+00  0.11368683772E-12  0.17120000000E+03  0.17120000000E+03 0.  0.
         13    1    1    2    0    0  0.10615300707E+02 -0.19114235323E+02  0.90915564765E+02  0.93507698516E+02  0.10566000000E+00 0.  1.
        994    1    1    2    0    0 -0.34536229638E+01 -0.40743240269E+01  0.29457303419E+01  0.17130862487E+03  0.17120000000E+03 0.  0.
        998    1    1    2    0    0 -0.71616777430E+01  0.23188559350E+02  0.14061387012E+04  0.14063836766E+04  0.10000000000E+02 0.  1.
</event>
<event>
 5    1  0.1252945E-008  0.3845686E+03  0.7957747E-01  0.3431504E+00
         13   -1    0    0    0    0  0.00000000000E+00  0.00000000000E+00  0.14999999963E+04  0.15000000000E+04  0.10566000000E+00 0.  1.
        994   -1    0    0    0    0 -0.00000000000E+00 -0.00000000000E+00  0.11368683772E-12  0.17120000000E+03  0.17120000000E+03 0.  0.
         13    1    1    2    0    0 -0.80367261799E+01  0.88463592598E+01  0.40554025835E+02  0.42278685118E+02  0.10566000000E+00 0.  1.
        994    1    1    2    0    0 -0.55280738904E+01 -0.66952772693E+00  0.19466128852E+01  0.17130159710E+03  0.17120000000E+03 0.  0.
        998    1    1    2    0    0  0.13564800070E+02 -0.81768315329E+01  0.14574993576E+04  0.14576197178E+04  0.10000000000E+02 0.  1.
</event>
<event>
 5    1  0.1252945E-008  0.3709193E+03  0.7957747E-01  0.3491677E+00
         13   -1    0    0    0    0  0.00000000000E+00  0.00000000000E+00  0.14999999963E+04  0.15000000000E+04  0.10566000000E+00 0.  1.
        994   -1    0    0    0    0 -0.00000000000E+00 -0.00000000000E+00  0.11368683772E-12  0.17120000000E+03  0.17120000000E+03 0.  0.
         13    1    1    2    0    0  0.57166505045E+02  0.40703797679E+02  0.25042877183E+03  0.26007573776E+03  0.10566000000E+00 0.  1.
        994    1    1    2    0    0 -0.25461933841E+02 -0.66311950050E+02  0.26386412790E+02  0.18721983756E+03  0.17120000000E+03 0.  0.
        998    1    1    2    0    0 -0.31704571204E+02  0.25608152371E+02  0.12231848117E+04  0.12239044247E+04  0.10000000000E+02 0.  1.
</event>
<event>
 5    1  0.1252945E-008  0.3848186E+03  0.7957747E-01  0.3430442E+00
         13   -1    0    0    0    0  0.00000000000E+00  0.00000000000E+00  0.14999999963E+04  0.15000000000E+04  0.10566000000E+00 0.  1.
        994   -1    0    0    0    0 -0.00000000000E+00 -0.00000000000E+00  0.11368683772E-12  0.17120000000E+03  0.17120000000E+03 0.  0.
         13    1    1    2    0    0  0.82990998321E+01  0.74287924234E+01  0.38057927712E+02  0.39654495844E+02  0.10566000000E+00 0.  1.
        994    1    1    2    0    0 -0.89079513306E+01  0.17073490466E+02  0.29414974878E+01  0.17230481154E+03  0.17120000000E+03 0.  0.
        998    1    1    2    0    0  0.60885149847E+00 -0.24502282889E+02  0.14590005711E+04  0.14592406926E+04  0.10000000000E+02 0.  1.
</event>
<event>
 5    1  0.1252945E-008  0.3842632E+03  0.7957747E-01  0.3432803E+00
         13   -1    0    0    0    0  0.00000000000E+00  0.00000000000E+00  0.14999999963E+04  0.15000000000E+04  0.10566000000E+00 0. -1.
        994   -1    0    0    0    0 -0.00000000000E+00 -0.00000000000E+00  0.11368683772E-12  0.17120000000E+03  0.17120000000E+03 0.  0.
         13    1    1    2    0    0 -0.43147703884E+01  0.11894379556E+02  0.40264550834E+02  0.42205908667E+02  0.10566000000E+00 0. -1.
        994    1    1    2    0    0  0.57348785534E+00 -0.54256155360E+01  0.20945276576E+01  0.17129971757E+03  0.17120000000E+03 0.  0.
        998    1    1    2    0    0  0.37412825331E+01 -0.64687640195E+01  0.14576409178E+04  0.14576943738E+04  0.10000000000E+02 0. -1.
</event>
<event>
 5    1  0.1252945E-008  0.3837360E+03  0.7957747E-01  0.3435051E+00
         13   -1    0    0    0    0  0.00000000000E+00  0.00000000000E+00  0.14999999963E+04  0.15000000000E+04  0.10566000000E+00 0.  1.
        994   -1    0    0    0    0 -0.00000000000E+00 -0.00000000000E+00  0.11368683772E-12  0.17120000000E+03  0.17120000000E+03 0.  0.
         13    1    1    2    0    0 -0.11776659881E+02 -0.88065339950E+01  0.46061431701E+02  0.48351953562E+02  0.10566000000E+00 0.  1.
        994    1    1    2    0    0  0.12348194741E+02  0.93332111265E+01  0.30505569354E+01  0.17192536939E+03  0.17120000000E+03 0.  0.
        998    1    1    2    0    0 -0.57153485975E+00 -0.52667713149E+00  0.14508880076E+04  0.14509226770E+04  0.10000000000E+02 0.  1.
</event>
<event>
 5    1  0.1252945E-008  0.3795472E+03  0.7957747E-01  0.3453132E+00
         13   -1    0    0    0    0  0.00000000000E+00  0.00000000000E+00  0.14999999963E+04  0.15000000000E+04  0.10566000000E+00 0. -1.
        994   -1    0    0    0    0 -0.00000000000E+00 -0.00000000000E+00  0.11368683772E-12  0.17120000000E+03  0.17120000000E+03 0.  0.
         13    1    1    2    0    0  0.28493825107E+02  0.24221346600E+02  0.21088693583E+03  0.21417722234E+03  0.10566000000E+00 0. -1.
        994    1    1    2    0    0  0.13791773997E+01  0.20290499179E+02  0.57478353348E+01  0.17249951912E+03  0.17120000000E+03 0.  0.
        998    1    1    2    0    0 -0.29873002507E+02 -0.44511845779E+02  0.12833652251E+04  0.12845232585E+04  0.10000000000E+02 0. -1.
</event>
<event>
 5    1  0.1252945E-008  0.3802868E+03  0.7957747E-01  0.3449911E+00
         13   -1    0    0    0    0  0.00000000000E+00  0.00000000000E+00  0.14999999963E+04  0.15000000000E+04  0.10566000000E+00 0.  1.
        994   -1    0    0    0    0 -0.00000000000E+00 -0.00000000000E+00  0.11368683772E-12  0.17120000000E+03  0.17120000000E+03 0.  0.
         13    1    1    2    0    0 -0.11316052510E+02 -0.45076584997E+02  0.23735676622E+03  0.24186400558E+03  0.10566000000E+00 0.  1.
        994    1    1    2    0    0  0.14497571848E+02  0.39928214367E+02  0.10038461378E+02  0.17667668946E+03  0.17120000000E+03 0.  0.
        998    1    1    2    0    0 -0.31815193378E+01  0.51483706299E+01  0.12526047687E+04  0.12526593050E+04  0.10000000000E+02 0.  1.
</event>
<event>
 5    1  0.1252945E-008  0.3858702E+03  0.7957747E-01  0.3425990E+00
         13   -1    0    0    0    0  0.00000000000E+00  0.00000000000E+00  0.14999999963E+04  0.15000000000E+04  0.10566000000E+00 0.  1.
        994   -1    0    0    0    0 -0.00000000000E+00 -0.00000000000E+00  0.11368683772E-12  0.17120000000E+03  0.17120000000E+03 0.  0.
         13    1    1    2    0    0 -0.13727695796E+02 -0.20295569630E+01  0.78689092292E+02  0.79903398821E+02  0.10566000000E+00 0.  1.
        994    1    1    2    0    0  0.11817341440E+02  0.83438744522E+01  0.18852991921E+01  0.17182044160E+03  0.17120000000E+03 0.  0.
        998    1    1    2    0    0  0.19103543557E+01 -0.63143174891E+01  0.14194256048E+04  0.14194761596E+04  0.10000000000E+02 0.  1.
</event>
<event>
 5    1  0.1252945E-008  0.3823841E+03  0.7957747E-01  0.3440843E+00
         13   -1    0    0    0    0  0.00000000000E+00  0.00000000000E+00  0.14999999963E+04  0.15000000000E+04  0.10566000000E+00 0.  1.
        994   -1    0    0    0    0 -0.00000000000E+00 -0.00000000000E+00  0.11368683772E-12  0.17120000000E+03  0.17120000000E+03 0.  0.
         13    1    1    2    0    0 -0.13890948198E+02  0.25264162736E+02  0.12505219844E+03  0.12833277002E+03  0.10566000000E+00 0.  1.
        994    1    1    2    0    0  0.17868138069E+02 -0.30375396534E+02  0.70646800586E+01  0.17493222910E+03  0.17120000000E+03 0.  0.
        998    1    1    2    0    0 -0.39771898711E+01  0.51112337978E+01  0.13678831178E+04  0.13679350009E+04  0.10000000000E+02 0.  1.
</event>
<event>
 5    1  0.1252945E-008  0.3827026E+03  0.7957747E-01  0.3439475E+00
         13   -1    0    0    0    0  0.00000000000E+00  0.00000000000E+00  0.14999999963E+04  0.15000000000E+04  0.10566000000E+00 0.  1.
        994   -1    0    0    0    0 -0.00000000000E+00 -0.00000000000E+00  0.11368683772E-12  0.17120000000E+03  0.17120000000E+03 0.  0.
         13    1    1    2    0    0 -0.56322227027E+02 -0.42583929413E+02  0.40226923783E+03  0.40841906808E+03  0.10566000000E+00 0.  1.
        994    1    1    2    0    0  0.77006291775E+02  0.80510627055E+02  0.45050557853E+02  0.20916721255E+03  0.17120000000E+03 0.  0.
        998    1    1    2    0    0 -0.20684064748E+02 -0.37926697642E+02  0.10526802006E+04  0.10536137194E+04  0.10000000000E+02 0.  1.
</event>
<event>
 5    1  0.1252945E-008  0.3832052E+03  0.7957747E-01  0.3437320E+00
         13   -1    0    0    0    0  0.00000000000E+00  0.00000000000E+00  0.14999999963E+04  0.15000000000E+04  0.10566000000E+00 0.  1.
        994   -1    0    0    0    0 -0.00000000000E+00 -0.00000000000E+00  0.11368683772E-12  0.17120000000E+03  0.17120000000E+03 0.  0.
         13    1    1    2    0    0  0.90087279579E+01  0.11576062678E+02  0.42200916295E+02  0.44677633182E+02  0.10566000000E+00 0.  1.
        994    1    1    2    0    0 -0.31856970050E+01 -0.75878371411E+01  0.27478966590E+01  0.17141970387E+03  0.17120000000E+03 0.  0.
        998    1    1    2    0    0 -0.58230309529E+01 -0.39882255373E+01  0.14550511833E+04  0.14551026630E+04  0.10000000000E+02 0.  1.
</event>
<event>
 5    1  0.1252945E-008  0.3899661E+03  0.7957747E-01  0.3408880E+00
         13   -1    0    0    0    0  0.00000000000E+00  0.00000000000E+00  0.14999999963E+04  0.15000000000E+04  0.10566000000E+00 0. -1.
        994   -1    0    0    0    0 -0.00000000000E+00 -0.00000000000E+00  0.11368683772E-12  0.17120000000E+03  0.17120000000E+03 0.  0.
         13    1    1    2    0    0  0.73161400586E+01 -0.38139317191E+02  0.24613358976E+02  0.45977842764E+02  0.10566000000E+00 0. -1.
        994    1    1    2    0    0 -0.84829016719E+01  0.47842230201E+02  0.30847306872E+02  0.18061515704E+03  0.17120000000E+03 0.  0.
        998    1    1    2    0    0  0.11667616132E+01 -0.97029130105E+01  0.14445393304E+04  0.14446070002E+04  0.10000000000E+02 0. -1.
</event>
<event>
 5    1  0.1252945E-008  0.3820593E+03  0.7957747E-01  0.3442240E+00
         13   -1    0    0    0    0  0.00000000000E+00  0.00000000000E+00  0.14999999963E+04  0.15000000000E+04  0.10566000000E+00 0. -1.
        994   -1    0    0    0    0 -0.00000000000E+00 -0.00000000000E+00  0.11368683772E-12  0.17120000000E+03  0.17120000000E+03 0.  0.
         13    1    1    2    0    0 -0.28263177459E+02 -0.14633108142E+02  0.13514723535E+03  0.13884423445E+03  0.10566000000E+00 0. -1.
        994    1    1    2    0    0  0.33752821348E+02  0.37327692980E+02  0.11552308011E+02  0.17881696070E+03  0.17120000000E+03 0.  0.
        998    1    1    2    0    0 -0.54896438886E+01 -0.22694584838E+02  0.13533004529E+04  0.13535388049E+04  0.10000000000E+02 0. -1.
</event>
<event>
 5    1  0.1252945E-008  0.3851311E+03  0.7957747E-01  0.3429116E+00
         13   -1    0    0    0    0  0.00000000000E+00  0.00000000000E+00  0.14999999963E+04  0.15000000000E+04  0.10566000000E+00 0.  1.
        994   -1    0    0    0    0 -0.00000000000E+00 -0.00000000000E+00  0.11368683772E-12  0.17120000000E+03  0.17120000000E+03 0.  0.
         13    1    1    2    0    0 -0.27290494232E+00  0.13213413960E+02  0.55552722749E+02  0.57103283219E+02  0.10566000000E+00 0.  1.
        994    1    1    2    0    0  0.99834804248E+01 -0.95896065647E+01  0.21952505382E+01  0.17177278469E+03  0.17120000000E+03 0.  0.
        998    1    1    2    0    0 -0.97105754825E+01 -0.36238073950E+01  0.14422520230E+04  0.14423239321E+04  0.10000000000E+02 0.  1.
</event>
<event>
 5    1  0.1252945E-008  0.3818353E+03  0.7957747E-01  0.3443206E+00
         13   -1    0    0    0    0  0.00000000000E+00  0.00000000000E+00  0.14999999963E+04  0.15000000000E+04  0.10566000000E+00 0.  1.
        994   -1    0    0    0    0 -0.00000000000E+00 -0.00000000000E+00  0.11368683772E-12  0.17120000000E+03  0.17120000000E+03 0.  0.
         13    1    1    2    0    0 -0.18285950406E+01  0.22636811622E+02  0.74980933661E+02  0.78344882264E+02  0.10566000000E+00 0.  1.
        994    1    1    2    0    0 -0.53136713466E+01 -0.26102194017E+02  0.55708231943E+01  0.17334945546E+03  0.17120000000E+03 0.  0.
        998    1    1    2    0    0  0.71422663872E+01  0.34653823953E+01  0.14194482394E+04  0.14195056623E+04  0.10000000000E+02 0.  1.
</event>
<event>
 5    1  0.1252945E-008  0.3806891E+03  0.7957747E-01  0.3448164E+00
         13   -1    0    0    0    0  0.00000000000E+00  0.00000000000E+00  0.14999999963E+04  0.15000000000E+04  0.10566000000E+00 0.  1.
        994   -1    0    0    0    0 -0.00000000000E+00 -0.00000000000E+00  0.11368683772E-12  0.17120000000E+03  0.17120000000E+03 0.  0.
         13    1    1    2    0    0 -0.13138454372E+02 -0.93135015439E+00  0.21033420302E+02  0.24817379596E+02  0.10566000000E+00 0.  1.
        994    1    1    2    0    0  0.14794444560E+02  0.64858064859E+00  0.45174670305E+01  0.17189864384E+03  0.17120000000E+03 0.  0.
        998    1    1    2    0    0 -0.16559901878E+01  0.28276950580E+00  0.14744491089E+04  0.14744839766E+04  0.10000000000E+02 0.  1.
</event>
<event>
 5    1  0.1252945E-008  0.3789030E+03  0.7957747E-01  0.3455949E+00
         13   -1    0    0    0    0  0.00000000000E+00  0.00000000000E+00  0.14999999963E+04  0.15000000000E+04  0.10566000000E+00 0. -1.
        994   -1    0    0    0    0 -0.00000000000E+00 -0.00000000000E+00  0.11368683772E-12  0.17120000000E+03  0.17120000000E+03 0.  0.
         13    1    1    2    0    0  0.10107141037E+01 -0.11392902639E+02  0.11794414043E+02  0.16429824716E+02  0.10566000000E+00 0. -1.
        994    1    1    2    0    0  0.79863084869E+00  0.11601937085E+02  0.51417879788E+01  0.17167154901E+03  0.17120000000E+03 0.  0.
        998    1    1    2    0    0 -0.18093449524E+01 -0.20903444557E+00  0.14830637943E+04  0.14830986263E+04  0.10000000000E+02 0. -1.
</event>
<event>
 5    1  0.1252945E-008  0.3761867E+03  0.7957747E-01  0.3467932E+00
         13   -1    0    0    0    0  0.00000000000E+00  0.00000000000E+00  0.14999999963E+04  0.15000000000E+04  0.10566000000E+00 0.  1.
        994   -1    0    0    0    0 -0.00000000000E+00 -0.00000000000E+00  0.11368683772E-12  0.17120000000E+03  0.17120000000E+03 0.  0.
         13    1    1    2    0    0  0.87346338525E+00 -0.11664346633E+02  0.85989861356E+01  0.14518045573E+02  0.10566000000E+00 0.  1.
        994    1    1    2    0    0 -0.19763586672E+02  0.25636669781E+01  0.74164225445E+01  0.17251555023E+03  0.17120000000E+03 0.  0.
        998    1    1    2    0    0  0.18890123287E+02  0.91006796551E+01  0.14839845876E+04  0.14841664042E+04  0.10000000000E+02 0.  1.
</event>
<event>
 5    1  0.1252945E-008  0.3732987E+03  0.7957747E-01  0.3480867E+00
         13   -1    0    0    0    0  0.00000000000E+00  0.00000000000E+00  0.14999999963E+04  0.15000000000E+04  0.10566000000E+00 0. -1.
        994   -1    0    0    0    0 -0.00000000000E+00 -0.00000000000E+00  0.11368683772E-12  0.17120000000E+03  0.17120000000E+03 0.  0.
         13    1    1    2    0    0  0.14978505582E+02 -0.27085206247E+02  0.58645086889E+02  0.66311548068E+02  0.10566000000E+00 0. -1.
        994    1    1    2    0    0 -0.11478330626E+02  0.27801930160E+02  0.10654227835E+02  0.17414836194E+03  0.17120000000E+03 0.  0.
        998    1    1    2    0    0 -0.35001749557E+01 -0.71672391266E+00  0.14307006816E+04  0.14307400900E+04  0.10000000000E+02 0. -1.
</event>
<event>
 5    1  0.1252945E-008  0.3844564E+03  0.7957747E-01  0.3431981E+00
         13   -1    0    0    0    0  0.00000000000E+00  0.00000000000E+00  0.14999999963E+04  0.15000000000E+04  0.10566000000E+00 0. -1.
        994   -1    0    0    0    0 -0.00000000000E+00 -0.00000000000E+00  0.11368683772E-12  0.17120000000E+03  0.17120000000E+03 0.  0.
         13    1    1    2    0    0 -0.12495833596E+02  0.13618769150E+01  0.39969714752E+02  0.41899759276E+02  0.10566000000E+00 0. -1.
        994    1    1    2    0    0  0.15044114626E+02 -0.11547923728E+01  0.26506357229E+01  0.17188404463E+03  0.17120000000E+03 0.  0.
        998    1    1    2    0    0 -0.25482810305E+01 -0.20708454220E+00  0.14573796458E+04  0.14574161961E+04  0.10000000000E+02 0. -1.
</event>
<event>
 5    1  0.1252945E-008  0.3756642E+03  0.7957747E-01  0.3470257E+00
         13   -1    0    0    0    0  0.00000000000E+00  0.00000000000E+00  0.14999999963E+04  0.15000000000E+04  0.10566000000E+00 0. -1.
        994   -1    0    0    0    0 -0.00000000000E+00 -0.00000000000E+00  0.11368683772E-12  0.17120000000E+03  0.17120000000E+03 0.  0.
         13    1    1    2    0    0  0.23587589008E+02  0.41929560825E+01  0.44466761177E+02  0.50509991581E+02  0.10566000000E+00 0. -1.
        994    1    1    2    0    0 -0.56635731371E+01  0.12998943052E+02  0.70201972736E+01  0.17192955462E+03  0.17120000000E+03 0.  0.
        998    1    1    2    0    0 -0.17924015871E+02 -0.17191899134E+02  0.14485130378E+04  0.14487604538E+04  0.10000000000E+02 0. -1.
</event>
<event>
 5    1  0.1252945E-008  0.3696522E+03  0.7957747E-01  0.3497491E+00
         13   -1    0    0    0    0  0.00000000000E+00  0.00000000000E+00  0.14999999963E+04  0.15000000000E+04  0.10566000000E+00 0. -1.
        994   -1    0    0    0    0 -0.00000000000E+00 -0.00000000000E+00  0.11368683772E-12  0.17120000000E+03  0.17120000000E+03 0.  0.
         13    1    1    2    0    0 -0.10510701638E+02 -0.41948350607E+02  0.92579001326E+02  0.10218131736E+03  0.10566000000E+00 0. -1.
        994    1    1    2    0    0 -0.66625239611E+01  0.38992109273E+02  0.14887390882E+02  0.17634014920E+03  0.17120000000E+03 0.  0.
        998    1    1    2    0    0  0.17173225599E+02  0.29562413345E+01  0.13925336041E+04  0.13926785334E+04  0.10000000000E+02 0. -1.
</event>
<event>
 5    1  0.1252945E-008  0.3862437E+03  0.7957747E-01  0.3424415E+00
         13   -1    0    0    0    0  0.00000000000E+00  0.00000000000E+00  0.14999999963E+04  0.15000000000E+04  0.10566000000E+00 0. -1.
        994   -1    0    0    0    0 -0.00000000000E+00 -0.00000000000E+00  0.11368683772E-12  0.17120000000E+03  0.17120000000E+03 0.  0.
         13    1    1    2    0    0  0.10115972673E+02 -0.43882142915E+00  0.52684322824E+02  0.53648620698E+02  0.10566000000E+00 0. -1.
        994    1    1    2    0    0 -0.32787847874E+01  0.20412332347E+01  0.10627730244E+01  0.17124685851E+03  0.17120000000E+03 0.  0.
        998    1    1    2    0    0 -0.68371878853E+01 -0.16024118056E+01  0.14462529004E+04  0.14463045208E+04  0.10000000000E+02 0. -1.
</event>
<event>
 5    1  0.1252945E-008  0.3691673E+03  0.7957747E-01  0.3499727E+00
         13   -1    0    0    0    0  0.00000000000E+00  0.00000000000E+00  0.14999999963E+04  0.15000000000E+04  0.10566000000E+00 0.  1.
        994   -1    0    0    0    0 -0.00000000000E+00 -0.00000000000E+00  0.11368683772E-12  0.17120000000E+03  0.17120000000E+03 0.  0.
         13    1    1    2    0    0  0.31211899169E+02  0.47069359456E+02  0.13447608204E+03  0.14585449960E+03  0.10566000000E+00 0.  1.
        994    1    1    2    0    0 -0.52124546065E+02 -0.36005417004E+02  0.24622895491E+02  0.18419849440E+03  0.17120000000E+03 0.  0.
        998    1    1    2    0    0  0.20912646896E+02 -0.11063942452E+02  0.13409010188E+04  0.13411470060E+04  0.10000000000E+02 0.  1.
</event>
<event>
 5    1  0.1252945E-008  0.3800601E+03  0.7957747E-01  0.3450897E+00
         13   -1    0    0    0    0  0.00000000000E+00  0.00000000000E+00  0.14999999963E+04  0.15000000000E+04  0.10566000000E+00 0.  1.
        994   -1    0    0    0    0 -0.00000000000E+00 -0.00000000000E+00  0.11368683772E-12  0.17120000000E+03  0.17120000000E+03 0.  0.
         13    1    1    2    0    0 -0.55810263802E+00  0.19128047432E+02  0.39034685506E+02  0.43473112537E+02  0.10566000000E+00 0.  1.
        994    1    1    2    0    0 -0.19124158983E+02 -0.42049738100E+02  0.11268091926E+02  0.17768039798E+03  0.17120000000E+03 0.  0.
        998    1    1    2    0    0  0.19682261621E+02  0.22921690668E+02  0.14496972188E+04  0.14500464895E+04  0.10000000000E+02 0.  1.
</event>
<event>
 5    1  0.1252945E-008  0.4194913E+03  0.7957747E-01  0.3295385E+00
         13   -1    0    0    0    0  0.00000000000E+00  0.00000000000E+00  0.14999999963E+04  0.15000000000E+04  0.10566000000E+00 0. -1.
        994   -1    0    0    0    0 -0.00000000000E+00 -0.00000000000E+00  0.11368683772E-12  0.17120000000E+03  0.17120000000E+03 0.  0.
         13    1    1    2    0    0  0.82742917590E+02 -0.11068396674E+02  0.70475932651E+02  0.10925094079E+03  0.10566000000E+00 0. -1.
        994    1    1    2    0    0 -0.86231974718E+02  0.15871900107E+02  0.73556632305E+02  0.20593175771E+03  0.17120000000E+03 0.  0.
        998    1    1    2    0    0  0.34890571281E+01 -0.48035034339E+01  0.13559674313E+04  0.13560173015E+04  0.10000000000E+02 0. -1.
</event>
<event>
 5    1  0.1252945E-008  0.3762626E+03  0.7957747E-01  0.3467595E+00
         13   -1    0    0    0    0  0.00000000000E+00  0.00000000000E+00  0.14999999963E+04  0.15000000000E+04  0.10566000000E+00 0. -1.
        994   -1    0    0    0    0 -0.00000000000E+00 -0.00000000000E+00  0.11368683772E-12  0.17120000000E+03  0.17120000000E+03 0.  0.
         13    1    1    2    0    0 -0.21204205833E+01 -0.38185560409E+02  0.11450163770E+03  0.12071979708E+03  0.10566000000E+00 0. -1.
        994    1    1    2    0    0  0.79321277031E+01  0.31153371667E+02  0.95377673220E+01  0.17445303156E+03  0.17120000000E+03 0.  0.
        998    1    1    2    0    0 -0.58117071198E+01  0.70321887427E+01  0.13759605913E+04  0.13760271714E+04  0.10000000000E+02 0.  0.
</event>
<event>
 5    1  0.1252945E-008  0.3762674E+03  0.7957747E-01  0.3467574E+00
         13   -1    0    0    0    0  0.00000000000E+00  0.00000000000E+00  0.14999999963E+04  0.15000000000E+04  0.10566000000E+00 0.  1.
        994   -1    0    0    0    0 -0.00000000000E+00 -0.00000000000E+00  0.11368683772E-12  0.17120000000E+03  0.17120000000E+03 0.  0.
         13    1    1    2    0    0 -0.13688050462E+02  0.92386492276E+01  0.19575213556E+02  0.25610847600E+02  0.10566000000E+00 0.  1.
        994    1    1    2    0    0  0.10963577741E+02 -0.21160829557E+02  0.79541508909E+01  0.17303378069E+03  0.17120000000E+03 0.  0.
        998    1    1    2    0    0  0.27244727218E+01  0.11922180330E+02  0.14724706318E+04  0.14725553717E+04  0.10000000000E+02 0.  1.
</event>
<event>
 5    1  0.1252945E-008  0.3803929E+03  0.7957747E-01  0.3449450E+00
         13   -1    0    0    0    0  0.00000000000E+00  0.00000000000E+00  0.14999999963E+04  0.15000000000E+04  0.10566000000E+00 0.  1.
        994   -1    0    0    0    0 -0.00000000000E+00 -0.00000000000E+00  0.11368683772E-12  0.17120000000E+03  0.17120000000E+03 0.  0.
         13    1    1    2    0    0 -0.35796567285E+01 -0.28566679704E+02  0.11764149293E+03  0.12111317498E+03  0.10566000000E+00 0.  1.
        994    1    1    2    0    0 -0.14310750682E+02 -0.19067722835E+01  0.46311253620E+01  0.17187006920E+03  0.17120000000E+03 0.  0.
        998    1    1    2    0    0  0.17890407411E+02  0.30473451988E+02  0.13777273780E+04  0.13782167558E+04  0.10000000000E+02 0.  1.
</event>
<event>
 5    1  0.1252945E-008  0.3848692E+03  0.7957747E-01  0.3430227E+00
         13   -1    0    0    0    0  0.00000000000E+00  0.00000000000E+00  0.14999999963E+04  0.15000000000E+04  0.10566000000E+00 0.  1.
        994   -1    0    0    0    0 -0.00000000000E+00 -0.00000000000E+00  0.11368683772E-12  0.17120000000E+03  0.17120000000E+03 0.  0.
         13    1    1    2    0    0  0.10158074152E+02 -0.70908689510E+01  0.44745979713E+02  0.46429309251E+02  0.10566000000E+00 0.  1.
        994    1    1    2    0    0 -0.95998320728E+01  0.35783028439E+01  0.20404931837E+01  0.17151840904E+03  0.17120000000E+03 0.  0.
        998    1    1    2    0    0 -0.55824207947E+00  0.35125661071E+01  0.14532135234E+04  0.14532522817E+04  0.10000000000E+02 0.  1.
</event>
<event>
 5    1  0.1252945E-008  0.3761463E+03  0.7957747E-01  0.3468112E+00
         13   -1    0    0    0    0  0.00000000000E+00  0.00000000000E+00  0.14999999963E+04  0.15000000000E+04  0.10566000000E+00 0. -1.
        994   -1    0    0    0    0 -0.00000000000E+00 -0.00000000000E+00  0.11368683772E-12  0.17120000000E+03  0.17120000000E+03 0.  0.
         13    1    1    2    0    0 -0.99838921636E+01  0.12849669957E+02  0.28215935540E+01  0.16515588847E+02  0.10566000000E+00 0. -1.
        994    1    1    2    0    0  0.73465294106E+01 -0.14274692273E+02  0.15147774006E+02  0.17261701362E+03  0.17120000000E+03 0.  0.
        998    1    1    2    0    0  0.26373627530E+01  0.14250223163E+01  0.14820306287E+04  0.14820673975E+04  0.10000000000E+02 0. -1.
</event>
<event>
 5    1  0.1252945E-008  0.3796614E+03  0.7957747E-01  0.3452634E+00
         13   -1    0    0    0    0  0.00000000000E+00  0.00000000000E+00  0.14999999963E+04  0.15000000000E+04  0.10566000000E+00 0.  1.
        994   -1    0    0    0    0 -0.00000000000E+00 -0.00000000000E+00  0.11368683772E-12  0.17120000000E+03  0.17120000000E+03 0.  0.
         13    1    1    2    0    0 -0.17030425333E+02 -0.32154851069E+02  0.17001829064E+03  0.17386834142E+03  0.10566000000E+00 0.  1.
        994    1    1    2    0    0  0.75366398866E+00  0.52895407478E+01  0.43997225790E+01  0.17133985178E+03  0.17120000000E+03 0.  0.
        998    1    1    2    0    0  0.16276761344E+02  0.26865310322E+02  0.13255819831E+04  0.13259918068E+04  0.10000000000E+02 0.  1.
</event>
<event>
 5    1  0.1252945E-008  0.3821445E+03  0.7957747E-01  0.3441874E+00
         13   -1    0    0    0    0  0.00000000000E+00  0.00000000000E+00  0.14999999963E+04  0.15000000000E+04  0.10566000000E+00 0. -1.
        994   -1    0    0    0    0 -0.00000000000E+00 -0.00000000000E+00  0.11368683772E-12  0.17120000000E+03  0.17120000000E+03 0.  0.
         13    1    1    2    0    0  0.26137721018E+02 -0.30813916506E+02  0.22937211183E+03  0.23290396038E+03  0.10566000000E+00 0. -1.
        994    1    1    2    0    0 -0.94630970330E+01  0.45615393083E+02  0.10292338550E+02  0.17772362399E+03  0.17120000000E+03 0.  0.
        998    1    1    2    0    0 -0.16674623985E+02 -0.14801476577E+02  0.12603355459E+04  0.12605724156E+04  0.10000000000E+02 0. -1.
</event>
<event>
 5    1  0.1252945E-008  0.3713578E+03  0.7957747E-01  0.3489674E+00
         13   -1    0    0    0    0  0.00000000000E+00  0.00000000000E+00  0.14999999963E+04  0.15000000000E+04  0.10566000000E+00 0. -1.
        994   -1    0    0    0    0 -0.00000000000E+00 -0.00000000000E+00  0.11368683772E-12  0.17120000000E+03  0.17120000000E+03 0.  0.
         13    1    1    2    0    0 -0.78536296467E+02  0.69862409502E+02  0.40771176760E+03  0.42104346893E+03  0.10566000000E+00 0. -1.
        994    1    1    2    0    0  0.11576251537E+03 -0.51267799471E+02  0.65924496721E+02  0.22290093426E+03  0.17120000000E+03 0.  0.
        998    1    1    2    0    0 -0.37226218902E+02 -0.18594610031E+02  0.10263637320E+04  0.10272555968E+04  0.10000000000E+02 0. -1.
</event>
<event>
 5    1  0.1252945E-008  0.3945067E+03  0.7957747E-01  0.3390327E+00
         13   -1    0    0    0    0  0.00000000000E+00  0.00000000000E+00  0.14999999963E+04  0.15000000000E+04  0.10566000000E+00 0.  1.
        994   -1    0    0    0    0 -0.00000000000E+00 -0.00000000000E+00  0.11368683772E-12  0.17120000000E+03  0.17120000000E+03 0.  0.
         13    1    1    2    0    0 -0.13856926212E+02 -0.88863299100E+02  0.14854425297E+03  0.17364937830E+03  0.10566000000E+00 0.  1.
        994    1    1    2    0    0  0.14142775021E+02  0.76503297366E+02  0.48106284440E+02  0.19410416584E+03  0.17120000000E+03 0.  0.
        998    1    1    2    0    0 -0.28584880892E+00  0.12360001734E+02  0.13033494589E+04  0.13034464559E+04  0.10000000000E+02 0.  1.
</event>
<event>
 5    1  0.1252945E-008  0.3842838E+03  0.7957747E-01  0.3432715E+00
         13   -1    0    0    0    0  0.00000000000E+00  0.00000000000E+00  0.14999999963E+04  0.15000000000E+04  0.10566000000E+00 0. -1.
        994   -1    0    0    0    0 -0.00000000000E+00 -0.00000000000E+00  0.11368683772E-12  0.17120000000E+03  0.17120000000E+03 0.  0.
         13    1    1    2    0    0 -0.12888227442E+01  0.13719097222E+02  0.47049311930E+02  0.49025744358E+02  0.10566000000E+00 0. -1.
        994    1    1    2    0    0  0.17639162736E+01 -0.10676706803E+02  0.23722343061E+01  0.17155806878E+03  0.17120000000E+03 0.  0.
        998    1    1    2    0    0 -0.47509352942E+00 -0.30423904195E+01  0.14505784500E+04  0.14506161869E+04  0.10000000000E+02 0. -1.
</event>
<event>
 5    1  0.1252945E-008  0.3858617E+03  0.7957747E-01  0.3426026E+00
         13   -1    0    0    0    0  0.00000000000E+00  0.00000000000E+00  0.14999999963E+04  0.15000000000E+04  0.10566000000E+00 0. -1.
        994   -1    0    0    0    0 -0.00000000000E+00 -0.00000000000E+00  0.11368683772E-12  0.17120000000E+03  0.17120000000E+03 0.  0.
         13    1    1    2    0    0 -0.13837104660E+02 -0.75921406440E+00  0.79533404197E+02  0.80731749755E+02  0.10566000000E+00 0. -1.
        994    1    1    2    0    0  0.10578983240E+02  0.25082386572E+01  0.15906545837E+01  0.17155225539E+03  0.17120000000E+03 0.  0.
        998    1    1    2    0    0  0.32581214197E+01 -0.17490245928E+01  0.14188759375E+04  0.14189159949E+04  0.10000000000E+02 0. -1.
</event>
<event>
 5    1  0.1252945E-008  0.3808312E+03  0.7957747E-01  0.3447547E+00
         13   -1    0    0    0    0  0.00000000000E+00  0.00000000000E+00  0.14999999963E+04  0.15000000000E+04  0.10566000000E+00 0.  1.
        994   -1    0    0    0    0 -0.00000000000E+00 -0.00000000000E+00  0.11368683772E-12  0.17120000000E+03  0.17120000000E+03 0.  0.
         13    1    1    2    0    0  0.12561871647E+02 -0.42112113609E+02  0.22224140551E+03  0.22654466275E+03  0.10566000000E+00 0.  1.
        994    1    1    2    0    0 -0.31776997187E+02  0.37285477555E+02  0.11756848468E+02  0.17845909300E+03  0.17120000000E+03 0.  0.
        998    1    1    2    0    0  0.19215125540E+02  0.48266360537E+01  0.12660017423E+04  0.12661962443E+04  0.10000000000E+02 0.  1.
</event>
<event>
 5    1  0.1252945E-008  0.3846489E+03  0.7957747E-01  0.3431163E+00
         13   -1    0    0    0    0  0.00000000000E+00  0.00000000000E+00  0.14999999963E+04  0.15000000000E+04  0.10566000000E+00 0. -1.
        994   -1    0    0    0    0 -0.00000000000E+00 -0.00000000000E+00  0.11368683772E-12  0.17120000000E+03  0.17120000000E+03 0.  0.
         13    1    1    2    0    0 -0.95017742893E+01  0.13154520487E+02  0.75866698138E+02  0.77582808497E+02  0.10566000000E+00 0. -1.
        994    1    1    2    0    0  0.10482085659E+02  0.21180548222E+01  0.21811585139E+01  0.17154753781E+03  0.17120000000E+03 0.  0.
        998    1    1    2    0    0 -0.98031136939E+00 -0.15272575309E+02  0.14219521396E+04  0.14220696537E+04  0.10000000000E+02 0. -1.
</event>
<event>
 5    1  0.1252945E-008  0.3831604E+03  0.7957747E-01  0.3437512E+00
         13   -1    0    0    0    0  0.00000000000E+00  0.00000000000E+00  0.14999999963E+04  0.15000000000E+04  0.10566000000E+00 0. -1.
        994   -1    0    0    0    0 -0.00000000000E+00 -0.00000000000E+00  0.11368683772E-12  0.17120000000E+03  0.17120000000E+03 0.  0.
         13    1    1    2    0    0 -0.15099443568E+02  0.43772901255E+01  0.45859997777E+02  0.48479938377E+02  0.10566000000E+00 0. -1.
        994    1    1    2    0    0  0.21432436852E+02  0.27333863630E+01  0.40921894539E+01  0.17260650847E+03  0.17120000000E+03 0.  0.
        998    1    1    2    0    0 -0.63329932844E+01 -0.71106764885E+01  0.14500478090E+04  0.14501135532E+04  0.10000000000E+02 0. -1.
</event>
<event>
 5    1  0.1252945E-008  0.4281439E+03  0.7957747E-01  0.3265052E+00
         13   -1    0    0    0    0  0.00000000000E+00  0.00000000000E+00  0.14999999963E+04  0.15000000000E+04  0.10566000000E+00 0.  1.
        994   -1    0    0    0    0 -0.00000000000E+00 -0.00000000000E+00  0.11368683772E-12  0.17120000000E+03  0.17120000000E+03 0.  0.
         13    1    1    2    0    0  0.31285578032E+02  0.48457270975E+02  0.21166182955E+02  0.61440320377E+02  0.10566000000E+00 0.  1.
        994    1    1    2    0    0  0.12164870626E+02 -0.49223284435E+02  0.57290076370E+02  0.18751668901E+03  0.17120000000E+03 0.  0.
        998    1    1    2    0    0 -0.43450448659E+02  0.76601346054E+00  0.14215437370E+04  0.14222429906E+04  0.10000000000E+02 0.  1.
</event>
<event>
 5    1  0.1252945E-008  0.3831052E+03  0.7957747E-01  0.3437748E+00
         13   -1    0    0    0    0  0.00000000000E+00  0.00000000000E+00  0.14999999963E+04  0.15000000000E+04  0.10566000000E+00 0.  1.
        994   -1    0    0    0    0 -0.00000000000E+00 -0.00000000000E+00  0.11368683772E-12  0.17120000000E+03  0.17120000000E+03 0.  0.
         13    1    1    2    0    0  0.10768352954E+02 -0.90166829301E+01  0.40597234400E+02  0.42958172696E+02  0.10566000000E+00 0.  1.
        994    1    1    2    0    0  0.37126116668E+01 -0.10261205930E+02  0.29679083609E+01  0.17157308738E+03  0.17120000000E+03 0.  0.
        998    1    1    2    0    0 -0.14480964621E+02  0.19277888860E+02  0.14564348535E+04  0.14566687399E+04  0.10000000000E+02 0.  1.
</event>
<event>
 5    1  0.1252945E-008  0.3700905E+03  0.7957747E-01  0.3495475E+00
         13   -1    0    0    0    0  0.00000000000E+00  0.00000000000E+00  0.14999999963E+04  0.15000000000E+04  0.10566000000E+00 0.  1.
        994   -1    0    0    0    0 -0.00000000000E+00 -0.00000000000E+00  0.11368683772E-12  0.17120000000E+03  0.17120000000E+03 0.  0.
         13    1    1    2    0    0 -0.17882324459E+02 -0.11754553371E+00  0.13132738327E+02  0.22187188307E+02  0.10566000000E+00 0.  1.
        994    1    1    2    0    0  0.17924381485E+02 -0.10326438552E+02  0.10702279635E+02  0.17277701692E+03  0.17120000000E+03 0.  0.
        998    1    1    2    0    0 -0.42057026788E-01  0.10443984086E+02  0.14761649783E+04  0.14762357948E+04  0.10000000000E+02 0.  1.
</event>
<event>
 5    1  0.1252945E-008  0.3878294E+03  0.7957747E-01  0.3417760E+00
         13   -1    0    0    0    0  0.00000000000E+00  0.00000000000E+00  0.14999999963E+04  0.15000000000E+04  0.10566000000E+00 0. -1.
        994   -1    0    0    0    0 -0.00000000000E+00 -0.00000000000E+00  0.11368683772E-12  0.17120000000E+03  0.17120000000E+03 0.  0.
         13    1    1    2    0    0  0.27638871095E+02 -0.36919690416E+02  0.44876680072E+02  0.64349812076E+02  0.10566000000E+00 0. -1.
        994    1    1    2    0    0 -0.27214546546E+02  0.95890976527E+01  0.23808482721E+02  0.17523945385E+03  0.17120000000E+03 0.  0.
        998    1    1    2    0    0 -0.42432454984E+00  0.27330592763E+02  0.14313148335E+04  0.14316107341E+04  0.10000000000E+02 0. -1.
</event>
<event>
 5    1  0.1252945E-008  0.3705480E+03  0.7957747E-01  0.3493376E+00
         13   -1    0    0    0    0  0.00000000000E+00  0.00000000000E+00  0.14999999963E+04  0.15000000000E+04  0.10566000000E+00 0. -1.
        994   -1    0    0    0    0 -0.00000000000E+00 -0.00000000000E+00  0.11368683772E-12  0.17120000000E+03  0.17120000000E+03 0.  0.
         13    1    1    2    0    0 -0.37521581764E+02 -0.31306191438E+02  0.11275625597E+03  0.12288991474E+03  0.10566000000E+00 0. -1.
        994    1    1    2    0    0 -0.84994251192E+01  0.18052489832E+02  0.12624599080E+02  0.17282058071E+03  0.17120000000E+03 0.  0.
        998    1    1    2    0    0  0.46021006884E+02  0.13253701606E+02  0.13746191412E+04  0.13754895045E+04  0.10000000000E+02 0. -1.
</event>
<event>
 5    1  0.1252945E-008  0.3847116E+03  0.7957747E-01  0.3430896E+00
         13   -1    0    0    0    0  0.00000000000E+00  0.00000000000E+00  0.14999999963E+04  0.15000000000E+04  0.10566000000E+00 0.  1.
        994   -1    0    0    0    0 -0.00000000000E+00 -0.00000000000E+00  0.11368683772E-12  0.17120000000E+03  0.17120000000E+03 0.  0.
         13    1    1    2    0    0  0.89158651579E+01 -0.14488644279E+02  0.80026314092E+02  0.81814641573E+02  0.10566000000E+00 0.  1.
        994    1    1    2    0    0 -0.10673386997E+02  0.95387522668E+01  0.24481772773E+01  0.17181484964E+03  0.17120000000E+03 0.  0.
        998    1    1    2    0    0  0.17575218389E+01  0.49498920123E+01  0.14175255049E+04  0.14175705088E+04  0.10000000000E+02 0.  1.
</event>
<event>
 5    1  0.1252945E-008  0.3851990E+03  0.7957747E-01  0.3428829E+00
         13   -1    0    0    0    0  0.00000000000E+00  0.00000000000E+00  0.14999999963E+04  0.15000000000E+04  0.10566000000E+00 0.  1.
        994   -1    0    0    0    0 -0.00000000000E+00 -0.00000000000E+00  0.11368683772E-12  0.17120000000E+03  0.17120000000E+03 0.  0.
         13    1    1    2    0    0 -0.12446562008E+02 -0.11257611858E+02  0.98653394455E+02  0.10007074564E+03  0.10566000000E+00 0.  1.
        994    1    1    2    0    0  0.10579215680E+01  0.24726629790E+01  0.15551443871E+01  0.17122818616E+03  0.17120000000E+03 0.  0.
        998    1    1    2    0    0  0.11388640440E+02  0.87849488786E+01  0.13997914574E+04  0.13999010682E+04  0.10000000000E+02 0.  1.
</event>
<event>
 5    1  0.1252945E-008  0.3819705E+03  0.7957747E-01  0.3442623E+00
         13   -1    0    0    0    0  0.00000000000E+00  0.00000000000E+00  0.14999999963E+04  0.15000000000E+04  0.10566000000E+00 0. -1.
        994   -1    0    0    0    0 -0.00000000000E+00 -0.00000000000E+00  0.11368683772E-12  0.17120000000E+03  0.17120000000E+03 0.  0.
         13    1    1    2    0    0  0.10397886582E+02 -0.10536102234E+02  0.33229629789E+02  0.36377808560E+02  0.10566000000E+00 0. -1.
        994    1    1    2    0    0 -0.11310637038E+02  0.89148364916E+01  0.38309116817E+01  0.17184737619E+03  0.17120000000E+03 0.  0.
        998    1    1    2    0    0  0.91275045601E+00  0.16212657421E+01  0.14629394548E+04  0.14629748152E+04  0.10000000000E+02 0. -1.
</event>
<event>
 5    1  0.1252945E-008  0.3814224E+03  0.7957747E-01  0.3444988E+00
         13   -1    0    0    0    0  0.00000000000E+00  0.00000000000E+00  0.14999999963E+04  0.15000000000E+04  0.10566000000E+00 0.  1.
        994   -1    0    0    0    0 -0.00000000000E+00 -0.00000000000E+00  0.11368683772E-12  0.17120000000E+03  0.17120000000E+03 0.  0.
         13    1    1    2    0    0 -0.91923738075E+01  0.79022729104E+01  0.20364236135E+02  0.23699344522E+02  0.10566000000E+00 0.  1.
        994    1    1    2    0    0  0.61073291712E+01  0.39765313362E+00  0.35415005970E+01  0.17134596530E+03  0.17120000000E+03 0.  0.
        998    1    1    2    0    0  0.30850446363E+01 -0.82999260440E+01  0.14760942595E+04  0.14761546902E+04  0.10000000000E+02 0.  1.
</event>
<event>
 5    1  0.1252945E-008  0.3808479E+03  0.7957747E-01  0.3447475E+00
         13   -1    0    0    0    0  0.00000000000E+00  0.00000000000E+00  0.14999999963E+04  0.15000000000E+04  0.10566000000E+00 0.  1.
        994   -1    0    0    0    0 -0.00000000000E+00 -0.00000000000E+00  0.11368683772E-12  0.17120000000E+03  0.17120000000E+03 0.  0.
         13    1    1    2    0    0  0.24271242593E+02  0.21479231320E+02  0.14930123328E+03  0.15277866349E+03  0.10566000000E+00 0.  1.
        994    1    1    2    0    0 -0.68966811274E+01 -0.73767622488E+01  0.40457601344E+01  0.17154529725E+03  0.17120000000E+03 0.  0.
        998    1    1    2    0    0 -0.17374561466E+02 -0.14102469071E+02  0.13466530029E+04  0.13468760393E+04  0.10000000000E+02 0.  1.
</event>
<event>
 5    1  0.1252945E-008  0.3805797E+03  0.7957747E-01  0.3448638E+00
         13   -1    0    0    0    0  0.00000000000E+00  0.00000000000E+00  0.14999999963E+04  0.15000000000E+04  0.10566000000E+00 0.  1.
        994   -1    0    0    0    0 -0.00000000000E+00 -0.00000000000E+00  0.11368683772E-12  0.17120000000E+03  0.17120000000E+03 0.  0.
         13    1    1    2    0    0  0.16022982371E+02 -0.27995850906E+02  0.13779988422E+03  0.14152499033E+03  0.10566000000E+00 0.  1.
        994    1    1    2    0    0 -0.10287828843E+02  0.11256459927E+02  0.46170674528E+01  0.17193982850E+03  0.17120000000E+03 0.  0.
        998    1    1    2    0    0 -0.57351535272E+01  0.16739390979E+02  0.13575830446E+04  0.13577351812E+04  0.10000000000E+02 0.  1.
</event>
<event>
 5    1  0.1252945E-008  0.3851163E+03  0.7957747E-01  0.3429179E+00
         13   -1    0    0    0    0  0.00000000000E+00  0.00000000000E+00  0.14999999963E+04  0.15000000000E+04  0.10566000000E+00 0. -1.
        994   -1    0    0    0    0 -0.00000000000E+00 -0.00000000000E+00  0.11368683772E-12  0.17120000000E+03  0.17120000000E+03 0.  0.
         13    1    1    2    0    0 -0.11404182045E+02  0.51018717757E+01  0.49156024039E+02  0.50718934602E+02  0.10566000000E+00 0. -1.
        994    1    1    2    0    0  0.10155360948E+02 -0.19962227933E+01  0.19246339211E+01  0.17152335257E+03  0.17120000000E+03 0.  0.
        998    1    1    2    0    0  0.12488210977E+01 -0.31056489824E+01  0.14489193383E+04  0.14489577128E+04  0.10000000000E+02 0. -1.
</event>
<event>
 5    1  0.1252945E-008  0.3802310E+03  0.7957747E-01  0.3450153E+00
         13   -1    0    0    0    0  0.00000000000E+00  0.00000000000E+00  0.14999999963E+04  0.15000000000E+04  0.10566000000E+00 0. -1.
        994   -1    0    0    0    0 -0.00000000000E+00 -0.00000000000E+00  0.11368683772E-12  0.17120000000E+03  0.17120000000E+03 0.  0.
         13    1    1    2    0    0  0.11260508069E+03  0.21022442526E+02  0.45353236696E+03  0.46777501679E+03  0.10566000000E+00 0. -1.
        994    1    1    2    0    0 -0.41422942893E+02 -0.44495479272E+02  0.29981895175E+02  0.18413055670E+03  0.17120000000E+03 0.  0.
        998    1    1    2    0    0 -0.71182137794E+02  0.23473036746E+02  0.10164857341E+04  0.10192944265E+04  0.10000000000E+02 0. -1.
</event>
<event>
 5    1  0.1252945E-008  0.3772506E+03  0.7957747E-01  0.3463218E+00
         13   -1    0    0    0    0  0.00000000000E+00  0.00000000000E+00  0.14999999963E+04  0.15000000000E+04  0.10566000000E+00 0. -1.
        994   -1    0    0    0    0 -0.00000000000E+00 -0.00000000000E+00  0.11368683772E-12  0.17120000000E+03  0.17120000000E+03 0.  0.
         13    1    1    2    0    0 -0.28667614706E+02 -0.24659294765E+02  0.16137564376E+03  0.16574686275E+03  0.10566000000E+00 0. -1.
        994    1    1    2    0    0  0.52306578061E+02 -0.73260675643E+02  0.33371615554E+02  0.19628094515E+03  0.17120000000E+03 0.  0.
        998    1    1    2    0    0 -0.23638963355E+02  0.97919970408E+02  0.13052527370E+04  0.13091721921E+04  0.10000000000E+02 0. -1.
</event>
<event>
 5    1  0.1252945E-008  0.3833760E+03  0.7957747E-01  0.3436589E+00
         13   -1    0    0    0    0  0.00000000000E+00  0.00000000000E+00  0.14999999963E+04  0.15000000000E+04  0.10566000000E+00 0. -1.
        994   -1    0    0    0    0 -0.00000000000E+00 -0.00000000000E+00  0.11368683772E-12  0.17120000000E+03  0.17120000000E+03 0.  0.
         13    1    1    2    0    0  0.17956991284E+02  0.11033976014E+02  0.95298404257E+02  0.97601225303E+02  0.10566000000E+00 0. -1.
        994    1    1    2    0    0 -0.18262606599E+01 -0.67535139313E+01  0.26004143781E+01  0.17136261942E+03  0.17120000000E+03 0.  0.
        998    1    1    2    0    0 -0.16130730624E+02 -0.42804620828E+01  0.14021011776E+04  0.14022361553E+04  0.10000000000E+02 0. -1.
</event>
<event>
 5    1  0.1252945E-008  0.3725668E+03  0.7957747E-01  0.3484177E+00
         13   -1    0    0    0    0  0.00000000000E+00  0.00000000000E+00  0.14999999963E+04  0.15000000000E+04  0.10566000000E+00 0. -1.
        994   -1    0    0    0    0 -0.00000000000E+00 -0.00000000000E+00  0.11368683772E-12  0.17120000000E+03  0.17120000000E+03 0.  0.
         13    1    1    2    0    0  0.60243836636E+02 -0.10988986109E+01  0.19830217422E+03  0.20725416979E+03  0.10566000000E+00 0. -1.
        994    1    1    2    0    0 -0.59439630129E+02 -0.77681954058E+01  0.20351498213E+02  0.18252955369E+03  0.17120000000E+03 0.  0.
        998    1    1    2    0    0 -0.80420650649E+00  0.88670940168E+01  0.12813463238E+04  0.12814162765E+04  0.10000000000E+02 0. -1.
</event>
<event>
 5    1  0.1252945E-008  0.3832650E+03  0.7957747E-01  0.3437064E+00
         13   -1    0    0    0    0  0.00000000000E+00  0.00000000000E+00  0.14999999963E+04  0.15000000000E+04  0.10566000000E+00 0.  1.
        994   -1    0    0    0    0 -0.00000000000E+00 -0.00000000000E+00  0.11368683772E-12  0.17120000000E+03  0.17120000000E+03 0.  0.
         13    1    1    2    0    0  0.21242257885E+02  0.40037486320E+01  0.89829501115E+02  0.92393798265E+02  0.10566000000E+00 0.  1.
        994    1    1    2    0    0 -0.20894626821E+02  0.62098743675E+01  0.40670225347E+01  0.17263003401E+03  0.17120000000E+03 0.  0.
        998    1    1    2    0    0 -0.34763106427E+00 -0.10213622999E+02  0.14061034726E+04  0.14061761677E+04  0.10000000000E+02 0.  1.
</event>
<event>
 5    1  0.1252945E-008  0.3831259E+03  0.7957747E-01  0.3437659E+00
         13   -1    0    0    0    0  0.00000000000E+00  0.00000000000E+00  0.14999999963E+04  0.15000000000E+04  0.10566000000E+00 0. -1.
        994   -1    0    0    0    0 -0.00000000000E+00 -0.00000000000E+00  0.11368683772E-12  0.17120000000E+03  0.17120000000E+03 0.  0.
         13    1    1    2    0    0  0.45323333212E+01 -0.13576827862E+02  0.40145378023E+02  0.42620826374E+02  0.10566000000E+00 0. -1.
        994    1    1    2    0    0  0.56989484372E+00  0.40384241999E+01  0.26184942121E+01  0.17126859071E+03  0.17120000000E+03 0.  0.
        998    1    1    2    0    0 -0.51022281649E+01  0.95384036626E+01  0.14572361240E+04  0.14573105829E+04  0.10000000000E+02 0. -1.
</event>
<event>
 5    1  0.1252945E-008  0.3712789E+03  0.7957747E-01  0.3490034E+00
         13   -1    0    0    0    0  0.00000000000E+00  0.00000000000E+00  0.14999999963E+04  0.15000000000E+04  0.10566000000E+00 0.  1.
        994   -1    0    0    0    0 -0.00000000000E+00 -0.00000000000E+00  0.11368683772E-12  0.17120000000E+03  0.17120000000E+03 0.  0.
         13    1    1    2    0    0 -0.90167522768E+02  0.35553800488E+02  0.41312723719E+03  0.42434464786E+03  0.10566000000E+00 0.  1.
        994    1    1    2    0    0  0.88363837745E+02 -0.21513223655E+02  0.37637062574E+02  0.19747651782E+03  0.17120000000E+03 0.  0.
        998    1    1    2    0    0  0.18036850237E+01 -0.14040576834E+02  0.10492356965E+04  0.10493788343E+04  0.10000000000E+02 0.  1.
</event>
<event>
 5    1  0.1927355E-008  0.3866698E+03  0.7957747E-01  0.3422621E+00
         13   -1    0    0    0    0  0.00000000000E+00  0.00000000000E+00  0.14999999963E+04  0.15000000000E+04  0.10566000000E+00 0.  1.
        994   -1    0    0    0    0 -0.00000000000E+00 -0.00000000000E+00  0.11368683772E-12  0.17120000000E+03  0.17120000000E+03 0.  0.
         13    1    1    2    0    0 -0.12184126326E+02 -0.19622429796E+01  0.69991568627E+02  0.71071331595E+02  0.10566000000E+00 0.  1.
        994    1    1    2    0    0  0.43662221869E+02  0.19645761662E+02  0.83376373573E+01  0.17796432723E+03  0.17120000000E+03 0.  0.
        998    1    1    2    0    0 -0.31478095543E+02 -0.17683518682E+02  0.14216707903E+04  0.14221643412E+04  0.10000000000E+02 0.  1.
</event>
<event>
 5    1  0.1252945E-008  0.3784612E+03  0.7957747E-01  0.3457886E+00
         13   -1    0    0    0    0  0.00000000000E+00  0.00000000000E+00  0.14999999963E+04  0.15000000000E+04  0.10566000000E+00 0. -1.
        994   -1    0    0    0    0 -0.00000000000E+00 -0.00000000000E+00  0.11368683772E-12  0.17120000000E+03  0.17120000000E+03 0.  0.
         13    1    1    2    0    0 -0.15860123988E+02 -0.17127453535E+02  0.56351415917E+02  0.60994970591E+02  0.10566000000E+00 0. -1.
        994    1    1    2    0    0  0.49647954526E+02 -0.42422973149E+02  0.19377417667E+02  0.18425404298E+03  0.17120000000E+03 0.  0.
        998    1    1    2    0    0 -0.33787830538E+02  0.59550426684E+02  0.14242711627E+04  0.14259509864E+04  0.10000000000E+02 0. -1.
</event>
<event>
 5    1  0.1252945E-008  0.3712304E+03  0.7957747E-01  0.3490255E+00
         13   -1    0    0    0    0  0.00000000000E+00  0.00000000000E+00  0.14999999963E+04  0.15000000000E+04  0.10566000000E+00 0. -1.
        994   -1    0    0    0    0 -0.00000000000E+00 -0.00000000000E+00  0.11368683772E-12  0.17120000000E+03  0.17120000000E+03 0.  0.
         13    1    1    2    0    0 -0.39602320004E+02 -0.63285795934E+01  0.87170677748E+02  0.95953806034E+02  0.10566000000E+00 0. -1.
        994    1    1    2    0    0  0.33631050234E+02  0.79527619588E+01  0.12750498045E+02  0.17511798641E+03  0.17120000000E+03 0.  0.
        998    1    1    2    0    0  0.59712697696E+01 -0.16241823654E+01  0.14000788205E+04  0.14001282076E+04  0.10000000000E+02 0. -1.
</event>
<event>
 5    1  0.1252945E-008  0.3816757E+03  0.7957747E-01  0.3443894E+00
         13   -1    0    0    0    0  0.00000000000E+00  0.00000000000E+00  0.14999999963E+04  0.15000000000E+04  0.10566000000E+00 0.  1.
        994   -1    0    0    0    0 -0.00000000000E+00 -0.00000000000E+00  0.11368683772E-12  0.17120000000E+03  0.17120000000E+03 0.  0.
         13    1    1    2    0    0  0.14697939225E+02  0.28439681856E+00  0.31023609177E+02  0.34330537273E+02  0.10566000000E+00 0.  1.
        994    1    1    2    0    0 -0.15190343657E+02 -0.24756156032E+02  0.60992869486E+01  0.17375343192E+03  0.17120000000E+03 0.  0.
        998    1    1    2    0    0  0.49240443264E+00  0.24471759213E+02  0.14628771002E+04  0.14631160308E+04  0.10000000000E+02 0.  1.
</event>
<event>
 5    1  0.1252945E-008  0.3848205E+03  0.7957747E-01  0.3430434E+00
         13   -1    0    0    0    0  0.00000000000E+00  0.00000000000E+00  0.14999999963E+04  0.15000000000E+04  0.10566000000E+00 0. -1.
        994   -1    0    0    0    0 -0.00000000000E+00 -0.00000000000E+00  0.11368683772E-12  0.17120000000E+03  0.17120000000E+03 0.  0.
         13    1    1    2    0    0  0.25672588706E+02  0.54346806040E+01  0.11448354876E+02  0.28630290909E+02  0.10566000000E+00 0. -1.
        994    1    1    2    0    0  0.25382348155E+02  0.30640183385E+02  0.24862944873E+02  0.17751250791E+03  0.17120000000E+03 0.  0.
        998    1    1    2    0    0 -0.51054936862E+02 -0.36074863989E+02  0.14636886965E+04  0.14650572012E+04  0.10000000000E+02 0. -1.
</event>
<event>
 5    1  0.1252945E-008  0.3754815E+03  0.7957747E-01  0.3471072E+00
         13   -1    0    0    0    0  0.00000000000E+00  0.00000000000E+00  0.14999999963E+04  0.15000000000E+04  0.10566000000E+00 0.  1.
        994   -1    0    0    0    0 -0.00000000000E+00 -0.00000000000E+00  0.11368683772E-12  0.17120000000E+03  0.17120000000E+03 0.  0.
         13    1    1    2    0    0 -0.18108086734E+02  0.26144270708E+01  0.22672820992E+02  0.29134275516E+02  0.10566000000E+00 0.  1.
        994    1    1    2    0    0  0.21340215330E+02 -0.16700293075E+02  0.89276948713E+01  0.17356107949E+03  0.17120000000E+03 0.  0.
        998    1    1    2    0    0 -0.32321285963E+01  0.14085866004E+02  0.14683994804E+04  0.14685046450E+04  0.10000000000E+02 0.  1.
</event>
<event>
 5    1  0.1252945E-008  0.3768986E+03  0.7957747E-01  0.3464775E+00
         13   -1    0    0    0    0  0.00000000000E+00  0.00000000000E+00  0.14999999963E+04  0.15000000000E+04  0.10566000000E+00 0. -1.
        994   -1    0    0    0    0 -0.00000000000E+00 -0.00000000000E+00  0.11368683772E-12  0.17120000000E+03  0.17120000000E+03 0.  0.
         13    1    1    2    0    0  0.11529706059E+02 -0.47884103468E+02  0.21454892302E+03  0.22012967319E+03  0.10566000000E+00 0. -1.
        994    1    1    2    0    0 -0.90501537815E+01  0.24161595235E+02  0.79586151034E+01  0.17331609135E+03  0.17120000000E+03 0.  0.
        998    1    1    2    0    0 -0.24795522777E+01  0.23722508232E+02  0.12774924582E+04  0.12777542355E+04  0.10000000000E+02 0. -1.
</event>
<event>
 5    1  0.1252945E-008  0.3807594E+03  0.7957747E-01  0.3447859E+00
         13   -1    0    0    0    0  0.00000000000E+00  0.00000000000E+00  0.14999999963E+04  0.15000000000E+04  0.10566000000E+00 0. -1.
        994   -1    0    0    0    0 -0.00000000000E+00 -0.00000000000E+00  0.11368683772E-12  0.17120000000E+03  0.17120000000E+03 0.  0.
         13    1    1    2    0    0  0.11933962626E+01  0.11887107734E+02  0.17304540350E+02  0.21028214514E+02  0.10566000000E+00 0. -1.
        994    1    1    2    0    0 -0.13763427193E+00 -0.11928026630E+02  0.42249480284E+01  0.17166708173E+03  0.17120000000E+03 0.  0.
        998    1    1    2    0    0 -0.10557619907E+01  0.40918896089E-01  0.14784705079E+04  0.14785047038E+04  0.10000000000E+02 0. -1.
</event>
<event>
 5    1  0.1252945E-008  0.3825897E+03  0.7957747E-01  0.3439959E+00
         13   -1    0    0    0    0  0.00000000000E+00  0.00000000000E+00  0.14999999963E+04  0.15000000000E+04  0.10566000000E+00 0.  1.
        994   -1    0    0    0    0 -0.00000000000E+00 -0.00000000000E+00  0.11368683772E-12  0.17120000000E+03  0.17120000000E+03 0.  0.
         13    1    1    2    0    0 -0.14794514606E+02  0.29647472924E+01  0.40747151982E+02  0.43451224927E+02  0.10566000000E+00 0.  1.
        994    1    1    2    0    0 -0.27618356619E+01 -0.18600257956E+02  0.40044607741E+01  0.17227615342E+03  0.17120000000E+03 0.  0.
        998    1    1    2    0    0  0.17556350268E+02  0.15635510663E+02  0.14552483835E+04  0.14554726216E+04  0.10000000000E+02 0.  1.
</event>
<event>
 5    1  0.1252945E-008  0.3834366E+03  0.7957747E-01  0.3436330E+00
         13   -1    0    0    0    0  0.00000000000E+00  0.00000000000E+00  0.14999999963E+04  0.15000000000E+04  0.10566000000E+00 0. -1.
        994   -1    0    0    0    0 -0.00000000000E+00 -0.00000000000E+00  0.11368683772E-12  0.17120000000E+03  0.17120000000E+03 0.  0.
         13    1    1    2    0    0  0.73949675755E+01  0.21799158181E+02  0.12051703889E+03  0.12269578913E+03  0.10566000000E+00 0. -1.
        994    1    1    2    0    0 -0.22479877080E+01 -0.25919951118E+00  0.24252525658E+01  0.17123213041E+03  0.17120000000E+03 0.  0.
        998    1    1    2    0    0 -0.51469798676E+01 -0.21539958670E+02  0.13770577048E+04  0.13772720805E+04  0.10000000000E+02 0. -1.
</event>
<event>
 5    1  0.1252945E-008  0.3821124E+03  0.7957747E-01  0.3442012E+00
         13   -1    0    0    0    0  0.00000000000E+00  0.00000000000E+00  0.14999999963E+04  0.15000000000E+04  0.10566000000E+00 0.  1.
        994   -1    0    0    0    0 -0.00000000000E+00 -0.00000000000E+00  0.11368683772E-12  0.17120000000E+03  0.17120000000E+03 0.  0.
         13    1    1    2    0    0  0.10197561335E+02  0.24612630775E+02  0.12525067383E+03  0.12805277939E+03  0.10566000000E+00 0.  1.
        994    1    1    2    0    0 -0.24666985398E-01 -0.30214465340E+01  0.31009290729E+01  0.17125473865E+03  0.17120000000E+03 0.  0.
        998    1    1    2    0    0 -0.10172894350E+02 -0.21591184241E+02  0.13716483934E+04  0.13718924820E+04  0.10000000000E+02 0.  1.
</event>
<event>
 5    1  0.1252945E-008  0.3847494E+03  0.7957747E-01  0.3430736E+00
         13   -1    0    0    0    0  0.00000000000E+00  0.00000000000E+00  0.14999999963E+04  0.15000000000E+04  0.10566000000E+00 0.  1.
        994   -1    0    0    0    0 -0.00000000000E+00 -0.00000000000E+00  0.11368683772E-12  0.17120000000E+03  0.17120000000E+03 0.  0.
         13    1    1    2    0    0  0.38145291153E+01 -0.14725064124E+02  0.64100288183E+02  0.65880469450E+02  0.10566000000E+00 0.  1.
        994    1    1    2    0    0 -0.14299683742E+02  0.11280600940E+02  0.28472254139E+01  0.17218966173E+03  0.17120000000E+03 0.  0.
        998    1    1    2    0    0  0.10485154627E+02  0.34444631843E+01  0.14330524827E+04  0.14331298688E+04  0.10000000000E+02 0.  1.
</event>
<event>
 5    1  0.1252945E-008  0.3847964E+03  0.7957747E-01  0.3430536E+00
         13   -1    0    0    0    0  0.00000000000E+00  0.00000000000E+00  0.14999999963E+04  0.15000000000E+04  0.10566000000E+00 0.  1.
        994   -1    0    0    0    0 -0.00000000000E+00 -0.00000000000E+00  0.11368683772E-12  0.17120000000E+03  0.17120000000E+03 0.  0.
         13    1    1    2    0    0  0.15807511464E+02  0.52482166652E+01  0.84771612112E+02  0.86392468312E+02  0.10566000000E+00 0.  1.
        994    1    1    2    0    0 -0.33863759671E+01  0.15588356968E+01  0.17769947775E+01  0.17124980357E+03  0.17120000000E+03 0.  0.
        998    1    1    2    0    0 -0.12421135497E+02 -0.68070523619E+01  0.14134513894E+04  0.14135577281E+04  0.10000000000E+02 0.  1.
</event>
<event>
 5    1  0.1252945E-008  0.3843302E+03  0.7957747E-01  0.3432518E+00
         13   -1    0    0    0    0  0.00000000000E+00  0.00000000000E+00  0.14999999963E+04  0.15000000000E+04  0.10566000000E+00 0.  1.
        994   -1    0    0    0    0 -0.00000000000E+00 -0.00000000000E+00  0.11368683772E-12  0.17120000000E+03  0.17120000000E+03 0.  0.
         13    1    1    2    0    0 -0.19277817770E+02 -0.13060632749E+02  0.13354270094E+03  0.13555765756E+03  0.10566000000E+00 0.  1.
        994    1    1    2    0    0  0.17472380877E+02  0.64317999474E+01  0.31063945333E+01  0.17223745769E+03  0.17120000000E+03 0.  0.
        998    1    1    2    0    0  0.18054368935E+01  0.66288328020E+01  0.13633509008E+04  0.13634048848E+04  0.10000000000E+02 0.  1.
</event>
<event>
 5    1  0.1252945E-008  0.3848024E+03  0.7957747E-01  0.3430511E+00
         13   -1    0    0    0    0  0.00000000000E+00  0.00000000000E+00  0.14999999963E+04  0.15000000000E+04  0.10566000000E+00 0. -1.
        994   -1    0    0    0    0 -0.00000000000E+00 -0.00000000000E+00  0.11368683772E-12  0.17120000000E+03  0.17120000000E+03 0.  0.
         13    1    1    2    0    0 -0.12533548987E+02  0.92677609293E+01  0.71705711482E+02  0.73380525114E+02  0.10566000000E+00 0. -1.
        994    1    1    2    0    0  0.64755233930E+01 -0.29665253191E+01  0.18952291928E+01  0.17135858476E+03  0.17120000000E+03 0.  0.
        998    1    1    2    0    0  0.60580255937E+01 -0.63012356102E+01  0.14263990556E+04  0.14264608901E+04  0.10000000000E+02 0. -1.
</event>
<event>
 5    1  0.1252945E-008  0.3711736E+03  0.7957747E-01  0.3490515E+00
         13   -1    0    0    0    0  0.00000000000E+00  0.00000000000E+00  0.14999999963E+04  0.15000000000E+04  0.10566000000E+00 0. -1.
        994   -1    0    0    0    0 -0.00000000000E+00 -0.00000000000E+00  0.11368683772E-12  0.17120000000E+03  0.17120000000E+03 0.  0.
         13    1    1    2    0    0  0.37150224896E+01 -0.26700181290E+02  0.26003027634E+02  0.37454901992E+02  0.10566000000E+00 0. -1.
        994    1    1    2    0    0 -0.38763351328E+02  0.23414692738E+02  0.18794870048E+02  0.17808293681E+03  0.17120000000E+03 0.  0.
        998    1    1    2    0    0  0.35048328839E+02  0.32854885523E+01  0.14552020986E+04  0.14556621612E+04  0.10000000000E+02 0. -1.
</event>
<event>
 5    1  0.1252945E-008  0.3819270E+03  0.7957747E-01  0.3442811E+00
         13   -1    0    0    0    0  0.00000000000E+00  0.00000000000E+00  0.14999999963E+04  0.15000000000E+04  0.10566000000E+00 0.  1.
        994   -1    0    0    0    0 -0.00000000000E+00 -0.00000000000E+00  0.11368683772E-12  0.17120000000E+03  0.17120000000E+03 0.  0.
         13    1    1    2    0    0  0.26994519047E+02 -0.28373707351E+02  0.36946902657E+02  0.53841026248E+02  0.10566000000E+00 0.  1.
        994    1    1    2    0    0 -0.22408315029E+02  0.25398960716E+02  0.21587711531E+02  0.17584854016E+03  0.17120000000E+03 0.  0.
        998    1    1    2    0    0 -0.45862040181E+01  0.29747466347E+01  0.14414653821E+04  0.14415104336E+04  0.10000000000E+02 0.  1.
</event>
<event>
 5    1  0.1252945E-008  0.3702889E+03  0.7957747E-01  0.3494564E+00
         13   -1    0    0    0    0  0.00000000000E+00  0.00000000000E+00  0.14999999963E+04  0.15000000000E+04  0.10566000000E+00 0.  1.
        994   -1    0    0    0    0 -0.00000000000E+00 -0.00000000000E+00  0.11368683772E-12  0.17120000000E+03  0.17120000000E+03 0.  0.
         13    1    1    2    0    0  0.17361528682E+02  0.62309434843E+02  0.20049722814E+03  0.21067282218E+03  0.10566000000E+00 0.  1.
        994    1    1    2    0    0 -0.27902002328E+02 -0.56010167548E+02  0.22767760493E+02  0.18369396158E+03  0.17120000000E+03 0.  0.
        998    1    1    2    0    0  0.10540473646E+02 -0.62992672945E+01  0.12767350076E+04  0.12768332162E+04  0.10000000000E+02 0.  1.
</event>
<event>
 5    1  0.1252945E-008  0.3856294E+03  0.7957747E-01  0.3427007E+00
         13   -1    0    0    0    0  0.00000000000E+00  0.00000000000E+00  0.14999999963E+04  0.15000000000E+04  0.10566000000E+00 0. -1.
        994   -1    0    0    0    0 -0.00000000000E+00 -0.00000000000E+00  0.11368683772E-12  0.17120000000E+03  0.17120000000E+03 0.  0.
         13    1    1    2    0    0  0.96082392491E+01 -0.50266765526E+01  0.44961384157E+02  0.46250653703E+02  0.10566000000E+00 0. -1.
        994    1    1    2    0    0 -0.55140157567E+01  0.43840308523E+01  0.14808395845E+01  0.17135126782E+03  0.17120000000E+03 0.  0.
        998    1    1    2    0    0 -0.40942234924E+01  0.64264570038E+00  0.14535577725E+04  0.14535980785E+04  0.10000000000E+02 0. -1.
</event>
<event>
 5    1  0.1252945E-008  0.3856027E+03  0.7957747E-01  0.3427120E+00
         13   -1    0    0    0    0  0.00000000000E+00  0.00000000000E+00  0.14999999963E+04  0.15000000000E+04  0.10566000000E+00 0.  1.
        994   -1    0    0    0    0 -0.00000000000E+00 -0.00000000000E+00  0.11368683772E-12  0.17120000000E+03  0.17120000000E+03 0.  0.
         13    1    1    2    0    0 -0.54314514216E+01 -0.10898467710E+02  0.63517978281E+02  0.64674739983E+02  0.10566000000E+00 0.  1.
        994    1    1    2    0    0 -0.12978261599E+02 -0.41251480438E+01  0.19401187523E+01  0.17175172832E+03  0.17120000000E+03 0.  0.
        998    1    1    2    0    0  0.18409713021E+02  0.15023615754E+02  0.14345418992E+04  0.14347735317E+04  0.10000000000E+02 0.  1.
</event>
<event>
 5    1  0.1252945E-008  0.3862892E+03  0.7957747E-01  0.3424223E+00
         13   -1    0    0    0    0  0.00000000000E+00  0.00000000000E+00  0.14999999963E+04  0.15000000000E+04  0.10566000000E+00 0. -1.
        994   -1    0    0    0    0 -0.00000000000E+00 -0.00000000000E+00  0.11368683772E-12  0.17120000000E+03  0.17120000000E+03 0.  0.
         13    1    1    2    0    0 -0.95158814409E+01 -0.37388075575E+01  0.53493324459E+02  0.54461707715E+02  0.10566000000E+00 0. -1.
        994    1    1    2    0    0  0.92777495244E+01 -0.36515935819E+01  0.13170389550E+01  0.17149514676E+03  0.17120000000E+03 0.  0.
        998    1    1    2    0    0  0.23813191648E+00  0.73904011395E+01  0.14451896329E+04  0.14452431455E+04  0.10000000000E+02 0. -1.
</event>
<event>
 5    1  0.1252945E-008  0.3837873E+03  0.7957747E-01  0.3434832E+00
         13   -1    0    0    0    0  0.00000000000E+00  0.00000000000E+00  0.14999999963E+04  0.15000000000E+04  0.10566000000E+00 0.  1.
        994   -1    0    0    0    0 -0.00000000000E+00 -0.00000000000E+00  0.11368683772E-12  0.17120000000E+03  0.17120000000E+03 0.  0.
         13    1    1    2    0    0 -0.17745177599E+02 -0.13547579707E+02  0.10713141344E+03  0.10943298933E+03  0.10566000000E+00 0.  1.
        994    1    1    2    0    0  0.47485068403E+01  0.25859134463E+02  0.45189916411E+01  0.17326599331E+03  0.17120000000E+03 0.  0.
        998    1    1    2    0    0  0.12996670759E+02 -0.12311554756E+02  0.13883495912E+04  0.13885010174E+04  0.10000000000E+02 0.  1.
</event>
<event>
 5    1  0.1252945E-008  0.3782511E+03  0.7957747E-01  0.3458809E+00
         13   -1    0    0    0    0  0.00000000000E+00  0.00000000000E+00  0.14999999963E+04  0.15000000000E+04  0.10566000000E+00 0.  1.
        994   -1    0    0    0    0 -0.00000000000E+00 -0.00000000000E+00  0.11368683772E-12  0.17120000000E+03  0.17120000000E+03 0.  0.
         13    1    1    2    0    0 -0.19739644296E+01  0.11703304232E+02  0.11610763764E+02  0.16603760560E+02  0.10566000000E+00 0.  1.
        994    1    1    2    0    0 -0.18566804065E+01 -0.16422929136E+02  0.59375686450E+01  0.17209838635E+03  0.17120000000E+03 0.  0.
        998    1    1    2    0    0  0.38306448361E+01  0.47196249040E+01  0.14824516639E+04  0.14824978531E+04  0.10000000000E+02 0.  1.
</event>
<event>
 5    1  0.1252945E-008  0.3820512E+03  0.7957747E-01  0.3442275E+00
         13   -1    0    0    0    0  0.00000000000E+00  0.00000000000E+00  0.14999999963E+04  0.15000000000E+04  0.10566000000E+00 0.  1.
        994   -1    0    0    0    0 -0.00000000000E+00 -0.00000000000E+00  0.11368683772E-12  0.17120000000E+03  0.17120000000E+03 0.  0.
         13    1    1    2    0    0  0.20601827945E+01 -0.23819837197E+02  0.10756811454E+03  0.11019319138E+03  0.10566000000E+00 0.  1.
        994    1    1    2    0    0  0.12302982598E+02 -0.10658992633E+02  0.39815989026E+01  0.17201822762E+03  0.17120000000E+03 0.  0.
        998    1    1    2    0    0 -0.14363165393E+02  0.34478829830E+02  0.13884502828E+04  0.13889885810E+04  0.10000000000E+02 0.  1.
</event>
<event>
 5    1  0.1252945E-008  0.3789809E+03  0.7957747E-01  0.3455608E+00
         13   -1    0    0    0    0  0.00000000000E+00  0.00000000000E+00  0.14999999963E+04  0.15000000000E+04  0.10566000000E+00 0. -1.
        994   -1    0    0    0    0 -0.00000000000E+00 -0.00000000000E+00  0.11368683772E-12  0.17120000000E+03  0.17120000000E+03 0.  0.
         13    1    1    2    0    0 -0.13450659065E+02  0.10059832259E+01  0.17804770928E+02  0.22337261770E+02  0.10566000000E+00 0. -1.
        994    1    1    2    0    0  0.45217434272E+01 -0.18415126820E+01  0.47284069677E+01  0.17133486267E+03  0.17120000000E+03 0.  0.
        998    1    1    2    0    0  0.89289156382E+01  0.83552945612E+00  0.14774668184E+04  0.14775278756E+04  0.10000000000E+02 0. -1.
</event>
<event>
 5    1  0.1252945E-008  0.3770974E+03  0.7957747E-01  0.3463895E+00
         13   -1    0    0    0    0  0.00000000000E+00  0.00000000000E+00  0.14999999963E+04  0.15000000000E+04  0.10566000000E+00 0.  1.
        994   -1    0    0    0    0 -0.00000000000E+00 -0.00000000000E+00  0.11368683772E-12  0.17120000000E+03  0.17120000000E+03 0.  0.
         13    1    1    2    0    0  0.39043219719E+02  0.11592587245E+02  0.49820296855E+02  0.64349314120E+02  0.10566000000E+00 0.  1.
        994    1    1    2    0    0 -0.34902950518E+02 -0.72304031297E+01  0.19310792042E+02  0.17593419615E+03  0.17120000000E+03 0.  0.
        998    1    1    2    0    0 -0.41402692010E+01 -0.43621841149E+01  0.14308689074E+04  0.14309164897E+04  0.10000000000E+02 0.  1.
</event>
<event>
 5    1  0.1252945E-008  0.3779717E+03  0.7957747E-01  0.3460038E+00
         13   -1    0    0    0    0  0.00000000000E+00  0.00000000000E+00  0.14999999963E+04  0.15000000000E+04  0.10566000000E+00 0.  1.
        994   -1    0    0    0    0 -0.00000000000E+00 -0.00000000000E+00  0.11368683772E-12  0.17120000000E+03  0.17120000000E+03 0.  0.
         13    1    1    2    0    0  0.52359095935E+01  0.93302042140E+01  0.86118195302E+01  0.13734702749E+02  0.10566000000E+00 0.  1.
        994    1    1    2    0    0 -0.10444153890E+02 -0.11691511126E+02  0.59880958669E+01  0.17202054841E+03  0.17120000000E+03 0.  0.
        998    1    1    2    0    0  0.52082442962E+01  0.23613069117E+01  0.14854000809E+04  0.14854447488E+04  0.10000000000E+02 0.  1.
</event>
<event>
 5    1  0.1252945E-008  0.3690687E+03  0.7957747E-01  0.3500182E+00
         13   -1    0    0    0    0  0.00000000000E+00  0.00000000000E+00  0.14999999963E+04  0.15000000000E+04  0.10566000000E+00 0. -1.
        994   -1    0    0    0    0 -0.00000000000E+00 -0.00000000000E+00  0.11368683772E-12  0.17120000000E+03  0.17120000000E+03 0.  0.
         13    1    1    2    0    0 -0.18851313413E+03 -0.97942689023E+02  0.71309151867E+03  0.74406283151E+03  0.10566000000E+00 0. -1.
        994    1    1    2    0    0  0.18962414753E+03  0.12662845160E+03  0.22188247542E+03  0.36129400075E+03  0.17120000000E+03 0.  0.
        998    1    1    2    0    0 -0.11110133982E+01 -0.28685762575E+02  0.56502600219E+03  0.56584316773E+03  0.10000000000E+02 0. -1.
</event>
<event>
 5    1  0.1252945E-008  0.3797539E+03  0.7957747E-01  0.3452231E+00
         13   -1    0    0    0    0  0.00000000000E+00  0.00000000000E+00  0.14999999963E+04  0.15000000000E+04  0.10566000000E+00 0. -1.
        994   -1    0    0    0    0 -0.00000000000E+00 -0.00000000000E+00  0.11368683772E-12  0.17120000000E+03  0.17120000000E+03 0.  0.
         13    1    1    2    0    0 -0.42115932143E+00  0.14078966700E+02  0.20947418430E+02  0.25242824355E+02  0.10566000000E+00 0. -1.
        994    1    1    2    0    0  0.10016387896E+02 -0.19619509093E+02  0.58826123684E+01  0.17271160439E+03  0.17120000000E+03 0.  0.
        998    1    1    2    0    0 -0.95952285746E+01  0.55405423927E+01  0.14731699655E+04  0.14732455713E+04  0.10000000000E+02 0. -1.
</event>
<event>
 5    1  0.1252945E-008  0.3763020E+03  0.7957747E-01  0.3467420E+00
         13   -1    0    0    0    0  0.00000000000E+00  0.00000000000E+00  0.14999999963E+04  0.15000000000E+04  0.10566000000E+00 0. -1.
        994   -1    0    0    0    0 -0.00000000000E+00 -0.00000000000E+00  0.11368683772E-12  0.17120000000E+03  0.17120000000E+03 0.  0.
         13    1    1    2    0    0  0.64018780881E+02 -0.13374267413E+02  0.27300164574E+03  0.28072617455E+03  0.10566000000E+00 0. -1.
        994    1    1    2    0    0 -0.72936899688E+02  0.95573996314E+01  0.24550129684E+02  0.18794489642E+03  0.17120000000E+03 0.  0.
        998    1    1    2    0    0  0.89181188071E+01  0.38168677814E+01  0.12024482208E+04  0.12025289290E+04  0.10000000000E+02 0. -1.
</event>
<event>
 5    1  0.1357996E-008  0.3855115E+03  0.7957747E-01  0.3427506E+00
         13   -1    0    0    0    0  0.00000000000E+00  0.00000000000E+00  0.14999999963E+04  0.15000000000E+04  0.10566000000E+00 0. -1.
        994   -1    0    0    0    0 -0.00000000000E+00 -0.00000000000E+00  0.11368683772E-12  0.17120000000E+03  0.17120000000E+03 0.  0.
         13    1    1    2    0    0  0.75829675732E+01  0.86424697660E+01  0.46635649833E+02  0.48032162977E+02  0.10566000000E+00 0. -1.
        994    1    1    2    0    0 -0.93423989663E+01 -0.97899896347E+01  0.19778608905E+01  0.17174538203E+03  0.17120000000E+03 0.  0.
        998    1    1    2    0    0  0.17594313932E+01  0.11475198686E+01  0.14513864856E+04  0.14514224550E+04  0.10000000000E+02 0. -1.
</event>
<event>
 5    1  0.1252945E-008  0.3690471E+03  0.7957747E-01  0.3500282E+00
         13   -1    0    0    0    0  0.00000000000E+00  0.00000000000E+00  0.14999999963E+04  0.15000000000E+04  0.10566000000E+00 0. -1.
        994   -1    0    0    0    0 -0.00000000000E+00 -0.00000000000E+00  0.11368683772E-12  0.17120000000E+03  0.17120000000E+03 0.  0.
         13    1    1    2    0    0 -0.33965483635E+02  0.30101617688E+02  0.10135986140E+03  0.11105671584E+03  0.10566000000E+00 0. -1.
        994    1    1    2    0    0  0.25954091456E+02  0.12677813797E+02  0.13348493121E+02  0.17413203064E+03  0.17120000000E+03 0.  0.
        998    1    1    2    0    0  0.80113921788E+01 -0.42779431485E+02  0.13852916418E+04  0.13860112535E+04  0.10000000000E+02 0. -1.
</event>
<event>
 5    1  0.1252945E-008  0.3742585E+03  0.7957747E-01  0.3476546E+00
         13   -1    0    0    0    0  0.00000000000E+00  0.00000000000E+00  0.14999999963E+04  0.15000000000E+04  0.10566000000E+00 0.  1.
        994   -1    0    0    0    0 -0.00000000000E+00 -0.00000000000E+00  0.11368683772E-12  0.17120000000E+03  0.17120000000E+03 0.  0.
         13    1    1    2    0    0 -0.33188791288E+02 -0.23364495490E+02  0.10530600108E+03  0.11285725739E+03  0.10566000000E+00 0.  1.
        994    1    1    2    0    0  0.36232771888E+02  0.24868971692E+02  0.13669903308E+02  0.17727827213E+03  0.17120000000E+03 0.  0.
        998    1    1    2    0    0 -0.30439805999E+01 -0.15044762018E+01  0.13810240919E+04  0.13810644705E+04  0.10000000000E+02 0.  1.
</event>
<event>
 5    1  0.1252945E-008  0.3814084E+03  0.7957747E-01  0.3445049E+00
         13   -1    0    0    0    0  0.00000000000E+00  0.00000000000E+00  0.14999999963E+04  0.15000000000E+04  0.10566000000E+00 0.  1.
        994   -1    0    0    0    0 -0.00000000000E+00 -0.00000000000E+00  0.11368683772E-12  0.17120000000E+03  0.17120000000E+03 0.  0.
         13    1    1    2    0    0 -0.11424548652E+01  0.12006527577E+02  0.20473918109E+02  0.23762457667E+02  0.10566000000E+00 0.  1.
        994    1    1    2    0    0  0.46874579651E+01  0.26646197564E+01  0.35206430873E+01  0.17132106522E+03  0.17120000000E+03 0.  0.
        998    1    1    2    0    0 -0.35450030999E+01 -0.14671147334E+02  0.14760054351E+04  0.14761164771E+04  0.10000000000E+02 0.  1.
</event>
<event>
 5    1  0.1252945E-008  0.3712737E+03  0.7957747E-01  0.3490057E+00
         13   -1    0    0    0    0  0.00000000000E+00  0.00000000000E+00  0.14999999963E+04  0.15000000000E+04  0.10566000000E+00 0.  1.
        994   -1    0    0    0    0 -0.00000000000E+00 -0.00000000000E+00  0.11368683772E-12  0.17120000000E+03  0.17120000000E+03 0.  0.
         13    1    1    2    0    0 -0.29418815041E+02  0.41302853945E+02  0.10687937360E+03  0.11829879157E+03  0.10566000000E+00 0.  1.
        994    1    1    2    0    0  0.24055036662E+02 -0.21922293029E+02  0.15342625556E+02  0.17494018372E+03  0.17120000000E+03 0.  0.
        998    1    1    2    0    0  0.53637783793E+01 -0.19380560916E+02  0.13777779971E+04  0.13779610247E+04  0.10000000000E+02 0.  1.
</event>
<event>
 5    1  0.1252945E-008  0.3799164E+03  0.7957747E-01  0.3451523E+00
         13   -1    0    0    0    0  0.00000000000E+00  0.00000000000E+00  0.14999999963E+04  0.15000000000E+04  0.10566000000E+00 0.  1.
        994   -1    0    0    0    0 -0.00000000000E+00 -0.00000000000E+00  0.11368683772E-12  0.17120000000E+03  0.17120000000E+03 0.  0.
         13    1    1    2    0    0 -0.15463621596E+01  0.14513827642E+02  0.23031144860E+02  0.27266962177E+02  0.10566000000E+00 0.  1.
        994    1    1    2    0    0  0.55888110754E+01 -0.21325116407E+02  0.58021521194E+01  0.17271103140E+03  0.17120000000E+03 0.  0.
        998    1    1    2    0    0 -0.40424489158E+01  0.68112887645E+01  0.14711666993E+04  0.14712220064E+04  0.10000000000E+02 0.  1.
</event>
<event>
 5    1  0.1252945E-008  0.3718277E+03  0.7957747E-01  0.3487533E+00
         13   -1    0    0    0    0  0.00000000000E+00  0.00000000000E+00  0.14999999963E+04  0.15000000000E+04  0.10566000000E+00 0.  1.
        994   -1    0    0    0    0 -0.00000000000E+00 -0.00000000000E+00  0.11368683772E-12  0.17120000000E+03  0.17120000000E+03 0.  0.
         13    1    1    2    0    0 -0.84876485174E+01  0.13043344529E+02  0.10761183161E+02  0.18920445051E+02  0.10566000000E+00 0.  1.
        994    1    1    2    0    0  0.10060749044E+02 -0.11225304568E+02  0.90979814743E+01  0.17210299068E+03  0.17120000000E+03 0.  0.
        998    1    1    2    0    0 -0.15731005264E+01 -0.18180399608E+01  0.14801408316E+04  0.14801765643E+04  0.10000000000E+02 0.  1.
</event>
<event>
 5    1  0.1252945E-008  0.3870803E+03  0.7957747E-01  0.3420897E+00
         13   -1    0    0    0    0  0.00000000000E+00  0.00000000000E+00  0.14999999963E+04  0.15000000000E+04  0.10566000000E+00 0.  1.
        994   -1    0    0    0    0 -0.00000000000E+00 -0.00000000000E+00  0.11368683772E-12  0.17120000000E+03  0.17120000000E+03 0.  0.
         13    1    1    2    0    0  0.37222089920E+02 -0.72028776196E+02  0.14294232403E+03  0.16433547317E+03  0.10566000000E+00 0.  1.
        994    1    1    2    0    0 -0.35403908949E+02  0.69530468107E+02  0.43293641939E+02  0.19305880502E+03  0.17120000000E+03 0.  0.
        998    1    1    2    0    0 -0.18181809706E+01  0.24983080898E+01  0.13137640303E+04  0.13138057218E+04  0.10000000000E+02 0.  1.
</event>
<event>
 5    1  0.1252945E-008  0.3865653E+03  0.7957747E-01  0.3423060E+00
         13   -1    0    0    0    0  0.00000000000E+00  0.00000000000E+00  0.14999999963E+04  0.15000000000E+04  0.10566000000E+00 0.  1.
        994   -1    0    0    0    0 -0.00000000000E+00 -0.00000000000E+00  0.11368683772E-12  0.17120000000E+03  0.17120000000E+03 0.  0.
         13    1    1    2    0    0 -0.53198475329E+01 -0.10141901339E+02  0.67458618542E+02  0.68423938210E+02  0.10566000000E+00 0.  1.
        994    1    1    2    0    0  0.13692926124E+02  0.21348842724E+02  0.29626012983E+01  0.17309386563E+03  0.17120000000E+03 0.  0.
        998    1    1    2    0    0 -0.83730785909E+01 -0.11206941384E+02  0.14295787764E+04  0.14296821962E+04  0.10000000000E+02 0.  1.
</event>
<event>
 5    1  0.1252945E-008  0.4532941E+03  0.7957747E-01  0.3183293E+00
         13   -1    0    0    0    0  0.00000000000E+00  0.00000000000E+00  0.14999999963E+04  0.15000000000E+04  0.10566000000E+00 0.  1.
        994   -1    0    0    0    0 -0.00000000000E+00 -0.00000000000E+00  0.11368683772E-12  0.17120000000E+03  0.17120000000E+03 0.  0.
         13    1    1    2    0    0 -0.44233653258E+02 -0.28527674535E+02 -0.12658658499E+01  0.52650335947E+02  0.10566000000E+00 0.  1.
        994    1    1    2    0    0  0.37224104587E+02  0.29056500994E+02  0.75901834880E+02  0.19313322539E+03  0.17120000000E+03 0.  0.
        998    1    1    2    0    0  0.70095486717E+01 -0.52882645909E+00  0.14253640272E+04  0.14254164387E+04  0.10000000000E+02 0.  1.
</event>
<event>
 5    1  0.1252945E-008  0.3852980E+03  0.7957747E-01  0.3428409E+00
         13   -1    0    0    0    0  0.00000000000E+00  0.00000000000E+00  0.14999999963E+04  0.15000000000E+04  0.10566000000E+00 0. -1.
        994   -1    0    0    0    0 -0.00000000000E+00 -0.00000000000E+00  0.11368683772E-12  0.17120000000E+03  0.17120000000E+03 0.  0.
         13    1    1    2    0    0 -0.74177250196E+01 -0.12603863305E+02  0.71118445978E+02  0.72606642514E+02  0.10566000000E+00 0. -1.
        994    1    1    2    0    0  0.58293097889E+01  0.10647127631E+02  0.19665066036E+01  0.17164104791E+03  0.17120000000E+03 0.  0.
        998    1    1    2    0    0  0.15884152307E+01  0.19567356746E+01  0.14269150437E+04  0.14269523096E+04  0.10000000000E+02 0. -1.
</event>
<event>
 5    1  0.1252945E-008  0.3745169E+03  0.7957747E-01  0.3475386E+00
         13   -1    0    0    0    0  0.00000000000E+00  0.00000000000E+00  0.14999999963E+04  0.15000000000E+04  0.10566000000E+00 0. -1.
        994   -1    0    0    0    0 -0.00000000000E+00 -0.00000000000E+00  0.11368683772E-12  0.17120000000E+03  0.17120000000E+03 0.  0.
         13    1    1    2    0    0 -0.40551822242E+01 -0.24708776959E+02  0.17504942545E+02  0.30551633986E+02  0.10566000000E+00 0. -1.
        994    1    1    2    0    0  0.36077515277E+01  0.26129304549E+02  0.15822779434E+02  0.17394124518E+03  0.17120000000E+03 0.  0.
        998    1    1    2    0    0  0.44743069648E+00 -0.14205275903E+01  0.14666722743E+04  0.14667071208E+04  0.10000000000E+02 0. -1.
</event>
<event>
 5    1  0.1914636E-008  0.3862043E+03  0.7957747E-01  0.3424581E+00
         13   -1    0    0    0    0  0.00000000000E+00  0.00000000000E+00  0.14999999963E+04  0.15000000000E+04  0.10566000000E+00 0. -1.
        994   -1    0    0    0    0 -0.00000000000E+00 -0.00000000000E+00  0.11368683772E-12  0.17120000000E+03  0.17120000000E+03 0.  0.
         13    1    1    2    0    0  0.91135991472E+01 -0.46366711425E+01  0.49922900466E+02  0.50959430567E+02  0.10566000000E+00 0. -1.
        994    1    1    2    0    0 -0.86904468875E+01  0.73071377725E+01  0.14558412111E+01  0.17158227648E+03  0.17120000000E+03 0.  0.
        998    1    1    2    0    0 -0.42315225973E+00 -0.26704666299E+01  0.14486212546E+04  0.14486582930E+04  0.10000000000E+02 0.  1.
</event>
<event>
 5    1  0.1252945E-008  0.3713266E+03  0.7957747E-01  0.3489816E+00
         13   -1    0    0    0    0  0.00000000000E+00  0.00000000000E+00  0.14999999963E+04  0.15000000000E+04  0.10566000000E+00 0.  1.
        994   -1    0    0    0    0 -0.00000000000E+00 -0.00000000000E+00  0.11368683772E-12  0.17120000000E+03  0.17120000000E+03 0.  0.
         13    1    1    2    0    0  0.21801172102E+01 -0.67205781222E+02  0.39845544822E+03  0.40408925415E+03  0.10566000000E+00 0.  1.
        994    1    1    2    0    0 -0.25607528698E+02 -0.95135100304E+01  0.11150149055E+02  0.17372397135E+03  0.17120000000E+03 0.  0.
        998    1    1    2    0    0  0.23427411488E+02  0.76719291252E+02  0.10903943990E+04  0.10933867745E+04  0.10000000000E+02 0.  1.
</event>
<event>
 5    1  0.1252945E-008  0.3835372E+03  0.7957747E-01  0.3435900E+00
         13   -1    0    0    0    0  0.00000000000E+00  0.00000000000E+00  0.14999999963E+04  0.15000000000E+04  0.10566000000E+00 0. -1.
        994   -1    0    0    0    0 -0.00000000000E+00 -0.00000000000E+00  0.11368683772E-12  0.17120000000E+03  0.17120000000E+03 0.  0.
         13    1    1    2    0    0  0.19403496575E+02  0.68999457424E+01  0.91794775625E+02  0.94076548229E+02  0.10566000000E+00 0. -1.
        994    1    1    2    0    0 -0.70246586354E+01 -0.62875059966E+01  0.26518683982E+01  0.17147988502E+03  0.17120000000E+03 0.  0.
        998    1    1    2    0    0 -0.12378837940E+02 -0.61243974574E+00  0.14055533523E+04  0.14056435668E+04  0.10000000000E+02 0. -1.
</event>
<event>
 5    1  0.1252945E-008  0.3848427E+03  0.7957747E-01  0.3430340E+00
         13   -1    0    0    0    0  0.00000000000E+00  0.00000000000E+00  0.14999999963E+04  0.15000000000E+04  0.10566000000E+00 0. -1.
        994   -1    0    0    0    0 -0.00000000000E+00 -0.00000000000E+00  0.11368683772E-12  0.17120000000E+03  0.17120000000E+03 0.  0.
         13    1    1    2    0    0  0.11841936381E+02  0.87926196446E+01  0.66828810022E+02  0.68437143646E+02  0.10566000000E+00 0. -1.
        994    1    1    2    0    0  0.22646988870E+01 -0.63187357276E+01  0.18565064876E+01  0.17134159419E+03  0.17120000000E+03 0.  0.
        998    1    1    2    0    0 -0.14106635268E+02 -0.24738839170E+01  0.14313146798E+04  0.14314212622E+04  0.10000000000E+02 0. -1.
</event>
<event>
 5    1  0.1252945E-008  0.3851397E+03  0.7957747E-01  0.3429080E+00
         13   -1    0    0    0    0  0.00000000000E+00  0.00000000000E+00  0.14999999963E+04  0.15000000000E+04  0.10566000000E+00 0.  1.
        994   -1    0    0    0    0 -0.00000000000E+00 -0.00000000000E+00  0.11368683772E-12  0.17120000000E+03  0.17120000000E+03 0.  0.
         13    1    1    2    0    0  0.22137701199E+02  0.63545844796E+01  0.11492961844E+03  0.11721470435E+03  0.10566000000E+00 0.  1.
        994    1    1    2    0    0 -0.59975646953E+02 -0.20167923364E+02  0.14834559676E+02  0.18312107339E+03  0.17120000000E+03 0.  0.
        998    1    1    2    0    0  0.37837945754E+02  0.13813338884E+02  0.13702358182E+04  0.13708642223E+04  0.10000000000E+02 0.  1.
</event>
<event>
 5    1  0.1252945E-008  0.3840284E+03  0.7957747E-01  0.3433803E+00
         13   -1    0    0    0    0  0.00000000000E+00  0.00000000000E+00  0.14999999963E+04  0.15000000000E+04  0.10566000000E+00 0.  1.
        994   -1    0    0    0    0 -0.00000000000E+00 -0.00000000000E+00  0.11368683772E-12  0.17120000000E+03  0.17120000000E+03 0.  0.
         13    1    1    2    0    0  0.17021666593E+02  0.58224365084E+01  0.79933901378E+02  0.81933373262E+02  0.10566000000E+00 0.  1.
        994    1    1    2    0    0 -0.52351187634E+01  0.33315597503E+01  0.22403409946E+01  0.17132706992E+03  0.17120000000E+03 0.  0.
        998    1    1    2    0    0 -0.11786547829E+02 -0.91539962587E+01  0.14178257539E+04  0.14179395568E+04  0.10000000000E+02 0.  1.
</event>
<event>
 5    1  0.1252945E-008  0.3849507E+03  0.7957747E-01  0.3429881E+00
         13   -1    0    0    0    0  0.00000000000E+00  0.00000000000E+00  0.14999999963E+04  0.15000000000E+04  0.10566000000E+00 0. -1.
        994   -1    0    0    0    0 -0.00000000000E+00 -0.00000000000E+00  0.11368683772E-12  0.17120000000E+03  0.17120000000E+03 0.  0.
         13    1    1    2    0    0 -0.13381203425E+02 -0.67436637884E+01  0.68681473855E+02  0.70297152299E+02  0.10566000000E+00 0. -1.
        994    1    1    2    0    0  0.77451422599E+01  0.23067290860E+01  0.18694752826E+01  0.17140082604E+03  0.17120000000E+03 0.  0.
        998    1    1    2    0    0  0.56360611647E+01  0.44369347024E+01  0.14294490471E+04  0.14295020217E+04  0.10000000000E+02 0. -1.
</event>
<event>
 5    1  0.1252945E-008  0.3848123E+03  0.7957747E-01  0.3430469E+00
         13   -1    0    0    0    0  0.00000000000E+00  0.00000000000E+00  0.14999999963E+04  0.15000000000E+04  0.10566000000E+00 0.  1.
        994   -1    0    0    0    0 -0.00000000000E+00 -0.00000000000E+00  0.11368683772E-12  0.17120000000E+03  0.17120000000E+03 0.  0.
         13    1    1    2    0    0 -0.62333879826E+01  0.15050461508E+02  0.79057763251E+02  0.80718725285E+02  0.10566000000E+00 0.  1.
        994    1    1    2    0    0  0.31682469409E+01 -0.58217690058E+01  0.18679467898E+01  0.17133843704E+03  0.17120000000E+03 0.  0.
        998    1    1    2    0    0  0.30651410418E+01 -0.92286925025E+01  0.14190742862E+04  0.14191428377E+04  0.10000000000E+02 0.  1.
</event>
<event>
 5    1  0.1252945E-008  0.3844681E+03  0.7957747E-01  0.3431931E+00
         13   -1    0    0    0    0  0.00000000000E+00  0.00000000000E+00  0.14999999963E+04  0.15000000000E+04  0.10566000000E+00 0.  1.
        994   -1    0    0    0    0 -0.00000000000E+00 -0.00000000000E+00  0.11368683772E-12  0.17120000000E+03  0.17120000000E+03 0.  0.
         13    1    1    2    0    0  0.11837591766E+02  0.36643174879E+01  0.40752640047E+02  0.42595124561E+02  0.10566000000E+00 0.  1.
        994    1    1    2    0    0 -0.52848138952E+01 -0.10975288571E+01  0.19904146353E+01  0.17129663038E+03  0.17120000000E+03 0.  0.
        998    1    1    2    0    0 -0.65527778711E+01 -0.25667886308E+01  0.14572569416E+04  0.14573082451E+04  0.10000000000E+02 0.  1.
</event>
<event>
 5    1  0.1252945E-008  0.3762058E+03  0.7957747E-01  0.3467848E+00
         13   -1    0    0    0    0  0.00000000000E+00  0.00000000000E+00  0.14999999963E+04  0.15000000000E+04  0.10566000000E+00 0.  1.
        994   -1    0    0    0    0 -0.00000000000E+00 -0.00000000000E+00  0.11368683772E-12  0.17120000000E+03  0.17120000000E+03 0.  0.
         13    1    1    2    0    0  0.14378877705E+02 -0.67000158114E+02  0.29465779176E+03  0.30252107153E+03  0.10566000000E+00 0.  1.
        994    1    1    2    0    0  0.62364020333E+01  0.78663086669E+02  0.27441157876E+02  0.19049732560E+03  0.17120000000E+03 0.  0.
        998    1    1    2    0    0 -0.20615279738E+02 -0.11662928555E+02  0.11779010466E+04  0.11781816029E+04  0.10000000000E+02 0.  1.
</event>
<event>
 5    1  0.1252945E-008  0.3814630E+03  0.7957747E-01  0.3444813E+00
         13   -1    0    0    0    0  0.00000000000E+00  0.00000000000E+00  0.14999999963E+04  0.15000000000E+04  0.10566000000E+00 0. -1.
        994   -1    0    0    0    0 -0.00000000000E+00 -0.00000000000E+00  0.11368683772E-12  0.17120000000E+03  0.17120000000E+03 0.  0.
         13    1    1    2    0    0 -0.25601913903E+02  0.65682739035E-01  0.10646767280E+03  0.10950268867E+03  0.10566000000E+00 0. -1.
        994    1    1    2    0    0  0.26940387010E+00  0.54456767664E+02  0.13326121393E+02  0.18014615631E+03  0.17120000000E+03 0.  0.
        998    1    1    2    0    0  0.25332510033E+02 -0.54522450403E+02  0.13802062021E+04  0.13815511550E+04  0.10000000000E+02 0. -1.
</event>
<event>
 5    1  0.1252945E-008  0.3826958E+03  0.7957747E-01  0.3439504E+00
         13   -1    0    0    0    0  0.00000000000E+00  0.00000000000E+00  0.14999999963E+04  0.15000000000E+04  0.10566000000E+00 0.  1.
        994   -1    0    0    0    0 -0.00000000000E+00 -0.00000000000E+00  0.11368683772E-12  0.17120000000E+03  0.17120000000E+03 0.  0.
         13    1    1    2    0    0  0.28096090468E+02 -0.14412405726E+02  0.17875333650E+03  0.18152100213E+03  0.10566000000E+00 0.  1.
        994    1    1    2    0    0 -0.19466994550E+02  0.25915632192E+01  0.40574038569E+01  0.17237048066E+03  0.17120000000E+03 0.  0.
        998    1    1    2    0    0 -0.86290959176E+01  0.11820842507E+02  0.13171892559E+04  0.13173085172E+04  0.10000000000E+02 0.  1.
</event>
<event>
 5    1  0.1252945E-008  0.3760802E+03  0.7957747E-01  0.3468406E+00
         13   -1    0    0    0    0  0.00000000000E+00  0.00000000000E+00  0.14999999963E+04  0.15000000000E+04  0.10566000000E+00 0. -1.
        994   -1    0    0    0    0 -0.00000000000E+00 -0.00000000000E+00  0.11368683772E-12  0.17120000000E+03  0.17120000000E+03 0.  0.
         13    1    1    2    0    0  0.31016402956E+02  0.28496175319E+02  0.14145482450E+03  0.14759243815E+03  0.10566000000E+00 0. -1.
        994    1    1    2    0    0 -0.16619993644E+02 -0.21370317030E+02  0.86113031382E+01  0.17354108787E+03  0.17120000000E+03 0.  0.
        998    1    1    2    0    0 -0.14396409313E+02 -0.71258582885E+01  0.13499338686E+04  0.13500664740E+04  0.10000000000E+02 0. -1.
</event>
<event>
 5    1  0.1252945E-008  0.3812647E+03  0.7957747E-01  0.3445670E+00
         13   -1    0    0    0    0  0.00000000000E+00  0.00000000000E+00  0.14999999963E+04  0.15000000000E+04  0.10566000000E+00 0. -1.
        994   -1    0    0    0    0 -0.00000000000E+00 -0.00000000000E+00  0.11368683772E-12  0.17120000000E+03  0.17120000000E+03 0.  0.
         13    1    1    2    0    0 -0.12800930164E+02 -0.14463019794E+02  0.49803921157E+02  0.53418016448E+02  0.10566000000E+00 0. -1.
        994    1    1    2    0    0  0.13420059180E+02  0.20097716749E+02  0.54427066535E+01  0.17298288720E+03  0.17120000000E+03 0.  0.
        998    1    1    2    0    0 -0.61912901615E+00 -0.56346969557E+01  0.14447533685E+04  0.14447990964E+04  0.10000000000E+02 0. -1.
</event>
<event>
 5    1  0.1252945E-008  0.3757208E+03  0.7957747E-01  0.3470005E+00
         13   -1    0    0    0    0  0.00000000000E+00  0.00000000000E+00  0.14999999963E+04  0.15000000000E+04  0.10566000000E+00 0. -1.
        994   -1    0    0    0    0 -0.00000000000E+00 -0.00000000000E+00  0.11368683772E-12  0.17120000000E+03  0.17120000000E+03 0.  0.
         13    1    1    2    0    0 -0.11717009621E+02  0.17294162741E+02  0.30773881522E+02  0.37194345367E+02  0.10566000000E+00 0. -1.
        994    1    1    2    0    0  0.27157709910E+02 -0.15853108419E+02  0.96695455176E+01  0.17433244782E+03  0.17120000000E+03 0.  0.
        998    1    1    2    0    0 -0.15440700289E+02 -0.14410543211E+01  0.14595565692E+04  0.14596732068E+04  0.10000000000E+02 0. -1.
</event>
<event>
 5    1  0.1252945E-008  0.3849768E+03  0.7957747E-01  0.3429771E+00
         13   -1    0    0    0    0  0.00000000000E+00  0.00000000000E+00  0.14999999963E+04  0.15000000000E+04  0.10566000000E+00 0. -1.
        994   -1    0    0    0    0 -0.00000000000E+00 -0.00000000000E+00  0.11368683772E-12  0.17120000000E+03  0.17120000000E+03 0.  0.
         13    1    1    2    0    0 -0.11616391196E+02 -0.48589703218E+01  0.47908522546E+02  0.49535722802E+02  0.10566000000E+00 0. -1.
        994    1    1    2    0    0  0.84448567724E+01  0.46631577090E+01  0.19477930243E+01  0.17148263627E+03  0.17120000000E+03 0.  0.
        998    1    1    2    0    0  0.31715344237E+01  0.19581261286E+00  0.14501436807E+04  0.14501816409E+04  0.10000000000E+02 0. -1.
</event>
<event>
 5    1  0.1252945E-008  0.3836664E+03  0.7957747E-01  0.3435348E+00
         13   -1    0    0    0    0  0.00000000000E+00  0.00000000000E+00  0.14999999963E+04  0.15000000000E+04  0.10566000000E+00 0.  1.
        994   -1    0    0    0    0 -0.00000000000E+00 -0.00000000000E+00  0.11368683772E-12  0.17120000000E+03  0.17120000000E+03 0.  0.
         13    1    1    2    0    0  0.11444004145E+02 -0.10647580912E+02  0.49471175476E+02  0.51882025569E+02  0.10566000000E+00 0.  1.
        994    1    1    2    0    0 -0.17056930453E+02  0.16361044072E+02  0.41409836775E+01  0.17287339409E+03  0.17120000000E+03 0.  0.
        998    1    1    2    0    0  0.56129263080E+01 -0.57134631598E+01  0.14463878371E+04  0.14464445803E+04  0.10000000000E+02 0.  1.
</event>
<event>
 5    1  0.1252945E-008  0.3770235E+03  0.7957747E-01  0.3464222E+00
         13   -1    0    0    0    0  0.00000000000E+00  0.00000000000E+00  0.14999999963E+04  0.15000000000E+04  0.10566000000E+00 0.  1.
        994   -1    0    0    0    0 -0.00000000000E+00 -0.00000000000E+00  0.11368683772E-12  0.17120000000E+03  0.17120000000E+03 0.  0.
         13    1    1    2    0    0  0.33235531081E+01  0.24532124468E+02  0.14169450726E+02  0.28524649587E+02  0.10566000000E+00 0.  1.
        994    1    1    2    0    0 -0.30901220730E+02 -0.24708582070E+02  0.20333767618E+02  0.17688499534E+03  0.17120000000E+03 0.  0.
        998    1    1    2    0    0  0.27577667622E+02  0.17645760258E+00  0.14654967779E+04  0.14657903551E+04  0.10000000000E+02 0.  1.
</event>
<event>
 5    1  0.1252945E-008  0.3853445E+03  0.7957747E-01  0.3428212E+00
         13   -1    0    0    0    0  0.00000000000E+00  0.00000000000E+00  0.14999999963E+04  0.15000000000E+04  0.10566000000E+00 0.  1.
        994   -1    0    0    0    0 -0.00000000000E+00 -0.00000000000E+00  0.11368683772E-12  0.17120000000E+03  0.17120000000E+03 0.  0.
         13    1    1    2    0    0 -0.14918009235E+01 -0.16028551665E+02  0.90371163946E+02  0.91793781791E+02  0.10566000000E+00 0.  1.
        994    1    1    2    0    0 -0.68582257611E+01  0.93947185153E+01  0.19037712524E+01  0.17160524567E+03  0.17120000000E+03 0.  0.
        998    1    1    2    0    0  0.83500266846E+01  0.66338331501E+01  0.14077250611E+04  0.14078009725E+04  0.10000000000E+02 0.  1.
</event>
<event>
 5    1  0.1252945E-008  0.3770646E+03  0.7957747E-01  0.3464041E+00
         13   -1    0    0    0    0  0.00000000000E+00  0.00000000000E+00  0.14999999963E+04  0.15000000000E+04  0.10566000000E+00 0. -1.
        994   -1    0    0    0    0 -0.00000000000E+00 -0.00000000000E+00  0.11368683772E-12  0.17120000000E+03  0.17120000000E+03 0.  0.
         13    1    1    2    0    0 -0.73425709458E+01 -0.11907788149E+03  0.45965438692E+03  0.47488485108E+03  0.10566000000E+00 0. -1.
        994    1    1    2    0    0  0.28196072358E+01  0.75660193757E+02  0.35572638970E+02  0.19054466077E+03  0.17120000000E+03 0.  0.
        998    1    1    2    0    0  0.45229637100E+01  0.43417687732E+02  0.10047729704E+04  0.10057704882E+04  0.10000000000E+02 0. -1.
</event>
<event>
 5    1  0.1252945E-008  0.3853691E+03  0.7957747E-01  0.3428108E+00
         13   -1    0    0    0    0  0.00000000000E+00  0.00000000000E+00  0.14999999963E+04  0.15000000000E+04  0.10566000000E+00 0. -1.
        994   -1    0    0    0    0 -0.00000000000E+00 -0.00000000000E+00  0.11368683772E-12  0.17120000000E+03  0.17120000000E+03 0.  0.
         13    1    1    2    0    0 -0.80777235001E+01  0.60531999940E+01  0.37222366454E+02  0.38566910371E+02  0.10566000000E+00 0. -1.
        994    1    1    2    0    0 -0.26593072514E+01  0.30074267192E+01  0.14999211316E+01  0.17125363148E+03  0.17120000000E+03 0.  0.
        998    1    1    2    0    0  0.10737030751E+02 -0.90606267132E+01  0.14612777087E+04  0.14613794582E+04  0.10000000000E+02 0. -1.
</event>
<event>
 5    1  0.1252945E-008  0.3768145E+03  0.7957747E-01  0.3465147E+00
         13   -1    0    0    0    0  0.00000000000E+00  0.00000000000E+00  0.14999999963E+04  0.15000000000E+04  0.10566000000E+00 0. -1.
        994   -1    0    0    0    0 -0.00000000000E+00 -0.00000000000E+00  0.11368683772E-12  0.17120000000E+03  0.17120000000E+03 0.  0.
         13    1    1    2    0    0 -0.14599905029E+02 -0.59637926853E+01  0.21156974734E+01  0.15912617317E+02  0.10566000000E+00 0. -1.
        994    1    1    2    0    0 -0.27769813170E+01 -0.69533356522E+01  0.14789320310E+02  0.17200065261E+03  0.17120000000E+03 0.  0.
        998    1    1    2    0    0  0.17376886346E+02  0.12917128337E+02  0.14830949785E+04  0.14832867301E+04  0.10000000000E+02 0. -1.
</event>
<event>
 5    1  0.1303051E-008  0.3850878E+03  0.7957747E-01  0.3429300E+00
         13   -1    0    0    0    0  0.00000000000E+00  0.00000000000E+00  0.14999999963E+04  0.15000000000E+04  0.10566000000E+00 0.  1.
        994   -1    0    0    0    0 -0.00000000000E+00 -0.00000000000E+00  0.11368683772E-12  0.17120000000E+03  0.17120000000E+03 0.  0.
         13    1    1    2    0    0 -0.21126118958E+01  0.13661587999E+02  0.62813641761E+02  0.64316925229E+02  0.10566000000E+00 0.  1.
        994    1    1    2    0    0  0.33717465219E+01 -0.21719928807E+01  0.16394608477E+01  0.17125482200E+03  0.17120000000E+03 0.  0.
        998    1    1    2    0    0 -0.12591346261E+01 -0.11489595119E+02  0.14355468937E+04  0.14356282528E+04  0.10000000000E+02 0.  1.
</event>
<event>
 5    1  0.1252945E-008  0.3861663E+03  0.7957747E-01  0.3424741E+00
         13   -1    0    0    0    0  0.00000000000E+00  0.00000000000E+00  0.14999999963E+04  0.15000000000E+04  0.10566000000E+00 0.  1.
        994   -1    0    0    0    0 -0.00000000000E+00 -0.00000000000E+00  0.11368683772E-12  0.17120000000E+03  0.17120000000E+03 0.  0.
         13    1    1    2    0    0  0.86921189435E+01 -0.54613477591E+01  0.55372789378E+02  0.56316393871E+02  0.10566000000E+00 0.  1.
        994    1    1    2    0    0  0.96055085057E+01  0.66366580819E+01  0.14989066953E+01  0.17160418918E+03  0.17120000000E+03 0.  0.
        998    1    1    2    0    0 -0.18297627449E+02 -0.11753103229E+01  0.14431283002E+04  0.14432794169E+04  0.10000000000E+02 0.  1.
</event>
<event>
 5    1  0.1252945E-008  0.3828746E+03  0.7957747E-01  0.3438736E+00
         13   -1    0    0    0    0  0.00000000000E+00  0.00000000000E+00  0.14999999963E+04  0.15000000000E+04  0.10566000000E+00 0. -1.
        994   -1    0    0    0    0 -0.00000000000E+00 -0.00000000000E+00  0.11368683772E-12  0.17120000000E+03  0.17120000000E+03 0.  0.
         13    1    1    2    0    0 -0.19908655557E+02 -0.29711025604E+01  0.72429286259E+02  0.75174428422E+02  0.10566000000E+00 0. -1.
        994    1    1    2    0    0  0.18396192337E+02  0.65356074653E+00  0.38119146975E+01  0.17222896890E+03  0.17120000000E+03 0.  0.
        998    1    1    2    0    0  0.15124632206E+01  0.23175418139E+01  0.14237587953E+04  0.14237966027E+04  0.10000000000E+02 0. -1.
</event>
<event>
 5    1  0.1252945E-008  0.3860807E+03  0.7957747E-01  0.3425102E+00
         13   -1    0    0    0    0  0.00000000000E+00  0.00000000000E+00  0.14999999963E+04  0.15000000000E+04  0.10566000000E+00 0. -1.
        994   -1    0    0    0    0 -0.00000000000E+00 -0.00000000000E+00  0.11368683772E-12  0.17120000000E+03  0.17120000000E+03 0.  0.
         13    1    1    2    0    0  0.71914502948E+01  0.70037876481E+01  0.46765057909E+02  0.47830448503E+02  0.10566000000E+00 0. -1.
        994    1    1    2    0    0 -0.58649296206E+01 -0.30667430488E+01  0.12381183696E+01  0.17133235319E+03  0.17120000000E+03 0.  0.
        998    1    1    2    0    0 -0.13265206742E+01 -0.39370445992E+01  0.14519968200E+04  0.14520371983E+04  0.10000000000E+02 0. -1.
</event>
<event>
 5    1  0.1252945E-008  0.3056741E+03  0.7957747E-01  0.3856325E+00
         13   -1    0    0    0    0  0.00000000000E+00  0.00000000000E+00  0.14999999963E+04  0.15000000000E+04  0.10566000000E+00 0.  1.
        994   -1    0    0    0    0 -0.00000000000E+00 -0.00000000000E+00  0.11368683772E-12  0.17120000000E+03  0.17120000000E+03 0.  0.
         13    1    1    2    0    0  0.12213798127E+03 -0.14760678991E+03  0.84731666093E+03  0.86870650161E+03  0.10566000000E+00 0.  1.
        994    1    1    2    0    0 -0.39988797029E+02  0.86941306896E+02  0.66050132654E+02  0.20695399188E+03  0.17120000000E+03 0.  0.
        998    1    1    2    0    0 -0.82149184242E+02  0.60665483012E+02  0.58663320270E+03  0.59553950651E+03  0.10000000000E+02 0.  1.
</event>
<event>
 5    1  0.1252945E-008  0.3808028E+03  0.7957747E-01  0.3447670E+00
         13   -1    0    0    0    0  0.00000000000E+00  0.00000000000E+00  0.14999999963E+04  0.15000000000E+04  0.10566000000E+00 0.  1.
        994   -1    0    0    0    0 -0.00000000000E+00 -0.00000000000E+00  0.11368683772E-12  0.17120000000E+03  0.17120000000E+03 0.  0.
         13    1    1    2    0    0  0.47833658535E+00 -0.13580633703E+02  0.23180272183E+02  0.26870031638E+02  0.10566000000E+00 0.  1.
        994    1    1    2    0    0 -0.12713814092E+01  0.10617148902E+02  0.41097392379E+01  0.17158283777E+03  0.17120000000E+03 0.  0.
        998    1    1    2    0    0  0.79304482380E+00  0.29634848014E+01  0.14727099849E+04  0.14727471306E+04  0.10000000000E+02 0.  1.
</event>
<event>
 5    1  0.1252945E-008  0.3738029E+03  0.7957747E-01  0.3478594E+00
         13   -1    0    0    0    0  0.00000000000E+00  0.00000000000E+00  0.14999999963E+04  0.15000000000E+04  0.10566000000E+00 0. -1.
        994   -1    0    0    0    0 -0.00000000000E+00 -0.00000000000E+00  0.11368683772E-12  0.17120000000E+03  0.17120000000E+03 0.  0.
         13    1    1    2    0    0 -0.12860192892E+02  0.65662467164E+00  0.79498373900E+01  0.15133631280E+02  0.10566000000E+00 0. -1.
        994    1    1    2    0    0  0.13485850047E+02 -0.20702544209E+02  0.93810541806E+01  0.17322790672E+03  0.17120000000E+03 0.  0.
        998    1    1    2    0    0 -0.62565715556E+00  0.20045919537E+02  0.14826691047E+04  0.14828384620E+04  0.10000000000E+02 0. -1.
</event>
<event>
 5    1  0.1252945E-008  0.3805856E+03  0.7957747E-01  0.3448613E+00
         13   -1    0    0    0    0  0.00000000000E+00  0.00000000000E+00  0.14999999963E+04  0.15000000000E+04  0.10566000000E+00 0. -1.
        994   -1    0    0    0    0 -0.00000000000E+00 -0.00000000000E+00  0.11368683772E-12  0.17120000000E+03  0.17120000000E+03 0.  0.
         13    1    1    2    0    0  0.10072269642E+02 -0.56890096085E+01  0.15654961181E+02  0.19465467364E+02  0.10566000000E+00 0. -1.
        994    1    1    2    0    0 -0.90081063013E+01  0.85169365006E+01  0.43507577593E+01  0.17170338750E+03  0.17120000000E+03 0.  0.
        998    1    1    2    0    0 -0.10641633410E+01 -0.28279268920E+01  0.14799942773E+04  0.14800311451E+04  0.10000000000E+02 0. -1.
</event>
<event>
 5    1  0.1252945E-008  0.3736022E+03  0.7957747E-01  0.3479498E+00
         13   -1    0    0    0    0  0.00000000000E+00  0.00000000000E+00  0.14999999963E+04  0.15000000000E+04  0.10566000000E+00 0. -1.
        994   -1    0    0    0    0 -0.00000000000E+00 -0.00000000000E+00  0.11368683772E-12  0.17120000000E+03  0.17120000000E+03 0.  0.
         13    1    1    2    0    0  0.41349725142E+02  0.31595588997E+02  0.18161238378E+03  0.18892101556E+03  0.10566000000E+00 0. -1.
        994    1    1    2    0    0 -0.15280766407E+02 -0.28731245419E+02  0.11023589266E+02  0.17461370452E+03  0.17120000000E+03 0.  0.
        998    1    1    2    0    0 -0.26068958735E+02 -0.28643435784E+01  0.13073640232E+04  0.13076652799E+04  0.10000000000E+02 0. -1.
</event>
<event>
 5    1  0.1252945E-008  0.3811922E+03  0.7957747E-01  0.3445984E+00
         13   -1    0    0    0    0  0.00000000000E+00  0.00000000000E+00  0.14999999963E+04  0.15000000000E+04  0.10566000000E+00 0.  1.
        994   -1    0    0    0    0 -0.00000000000E+00 -0.00000000000E+00  0.11368683772E-12  0.17120000000E+03  0.17120000000E+03 0.  0.
         13    1    1    2    0    0  0.15621683599E+02  0.14814045529E+02  0.60289367868E+02  0.64018059838E+02  0.10566000000E+00 0.  1.
        994    1    1    2    0    0 -0.19986698634E+02 -0.21026341306E+02  0.63398551613E+01  0.17375617662E+03  0.17120000000E+03 0.  0.
        998    1    1    2    0    0  0.43650150355E+01  0.62122957777E+01  0.14333707732E+04  0.14334257635E+04  0.10000000000E+02 0.  1.
</event>
<event>
 5    1  0.1252945E-008  0.3797397E+03  0.7957747E-01  0.3452293E+00
         13   -1    0    0    0    0  0.00000000000E+00  0.00000000000E+00  0.14999999963E+04  0.15000000000E+04  0.10566000000E+00 0. -1.
        994   -1    0    0    0    0 -0.00000000000E+00 -0.00000000000E+00  0.11368683772E-12  0.17120000000E+03  0.17120000000E+03 0.  0.
         13    1    1    2    0    0  0.15699020793E+02  0.12811503458E+02  0.46807151282E+02  0.51005043377E+02  0.10566000000E+00 0. -1.
        994    1    1    2    0    0 -0.39156206620E+01 -0.13645736352E+02  0.49391733196E+01  0.17185858617E+03  0.17120000000E+03 0.  0.
        998    1    1    2    0    0 -0.11783400131E+02  0.83423289405E+00  0.14482536717E+04  0.14483363705E+04  0.10000000000E+02 0. -1.
</event>
<event>
 5    1  0.1252945E-008  0.3852658E+03  0.7957747E-01  0.3428546E+00
         13   -1    0    0    0    0  0.00000000000E+00  0.00000000000E+00  0.14999999963E+04  0.15000000000E+04  0.10566000000E+00 0.  1.
        994   -1    0    0    0    0 -0.00000000000E+00 -0.00000000000E+00  0.11368683772E-12  0.17120000000E+03  0.17120000000E+03 0.  0.
         13    1    1    2    0    0 -0.11337336149E+02 -0.91120217332E+01  0.69803450496E+02  0.71302854054E+02  0.10566000000E+00 0.  1.
        994    1    1    2    0    0  0.68155888380E+01  0.10136152259E+02  0.19886299763E+01  0.17164669669E+03  0.17120000000E+03 0.  0.
        998    1    1    2    0    0  0.45217473109E+01 -0.10241305262E+01  0.14282079158E+04  0.14282504493E+04  0.10000000000E+02 0.  1.
</event>
<event>
 5    1  0.1252945E-008  0.3843893E+03  0.7957747E-01  0.3432266E+00
         13   -1    0    0    0    0  0.00000000000E+00  0.00000000000E+00  0.14999999963E+04  0.15000000000E+04  0.10566000000E+00 0.  1.
        994   -1    0    0    0    0 -0.00000000000E+00 -0.00000000000E+00  0.11368683772E-12  0.17120000000E+03  0.17120000000E+03 0.  0.
         13    1    1    2    0    0  0.71821268448E+01 -0.11138670191E+02  0.47903658467E+02  0.49703365864E+02  0.10566000000E+00 0.  1.
        994    1    1    2    0    0  0.27026350049E+01 -0.18885504365E+01  0.19694542825E+01  0.17124307171E+03  0.17120000000E+03 0.  0.
        998    1    1    2    0    0 -0.98847618496E+01  0.13027220627E+02  0.14501268835E+04  0.14502535624E+04  0.10000000000E+02 0.  1.
</event>
<event>
 5    1  0.1560560E-008  0.3861469E+03  0.7957747E-01  0.3424823E+00
         13   -1    0    0    0    0  0.00000000000E+00  0.00000000000E+00  0.14999999963E+04  0.15000000000E+04  0.10566000000E+00 0.  1.
        994   -1    0    0    0    0 -0.00000000000E+00 -0.00000000000E+00  0.11368683772E-12  0.17120000000E+03  0.17120000000E+03 0.  0.
         13    1    1    2    0    0 -0.54979365836E+01  0.86768358004E+01  0.41836482439E+02  0.43079196988E+02  0.10566000000E+00 0.  1.
        994    1    1    2    0    0  0.27222429986E+02 -0.27311069493E+02  0.59489763088E+01  0.17558982183E+03  0.17120000000E+03 0.  0.
        998    1    1    2    0    0 -0.21724493402E+02  0.18634233692E+02  0.14522145375E+04  0.14525309812E+04  0.10000000000E+02 0.  1.
</event>
<event>
 5    1  0.1252945E-008  0.3844382E+03  0.7957747E-01  0.3432058E+00
         13   -1    0    0    0    0  0.00000000000E+00  0.00000000000E+00  0.14999999963E+04  0.15000000000E+04  0.10566000000E+00 0. -1.
        994   -1    0    0    0    0 -0.00000000000E+00 -0.00000000000E+00  0.11368683772E-12  0.17120000000E+03  0.17120000000E+03 0.  0.
         13    1    1    2    0    0  0.12048697949E+02 -0.75904634973E+00  0.37414814192E+02  0.39314459918E+02  0.10566000000E+00 0. -1.
        994    1    1    2    0    0 -0.99711287670E+01  0.68352541577E+01  0.23909489830E+01  0.17164294552E+03  0.17120000000E+03 0.  0.
        998    1    1    2    0    0 -0.20775691818E+01 -0.60762078080E+01  0.14601942331E+04  0.14602425946E+04  0.10000000000E+02 0. -1.
</event>
<event>
 5    1  0.1252945E-008  0.3786131E+03  0.7957747E-01  0.3457220E+00
         13   -1    0    0    0    0  0.00000000000E+00  0.00000000000E+00  0.14999999963E+04  0.15000000000E+04  0.10566000000E+00 0. -1.
        994   -1    0    0    0    0 -0.00000000000E+00 -0.00000000000E+00  0.11368683772E-12  0.17120000000E+03  0.17120000000E+03 0.  0.
         13    1    1    2    0    0  0.53380307732E+02  0.70677814850E+02  0.44001268776E+03  0.44883848690E+03  0.10566000000E+00 0. -1.
        994    1    1    2    0    0 -0.28031011338E+02 -0.12617625554E+03  0.63158497220E+02  0.22361713000E+03  0.17120000000E+03 0.  0.
        998    1    1    2    0    0 -0.25349296394E+02  0.55498440688E+02  0.99682881130E+03  0.99874438310E+03  0.10000000000E+02 0. -1.
</event>
<event>
 5    1  0.1252945E-008  0.3833587E+03  0.7957747E-01  0.3436663E+00
         13   -1    0    0    0    0  0.00000000000E+00  0.00000000000E+00  0.14999999963E+04  0.15000000000E+04  0.10566000000E+00 0.  1.
        994   -1    0    0    0    0 -0.00000000000E+00 -0.00000000000E+00  0.11368683772E-12  0.17120000000E+03  0.17120000000E+03 0.  0.
         13    1    1    2    0    0 -0.17057891236E+02 -0.22036611407E+02  0.15816230141E+03  0.16059859478E+03  0.10566000000E+00 0.  1.
        994    1    1    2    0    0  0.35047437466E+01  0.18305508769E+02  0.35965726060E+01  0.17224909351E+03  0.17120000000E+03 0.  0.
        998    1    1    2    0    0  0.13553147490E+02  0.37311026382E+01  0.13382411223E+04  0.13383523117E+04  0.10000000000E+02 0.  1.
</event>
<event>
 5    1  0.2034253E-008  0.3862078E+03  0.7957747E-01  0.3424566E+00
         13   -1    0    0    0    0  0.00000000000E+00  0.00000000000E+00  0.14999999963E+04  0.15000000000E+04  0.10566000000E+00 0. -1.
        994   -1    0    0    0    0 -0.00000000000E+00 -0.00000000000E+00  0.11368683772E-12  0.17120000000E+03  0.17120000000E+03 0.  0.
         13    1    1    2    0    0 -0.31436141098E+01 -0.95165328260E+01  0.50526791615E+02  0.51511304989E+02  0.10566000000E+00 0. -1.
        994    1    1    2    0    0 -0.30507156164E+01  0.48869908850E+01  0.11403768394E+01  0.17130070054E+03  0.17120000000E+03 0.  0.
        998    1    1    2    0    0  0.61943297262E+01  0.46295419409E+01  0.14483328278E+04  0.14483879945E+04  0.10000000000E+02 0. -1.
</event>
<event>
 5    1  0.1252945E-008  0.3860121E+03  0.7957747E-01  0.3425391E+00
         13   -1    0    0    0    0  0.00000000000E+00  0.00000000000E+00  0.14999999963E+04  0.15000000000E+04  0.10566000000E+00 0. -1.
        994   -1    0    0    0    0 -0.00000000000E+00 -0.00000000000E+00  0.11368683772E-12  0.17120000000E+03  0.17120000000E+03 0.  0.
         13    1    1    2    0    0  0.95382414365E+02  0.40407196974E+02  0.22205625450E+03  0.24502966732E+03  0.10566000000E+00 0. -1.
        994    1    1    2    0    0 -0.87896662994E+02 -0.66684173043E+02  0.66319651814E+02  0.21419696197E+03  0.17120000000E+03 0.  0.
        998    1    1    2    0    0 -0.74857513706E+01  0.26276976069E+02  0.12116240900E+04  0.12119733707E+04  0.10000000000E+02 0. -1.
</event>
<event>
 5    1  0.1252945E-008  0.3721084E+03  0.7957747E-01  0.3486257E+00
         13   -1    0    0    0    0  0.00000000000E+00  0.00000000000E+00  0.14999999963E+04  0.15000000000E+04  0.10566000000E+00 0.  1.
        994   -1    0    0    0    0 -0.00000000000E+00 -0.00000000000E+00  0.11368683772E-12  0.17120000000E+03  0.17120000000E+03 0.  0.
         13    1    1    2    0    0 -0.11971393390E+02  0.53849588676E+02  0.18477087198E+03  0.19282992184E+03  0.10566000000E+00 0.  1.
        994    1    1    2    0    0 -0.81703081582E+01 -0.33918541581E+02  0.12361039647E+02  0.17515552146E+03  0.17120000000E+03 0.  0.
        998    1    1    2    0    0  0.20141701549E+02 -0.19931047095E+02  0.13028680847E+04  0.13032145567E+04  0.10000000000E+02 0.  1.
</event>
<event>
 5    1  0.1252945E-008  0.3849235E+03  0.7957747E-01  0.3429997E+00
         13   -1    0    0    0    0  0.00000000000E+00  0.00000000000E+00  0.14999999963E+04  0.15000000000E+04  0.10566000000E+00 0. -1.
        994   -1    0    0    0    0 -0.00000000000E+00 -0.00000000000E+00  0.11368683772E-12  0.17120000000E+03  0.17120000000E+03 0.  0.
         13    1    1    2    0    0 -0.11865373731E+02 -0.14382632692E+02  0.10606926017E+03  0.10769561892E+03  0.10566000000E+00 0. -1.
        994    1    1    2    0    0  0.35289157101E+01  0.96202707215E+01  0.20135995207E+01  0.17151821314E+03  0.17120000000E+03 0.  0.
        998    1    1    2    0    0  0.83364580207E+01  0.47623619704E+01  0.13919171366E+04  0.13919861679E+04  0.10000000000E+02 0.  0.
</event>
<event>
 5    1  0.1252945E-008  0.3823268E+03  0.7957747E-01  0.3441089E+00
         13   -1    0    0    0    0  0.00000000000E+00  0.00000000000E+00  0.14999999963E+04  0.15000000000E+04  0.10566000000E+00 0. -1.
        994   -1    0    0    0    0 -0.00000000000E+00 -0.00000000000E+00  0.11368683772E-12  0.17120000000E+03  0.17120000000E+03 0.  0.
         13    1    1    2    0    0 -0.20676383936E+01 -0.13238404985E+02  0.29675460404E+02  0.32560322623E+02  0.10566000000E+00 0. -1.
        994    1    1    2    0    0  0.13715448445E+02  0.25987615053E+01  0.36098909232E+01  0.17180610699E+03  0.17120000000E+03 0.  0.
        998    1    1    2    0    0 -0.11647810051E+02  0.10639643480E+02  0.14667146450E+04  0.14668335704E+04  0.10000000000E+02 0. -1.
</event>
<event>
 5    1  0.1252945E-008  0.3832835E+03  0.7957747E-01  0.3436985E+00
         13   -1    0    0    0    0  0.00000000000E+00  0.00000000000E+00  0.14999999963E+04  0.15000000000E+04  0.10566000000E+00 0. -1.
        994   -1    0    0    0    0 -0.00000000000E+00 -0.00000000000E+00  0.11368683772E-12  0.17120000000E+03  0.17120000000E+03 0.  0.
         13    1    1    2    0    0 -0.23766322883E+02 -0.19531823596E+01  0.12118609589E+03  0.12351005637E+03  0.10566000000E+00 0. -1.
        994    1    1    2    0    0  0.57286897035E+01  0.14679861714E+01  0.26004185858E+01  0.17132184638E+03  0.17120000000E+03 0.  0.
        998    1    1    2    0    0  0.18037633180E+02  0.48519618822E+00  0.13762134818E+04  0.13763680972E+04  0.10000000000E+02 0. -1.
</event>
<event>
 5    1  0.1252945E-008  0.3764741E+03  0.7957747E-01  0.3466656E+00
         13   -1    0    0    0    0  0.00000000000E+00  0.00000000000E+00  0.14999999963E+04  0.15000000000E+04  0.10566000000E+00 0.  1.
        994   -1    0    0    0    0 -0.00000000000E+00 -0.00000000000E+00  0.11368683772E-12  0.17120000000E+03  0.17120000000E+03 0.  0.
         13    1    1    2    0    0  0.42436953033E+02 -0.24498580371E+02  0.75911804484E+02  0.90353133023E+02  0.10566000000E+00 0.  1.
        994    1    1    2    0    0 -0.40127549455E+02  0.17036462605E+02  0.21233417721E+02  0.17793470519E+03  0.17120000000E+03 0.  0.
        998    1    1    2    0    0 -0.23094035789E+01  0.74621177661E+01  0.14028547741E+04  0.14029121618E+04  0.10000000000E+02 0.  1.
</event>
<event>
 5    1  0.1252945E-008  0.3859129E+03  0.7957747E-01  0.3425810E+00
         13   -1    0    0    0    0  0.00000000000E+00  0.00000000000E+00  0.14999999963E+04  0.15000000000E+04  0.10566000000E+00 0. -1.
        994   -1    0    0    0    0 -0.00000000000E+00 -0.00000000000E+00  0.11368683772E-12  0.17120000000E+03  0.17120000000E+03 0.  0.
         13    1    1    2    0    0 -0.31432126887E+01  0.12400279369E+02  0.68651431379E+02  0.69833207780E+02  0.10566000000E+00 0. -1.
        994    1    1    2    0    0  0.32388740331E+01 -0.10967515241E+02  0.16065014519E+01  0.17158903678E+03  0.17120000000E+03 0.  0.
        998    1    1    2    0    0 -0.95661344335E-01 -0.14327641277E+01  0.14297420634E+04  0.14297777554E+04  0.10000000000E+02 0. -1.
</event>
<event>
 5    1  0.1252945E-008  0.3710293E+03  0.7957747E-01  0.3491174E+00
         13   -1    0    0    0    0  0.00000000000E+00  0.00000000000E+00  0.14999999963E+04  0.15000000000E+04  0.10566000000E+00 0.  1.
        994   -1    0    0    0    0 -0.00000000000E+00 -0.00000000000E+00  0.11368683772E-12  0.17120000000E+03  0.17120000000E+03 0.  0.
         13    1    1    2    0    0  0.27676600379E+02 -0.26225860730E+02  0.81160644573E+02  0.89670794415E+02  0.10566000000E+00 0.  1.
        994    1    1    2    0    0 -0.24797852702E+02  0.35421688249E+01  0.10897014126E+02  0.17336569838E+03  0.17120000000E+03 0.  0.
        998    1    1    2    0    0 -0.28787476766E+01  0.22683691905E+02  0.14079423376E+04  0.14081635072E+04  0.10000000000E+02 0.  1.
</event>
<event>
 5    1  0.1252945E-008  0.3704460E+03  0.7957747E-01  0.3493844E+00
         13   -1    0    0    0    0  0.00000000000E+00  0.00000000000E+00  0.14999999963E+04  0.15000000000E+04  0.10566000000E+00 0.  1.
        994   -1    0    0    0    0 -0.00000000000E+00 -0.00000000000E+00  0.11368683772E-12  0.17120000000E+03  0.17120000000E+03 0.  0.
         13    1    1    2    0    0 -0.12907801960E+03  0.77557588659E-01  0.67758727734E+03  0.68977218756E+03  0.10566000000E+00 0.  1.
        994    1    1    2    0    0  0.10908855804E+03  0.46980479106E+02  0.59441374247E+02  0.21667993881E+03  0.17120000000E+03 0.  0.
        998    1    1    2    0    0  0.19989461558E+02 -0.47058036694E+02  0.76297134469E+03  0.76474787362E+03  0.10000000000E+02 0.  1.
</event>
<event>
 5    1  0.1252945E-008  0.3838232E+03  0.7957747E-01  0.3434678E+00
         13   -1    0    0    0    0  0.00000000000E+00  0.00000000000E+00  0.14999999963E+04  0.15000000000E+04  0.10566000000E+00 0. -1.
        994   -1    0    0    0    0 -0.00000000000E+00 -0.00000000000E+00  0.11368683772E-12  0.17120000000E+03  0.17120000000E+03 0.  0.
         13    1    1    2    0    0 -0.22031825349E+02 -0.46135391489E+01  0.12029746493E+03  0.12238536393E+03  0.10566000000E+00 0. -1.
        994    1    1    2    0    0  0.63856219042E+01  0.17575852797E+01  0.23603416355E+01  0.17134432143E+03  0.17120000000E+03 0.  0.
        998    1    1    2    0    0  0.15646203445E+02  0.28559538692E+01  0.13773421897E+04  0.13774703146E+04  0.10000000000E+02 0. -1.
</event>
<event>
 5    1  0.1252945E-008  0.4024776E+03  0.7957747E-01  0.3358769E+00
         13   -1    0    0    0    0  0.00000000000E+00  0.00000000000E+00  0.14999999963E+04  0.15000000000E+04  0.10566000000E+00 0. -1.
        994   -1    0    0    0    0 -0.00000000000E+00 -0.00000000000E+00  0.11368683772E-12  0.17120000000E+03  0.17120000000E+03 0.  0.
         13    1    1    2    0    0  0.23427264573E+02 -0.77595218382E+02  0.93642888565E+02  0.12385013679E+03  0.10566000000E+00 0. -1.
        994    1    1    2    0    0 -0.23582944259E+02  0.88760640404E+02  0.63475931862E+02  0.20438502996E+03  0.17120000000E+03 0.  0.
        998    1    1    2    0    0  0.15567968586E+00 -0.11165422022E+02  0.13428811759E+04  0.13429648332E+04  0.10000000000E+02 0. -1.
</event>
<event>
 5    1  0.1252945E-008  0.3797396E+03  0.7957747E-01  0.3452293E+00
         13   -1    0    0    0    0  0.00000000000E+00  0.00000000000E+00  0.14999999963E+04  0.15000000000E+04  0.10566000000E+00 0. -1.
        994   -1    0    0    0    0 -0.00000000000E+00 -0.00000000000E+00  0.11368683772E-12  0.17120000000E+03  0.17120000000E+03 0.  0.
         13    1    1    2    0    0 -0.22383946286E+02 -0.44541745765E+02  0.23847472026E+03  0.24362925016E+03  0.10566000000E+00 0. -1.
        994    1    1    2    0    0  0.34645490541E+02  0.42747622893E+02  0.14462003681E+02  0.18040581706E+03  0.17120000000E+03 0.  0.
        998    1    1    2    0    0 -0.12261544255E+02  0.17941228721E+01  0.12470632723E+04  0.12471649328E+04  0.10000000000E+02 0. -1.
</event>
<event>
 5    1  0.1252945E-008  0.3792804E+03  0.7957747E-01  0.3454298E+00
         13   -1    0    0    0    0  0.00000000000E+00  0.00000000000E+00  0.14999999963E+04  0.15000000000E+04  0.10566000000E+00 0.  1.
        994   -1    0    0    0    0 -0.00000000000E+00 -0.00000000000E+00  0.11368683772E-12  0.17120000000E+03  0.17120000000E+03 0.  0.
         13    1    1    2    0    0  0.14451453432E+02  0.81970455274E+02  0.44400181749E+03  0.45173623404E+03  0.10566000000E+00 0.  1.
        994    1    1    2    0    0 -0.24460097817E+02 -0.96862213281E+02  0.38701805347E+02  0.20196003190E+03  0.17120000000E+03 0.  0.
        998    1    1    2    0    0  0.10008644385E+02  0.14891758007E+02  0.10172963734E+04  0.10175037341E+04  0.10000000000E+02 0.  1.
</event>
<event>
 5    1  0.1252945E-008  0.3807769E+03  0.7957747E-01  0.3447783E+00
         13   -1    0    0    0    0  0.00000000000E+00  0.00000000000E+00  0.14999999963E+04  0.15000000000E+04  0.10566000000E+00 0. -1.
        994   -1    0    0    0    0 -0.00000000000E+00 -0.00000000000E+00  0.11368683772E-12  0.17120000000E+03  0.17120000000E+03 0.  0.
         13    1    1    2    0    0 -0.28810250346E+02  0.77578341277E+01  0.12736776930E+03  0.13081580308E+03  0.10566000000E+00 0. -1.
        994    1    1    2    0    0  0.48431147672E+01 -0.13674459760E+01  0.38259531403E+01  0.17131667632E+03  0.17120000000E+03 0.  0.
        998    1    1    2    0    0  0.23967135579E+02 -0.63903881517E+01  0.13688062738E+04  0.13690675206E+04  0.10000000000E+02 0. -1.
</event>
<event>
 5    1  0.1252945E-008  0.3837946E+03  0.7957747E-01  0.3434801E+00
         13   -1    0    0    0    0  0.00000000000E+00  0.00000000000E+00  0.14999999963E+04  0.15000000000E+04  0.10566000000E+00 0. -1.
        994   -1    0    0    0    0 -0.00000000000E+00 -0.00000000000E+00  0.11368683772E-12  0.17120000000E+03  0.17120000000E+03 0.  0.
         13    1    1    2    0    0 -0.36292158874E+01  0.27844260231E+02  0.12778721508E+02  0.30850946876E+02  0.10566000000E+00 0. -1.
        994    1    1    2    0    0  0.46901972871E+01 -0.44742525170E+02  0.25901793022E+02  0.17889727329E+03  0.17120000000E+03 0.  0.
        998    1    1    2    0    0 -0.10609813997E+01  0.16898264939E+02  0.14613194817E+04  0.14614517798E+04  0.10000000000E+02 0. -1.
</event>
<event>
 5    1  0.1252945E-008  0.3849914E+03  0.7957747E-01  0.3429709E+00
         13   -1    0    0    0    0  0.00000000000E+00  0.00000000000E+00  0.14999999963E+04  0.15000000000E+04  0.10566000000E+00 0.  1.
        994   -1    0    0    0    0 -0.00000000000E+00 -0.00000000000E+00  0.11368683772E-12  0.17120000000E+03  0.17120000000E+03 0.  0.
         13    1    1    2    0    0 -0.14379772843E+02  0.17023757939E+02  0.13286400304E+03  0.13471985996E+03  0.10566000000E+00 0.  1.
        994    1    1    2    0    0  0.11921073602E+02 -0.27975532635E+02  0.46815901620E+01  0.17394280585E+03  0.17120000000E+03 0.  0.
        998    1    1    2    0    0  0.24586992409E+01  0.10951774696E+02  0.13624544031E+04  0.13625373342E+04  0.10000000000E+02 0.  1.
</event>
<event>
 5    1  0.1252945E-008  0.3863104E+03  0.7957747E-01  0.3424134E+00
         13   -1    0    0    0    0  0.00000000000E+00  0.00000000000E+00  0.14999999963E+04  0.15000000000E+04  0.10566000000E+00 0.  1.
        994   -1    0    0    0    0 -0.00000000000E+00 -0.00000000000E+00  0.11368683772E-12  0.17120000000E+03  0.17120000000E+03 0.  0.
         13    1    1    2    0    0 -0.91001546443E+01 -0.57069969417E+01  0.64217617239E+02  0.65109877565E+02  0.10566000000E+00 0.  1.
        994    1    1    2    0    0 -0.39573663332E+01  0.36889960008E+01  0.10767888852E+01  0.17128884644E+03  0.17120000000E+03 0.  0.
        998    1    1    2    0    0  0.13057520978E+02  0.20180009408E+01  0.14347055902E+04  0.14348012760E+04  0.10000000000E+02 0.  1.
</event>
<event>
 5    1  0.1252945E-008  0.3692080E+03  0.7957747E-01  0.3499539E+00
         13   -1    0    0    0    0  0.00000000000E+00  0.00000000000E+00  0.14999999963E+04  0.15000000000E+04  0.10566000000E+00 0.  1.
        994   -1    0    0    0    0 -0.00000000000E+00 -0.00000000000E+00  0.11368683772E-12  0.17120000000E+03  0.17120000000E+03 0.  0.
         13    1    1    2    0    0 -0.87264855885E+01  0.55581433883E+02  0.19888213652E+03  0.20668711313E+03  0.10566000000E+00 0.  1.
        994    1    1    2    0    0 -0.14882286411E+01  0.76559454985E+01  0.98945493108E+01  0.17166295591E+03  0.17120000000E+03 0.  0.
        998    1    1    2    0    0  0.10214714230E+02 -0.63237379381E+02  0.12912233104E+04  0.12928499310E+04  0.10000000000E+02 0.  1.
</event>
<event>
 5    1  0.1252945E-008  0.3832366E+03  0.7957747E-01  0.3437185E+00
         13   -1    0    0    0    0  0.00000000000E+00  0.00000000000E+00  0.14999999963E+04  0.15000000000E+04  0.10566000000E+00 0. -1.
        994   -1    0    0    0    0 -0.00000000000E+00 -0.00000000000E+00  0.11368683772E-12  0.17120000000E+03  0.17120000000E+03 0.  0.
         13    1    1    2    0    0 -0.12301922279E+01  0.13190838662E+02  0.33859785342E+02  0.36359425531E+02  0.10566000000E+00 0. -1.
        994    1    1    2    0    0 -0.18950959534E+01 -0.11756199522E+02  0.29773089144E+01  0.17163945929E+03  0.17120000000E+03 0.  0.
        998    1    1    2    0    0  0.31252881812E+01 -0.14346391396E+01  0.14631629020E+04  0.14632011152E+04  0.10000000000E+02 0. -1.
</event>
<event>
 5    1  0.1252945E-008  0.3813782E+03  0.7957747E-01  0.3445179E+00
         13   -1    0    0    0    0  0.00000000000E+00  0.00000000000E+00  0.14999999963E+04  0.15000000000E+04  0.10566000000E+00 0. -1.
        994   -1    0    0    0    0 -0.00000000000E+00 -0.00000000000E+00  0.11368683772E-12  0.17120000000E+03  0.17120000000E+03 0.  0.
         13    1    1    2    0    0 -0.32126993269E+01  0.20915189987E+02  0.65256022728E+02  0.68601211910E+02  0.10566000000E+00 0. -1.
        994    1    1    2    0    0  0.56320374429E+01 -0.82269234575E+01  0.37699182802E+01  0.17153149681E+03  0.17120000000E+03 0.  0.
        998    1    1    2    0    0 -0.24193381160E+01 -0.12688266530E+02  0.14309740553E+04  0.14310672913E+04  0.10000000000E+02 0.  0.
</event>
<event>
 5    1  0.1252945E-008  0.3794090E+03  0.7957747E-01  0.3453736E+00
         13   -1    0    0    0    0  0.00000000000E+00  0.00000000000E+00  0.14999999963E+04  0.15000000000E+04  0.10566000000E+00 0.  1.
        994   -1    0    0    0    0 -0.00000000000E+00 -0.00000000000E+00  0.11368683772E-12  0.17120000000E+03  0.17120000000E+03 0.  0.
         13    1    1    2    0    0 -0.22656577139E+02  0.35504742610E+02  0.20179846661E+03  0.20614688823E+03  0.10566000000E+00 0.  1.
        994    1    1    2    0    0  0.82081287530E+01 -0.21010056235E+02  0.61378110759E+01  0.17278862395E+03  0.17120000000E+03 0.  0.
        998    1    1    2    0    0  0.14448448386E+02 -0.14494686375E+02  0.12920637186E+04  0.12922644878E+04  0.10000000000E+02 0.  1.
</event>
<event>
 5    1  0.1252945E-008  0.3813932E+03  0.7957747E-01  0.3445115E+00
         13   -1    0    0    0    0  0.00000000000E+00  0.00000000000E+00  0.14999999963E+04  0.15000000000E+04  0.10566000000E+00 0.  1.
        994   -1    0    0    0    0 -0.00000000000E+00 -0.00000000000E+00  0.11368683772E-12  0.17120000000E+03  0.17120000000E+03 0.  0.
         13    1    1    2    0    0  0.14854059468E+02  0.23103792750E+02  0.12170937171E+03  0.12477023142E+03  0.10566000000E+00 0.  1.
        994    1    1    2    0    0  0.10125253501E+02 -0.51680373456E+01  0.38616588989E+01  0.17162045851E+03  0.17120000000E+03 0.  0.
        998    1    1    2    0    0 -0.24979312969E+02 -0.17935755404E+02  0.13744289657E+04  0.13748093101E+04  0.10000000000E+02 0.  1.
</event>
<event>
 5    1  0.1252945E-008  0.3797945E+03  0.7957747E-01  0.3452054E+00
         13   -1    0    0    0    0  0.00000000000E+00  0.00000000000E+00  0.14999999963E+04  0.15000000000E+04  0.10566000000E+00 0.  1.
        994   -1    0    0    0    0 -0.00000000000E+00 -0.00000000000E+00  0.11368683772E-12  0.17120000000E+03  0.17120000000E+03 0.  0.
         13    1    1    2    0    0 -0.25708518202E+02  0.13198348303E+02  0.10734505667E+03  0.11116697649E+03  0.10566000000E+00 0.  1.
        994    1    1    2    0    0  0.28956549204E+01  0.82151853964E+01  0.44907564286E+01  0.17148026412E+03  0.17120000000E+03 0.  0.
        998    1    1    2    0    0  0.22812863282E+02 -0.21413533699E+02  0.13881641832E+04  0.13885527594E+04  0.10000000000E+02 0.  1.
</event>
<event>
 5    1  0.1252945E-008  0.3827527E+03  0.7957747E-01  0.3439259E+00
         13   -1    0    0    0    0  0.00000000000E+00  0.00000000000E+00  0.14999999963E+04  0.15000000000E+04  0.10566000000E+00 0. -1.
        994   -1    0    0    0    0 -0.00000000000E+00 -0.00000000000E+00  0.11368683772E-12  0.17120000000E+03  0.17120000000E+03 0.  0.
         13    1    1    2    0    0  0.22773854371E+02 -0.27219520900E+02  0.17506476803E+03  0.17862596377E+03  0.10566000000E+00 0. -1.
        994    1    1    2    0    0 -0.33620534937E+02  0.42628899430E+02  0.12576725110E+02  0.18004215465E+03  0.17120000000E+03 0.  0.
        998    1    1    2    0    0  0.10846680566E+02 -0.15409378529E+02  0.13123585031E+04  0.13125318816E+04  0.10000000000E+02 0. -1.
</event>
<event>
 5    1  0.1252945E-008  0.3837139E+03  0.7957747E-01  0.3435145E+00
         13   -1    0    0    0    0  0.00000000000E+00  0.00000000000E+00  0.14999999963E+04  0.15000000000E+04  0.10566000000E+00 0. -1.
        994   -1    0    0    0    0 -0.00000000000E+00 -0.00000000000E+00  0.11368683772E-12  0.17120000000E+03  0.17120000000E+03 0.  0.
         13    1    1    2    0    0 -0.12094169863E+02 -0.22642310804E+02  0.14291030463E+03  0.14519748454E+03  0.10566000000E+00 0. -1.
        994    1    1    2    0    0  0.27566370509E+02  0.54128495860E+01  0.48806619523E+01  0.17355824551E+03  0.17120000000E+03 0.  0.
        998    1    1    2    0    0 -0.15472200647E+02  0.17229461218E+02  0.13522090297E+04  0.13524442699E+04  0.10000000000E+02 0. -1.
</event>
<event>
 5    1  0.1252945E-008  0.3810218E+03  0.7957747E-01  0.3446721E+00
         13   -1    0    0    0    0  0.00000000000E+00  0.00000000000E+00  0.14999999963E+04  0.15000000000E+04  0.10566000000E+00 0. -1.
        994   -1    0    0    0    0 -0.00000000000E+00 -0.00000000000E+00  0.11368683772E-12  0.17120000000E+03  0.17120000000E+03 0.  0.
         13    1    1    2    0    0 -0.18038702021E+02  0.19541459758E+02  0.89989247039E+02  0.93836768735E+02  0.10566000000E+00 0. -1.
        994    1    1    2    0    0  0.23291673243E+02 -0.19306493095E+02  0.66735094075E+01  0.17398051168E+03  0.17120000000E+03 0.  0.
        998    1    1    2    0    0 -0.52529712230E+01 -0.23496666332E+00  0.14033372398E+04  0.14033827196E+04  0.10000000000E+02 0. -1.
</event>
<event>
 5    1  0.1252945E-008  0.3862212E+03  0.7957747E-01  0.3424509E+00
         13   -1    0    0    0    0  0.00000000000E+00  0.00000000000E+00  0.14999999963E+04  0.15000000000E+04  0.10566000000E+00 0. -1.
        994   -1    0    0    0    0 -0.00000000000E+00 -0.00000000000E+00  0.11368683772E-12  0.17120000000E+03  0.17120000000E+03 0.  0.
         13    1    1    2    0    0  0.90785946498E+01  0.49686905060E+01  0.55875070779E+02  0.56825552921E+02  0.10566000000E+00 0. -1.
        994    1    1    2    0    0  0.53415492566E+01 -0.10263443412E+02  0.14636903854E+01  0.17159677389E+03  0.17120000000E+03 0.  0.
        998    1    1    2    0    0 -0.14420143906E+02  0.52947529058E+01  0.14426612351E+04  0.14427776732E+04  0.10000000000E+02 0. -1.
</event>
<event>
 5    1  0.1252945E-008  0.3787967E+03  0.7957747E-01  0.3456415E+00
         13   -1    0    0    0    0  0.00000000000E+00  0.00000000000E+00  0.14999999963E+04  0.15000000000E+04  0.10566000000E+00 0. -1.
        994   -1    0    0    0    0 -0.00000000000E+00 -0.00000000000E+00  0.11368683772E-12  0.17120000000E+03  0.17120000000E+03 0.  0.
         13    1    1    2    0    0  0.26713924474E+02 -0.83002744617E+01  0.80400255256E+02  0.85127789389E+02  0.10566000000E+00 0. -1.
        994    1    1    2    0    0 -0.16723323806E+02  0.86682173018E+01  0.59335448727E+01  0.17233529675E+03  0.17120000000E+03 0.  0.
        998    1    1    2    0    0 -0.99906006679E+01 -0.36794284007E+00  0.14136661961E+04  0.14137369139E+04  0.10000000000E+02 0. -1.
</event>
<event>
 5    1  0.1252945E-008  0.3804243E+03  0.7957747E-01  0.3449313E+00
         13   -1    0    0    0    0  0.00000000000E+00  0.00000000000E+00  0.14999999963E+04  0.15000000000E+04  0.10566000000E+00 0.  1.
        994   -1    0    0    0    0 -0.00000000000E+00 -0.00000000000E+00  0.11368683772E-12  0.17120000000E+03  0.17120000000E+03 0.  0.
         13    1    1    2    0    0  0.45717803787E+02  0.22356687270E+01  0.21656948314E+03  0.22135371691E+03  0.10566000000E+00 0.  1.
        994    1    1    2    0    0 -0.52904752948E+02 -0.57946920941E+01  0.13433185667E+02  0.17978426466E+03  0.17120000000E+03 0.  0.
        998    1    1    2    0    0  0.71869491609E+01  0.35590233670E+01  0.12699973275E+04  0.12700620184E+04  0.10000000000E+02 0.  1.
</event>
<event>
 5    1  0.1252945E-008  0.3756192E+03  0.7957747E-01  0.3470458E+00
         13   -1    0    0    0    0  0.00000000000E+00  0.00000000000E+00  0.14999999963E+04  0.15000000000E+04  0.10566000000E+00 0.  1.
        994   -1    0    0    0    0 -0.00000000000E+00 -0.00000000000E+00  0.11368683772E-12  0.17120000000E+03  0.17120000000E+03 0.  0.
         13    1    1    2    0    0  0.50626755215E+02  0.26394416839E+02  0.29362833436E+03  0.29912763745E+03  0.10566000000E+00 0.  1.
        994    1    1    2    0    0 -0.96689254355E+01 -0.12049297506E+02  0.71711156990E+01  0.17204516439E+03  0.17120000000E+03 0.  0.
        998    1    1    2    0    0 -0.40957829780E+02 -0.14345119333E+02  0.11992005462E+04  0.12000271982E+04  0.10000000000E+02 0.  1.
</event>
<event>
 5    1  0.1448983E-008  0.3867017E+03  0.7957747E-01  0.3422487E+00
         13   -1    0    0    0    0  0.00000000000E+00  0.00000000000E+00  0.14999999963E+04  0.15000000000E+04  0.10566000000E+00 0.  1.
        994   -1    0    0    0    0 -0.00000000000E+00 -0.00000000000E+00  0.11368683772E-12  0.17120000000E+03  0.17120000000E+03 0.  0.
         13    1    1    2    0    0 -0.10781961975E+02 -0.78433548784E+00  0.56458313023E+02  0.57484068746E+02  0.10566000000E+00 0.  1.
        994    1    1    2    0    0  0.45096229088E+02  0.11135376885E+01  0.74714376949E+01  0.17720093743E+03  0.17120000000E+03 0.  0.
        998    1    1    2    0    0 -0.34314267113E+02 -0.32920220065E+00  0.14360702456E+04  0.14365149938E+04  0.10000000000E+02 0.  1.
</event>
<event>
 5    1  0.1252945E-008  0.3826473E+03  0.7957747E-01  0.3439712E+00
         13   -1    0    0    0    0  0.00000000000E+00  0.00000000000E+00  0.14999999963E+04  0.15000000000E+04  0.10566000000E+00 0.  1.
        994   -1    0    0    0    0 -0.00000000000E+00 -0.00000000000E+00  0.11368683772E-12  0.17120000000E+03  0.17120000000E+03 0.  0.
         13    1    1    2    0    0  0.69230182815E+01  0.20320529658E+02  0.89348662024E+02  0.91891494042E+02  0.10566000000E+00 0.  1.
        994    1    1    2    0    0 -0.25897981374E+00  0.26978740189E+01  0.28270648147E+01  0.17124478938E+03  0.17120000000E+03 0.  0.
        998    1    1    2    0    0 -0.66640384678E+01 -0.23018403677E+02  0.14078242694E+04  0.14080637166E+04  0.10000000000E+02 0.  1.
</event>
<event>
 5    1  0.1252945E-008  0.3846852E+03  0.7957747E-01  0.3431008E+00
         13   -1    0    0    0    0  0.00000000000E+00  0.00000000000E+00  0.14999999963E+04  0.15000000000E+04  0.10566000000E+00 0. -1.
        994   -1    0    0    0    0 -0.00000000000E+00 -0.00000000000E+00  0.11368683772E-12  0.17120000000E+03  0.17120000000E+03 0.  0.
         13    1    1    2    0    0 -0.23343715672E+01 -0.15692449725E+02  0.69766905408E+02  0.71548127321E+02  0.10566000000E+00 0. -1.
        994    1    1    2    0    0 -0.12827357063E+01  0.11930680743E+02  0.22606631199E+01  0.17163489491E+03  0.17120000000E+03 0.  0.
        998    1    1    2    0    0  0.36171072735E+01  0.37617689818E+01  0.14279724278E+04  0.14280169778E+04  0.10000000000E+02 0. -1.
</event>
<event>
 5    1  0.1252945E-008  0.3727967E+03  0.7957747E-01  0.3483136E+00
         13   -1    0    0    0    0  0.00000000000E+00  0.00000000000E+00  0.14999999963E+04  0.15000000000E+04  0.10566000000E+00 0. -1.
        994   -1    0    0    0    0 -0.00000000000E+00 -0.00000000000E+00  0.11368683772E-12  0.17120000000E+03  0.17120000000E+03 0.  0.
         13    1    1    2    0    0  0.19211366393E+02  0.90636573776E+01  0.26542792187E+02  0.33996433120E+02  0.10566000000E+00 0. -1.
        994    1    1    2    0    0 -0.42553171909E+01  0.82786378137E+01  0.81113145236E+01  0.17164462413E+03  0.17120000000E+03 0.  0.
        998    1    1    2    0    0 -0.14956049202E+02 -0.17342295191E+02  0.14653458896E+04  0.14655589428E+04  0.10000000000E+02 0. -1.
</event>
<event>
 5    1  0.1252945E-008  0.3755736E+03  0.7957747E-01  0.3470661E+00
         13   -1    0    0    0    0  0.00000000000E+00  0.00000000000E+00  0.14999999963E+04  0.15000000000E+04  0.10566000000E+00 0.  1.
        994   -1    0    0    0    0 -0.00000000000E+00 -0.00000000000E+00  0.11368683772E-12  0.17120000000E+03  0.17120000000E+03 0.  0.
         13    1    1    2    0    0 -0.62089996100E+02 -0.47308176865E+02  0.37022098099E+03  0.37836069715E+03  0.10566000000E+00 0.  1.
        994    1    1    2    0    0  0.77450557223E+02  0.22803527316E+02  0.28830978916E+02  0.19146606754E+03  0.17120000000E+03 0.  0.
        998    1    1    2    0    0 -0.15360561123E+02  0.24504649549E+02  0.11009480364E+04  0.11013732353E+04  0.10000000000E+02 0.  1.
</event>
<event>
 5    1  0.1252945E-008  0.2593703E+03  0.7957747E-01  0.4236912E+00
         13   -1    0    0    0    0  0.00000000000E+00  0.00000000000E+00  0.14999999963E+04  0.15000000000E+04  0.10566000000E+00 0.  1.
        994   -1    0    0    0    0 -0.00000000000E+00 -0.00000000000E+00  0.11368683772E-12  0.17120000000E+03  0.17120000000E+03 0.  0.
         13    1    1    2    0    0 -0.19173546056E+03  0.23572205857E+02  0.56297365932E+03  0.59519533598E+03  0.10566000000E+00 0.  1.
        994    1    1    2    0    0  0.48653612548E+02 -0.97916627863E+02  0.10543963018E+03  0.22887069633E+03  0.17120000000E+03 0.  0.
        998    1    1    2    0    0  0.14308184801E+03  0.74344422006E+02  0.83158670678E+03  0.84713396769E+03  0.10000000000E+02 0.  1.
</event>
<event>
 5    1  0.1252945E-008  0.3797665E+03  0.7957747E-01  0.3452176E+00
         13   -1    0    0    0    0  0.00000000000E+00  0.00000000000E+00  0.14999999963E+04  0.15000000000E+04  0.10566000000E+00 0. -1.
        994   -1    0    0    0    0 -0.00000000000E+00 -0.00000000000E+00  0.11368683772E-12  0.17120000000E+03  0.17120000000E+03 0.  0.
         13    1    1    2    0    0  0.30887524359E+02  0.21673731958E+02  0.12309481059E+03  0.12874833349E+03  0.10566000000E+00 0. -1.
        994    1    1    2    0    0 -0.26082057282E+02 -0.10375960862E+03  0.43548033213E+02  0.20652409373E+03  0.17120000000E+03 0.  0.
        998    1    1    2    0    0 -0.48054670776E+01  0.82085876665E+02  0.13333571525E+04  0.13359275728E+04  0.10000000000E+02 0. -1.
</event>
<event>
 5    1  0.1252945E-008  0.3785218E+03  0.7957747E-01  0.3457620E+00
         13   -1    0    0    0    0  0.00000000000E+00  0.00000000000E+00  0.14999999963E+04  0.15000000000E+04  0.10566000000E+00 0. -1.
        994   -1    0    0    0    0 -0.00000000000E+00 -0.00000000000E+00  0.11368683772E-12  0.17120000000E+03  0.17120000000E+03 0.  0.
         13    1    1    2    0    0  0.66186161214E+00  0.14914356884E+02  0.20562650970E+02  0.25410822124E+02  0.10566000000E+00 0. -1.
        994    1    1    2    0    0  0.86633688279E+01 -0.14673377323E+02  0.58572273651E+01  0.17214560428E+03  0.17120000000E+03 0.  0.
        998    1    1    2    0    0 -0.93252304400E+01 -0.24097956091E+00  0.14735801179E+04  0.14736435736E+04  0.10000000000E+02 0. -1.
</event>
<event>
 5    1  0.1252945E-008  0.3796489E+03  0.7957747E-01  0.3452689E+00
         13   -1    0    0    0    0  0.00000000000E+00  0.00000000000E+00  0.14999999963E+04  0.15000000000E+04  0.10566000000E+00 0. -1.
        994   -1    0    0    0    0 -0.00000000000E+00 -0.00000000000E+00  0.11368683772E-12  0.17120000000E+03  0.17120000000E+03 0.  0.
         13    1    1    2    0    0 -0.11107253036E+02  0.23801642023E+02  0.84251531213E+02  0.88250897495E+02  0.10566000000E+00 0. -1.
        994    1    1    2    0    0  0.12472966282E+02  0.43382810227E+01  0.48943751387E+01  0.17177831783E+03  0.17120000000E+03 0.  0.
        998    1    1    2    0    0 -0.13657132452E+01 -0.28139923046E+02  0.14108540899E+04  0.14111707847E+04  0.10000000000E+02 0. -1.
</event>
<event>
 5    1  0.1252945E-008  0.3770201E+03  0.7957747E-01  0.3464237E+00
         13   -1    0    0    0    0  0.00000000000E+00  0.00000000000E+00  0.14999999963E+04  0.15000000000E+04  0.10566000000E+00 0.  1.
        994   -1    0    0    0    0 -0.00000000000E+00 -0.00000000000E+00  0.11368683772E-12  0.17120000000E+03  0.17120000000E+03 0.  0.
         13    1    1    2    0    0  0.29319579604E+02  0.16754995900E+01  0.71994484688E+02  0.77753855445E+02  0.10566000000E+00 0.  1.
        994    1    1    2    0    0 -0.26734000172E+02  0.13534451534E+01  0.80679427126E+01  0.17346777879E+03  0.17120000000E+03 0.  0.
        998    1    1    2    0    0 -0.25855794315E+01 -0.30289447434E+01  0.14199375689E+04  0.14199783658E+04  0.10000000000E+02 0.  1.
</event>
<event>
 5    1  0.1252945E-008  0.3833457E+03  0.7957747E-01  0.3436719E+00
         13   -1    0    0    0    0  0.00000000000E+00  0.00000000000E+00  0.14999999963E+04  0.15000000000E+04  0.10566000000E+00 0. -1.
        994   -1    0    0    0    0 -0.00000000000E+00 -0.00000000000E+00  0.11368683772E-12  0.17120000000E+03  0.17120000000E+03 0.  0.
         13    1    1    2    0    0  0.15207187146E+02  0.11155555164E+02  0.73714072582E+02  0.76088636553E+02  0.10566000000E+00 0. -1.
        994    1    1    2    0    0 -0.79142373276E+01 -0.18836506832E+01  0.26725727391E+01  0.17141401908E+03  0.17120000000E+03 0.  0.
        998    1    1    2    0    0 -0.72929498183E+01 -0.92719044804E+01  0.14236133510E+04  0.14236973444E+04  0.10000000000E+02 0. -1.
</event>
<event>
 5    1  0.1252945E-008  0.3857619E+03  0.7957747E-01  0.3426447E+00
         13   -1    0    0    0    0  0.00000000000E+00  0.00000000000E+00  0.14999999963E+04  0.15000000000E+04  0.10566000000E+00 0. -1.
        994   -1    0    0    0    0 -0.00000000000E+00 -0.00000000000E+00  0.11368683772E-12  0.17120000000E+03  0.17120000000E+03 0.  0.
         13    1    1    2    0    0  0.94932127640E+01 -0.75554943140E+01  0.55752162794E+02  0.57057176614E+02  0.10566000000E+00 0. -1.
        994    1    1    2    0    0 -0.45024276554E+01  0.22691449461E+02  0.30099744383E+01  0.17278215672E+03  0.17120000000E+03 0.  0.
        998    1    1    2    0    0 -0.49907851086E+01 -0.15135955147E+02  0.14412378590E+04  0.14413606667E+04  0.10000000000E+02 0. -1.
</event>
<event>
 5    1  0.1252945E-008  0.3695167E+03  0.7957747E-01  0.3498115E+00
         13   -1    0    0    0    0  0.00000000000E+00  0.00000000000E+00  0.14999999963E+04  0.15000000000E+04  0.10566000000E+00 0.  1.
        994   -1    0    0    0    0 -0.00000000000E+00 -0.00000000000E+00  0.11368683772E-12  0.17120000000E+03  0.17120000000E+03 0.  0.
         13    1    1    2    0    0  0.11185715233E+02 -0.25282805114E+02  0.33227942336E+02  0.43225545405E+02  0.10566000000E+00 0.  1.
        994    1    1    2    0    0 -0.66092724955E+01 -0.62215558717E+01  0.10971113241E+02  0.17179113937E+03  0.17120000000E+03 0.  0.
        998    1    1    2    0    0 -0.45764427374E+01  0.31504360986E+02  0.14558009407E+04  0.14561833152E+04  0.10000000000E+02 0.  1.
</event>
<event>
 5    1  0.1252945E-008  0.4342051E+03  0.7957747E-01  0.3244507E+00
         13   -1    0    0    0    0  0.00000000000E+00  0.00000000000E+00  0.14999999963E+04  0.15000000000E+04  0.10566000000E+00 0. -1.
        994   -1    0    0    0    0 -0.00000000000E+00 -0.00000000000E+00  0.11368683772E-12  0.17120000000E+03  0.17120000000E+03 0.  0.
         13    1    1    2    0    0  0.90882415078E+02 -0.70707882327E+02  0.11194522151E+03  0.16059564682E+03  0.10566000000E+00 0. -1.
        994    1    1    2    0    0 -0.89396585548E+02  0.62170956877E+02  0.10681128439E+03  0.22929253773E+03  0.17120000000E+03 0.  0.
        998    1    1    2    0    0 -0.14858295306E+01  0.85369254500E+01  0.12812434904E+04  0.12813118154E+04  0.10000000000E+02 0. -1.
</event>
<event>
 5    1  0.1252945E-008  0.3765131E+03  0.7957747E-01  0.3466483E+00
         13   -1    0    0    0    0  0.00000000000E+00  0.00000000000E+00  0.14999999963E+04  0.15000000000E+04  0.10566000000E+00 0. -1.
        994   -1    0    0    0    0 -0.00000000000E+00 -0.00000000000E+00  0.11368683772E-12  0.17120000000E+03  0.17120000000E+03 0.  0.
         13    1    1    2    0    0  0.51721797173E+01  0.15325193901E+02  0.19578566416E+02  0.25395756300E+02  0.10566000000E+00 0. -1.
        994    1    1    2    0    0 -0.78817888669E+01 -0.10477544413E+02  0.64853201760E+01  0.17182374955E+03  0.17120000000E+03 0.  0.
        998    1    1    2    0    0  0.27096091496E+01 -0.48476494879E+01  0.14739361097E+04  0.14739804941E+04  0.10000000000E+02 0. -1.
</event>
<event>
 5    1  0.1252945E-008  0.3800092E+03  0.7957747E-01  0.3451118E+00
         13   -1    0    0    0    0  0.00000000000E+00  0.00000000000E+00  0.14999999963E+04  0.15000000000E+04  0.10566000000E+00 0. -1.
        994   -1    0    0    0    0 -0.00000000000E+00 -0.00000000000E+00  0.11368683772E-12  0.17120000000E+03  0.17120000000E+03 0.  0.
         13    1    1    2    0    0 -0.44468244414E+02  0.28403702810E+02  0.26306318929E+03  0.26830290311E+03  0.10566000000E+00 0. -1.
        994    1    1    2    0    0  0.45185249079E+02 -0.40009217495E+02  0.16402109549E+02  0.18226605119E+03  0.17120000000E+03 0.  0.
        998    1    1    2    0    0 -0.71700466462E+00  0.11605514685E+02  0.12205346974E+04  0.12206310457E+04  0.10000000000E+02 0. -1.
</event>
<event>
 5    1  0.1252945E-008  0.2939200E+03  0.7957747E-01  0.3940404E+00
         13   -1    0    0    0    0  0.00000000000E+00  0.00000000000E+00  0.14999999963E+04  0.15000000000E+04  0.10566000000E+00 0. -1.
        994   -1    0    0    0    0 -0.00000000000E+00 -0.00000000000E+00  0.11368683772E-12  0.17120000000E+03  0.17120000000E+03 0.  0.
         13    1    1    2    0    0 -0.56180066142E+02 -0.17779252390E+03  0.61868538985E+03  0.64617180701E+03  0.10566000000E+00 0. -1.
        994    1    1    2    0    0  0.58578787898E+02  0.15669667182E+03  0.12817096815E+03  0.27151898355E+03  0.17120000000E+03 0.  0.
        998    1    1    2    0    0 -0.23987217565E+01  0.21095852077E+02  0.75314363828E+03  0.75350920944E+03  0.10000000000E+02 0.  1.
</event>
<event>
 5    1  0.1252945E-008  0.3767084E+03  0.7957747E-01  0.3465617E+00
         13   -1    0    0    0    0  0.00000000000E+00  0.00000000000E+00  0.14999999963E+04  0.15000000000E+04  0.10566000000E+00 0. -1.
        994   -1    0    0    0    0 -0.00000000000E+00 -0.00000000000E+00  0.11368683772E-12  0.17120000000E+03  0.17120000000E+03 0.  0.
         13    1    1    2    0    0 -0.12284509457E+02 -0.19160183089E+02  0.11382661888E+02  0.25447945777E+02  0.10566000000E+00 0. -1.
        994    1    1    2    0    0  0.88476567058E+01  0.20881561797E+02  0.16374374290E+02  0.17347011496E+03  0.17120000000E+03 0.  0.
        998    1    1    2    0    0  0.34368527511E+01 -0.17213787086E+01  0.14722429601E+04  0.14722819393E+04  0.10000000000E+02 0. -1.
</event>
<event>
 5    1  0.1252945E-008  0.3846601E+03  0.7957747E-01  0.3431115E+00
         13   -1    0    0    0    0  0.00000000000E+00  0.00000000000E+00  0.14999999963E+04  0.15000000000E+04  0.10566000000E+00 0. -1.
        994   -1    0    0    0    0 -0.00000000000E+00 -0.00000000000E+00  0.11368683772E-12  0.17120000000E+03  0.17120000000E+03 0.  0.
         13    1    1    2    0    0 -0.14505296182E+02 -0.15413521354E+01  0.60583958617E+02  0.62315380039E+02  0.10566000000E+00 0. -1.
        994    1    1    2    0    0  0.49688176361E+01  0.72980178318E+00  0.18820450949E+01  0.17128398598E+03  0.17120000000E+03 0.  0.
        998    1    1    2    0    0  0.95364785458E+01  0.81155035218E+00  0.14375339926E+04  0.14376006340E+04  0.10000000000E+02 0. -1.
</event>
<event>
 5    1  0.1252945E-008  0.3810042E+03  0.7957747E-01  0.3446798E+00
         13   -1    0    0    0    0  0.00000000000E+00  0.00000000000E+00  0.14999999963E+04  0.15000000000E+04  0.10566000000E+00 0. -1.
        994   -1    0    0    0    0 -0.00000000000E+00 -0.00000000000E+00  0.11368683772E-12  0.17120000000E+03  0.17120000000E+03 0.  0.
         13    1    1    2    0    0 -0.98799161472E+01 -0.21859164697E+02  0.78643917620E+02  0.82221121173E+02  0.10566000000E+00 0. -1.
        994    1    1    2    0    0  0.58440530393E+01  0.12198718834E+02  0.42369324621E+01  0.17178577733E+03  0.17120000000E+03 0.  0.
        998    1    1    2    0    0  0.40358631079E+01  0.96604458634E+01  0.14171191462E+04  0.14171931015E+04  0.10000000000E+02 0. -1.
</event>
<event>
 5    1  0.1252945E-008  0.4239819E+03  0.7957747E-01  0.3279491E+00
         13   -1    0    0    0    0  0.00000000000E+00  0.00000000000E+00  0.14999999963E+04  0.15000000000E+04  0.10566000000E+00 0.  1.
        994   -1    0    0    0    0 -0.00000000000E+00 -0.00000000000E+00  0.11368683772E-12  0.17120000000E+03  0.17120000000E+03 0.  0.
         13    1    1    2    0    0 -0.12017157367E+02 -0.14396031835E+03  0.20162086683E+03  0.24803219637E+03  0.10566000000E+00 0.  1.
        994    1    1    2    0    0  0.85558397894E+00  0.13607318971E+03  0.12948386235E+03  0.25414986837E+03  0.17120000000E+03 0.  0.
        998    1    1    2    0    0  0.11161573388E+02  0.78871286324E+01  0.11688952671E+04  0.11690179353E+04  0.10000000000E+02 0. -1.
</event>
<event>
 5    1  0.1252945E-008  0.3694437E+03  0.7957747E-01  0.3498452E+00
         13   -1    0    0    0    0  0.00000000000E+00  0.00000000000E+00  0.14999999963E+04  0.15000000000E+04  0.10566000000E+00 0. -1.
        994   -1    0    0    0    0 -0.00000000000E+00 -0.00000000000E+00  0.11368683772E-12  0.17120000000E+03  0.17120000000E+03 0.  0.
         13    1    1    2    0    0 -0.76231287179E+02  0.58050487086E+02  0.44282454744E+03  0.45307246570E+03  0.10566000000E+00 0. -1.
        994    1    1    2    0    0  0.39407179260E+02 -0.32733174795E+02  0.19858614505E+02  0.17980042013E+03  0.17120000000E+03 0.  0.
        998    1    1    2    0    0  0.36824107919E+02 -0.25317312291E+02  0.10373168343E+04  0.10383271142E+04  0.10000000000E+02 0. -1.
</event>
<event>
 5    1  0.1252945E-008  0.3758407E+03  0.7957747E-01  0.3469471E+00
         13   -1    0    0    0    0  0.00000000000E+00  0.00000000000E+00  0.14999999963E+04  0.15000000000E+04  0.10566000000E+00 0. -1.
        994   -1    0    0    0    0 -0.00000000000E+00 -0.00000000000E+00  0.11368683772E-12  0.17120000000E+03  0.17120000000E+03 0.  0.
         13    1    1    2    0    0 -0.32991215738E+02 -0.15345514076E+02  0.96069152779E+02  0.10272876130E+03  0.10566000000E+00 0. -1.
        994    1    1    2    0    0  0.38198127192E+02  0.13571131255E+02  0.11838042610E+02  0.17633165279E+03  0.17120000000E+03 0.  0.
        998    1    1    2    0    0 -0.52069114549E+01  0.17743828208E+01  0.13920928009E+04  0.13921395859E+04  0.10000000000E+02 0. -1.
</event>
<event>
 5    1  0.1252945E-008  0.3709457E+03  0.7957747E-01  0.3491556E+00
         13   -1    0    0    0    0  0.00000000000E+00  0.00000000000E+00  0.14999999963E+04  0.15000000000E+04  0.10566000000E+00 0.  1.
        994   -1    0    0    0    0 -0.00000000000E+00 -0.00000000000E+00  0.11368683772E-12  0.17120000000E+03  0.17120000000E+03 0.  0.
         13    1    1    2    0    0 -0.13806883003E+02  0.90135867303E+01  0.11440363198E+02  0.20069076664E+02  0.10566000000E+00 0.  1.
        994    1    1    2    0    0  0.16844873763E+02 -0.67768937343E+01  0.99126209130E+01  0.17244528441E+03  0.17120000000E+03 0.  0.
        998    1    1    2    0    0 -0.30379907598E+01 -0.22366929960E+01  0.14786470122E+04  0.14786856389E+04  0.10000000000E+02 0.  1.
</event>
<event>
 5    1  0.1252945E-008  0.4123372E+03  0.7957747E-01  0.3321408E+00
         13   -1    0    0    0    0  0.00000000000E+00  0.00000000000E+00  0.14999999963E+04  0.15000000000E+04  0.10566000000E+00 0.  1.
        994   -1    0    0    0    0 -0.00000000000E+00 -0.00000000000E+00  0.11368683772E-12  0.17120000000E+03  0.17120000000E+03 0.  0.
         13    1    1    2    0    0  0.21238053272E+02 -0.42432484126E+02  0.19311520198E+02  0.51230036036E+02  0.10566000000E+00 0.  1.
        994    1    1    2    0    0  0.26978138447E+01  0.31830878008E+02  0.39588825856E+02  0.17859786708E+03  0.17120000000E+03 0.  0.
        998    1    1    2    0    0 -0.23935867117E+02  0.10601606118E+02  0.14410996502E+04  0.14413720969E+04  0.10000000000E+02 0.  1.
</event>
<event>
 5    1  0.1252945E-008  0.4101769E+03  0.7957747E-01  0.3329443E+00
         13   -1    0    0    0    0  0.00000000000E+00  0.00000000000E+00  0.14999999963E+04  0.15000000000E+04  0.10566000000E+00 0.  1.
        994   -1    0    0    0    0 -0.00000000000E+00 -0.00000000000E+00  0.11368683772E-12  0.17120000000E+03  0.17120000000E+03 0.  0.
         13    1    1    2    0    0  0.81996010827E+02  0.12073263861E+03  0.25606150224E+03  0.29473245480E+03  0.10566000000E+00 0.  1.
        994    1    1    2    0    0 -0.81433937127E+02 -0.10769318508E+03  0.11330935847E+03  0.24571886160E+03  0.17120000000E+03 0.  0.
        998    1    1    2    0    0 -0.56207370077E+00 -0.13039453535E+02  0.11306291356E+04  0.11307486836E+04  0.10000000000E+02 0.  0.
</event>
<event>
 5    1  0.1252945E-008  0.3842719E+03  0.7957747E-01  0.3432766E+00
         13   -1    0    0    0    0  0.00000000000E+00  0.00000000000E+00  0.14999999963E+04  0.15000000000E+04  0.10566000000E+00 0. -1.
        994   -1    0    0    0    0 -0.00000000000E+00 -0.00000000000E+00  0.11368683772E-12  0.17120000000E+03  0.17120000000E+03 0.  0.
         13    1    1    2    0    0  0.10932450461E+02 -0.75543932957E+01  0.43778425115E+02  0.45750945353E+02  0.10566000000E+00 0. -1.
        994    1    1    2    0    0 -0.72477279321E+01  0.64018733398E+01  0.23003554338E+01  0.17148832374E+03  0.17120000000E+03 0.  0.
        998    1    1    2    0    0 -0.36847225291E+01  0.11525199560E+01  0.14539212157E+04  0.14539607309E+04  0.10000000000E+02 0. -1.
</event>
<event>
 5    1  0.1252945E-008  0.3777309E+03  0.7957747E-01  0.3461098E+00
         13   -1    0    0    0    0  0.00000000000E+00  0.00000000000E+00  0.14999999963E+04  0.15000000000E+04  0.10566000000E+00 0. -1.
        994   -1    0    0    0    0 -0.00000000000E+00 -0.00000000000E+00  0.11368683772E-12  0.17120000000E+03  0.17120000000E+03 0.  0.
         13    1    1    2    0    0  0.24710117258E+02  0.91236494744E+00  0.57349225104E+02  0.62452918977E+02  0.10566000000E+00 0. -1.
        994    1    1    2    0    0 -0.88293277381E+01  0.29091871061E+01  0.55741024326E+01  0.17154279646E+03  0.17120000000E+03 0.  0.
        998    1    1    2    0    0 -0.15880789519E+02 -0.38215520536E+01  0.14370766687E+04  0.14372042846E+04  0.10000000000E+02 0. -1.
</event>
<event>
 5    1  0.1252945E-008  0.3797238E+03  0.7957747E-01  0.3452362E+00
         13   -1    0    0    0    0  0.00000000000E+00  0.00000000000E+00  0.14999999963E+04  0.15000000000E+04  0.10566000000E+00 0. -1.
        994   -1    0    0    0    0 -0.00000000000E+00 -0.00000000000E+00  0.11368683772E-12  0.17120000000E+03  0.17120000000E+03 0.  0.
         13    1    1    2    0    0 -0.79227560598E+01 -0.15179438001E+02  0.32794770175E+02  0.36995858099E+02  0.10566000000E+00 0. -1.
        994    1    1    2    0    0  0.46894463071E+01  0.87370786293E+01  0.46016919422E+01  0.17154866079E+03  0.17120000000E+03 0.  0.
        998    1    1    2    0    0  0.32333097527E+01  0.64423593721E+01  0.14626035342E+04  0.14626554811E+04  0.10000000000E+02 0. -1.
</event>
<event>
 5    1  0.1252945E-008  0.3854646E+03  0.7957747E-01  0.3427704E+00
         13   -1    0    0    0    0  0.00000000000E+00  0.00000000000E+00  0.14999999963E+04  0.15000000000E+04  0.10566000000E+00 0.  1.
        994   -1    0    0    0    0 -0.00000000000E+00 -0.00000000000E+00  0.11368683772E-12  0.17120000000E+03  0.17120000000E+03 0.  0.
         13    1    1    2    0    0 -0.14502296930E+02 -0.18108277830E+00  0.79814636193E+02  0.81121740131E+02  0.10566000000E+00 0.  1.
        994    1    1    2    0    0  0.23585659531E+01 -0.64187862016E+01  0.15532319569E+01  0.17134356183E+03  0.17120000000E+03 0.  0.
        998    1    1    2    0    0  0.12143730977E+02  0.65998689799E+01  0.14186321281E+04  0.14187346980E+04  0.10000000000E+02 0.  1.
</event>
<event>
 5    1  0.1254716E-008  0.3856306E+03  0.7957747E-01  0.3427002E+00
         13   -1    0    0    0    0  0.00000000000E+00  0.00000000000E+00  0.14999999963E+04  0.15000000000E+04  0.10566000000E+00 0.  1.
        994   -1    0    0    0    0 -0.00000000000E+00 -0.00000000000E+00  0.11368683772E-12  0.17120000000E+03  0.17120000000E+03 0.  0.
         13    1    1    2    0    0  0.12267604863E+02 -0.39798492623E+01  0.64856716402E+02  0.66126682631E+02  0.10566000000E+00 0.  1.
        994    1    1    2    0    0 -0.50664998793E+01  0.27294724537E+01  0.14261018722E+01  0.17130263631E+03  0.17120000000E+03 0.  0.
        998    1    1    2    0    0 -0.72011049833E+01  0.12503768087E+01  0.14337171780E+04  0.14337706811E+04  0.10000000000E+02 0.  1.
</event>
<event>
 5    1  0.1252945E-008  0.3714906E+03  0.7957747E-01  0.3489068E+00
         13   -1    0    0    0    0  0.00000000000E+00  0.00000000000E+00  0.14999999963E+04  0.15000000000E+04  0.10566000000E+00 0. -1.
        994   -1    0    0    0    0 -0.00000000000E+00 -0.00000000000E+00  0.11368683772E-12  0.17120000000E+03  0.17120000000E+03 0.  0.
         13    1    1    2    0    0 -0.48593701978E+02 -0.65374130700E+01  0.19230111021E+03  0.19845355576E+03  0.10566000000E+00 0. -1.
        994    1    1    2    0    0 -0.28676378476E+02 -0.11633298414E+02  0.11793452038E+02  0.17437371885E+03  0.17120000000E+03 0.  0.
        998    1    1    2    0    0  0.77270080454E+02  0.18170711484E+02  0.12959054340E+04  0.12983727254E+04  0.10000000000E+02 0. -1.
</event>
<event>
 5    1  0.1252945E-008  0.3823018E+03  0.7957747E-01  0.3441197E+00
         13   -1    0    0    0    0  0.00000000000E+00  0.00000000000E+00  0.14999999963E+04  0.15000000000E+04  0.10566000000E+00 0. -1.
        994   -1    0    0    0    0 -0.00000000000E+00 -0.00000000000E+00  0.11368683772E-12  0.17120000000E+03  0.17120000000E+03 0.  0.
         13    1    1    2    0    0  0.13148304450E+02  0.15873687066E+02  0.67182970374E+02  0.70273853767E+02  0.10566000000E+00 0. -1.
        994    1    1    2    0    0 -0.14123205514E+02 -0.17988388092E+02  0.47129116614E+01  0.17278512256E+03  0.17120000000E+03 0.  0.
        998    1    1    2    0    0  0.97490106481E+00  0.21147010259E+01  0.14281041142E+04  0.14281410237E+04  0.10000000000E+02 0.  0.
</event>
<event>
 5    1  0.1252945E-008  0.3720304E+03  0.7957747E-01  0.3486611E+00
         13   -1    0    0    0    0  0.00000000000E+00  0.00000000000E+00  0.14999999963E+04  0.15000000000E+04  0.10566000000E+00 0.  1.
        994   -1    0    0    0    0 -0.00000000000E+00 -0.00000000000E+00  0.11368683772E-12  0.17120000000E+03  0.17120000000E+03 0.  0.
         13    1    1    2    0    0  0.35427480943E+02 -0.51482121872E+01  0.48396647502E+02  0.60198481277E+02  0.10566000000E+00 0.  1.
        994    1    1    2    0    0 -0.25990319820E+02  0.10068082980E+02  0.14756660432E+02  0.17408061939E+03  0.17120000000E+03 0.  0.
        998    1    1    2    0    0 -0.94371611231E+01 -0.49198707929E+01  0.14368466883E+04  0.14369208993E+04  0.10000000000E+02 0.  1.
</event>
<event>
 5    1  0.1252945E-008  0.3773055E+03  0.7957747E-01  0.3462976E+00
         13   -1    0    0    0    0  0.00000000000E+00  0.00000000000E+00  0.14999999963E+04  0.15000000000E+04  0.10566000000E+00 0. -1.
        994   -1    0    0    0    0 -0.00000000000E+00 -0.00000000000E+00  0.11368683772E-12  0.17120000000E+03  0.17120000000E+03 0.  0.
         13    1    1    2    0    0 -0.26322714779E+02  0.15560185280E+01  0.64249774818E+02  0.69450350865E+02  0.10566000000E+00 0. -1.
        994    1    1    2    0    0  0.34164747570E+01 -0.42314305591E+01  0.55993161549E+01  0.17137785635E+03  0.17120000000E+03 0.  0.
        998    1    1    2    0    0  0.22906240022E+02  0.26754120312E+01  0.14301509053E+04  0.14303717928E+04  0.10000000000E+02 0. -1.
</event>
<event>
 5    1  0.1252945E-008  0.3828822E+03  0.7957747E-01  0.3438704E+00
         13   -1    0    0    0    0  0.00000000000E+00  0.00000000000E+00  0.14999999963E+04  0.15000000000E+04  0.10566000000E+00 0.  1.
        994   -1    0    0    0    0 -0.00000000000E+00 -0.00000000000E+00  0.11368683772E-12  0.17120000000E+03  0.17120000000E+03 0.  0.
         13    1    1    2    0    0 -0.37731048248E+01 -0.20810689506E+02  0.83110587545E+02  0.85759559490E+02  0.10566000000E+00 0.  1.
        994    1    1    2    0    0 -0.13121976777E+02  0.14878394765E+02  0.39895483119E+01  0.17239173240E+03  0.17120000000E+03 0.  0.
        998    1    1    2    0    0  0.16895081602E+02  0.59322947414E+01  0.14128998604E+04  0.14130487081E+04  0.10000000000E+02 0.  1.
</event>
<event>
 5    1  0.1252945E-008  0.3739795E+03  0.7957747E-01  0.3477800E+00
         13   -1    0    0    0    0  0.00000000000E+00  0.00000000000E+00  0.14999999963E+04  0.15000000000E+04  0.10566000000E+00 0. -1.
        994   -1    0    0    0    0 -0.00000000000E+00 -0.00000000000E+00  0.11368683772E-12  0.17120000000E+03  0.17120000000E+03 0.  0.
         13    1    1    2    0    0  0.79147219644E+00  0.21239746421E+02  0.28098996336E+02  0.35232343314E+02  0.10566000000E+00 0. -1.
        994    1    1    2    0    0 -0.40641947925E+01 -0.18231477171E+02  0.83947204137E+01  0.17242046216E+03  0.17120000000E+03 0.  0.
        998    1    1    2    0    0  0.32727225960E+01 -0.30082692505E+01  0.14635062795E+04  0.14635471945E+04  0.10000000000E+02 0. -1.
</event>
<event>
 5    1  0.1252945E-008  0.3776120E+03  0.7957747E-01  0.3461623E+00
         13   -1    0    0    0    0  0.00000000000E+00  0.00000000000E+00  0.14999999963E+04  0.15000000000E+04  0.10566000000E+00 0. -1.
        994   -1    0    0    0    0 -0.00000000000E+00 -0.00000000000E+00  0.11368683772E-12  0.17120000000E+03  0.17120000000E+03 0.  0.
         13    1    1    2    0    0  0.54202819796E+02  0.60345609698E+02  0.27768446545E+03  0.28928914912E+03  0.10566000000E+00 0. -1.
        994    1    1    2    0    0  0.81427171144E+01 -0.75205273517E+01  0.15463250856E+02  0.17225392391E+03  0.17120000000E+03 0.  0.
        998    1    1    2    0    0 -0.62345536910E+02 -0.52825082346E+02  0.12068522800E+04  0.12096569270E+04  0.10000000000E+02 0. -1.
</event>
<event>
 5    1  0.1252945E-008  0.3822127E+03  0.7957747E-01  0.3441580E+00
         13   -1    0    0    0    0  0.00000000000E+00  0.00000000000E+00  0.14999999963E+04  0.15000000000E+04  0.10566000000E+00 0.  1.
        994   -1    0    0    0    0 -0.00000000000E+00 -0.00000000000E+00  0.11368683772E-12  0.17120000000E+03  0.17120000000E+03 0.  0.
         13    1    1    2    0    0 -0.70530693192E+01  0.80568156848E+01  0.16737427470E+02  0.19869844190E+02  0.10566000000E+00 0.  1.
        994    1    1    2    0    0  0.74427672172E+01 -0.31806151177E+02  0.65695102333E+01  0.17441222578E+03  0.17120000000E+03 0.  0.
        998    1    1    2    0    0 -0.38969789799E+00  0.23749335492E+02  0.14766930586E+04  0.14769179300E+04  0.10000000000E+02 0.  1.
</event>
<event>
 5    1  0.1252945E-008  0.3812685E+03  0.7957747E-01  0.3445654E+00
         13   -1    0    0    0    0  0.00000000000E+00  0.00000000000E+00  0.14999999963E+04  0.15000000000E+04  0.10566000000E+00 0.  1.
        994   -1    0    0    0    0 -0.00000000000E+00 -0.00000000000E+00  0.11368683772E-12  0.17120000000E+03  0.17120000000E+03 0.  0.
         13    1    1    2    0    0  0.16053955471E+02 -0.81953619748E+01  0.46558991486E+02  0.49926388778E+02  0.10566000000E+00 0.  1.
        994    1    1    2    0    0 -0.78263652094E+01 -0.54682961610E+01  0.37976874667E+01  0.17150806595E+03  0.17120000000E+03 0.  0.
        998    1    1    2    0    0 -0.82275902614E+01  0.13663658136E+02  0.14496433173E+04  0.14497655453E+04  0.10000000000E+02 0.  1.
</event>
<event>
 5    1  0.1964107E-008  0.3852335E+03  0.7957747E-01  0.3428683E+00
         13   -1    0    0    0    0  0.00000000000E+00  0.00000000000E+00  0.14999999963E+04  0.15000000000E+04  0.10566000000E+00 0.  1.
        994   -1    0    0    0    0 -0.00000000000E+00 -0.00000000000E+00  0.11368683772E-12  0.17120000000E+03  0.17120000000E+03 0.  0.
         13    1    1    2    0    0 -0.15040763675E+01 -0.10959080683E+02  0.39821688415E+02  0.41329671271E+02  0.10566000000E+00 0.  1.
        994    1    1    2    0    0 -0.60747702286E-01  0.10295485030E+02  0.18626719128E+01  0.17151941654E+03  0.17120000000E+03 0.  0.
        998    1    1    2    0    0  0.15648240697E+01  0.66359565365E+00  0.14583156360E+04  0.14583509122E+04  0.10000000000E+02 0.  1.
</event>
<event>
 5    1  0.1252945E-008  0.3808184E+03  0.7957747E-01  0.3447603E+00
         13   -1    0    0    0    0  0.00000000000E+00  0.00000000000E+00  0.14999999963E+04  0.15000000000E+04  0.10566000000E+00 0.  1.
        994   -1    0    0    0    0 -0.00000000000E+00 -0.00000000000E+00  0.11368683772E-12  0.17120000000E+03  0.17120000000E+03 0.  0.
         13    1    1    2    0    0  0.23890561309E+02  0.30053571853E+02  0.36369638278E+02  0.52884192849E+02  0.10566000000E+00 0.  1.
        994    1    1    2    0    0 -0.22652569318E+02 -0.32839587908E+02  0.22584129550E+02  0.17723165727E+03  0.17120000000E+03 0.  0.
        998    1    1    2    0    0 -0.12379919906E+01  0.27860160551E+01  0.14410462285E+04  0.14410841499E+04  0.10000000000E+02 0.  1.
</event>
<event>
 5    1  0.1252945E-008  0.3777457E+03  0.7957747E-01  0.3461033E+00
         13   -1    0    0    0    0  0.00000000000E+00  0.00000000000E+00  0.14999999963E+04  0.15000000000E+04  0.10566000000E+00 0. -1.
        994   -1    0    0    0    0 -0.00000000000E+00 -0.00000000000E+00  0.11368683772E-12  0.17120000000E+03  0.17120000000E+03 0.  0.
         13    1    1    2    0    0  0.56902520158E+02 -0.15817194244E+03  0.98923750507E+03  0.10034177160E+04  0.10566000000E+00 0. -1.
        994    1    1    2    0    0 -0.57314340229E+02  0.14796735724E+03  0.95394191296E+02  0.25216812673E+03  0.17120000000E+03 0.  0.
        998    1    1    2    0    0  0.41182007148E+00  0.10204585203E+02  0.41536829991E+03  0.41561415728E+03  0.10000000000E+02 0.  0.
</event>
<event>
 5    1  0.1252945E-008  0.3844124E+03  0.7957747E-01  0.3432168E+00
         13   -1    0    0    0    0  0.00000000000E+00  0.00000000000E+00  0.14999999963E+04  0.15000000000E+04  0.10566000000E+00 0. -1.
        994   -1    0    0    0    0 -0.00000000000E+00 -0.00000000000E+00  0.11368683772E-12  0.17120000000E+03  0.17120000000E+03 0.  0.
         13    1    1    2    0    0  0.12755019902E+02 -0.15576452703E+02  0.10689907863E+03  0.10877840129E+03  0.10566000000E+00 0. -1.
        994    1    1    2    0    0 -0.13790208761E+02  0.24511909221E+01  0.25688046753E+01  0.17179120161E+03  0.17120000000E+03 0.  0.
        998    1    1    2    0    0  0.10351888590E+01  0.13125261781E+02  0.13905321130E+04  0.13906303971E+04  0.10000000000E+02 0. -1.
</event>
<event>
 5    1  0.1252945E-008  0.3820788E+03  0.7957747E-01  0.3442157E+00
         13   -1    0    0    0    0  0.00000000000E+00  0.00000000000E+00  0.14999999963E+04  0.15000000000E+04  0.10566000000E+00 0.  1.
        994   -1    0    0    0    0 -0.00000000000E+00 -0.00000000000E+00  0.11368683772E-12  0.17120000000E+03  0.17120000000E+03 0.  0.
         13    1    1    2    0    0  0.17879002358E+01  0.13695753420E+02  0.25896644916E+02  0.29349917052E+02  0.10566000000E+00 0.  1.
        994    1    1    2    0    0 -0.19356057733E+02 -0.50049804248E+02  0.12707771111E+02  0.17986263459E+03  0.17120000000E+03 0.  0.
        998    1    1    2    0    0  0.17568157497E+02  0.36354050828E+02  0.14613955803E+04  0.14619874484E+04  0.10000000000E+02 0.  1.
</event>
<event>
 5    1  0.1252945E-008  0.3822115E+03  0.7957747E-01  0.3441585E+00
         13   -1    0    0    0    0  0.00000000000E+00  0.00000000000E+00  0.14999999963E+04  0.15000000000E+04  0.10566000000E+00 0. -1.
        994   -1    0    0    0    0 -0.00000000000E+00 -0.00000000000E+00  0.11368683772E-12  0.17120000000E+03  0.17120000000E+03 0.  0.
         13    1    1    2    0    0  0.19698336099E+02 -0.16898820767E+02  0.11499063838E+03  0.11788321623E+03  0.10566000000E+00 0. -1.
        994    1    1    2    0    0  0.18928002290E+01  0.17325771775E+02  0.40296679063E+01  0.17213205188E+03  0.17120000000E+03 0.  0.
        998    1    1    2    0    0 -0.21591136328E+02 -0.42695100791E+00  0.13809796900E+04  0.13811847319E+04  0.10000000000E+02 0. -1.
</event>
<event>
 5    1  0.1252945E-008  0.3848002E+03  0.7957747E-01  0.3430520E+00
         13   -1    0    0    0    0  0.00000000000E+00  0.00000000000E+00  0.14999999963E+04  0.15000000000E+04  0.10566000000E+00 0. -1.
        994   -1    0    0    0    0 -0.00000000000E+00 -0.00000000000E+00  0.11368683772E-12  0.17120000000E+03  0.17120000000E+03 0.  0.
         13    1    1    2    0    0 -0.14837026877E+02  0.97597790107E+01  0.96028782736E+02  0.97657201120E+02  0.10566000000E+00 0. -1.
        994    1    1    2    0    0  0.30940740780E+00 -0.77320896365E+01  0.19264281720E+01  0.17138562387E+03  0.17120000000E+03 0.  0.
        998    1    1    2    0    0  0.14527619469E+02 -0.20276893742E+01  0.14020447854E+04  0.14021571750E+04  0.10000000000E+02 0. -1.
</event>
<event>
 5    1  0.1252945E-008  0.3770639E+03  0.7957747E-01  0.3464043E+00
         13   -1    0    0    0    0  0.00000000000E+00  0.00000000000E+00  0.14999999963E+04  0.15000000000E+04  0.10566000000E+00 0. -1.
        994   -1    0    0    0    0 -0.00000000000E+00 -0.00000000000E+00  0.11368683772E-12  0.17120000000E+03  0.17120000000E+03 0.  0.
         13    1    1    2    0    0  0.41694247777E+02 -0.13203664395E+01  0.16523563304E+03  0.17042000838E+03  0.10566000000E+00 0. -1.
        994    1    1    2    0    0 -0.10960874116E+02  0.23454397528E+02  0.78885127349E+01  0.17332604582E+03  0.17120000000E+03 0.  0.
        998    1    1    2    0    0 -0.30733373661E+02 -0.22134031088E+02  0.13268758505E+04  0.13274539458E+04  0.10000000000E+02 0. -1.
</event>
<event>
 5    1  0.1252945E-008  0.3814979E+03  0.7957747E-01  0.3444662E+00
         13   -1    0    0    0    0  0.00000000000E+00  0.00000000000E+00  0.14999999963E+04  0.15000000000E+04  0.10566000000E+00 0. -1.
        994   -1    0    0    0    0 -0.00000000000E+00 -0.00000000000E+00  0.11368683772E-12  0.17120000000E+03  0.17120000000E+03 0.  0.
         13    1    1    2    0    0  0.12313811375E+02 -0.20713238495E+02  0.80443259414E+02  0.83974980493E+02  0.10566000000E+00 0. -1.
        994    1    1    2    0    0 -0.19300623739E+02  0.18257284549E+02  0.57304141036E+01  0.17334393604E+03  0.17120000000E+03 0.  0.
        998    1    1    2    0    0  0.69868123634E+01  0.24559539464E+01  0.14138263228E+04  0.14138810835E+04  0.10000000000E+02 0. -1.
</event>
<event>
 5    1  0.1322814E-008  0.3859757E+03  0.7957747E-01  0.3425545E+00
         13   -1    0    0    0    0  0.00000000000E+00  0.00000000000E+00  0.14999999963E+04  0.15000000000E+04  0.10566000000E+00 0.  1.
        994   -1    0    0    0    0 -0.00000000000E+00 -0.00000000000E+00  0.11368683772E-12  0.17120000000E+03  0.17120000000E+03 0.  0.
         13    1    1    2    0    0 -0.23607719673E+01  0.13925814432E+02  0.82306220660E+02  0.83509440636E+02  0.10566000000E+00 0.  1.
        994    1    1    2    0    0  0.47860038518E+00 -0.17352149488E+02  0.21349701662E+01  0.17209103477E+03  0.17120000000E+03 0.  0.
        998    1    1    2    0    0  0.18821715821E+01  0.34263350562E+01  0.14155588055E+04  0.14155995246E+04  0.10000000000E+02 0.  1.
</event>
<event>
 5    1  0.1252945E-008  0.3752832E+03  0.7957747E-01  0.3471957E+00
         13   -1    0    0    0    0  0.00000000000E+00  0.00000000000E+00  0.14999999963E+04  0.15000000000E+04  0.10566000000E+00 0. -1.
        994   -1    0    0    0    0 -0.00000000000E+00 -0.00000000000E+00  0.11368683772E-12  0.17120000000E+03  0.17120000000E+03 0.  0.
         13    1    1    2    0    0 -0.34419395665E+02 -0.11579311289E+03  0.44209225101E+03  0.45829936653E+03  0.10566000000E+00 0. -1.
        994    1    1    2    0    0  0.84716098102E+01  0.97141367425E+02  0.48455296887E+02  0.20289299947E+03  0.17120000000E+03 0.  0.
        998    1    1    2    0    0  0.25947785855E+02  0.18651745469E+02  0.10094524484E+04  0.10100076340E+04  0.10000000000E+02 0. -1.
</event>
<event>
 5    1  0.1252945E-008  0.3834541E+03  0.7957747E-01  0.3436255E+00
         13   -1    0    0    0    0  0.00000000000E+00  0.00000000000E+00  0.14999999963E+04  0.15000000000E+04  0.10566000000E+00 0. -1.
        994   -1    0    0    0    0 -0.00000000000E+00 -0.00000000000E+00  0.11368683772E-12  0.17120000000E+03  0.17120000000E+03 0.  0.
         13    1    1    2    0    0  0.28947328997E+02  0.14379368091E+02  0.18761817129E+03  0.19038199349E+03  0.10566000000E+00 0. -1.
        994    1    1    2    0    0 -0.23425986739E+02 -0.33910930499E+02  0.80346257407E+01  0.17627456786E+03  0.17120000000E+03 0.  0.
        998    1    1    2    0    0 -0.55213422579E+01  0.19531562409E+02  0.13043471993E+04  0.13045434387E+04  0.10000000000E+02 0. -1.
</event>
<event>
 5    1  0.1252945E-008  0.3796545E+03  0.7957747E-01  0.3452664E+00
         13   -1    0    0    0    0  0.00000000000E+00  0.00000000000E+00  0.14999999963E+04  0.15000000000E+04  0.10566000000E+00 0.  1.
        994   -1    0    0    0    0 -0.00000000000E+00 -0.00000000000E+00  0.11368683772E-12  0.17120000000E+03  0.17120000000E+03 0.  0.
         13    1    1    2    0    0  0.25214902900E+02  0.27400212797E+01  0.83769156584E+02  0.87524749664E+02  0.10566000000E+00 0.  1.
        994    1    1    2    0    0  0.14964727113E+02 -0.20988972572E+02  0.65346536889E+01  0.17325305690E+03  0.17120000000E+03 0.  0.
        998    1    1    2    0    0 -0.40179630014E+02  0.18248951292E+02  0.14096961860E+04  0.14104221934E+04  0.10000000000E+02 0.  1.
</event>
<event>
 5    1  0.1252945E-008  0.3821178E+03  0.7957747E-01  0.3441989E+00
         13   -1    0    0    0    0  0.00000000000E+00  0.00000000000E+00  0.14999999963E+04  0.15000000000E+04  0.10566000000E+00 0.  1.
        994   -1    0    0    0    0 -0.00000000000E+00 -0.00000000000E+00  0.11368683772E-12  0.17120000000E+03  0.17120000000E+03 0.  0.
         13    1    1    2    0    0 -0.25215690816E+02 -0.49637404901E+01  0.10064409644E+03  0.10387355339E+03  0.10566000000E+00 0.  1.
        994    1    1    2    0    0  0.24175993523E+02  0.10401835835E+02  0.53707527079E+01  0.17329443683E+03  0.17120000000E+03 0.  0.
        998    1    1    2    0    0  0.10396972924E+01 -0.54380953453E+01  0.13939851471E+04  0.13940320098E+04  0.10000000000E+02 0.  1.
</event>
<event>
 5    1  0.1252945E-008  0.3824725E+03  0.7957747E-01  0.3440463E+00
         13   -1    0    0    0    0  0.00000000000E+00  0.00000000000E+00  0.14999999963E+04  0.15000000000E+04  0.10566000000E+00 0. -1.
        994   -1    0    0    0    0 -0.00000000000E+00 -0.00000000000E+00  0.11368683772E-12  0.17120000000E+03  0.17120000000E+03 0.  0.
         13    1    1    2    0    0  0.28629392730E+02 -0.16266356975E+00  0.12974870057E+03  0.13286988015E+03  0.10566000000E+00 0. -1.
        994    1    1    2    0    0 -0.29337397352E+02 -0.34816030256E+01  0.57896948055E+01  0.17382682477E+03  0.17120000000E+03 0.  0.
        998    1    1    2    0    0  0.70800462223E+00  0.36442665954E+01  0.13644616009E+04  0.13645032951E+04  0.10000000000E+02 0. -1.
</event>
<event>
 5    1  0.1252945E-008  0.3842459E+03  0.7957747E-01  0.3432877E+00
         13   -1    0    0    0    0  0.00000000000E+00  0.00000000000E+00  0.14999999963E+04  0.15000000000E+04  0.10566000000E+00 0. -1.
        994   -1    0    0    0    0 -0.00000000000E+00 -0.00000000000E+00  0.11368683772E-12  0.17120000000E+03  0.17120000000E+03 0.  0.
         13    1    1    2    0    0  0.15308972256E+02 -0.37743290973E+01  0.70616293930E+02  0.72355250840E+02  0.10566000000E+00 0. -1.
        994    1    1    2    0    0  0.10669735295E+02 -0.59775885193E+01  0.24982450241E+01  0.17165446701E+03  0.17120000000E+03 0.  0.
        998    1    1    2    0    0 -0.25978707551E+02  0.97519176166E+01  0.14268854573E+04  0.14271902822E+04  0.10000000000E+02 0. -1.
</event>
<event>
 5    1  0.1252945E-008  0.3814704E+03  0.7957747E-01  0.3444781E+00
         13   -1    0    0    0    0  0.00000000000E+00  0.00000000000E+00  0.14999999963E+04  0.15000000000E+04  0.10566000000E+00 0. -1.
        994   -1    0    0    0    0 -0.00000000000E+00 -0.00000000000E+00  0.11368683772E-12  0.17120000000E+03  0.17120000000E+03 0.  0.
         13    1    1    2    0    0  0.20381256732E+02  0.15556669120E+01  0.62858909580E+02  0.66098936475E+02  0.10566000000E+00 0. -1.
        994    1    1    2    0    0 -0.40916739071E+01 -0.32626134880E+01  0.34838448811E+01  0.17131539224E+03  0.17120000000E+03 0.  0.
        998    1    1    2    0    0 -0.16289582825E+02  0.17069465760E+01  0.14336572418E+04  0.14337856713E+04  0.10000000000E+02 0. -1.
</event>
<event>
 5    1  0.1252945E-008  0.3830450E+03  0.7957747E-01  0.3438006E+00
         13   -1    0    0    0    0  0.00000000000E+00  0.00000000000E+00  0.14999999963E+04  0.15000000000E+04  0.10566000000E+00 0. -1.
        994   -1    0    0    0    0 -0.00000000000E+00 -0.00000000000E+00  0.11368683772E-12  0.17120000000E+03  0.17120000000E+03 0.  0.
         13    1    1    2    0    0 -0.13015210338E+02 -0.22829780278E+01  0.36566802562E+02  0.38881228151E+02  0.10566000000E+00 0. -1.
        994    1    1    2    0    0 -0.18888887686E+02 -0.38344825041E+01  0.38343421404E+01  0.17232421627E+03  0.17120000000E+03 0.  0.
        998    1    1    2    0    0  0.31904098025E+02  0.61174605319E+01  0.14595988516E+04  0.14599945556E+04  0.10000000000E+02 0. -1.
</event>
<event>
 5    1  0.1252945E-008  0.3786570E+03  0.7957747E-01  0.3457027E+00
         13   -1    0    0    0    0  0.00000000000E+00  0.00000000000E+00  0.14999999963E+04  0.15000000000E+04  0.10566000000E+00 0.  1.
        994   -1    0    0    0    0 -0.00000000000E+00 -0.00000000000E+00  0.11368683772E-12  0.17120000000E+03  0.17120000000E+03 0.  0.
         13    1    1    2    0    0 -0.19819782096E+02  0.91178365556E+01  0.45351372372E+02  0.50326105014E+02  0.10566000000E+00 0.  1.
        994    1    1    2    0    0 -0.20107662152E+01 -0.72837162859E+02  0.22852235601E+02  0.18745922262E+03  0.17120000000E+03 0.  0.
        998    1    1    2    0    0  0.21830548312E+02  0.63719326303E+02  0.14317963883E+04  0.14334146724E+04  0.10000000000E+02 0.  1.
</event>
<event>
 5    1  0.1252945E-008  0.3836829E+03  0.7957747E-01  0.3435278E+00
         13   -1    0    0    0    0  0.00000000000E+00  0.00000000000E+00  0.14999999963E+04  0.15000000000E+04  0.10566000000E+00 0. -1.
        994   -1    0    0    0    0 -0.00000000000E+00 -0.00000000000E+00  0.11368683772E-12  0.17120000000E+03  0.17120000000E+03 0.  0.
         13    1    1    2    0    0 -0.89496947568E+01 -0.20375154780E+02  0.10347539917E+03  0.10584145391E+03  0.10566000000E+00 0. -1.
        994    1    1    2    0    0  0.22196461617E+02  0.12300654819E+02  0.44153059799E+01  0.17312690127E+03  0.17120000000E+03 0.  0.
        998    1    1    2    0    0 -0.13246766860E+02  0.80744999617E+01  0.13921092911E+04  0.13922316448E+04  0.10000000000E+02 0. -1.
</event>
<event>
 5    1  0.1252945E-008  0.3834014E+03  0.7957747E-01  0.3436480E+00
         13   -1    0    0    0    0  0.00000000000E+00  0.00000000000E+00  0.14999999963E+04  0.15000000000E+04  0.10566000000E+00 0. -1.
        994   -1    0    0    0    0 -0.00000000000E+00 -0.00000000000E+00  0.11368683772E-12  0.17120000000E+03  0.17120000000E+03 0.  0.
         13    1    1    2    0    0 -0.29657192159E+01 -0.12478150840E+02  0.32854537526E+02  0.35269413646E+02  0.10566000000E+00 0. -1.
        994    1    1    2    0    0  0.74063325679E+01  0.96086846008E+01  0.29125879551E+01  0.17165402340E+03  0.17120000000E+03 0.  0.
        998    1    1    2    0    0 -0.44406133519E+01  0.28694662391E+01  0.14642328708E+04  0.14642765630E+04  0.10000000000E+02 0. -1.
</event>
<event>
 5    1  0.1252945E-008  0.3731724E+03  0.7957747E-01  0.3481437E+00
         13   -1    0    0    0    0  0.00000000000E+00  0.00000000000E+00  0.14999999963E+04  0.15000000000E+04  0.10566000000E+00 0. -1.
        994   -1    0    0    0    0 -0.00000000000E+00 -0.00000000000E+00  0.11368683772E-12  0.17120000000E+03  0.17120000000E+03 0.  0.
         13    1    1    2    0    0  0.24698913776E+02 -0.74590628125E+02  0.31999321883E+03  0.32949881548E+03  0.10566000000E+00 0. -1.
        994    1    1    2    0    0 -0.44995843066E+02  0.66736704472E+02  0.30113556637E+02  0.19155855478E+03  0.17120000000E+03 0.  0.
        998    1    1    2    0    0  0.20296929290E+02  0.78539236524E+01  0.11498932208E+04  0.11501426297E+04  0.10000000000E+02 0. -1.
</event>
<event>
 5    1  0.1252945E-008  0.3818898E+03  0.7957747E-01  0.3442971E+00
         13   -1    0    0    0    0  0.00000000000E+00  0.00000000000E+00  0.14999999963E+04  0.15000000000E+04  0.10566000000E+00 0. -1.
        994   -1    0    0    0    0 -0.00000000000E+00 -0.00000000000E+00  0.11368683772E-12  0.17120000000E+03  0.17120000000E+03 0.  0.
         13    1    1    2    0    0  0.75967073976E+01 -0.17805024501E+02  0.62082257786E+02  0.65030352580E+02  0.10566000000E+00 0. -1.
        994    1    1    2    0    0  0.11045574602E+02  0.16464530981E+01  0.35966458374E+01  0.17160154832E+03  0.17120000000E+03 0.  0.
        998    1    1    2    0    0 -0.18642282000E+02  0.16158571403E+02  0.14343210927E+04  0.14345680991E+04  0.10000000000E+02 0. -1.
</event>
<event>
 5    1  0.1252945E-008  0.3805013E+03  0.7957747E-01  0.3448979E+00
         13   -1    0    0    0    0  0.00000000000E+00  0.00000000000E+00  0.14999999963E+04  0.15000000000E+04  0.10566000000E+00 0.  1.
        994   -1    0    0    0    0 -0.00000000000E+00 -0.00000000000E+00  0.11368683772E-12  0.17120000000E+03  0.17120000000E+03 0.  0.
         13    1    1    2    0    0 -0.78884071146E+01  0.29271887358E+02  0.10525276328E+03  0.10953184788E+03  0.10566000000E+00 0.  1.
        994    1    1    2    0    0  0.67259943524E+01 -0.37797467064E+02  0.88149455996E+01  0.17567307928E+03  0.17120000000E+03 0.  0.
        998    1    1    2    0    0  0.11624127622E+01  0.85255797057E+01  0.13859322874E+04  0.13859950728E+04  0.10000000000E+02 0.  1.
</event>
<event>
 5    1  0.1261254E-008  0.3863083E+03  0.7957747E-01  0.3424142E+00
         13   -1    0    0    0    0  0.00000000000E+00  0.00000000000E+00  0.14999999963E+04  0.15000000000E+04  0.10566000000E+00 0.  1.
        994   -1    0    0    0    0 -0.00000000000E+00 -0.00000000000E+00  0.11368683772E-12  0.17120000000E+03  0.17120000000E+03 0.  0.
         13    1    1    2    0    0 -0.30836345702E+01  0.10150400918E+02  0.48772697285E+02  0.49913190696E+02  0.10566000000E+00 0.  1.
        994    1    1    2    0    0  0.47741638456E+01 -0.33542520803E+02  0.47501002054E+01  0.17458492717E+03  0.17120000000E+03 0.  0.
        998    1    1    2    0    0 -0.16905292754E+01  0.23392119885E+02  0.14464771988E+04  0.14467018821E+04  0.10000000000E+02 0.  1.
</event>
<event>
 5    1  0.1252945E-008  0.3787825E+03  0.7957747E-01  0.3456477E+00
         13   -1    0    0    0    0  0.00000000000E+00  0.00000000000E+00  0.14999999963E+04  0.15000000000E+04  0.10566000000E+00 0. -1.
        994   -1    0    0    0    0 -0.00000000000E+00 -0.00000000000E+00  0.11368683772E-12  0.17120000000E+03  0.17120000000E+03 0.  0.
         13    1    1    2    0    0 -0.14756067613E+03 -0.73926500752E+02  0.93220390704E+03  0.94670133416E+03  0.10566000000E+00 0. -1.
        994    1    1    2    0    0  0.14317505256E+03  0.82338928192E+02  0.10254568531E+03  0.25904411274E+03  0.17120000000E+03 0.  0.
        998    1    1    2    0    0  0.43856235663E+01 -0.84124274405E+01  0.46525040394E+03  0.46545455309E+03  0.10000000000E+02 0. -1.
</event>
<event>
 5    1  0.1252945E-008  0.3808258E+03  0.7957747E-01  0.3447571E+00
         13   -1    0    0    0    0  0.00000000000E+00  0.00000000000E+00  0.14999999963E+04  0.15000000000E+04  0.10566000000E+00 0. -1.
        994   -1    0    0    0    0 -0.00000000000E+00 -0.00000000000E+00  0.11368683772E-12  0.17120000000E+03  0.17120000000E+03 0.  0.
         13    1    1    2    0    0 -0.51207652672E+02 -0.41254282884E+02  0.11468033336E+03  0.13219580013E+03  0.10566000000E+00 0. -1.
        994    1    1    2    0    0  0.58276221147E+02  0.31261716819E+02  0.32854190636E+02  0.18644637495E+03  0.17120000000E+03 0.  0.
        998    1    1    2    0    0 -0.70685684751E+01  0.99925660654E+01  0.13524654723E+04  0.13525578249E+04  0.10000000000E+02 0. -1.
</event>
<event>
 5    1  0.1252945E-008  0.3738110E+03  0.7957747E-01  0.3478557E+00
         13   -1    0    0    0    0  0.00000000000E+00  0.00000000000E+00  0.14999999963E+04  0.15000000000E+04  0.10566000000E+00 0. -1.
        994   -1    0    0    0    0 -0.00000000000E+00 -0.00000000000E+00  0.11368683772E-12  0.17120000000E+03  0.17120000000E+03 0.  0.
         13    1    1    2    0    0 -0.67445955226E+02  0.16764250355E+01  0.22037783931E+03  0.23047379569E+03  0.10566000000E+00 0. -1.
        994    1    1    2    0    0 -0.81312076969E+01  0.39725355170E+02  0.18816964095E+02  0.17693992913E+03  0.17120000000E+03 0.  0.
        998    1    1    2    0    0  0.75577162923E+02 -0.41401780206E+02  0.12608051929E+04  0.12637862752E+04  0.10000000000E+02 0. -1.
</event>
<event>
 5    1  0.1252945E-008  0.3840500E+03  0.7957747E-01  0.3433711E+00
         13   -1    0    0    0    0  0.00000000000E+00  0.00000000000E+00  0.14999999963E+04  0.15000000000E+04  0.10566000000E+00 0. -1.
        994   -1    0    0    0    0 -0.00000000000E+00 -0.00000000000E+00  0.11368683772E-12  0.17120000000E+03  0.17120000000E+03 0.  0.
         13    1    1    2    0    0 -0.68662532702E+01  0.16474982301E+02  0.71977535647E+02  0.74157584087E+02  0.10566000000E+00 0. -1.
        994    1    1    2    0    0  0.13117038779E+02 -0.15511480044E+02  0.34649931150E+01  0.17243581095E+03  0.17120000000E+03 0.  0.
        998    1    1    2    0    0 -0.62507855083E+01 -0.96350225697E+00  0.14245574675E+04  0.14246066050E+04  0.10000000000E+02 0. -1.
</event>
<event>
 5    1  0.1252945E-008  0.3854780E+03  0.7957747E-01  0.3427647E+00
         13   -1    0    0    0    0  0.00000000000E+00  0.00000000000E+00  0.14999999963E+04  0.15000000000E+04  0.10566000000E+00 0.  1.
        994   -1    0    0    0    0 -0.00000000000E+00 -0.00000000000E+00  0.11368683772E-12  0.17120000000E+03  0.17120000000E+03 0.  0.
         13    1    1    2    0    0  0.11307789866E+02 -0.14729693452E+01  0.49961303830E+02  0.51246256398E+02  0.10566000000E+00 0.  1.
        994    1    1    2    0    0  0.33197788590E+01  0.30622117119E+01  0.14599731995E+01  0.17126578641E+03  0.17120000000E+03 0.  0.
        998    1    1    2    0    0 -0.14627568725E+02 -0.15892423667E+01  0.14485787192E+04  0.14486879572E+04  0.10000000000E+02 0.  1.
</event>
<event>
 5    1  0.1252945E-008  0.3841897E+03  0.7957747E-01  0.3433116E+00
         13   -1    0    0    0    0  0.00000000000E+00  0.00000000000E+00  0.14999999963E+04  0.15000000000E+04  0.10566000000E+00 0.  1.
        994   -1    0    0    0    0 -0.00000000000E+00 -0.00000000000E+00  0.11368683772E-12  0.17120000000E+03  0.17120000000E+03 0.  0.
         13    1    1    2    0    0  0.10176847852E+02 -0.20134475917E+02  0.13099456499E+03  0.13292310774E+03  0.10566000000E+00 0.  1.
        994    1    1    2    0    0  0.38163721071E+01  0.11040107465E+02  0.24830365594E+01  0.17161600782E+03  0.17120000000E+03 0.  0.
        998    1    1    2    0    0 -0.13993219959E+02  0.90943684519E+01  0.13665223947E+04  0.13666608844E+04  0.10000000000E+02 0.  1.
</event>
<event>
 5    1  0.1252945E-008  0.3828885E+03  0.7957747E-01  0.3438677E+00
         13   -1    0    0    0    0  0.00000000000E+00  0.00000000000E+00  0.14999999963E+04  0.15000000000E+04  0.10566000000E+00 0. -1.
        994   -1    0    0    0    0 -0.00000000000E+00 -0.00000000000E+00  0.11368683772E-12  0.17120000000E+03  0.17120000000E+03 0.  0.
         13    1    1    2    0    0  0.20119093699E+02 -0.92364779700E+01  0.91672197146E+02  0.94307440587E+02  0.10566000000E+00 0. -1.
        994    1    1    2    0    0 -0.12633359353E+02  0.89535073452E+00  0.32134212123E+01  0.17169790184E+03  0.17120000000E+03 0.  0.
        998    1    1    2    0    0 -0.74857343459E+01  0.83411272355E+01  0.14051143779E+04  0.14051946576E+04  0.10000000000E+02 0. -1.
</event>
<event>
 5    1  0.1252945E-008  0.3805370E+03  0.7957747E-01  0.3448824E+00
         13   -1    0    0    0    0  0.00000000000E+00  0.00000000000E+00  0.14999999963E+04  0.15000000000E+04  0.10566000000E+00 0.  1.
        994   -1    0    0    0    0 -0.00000000000E+00 -0.00000000000E+00  0.11368683772E-12  0.17120000000E+03  0.17120000000E+03 0.  0.
         13    1    1    2    0    0  0.26290074220E+01  0.29092138641E+02  0.11214986341E+03  0.11589161850E+03  0.10566000000E+00 0.  1.
        994    1    1    2    0    0  0.10046601983E+02 -0.13902414373E+02  0.48447066024E+01  0.17212531051E+03  0.17120000000E+03 0.  0.
        998    1    1    2    0    0 -0.12675609405E+02 -0.15189724268E+02  0.13830054263E+04  0.13831830710E+04  0.10000000000E+02 0.  1.
</event>
<event>
 5    1  0.1252945E-008  0.3818108E+03  0.7957747E-01  0.3443312E+00
         13   -1    0    0    0    0  0.00000000000E+00  0.00000000000E+00  0.14999999963E+04  0.15000000000E+04  0.10566000000E+00 0.  1.
        994   -1    0    0    0    0 -0.00000000000E+00 -0.00000000000E+00  0.11368683772E-12  0.17120000000E+03  0.17120000000E+03 0.  0.
         13    1    1    2    0    0  0.15527525182E+02 -0.35322078444E+02  0.20655258561E+03  0.21012552213E+03  0.10566000000E+00 0.  1.
        994    1    1    2    0    0 -0.17774661021E+02  0.30740242008E+02  0.74232083527E+01  0.17500127164E+03  0.17120000000E+03 0.  0.
        998    1    1    2    0    0  0.22471358386E+01  0.45818364360E+01  0.12860242023E+04  0.12860732062E+04  0.10000000000E+02 0.  0.
</event>
<event>
 5    1  0.1252945E-008  0.3831445E+03  0.7957747E-01  0.3437580E+00
         13   -1    0    0    0    0  0.00000000000E+00  0.00000000000E+00  0.14999999963E+04  0.15000000000E+04  0.10566000000E+00 0. -1.
        994   -1    0    0    0    0 -0.00000000000E+00 -0.00000000000E+00  0.11368683772E-12  0.17120000000E+03  0.17120000000E+03 0.  0.
         13    1    1    2    0    0  0.58089361816E+01  0.96854755079E+01  0.28851182394E+02  0.30983125487E+02  0.10566000000E+00 0. -1.
        994    1    1    2    0    0  0.21390995070E+02  0.35938446328E+02  0.83629442539E+01  0.17643277879E+03  0.17120000000E+03 0.  0.
        998    1    1    2    0    0 -0.27199931252E+02 -0.45623921836E+02  0.14627858696E+04  0.14637840957E+04  0.10000000000E+02 0. -1.
</event>
<event>
 5    1  0.1252945E-008  0.3838213E+03  0.7957747E-01  0.3434687E+00
         13   -1    0    0    0    0  0.00000000000E+00  0.00000000000E+00  0.14999999963E+04  0.15000000000E+04  0.10566000000E+00 0. -1.
        994   -1    0    0    0    0 -0.00000000000E+00 -0.00000000000E+00  0.11368683772E-12  0.17120000000E+03  0.17120000000E+03 0.  0.
         13    1    1    2    0    0 -0.15569682176E+02 -0.30097753290E+01  0.57391130209E+02  0.59541806668E+02  0.10566000000E+00 0. -1.
        994    1    1    2    0    0  0.70494226296E+01 -0.24694137665E+01  0.24006966372E+01  0.17137968289E+03  0.17120000000E+03 0.  0.
        998    1    1    2    0    0  0.85202595460E+01  0.54791890954E+01  0.14402081694E+04  0.14402785104E+04  0.10000000000E+02 0. -1.
</event>
<event>
 5    1  0.1252945E-008  0.3802861E+03  0.7957747E-01  0.3449914E+00
         13   -1    0    0    0    0  0.00000000000E+00  0.00000000000E+00  0.14999999963E+04  0.15000000000E+04  0.10566000000E+00 0.  1.
        994   -1    0    0    0    0 -0.00000000000E+00 -0.00000000000E+00  0.11368683772E-12  0.17120000000E+03  0.17120000000E+03 0.  0.
         13    1    1    2    0    0 -0.10750085953E+02 -0.10000372084E+02  0.23109169116E+02  0.27379128019E+02  0.10566000000E+00 0.  1.
        994    1    1    2    0    0  0.63368512078E+02 -0.60931396677E+01  0.17644555979E+02  0.18350331068E+03  0.17120000000E+03 0.  0.
        998    1    1    2    0    0 -0.52618426124E+02  0.16093511752E+02  0.14592462712E+04  0.14603175613E+04  0.10000000000E+02 0.  1.
</event>
<event>
 5    1  0.1252945E-008  0.3727375E+03  0.7957747E-01  0.3483404E+00
         13   -1    0    0    0    0  0.00000000000E+00  0.00000000000E+00  0.14999999963E+04  0.15000000000E+04  0.10566000000E+00 0.  1.
        994   -1    0    0    0    0 -0.00000000000E+00 -0.00000000000E+00  0.11368683772E-12  0.17120000000E+03  0.17120000000E+03 0.  0.
         13    1    1    2    0    0  0.20984075184E+02  0.12231416531E+02  0.36791414259E+02  0.44085805979E+02  0.10566000000E+00 0.  1.
        994    1    1    2    0    0  0.26003777569E+02 -0.27526533046E+02  0.12772759607E+02  0.17580241710E+03  0.17120000000E+03 0.  0.
        998    1    1    2    0    0 -0.46987852753E+02  0.15295116515E+02  0.14504358224E+04  0.14513117769E+04  0.10000000000E+02 0.  1.
</event>
<event>
 5    1  0.1252945E-008  0.3786594E+03  0.7957747E-01  0.3457017E+00
         13   -1    0    0    0    0  0.00000000000E+00  0.00000000000E+00  0.14999999963E+04  0.15000000000E+04  0.10566000000E+00 0.  1.
        994   -1    0    0    0    0 -0.00000000000E+00 -0.00000000000E+00  0.11368683772E-12  0.17120000000E+03  0.17120000000E+03 0.  0.
         13    1    1    2    0    0  0.63404842484E+02 -0.42533592543E+02  0.15844893408E+03  0.17588449739E+03  0.10566000000E+00 0.  1.
        994    1    1    2    0    0 -0.62623015927E+02  0.56159246813E+02  0.41571513945E+02  0.19522585356E+03  0.17120000000E+03 0.  0.
        998    1    1    2    0    0 -0.78182655771E+00 -0.13625654270E+02  0.12999795482E+04  0.13000896491E+04  0.10000000000E+02 0.  1.
</event>
<event>
 5    1  0.1252945E-008  0.3846074E+03  0.7957747E-01  0.3431339E+00
         13   -1    0    0    0    0  0.00000000000E+00  0.00000000000E+00  0.14999999963E+04  0.15000000000E+04  0.10566000000E+00 0.  1.
        994   -1    0    0    0    0 -0.00000000000E+00 -0.00000000000E+00  0.11368683772E-12  0.17120000000E+03  0.17120000000E+03 0.  0.
         13    1    1    2    0    0  0.18150231052E+02 -0.30785984708E+01  0.94037403756E+02  0.95822508446E+02  0.10566000000E+00 0.  1.
        994    1    1    2    0    0 -0.78153962207E+01  0.13434792332E+02  0.26210582211E+01  0.17192406466E+03  0.17120000000E+03 0.  0.
        998    1    1    2    0    0 -0.10334834831E+02 -0.10356193861E+02  0.14033415343E+04  0.14034534269E+04  0.10000000000E+02 0.  1.
</event>
<event>
 5    1  0.1252945E-008  0.3836391E+03  0.7957747E-01  0.3435465E+00
         13   -1    0    0    0    0  0.00000000000E+00  0.00000000000E+00  0.14999999963E+04  0.15000000000E+04  0.10566000000E+00 0. -1.
        994   -1    0    0    0    0 -0.00000000000E+00 -0.00000000000E+00  0.11368683772E-12  0.17120000000E+03  0.17120000000E+03 0.  0.
         13    1    1    2    0    0 -0.11288189328E+02  0.17437164610E+02  0.91096440444E+02  0.93434739544E+02  0.10566000000E+00 0. -1.
        994    1    1    2    0    0  0.18175200785E+02 -0.77611057114E+01  0.35985419870E+01  0.17237448242E+03  0.17120000000E+03 0.  0.
        998    1    1    2    0    0 -0.68870114570E+01 -0.96760588983E+01  0.14053050138E+04  0.14053907780E+04  0.10000000000E+02 0. -1.
</event>
<event>
 5    1  0.1252945E-008  0.3852734E+03  0.7957747E-01  0.3428513E+00
         13   -1    0    0    0    0  0.00000000000E+00  0.00000000000E+00  0.14999999963E+04  0.15000000000E+04  0.10566000000E+00 0.  1.
        994   -1    0    0    0    0 -0.00000000000E+00 -0.00000000000E+00  0.11368683772E-12  0.17120000000E+03  0.17120000000E+03 0.  0.
         13    1    1    2    0    0  0.79843987401E+01 -0.10486041191E+02  0.62166388856E+02  0.63548239555E+02  0.10566000000E+00 0.  1.
        994    1    1    2    0    0 -0.27854728286E+01 -0.35683604437E+01  0.15617867396E+01  0.17126695896E+03  0.17120000000E+03 0.  0.
        998    1    1    2    0    0 -0.51989259115E+01  0.14054401635E+02  0.14362718207E+04  0.14363848015E+04  0.10000000000E+02 0.  1.
</event>
<event>
 5    1  0.1252945E-008  0.3771994E+03  0.7957747E-01  0.3463445E+00
         13   -1    0    0    0    0  0.00000000000E+00  0.00000000000E+00  0.14999999963E+04  0.15000000000E+04  0.10566000000E+00 0. -1.
        994   -1    0    0    0    0 -0.00000000000E+00 -0.00000000000E+00  0.11368683772E-12  0.17120000000E+03  0.17120000000E+03 0.  0.
         13    1    1    2    0    0  0.35846167676E+01 -0.63299716058E+02  0.28987701702E+03  0.29672950593E+03  0.10566000000E+00 0. -1.
        994    1    1    2    0    0 -0.20865705374E+01  0.64038099872E+02  0.19533120244E+02  0.18383746843E+03  0.17120000000E+03 0.  0.
        998    1    1    2    0    0 -0.14980462302E+01 -0.73838381344E+00  0.11905898590E+04  0.11906330256E+04  0.10000000000E+02 0.  0.
</event>
<event>
 5    1  0.1252945E-008  0.3847819E+03  0.7957747E-01  0.3430598E+00
         13   -1    0    0    0    0  0.00000000000E+00  0.00000000000E+00  0.14999999963E+04  0.15000000000E+04  0.10566000000E+00 0. -1.
        994   -1    0    0    0    0 -0.00000000000E+00 -0.00000000000E+00  0.11368683772E-12  0.17120000000E+03  0.17120000000E+03 0.  0.
         13    1    1    2    0    0 -0.16107011850E+02  0.73237756310E+01  0.96440888425E+02  0.98050648363E+02  0.10566000000E+00 0. -1.
        994    1    1    2    0    0  0.31017169287E+01  0.15261513820E+01  0.17778106605E+01  0.17124412515E+03  0.17120000000E+03 0.  0.
        998    1    1    2    0    0  0.13005294921E+02 -0.88499270130E+01  0.14017812972E+04  0.14019052265E+04  0.10000000000E+02 0. -1.
</event>
<event>
 5    1  0.1464771E-008  0.3861825E+03  0.7957747E-01  0.3424673E+00
         13   -1    0    0    0    0  0.00000000000E+00  0.00000000000E+00  0.14999999963E+04  0.15000000000E+04  0.10566000000E+00 0.  1.
        994   -1    0    0    0    0 -0.00000000000E+00 -0.00000000000E+00  0.11368683772E-12  0.17120000000E+03  0.17120000000E+03 0.  0.
         13    1    1    2    0    0  0.11414568782E+02 -0.30420036372E+01  0.69106888918E+02  0.70109339082E+02  0.10566000000E+00 0.  1.
        994    1    1    2    0    0 -0.66975524793E+01 -0.34974671463E+01  0.12312316543E+01  0.17137107521E+03  0.17120000000E+03 0.  0.
        998    1    1    2    0    0 -0.47170163027E+01  0.65394707835E+01  0.14296618757E+04  0.14297195857E+04  0.10000000000E+02 0.  1.
</event>
<event>
 5    1  0.1252945E-008  0.3044999E+03  0.7957747E-01  0.3864408E+00
         13   -1    0    0    0    0  0.00000000000E+00  0.00000000000E+00  0.14999999963E+04  0.15000000000E+04  0.10566000000E+00 0.  1.
        994   -1    0    0    0    0 -0.00000000000E+00 -0.00000000000E+00  0.11368683772E-12  0.17120000000E+03  0.17120000000E+03 0.  0.
         13    1    1    2    0    0  0.20199154166E+03 -0.85847261782E+02  0.55974748517E+03  0.60123838332E+03  0.10566000000E+00 0.  1.
        994    1    1    2    0    0 -0.21559243159E+03  0.91865803260E+02  0.26053968701E+03  0.39001255220E+03  0.17120000000E+03 0.  0.
        998    1    1    2    0    0  0.13600889929E+02 -0.60185414778E+01  0.67971282409E+03  0.67994906448E+03  0.10000000000E+02 0.  1.
</event>
<event>
 5    1  0.1252945E-008  0.3810257E+03  0.7957747E-01  0.3446705E+00
         13   -1    0    0    0    0  0.00000000000E+00  0.00000000000E+00  0.14999999963E+04  0.15000000000E+04  0.10566000000E+00 0.  1.
        994   -1    0    0    0    0 -0.00000000000E+00 -0.00000000000E+00  0.11368683772E-12  0.17120000000E+03  0.17120000000E+03 0.  0.
         13    1    1    2    0    0 -0.42116941392E+02 -0.24068521159E+02  0.25797682183E+03  0.26249796614E+03  0.10566000000E+00 0.  1.
        994    1    1    2    0    0  0.44962206542E+02  0.29865332887E+02  0.13384717298E+02  0.18000591319E+03  0.17120000000E+03 0.  0.
        998    1    1    2    0    0 -0.28452651501E+01 -0.57968117279E+01  0.12286384572E+04  0.12286961207E+04  0.10000000000E+02 0.  1.
</event>
<event>
 5    1  0.1252945E-008  0.3842725E+03  0.7957747E-01  0.3432763E+00
         13   -1    0    0    0    0  0.00000000000E+00  0.00000000000E+00  0.14999999963E+04  0.15000000000E+04  0.10566000000E+00 0. -1.
        994   -1    0    0    0    0 -0.00000000000E+00 -0.00000000000E+00  0.11368683772E-12  0.17120000000E+03  0.17120000000E+03 0.  0.
         13    1    1    2    0    0  0.11608972524E+02  0.21088359324E+02  0.13839335405E+03  0.14047141614E+03  0.10566000000E+00 0. -1.
        994    1    1    2    0    0 -0.57697232400E+01 -0.20086029536E+02  0.34327564587E+01  0.17250496255E+03  0.17120000000E+03 0.  0.
        998    1    1    2    0    0 -0.58392492838E+01 -0.10023297886E+01  0.13581738858E+04  0.13582236213E+04  0.10000000000E+02 0. -1.
</event>
<event>
 5    1  0.1252945E-008  0.3845171E+03  0.7957747E-01  0.3431723E+00
         13   -1    0    0    0    0  0.00000000000E+00  0.00000000000E+00  0.14999999963E+04  0.15000000000E+04  0.10566000000E+00 0. -1.
        994   -1    0    0    0    0 -0.00000000000E+00 -0.00000000000E+00  0.11368683772E-12  0.17120000000E+03  0.17120000000E+03 0.  0.
         13    1    1    2    0    0  0.65937423238E+01  0.81338159901E+01  0.29714818375E+02  0.31505840657E+02  0.10566000000E+00 0. -1.
        994    1    1    2    0    0  0.11913461678E+02 -0.10258549851E+02  0.26846251305E+01  0.17194131448E+03  0.17120000000E+03 0.  0.
        998    1    1    2    0    0 -0.18507204002E+02  0.21247338610E+01  0.14676005528E+04  0.14677528449E+04  0.10000000000E+02 0. -1.
</event>
<event>
 5    1  0.1252945E-008  0.3823987E+03  0.7957747E-01  0.3440780E+00
         13   -1    0    0    0    0  0.00000000000E+00  0.00000000000E+00  0.14999999963E+04  0.15000000000E+04  0.10566000000E+00 0. -1.
        994   -1    0    0    0    0 -0.00000000000E+00 -0.00000000000E+00  0.11368683772E-12  0.17120000000E+03  0.17120000000E+03 0.  0.
         13    1    1    2    0    0  0.99922861322E+00  0.18583341873E+02  0.55596255363E+02  0.58628438726E+02  0.10566000000E+00 0. -1.
        994    1    1    2    0    0 -0.32050286290E+01 -0.22188618793E+02  0.45959205437E+01  0.17272281117E+03  0.17120000000E+03 0.  0.
        998    1    1    2    0    0  0.22058000158E+01  0.36052769196E+01  0.14398078204E+04  0.14398487501E+04  0.10000000000E+02 0. -1.
</event>
<event>
 5    1  0.1252945E-008  0.3829307E+03  0.7957747E-01  0.3438496E+00
         13   -1    0    0    0    0  0.00000000000E+00  0.00000000000E+00  0.14999999963E+04  0.15000000000E+04  0.10566000000E+00 0. -1.
        994   -1    0    0    0    0 -0.00000000000E+00 -0.00000000000E+00  0.11368683772E-12  0.17120000000E+03  0.17120000000E+03 0.  0.
         13    1    1    2    0    0  0.54479254482E+01 -0.25759407479E+02  0.12617712559E+03  0.12889493843E+03  0.10566000000E+00 0. -1.
        994    1    1    2    0    0  0.33372248980E+01  0.20827102953E+02  0.41354098034E+01  0.17254404337E+03  0.17120000000E+03 0.  0.
        998    1    1    2    0    0 -0.87851503461E+01  0.49323045253E+01  0.13696874609E+04  0.13697610182E+04  0.10000000000E+02 0. -1.
</event>
<event>
 5    1  0.1252945E-008  0.3732934E+03  0.7957747E-01  0.3480891E+00
         13   -1    0    0    0    0  0.00000000000E+00  0.00000000000E+00  0.14999999963E+04  0.15000000000E+04  0.10566000000E+00 0.  1.
        994   -1    0    0    0    0 -0.00000000000E+00 -0.00000000000E+00  0.11368683772E-12  0.17120000000E+03  0.17120000000E+03 0.  0.
         13    1    1    2    0    0 -0.41383150901E+01 -0.21870815229E+02  0.13993373965E+02  0.26292278135E+02  0.10566000000E+00 0.  1.
        994    1    1    2    0    0  0.62334002248E+01  0.17146919165E+02  0.13869069119E+02  0.17272713508E+03  0.17120000000E+03 0.  0.
        998    1    1    2    0    0 -0.20950851347E+01  0.47238960636E+01  0.14721375532E+04  0.14721805868E+04  0.10000000000E+02 0.  1.
</event>
<event>
 5    1  0.1252945E-008  0.3847178E+03  0.7957747E-01  0.3430870E+00
         13   -1    0    0    0    0  0.00000000000E+00  0.00000000000E+00  0.14999999963E+04  0.15000000000E+04  0.10566000000E+00 0.  1.
        994   -1    0    0    0    0 -0.00000000000E+00 -0.00000000000E+00  0.11368683772E-12  0.17120000000E+03  0.17120000000E+03 0.  0.
         13    1    1    2    0    0 -0.85255555813E+01  0.76058208747E+01  0.39351692788E+02  0.40976828799E+02  0.10566000000E+00 0.  1.
        994    1    1    2    0    0 -0.53843678172E+01  0.48465830019E+01  0.19430944505E+01  0.17136422147E+03  0.17120000000E+03 0.  0.
        998    1    1    2    0    0  0.13909923399E+02 -0.12452403877E+02  0.14587052090E+04  0.14588589497E+04  0.10000000000E+02 0.  1.
</event>
<event>
 5    1  0.1252945E-008  0.3827004E+03  0.7957747E-01  0.3439484E+00
         13   -1    0    0    0    0  0.00000000000E+00  0.00000000000E+00  0.14999999963E+04  0.15000000000E+04  0.10566000000E+00 0. -1.
        994   -1    0    0    0    0 -0.00000000000E+00 -0.00000000000E+00  0.11368683772E-12  0.17120000000E+03  0.17120000000E+03 0.  0.
         13    1    1    2    0    0 -0.16086904136E+02 -0.81134639513E+01  0.52469072658E+02  0.55476405179E+02  0.10566000000E+00 0. -1.
        994    1    1    2    0    0  0.32107281277E+02  0.88843948801E+01  0.64621000586E+01  0.17453082456E+03  0.17120000000E+03 0.  0.
        998    1    1    2    0    0 -0.16020377141E+02 -0.77093092875E+00  0.14410688236E+04  0.14411927703E+04  0.10000000000E+02 0. -1.
</event>
<event>
 5    1  0.1252945E-008  0.3842521E+03  0.7957747E-01  0.3432850E+00
         13   -1    0    0    0    0  0.00000000000E+00  0.00000000000E+00  0.14999999963E+04  0.15000000000E+04  0.10566000000E+00 0. -1.
        994   -1    0    0    0    0 -0.00000000000E+00 -0.00000000000E+00  0.11368683772E-12  0.17120000000E+03  0.17120000000E+03 0.  0.
         13    1    1    2    0    0  0.19564944260E+01 -0.15286766062E+02  0.63565446644E+02  0.65407111679E+02  0.10566000000E+00 0. -1.
        994    1    1    2    0    0 -0.15781949271E+01 -0.30886639971E+01  0.20415633874E+01  0.17124730224E+03  0.17120000000E+03 0.  0.
        998    1    1    2    0    0 -0.37829949896E+00  0.18375430059E+02  0.14343929862E+04  0.14345455861E+04  0.10000000000E+02 0. -1.
</event>
<event>
 5    1  0.1252945E-008  0.3994125E+03  0.7957747E-01  0.3370756E+00
         13   -1    0    0    0    0  0.00000000000E+00  0.00000000000E+00  0.14999999963E+04  0.15000000000E+04  0.10566000000E+00 0. -1.
        994   -1    0    0    0    0 -0.00000000000E+00 -0.00000000000E+00  0.11368683772E-12  0.17120000000E+03  0.17120000000E+03 0.  0.
         13    1    1    2    0    0  0.59058165881E+02  0.59396254404E+02  0.11900845449E+03  0.14552939702E+03  0.10566000000E+00 0. -1.
        994    1    1    2    0    0 -0.69629423085E+02 -0.15739219487E+02  0.47615991068E+02  0.19150118066E+03  0.17120000000E+03 0.  0.
        998    1    1    2    0    0  0.10571257205E+02 -0.43657034917E+02  0.13333755507E+04  0.13341694223E+04  0.10000000000E+02 0. -1.
</event>
<event>
 5    1  0.1252945E-008  0.3858097E+03  0.7957747E-01  0.3426245E+00
         13   -1    0    0    0    0  0.00000000000E+00  0.00000000000E+00  0.14999999963E+04  0.15000000000E+04  0.10566000000E+00 0. -1.
        994   -1    0    0    0    0 -0.00000000000E+00 -0.00000000000E+00  0.11368683772E-12  0.17120000000E+03  0.17120000000E+03 0.  0.
         13    1    1    2    0    0 -0.11779370360E+02 -0.84385461998E+01  0.85291810005E+02  0.86513967924E+02  0.10566000000E+00 0. -1.
        994    1    1    2    0    0  0.41569870418E+02 -0.31823996297E+02  0.10270770608E+02  0.17932024313E+03  0.17120000000E+03 0.  0.
        998    1    1    2    0    0 -0.29790500058E+02  0.40262542497E+02  0.14044374157E+04  0.14053657889E+04  0.10000000000E+02 0.  1.
</event>
<event>
 5    1  0.1252945E-008  0.3708973E+03  0.7957747E-01  0.3491777E+00
         13   -1    0    0    0    0  0.00000000000E+00  0.00000000000E+00  0.14999999963E+04  0.15000000000E+04  0.10566000000E+00 0.  1.
        994   -1    0    0    0    0 -0.00000000000E+00 -0.00000000000E+00  0.11368683772E-12  0.17120000000E+03  0.17120000000E+03 0.  0.
         13    1    1    2    0    0  0.13208615270E+02  0.74436285820E+01  0.94317982004E+01  0.17856234350E+02  0.10566000000E+00 0.  1.
        994    1    1    2    0    0  0.14233291296E+01  0.53367374564E+01  0.89059824640E+01  0.17152044530E+03  0.17120000000E+03 0.  0.
        998    1    1    2    0    0 -0.14631944400E+02 -0.12780366038E+02  0.14816622156E+04  0.14818233203E+04  0.10000000000E+02 0.  1.
</event>
<event>
 5    1  0.1252945E-008  0.3715302E+03  0.7957747E-01  0.3488888E+00
         13   -1    0    0    0    0  0.00000000000E+00  0.00000000000E+00  0.14999999963E+04  0.15000000000E+04  0.10566000000E+00 0.  1.
        994   -1    0    0    0    0 -0.00000000000E+00 -0.00000000000E+00  0.11368683772E-12  0.17120000000E+03  0.17120000000E+03 0.  0.
         13    1    1    2    0    0 -0.42511954770E+02  0.25106104950E+01  0.10684832378E+03  0.11502236705E+03  0.10566000000E+00 0.  1.
        994    1    1    2    0    0  0.19220884252E+02 -0.93769527683E+01  0.10046161410E+02  0.17282284280E+03  0.17120000000E+03 0.  0.
        998    1    1    2    0    0  0.23291070518E+02  0.68663422733E+01  0.13831055111E+04  0.13833547901E+04  0.10000000000E+02 0.  1.
</event>
<event>
 5    1  0.1252945E-008  0.3850392E+03  0.7957747E-01  0.3429506E+00
         13   -1    0    0    0    0  0.00000000000E+00  0.00000000000E+00  0.14999999963E+04  0.15000000000E+04  0.10566000000E+00 0. -1.
        994   -1    0    0    0    0 -0.00000000000E+00 -0.00000000000E+00  0.11368683772E-12  0.17120000000E+03  0.17120000000E+03 0.  0.
         13    1    1    2    0    0 -0.21566557572E+01  0.11412535187E+02  0.42780060997E+02  0.44328793198E+02  0.10566000000E+00 0. -1.
        994    1    1    2    0    0  0.16290758964E+02 -0.50391666306E+00  0.24846792580E+01  0.17199202421E+03  0.17120000000E+03 0.  0.
        998    1    1    2    0    0 -0.14134103207E+02 -0.10908618524E+02  0.14547352560E+04  0.14548791826E+04  0.10000000000E+02 0. -1.
</event>
<event>
 5    1  0.1252945E-008  0.3684504E+03  0.7957747E-01  0.3503043E+00
         13   -1    0    0    0    0  0.00000000000E+00  0.00000000000E+00  0.14999999963E+04  0.15000000000E+04  0.10566000000E+00 0. -1.
        994   -1    0    0    0    0 -0.00000000000E+00 -0.00000000000E+00  0.11368683772E-12  0.17120000000E+03  0.17120000000E+03 0.  0.
         13    1    1    2    0    0  0.20905472662E+02 -0.50339335879E+02  0.22804721248E+03  0.23447095728E+03  0.10566000000E+00 0. -1.
        994    1    1    2    0    0 -0.25209727538E+02 -0.60072387475E+02  0.25028432289E+02  0.18487856696E+03  0.17120000000E+03 0.  0.
        998    1    1    2    0    0  0.43042548761E+01  0.11041172335E+03  0.12469243515E+04  0.12518504758E+04  0.10000000000E+02 0. -1.
</event>
<event>
 5    1  0.1252945E-008  0.3794568E+03  0.7957747E-01  0.3453527E+00
         13   -1    0    0    0    0  0.00000000000E+00  0.00000000000E+00  0.14999999963E+04  0.15000000000E+04  0.10566000000E+00 0. -1.
        994   -1    0    0    0    0 -0.00000000000E+00 -0.00000000000E+00  0.11368683772E-12  0.17120000000E+03  0.17120000000E+03 0.  0.
         13    1    1    2    0    0 -0.10166668089E+02  0.61261676923E+01  0.13959620071E+02  0.18324116000E+02  0.10566000000E+00 0. -1.
        994    1    1    2    0    0  0.25250395687E+01 -0.18294318610E+02  0.55506255979E+01  0.17228263802E+03  0.17120000000E+03 0.  0.
        998    1    1    2    0    0  0.76416285207E+01  0.12168150917E+02  0.14804897506E+04  0.14805932460E+04  0.10000000000E+02 0. -1.
</event>
<event>
 5    1  0.1252945E-008  0.3853934E+03  0.7957747E-01  0.3428006E+00
         13   -1    0    0    0    0  0.00000000000E+00  0.00000000000E+00  0.14999999963E+04  0.15000000000E+04  0.10566000000E+00 0. -1.
        994   -1    0    0    0    0 -0.00000000000E+00 -0.00000000000E+00  0.11368683772E-12  0.17120000000E+03  0.17120000000E+03 0.  0.
         13    1    1    2    0    0  0.90552844796E+01  0.11425468411E+02  0.71440510026E+02  0.72912942213E+02  0.10566000000E+00 0. -1.
        994    1    1    2    0    0 -0.13484202025E+02 -0.88704539134E+01  0.22910590119E+01  0.17197440975E+03  0.17120000000E+03 0.  0.
        998    1    1    2    0    0  0.44289175457E+01 -0.25550144980E+01  0.14262684272E+04  0.14263126480E+04  0.10000000000E+02 0. -1.
</event>
<event>
 5    1  0.1252945E-008  0.3833342E+03  0.7957747E-01  0.3436768E+00
         13   -1    0    0    0    0  0.00000000000E+00  0.00000000000E+00  0.14999999963E+04  0.15000000000E+04  0.10566000000E+00 0. -1.
        994   -1    0    0    0    0 -0.00000000000E+00 -0.00000000000E+00  0.11368683772E-12  0.17120000000E+03  0.17120000000E+03 0.  0.
         13    1    1    2    0    0 -0.56083124790E+01  0.20337831019E+02  0.93496816942E+02  0.95847516826E+02  0.10566000000E+00 0. -1.
        994    1    1    2    0    0  0.12625746444E+02 -0.38419503459E+01  0.30355522904E+01  0.17173475080E+03  0.17120000000E+03 0.  0.
        998    1    1    2    0    0 -0.70174339646E+01 -0.16495880673E+02  0.14034676270E+04  0.14036177324E+04  0.10000000000E+02 0. -1.
</event>
<event>
 5    1  0.1252945E-008  0.3773150E+03  0.7957747E-01  0.3462934E+00
         13   -1    0    0    0    0  0.00000000000E+00  0.00000000000E+00  0.14999999963E+04  0.15000000000E+04  0.10566000000E+00 0. -1.
        994   -1    0    0    0    0 -0.00000000000E+00 -0.00000000000E+00  0.11368683772E-12  0.17120000000E+03  0.17120000000E+03 0.  0.
         13    1    1    2    0    0  0.30153063126E+02 -0.37115904974E+02  0.18546516500E+03  0.19153103198E+03  0.10566000000E+00 0. -1.
        994    1    1    2    0    0 -0.29402023120E+02  0.34014975334E+02  0.12343507575E+02  0.17743533946E+03  0.17120000000E+03 0.  0.
        998    1    1    2    0    0 -0.75104000554E+00  0.31009296404E+01  0.13021913237E+04  0.13022336286E+04  0.10000000000E+02 0. -1.
</event>
<event>
 5    1  0.1252945E-008  0.3723352E+03  0.7957747E-01  0.3485227E+00
         13   -1    0    0    0    0  0.00000000000E+00  0.00000000000E+00  0.14999999963E+04  0.15000000000E+04  0.10566000000E+00 0. -1.
        994   -1    0    0    0    0 -0.00000000000E+00 -0.00000000000E+00  0.11368683772E-12  0.17120000000E+03  0.17120000000E+03 0.  0.
         13    1    1    2    0    0 -0.13372618590E+02 -0.17980723043E+02  0.28843018755E+02  0.36524843929E+02  0.10566000000E+00 0. -1.
        994    1    1    2    0    0 -0.45603582649E+01  0.52528292029E+01  0.82195725603E+01  0.17153830609E+03  0.17120000000E+03 0.  0.
        998    1    1    2    0    0  0.17932976855E+02  0.12727893840E+02  0.14629374050E+04  0.14631368500E+04  0.10000000000E+02 0. -1.
</event>
<event>
 5    1  0.1252945E-008  0.3815845E+03  0.7957747E-01  0.3444288E+00
         13   -1    0    0    0    0  0.00000000000E+00  0.00000000000E+00  0.14999999963E+04  0.15000000000E+04  0.10566000000E+00 0. -1.
        994   -1    0    0    0    0 -0.00000000000E+00 -0.00000000000E+00  0.11368683772E-12  0.17120000000E+03  0.17120000000E+03 0.  0.
         13    1    1    2    0    0  0.53408150481E+01  0.25286141476E+02  0.10467136951E+03  0.10781474860E+03  0.10566000000E+00 0. -1.
        994    1    1    2    0    0  0.19919234694E+01 -0.68740868230E+01  0.35057765955E+01  0.17138538823E+03  0.17120000000E+03 0.  0.
        998    1    1    2    0    0 -0.73327385174E+01 -0.18412054653E+02  0.13918228502E+04  0.13919998632E+04  0.10000000000E+02 0. -1.
</event>
<event>
 5    1  0.1252945E-008  0.3791169E+03  0.7957747E-01  0.3455013E+00
         13   -1    0    0    0    0  0.00000000000E+00  0.00000000000E+00  0.14999999963E+04  0.15000000000E+04  0.10566000000E+00 0.  1.
        994   -1    0    0    0    0 -0.00000000000E+00 -0.00000000000E+00  0.11368683772E-12  0.17120000000E+03  0.17120000000E+03 0.  0.
         13    1    1    2    0    0 -0.17203238089E+02 -0.17398131463E+02  0.62813403775E+02  0.67410542477E+02  0.10566000000E+00 0.  1.
        994    1    1    2    0    0  0.15695332987E+02  0.11209715413E+02  0.58278045220E+01  0.17238156660E+03  0.17120000000E+03 0.  0.
        998    1    1    2    0    0  0.15079051024E+01  0.61884160498E+01  0.14313587880E+04  0.14314078909E+04  0.10000000000E+02 0.  1.
</event>
<event>
 5    1  0.1252945E-008  0.3710180E+03  0.7957747E-01  0.3491225E+00
         13   -1    0    0    0    0  0.00000000000E+00  0.00000000000E+00  0.14999999963E+04  0.15000000000E+04  0.10566000000E+00 0.  1.
        994   -1    0    0    0    0 -0.00000000000E+00 -0.00000000000E+00  0.11368683772E-12  0.17120000000E+03  0.17120000000E+03 0.  0.
         13    1    1    2    0    0 -0.60882263133E+02  0.20037897119E+02  0.15532187365E+03  0.16802697070E+03  0.10566000000E+00 0.  1.
        994    1    1    2    0    0  0.66263011073E+02 -0.14486013128E+02  0.27799109319E+02  0.18623335279E+03  0.17120000000E+03 0.  0.
        998    1    1    2    0    0 -0.53807479400E+01 -0.55518839903E+01  0.13168790133E+04  0.13169396765E+04  0.10000000000E+02 0.  1.
</event>
<event>
 5    1  0.1406438E-008  0.3856321E+03  0.7957747E-01  0.3426996E+00
         13   -1    0    0    0    0  0.00000000000E+00  0.00000000000E+00  0.14999999963E+04  0.15000000000E+04  0.10566000000E+00 0.  1.
        994   -1    0    0    0    0 -0.00000000000E+00 -0.00000000000E+00  0.11368683772E-12  0.17120000000E+03  0.17120000000E+03 0.  0.
         13    1    1    2    0    0 -0.19720907750E+01  0.10414678628E+02  0.42146837023E+02  0.43459425998E+02  0.10566000000E+00 0.  1.
        994    1    1    2    0    0  0.56680737788E+01 -0.93810559780E+01  0.17110037153E+01  0.17155902426E+03  0.17120000000E+03 0.  0.
        998    1    1    2    0    0 -0.36959830038E+01 -0.10336226504E+01  0.14561421555E+04  0.14561815497E+04  0.10000000000E+02 0.  1.
</event>
<event>
 5    1  0.1252945E-008  0.4248659E+03  0.7957747E-01  0.3276401E+00
         13   -1    0    0    0    0  0.00000000000E+00  0.00000000000E+00  0.14999999963E+04  0.15000000000E+04  0.10566000000E+00 0.  1.
        994   -1    0    0    0    0 -0.00000000000E+00 -0.00000000000E+00  0.11368683772E-12  0.17120000000E+03  0.17120000000E+03 0.  0.
         13    1    1    2    0    0  0.36911358868E+01 -0.40049195238E+02 -0.88955097314E-01  0.40219169564E+02  0.10566000000E+00 0.  1.
        994    1    1    2    0    0  0.24952621452E+02  0.76824527403E+02  0.72673773093E+02  0.20276971821E+03  0.17120000000E+03 0.  0.
        998    1    1    2    0    0 -0.28643757338E+02 -0.36775332165E+02  0.14274151783E+04  0.14282111122E+04  0.10000000000E+02 0.  1.
</event>
<event>
 5    1  0.1252945E-008  0.3824155E+03  0.7957747E-01  0.3440708E+00
         13   -1    0    0    0    0  0.00000000000E+00  0.00000000000E+00  0.14999999963E+04  0.15000000000E+04  0.10566000000E+00 0.  1.
        994   -1    0    0    0    0 -0.00000000000E+00 -0.00000000000E+00  0.11368683772E-12  0.17120000000E+03  0.17120000000E+03 0.  0.
         13    1    1    2    0    0  0.20594165785E+02  0.83771289525E+01  0.87070369003E+02  0.89864098928E+02  0.10566000000E+00 0.  1.
        994    1    1    2    0    0 -0.37348081079E+01 -0.97039043761E+01  0.32774069576E+01  0.17154677481E+03  0.17120000000E+03 0.  0.
        998    1    1    2    0    0 -0.16859357677E+02  0.13267754237E+01  0.14096522203E+04  0.14097891263E+04  0.10000000000E+02 0.  1.
</event>
<event>
 5    1  0.1252945E-008  0.3848151E+03  0.7957747E-01  0.3430457E+00
         13   -1    0    0    0    0  0.00000000000E+00  0.00000000000E+00  0.14999999963E+04  0.15000000000E+04  0.10566000000E+00 0. -1.
        994   -1    0    0    0    0 -0.00000000000E+00 -0.00000000000E+00  0.11368683772E-12  0.17120000000E+03  0.17120000000E+03 0.  0.
         13    1    1    2    0    0  0.17820083163E+02  0.20932261609E+00  0.90702500432E+02  0.92436756372E+02  0.10566000000E+00 0. -1.
        994    1    1    2    0    0 -0.13631152828E+02 -0.71334719188E+00  0.23352801503E+01  0.17175916489E+03  0.17120000000E+03 0.  0.
        998    1    1    2    0    0 -0.41889303343E+01  0.50402457579E+00  0.14069622157E+04  0.14070040787E+04  0.10000000000E+02 0. -1.
</event>
<event>
 5    1  0.1252945E-008  0.3843434E+03  0.7957747E-01  0.3432462E+00
         13   -1    0    0    0    0  0.00000000000E+00  0.00000000000E+00  0.14999999963E+04  0.15000000000E+04  0.10566000000E+00 0. -1.
        994   -1    0    0    0    0 -0.00000000000E+00 -0.00000000000E+00  0.11368683772E-12  0.17120000000E+03  0.17120000000E+03 0.  0.
         13    1    1    2    0    0 -0.66678540510E+01  0.76764275918E+01  0.25294672593E+02  0.27262051350E+02  0.10566000000E+00 0. -1.
        994    1    1    2    0    0  0.10678978771E+02 -0.82664152190E+01  0.25577769147E+01  0.17175085569E+03  0.17120000000E+03 0.  0.
        998    1    1    2    0    0 -0.40111247201E+01  0.58998762719E+00  0.14721475468E+04  0.14721870930E+04  0.10000000000E+02 0. -1.
</event>
<event>
 5    1  0.1252945E-008  0.3759573E+03  0.7957747E-01  0.3468952E+00
         13   -1    0    0    0    0  0.00000000000E+00  0.00000000000E+00  0.14999999963E+04  0.15000000000E+04  0.10566000000E+00 0.  1.
        994   -1    0    0    0    0 -0.00000000000E+00 -0.00000000000E+00  0.11368683772E-12  0.17120000000E+03  0.17120000000E+03 0.  0.
         13    1    1    2    0    0  0.20746544773E+03 -0.21906721971E+02  0.83616536088E+03  0.86179715616E+03  0.10566000000E+00 0.  1.
        994    1    1    2    0    0 -0.22188204538E+03  0.46597108984E+02  0.20687240700E+03  0.35143785426E+03  0.17120000000E+03 0.  0.
        998    1    1    2    0    0  0.14416597643E+02 -0.24690387013E+02  0.45696222840E+03  0.45796498958E+03  0.10000000000E+02 0.  1.
</event>
<event>
 5    1  0.1252945E-008  0.3772215E+03  0.7957747E-01  0.3463346E+00
         13   -1    0    0    0    0  0.00000000000E+00  0.00000000000E+00  0.14999999963E+04  0.15000000000E+04  0.10566000000E+00 0.  1.
        994   -1    0    0    0    0 -0.00000000000E+00 -0.00000000000E+00  0.11368683772E-12  0.17120000000E+03  0.17120000000E+03 0.  0.
         13    1    1    2    0    0 -0.24933342751E+02  0.86843182417E+02  0.41914455332E+03  0.42877217454E+03  0.10566000000E+00 0.  1.
        994    1    1    2    0    0  0.20824664772E+02 -0.11055729782E+03  0.49511173220E+02  0.21075430965E+03  0.17120000000E+03 0.  0.
        998    1    1    2    0    0  0.41086779781E+01  0.23714115403E+02  0.10313442697E+04  0.10316735158E+04  0.10000000000E+02 0.  1.
</event>
<event>
 5    1  0.1252945E-008  0.3815924E+03  0.7957747E-01  0.3444254E+00
         13   -1    0    0    0    0  0.00000000000E+00  0.00000000000E+00  0.14999999963E+04  0.15000000000E+04  0.10566000000E+00 0. -1.
        994   -1    0    0    0    0 -0.00000000000E+00 -0.00000000000E+00  0.11368683772E-12  0.17120000000E+03  0.17120000000E+03 0.  0.
         13    1    1    2    0    0  0.21068299663E+02  0.44994783797E+01  0.76369536495E+02  0.79350083962E+02  0.10566000000E+00 0. -1.
        994    1    1    2    0    0  0.88275502099E+01 -0.38148104607E+01  0.36390713601E+01  0.17150848743E+03  0.17120000000E+03 0.  0.
        998    1    1    2    0    0 -0.29895849873E+02 -0.68466791894E+00  0.14199913884E+04  0.14203414286E+04  0.10000000000E+02 0. -1.
</event>
<event>
 5    1  0.1252945E-008  0.3847963E+03  0.7957747E-01  0.3430537E+00
         13   -1    0    0    0    0  0.00000000000E+00  0.00000000000E+00  0.14999999963E+04  0.15000000000E+04  0.10566000000E+00 0.  1.
        994   -1    0    0    0    0 -0.00000000000E+00 -0.00000000000E+00  0.11368683772E-12  0.17120000000E+03  0.17120000000E+03 0.  0.
         13    1    1    2    0    0  0.91979385264E+01  0.13431073081E+02  0.94126790796E+02  0.95524131542E+02  0.10566000000E+00 0.  1.
        994    1    1    2    0    0 -0.57117592190E+01  0.23156201295E+02  0.36054689702E+01  0.17289092879E+03  0.17120000000E+03 0.  0.
        998    1    1    2    0    0 -0.34861793075E+01 -0.36587274376E+02  0.14022677365E+04  0.14027849397E+04  0.10000000000E+02 0.  1.
</event>
<event>
 5    1  0.1252945E-008  0.3780199E+03  0.7957747E-01  0.3459826E+00
         13   -1    0    0    0    0  0.00000000000E+00  0.00000000000E+00  0.14999999963E+04  0.15000000000E+04  0.10566000000E+00 0. -1.
        994   -1    0    0    0    0 -0.00000000000E+00 -0.00000000000E+00  0.11368683772E-12  0.17120000000E+03  0.17120000000E+03 0.  0.
         13    1    1    2    0    0  0.54049185194E+02 -0.33527352278E+01  0.28592349041E+03  0.29100654423E+03  0.10566000000E+00 0. -1.
        994    1    1    2    0    0 -0.32011055637E+02 -0.19827907586E+02  0.99218686996E+01  0.17557259775E+03  0.17120000000E+03 0.  0.
        998    1    1    2    0    0 -0.22038129557E+02  0.23180642814E+02  0.12041546372E+04  0.12046208580E+04  0.10000000000E+02 0. -1.
</event>
<event>
 5    1  0.1252945E-008  0.4407370E+03  0.7957747E-01  0.3222983E+00
         13   -1    0    0    0    0  0.00000000000E+00  0.00000000000E+00  0.14999999963E+04  0.15000000000E+04  0.10566000000E+00 0.  1.
        994   -1    0    0    0    0 -0.00000000000E+00 -0.00000000000E+00  0.11368683772E-12  0.17120000000E+03  0.17120000000E+03 0.  0.
         13    1    1    2    0    0  0.91935133735E+02  0.18511591934E+02  0.50785673766E+02  0.10664869279E+03  0.10566000000E+00 0.  1.
        994    1    1    2    0    0 -0.13118662111E+03 -0.54364564023E+02  0.15950767791E+03  0.27371075004E+03  0.17120000000E+03 0.  0.
        998    1    1    2    0    0  0.39251487372E+02  0.35852972089E+02  0.12897066446E+04  0.12908405572E+04  0.10000000000E+02 0.  1.
</event>
<event>
 5    1  0.1252945E-008  0.3831026E+03  0.7957747E-01  0.3437759E+00
         13   -1    0    0    0    0  0.00000000000E+00  0.00000000000E+00  0.14999999963E+04  0.15000000000E+04  0.10566000000E+00 0. -1.
        994   -1    0    0    0    0 -0.00000000000E+00 -0.00000000000E+00  0.11368683772E-12  0.17120000000E+03  0.17120000000E+03 0.  0.
         13    1    1    2    0    0  0.10380036056E+02  0.15004207018E+02  0.62292554390E+02  0.64909512964E+02  0.10566000000E+00 0. -1.
        994    1    1    2    0    0 -0.15397161419E+02 -0.99286498074E+01  0.36865394201E+01  0.17221695979E+03  0.17120000000E+03 0.  0.
        998    1    1    2    0    0  0.50171253630E+01 -0.50755572107E+01  0.14340209025E+04  0.14340735272E+04  0.10000000000E+02 0. -1.
</event>
<event>
 5    1  0.1529277E-008  0.3863954E+03  0.7957747E-01  0.3423776E+00
         13   -1    0    0    0    0  0.00000000000E+00  0.00000000000E+00  0.14999999963E+04  0.15000000000E+04  0.10566000000E+00 0. -1.
        994   -1    0    0    0    0 -0.00000000000E+00 -0.00000000000E+00  0.11368683772E-12  0.17120000000E+03  0.17120000000E+03 0.  0.
         13    1    1    2    0    0 -0.85276791404E+01 -0.82597802588E+01  0.65460281360E+02  0.66528226199E+02  0.10566000000E+00 0. -1.
        994    1    1    2    0    0  0.80254513269E+01  0.31562629274E+02  0.44188822080E+01  0.17432605645E+03  0.17120000000E+03 0.  0.
        998    1    1    2    0    0  0.50222781348E+00 -0.23302849016E+02  0.14301208327E+04  0.14303457174E+04  0.10000000000E+02 0. -1.
</event>
<event>
 5    1  0.1252945E-008  0.3839888E+03  0.7957747E-01  0.3433972E+00
         13   -1    0    0    0    0  0.00000000000E+00  0.00000000000E+00  0.14999999963E+04  0.15000000000E+04  0.10566000000E+00 0. -1.
        994   -1    0    0    0    0 -0.00000000000E+00 -0.00000000000E+00  0.11368683772E-12  0.17120000000E+03  0.17120000000E+03 0.  0.
         13    1    1    2    0    0 -0.10635817286E+02 -0.21173453337E+02  0.12111779195E+03  0.12341380160E+03  0.10566000000E+00 0. -1.
        994    1    1    2    0    0  0.14786597331E+02  0.20697706477E+02  0.42708118980E+01  0.17313208353E+03  0.17120000000E+03 0.  0.
        998    1    1    2    0    0 -0.41507800447E+01  0.47574686006E+00  0.13746113924E+04  0.13746541149E+04  0.10000000000E+02 0. -1.
</event>
<event>
 5    1  0.1252945E-008  0.3804512E+03  0.7957747E-01  0.3449196E+00
         13   -1    0    0    0    0  0.00000000000E+00  0.00000000000E+00  0.14999999963E+04  0.15000000000E+04  0.10566000000E+00 0.  1.
        994   -1    0    0    0    0 -0.00000000000E+00 -0.00000000000E+00  0.11368683772E-12  0.17120000000E+03  0.17120000000E+03 0.  0.
         13    1    1    2    0    0 -0.12079281335E+02 -0.17108117608E+01  0.17290734581E+02  0.21161677175E+02  0.10566000000E+00 0.  1.
        994    1    1    2    0    0  0.11100359947E+02  0.24891657071E+01  0.43376548422E+01  0.17163236637E+03  0.17120000000E+03 0.  0.
        998    1    1    2    0    0  0.97892138805E+00 -0.77835394631E+00  0.14783716069E+04  0.14784059565E+04  0.10000000000E+02 0.  1.
</event>
<event>
 5    1  0.1302810E-008  0.3858565E+03  0.7957747E-01  0.3426048E+00
         13   -1    0    0    0    0  0.00000000000E+00  0.00000000000E+00  0.14999999963E+04  0.15000000000E+04  0.10566000000E+00 0.  1.
        994   -1    0    0    0    0 -0.00000000000E+00 -0.00000000000E+00  0.11368683772E-12  0.17120000000E+03  0.17120000000E+03 0.  0.
         13    1    1    2    0    0 -0.63036879311E+01  0.10627447376E+02  0.61988730865E+02  0.63208330444E+02  0.10566000000E+00 0.  1.
        994    1    1    2    0    0  0.89044406082E+01 -0.93549627090E+01  0.17527442543E+01  0.17169541783E+03  0.17120000000E+03 0.  0.
        998    1    1    2    0    0 -0.26007526771E+01 -0.12724846665E+01  0.14362585212E+04  0.14362962517E+04  0.10000000000E+02 0.  1.
</event>
<event>
 5    1  0.1252945E-008  0.3766996E+03  0.7957747E-01  0.3465656E+00
         13   -1    0    0    0    0  0.00000000000E+00  0.00000000000E+00  0.14999999963E+04  0.15000000000E+04  0.10566000000E+00 0.  1.
        994   -1    0    0    0    0 -0.00000000000E+00 -0.00000000000E+00  0.11368683772E-12  0.17120000000E+03  0.17120000000E+03 0.  0.
         13    1    1    2    0    0 -0.11657026412E+03  0.50185597426E+02  0.72351854808E+03  0.73456539617E+03  0.10566000000E+00 0.  1.
        994    1    1    2    0    0  0.11311142140E+03 -0.48071251132E+02  0.58696743225E+02  0.21876879691E+03  0.17120000000E+03 0.  0.
        998    1    1    2    0    0  0.34588427163E+01 -0.21143462939E+01  0.71778470497E+03  0.71786580692E+03  0.10000000000E+02 0.  0.
</event>
<event>
 5    1  0.1252945E-008  0.3853016E+03  0.7957747E-01  0.3428394E+00
         13   -1    0    0    0    0  0.00000000000E+00  0.00000000000E+00  0.14999999963E+04  0.15000000000E+04  0.10566000000E+00 0.  1.
        994   -1    0    0    0    0 -0.00000000000E+00 -0.00000000000E+00  0.11368683772E-12  0.17120000000E+03  0.17120000000E+03 0.  0.
         13    1    1    2    0    0  0.90675416351E+01 -0.87733369577E+01  0.59718247342E+02  0.61036644586E+02  0.10566000000E+00 0.  1.
        994    1    1    2    0    0 -0.40297483638E+01 -0.14502946336E+02  0.22251974382E+01  0.17187485514E+03  0.17120000000E+03 0.  0.
        998    1    1    2    0    0 -0.50377932713E+01  0.23276283294E+02  0.14380565515E+04  0.14382885003E+04  0.10000000000E+02 0.  1.
</event>
<event>
 5    1  0.1479358E-008  0.3851680E+03  0.7957747E-01  0.3428960E+00
         13   -1    0    0    0    0  0.00000000000E+00  0.00000000000E+00  0.14999999963E+04  0.15000000000E+04  0.10566000000E+00 0.  1.
        994   -1    0    0    0    0 -0.00000000000E+00 -0.00000000000E+00  0.11368683772E-12  0.17120000000E+03  0.17120000000E+03 0.  0.
         13    1    1    2    0    0  0.99216764612E+01  0.10968556235E+02  0.78544255927E+02  0.79924715782E+02  0.10566000000E+00 0.  1.
        994    1    1    2    0    0  0.35266900973E+01  0.28626477816E+01  0.16145766998E+01  0.17126785791E+03  0.17120000000E+03 0.  0.
        998    1    1    2    0    0 -0.13448366558E+02 -0.13831204017E+02  0.14198411637E+04  0.14200074263E+04  0.10000000000E+02 0.  1.
</event>
<event>
 5    1  0.1252945E-008  0.3849625E+03  0.7957747E-01  0.3429831E+00
         13   -1    0    0    0    0  0.00000000000E+00  0.00000000000E+00  0.14999999963E+04  0.15000000000E+04  0.10566000000E+00 0.  1.
        994   -1    0    0    0    0 -0.00000000000E+00 -0.00000000000E+00  0.11368683772E-12  0.17120000000E+03  0.17120000000E+03 0.  0.
         13    1    1    2    0    0  0.11942347541E+02 -0.93525538919E+01  0.71059116836E+02  0.72660162253E+02  0.10566000000E+00 0.  1.
        994    1    1    2    0    0 -0.25590538670E+01  0.84683092246E+01  0.19062126660E+01  0.17143901150E+03  0.17120000000E+03 0.  0.
        998    1    1    2    0    0 -0.93832936737E+01  0.88424466724E+00  0.14270346668E+04  0.14271008262E+04  0.10000000000E+02 0.  1.
</event>
<event>
 5    1  0.1252945E-008  0.3710000E+03  0.7957747E-01  0.3491308E+00
         13   -1    0    0    0    0  0.00000000000E+00  0.00000000000E+00  0.14999999963E+04  0.15000000000E+04  0.10566000000E+00 0.  1.
        994   -1    0    0    0    0 -0.00000000000E+00 -0.00000000000E+00  0.11368683772E-12  0.17120000000E+03  0.17120000000E+03 0.  0.
         13    1    1    2    0    0  0.18417945233E+02 -0.56598758403E+02  0.16678486804E+03  0.17708710719E+03  0.10566000000E+00 0.  1.
        994    1    1    2    0    0 -0.20486222029E+02  0.69643327322E+02  0.27131279147E+02  0.18792398634E+03  0.17120000000E+03 0.  0.
        998    1    1    2    0    0  0.20682767969E+01 -0.13044568919E+02  0.13060838491E+04  0.13061889065E+04  0.10000000000E+02 0.  1.
</event>
<event>
 5    1  0.1252945E-008  0.3745319E+03  0.7957747E-01  0.3475319E+00
         13   -1    0    0    0    0  0.00000000000E+00  0.00000000000E+00  0.14999999963E+04  0.15000000000E+04  0.10566000000E+00 0.  1.
        994   -1    0    0    0    0 -0.00000000000E+00 -0.00000000000E+00  0.11368683772E-12  0.17120000000E+03  0.17120000000E+03 0.  0.
         13    1    1    2    0    0 -0.10025153940E+03  0.12018845355E+03  0.71596600824E+03  0.73287309382E+03  0.10566000000E+00 0.  1.
        994    1    1    2    0    0  0.11475087672E+03 -0.12059331517E+03  0.10802186299E+03  0.26208524235E+03  0.17120000000E+03 0.  0.
        998    1    1    2    0    0 -0.14499337317E+02  0.40486161871E+00  0.67601212505E+03  0.67624166383E+03  0.10000000000E+02 0.  1.
</event>
<event>
 5    1  0.1252945E-008  0.3835023E+03  0.7957747E-01  0.3436049E+00
         13   -1    0    0    0    0  0.00000000000E+00  0.00000000000E+00  0.14999999963E+04  0.15000000000E+04  0.10566000000E+00 0.  1.
        994   -1    0    0    0    0 -0.00000000000E+00 -0.00000000000E+00  0.11368683772E-12  0.17120000000E+03  0.17120000000E+03 0.  0.
         13    1    1    2    0    0 -0.98510122455E+00  0.19906325960E+02  0.78534222391E+02  0.81023869867E+02  0.10566000000E+00 0.  1.
        994    1    1    2    0    0 -0.48217128749E+01 -0.22547755739E+02  0.41344858771E+01  0.17279520878E+03  0.17120000000E+03 0.  0.
        998    1    1    2    0    0  0.58068140995E+01  0.26414297797E+01  0.14173312880E+04  0.14173809214E+04  0.10000000000E+02 0.  1.
</event>
<event>
 5    1  0.1252945E-008  0.3834573E+03  0.7957747E-01  0.3436242E+00
         13   -1    0    0    0    0  0.00000000000E+00  0.00000000000E+00  0.14999999963E+04  0.15000000000E+04  0.10566000000E+00 0.  1.
        994   -1    0    0    0    0 -0.00000000000E+00 -0.00000000000E+00  0.11368683772E-12  0.17120000000E+03  0.17120000000E+03 0.  0.
         13    1    1    2    0    0  0.78014948649E+02 -0.32162706259E+02  0.21254523087E+03  0.22868375153E+03  0.10566000000E+00 0.  1.
        994    1    1    2    0    0 -0.26376241920E+02  0.41622076536E+01  0.20860517254E+02  0.17452114855E+03  0.17120000000E+03 0.  0.
        998    1    1    2    0    0 -0.51638706729E+02  0.28000498605E+02  0.12665942482E+04  0.12679950999E+04  0.10000000000E+02 0.  1.
</event>
<event>
 5    1  0.1252945E-008  0.3760524E+03  0.7957747E-01  0.3468530E+00
         13   -1    0    0    0    0  0.00000000000E+00  0.00000000000E+00  0.14999999963E+04  0.15000000000E+04  0.10566000000E+00 0.  1.
        994   -1    0    0    0    0 -0.00000000000E+00 -0.00000000000E+00  0.11368683772E-12  0.17120000000E+03  0.17120000000E+03 0.  0.
         13    1    1    2    0    0  0.15155383966E+02  0.10750571010E+02  0.24783661946E+02  0.30975821275E+02  0.10566000000E+00 0.  1.
        994    1    1    2    0    0 -0.19808520344E+02 -0.14468146505E+02  0.81800550939E+01  0.17314172820E+03  0.17120000000E+03 0.  0.
        998    1    1    2    0    0  0.46531363787E+01  0.37175754958E+01  0.14670362792E+04  0.14670824505E+04  0.10000000000E+02 0.  1.
</event>
<event>
 5    1  0.1252945E-008  0.3820434E+03  0.7957747E-01  0.3442309E+00
         13   -1    0    0    0    0  0.00000000000E+00  0.00000000000E+00  0.14999999963E+04  0.15000000000E+04  0.10566000000E+00 0. -1.
        994   -1    0    0    0    0 -0.00000000000E+00 -0.00000000000E+00  0.11368683772E-12  0.17120000000E+03  0.17120000000E+03 0.  0.
         13    1    1    2    0    0 -0.11848195672E+02 -0.13221216829E+02  0.49442422360E+02  0.52533271438E+02  0.10566000000E+00 0. -1.
        994    1    1    2    0    0  0.91341385483E+01  0.91225441163E+01  0.36587643997E+01  0.17172501232E+03  0.17120000000E+03 0.  0.
        998    1    1    2    0    0  0.27140571234E+01  0.40986727130E+01  0.14468988095E+04  0.14469417162E+04  0.10000000000E+02 0. -1.
</event>
<event>
 5    1  0.1252945E-008  0.3851179E+03  0.7957747E-01  0.3429172E+00
         13   -1    0    0    0    0  0.00000000000E+00  0.00000000000E+00  0.14999999963E+04  0.15000000000E+04  0.10566000000E+00 0. -1.
        994   -1    0    0    0    0 -0.00000000000E+00 -0.00000000000E+00  0.11368683772E-12  0.17120000000E+03  0.17120000000E+03 0.  0.
         13    1    1    2    0    0 -0.13413777001E+02  0.37641798679E+01  0.62344287903E+02  0.63882077782E+02  0.10566000000E+00 0. -1.
        994    1    1    2    0    0  0.84327410565E+01  0.81889253650E+00  0.18076074390E+01  0.17141904547E+03  0.17120000000E+03 0.  0.
        998    1    1    2    0    0  0.49810359443E+01 -0.45830724044E+01  0.14358481009E+04  0.14358988767E+04  0.10000000000E+02 0. -1.
</event>
<event>
 5    1  0.1252945E-008  0.3738345E+03  0.7957747E-01  0.3478452E+00
         13   -1    0    0    0    0  0.00000000000E+00  0.00000000000E+00  0.14999999963E+04  0.15000000000E+04  0.10566000000E+00 0. -1.
        994   -1    0    0    0    0 -0.00000000000E+00 -0.00000000000E+00  0.11368683772E-12  0.17120000000E+03  0.17120000000E+03 0.  0.
         13    1    1    2    0    0  0.17567223873E+02  0.47275669456E+02  0.20539793659E+03  0.21149921937E+03  0.10566000000E+00 0. -1.
        994    1    1    2    0    0  0.13804544144E+02 -0.54817199571E+01  0.80316937152E+01  0.17203070306E+03  0.17120000000E+03 0.  0.
        998    1    1    2    0    0 -0.31371768017E+02 -0.41793949499E+02  0.12865703660E+04  0.12876700776E+04  0.10000000000E+02 0. -1.
</event>
<event>
 5    1  0.1252945E-008  0.3860019E+03  0.7957747E-01  0.3425434E+00
         13   -1    0    0    0    0  0.00000000000E+00  0.00000000000E+00  0.14999999963E+04  0.15000000000E+04  0.10566000000E+00 0. -1.
        994   -1    0    0    0    0 -0.00000000000E+00 -0.00000000000E+00  0.11368683772E-12  0.17120000000E+03  0.17120000000E+03 0.  0.
         13    1    1    2    0    0 -0.41887341273E+01  0.11873529676E+02  0.69413890473E+02  0.70546619729E+02  0.10566000000E+00 0. -1.
        994    1    1    2    0    0  0.26451293490E+01 -0.10507820216E+02  0.15184829964E+01  0.17154928384E+03  0.17120000000E+03 0.  0.
        998    1    1    2    0    0  0.15436047783E+01 -0.13657094594E+01  0.14290676228E+04  0.14291040964E+04  0.10000000000E+02 0. -1.
</event>
<event>
 5    1  0.1252945E-008  0.3984231E+03  0.7957747E-01  0.3374664E+00
         13   -1    0    0    0    0  0.00000000000E+00  0.00000000000E+00  0.14999999963E+04  0.15000000000E+04  0.10566000000E+00 0.  1.
        994   -1    0    0    0    0 -0.00000000000E+00 -0.00000000000E+00  0.11368683772E-12  0.17120000000E+03  0.17120000000E+03 0.  0.
         13    1    1    2    0    0  0.13446599911E+02  0.76596822182E+02  0.12355187182E+03  0.14598959008E+03  0.10566000000E+00 0.  1.
        994    1    1    2    0    0  0.26415088681E+02 -0.37129737988E+01  0.29612147486E+02  0.17577787791E+03  0.17120000000E+03 0.  0.
        998    1    1    2    0    0 -0.39861688592E+02 -0.72883848383E+02  0.13468359770E+04  0.13494325320E+04  0.10000000000E+02 0.  1.
</event>
<event>
 5    1  0.1252945E-008  0.3835590E+03  0.7957747E-01  0.3435807E+00
         13   -1    0    0    0    0  0.00000000000E+00  0.00000000000E+00  0.14999999963E+04  0.15000000000E+04  0.10566000000E+00 0.  1.
        994   -1    0    0    0    0 -0.00000000000E+00 -0.00000000000E+00  0.11368683772E-12  0.17120000000E+03  0.17120000000E+03 0.  0.
         13    1    1    2    0    0  0.13080182475E+02 -0.26937220417E+02  0.17575992136E+03  0.17829264185E+03  0.10566000000E+00 0.  1.
        994    1    1    2    0    0 -0.16053122618E+01  0.29272115975E+02  0.51920762970E+01  0.17376947792E+03  0.17120000000E+03 0.  0.
        998    1    1    2    0    0 -0.11474870213E+02 -0.23348955575E+01  0.13190479986E+04  0.13191378802E+04  0.10000000000E+02 0.  1.
</event>
<event>
 5    1  0.1252945E-008  0.3850642E+03  0.7957747E-01  0.3429400E+00
         13   -1    0    0    0    0  0.00000000000E+00  0.00000000000E+00  0.14999999963E+04  0.15000000000E+04  0.10566000000E+00 0. -1.
        994   -1    0    0    0    0 -0.00000000000E+00 -0.00000000000E+00  0.11368683772E-12  0.17120000000E+03  0.17120000000E+03 0.  0.
         13    1    1    2    0    0 -0.16210761689E+02 -0.90906578945E+00  0.91579587631E+02  0.93007780480E+02  0.10566000000E+00 0. -1.
        994    1    1    2    0    0 -0.30316914464E+01  0.28823590073E+01  0.16558141581E+01  0.17125910448E+03  0.17120000000E+03 0.  0.
        998    1    1    2    0    0  0.19242453135E+02 -0.19732932178E+01  0.14067645945E+04  0.14069331150E+04  0.10000000000E+02 0. -1.
</event>
<event>
 5    1  0.1252945E-008  0.3694101E+03  0.7957747E-01  0.3498606E+00
         13   -1    0    0    0    0  0.00000000000E+00  0.00000000000E+00  0.14999999963E+04  0.15000000000E+04  0.10566000000E+00 0. -1.
        994   -1    0    0    0    0 -0.00000000000E+00 -0.00000000000E+00  0.11368683772E-12  0.17120000000E+03  0.17120000000E+03 0.  0.
         13    1    1    2    0    0 -0.80894579409E+01 -0.73232304565E+01  0.14388621765E+01  0.11006839805E+02  0.10566000000E+00 0. -1.
        994    1    1    2    0    0  0.38833321354E+02  0.17253409055E+02  0.15860070080E+02  0.17710643352E+03  0.17120000000E+03 0.  0.
        998    1    1    2    0    0 -0.30743863413E+02 -0.99301785986E+01  0.14827010640E+04  0.14830867267E+04  0.10000000000E+02 0. -1.
</event>
<event>
 5    1  0.1252945E-008  0.3796133E+03  0.7957747E-01  0.3452844E+00
         13   -1    0    0    0    0  0.00000000000E+00  0.00000000000E+00  0.14999999963E+04  0.15000000000E+04  0.10566000000E+00 0. -1.
        994   -1    0    0    0    0 -0.00000000000E+00 -0.00000000000E+00  0.11368683772E-12  0.17120000000E+03  0.17120000000E+03 0.  0.
         13    1    1    2    0    0 -0.17885614344E+01  0.19195675854E+02  0.42143461059E+02  0.46343881986E+02  0.10566000000E+00 0. -1.
        994    1    1    2    0    0 -0.19240251812E+01 -0.69138249306E+01  0.45009087246E+01  0.17140945431E+03  0.17120000000E+03 0.  0.
        998    1    1    2    0    0  0.37125866156E+01 -0.12281850924E+02  0.14533556265E+04  0.14534466637E+04  0.10000000000E+02 0. -1.
</event>
<event>
 5    1  0.1625107E-008  0.3862247E+03  0.7957747E-01  0.3424495E+00
         13   -1    0    0    0    0  0.00000000000E+00  0.00000000000E+00  0.14999999963E+04  0.15000000000E+04  0.10566000000E+00 0.  1.
        994   -1    0    0    0    0 -0.00000000000E+00 -0.00000000000E+00  0.11368683772E-12  0.17120000000E+03  0.17120000000E+03 0.  0.
         13    1    1    2    0    0  0.97666090787E+01  0.28482201253E+01  0.47801539026E+02  0.48872254993E+02  0.10566000000E+00 0.  1.
        994    1    1    2    0    0 -0.16458883201E+02 -0.64163274305E+01  0.20461739212E+01  0.17212115187E+03  0.17120000000E+03 0.  0.
        998    1    1    2    0    0  0.66922741221E+01  0.35681073052E+01  0.14501522833E+04  0.14502065931E+04  0.10000000000E+02 0.  1.
</event>
<event>
 5    1  0.1252945E-008  0.3746135E+03  0.7957747E-01  0.3474953E+00
         13   -1    0    0    0    0  0.00000000000E+00  0.00000000000E+00  0.14999999963E+04  0.15000000000E+04  0.10566000000E+00 0.  1.
        994   -1    0    0    0    0 -0.00000000000E+00 -0.00000000000E+00  0.11368683772E-12  0.17120000000E+03  0.17120000000E+03 0.  0.
         13    1    1    2    0    0  0.33678558993E+02 -0.76266845028E+01  0.79631138803E+02  0.86795973890E+02  0.10566000000E+00 0.  1.
        994    1    1    2    0    0 -0.37494114182E+02 -0.88955142106E+00  0.11679918215E+02  0.17564868457E+03  0.17120000000E+03 0.  0.
        998    1    1    2    0    0  0.38155551883E+01  0.85162359238E+01  0.14086889393E+04  0.14087553415E+04  0.10000000000E+02 0.  1.
</event>
<event>
 5    1  0.1252945E-008  0.3835121E+03  0.7957747E-01  0.3436007E+00
         13   -1    0    0    0    0  0.00000000000E+00  0.00000000000E+00  0.14999999963E+04  0.15000000000E+04  0.10566000000E+00 0. -1.
        994   -1    0    0    0    0 -0.00000000000E+00 -0.00000000000E+00  0.11368683772E-12  0.17120000000E+03  0.17120000000E+03 0.  0.
         13    1    1    2    0    0  0.23046780396E+02  0.49437399147E+02  0.78040499064E+02  0.95213135540E+02  0.10566000000E+00 0. -1.
        994    1    1    2    0    0  0.17105337185E+02 -0.34683414586E+02  0.23779630931E+02  0.17711703096E+03  0.17120000000E+03 0.  0.
        998    1    1    2    0    0 -0.40152117581E+02 -0.14753984561E+02  0.13981798663E+04  0.13988698335E+04  0.10000000000E+02 0. -1.
</event>
<event>
 5    1  0.2246053E-008  0.3860706E+03  0.7957747E-01  0.3425144E+00
         13   -1    0    0    0    0  0.00000000000E+00  0.00000000000E+00  0.14999999963E+04  0.15000000000E+04  0.10566000000E+00 0. -1.
        994   -1    0    0    0    0 -0.00000000000E+00 -0.00000000000E+00  0.11368683772E-12  0.17120000000E+03  0.17120000000E+03 0.  0.
         13    1    1    2    0    0 -0.94345702428E+01 -0.46212235691E+01  0.49431975712E+02  0.50536107980E+02  0.10566000000E+00 0. -1.
        994    1    1    2    0    0  0.10569646487E+02  0.41015685165E+01  0.15209111888E+01  0.17158173989E+03  0.17120000000E+03 0.  0.
        998    1    1    2    0    0 -0.11350762446E+01  0.51965505263E+00  0.14490471094E+04  0.14490821521E+04  0.10000000000E+02 0. -1.
</event>
<event>
 5    1  0.1252945E-008  0.3728572E+03  0.7957747E-01  0.3482862E+00
         13   -1    0    0    0    0  0.00000000000E+00  0.00000000000E+00  0.14999999963E+04  0.15000000000E+04  0.10566000000E+00 0.  1.
        994   -1    0    0    0    0 -0.00000000000E+00 -0.00000000000E+00  0.11368683772E-12  0.17120000000E+03  0.17120000000E+03 0.  0.
         13    1    1    2    0    0 -0.43570755003E+02  0.48424983092E+02  0.22361738059E+03  0.23291228766E+03  0.10566000000E+00 0.  1.
        994    1    1    2    0    0  0.56954000720E+02 -0.43124080384E+02  0.25464370065E+02  0.18724667861E+03  0.17120000000E+03 0.  0.
        998    1    1    2    0    0 -0.13383245717E+02 -0.53009027079E+01  0.12509182456E+04  0.12510410337E+04  0.10000000000E+02 0.  1.
</event>
<event>
 5    1  0.1252945E-008  0.3710970E+03  0.7957747E-01  0.3490864E+00
         13   -1    0    0    0    0  0.00000000000E+00  0.00000000000E+00  0.14999999963E+04  0.15000000000E+04  0.10566000000E+00 0. -1.
        994   -1    0    0    0    0 -0.00000000000E+00 -0.00000000000E+00  0.11368683772E-12  0.17120000000E+03  0.17120000000E+03 0.  0.
         13    1    1    2    0    0  0.35944019705E+02 -0.19564658909E+02  0.65799310261E+02  0.77487475282E+02  0.10566000000E+00 0. -1.
        994    1    1    2    0    0 -0.32221044582E+02  0.25389780121E+02  0.17449197367E+02  0.17690887806E+03  0.17120000000E+03 0.  0.
        998    1    1    2    0    0 -0.37229751237E+01 -0.58251212120E+01  0.14167514887E+04  0.14168036467E+04  0.10000000000E+02 0. -1.
</event>
<event>
 5    1  0.1252945E-008  0.3848052E+03  0.7957747E-01  0.3430499E+00
         13   -1    0    0    0    0  0.00000000000E+00  0.00000000000E+00  0.14999999963E+04  0.15000000000E+04  0.10566000000E+00 0.  1.
        994   -1    0    0    0    0 -0.00000000000E+00 -0.00000000000E+00  0.11368683772E-12  0.17120000000E+03  0.17120000000E+03 0.  0.
         13    1    1    2    0    0  0.98630421474E+01  0.46326164213E+01  0.34632719545E+02  0.36306709606E+02  0.10566000000E+00 0.  1.
        994    1    1    2    0    0 -0.30327961552E+01 -0.32255527145E+01  0.17913705976E+01  0.17126660810E+03  0.17120000000E+03 0.  0.
        998    1    1    2    0    0 -0.68302459922E+01 -0.14070637068E+01  0.14635759061E+04  0.14636266823E+04  0.10000000000E+02 0.  1.
</event>
<event>
 5    1  0.1252945E-008  0.3839225E+03  0.7957747E-01  0.3434255E+00
         13   -1    0    0    0    0  0.00000000000E+00  0.00000000000E+00  0.14999999963E+04  0.15000000000E+04  0.10566000000E+00 0. -1.
        994   -1    0    0    0    0 -0.00000000000E+00 -0.00000000000E+00  0.11368683772E-12  0.17120000000E+03  0.17120000000E+03 0.  0.
         13    1    1    2    0    0 -0.54822653577E+01  0.13989198313E+02  0.44467230529E+02  0.46937177779E+02  0.10566000000E+00 0. -1.
        994    1    1    2    0    0  0.12576336141E+02 -0.40710599175E+02  0.81807484938E+01  0.17661223559E+03  0.17120000000E+03 0.  0.
        998    1    1    2    0    0 -0.70940707832E+01  0.26721400862E+02  0.14473520173E+04  0.14476505866E+04  0.10000000000E+02 0. -1.
</event>
<event>
 5    1  0.1252945E-008  0.2941822E+03  0.7957747E-01  0.3938449E+00
         13   -1    0    0    0    0  0.00000000000E+00  0.00000000000E+00  0.14999999963E+04  0.15000000000E+04  0.10566000000E+00 0. -1.
        994   -1    0    0    0    0 -0.00000000000E+00 -0.00000000000E+00  0.11368683772E-12  0.17120000000E+03  0.17120000000E+03 0.  0.
         13    1    1    2    0    0  0.11788975537E+03 -0.92014270224E+02  0.82290152974E+03  0.83638003274E+03  0.10566000000E+00 0. -1.
        994    1    1    2    0    0 -0.31990591321E+02  0.85055415886E+01  0.30348900946E+02  0.17699219745E+03  0.17120000000E+03 0.  0.
        998    1    1    2    0    0 -0.85899164044E+02  0.83508728635E+02  0.64674956559E+03  0.65782776981E+03  0.10000000000E+02 0. -1.
</event>
<event>
 5    1  0.1252945E-008  0.3701367E+03  0.7957747E-01  0.3495263E+00
         13   -1    0    0    0    0  0.00000000000E+00  0.00000000000E+00  0.14999999963E+04  0.15000000000E+04  0.10566000000E+00 0.  1.
        994   -1    0    0    0    0 -0.00000000000E+00 -0.00000000000E+00  0.11368683772E-12  0.17120000000E+03  0.17120000000E+03 0.  0.
         13    1    1    2    0    0  0.21001714910E+02 -0.71199622026E+02  0.28452421475E+03  0.29404846224E+03  0.10566000000E+00 0.  1.
        994    1    1    2    0    0 -0.34096530789E+02  0.42001855856E+02  0.19381404897E+02  0.18058739758E+03  0.17120000000E+03 0.  0.
        998    1    1    2    0    0  0.13094815878E+02  0.29197766170E+02  0.11960943766E+04  0.11965641402E+04  0.10000000000E+02 0.  1.
</event>
<event>
 5    1  0.1252945E-008  0.3760987E+03  0.7957747E-01  0.3468323E+00
         13   -1    0    0    0    0  0.00000000000E+00  0.00000000000E+00  0.14999999963E+04  0.15000000000E+04  0.10566000000E+00 0. -1.
        994   -1    0    0    0    0 -0.00000000000E+00 -0.00000000000E+00  0.11368683772E-12  0.17120000000E+03  0.17120000000E+03 0.  0.
         13    1    1    2    0    0  0.12832247342E+02 -0.13393388394E+02  0.57817658731E+01  0.19429086576E+02  0.10566000000E+00 0. -1.
        994    1    1    2    0    0 -0.10014756524E+02  0.10163802032E+02  0.14928307929E+02  0.17244098294E+03  0.17120000000E+03 0.  0.
        998    1    1    2    0    0 -0.28174908185E+01  0.32295863617E+01  0.14792899225E+04  0.14793299305E+04  0.10000000000E+02 0. -1.
</event>
<event>
 5    1  0.1252945E-008  0.3822479E+03  0.7957747E-01  0.3441429E+00
         13   -1    0    0    0    0  0.00000000000E+00  0.00000000000E+00  0.14999999963E+04  0.15000000000E+04  0.10566000000E+00 0. -1.
        994   -1    0    0    0    0 -0.00000000000E+00 -0.00000000000E+00  0.11368683772E-12  0.17120000000E+03  0.17120000000E+03 0.  0.
         13    1    1    2    0    0  0.16042246558E+02 -0.49018779670E+01  0.46709989724E+02  0.49630800782E+02  0.10566000000E+00 0. -1.
        994    1    1    2    0    0 -0.64727744701E+01  0.13418053422E+01  0.31477155800E+01  0.17135648620E+03  0.17120000000E+03 0.  0.
        998    1    1    2    0    0 -0.95694720875E+01  0.35600726248E+01  0.14501422910E+04  0.14502127130E+04  0.10000000000E+02 0. -1.
</event>
<event>
 5    1  0.1252945E-008  0.3854110E+03  0.7957747E-01  0.3427931E+00
         13   -1    0    0    0    0  0.00000000000E+00  0.00000000000E+00  0.14999999963E+04  0.15000000000E+04  0.10566000000E+00 0.  1.
        994   -1    0    0    0    0 -0.00000000000E+00 -0.00000000000E+00  0.11368683772E-12  0.17120000000E+03  0.17120000000E+03 0.  0.
         13    1    1    2    0    0  0.12188757143E+02  0.64556745528E+01  0.62139334169E+02  0.63651783554E+02  0.10566000000E+00 0.  1.
        994    1    1    2    0    0 -0.20758113036E+02 -0.49522573624E+01  0.29233975119E+01  0.17254973301E+03  0.17120000000E+03 0.  0.
        998    1    1    2    0    0  0.85693558928E+01 -0.15034171903E+01  0.14349372646E+04  0.14349984834E+04  0.10000000000E+02 0.  1.
</event>
<event>
 5    1  0.1252945E-008  0.3736824E+03  0.7957747E-01  0.3479136E+00
         13   -1    0    0    0    0  0.00000000000E+00  0.00000000000E+00  0.14999999963E+04  0.15000000000E+04  0.10566000000E+00 0. -1.
        994   -1    0    0    0    0 -0.00000000000E+00 -0.00000000000E+00  0.11368683772E-12  0.17120000000E+03  0.17120000000E+03 0.  0.
         13    1    1    2    0    0 -0.38488269740E+02 -0.53393048001E+01  0.52298860950E+02  0.65153949259E+02  0.10566000000E+00 0. -1.
        994    1    1    2    0    0  0.35312018066E+02  0.92057758893E+01  0.17630490170E+02  0.17593168877E+03  0.17120000000E+03 0.  0.
        998    1    1    2    0    0  0.31762516740E+01 -0.38664710891E+01  0.14300706452E+04  0.14301143620E+04  0.10000000000E+02 0. -1.
</event>
<event>
 5    1  0.1252945E-008  0.3779968E+03  0.7957747E-01  0.3459927E+00
         13   -1    0    0    0    0  0.00000000000E+00  0.00000000000E+00  0.14999999963E+04  0.15000000000E+04  0.10566000000E+00 0. -1.
        994   -1    0    0    0    0 -0.00000000000E+00 -0.00000000000E+00  0.11368683772E-12  0.17120000000E+03  0.17120000000E+03 0.  0.
         13    1    1    2    0    0 -0.22382038554E+02 -0.80375704642E+01  0.55871361352E+02  0.60722140708E+02  0.10566000000E+00 0. -1.
        994    1    1    2    0    0  0.29434731983E+01 -0.60908936690E+01  0.53017932586E+01  0.17141561198E+03  0.17120000000E+03 0.  0.
        998    1    1    2    0    0  0.19438565356E+02  0.14128464133E+02  0.14388268417E+04  0.14390622473E+04  0.10000000000E+02 0. -1.
</event>
<event>
 5    1  0.1252945E-008  0.3764973E+03  0.7957747E-01  0.3466553E+00
         13   -1    0    0    0    0  0.00000000000E+00  0.00000000000E+00  0.14999999963E+04  0.15000000000E+04  0.10566000000E+00 0.  1.
        994   -1    0    0    0    0 -0.00000000000E+00 -0.00000000000E+00  0.11368683772E-12  0.17120000000E+03  0.17120000000E+03 0.  0.
         13    1    1    2    0    0 -0.77965057097E+01  0.50193347695E+02  0.17757531042E+03  0.18469748154E+03  0.10566000000E+00 0.  1.
        994    1    1    2    0    0  0.29933004404E+02 -0.60071551115E+02  0.21301989886E+02  0.18511561463E+03  0.17120000000E+03 0.  0.
        998    1    1    2    0    0 -0.22136498694E+02  0.98782034203E+01  0.13011226960E+04  0.13013869038E+04  0.10000000000E+02 0.  1.
</event>
<event>
 5    1  0.1252945E-008  0.4398990E+03  0.7957747E-01  0.3225710E+00
         13   -1    0    0    0    0  0.00000000000E+00  0.00000000000E+00  0.14999999963E+04  0.15000000000E+04  0.10566000000E+00 0. -1.
        994   -1    0    0    0    0 -0.00000000000E+00 -0.00000000000E+00  0.11368683772E-12  0.17120000000E+03  0.17120000000E+03 0.  0.
         13    1    1    2    0    0 -0.74672653619E+02 -0.11258899815E+03  0.14699687825E+03  0.19965064759E+03  0.10566000000E+00 0. -1.
        994    1    1    2    0    0  0.35984437407E+02  0.11516333479E+03  0.12710011844E+03  0.24499255810E+03  0.17120000000E+03 0.  0.
        998    1    1    2    0    0  0.38688216212E+02 -0.25743366311E+01  0.12259029996E+04  0.12265567943E+04  0.10000000000E+02 0. -1.
</event>
<event>
 5    1  0.1252945E-008  0.3830799E+03  0.7957747E-01  0.3437857E+00
         13   -1    0    0    0    0  0.00000000000E+00  0.00000000000E+00  0.14999999963E+04  0.15000000000E+04  0.10566000000E+00 0. -1.
        994   -1    0    0    0    0 -0.00000000000E+00 -0.00000000000E+00  0.11368683772E-12  0.17120000000E+03  0.17120000000E+03 0.  0.
         13    1    1    2    0    0  0.16101453902E+02  0.41877631590E+01  0.49546381259E+02  0.52265181889E+02  0.10566000000E+00 0. -1.
        994    1    1    2    0    0 -0.23985437487E+02 -0.65633455008E+01  0.46355050877E+01  0.17305867971E+03  0.17120000000E+03 0.  0.
        998    1    1    2    0    0  0.78839835851E+01  0.23755823417E+01  0.14458181099E+04  0.14458761384E+04  0.10000000000E+02 0. -1.
</event>
<event>
 5    1  0.1252945E-008  0.3859986E+03  0.7957747E-01  0.3425448E+00
         13   -1    0    0    0    0  0.00000000000E+00  0.00000000000E+00  0.14999999963E+04  0.15000000000E+04  0.10566000000E+00 0. -1.
        994   -1    0    0    0    0 -0.00000000000E+00 -0.00000000000E+00  0.11368683772E-12  0.17120000000E+03  0.17120000000E+03 0.  0.
         13    1    1    2    0    0 -0.37248030562E+01  0.11890668983E+02  0.67496651794E+02  0.68637244511E+02  0.10566000000E+00 0. -1.
        994    1    1    2    0    0 -0.21870664649E+01 -0.12799097707E+02  0.16880339842E+01  0.17169999890E+03  0.17120000000E+03 0.  0.
        998    1    1    2    0    0  0.59118695211E+01  0.90842872351E+00  0.14308153105E+04  0.14308627566E+04  0.10000000000E+02 0. -1.
</event>
<event>
 5    1  0.1252945E-008  0.3750825E+03  0.7957747E-01  0.3472854E+00
         13   -1    0    0    0    0  0.00000000000E+00  0.00000000000E+00  0.14999999963E+04  0.15000000000E+04  0.10566000000E+00 0.  1.
        994   -1    0    0    0    0 -0.00000000000E+00 -0.00000000000E+00  0.11368683772E-12  0.17120000000E+03  0.17120000000E+03 0.  0.
         13    1    1    2    0    0 -0.35203983565E+02  0.47871680442E+02  0.32751347566E+03  0.33286049053E+03  0.10566000000E+00 0.  1.
        994    1    1    2    0    0  0.16184448495E+02  0.17196168828E+01  0.75370381145E+01  0.17213698150E+03  0.17120000000E+03 0.  0.
        998    1    1    2    0    0  0.19019535069E+02 -0.49591297325E+02  0.11649494825E+04  0.11662025280E+04  0.10000000000E+02 0.  1.
</event>
<event>
 5    1  0.1252945E-008  0.3856278E+03  0.7957747E-01  0.3427014E+00
         13   -1    0    0    0    0  0.00000000000E+00  0.00000000000E+00  0.14999999963E+04  0.15000000000E+04  0.10566000000E+00 0.  1.
        994   -1    0    0    0    0 -0.00000000000E+00 -0.00000000000E+00  0.11368683772E-12  0.17120000000E+03  0.17120000000E+03 0.  0.
         13    1    1    2    0    0  0.43271764949E+01 -0.11278647212E+02  0.60169104621E+02  0.61369900231E+02  0.10566000000E+00 0.  1.
        994    1    1    2    0    0  0.63402196946E+01 -0.10017969514E+01  0.14539877915E+01  0.17132646049E+03  0.17120000000E+03 0.  0.
        998    1    1    2    0    0 -0.10667396190E+02  0.12280444164E+02  0.14383769039E+04  0.14385036393E+04  0.10000000000E+02 0.  1.
</event>
<event>
 5    1  0.1252945E-008  0.3827097E+03  0.7957747E-01  0.3439444E+00
         13   -1    0    0    0    0  0.00000000000E+00  0.00000000000E+00  0.14999999963E+04  0.15000000000E+04  0.10566000000E+00 0. -1.
        994   -1    0    0    0    0 -0.00000000000E+00 -0.00000000000E+00  0.11368683772E-12  0.17120000000E+03  0.17120000000E+03 0.  0.
         13    1    1    2    0    0  0.32486293127E+01  0.19097189710E+02  0.67593492951E+02  0.70314633616E+02  0.10566000000E+00 0. -1.
        994    1    1    2    0    0 -0.38675404405E+01 -0.97790358042E+01  0.31380029595E+01  0.17155137561E+03  0.17120000000E+03 0.  0.
        998    1    1    2    0    0  0.61891112783E+00 -0.93181539058E+01  0.14292685004E+04  0.14293339908E+04  0.10000000000E+02 0. -1.
</event>
<event>
 5    1  0.1252945E-008  0.3830980E+03  0.7957747E-01  0.3437779E+00
         13   -1    0    0    0    0  0.00000000000E+00  0.00000000000E+00  0.14999999963E+04  0.15000000000E+04  0.10566000000E+00 0. -1.
        994   -1    0    0    0    0 -0.00000000000E+00 -0.00000000000E+00  0.11368683772E-12  0.17120000000E+03  0.17120000000E+03 0.  0.
         13    1    1    2    0    0  0.20751660826E+01 -0.13816107625E+02  0.37311449067E+02  0.39841517789E+02  0.10566000000E+00 0. -1.
        994    1    1    2    0    0  0.40906119184E+00  0.78135843767E+01  0.27800147266E+01  0.17140124829E+03  0.17120000000E+03 0.  0.
        998    1    1    2    0    0 -0.24842272744E+01  0.60025232487E+01  0.14599085325E+04  0.14599572339E+04  0.10000000000E+02 0. -1.
</event>
<event>
 5    1  0.1252945E-008  0.3754299E+03  0.7957747E-01  0.3471303E+00
         13   -1    0    0    0    0  0.00000000000E+00  0.00000000000E+00  0.14999999963E+04  0.15000000000E+04  0.10566000000E+00 0. -1.
        994   -1    0    0    0    0 -0.00000000000E+00 -0.00000000000E+00  0.11368683772E-12  0.17120000000E+03  0.17120000000E+03 0.  0.
         13    1    1    2    0    0  0.11175456269E+02  0.24321158057E+01  0.71337443287E+01  0.13479891776E+02  0.10566000000E+00 0. -1.
        994    1    1    2    0    0 -0.85837095990E+01 -0.12387271526E+02  0.72294516153E+01  0.17201403878E+03  0.17120000000E+03 0.  0.
        998    1    1    2    0    0 -0.25917466705E+01  0.99551557205E+01  0.14856368003E+04  0.14857060694E+04  0.10000000000E+02 0. -1.
</event>
<event>
 5    1  0.1252945E-008  0.3829668E+03  0.7957747E-01  0.3438341E+00
         13   -1    0    0    0    0  0.00000000000E+00  0.00000000000E+00  0.14999999963E+04  0.15000000000E+04  0.10566000000E+00 0.  1.
        994   -1    0    0    0    0 -0.00000000000E+00 -0.00000000000E+00  0.11368683772E-12  0.17120000000E+03  0.17120000000E+03 0.  0.
         13    1    1    2    0    0  0.29567072324E+01 -0.15916624448E+02  0.48756356964E+02  0.51373870400E+02  0.10566000000E+00 0.  1.
        994    1    1    2    0    0 -0.19402172061E+00  0.10945593502E+02  0.30397846563E+01  0.17157658334E+03  0.17120000000E+03 0.  0.
        998    1    1    2    0    0 -0.27626855118E+01  0.49710309461E+01  0.14482038547E+04  0.14482495463E+04  0.10000000000E+02 0.  1.
</event>
<event>
 5    1  0.1252945E-008  0.3841183E+03  0.7957747E-01  0.3433420E+00
         13   -1    0    0    0    0  0.00000000000E+00  0.00000000000E+00  0.14999999963E+04  0.15000000000E+04  0.10566000000E+00 0.  1.
        994   -1    0    0    0    0 -0.00000000000E+00 -0.00000000000E+00  0.11368683772E-12  0.17120000000E+03  0.17120000000E+03 0.  0.
         13    1    1    2    0    0  0.94997326866E+01  0.77870439039E+01  0.35073125439E+02  0.37162054114E+02  0.10566000000E+00 0.  1.
        994    1    1    2    0    0 -0.13008143889E+02 -0.65715906836E+01  0.27693517094E+01  0.17184151687E+03  0.17120000000E+03 0.  0.
        998    1    1    2    0    0  0.35084112027E+01 -0.12154532203E+01  0.14621575191E+04  0.14621964290E+04  0.10000000000E+02 0.  1.
</event>
<event>
 5    1  0.1252945E-008  0.3825695E+03  0.7957747E-01  0.3440046E+00
         13   -1    0    0    0    0  0.00000000000E+00  0.00000000000E+00  0.14999999963E+04  0.15000000000E+04  0.10566000000E+00 0. -1.
        994   -1    0    0    0    0 -0.00000000000E+00 -0.00000000000E+00  0.11368683772E-12  0.17120000000E+03  0.17120000000E+03 0.  0.
         13    1    1    2    0    0  0.15520128823E+02  0.36584924114E+01  0.44574007736E+02  0.47340387569E+02  0.10566000000E+00 0. -1.
        994    1    1    2    0    0 -0.49679866620E+01 -0.69425881211E+01  0.30832959043E+01  0.17144044778E+03  0.17120000000E+03 0.  0.
        998    1    1    2    0    0 -0.10552142161E+02  0.32840957097E+01  0.14523426926E+04  0.14524191647E+04  0.10000000000E+02 0. -1.
</event>
<event>
 5    1  0.1252945E-008  0.3745447E+03  0.7957747E-01  0.3475262E+00
         13   -1    0    0    0    0  0.00000000000E+00  0.00000000000E+00  0.14999999963E+04  0.15000000000E+04  0.10566000000E+00 0.  1.
        994   -1    0    0    0    0 -0.00000000000E+00 -0.00000000000E+00  0.11368683772E-12  0.17120000000E+03  0.17120000000E+03 0.  0.
         13    1    1    2    0    0 -0.61330897143E+01  0.99891871929E+01 -0.93707877594E+00  0.11759588891E+02  0.10566000000E+00 0.  1.
        994    1    1    2    0    0 -0.21331592148E+02 -0.15047399232E+01  0.14988563302E+02  0.17318024742E+03  0.17120000000E+03 0.  0.
        998    1    1    2    0    0  0.27464681863E+02 -0.84844472697E+01  0.14859485118E+04  0.14862601637E+04  0.10000000000E+02 0.  1.
</event>
<event>
 5    1  0.1252945E-008  0.3741324E+03  0.7957747E-01  0.3477112E+00
         13   -1    0    0    0    0  0.00000000000E+00  0.00000000000E+00  0.14999999963E+04  0.15000000000E+04  0.10566000000E+00 0. -1.
        994   -1    0    0    0    0 -0.00000000000E+00 -0.00000000000E+00  0.11368683772E-12  0.17120000000E+03  0.17120000000E+03 0.  0.
         13    1    1    2    0    0 -0.11814110574E+02  0.39491426868E+01  0.75903211301E+01  0.14587428681E+02  0.10566000000E+00 0. -1.
        994    1    1    2    0    0  0.13905852845E+02  0.25851021990E+01  0.78072367955E+01  0.17196060143E+03  0.17120000000E+03 0.  0.
        998    1    1    2    0    0 -0.20917422715E+01 -0.65342448859E+01  0.14846024384E+04  0.14846519699E+04  0.10000000000E+02 0. -1.
</event>
<event>
 5    1  0.1252945E-008  0.3784116E+03  0.7957747E-01  0.3458104E+00
         13   -1    0    0    0    0  0.00000000000E+00  0.00000000000E+00  0.14999999963E+04  0.15000000000E+04  0.10566000000E+00 0.  1.
        994   -1    0    0    0    0 -0.00000000000E+00 -0.00000000000E+00  0.11368683772E-12  0.17120000000E+03  0.17120000000E+03 0.  0.
         13    1    1    2    0    0 -0.18158286343E+02 -0.68992650818E+01  0.36541208179E+02  0.41383502520E+02  0.10566000000E+00 0.  1.
        994    1    1    2    0    0  0.10497328024E+02  0.19307462521E+01  0.53200422677E+01  0.17161487268E+03  0.17120000000E+03 0.  0.
        998    1    1    2    0    0  0.76609583184E+01  0.49685188297E+01  0.14581387458E+04  0.14582016248E+04  0.10000000000E+02 0.  1.
</event>
<event>
 5    1  0.1252945E-008  0.3767273E+03  0.7957747E-01  0.3465534E+00
         13   -1    0    0    0    0  0.00000000000E+00  0.00000000000E+00  0.14999999963E+04  0.15000000000E+04  0.10566000000E+00 0.  1.
        994   -1    0    0    0    0 -0.00000000000E+00 -0.00000000000E+00  0.11368683772E-12  0.17120000000E+03  0.17120000000E+03 0.  0.
         13    1    1    2    0    0  0.45845068614E+01  0.12687393883E+02  0.13065682012E+02  0.18780598425E+02  0.10566000000E+00 0.  1.
        994    1    1    2    0    0 -0.99353442491E+01 -0.94957048824E+01  0.64329745134E+01  0.17187118036E+03  0.17120000000E+03 0.  0.
        998    1    1    2    0    0  0.53508373877E+01 -0.31916890007E+01  0.14805013398E+04  0.14805482212E+04  0.10000000000E+02 0.  1.
</event>
<event>
 5    1  0.1252945E-008  0.3841983E+03  0.7957747E-01  0.3433079E+00
         13   -1    0    0    0    0  0.00000000000E+00  0.00000000000E+00  0.14999999963E+04  0.15000000000E+04  0.10566000000E+00 0. -1.
        994   -1    0    0    0    0 -0.00000000000E+00 -0.00000000000E+00  0.11368683772E-12  0.17120000000E+03  0.17120000000E+03 0.  0.
         13    1    1    2    0    0  0.16901070456E+02 -0.15415969020E+01  0.73987147387E+02  0.75908707314E+02  0.10566000000E+00 0. -1.
        994    1    1    2    0    0 -0.35999364346E+01 -0.12873319359E+01  0.20768782223E+01  0.17125527784E+03  0.17120000000E+03 0.  0.
        998    1    1    2    0    0 -0.13301134022E+02  0.28289288378E+01  0.14239359707E+04  0.14240360148E+04  0.10000000000E+02 0. -1.
</event>
<event>
 5    1  0.1252945E-008  0.3702870E+03  0.7957747E-01  0.3494573E+00
         13   -1    0    0    0    0  0.00000000000E+00  0.00000000000E+00  0.14999999963E+04  0.15000000000E+04  0.10566000000E+00 0. -1.
        994   -1    0    0    0    0 -0.00000000000E+00 -0.00000000000E+00  0.11368683772E-12  0.17120000000E+03  0.17120000000E+03 0.  0.
         13    1    1    2    0    0 -0.47264666898E+02 -0.11082620429E+02  0.12688874844E+03  0.13585852516E+03  0.10566000000E+00 0. -1.
        994    1    1    2    0    0  0.32151761605E+02 -0.12940718959E+02  0.13279706213E+02  0.17517702069E+03  0.17120000000E+03 0.  0.
        998    1    1    2    0    0  0.15112905293E+02  0.24023339388E+02  0.13598315416E+04  0.13601644541E+04  0.10000000000E+02 0. -1.
</event>
<event>
 5    1  0.1252945E-008  0.3769880E+03  0.7957747E-01  0.3464379E+00
         13   -1    0    0    0    0  0.00000000000E+00  0.00000000000E+00  0.14999999963E+04  0.15000000000E+04  0.10566000000E+00 0. -1.
        994   -1    0    0    0    0 -0.00000000000E+00 -0.00000000000E+00  0.11368683772E-12  0.17120000000E+03  0.17120000000E+03 0.  0.
         13    1    1    2    0    0 -0.84078773857E+01 -0.13884242165E+02  0.21160901211E+02  0.26669448564E+02  0.10566000000E+00 0. -1.
        994    1    1    2    0    0 -0.26840653130E+01  0.83752606933E+01  0.59225875656E+01  0.17152803340E+03  0.17120000000E+03 0.  0.
        998    1    1    2    0    0  0.11091942699E+02  0.55089814718E+01  0.14729165075E+04  0.14730025180E+04  0.10000000000E+02 0. -1.
</event>
<event>
 5    1  0.1343804E-008  0.3859220E+03  0.7957747E-01  0.3425771E+00
         13   -1    0    0    0    0  0.00000000000E+00  0.00000000000E+00  0.14999999963E+04  0.15000000000E+04  0.10566000000E+00 0.  1.
        994   -1    0    0    0    0 -0.00000000000E+00 -0.00000000000E+00  0.11368683772E-12  0.17120000000E+03  0.17120000000E+03 0.  0.
         13    1    1    2    0    0  0.10142225725E+02  0.37392686382E+01  0.51870534415E+02  0.52985001435E+02  0.10566000000E+00 0.  1.
        994    1    1    2    0    0 -0.37259493860E+01  0.21566401605E+01  0.12338229013E+01  0.17125856508E+03  0.17120000000E+03 0.  0.
        998    1    1    2    0    0 -0.64162763388E+01 -0.58959087987E+01  0.14468956390E+04  0.14469564335E+04  0.10000000000E+02 0.  1.
</event>
<event>
 5    1  0.1421108E-008  0.3862077E+03  0.7957747E-01  0.3424566E+00
         13   -1    0    0    0    0  0.00000000000E+00  0.00000000000E+00  0.14999999963E+04  0.15000000000E+04  0.10566000000E+00 0.  1.
        994   -1    0    0    0    0 -0.00000000000E+00 -0.00000000000E+00  0.11368683772E-12  0.17120000000E+03  0.17120000000E+03 0.  0.
         13    1    1    2    0    0  0.16992230741E+01  0.11313259982E+02  0.66355055756E+02  0.67334105763E+02  0.10566000000E+00 0.  1.
        994    1    1    2    0    0 -0.59049638400E+01 -0.31160304773E+01  0.11777699486E+01  0.17133419211E+03  0.17120000000E+03 0.  0.
        998    1    1    2    0    0  0.42057407659E+01 -0.81972295048E+01  0.14324671706E+04  0.14325317021E+04  0.10000000000E+02 0.  1.
</event>
<event>
 5    1  0.1252945E-008  0.3813213E+03  0.7957747E-01  0.3445425E+00
         13   -1    0    0    0    0  0.00000000000E+00  0.00000000000E+00  0.14999999963E+04  0.15000000000E+04  0.10566000000E+00 0.  1.
        994   -1    0    0    0    0 -0.00000000000E+00 -0.00000000000E+00  0.11368683772E-12  0.17120000000E+03  0.17120000000E+03 0.  0.
         13    1    1    2    0    0 -0.25528917421E+02  0.32825231874E+02  0.22516410606E+03  0.22897184826E+03  0.10566000000E+00 0.  1.
        994    1    1    2    0    0  0.41907786530E+01 -0.42840947769E+02  0.96595092894E+01  0.17679269089E+03  0.17120000000E+03 0.  0.
        998    1    1    2    0    0  0.21338138768E+02  0.10015715895E+02  0.12651763809E+04  0.12654354609E+04  0.10000000000E+02 0.  1.
</event>
<event>
 5    1  0.1252945E-008  0.3824252E+03  0.7957747E-01  0.3440666E+00
         13   -1    0    0    0    0  0.00000000000E+00  0.00000000000E+00  0.14999999963E+04  0.15000000000E+04  0.10566000000E+00 0. -1.
        994   -1    0    0    0    0 -0.00000000000E+00 -0.00000000000E+00  0.11368683772E-12  0.17120000000E+03  0.17120000000E+03 0.  0.
         13    1    1    2    0    0  0.16870401643E+02 -0.10478640888E+02  0.69959583598E+02  0.72723908501E+02  0.10566000000E+00 0. -1.
        994    1    1    2    0    0 -0.15992492429E+01  0.40466217712E+01  0.29767098070E+01  0.17128115351E+03  0.17120000000E+03 0.  0.
        998    1    1    2    0    0 -0.15271152401E+02  0.64320191168E+01  0.14270637029E+04  0.14271949380E+04  0.10000000000E+02 0. -1.
</event>
<event>
 5    1  0.1252945E-008  0.2782009E+03  0.7957747E-01  0.4065087E+00
         13   -1    0    0    0    0  0.00000000000E+00  0.00000000000E+00  0.14999999963E+04  0.15000000000E+04  0.10566000000E+00 0. -1.
        994   -1    0    0    0    0 -0.00000000000E+00 -0.00000000000E+00  0.11368683772E-12  0.17120000000E+03  0.17120000000E+03 0.  0.
         13    1    1    2    0    0  0.84367420261E+02 -0.76556064680E+02  0.68476003767E+03  0.69417217821E+03  0.10566000000E+00 0. -1.
        994    1    1    2    0    0  0.10460815989E+02  0.30611092612E+02  0.20684158068E+02  0.17545296252E+03  0.17120000000E+03 0.  0.
        998    1    1    2    0    0 -0.94828236251E+02  0.45944972068E+02  0.79455580054E+03  0.80157485927E+03  0.10000000000E+02 0.  1.
</event>
<event>
 5    1  0.1252945E-008  0.3808446E+03  0.7957747E-01  0.3447489E+00
         13   -1    0    0    0    0  0.00000000000E+00  0.00000000000E+00  0.14999999963E+04  0.15000000000E+04  0.10566000000E+00 0.  1.
        994   -1    0    0    0    0 -0.00000000000E+00 -0.00000000000E+00  0.11368683772E-12  0.17120000000E+03  0.17120000000E+03 0.  0.
         13    1    1    2    0    0 -0.44665700717E+02 -0.14958800960E+02  0.26074106031E+03  0.26496169958E+03  0.10566000000E+00 0.  1.
        994    1    1    2    0    0  0.39039973623E+02  0.15711651511E+02  0.96338084576E+01  0.17655941153E+03  0.17120000000E+03 0.  0.
        998    1    1    2    0    0  0.56257270934E+01 -0.75285055090E+00  0.12296251275E+04  0.12296788889E+04  0.10000000000E+02 0.  0.
</event>
<event>
 5    1  0.1252945E-008  0.3736033E+03  0.7957747E-01  0.3479493E+00
         13   -1    0    0    0    0  0.00000000000E+00  0.00000000000E+00  0.14999999963E+04  0.15000000000E+04  0.10566000000E+00 0.  1.
        994   -1    0    0    0    0 -0.00000000000E+00 -0.00000000000E+00  0.11368683772E-12  0.17120000000E+03  0.17120000000E+03 0.  0.
         13    1    1    2    0    0  0.17905084961E+02 -0.31418090733E+02  0.11756140262E+03  0.12299749202E+03  0.10566000000E+00 0.  1.
        994    1    1    2    0    0  0.35569576849E+02 -0.34325932385E+02  0.15789203485E+02  0.17889159672E+03  0.17120000000E+03 0.  0.
        998    1    1    2    0    0 -0.53474661810E+02  0.65744023118E+02  0.13666493902E+04  0.13693109113E+04  0.10000000000E+02 0.  1.
</event>
<event>
 5    1  0.1252945E-008  0.3835212E+03  0.7957747E-01  0.3435968E+00
         13   -1    0    0    0    0  0.00000000000E+00  0.00000000000E+00  0.14999999963E+04  0.15000000000E+04  0.10566000000E+00 0. -1.
        994   -1    0    0    0    0 -0.00000000000E+00 -0.00000000000E+00  0.11368683772E-12  0.17120000000E+03  0.17120000000E+03 0.  0.
         13    1    1    2    0    0  0.20246104568E+02  0.13239195774E+02  0.12935026962E+03  0.13159287393E+03  0.10566000000E+00 0. -1.
        994    1    1    2    0    0 -0.84444405048E+01 -0.21010409499E+01  0.26163659969E+01  0.17144097620E+03  0.17120000000E+03 0.  0.
        998    1    1    2    0    0 -0.11801664063E+02 -0.11138154824E+02  0.13680333607E+04  0.13681661499E+04  0.10000000000E+02 0. -1.
</event>
<event>
 5    1  0.1252945E-008  0.3756758E+03  0.7957747E-01  0.3470206E+00
         13   -1    0    0    0    0  0.00000000000E+00  0.00000000000E+00  0.14999999963E+04  0.15000000000E+04  0.10566000000E+00 0. -1.
        994   -1    0    0    0    0 -0.00000000000E+00 -0.00000000000E+00  0.11368683772E-12  0.17120000000E+03  0.17120000000E+03 0.  0.
         13    1    1    2    0    0  0.17710868161E+02 -0.26783888952E+02  0.77094608505E+02  0.83514318431E+02  0.10566000000E+00 0. -1.
        994    1    1    2    0    0 -0.92930402101E+01  0.26000037765E+02  0.89219349865E+01  0.17364159491E+03  0.17120000000E+03 0.  0.
        998    1    1    2    0    0 -0.84178279510E+01  0.78385118681E+00  0.14139834528E+04  0.14140440867E+04  0.10000000000E+02 0. -1.
</event>
<event>
 5    1  0.1252945E-008  0.3751379E+03  0.7957747E-01  0.3472606E+00
         13   -1    0    0    0    0  0.00000000000E+00  0.00000000000E+00  0.14999999963E+04  0.15000000000E+04  0.10566000000E+00 0. -1.
        994   -1    0    0    0    0 -0.00000000000E+00 -0.00000000000E+00  0.11368683772E-12  0.17120000000E+03  0.17120000000E+03 0.  0.
         13    1    1    2    0    0  0.92542046412E+01 -0.62151577001E+02  0.36895123355E+03  0.37426392123E+03  0.10566000000E+00 0. -1.
        994    1    1    2    0    0 -0.27739763303E+01  0.11261124575E+02  0.70650460570E+01  0.17173777321E+03  0.17120000000E+03 0.  0.
        998    1    1    2    0    0 -0.64802283109E+01  0.50890452426E+02  0.11239837167E+04  0.11251983056E+04  0.10000000000E+02 0.  1.
</event>
<event>
 5    1  0.1252945E-008  0.3010890E+03  0.7957747E-01  0.3888275E+00
         13   -1    0    0    0    0  0.00000000000E+00  0.00000000000E+00  0.14999999963E+04  0.15000000000E+04  0.10566000000E+00 0. -1.
        994   -1    0    0    0    0 -0.00000000000E+00 -0.00000000000E+00  0.11368683772E-12  0.17120000000E+03  0.17120000000E+03 0.  0.
         13    1    1    2    0    0 -0.13936068994E+03 -0.16010533250E+03  0.60755139706E+03  0.64356338509E+03  0.10566000000E+00 0. -1.
        994    1    1    2    0    0  0.13274064126E+03  0.14849425748E+03  0.18800499510E+03  0.32299526395E+03  0.17120000000E+03 0.  0.
        998    1    1    2    0    0  0.66200486744E+01  0.11611075013E+02  0.70444360412E+03  0.70464135096E+03  0.10000000000E+02 0. -1.
</event>
<event>
 5    1  0.1252945E-008  0.3850429E+03  0.7957747E-01  0.3429490E+00
         13   -1    0    0    0    0  0.00000000000E+00  0.00000000000E+00  0.14999999963E+04  0.15000000000E+04  0.10566000000E+00 0. -1.
        994   -1    0    0    0    0 -0.00000000000E+00 -0.00000000000E+00  0.11368683772E-12  0.17120000000E+03  0.17120000000E+03 0.  0.
         13    1    1    2    0    0  0.12039577822E+02 -0.26949502809E+01  0.46506077674E+02  0.48114868968E+02  0.10566000000E+00 0. -1.
        994    1    1    2    0    0 -0.10429716745E+02  0.47701222001E+01  0.20414760018E+01  0.17159586441E+03  0.17120000000E+03 0.  0.
        998    1    1    2    0    0 -0.16098610772E+01 -0.20751719191E+01  0.14514524426E+04  0.14514892666E+04  0.10000000000E+02 0. -1.
</event>
<event>
 5    1  0.1252945E-008  0.3860646E+03  0.7957747E-01  0.3425170E+00
         13   -1    0    0    0    0  0.00000000000E+00  0.00000000000E+00  0.14999999963E+04  0.15000000000E+04  0.10566000000E+00 0.  1.
        994   -1    0    0    0    0 -0.00000000000E+00 -0.00000000000E+00  0.11368683772E-12  0.17120000000E+03  0.17120000000E+03 0.  0.
         13    1    1    2    0    0  0.12791264971E+02  0.23907722099E+01  0.73490611975E+02  0.74633862716E+02  0.10566000000E+00 0.  1.
        994    1    1    2    0    0 -0.17233456327E+02  0.64586768147E+01  0.22133661537E+01  0.17220059673E+03  0.17120000000E+03 0.  0.
        998    1    1    2    0    0  0.44421913565E+01 -0.88494490247E+01  0.14242960181E+04  0.14243655406E+04  0.10000000000E+02 0.  1.
</event>
<event>
 5    1  0.1252945E-008  0.3763911E+03  0.7957747E-01  0.3467025E+00
         13   -1    0    0    0    0  0.00000000000E+00  0.00000000000E+00  0.14999999963E+04  0.15000000000E+04  0.10566000000E+00 0. -1.
        994   -1    0    0    0    0 -0.00000000000E+00 -0.00000000000E+00  0.11368683772E-12  0.17120000000E+03  0.17120000000E+03 0.  0.
         13    1    1    2    0    0  0.59375371752E+01 -0.23660755571E+02  0.46749368410E+02  0.52731397787E+02  0.10566000000E+00 0. -1.
        994    1    1    2    0    0 -0.44288247188E+01  0.20868654547E+02  0.75074309164E+01  0.17268733813E+03  0.17120000000E+03 0.  0.
        998    1    1    2    0    0 -0.15087124563E+01  0.27921010241E+01  0.14457431970E+04  0.14457812641E+04  0.10000000000E+02 0. -1.
</event>
<event>
 5    1  0.1252945E-008  0.3795035E+03  0.7957747E-01  0.3453323E+00
         13   -1    0    0    0    0  0.00000000000E+00  0.00000000000E+00  0.14999999963E+04  0.15000000000E+04  0.10566000000E+00 0.  1.
        994   -1    0    0    0    0 -0.00000000000E+00 -0.00000000000E+00  0.11368683772E-12  0.17120000000E+03  0.17120000000E+03 0.  0.
         13    1    1    2    0    0 -0.87907138330E+01  0.95929176968E+01  0.18009758147E+02  0.22218534429E+02  0.10566000000E+00 0.  1.
        994    1    1    2    0    0  0.48555191305E+01  0.88302062134E+01  0.47241066128E+01  0.17156137616E+03  0.17120000000E+03 0.  0.
        998    1    1    2    0    0  0.39351947025E+01 -0.18423123910E+02  0.14772661315E+04  0.14774200894E+04  0.10000000000E+02 0.  1.
</event>
<event>
 5    1  0.1252945E-008  0.3773745E+03  0.7957747E-01  0.3462671E+00
         13   -1    0    0    0    0  0.00000000000E+00  0.00000000000E+00  0.14999999963E+04  0.15000000000E+04  0.10566000000E+00 0.  1.
        994   -1    0    0    0    0 -0.00000000000E+00 -0.00000000000E+00  0.11368683772E-12  0.17120000000E+03  0.17120000000E+03 0.  0.
         13    1    1    2    0    0  0.97846094706E+02  0.35274899924E+02  0.60127236106E+03  0.61020213058E+03  0.10566000000E+00 0.  1.
        994    1    1    2    0    0 -0.88600197358E+02 -0.57249606340E+02  0.43958744856E+02  0.20583810057E+03  0.17120000000E+03 0.  0.
        998    1    1    2    0    0 -0.92458973487E+01  0.21974706416E+02  0.85476889036E+03  0.85515976885E+03  0.10000000000E+02 0. -1.
</event>
<event>
 5    1  0.1252945E-008  0.3844666E+03  0.7957747E-01  0.3431938E+00
         13   -1    0    0    0    0  0.00000000000E+00  0.00000000000E+00  0.14999999963E+04  0.15000000000E+04  0.10566000000E+00 0. -1.
        994   -1    0    0    0    0 -0.00000000000E+00 -0.00000000000E+00  0.11368683772E-12  0.17120000000E+03  0.17120000000E+03 0.  0.
         13    1    1    2    0    0 -0.13558002867E+02 -0.16547930738E+02  0.98985525473E+02  0.10127091819E+03  0.10566000000E+00 0. -1.
        994    1    1    2    0    0  0.20288418007E+02  0.36973390165E+02  0.77768173623E+01  0.17648957582E+03  0.17120000000E+03 0.  0.
        998    1    1    2    0    0 -0.67304151402E+01 -0.20425459427E+02  0.13932376534E+04  0.13934395060E+04  0.10000000000E+02 0. -1.
</event>
<event>
 5    1  0.1252945E-008  0.3776379E+03  0.7957747E-01  0.3461509E+00
         13   -1    0    0    0    0  0.00000000000E+00  0.00000000000E+00  0.14999999963E+04  0.15000000000E+04  0.10566000000E+00 0. -1.
        994   -1    0    0    0    0 -0.00000000000E+00 -0.00000000000E+00  0.11368683772E-12  0.17120000000E+03  0.17120000000E+03 0.  0.
         13    1    1    2    0    0 -0.11542405407E+03  0.15036844596E+03  0.92289485491E+03  0.94216150748E+03  0.10566000000E+00 0. -1.
        994    1    1    2    0    0  0.12267408767E+03 -0.14949905899E+03  0.14390932055E+03  0.29566574534E+03  0.17120000000E+03 0.  0.
        998    1    1    2    0    0 -0.72500336012E+01 -0.86938697119E+00  0.43319582082E+03  0.43337274718E+03  0.10000000000E+02 0. -1.
</event>
<event>
 5    1  0.1252945E-008  0.3829613E+03  0.7957747E-01  0.3438365E+00
         13   -1    0    0    0    0  0.00000000000E+00  0.00000000000E+00  0.14999999963E+04  0.15000000000E+04  0.10566000000E+00 0.  1.
        994   -1    0    0    0    0 -0.00000000000E+00 -0.00000000000E+00  0.11368683772E-12  0.17120000000E+03  0.17120000000E+03 0.  0.
         13    1    1    2    0    0  0.14247333984E+02 -0.14364256377E+02  0.91588723327E+02  0.93796715250E+02  0.10566000000E+00 0.  1.
        994    1    1    2    0    0  0.22112474891E+02 -0.34720011662E+00  0.42665063527E+01  0.17267520138E+03  0.17120000000E+03 0.  0.
        998    1    1    2    0    0 -0.36359808875E+02  0.14711456494E+02  0.14041447666E+04  0.14047280834E+04  0.10000000000E+02 0.  1.
</event>
<event>
 5    1  0.1252945E-008  0.3849041E+03  0.7957747E-01  0.3430079E+00
         13   -1    0    0    0    0  0.00000000000E+00  0.00000000000E+00  0.14999999963E+04  0.15000000000E+04  0.10566000000E+00 0.  1.
        994   -1    0    0    0    0 -0.00000000000E+00 -0.00000000000E+00  0.11368683772E-12  0.17120000000E+03  0.17120000000E+03 0.  0.
         13    1    1    2    0    0 -0.14050393072E+01  0.10486318131E+02  0.34982769340E+02  0.36547808664E+02  0.10566000000E+00 0.  1.
        994    1    1    2    0    0  0.39443590720E+01  0.49780461108E+01  0.18104636399E+01  0.17132733784E+03  0.17120000000E+03 0.  0.
        998    1    1    2    0    0 -0.25393197648E+01 -0.15464364242E+02  0.14632067633E+04  0.14633248535E+04  0.10000000000E+02 0.  1.
</event>
<event>
 5    1  0.1252945E-008  0.2867680E+03  0.7957747E-01  0.3995260E+00
         13   -1    0    0    0    0  0.00000000000E+00  0.00000000000E+00  0.14999999963E+04  0.15000000000E+04  0.10566000000E+00 0.  1.
        994   -1    0    0    0    0 -0.00000000000E+00 -0.00000000000E+00  0.11368683772E-12  0.17120000000E+03  0.17120000000E+03 0.  0.
         13    1    1    2    0    0  0.15910783711E+03  0.34254439224E+02  0.59483523471E+03  0.61669898497E+03  0.10566000000E+00 0.  1.
        994    1    1    2    0    0 -0.14879055517E+03 -0.29621289645E+02  0.10076256551E+03  0.24995716576E+03  0.17120000000E+03 0.  0.
        998    1    1    2    0    0 -0.10317281944E+02 -0.46331495792E+01  0.80440219606E+03  0.80454384927E+03  0.10000000000E+02 0.  1.
</event>
<event>
 5    1  0.1252945E-008  0.3809915E+03  0.7957747E-01  0.3446853E+00
         13   -1    0    0    0    0  0.00000000000E+00  0.00000000000E+00  0.14999999963E+04  0.15000000000E+04  0.10566000000E+00 0. -1.
        994   -1    0    0    0    0 -0.00000000000E+00 -0.00000000000E+00  0.11368683772E-12  0.17120000000E+03  0.17120000000E+03 0.  0.
         13    1    1    2    0    0  0.29793171456E+01  0.13737054636E+02  0.26352935550E+02  0.29867563959E+02  0.10566000000E+00 0. -1.
        994    1    1    2    0    0  0.54026298484E+01 -0.34022531407E+01  0.37693422684E+01  0.17136047291E+03  0.17120000000E+03 0.  0.
        998    1    1    2    0    0 -0.83819469940E+01 -0.10334801495E+02  0.14698777185E+04  0.14699719631E+04  0.10000000000E+02 0. -1.
</event>
<event>
 5    1  0.1252945E-008  0.3759909E+03  0.7957747E-01  0.3468803E+00
         13   -1    0    0    0    0  0.00000000000E+00  0.00000000000E+00  0.14999999963E+04  0.15000000000E+04  0.10566000000E+00 0. -1.
        994   -1    0    0    0    0 -0.00000000000E+00 -0.00000000000E+00  0.11368683772E-12  0.17120000000E+03  0.17120000000E+03 0.  0.
         13    1    1    2    0    0 -0.11578269642E+03 -0.84319373047E+02  0.82922419496E+03  0.84150351522E+03  0.10566000000E+00 0. -1.
        994    1    1    2    0    0  0.10607904930E+03  0.80114295464E+02  0.68602527247E+02  0.22734733731E+03  0.17120000000E+03 0.  0.
        998    1    1    2    0    0  0.97036471205E+01  0.42050775830E+01  0.60217327407E+03  0.60234914746E+03  0.10000000000E+02 0. -1.
</event>
<event>
 5    1  0.1252945E-008  0.3751748E+03  0.7957747E-01  0.3472442E+00
         13   -1    0    0    0    0  0.00000000000E+00  0.00000000000E+00  0.14999999963E+04  0.15000000000E+04  0.10566000000E+00 0.  1.
        994   -1    0    0    0    0 -0.00000000000E+00 -0.00000000000E+00  0.11368683772E-12  0.17120000000E+03  0.17120000000E+03 0.  0.
         13    1    1    2    0    0  0.13747037459E+03  0.10366643427E+03  0.94241851499E+03  0.95801748525E+03  0.10566000000E+00 0.  1.
        994    1    1    2    0    0 -0.12971841751E+03 -0.92948669771E+02  0.98702178892E+02  0.25400370700E+03  0.17120000000E+03 0.  0.
        998    1    1    2    0    0 -0.77519570802E+01 -0.10717764502E+02  0.45887930240E+03  0.45917880775E+03  0.10000000000E+02 0.  0.
</event>
<event>
 5    1  0.1252945E-008  0.3841210E+03  0.7957747E-01  0.3433409E+00
         13   -1    0    0    0    0  0.00000000000E+00  0.00000000000E+00  0.14999999963E+04  0.15000000000E+04  0.10566000000E+00 0. -1.
        994   -1    0    0    0    0 -0.00000000000E+00 -0.00000000000E+00  0.11368683772E-12  0.17120000000E+03  0.17120000000E+03 0.  0.
         13    1    1    2    0    0  0.31893877112E+01 -0.14026658727E+02  0.48748311786E+02  0.50826453890E+02  0.10566000000E+00 0. -1.
        994    1    1    2    0    0 -0.79446376810E+01  0.11700650046E+02  0.27271592133E+01  0.17180483077E+03  0.17120000000E+03 0.  0.
        998    1    1    2    0    0  0.47552499697E+01  0.23260086814E+01  0.14485245253E+04  0.14485687153E+04  0.10000000000E+02 0. -1.
</event>
<event>
 5    1  0.1252945E-008  0.3732662E+03  0.7957747E-01  0.3481014E+00
         13   -1    0    0    0    0  0.00000000000E+00  0.00000000000E+00  0.14999999963E+04  0.15000000000E+04  0.10566000000E+00 0.  1.
        994   -1    0    0    0    0 -0.00000000000E+00 -0.00000000000E+00  0.11368683772E-12  0.17120000000E+03  0.17120000000E+03 0.  0.
         13    1    1    2    0    0  0.76901615709E+01 -0.43876427090E+02  0.10323254223E+03  0.11243330635E+03  0.10566000000E+00 0.  1.
        994    1    1    2    0    0  0.88248859852E+01 -0.68753328351E+02  0.29869306568E+02  0.18710027859E+03  0.17120000000E+03 0.  0.
        998    1    1    2    0    0 -0.16515047556E+02  0.11262975544E+03  0.13668981475E+04  0.13716664151E+04  0.10000000000E+02 0.  1.
</event>
<event>
 5    1  0.1252945E-008  0.3849103E+03  0.7957747E-01  0.3430053E+00
         13   -1    0    0    0    0  0.00000000000E+00  0.00000000000E+00  0.14999999963E+04  0.15000000000E+04  0.10566000000E+00 0.  1.
        994   -1    0    0    0    0 -0.00000000000E+00 -0.00000000000E+00  0.11368683772E-12  0.17120000000E+03  0.17120000000E+03 0.  0.
         13    1    1    2    0    0  0.76641682625E+01 -0.16404519116E+02  0.92294348478E+02  0.94053738084E+02  0.10566000000E+00 0.  1.
        994    1    1    2    0    0 -0.44672248125E+01  0.19552407167E+02  0.29990327199E+01  0.17239688779E+03  0.17120000000E+03 0.  0.
        998    1    1    2    0    0 -0.31969434500E+01 -0.31478880511E+01  0.14047066151E+04  0.14047493741E+04  0.10000000000E+02 0.  1.
</event>
<event>
 5    1  0.1252945E-008  0.3855173E+03  0.7957747E-01  0.3427481E+00
         13   -1    0    0    0    0  0.00000000000E+00  0.00000000000E+00  0.14999999963E+04  0.15000000000E+04  0.10566000000E+00 0.  1.
        994   -1    0    0    0    0 -0.00000000000E+00 -0.00000000000E+00  0.11368683772E-12  0.17120000000E+03  0.17120000000E+03 0.  0.
         13    1    1    2    0    0  0.12224461807E+02  0.64713979040E+01  0.75627549594E+02  0.76882077748E+02  0.10566000000E+00 0.  1.
        994    1    1    2    0    0  0.42065764860E+01 -0.56698962421E+01  0.15371615198E+01  0.17135240259E+03  0.17120000000E+03 0.  0.
        998    1    1    2    0    0 -0.16431038293E+02 -0.80150166188E+00  0.14228352852E+04  0.14229655197E+04  0.10000000000E+02 0.  1.
</event>
<event>
 5    1  0.1252945E-008  0.3820297E+03  0.7957747E-01  0.3442368E+00
         13   -1    0    0    0    0  0.00000000000E+00  0.00000000000E+00  0.14999999963E+04  0.15000000000E+04  0.10566000000E+00 0.  1.
        994   -1    0    0    0    0 -0.00000000000E+00 -0.00000000000E+00  0.11368683772E-12  0.17120000000E+03  0.17120000000E+03 0.  0.
         13    1    1    2    0    0  0.14320834872E+02  0.12028043233E+01  0.31555249150E+02  0.34673880121E+02  0.10566000000E+00 0.  1.
        994    1    1    2    0    0 -0.13838728716E+02 -0.53638162362E+01  0.38438813529E+01  0.17188512548E+03  0.17120000000E+03 0.  0.
        998    1    1    2    0    0 -0.48210615557E+00  0.41610119129E+01  0.14646008658E+04  0.14646409944E+04  0.10000000000E+02 0.  1.
</event>
<event>
 5    1  0.1252945E-008  0.3852142E+03  0.7957747E-01  0.3428764E+00
         13   -1    0    0    0    0  0.00000000000E+00  0.00000000000E+00  0.14999999963E+04  0.15000000000E+04  0.10566000000E+00 0. -1.
        994   -1    0    0    0    0 -0.00000000000E+00 -0.00000000000E+00  0.11368683772E-12  0.17120000000E+03  0.17120000000E+03 0.  0.
         13    1    1    2    0    0 -0.85774766105E+01 -0.66731716344E+01  0.39240614488E+02  0.40717825508E+02  0.10566000000E+00 0. -1.
        994    1    1    2    0    0  0.21406789240E+01  0.49183113760E+01  0.16183820819E+01  0.17129165611E+03  0.17120000000E+03 0.  0.
        998    1    1    2    0    0  0.64367976865E+01  0.17548602584E+01  0.14591409997E+04  0.14591905184E+04  0.10000000000E+02 0. -1.
</event>
<event>
 5    1  0.1252945E-008  0.3829883E+03  0.7957747E-01  0.3438249E+00
         13   -1    0    0    0    0  0.00000000000E+00  0.00000000000E+00  0.14999999963E+04  0.15000000000E+04  0.10566000000E+00 0. -1.
        994   -1    0    0    0    0 -0.00000000000E+00 -0.00000000000E+00  0.11368683772E-12  0.17120000000E+03  0.17120000000E+03 0.  0.
         13    1    1    2    0    0  0.37211268960E+01 -0.14014202242E+02  0.39763023059E+02  0.42324387966E+02  0.10566000000E+00 0. -1.
        994    1    1    2    0    0 -0.59099309513E+01  0.42575874447E+01  0.28078492494E+01  0.17137788175E+03  0.17120000000E+03 0.  0.
        998    1    1    2    0    0  0.21888040553E+01  0.97566147973E+01  0.14574291240E+04  0.14574977303E+04  0.10000000000E+02 0. -1.
</event>
<event>
 5    1  0.1252945E-008  0.3744684E+03  0.7957747E-01  0.3475604E+00
         13   -1    0    0    0    0  0.00000000000E+00  0.00000000000E+00  0.14999999963E+04  0.15000000000E+04  0.10566000000E+00 0. -1.
        994   -1    0    0    0    0 -0.00000000000E+00 -0.00000000000E+00  0.11368683772E-12  0.17120000000E+03  0.17120000000E+03 0.  0.
         13    1    1    2    0    0  0.31979307400E+02  0.14811746519E+02  0.83787891787E+02  0.90898217314E+02  0.10566000000E+00 0. -1.
        994    1    1    2    0    0 -0.30172110545E+02 -0.91532131606E+01  0.10344764316E+02  0.17438632892E+03  0.17120000000E+03 0.  0.
        998    1    1    2    0    0 -0.18071968544E+01 -0.56585333588E+01  0.14058673402E+04  0.14059154538E+04  0.10000000000E+02 0. -1.
</event>
<event>
 5    1  0.1252945E-008  0.3825386E+03  0.7957747E-01  0.3440179E+00
         13   -1    0    0    0    0  0.00000000000E+00  0.00000000000E+00  0.14999999963E+04  0.15000000000E+04  0.10566000000E+00 0. -1.
        994   -1    0    0    0    0 -0.00000000000E+00 -0.00000000000E+00  0.11368683772E-12  0.17120000000E+03  0.17120000000E+03 0.  0.
         13    1    1    2    0    0  0.92211154334E+02  0.92104350289E+02  0.60422229138E+03  0.61811867541E+03  0.10566000000E+00 0. -1.
        994    1    1    2    0    0  0.16990663624E+02 -0.10464324587E+03  0.60096229227E+02  0.21014254287E+03  0.17120000000E+03 0.  0.
        998    1    1    2    0    0 -0.10920181796E+03  0.12538895580E+02  0.83568147567E+03  0.84293878172E+03  0.10000000000E+02 0. -1.
</event>
<event>
 5    1  0.1252945E-008  0.3854253E+03  0.7957747E-01  0.3427871E+00
         13   -1    0    0    0    0  0.00000000000E+00  0.00000000000E+00  0.14999999963E+04  0.15000000000E+04  0.10566000000E+00 0.  1.
        994   -1    0    0    0    0 -0.00000000000E+00 -0.00000000000E+00  0.11368683772E-12  0.17120000000E+03  0.17120000000E+03 0.  0.
         13    1    1    2    0    0  0.12920052723E+01 -0.11086317071E+02  0.44699695364E+02  0.46072221929E+02  0.10566000000E+00 0.  1.
        994    1    1    2    0    0 -0.77648439294E+01  0.39559422834E+01  0.16685885574E+01  0.17142977124E+03  0.17120000000E+03 0.  0.
        998    1    1    2    0    0  0.64728386571E+01  0.71303747878E+01  0.14536317124E+04  0.14536980068E+04  0.10000000000E+02 0.  1.
</event>
<event>
 5    1  0.1252945E-008  0.3728745E+03  0.7957747E-01  0.3482784E+00
         13   -1    0    0    0    0  0.00000000000E+00  0.00000000000E+00  0.14999999963E+04  0.15000000000E+04  0.10566000000E+00 0.  1.
        994   -1    0    0    0    0 -0.00000000000E+00 -0.00000000000E+00  0.11368683772E-12  0.17120000000E+03  0.17120000000E+03 0.  0.
         13    1    1    2    0    0 -0.79334611631E+01 -0.83041392761E+02  0.31681827020E+03  0.32761660553E+03  0.10566000000E+00 0.  1.
        994    1    1    2    0    0 -0.80144232014E+02  0.11466603654E+03  0.78066755682E+02  0.23446802810E+03  0.17120000000E+03 0.  0.
        998    1    1    2    0    0  0.88077693177E+02 -0.31624643778E+02  0.11051149704E+04  0.11091153664E+04  0.10000000000E+02 0.  1.
</event>
<event>
 5    1  0.1252945E-008  0.3855238E+03  0.7957747E-01  0.3427454E+00
         13   -1    0    0    0    0  0.00000000000E+00  0.00000000000E+00  0.14999999963E+04  0.15000000000E+04  0.10566000000E+00 0. -1.
        994   -1    0    0    0    0 -0.00000000000E+00 -0.00000000000E+00  0.11368683772E-12  0.17120000000E+03  0.17120000000E+03 0.  0.
         13    1    1    2    0    0 -0.46303592640E+01 -0.13653746037E+02  0.73208625146E+02  0.74614870955E+02  0.10566000000E+00 0. -1.
        994    1    1    2    0    0  0.10499600023E+01  0.15609925041E+02  0.21743161090E+01  0.17192713522E+03  0.17120000000E+03 0.  0.
        998    1    1    2    0    0  0.35803992617E+01 -0.19561790047E+01  0.14246170550E+04  0.14246579938E+04  0.10000000000E+02 0. -1.
</event>
<event>
 5    1  0.1252945E-008  0.3826093E+03  0.7957747E-01  0.3439875E+00
         13   -1    0    0    0    0  0.00000000000E+00  0.00000000000E+00  0.14999999963E+04  0.15000000000E+04  0.10566000000E+00 0. -1.
        994   -1    0    0    0    0 -0.00000000000E+00 -0.00000000000E+00  0.11368683772E-12  0.17120000000E+03  0.17120000000E+03 0.  0.
         13    1    1    2    0    0  0.10373924851E+02 -0.10915725166E+02  0.40228733010E+02  0.42955017126E+02  0.10566000000E+00 0. -1.
        994    1    1    2    0    0 -0.78795334669E+01 -0.21272105267E+01  0.30425644761E+01  0.17142143761E+03  0.17120000000E+03 0.  0.
        998    1    1    2    0    0 -0.24943913845E+01  0.13042935693E+02  0.14567286988E+04  0.14568235453E+04  0.10000000000E+02 0. -1.
</event>
<event>
 5    1  0.1252945E-008  0.3830345E+03  0.7957747E-01  0.3438051E+00
         13   -1    0    0    0    0  0.00000000000E+00  0.00000000000E+00  0.14999999963E+04  0.15000000000E+04  0.10566000000E+00 0. -1.
        994   -1    0    0    0    0 -0.00000000000E+00 -0.00000000000E+00  0.11368683772E-12  0.17120000000E+03  0.17120000000E+03 0.  0.
         13    1    1    2    0    0  0.80966027445E+01  0.64495546395E+01  0.19852988376E+02  0.22389820065E+02  0.10566000000E+00 0. -1.
        994    1    1    2    0    0 -0.14957079818E+01 -0.21737998322E+01  0.26321635079E+01  0.17124056422E+03  0.17120000000E+03 0.  0.
        998    1    1    2    0    0 -0.66008947627E+01 -0.42757548072E+01  0.14775148444E+04  0.14775696157E+04  0.10000000000E+02 0. -1.
</event>
<event>
 5    1  0.1252945E-008  0.3824853E+03  0.7957747E-01  0.3440408E+00
         13   -1    0    0    0    0  0.00000000000E+00  0.00000000000E+00  0.14999999963E+04  0.15000000000E+04  0.10566000000E+00 0. -1.
        994   -1    0    0    0    0 -0.00000000000E+00 -0.00000000000E+00  0.11368683772E-12  0.17120000000E+03  0.17120000000E+03 0.  0.
         13    1    1    2    0    0  0.15240466218E+02 -0.10922032796E+02  0.63577573580E+02  0.66284852246E+02  0.10566000000E+00 0. -1.
        994    1    1    2    0    0 -0.73011938519E+01 -0.93254865392E+01  0.33490391790E+01  0.17164186026E+03  0.17120000000E+03 0.  0.
        998    1    1    2    0    0 -0.79392723660E+01  0.20247519335E+02  0.14330733835E+04  0.14332732875E+04  0.10000000000E+02 0. -1.
</event>
<event>
 5    1  0.1252945E-008  0.3783349E+03  0.7957747E-01  0.3458441E+00
         13   -1    0    0    0    0  0.00000000000E+00  0.00000000000E+00  0.14999999963E+04  0.15000000000E+04  0.10566000000E+00 0.  1.
        994   -1    0    0    0    0 -0.00000000000E+00 -0.00000000000E+00  0.11368683772E-12  0.17120000000E+03  0.17120000000E+03 0.  0.
         13    1    1    2    0    0  0.20732101517E+02  0.22270548659E+02  0.80156301083E+02  0.85737046475E+02  0.10566000000E+00 0.  1.
        994    1    1    2    0    0 -0.77579079925E+02  0.32363951436E+01  0.25517130653E+02  0.18970912433E+03  0.17120000000E+03 0.  0.
        998    1    1    2    0    0  0.56846978408E+02 -0.25506943803E+02  0.13943265645E+04  0.13957538292E+04  0.10000000000E+02 0.  1.
</event>
<event>
 5    1  0.1252945E-008  0.3821574E+03  0.7957747E-01  0.3441818E+00
         13   -1    0    0    0    0  0.00000000000E+00  0.00000000000E+00  0.14999999963E+04  0.15000000000E+04  0.10566000000E+00 0. -1.
        994   -1    0    0    0    0 -0.00000000000E+00 -0.00000000000E+00  0.11368683772E-12  0.17120000000E+03  0.17120000000E+03 0.  0.
         13    1    1    2    0    0  0.25755950661E+01  0.15574415356E+02  0.40116062771E+02  0.43110390394E+02  0.10566000000E+00 0. -1.
        994    1    1    2    0    0 -0.14203355401E+02 -0.64485024215E+01  0.38560883881E+01  0.17195240012E+03  0.17120000000E+03 0.  0.
        998    1    1    2    0    0  0.11627760334E+02 -0.91259129348E+01  0.14560278451E+04  0.14561372095E+04  0.10000000000E+02 0. -1.
</event>
<event>
 5    1  0.1252945E-008  0.3836075E+03  0.7957747E-01  0.3435599E+00
         13   -1    0    0    0    0  0.00000000000E+00  0.00000000000E+00  0.14999999963E+04  0.15000000000E+04  0.10566000000E+00 0. -1.
        994   -1    0    0    0    0 -0.00000000000E+00 -0.00000000000E+00  0.11368683772E-12  0.17120000000E+03  0.17120000000E+03 0.  0.
         13    1    1    2    0    0 -0.26317523081E+02 -0.12804429202E+02  0.16949227601E+03  0.17200060529E+03  0.10566000000E+00 0. -1.
        994    1    1    2    0    0  0.25722659479E+02  0.81797121319E+01  0.47336201456E+01  0.17337938188E+03  0.17120000000E+03 0.  0.
        998    1    1    2    0    0  0.59486360207E+00  0.46247170704E+01  0.13257741001E+04  0.13258200128E+04  0.10000000000E+02 0. -1.
</event>
<event>
 5    1  0.1252945E-008  0.3829839E+03  0.7957747E-01  0.3438268E+00
         13   -1    0    0    0    0  0.00000000000E+00  0.00000000000E+00  0.14999999963E+04  0.15000000000E+04  0.10566000000E+00 0. -1.
        994   -1    0    0    0    0 -0.00000000000E+00 -0.00000000000E+00  0.11368683772E-12  0.17120000000E+03  0.17120000000E+03 0.  0.
         13    1    1    2    0    0 -0.14122524653E+02 -0.17668456994E+02  0.10107902932E+03  0.10357896219E+03  0.10566000000E+00 0. -1.
        994    1    1    2    0    0  0.54028746485E+01  0.40313589459E+01  0.27848663194E+01  0.17135529869E+03  0.17120000000E+03 0.  0.
        998    1    1    2    0    0  0.87196500040E+01  0.13637098048E+02  0.13961361006E+04  0.13962657391E+04  0.10000000000E+02 0. -1.
</event>
<event>
 5    1  0.1252945E-008  0.3699637E+03  0.7957747E-01  0.3496058E+00
         13   -1    0    0    0    0  0.00000000000E+00  0.00000000000E+00  0.14999999963E+04  0.15000000000E+04  0.10566000000E+00 0. -1.
        994   -1    0    0    0    0 -0.00000000000E+00 -0.00000000000E+00  0.11368683772E-12  0.17120000000E+03  0.17120000000E+03 0.  0.
         13    1    1    2    0    0 -0.62013724071E+02 -0.49028527746E+02  0.35698795559E+03  0.36563630851E+03  0.10566000000E+00 0. -1.
        994    1    1    2    0    0  0.15904575418E+02  0.39337081204E+02  0.15539653558E+02  0.17706293319E+03  0.17120000000E+03 0.  0.
        998    1    1    2    0    0  0.46109148654E+02  0.96914465423E+01  0.11274723871E+04  0.11285007583E+04  0.10000000000E+02 0. -1.
</event>
<event>
 5    1  0.1252945E-008  0.3791506E+03  0.7957747E-01  0.3454865E+00
         13   -1    0    0    0    0  0.00000000000E+00  0.00000000000E+00  0.14999999963E+04  0.15000000000E+04  0.10566000000E+00 0. -1.
        994   -1    0    0    0    0 -0.00000000000E+00 -0.00000000000E+00  0.11368683772E-12  0.17120000000E+03  0.17120000000E+03 0.  0.
         13    1    1    2    0    0  0.16812091817E+02 -0.22273004770E+02  0.77110035010E+02  0.82004279376E+02  0.10566000000E+00 0. -1.
        994    1    1    2    0    0 -0.28487588818E+02  0.23947386970E+02  0.92195734904E+01  0.17544076093E+03  0.17120000000E+03 0.  0.
        998    1    1    2    0    0  0.11675497001E+02 -0.16743822000E+01  0.14136703878E+04  0.14137549597E+04  0.10000000000E+02 0. -1.
</event>
<event>
 5    1  0.1252945E-008  0.3729221E+03  0.7957747E-01  0.3482568E+00
         13   -1    0    0    0    0  0.00000000000E+00  0.00000000000E+00  0.14999999963E+04  0.15000000000E+04  0.10566000000E+00 0. -1.
        994   -1    0    0    0    0 -0.00000000000E+00 -0.00000000000E+00  0.11368683772E-12  0.17120000000E+03  0.17120000000E+03 0.  0.
         13    1    1    2    0    0  0.37503559226E+02 -0.85843048288E+02  0.44436441859E+03  0.45413136157E+03  0.10566000000E+00 0. -1.
        994    1    1    2    0    0  0.51963180514E+01  0.27538744377E+02  0.15271354275E+02  0.17414947150E+03  0.17120000000E+03 0.  0.
        998    1    1    2    0    0 -0.42699877277E+02  0.58304303911E+02  0.10403642234E+04  0.10429191669E+04  0.10000000000E+02 0. -1.
</event>
<event>
 5    1  0.1252945E-008  0.3703215E+03  0.7957747E-01  0.3494415E+00
         13   -1    0    0    0    0  0.00000000000E+00  0.00000000000E+00  0.14999999963E+04  0.15000000000E+04  0.10566000000E+00 0. -1.
        994   -1    0    0    0    0 -0.00000000000E+00 -0.00000000000E+00  0.11368683772E-12  0.17120000000E+03  0.17120000000E+03 0.  0.
         13    1    1    2    0    0  0.40043870526E+02 -0.21349144968E+01  0.87511674015E+02  0.96262005379E+02  0.10566000000E+00 0. -1.
        994    1    1    2    0    0 -0.18530904907E+02 -0.18040848724E+02  0.11414706329E+02  0.17351830503E+03  0.17120000000E+03 0.  0.
        998    1    1    2    0    0 -0.21512965619E+02  0.20175763221E+02  0.14010736159E+04  0.14014196896E+04  0.10000000000E+02 0. -1.
</event>
<event>
 5    1  0.1252945E-008  0.3734148E+03  0.7957747E-01  0.3480343E+00
         13   -1    0    0    0    0  0.00000000000E+00  0.00000000000E+00  0.14999999963E+04  0.15000000000E+04  0.10566000000E+00 0. -1.
        994   -1    0    0    0    0 -0.00000000000E+00 -0.00000000000E+00  0.11368683772E-12  0.17120000000E+03  0.17120000000E+03 0.  0.
         13    1    1    2    0    0  0.24957893766E+02  0.71777301164E+02  0.15782711446E+03  0.17516930851E+03  0.10566000000E+00 0. -1.
        994    1    1    2    0    0 -0.33152680079E+02 -0.12345644523E+03  0.73066714430E+02  0.22580695034E+03  0.17120000000E+03 0.  0.
        998    1    1    2    0    0  0.81947863127E+01  0.51679144064E+02  0.12691061674E+04  0.12702237411E+04  0.10000000000E+02 0. -1.
</event>
<event>
 5    1  0.1252945E-008  0.3738335E+03  0.7957747E-01  0.3478456E+00
         13   -1    0    0    0    0  0.00000000000E+00  0.00000000000E+00  0.14999999963E+04  0.15000000000E+04  0.10566000000E+00 0.  1.
        994   -1    0    0    0    0 -0.00000000000E+00 -0.00000000000E+00  0.11368683772E-12  0.17120000000E+03  0.17120000000E+03 0.  0.
         13    1    1    2    0    0  0.25273439726E+02 -0.34529241116E+02  0.10973835600E+03  0.11778596347E+03  0.10566000000E+00 0.  1.
        994    1    1    2    0    0 -0.34684941659E+02  0.40685876932E+02  0.17097029887E+02  0.18016696198E+03  0.17120000000E+03 0.  0.
        998    1    1    2    0    0  0.94115019330E+01 -0.61566358161E+01  0.13731646104E+04  0.13732470745E+04  0.10000000000E+02 0.  1.
</event>
<event>
 5    1  0.1252945E-008  0.3813529E+03  0.7957747E-01  0.3445289E+00
         13   -1    0    0    0    0  0.00000000000E+00  0.00000000000E+00  0.14999999963E+04  0.15000000000E+04  0.10566000000E+00 0.  1.
        994   -1    0    0    0    0 -0.00000000000E+00 -0.00000000000E+00  0.11368683772E-12  0.17120000000E+03  0.17120000000E+03 0.  0.
         13    1    1    2    0    0  0.19073336750E+02  0.12881944348E+02  0.73000687411E+02  0.76543113286E+02  0.10566000000E+00 0.  1.
        994    1    1    2    0    0 -0.12630230698E+02 -0.20237023044E+02  0.53479110905E+01  0.17293669357E+03  0.17120000000E+03 0.  0.
        998    1    1    2    0    0 -0.64431060519E+01  0.73550786967E+01  0.14216513978E+04  0.14217201931E+04  0.10000000000E+02 0.  1.
</event>
<event>
 5    1  0.1252945E-008  0.3855586E+03  0.7957747E-01  0.3427306E+00
         13   -1    0    0    0    0  0.00000000000E+00  0.00000000000E+00  0.14999999963E+04  0.15000000000E+04  0.10566000000E+00 0. -1.
        994   -1    0    0    0    0 -0.00000000000E+00 -0.00000000000E+00  0.11368683772E-12  0.17120000000E+03  0.17120000000E+03 0.  0.
         13    1    1    2    0    0  0.86554263520E+01 -0.67165463398E+01  0.48791277525E+02  0.50006282871E+02  0.10566000000E+00 0. -1.
        994    1    1    2    0    0  0.14757365772E+02  0.72702895289E+01  0.22419599337E+01  0.17200320735E+03  0.17120000000E+03 0.  0.
        998    1    1    2    0    0 -0.23412792124E+02 -0.55374318907E+00  0.14489667588E+04  0.14491905098E+04  0.10000000000E+02 0. -1.
</event>
<event>
 5    1  0.1252945E-008  0.3684285E+03  0.7957747E-01  0.3503144E+00
         13   -1    0    0    0    0  0.00000000000E+00  0.00000000000E+00  0.14999999963E+04  0.15000000000E+04  0.10566000000E+00 0. -1.
        994   -1    0    0    0    0 -0.00000000000E+00 -0.00000000000E+00  0.11368683772E-12  0.17120000000E+03  0.17120000000E+03 0.  0.
         13    1    1    2    0    0 -0.54880177687E+02  0.47107541624E+02  0.30966628305E+03  0.31800027107E+03  0.10566000000E+00 0. -1.
        994    1    1    2    0    0 -0.13989128917E+02 -0.38896311912E+02  0.16074461876E+02  0.17685148326E+03  0.17120000000E+03 0.  0.
        998    1    1    2    0    0  0.68869306604E+02 -0.82112297126E+01  0.11742592514E+04  0.11763482457E+04  0.10000000000E+02 0. -1.
</event>
<event>
 5    1  0.1252945E-008  0.3718858E+03  0.7957747E-01  0.3487269E+00
         13   -1    0    0    0    0  0.00000000000E+00  0.00000000000E+00  0.14999999963E+04  0.15000000000E+04  0.10566000000E+00 0.  1.
        994   -1    0    0    0    0 -0.00000000000E+00 -0.00000000000E+00  0.11368683772E-12  0.17120000000E+03  0.17120000000E+03 0.  0.
         13    1    1    2    0    0  0.68191147896E+02 -0.10255264674E+02  0.36309257451E+03  0.36958278089E+03  0.10566000000E+00 0.  1.
        994    1    1    2    0    0 -0.88761768119E+01  0.28341922715E+01  0.85849893777E+01  0.17166817178E+03  0.17120000000E+03 0.  0.
        998    1    1    2    0    0 -0.59314971084E+02  0.74210724025E+01  0.11283224324E+04  0.11299490473E+04  0.10000000000E+02 0.  1.
</event>
<event>
 5    1  0.1252945E-008  0.3781817E+03  0.7957747E-01  0.3459114E+00
         13   -1    0    0    0    0  0.00000000000E+00  0.00000000000E+00  0.14999999963E+04  0.15000000000E+04  0.10566000000E+00 0.  1.
        994   -1    0    0    0    0 -0.00000000000E+00 -0.00000000000E+00  0.11368683772E-12  0.17120000000E+03  0.17120000000E+03 0.  0.
         13    1    1    2    0    0 -0.18025127092E+01  0.24668818576E+02  0.59981455483E+02  0.64881321102E+02  0.10566000000E+00 0.  1.
        994    1    1    2    0    0  0.68143925808E+01 -0.93426026494E+01  0.55036731465E+01  0.17167833465E+03  0.17120000000E+03 0.  0.
        998    1    1    2    0    0 -0.50118798716E+01 -0.15326215927E+02  0.14345148676E+04  0.14346403442E+04  0.10000000000E+02 0.  1.
</event>
<event>
 5    1  0.1252945E-008  0.3804406E+03  0.7957747E-01  0.3449242E+00
         13   -1    0    0    0    0  0.00000000000E+00  0.00000000000E+00  0.14999999963E+04  0.15000000000E+04  0.10566000000E+00 0. -1.
        994   -1    0    0    0    0 -0.00000000000E+00 -0.00000000000E+00  0.11368683772E-12  0.17120000000E+03  0.17120000000E+03 0.  0.
         13    1    1    2    0    0 -0.28164900274E+02  0.12985101168E+03  0.72790127514E+03  0.73992893196E+03  0.10566000000E+00 0. -1.
        994    1    1    2    0    0  0.21079411566E+02 -0.15341905914E+03  0.88617212978E+02  0.24727353222E+03  0.17120000000E+03 0.  0.
        998    1    1    2    0    0  0.70854887085E+01  0.23568047456E+02  0.68348150817E+03  0.68399753583E+03  0.10000000000E+02 0. -1.
</event>
<event>
 5    1  0.1252945E-008  0.3803757E+03  0.7957747E-01  0.3449524E+00
         13   -1    0    0    0    0  0.00000000000E+00  0.00000000000E+00  0.14999999963E+04  0.15000000000E+04  0.10566000000E+00 0. -1.
        994   -1    0    0    0    0 -0.00000000000E+00 -0.00000000000E+00  0.11368683772E-12  0.17120000000E+03  0.17120000000E+03 0.  0.
         13    1    1    2    0    0 -0.11358955264E+01 -0.16969081986E+02  0.35445368461E+02  0.39314441513E+02  0.10566000000E+00 0. -1.
        994    1    1    2    0    0  0.49593931882E+01  0.86319014361E+01  0.42745783866E+01  0.17154246507E+03  0.17120000000E+03 0.  0.
        998    1    1    2    0    0 -0.38234976618E+01  0.83371805498E+01  0.14602800494E+04  0.14603430934E+04  0.10000000000E+02 0. -1.
</event>
<event>
 5    1  0.1295331E-008  0.3848804E+03  0.7957747E-01  0.3430180E+00
         13   -1    0    0    0    0  0.00000000000E+00  0.00000000000E+00  0.14999999963E+04  0.15000000000E+04  0.10566000000E+00 0. -1.
        994   -1    0    0    0    0 -0.00000000000E+00 -0.00000000000E+00  0.11368683772E-12  0.17120000000E+03  0.17120000000E+03 0.  0.
         13    1    1    2    0    0 -0.30432413372E+01 -0.11281768062E+02  0.38984287922E+02  0.40697978786E+02  0.10566000000E+00 0. -1.
        994    1    1    2    0    0  0.34514974575E+01  0.13903478708E+02  0.23649660491E+01  0.17181458791E+03  0.17120000000E+03 0.  0.
        998    1    1    2    0    0 -0.40825612028E+00 -0.26217106459E+01  0.14586507423E+04  0.14586874333E+04  0.10000000000E+02 0. -1.
</event>
<event>
 5    1  0.1252945E-008  0.3850923E+03  0.7957747E-01  0.3429281E+00
         13   -1    0    0    0    0  0.00000000000E+00  0.00000000000E+00  0.14999999963E+04  0.15000000000E+04  0.10566000000E+00 0.  1.
        994   -1    0    0    0    0 -0.00000000000E+00 -0.00000000000E+00  0.11368683772E-12  0.17120000000E+03  0.17120000000E+03 0.  0.
         13    1    1    2    0    0  0.70451939389E+01  0.79957451901E+01  0.37643511742E+02  0.39123034635E+02  0.10566000000E+00 0.  1.
        994    1    1    2    0    0 -0.28938221722E-01  0.44578383294E+01  0.16496600730E+01  0.17126597601E+03  0.17120000000E+03 0.  0.
        998    1    1    2    0    0 -0.70162557172E+01 -0.12453583520E+02  0.14607068245E+04  0.14608109894E+04  0.10000000000E+02 0.  1.
</event>
<event>
 5    1  0.1252945E-008  0.3714989E+03  0.7957747E-01  0.3489030E+00
         13   -1    0    0    0    0  0.00000000000E+00  0.00000000000E+00  0.14999999963E+04  0.15000000000E+04  0.10566000000E+00 0.  1.
        994   -1    0    0    0    0 -0.00000000000E+00 -0.00000000000E+00  0.11368683772E-12  0.17120000000E+03  0.17120000000E+03 0.  0.
         13    1    1    2    0    0 -0.29017925046E+02  0.56633505793E+02  0.22790593972E+03  0.23662316555E+03  0.10566000000E+00 0.  1.
        994    1    1    2    0    0  0.32452989674E+02 -0.31770365050E+02  0.15616157396E+02  0.17780848407E+03  0.17120000000E+03 0.  0.
        998    1    1    2    0    0 -0.34350646280E+01 -0.24863140742E+02  0.12564778992E+04  0.12567683504E+04  0.10000000000E+02 0.  1.
</event>
<event>
 5    1  0.1252945E-008  0.3810805E+03  0.7957747E-01  0.3446467E+00
         13   -1    0    0    0    0  0.00000000000E+00  0.00000000000E+00  0.14999999963E+04  0.15000000000E+04  0.10566000000E+00 0. -1.
        994   -1    0    0    0    0 -0.00000000000E+00 -0.00000000000E+00  0.11368683772E-12  0.17120000000E+03  0.17120000000E+03 0.  0.
         13    1    1    2    0    0 -0.14725047757E+02  0.46040583504E+02  0.25933647098E+03  0.26380291641E+03  0.10566000000E+00 0. -1.
        994    1    1    2    0    0  0.27077113268E+02 -0.47259637846E+02  0.13534508795E+02  0.18016455356E+03  0.17120000000E+03 0.  0.
        998    1    1    2    0    0 -0.12352065511E+02  0.12190543413E+01  0.12271290165E+04  0.12272325300E+04  0.10000000000E+02 0. -1.
</event>
<event>
 5    1  0.1252945E-008  0.3802945E+03  0.7957747E-01  0.3449877E+00
         13   -1    0    0    0    0  0.00000000000E+00  0.00000000000E+00  0.14999999963E+04  0.15000000000E+04  0.10566000000E+00 0. -1.
        994   -1    0    0    0    0 -0.00000000000E+00 -0.00000000000E+00  0.11368683772E-12  0.17120000000E+03  0.17120000000E+03 0.  0.
         13    1    1    2    0    0  0.11816260781E+02  0.27641410283E+02  0.22817777324E+02  0.37740345882E+02  0.10566000000E+00 0. -1.
        994    1    1    2    0    0 -0.20298709119E+02  0.33719049368E+02  0.22128885792E+02  0.17705405804E+03  0.17120000000E+03 0.  0.
        998    1    1    2    0    0  0.84824483377E+01 -0.61360459651E+02  0.14550533332E+04  0.14564055961E+04  0.10000000000E+02 0. -1.
</event>
<event>
 5    1  0.1252945E-008  0.3845084E+03  0.7957747E-01  0.3431760E+00
         13   -1    0    0    0    0  0.00000000000E+00  0.00000000000E+00  0.14999999963E+04  0.15000000000E+04  0.10566000000E+00 0.  1.
        994   -1    0    0    0    0 -0.00000000000E+00 -0.00000000000E+00  0.11368683772E-12  0.17120000000E+03  0.17120000000E+03 0.  0.
         13    1    1    2    0    0  0.37998785171E+01  0.10589907606E+02  0.33169080661E+02  0.35025480665E+02  0.10566000000E+00 0.  1.
        994    1    1    2    0    0 -0.42598791093E+01 -0.81401469917E+01  0.21525088831E+01  0.17145985494E+03  0.17120000000E+03 0.  0.
        998    1    1    2    0    0  0.46000059220E+00 -0.24497606147E+01  0.14646784067E+04  0.14647146644E+04  0.10000000000E+02 0.  1.
</event>
<event>
 5    1  0.1252945E-008  0.3693979E+03  0.7957747E-01  0.3498663E+00
         13   -1    0    0    0    0  0.00000000000E+00  0.00000000000E+00  0.14999999963E+04  0.15000000000E+04  0.10566000000E+00 0. -1.
        994   -1    0    0    0    0 -0.00000000000E+00 -0.00000000000E+00  0.11368683772E-12  0.17120000000E+03  0.17120000000E+03 0.  0.
         13    1    1    2    0    0  0.21546416614E+02 -0.10086895326E+02  0.21992291904E+02  0.32398543076E+02  0.10566000000E+00 0. -1.
        994    1    1    2    0    0 -0.20427114527E+02  0.49593145931E+01  0.12163775097E+02  0.17291402266E+03  0.17120000000E+03 0.  0.
        998    1    1    2    0    0 -0.11193020877E+01  0.51275807333E+01  0.14658439293E+04  0.14658874343E+04  0.10000000000E+02 0. -1.
</event>
<event>
 5    1  0.1252945E-008  0.3842551E+03  0.7957747E-01  0.3432837E+00
         13   -1    0    0    0    0  0.00000000000E+00  0.00000000000E+00  0.14999999963E+04  0.15000000000E+04  0.10566000000E+00 0.  1.
        994   -1    0    0    0    0 -0.00000000000E+00 -0.00000000000E+00  0.11368683772E-12  0.17120000000E+03  0.17120000000E+03 0.  0.
         13    1    1    2    0    0 -0.11450186032E+02 -0.13553026518E+02  0.78390239710E+02  0.80373080903E+02  0.10566000000E+00 0.  1.
        994    1    1    2    0    0  0.13228469585E+02  0.37982743972E+01  0.26250955000E+01  0.17177237968E+03  0.17120000000E+03 0.  0.
        998    1    1    2    0    0 -0.17782835521E+01  0.97547521203E+01  0.14189846611E+04  0.14190545394E+04  0.10000000000E+02 0.  1.
</event>
<event>
 5    1  0.1252945E-008  0.3828519E+03  0.7957747E-01  0.3438834E+00
         13   -1    0    0    0    0  0.00000000000E+00  0.00000000000E+00  0.14999999963E+04  0.15000000000E+04  0.10566000000E+00 0. -1.
        994   -1    0    0    0    0 -0.00000000000E+00 -0.00000000000E+00  0.11368683772E-12  0.17120000000E+03  0.17120000000E+03 0.  0.
         13    1    1    2    0    0  0.20105059982E+02  0.19170296147E+02  0.15686781965E+03  0.15930862405E+03  0.10566000000E+00 0. -1.
        994    1    1    2    0    0 -0.30433908440E+01 -0.29240451500E+01  0.27593720507E+01  0.17127424325E+03  0.17120000000E+03 0.  0.
        998    1    1    2    0    0 -0.17061669138E+02 -0.16246250997E+02  0.13403728046E+04  0.13406171327E+04  0.10000000000E+02 0. -1.
</event>
<event>
 5    1  0.1252945E-008  0.3699657E+03  0.7957747E-01  0.3496049E+00
         13   -1    0    0    0    0  0.00000000000E+00  0.00000000000E+00  0.14999999963E+04  0.15000000000E+04  0.10566000000E+00 0. -1.
        994   -1    0    0    0    0 -0.00000000000E+00 -0.00000000000E+00  0.11368683772E-12  0.17120000000E+03  0.17120000000E+03 0.  0.
         13    1    1    2    0    0  0.38726749577E+02 -0.50375326755E+02  0.16918669678E+03  0.18072516209E+03  0.10566000000E+00 0. -1.
        994    1    1    2    0    0 -0.58846338383E+02  0.65193022633E+02  0.36453100652E+02  0.19583485463E+03  0.17120000000E+03 0.  0.
        998    1    1    2    0    0  0.20119588807E+02 -0.14817695879E+02  0.12943601988E+04  0.12946399833E+04  0.10000000000E+02 0. -1.
</event>
<event>
 5    1  0.1252945E-008  0.3745819E+03  0.7957747E-01  0.3475095E+00
         13   -1    0    0    0    0  0.00000000000E+00  0.00000000000E+00  0.14999999963E+04  0.15000000000E+04  0.10566000000E+00 0. -1.
        994   -1    0    0    0    0 -0.00000000000E+00 -0.00000000000E+00  0.11368683772E-12  0.17120000000E+03  0.17120000000E+03 0.  0.
         13    1    1    2    0    0 -0.76574023452E+02 -0.35917425866E+02  0.38052835225E+03  0.38981467466E+03  0.10566000000E+00 0. -1.
        994    1    1    2    0    0  0.74933192123E+02  0.41130428230E+02  0.32187752300E+02  0.19404171409E+03  0.17120000000E+03 0.  0.
        998    1    1    2    0    0  0.16408313289E+01 -0.52130023639E+01  0.10872838917E+04  0.10873436113E+04  0.10000000000E+02 0. -1.
</event>
<event>
 5    1  0.1252945E-008  0.3851332E+03  0.7957747E-01  0.3429107E+00
         13   -1    0    0    0    0  0.00000000000E+00  0.00000000000E+00  0.14999999963E+04  0.15000000000E+04  0.10566000000E+00 0. -1.
        994   -1    0    0    0    0 -0.00000000000E+00 -0.00000000000E+00  0.11368683772E-12  0.17120000000E+03  0.17120000000E+03 0.  0.
         13    1    1    2    0    0  0.67486626073E+01 -0.15664535623E+02  0.92465589089E+02  0.94025626575E+02  0.10566000000E+00 0. -1.
        994    1    1    2    0    0 -0.63856444194E+01  0.10258186319E+02  0.20441173895E+01  0.17163806471E+03  0.17120000000E+03 0.  0.
        998    1    1    2    0    0 -0.36301818785E+00  0.54063493042E+01  0.14054902898E+04  0.14055363087E+04  0.10000000000E+02 0. -1.
</event>
<event>
 5    1  0.1252945E-008  0.3721319E+03  0.7957747E-01  0.3486150E+00
         13   -1    0    0    0    0  0.00000000000E+00  0.00000000000E+00  0.14999999963E+04  0.15000000000E+04  0.10566000000E+00 0. -1.
        994   -1    0    0    0    0 -0.00000000000E+00 -0.00000000000E+00  0.11368683772E-12  0.17120000000E+03  0.17120000000E+03 0.  0.
         13    1    1    2    0    0 -0.20113763140E+01 -0.62760104954E+02  0.22831518321E+03  0.23679254730E+03  0.10566000000E+00 0. -1.
        994    1    1    2    0    0  0.16619542143E+02  0.43907089613E+02  0.15762387270E+02  0.17821878283E+03  0.17120000000E+03 0.  0.
        998    1    1    2    0    0 -0.14608165829E+02  0.18853015341E+02  0.12559224258E+04  0.12561886699E+04  0.10000000000E+02 0. -1.
</event>
<event>
 5    1  0.1252945E-008  0.3838586E+03  0.7957747E-01  0.3434527E+00
         13   -1    0    0    0    0  0.00000000000E+00  0.00000000000E+00  0.14999999963E+04  0.15000000000E+04  0.10566000000E+00 0.  1.
        994   -1    0    0    0    0 -0.00000000000E+00 -0.00000000000E+00  0.11368683772E-12  0.17120000000E+03  0.17120000000E+03 0.  0.
         13    1    1    2    0    0  0.47949210373E+01 -0.10475229857E+02  0.29208947755E+02  0.31398972933E+02  0.10566000000E+00 0.  1.
        994    1    1    2    0    0 -0.54408536206E+01  0.95343415315E+01  0.25957426739E+01  0.17157122264E+03  0.17120000000E+03 0.  0.
        998    1    1    2    0    0  0.64593258328E+00  0.94088832532E+00  0.14681953059E+04  0.14682298044E+04  0.10000000000E+02 0.  1.
</event>
<event>
 5    1  0.1252945E-008  0.3849496E+03  0.7957747E-01  0.3429886E+00
         13   -1    0    0    0    0  0.00000000000E+00  0.00000000000E+00  0.14999999963E+04  0.15000000000E+04  0.10566000000E+00 0.  1.
        994   -1    0    0    0    0 -0.00000000000E+00 -0.00000000000E+00  0.11368683772E-12  0.17120000000E+03  0.17120000000E+03 0.  0.
         13    1    1    2    0    0  0.22145984416E+01 -0.11274653700E+02  0.42632790518E+02  0.44154141976E+02  0.10566000000E+00 0.  1.
        994    1    1    2    0    0  0.40416712923E+01 -0.51244534373E+01  0.17952791430E+01  0.17133376246E+03  0.17120000000E+03 0.  0.
        998    1    1    2    0    0 -0.62562697340E+01  0.16399107137E+02  0.14555719266E+04  0.14557120956E+04  0.10000000000E+02 0.  1.
</event>
<event>
 5    1  0.1252945E-008  0.3900306E+03  0.7957747E-01  0.3408613E+00
         13   -1    0    0    0    0  0.00000000000E+00  0.00000000000E+00  0.14999999963E+04  0.15000000000E+04  0.10566000000E+00 0.  1.
        994   -1    0    0    0    0 -0.00000000000E+00 -0.00000000000E+00  0.11368683772E-12  0.17120000000E+03  0.17120000000E+03 0.  0.
         13    1    1    2    0    0 -0.42296408123E+02 -0.38189941205E+02  0.68003829368E+02  0.88724234131E+02  0.10566000000E+00 0.  1.
        994    1    1    2    0    0  0.22642970760E+02  0.23828706377E+02  0.26025820804E+02  0.17625916918E+03  0.17120000000E+03 0.  0.
        998    1    1    2    0    0  0.19653437363E+02  0.14361234828E+02  0.14059703461E+04  0.14062165967E+04  0.10000000000E+02 0.  1.
</event>
<event>
 5    1  0.1252945E-008  0.3844525E+03  0.7957747E-01  0.3431997E+00
         13   -1    0    0    0    0  0.00000000000E+00  0.00000000000E+00  0.14999999963E+04  0.15000000000E+04  0.10566000000E+00 0.  1.
        994   -1    0    0    0    0 -0.00000000000E+00 -0.00000000000E+00  0.11368683772E-12  0.17120000000E+03  0.17120000000E+03 0.  0.
         13    1    1    2    0    0  0.18127955277E+02  0.12863284223E+02  0.12039902883E+03  0.12243375413E+03  0.10566000000E+00 0.  1.
        994    1    1    2    0    0 -0.23022639001E+02 -0.75547888775E+01  0.38388299082E+01  0.17294881716E+03  0.17120000000E+03 0.  0.
        998    1    1    2    0    0  0.48946837239E+01 -0.53084953458E+01  0.13757621375E+04  0.13758174287E+04  0.10000000000E+02 0.  1.
</event>
<event>
 5    1  0.1252945E-008  0.3797891E+03  0.7957747E-01  0.3452077E+00
         13   -1    0    0    0    0  0.00000000000E+00  0.00000000000E+00  0.14999999963E+04  0.15000000000E+04  0.10566000000E+00 0.  1.
        994   -1    0    0    0    0 -0.00000000000E+00 -0.00000000000E+00  0.11368683772E-12  0.17120000000E+03  0.17120000000E+03 0.  0.
         13    1    1    2    0    0 -0.19237364755E+02 -0.32196666702E+02  0.16103698618E+03  0.16534697951E+03  0.10566000000E+00 0.  1.
        994    1    1    2    0    0  0.14594540934E+02  0.20607697940E+02  0.63757540093E+01  0.17316976664E+03  0.17120000000E+03 0.  0.
        998    1    1    2    0    0  0.46428238206E+01  0.11588968761E+02  0.13325872561E+04  0.13326832539E+04  0.10000000000E+02 0.  1.
</event>
<event>
 5    1  0.1252945E-008  0.3791668E+03  0.7957747E-01  0.3454794E+00
         13   -1    0    0    0    0  0.00000000000E+00  0.00000000000E+00  0.14999999963E+04  0.15000000000E+04  0.10566000000E+00 0. -1.
        994   -1    0    0    0    0 -0.00000000000E+00 -0.00000000000E+00  0.11368683772E-12  0.17120000000E+03  0.17120000000E+03 0.  0.
         13    1    1    2    0    0 -0.56433700407E+02  0.11045879115E+02  0.30973928780E+03  0.31503208020E+03  0.10566000000E+00 0. -1.
        994    1    1    2    0    0  0.49146964752E+02 -0.94861956944E+01  0.12999072497E+02  0.17884023020E+03  0.17120000000E+03 0.  0.
        998    1    1    2    0    0  0.72867356556E+01 -0.15596834204E+01  0.11772616360E+04  0.11773276896E+04  0.10000000000E+02 0.  0.
</event>
<event>
 5    1  0.1252945E-008  0.3770915E+03  0.7957747E-01  0.3463921E+00
         13   -1    0    0    0    0  0.00000000000E+00  0.00000000000E+00  0.14999999963E+04  0.15000000000E+04  0.10566000000E+00 0. -1.
        994   -1    0    0    0    0 -0.00000000000E+00 -0.00000000000E+00  0.11368683772E-12  0.17120000000E+03  0.17120000000E+03 0.  0.
         13    1    1    2    0    0 -0.65497136777E+01 -0.12213167378E+02 -0.26523956966E+00  0.13861519496E+02  0.10566000000E+00 0. -1.
        994    1    1    2    0    0  0.53594197283E+01  0.11085955569E+02  0.15282598848E+02  0.17232126862E+03  0.17120000000E+03 0.  0.
        998    1    1    2    0    0  0.11902939494E+01  0.11272118095E+01  0.14849826370E+04  0.14850172119E+04  0.10000000000E+02 0. -1.
</event>
<event>
 5    1  0.1252945E-008  0.3854270E+03  0.7957747E-01  0.3427863E+00
         13   -1    0    0    0    0  0.00000000000E+00  0.00000000000E+00  0.14999999963E+04  0.15000000000E+04  0.10566000000E+00 0. -1.
        994   -1    0    0    0    0 -0.00000000000E+00 -0.00000000000E+00  0.11368683772E-12  0.17120000000E+03  0.17120000000E+03 0.  0.
         13    1    1    2    0    0 -0.99500715660E+01 -0.51471564913E+01  0.44371190955E+02  0.45763641626E+02  0.10566000000E+00 0. -1.
        994    1    1    2    0    0  0.48687505893E+01  0.69976787230E+01  0.16570126498E+01  0.17142012114E+03  0.17120000000E+03 0.  0.
        998    1    1    2    0    0  0.50813209767E+01 -0.18505222316E+01  0.14539717927E+04  0.14540162372E+04  0.10000000000E+02 0. -1.
</event>
<event>
 5    1  0.1252945E-008  0.3813197E+03  0.7957747E-01  0.3445432E+00
         13   -1    0    0    0    0  0.00000000000E+00  0.00000000000E+00  0.14999999963E+04  0.15000000000E+04  0.10566000000E+00 0. -1.
        994   -1    0    0    0    0 -0.00000000000E+00 -0.00000000000E+00  0.11368683772E-12  0.17120000000E+03  0.17120000000E+03 0.  0.
         13    1    1    2    0    0  0.14632731915E+02 -0.18303754863E+02  0.79752193822E+02  0.83123810481E+02  0.10566000000E+00 0. -1.
        994    1    1    2    0    0 -0.99263726546E+01  0.51371829535E+01  0.38843540966E+01  0.17160842558E+03  0.17120000000E+03 0.  0.
        998    1    1    2    0    0 -0.47063592602E+01  0.13166571909E+02  0.14163634484E+04  0.14164677639E+04  0.10000000000E+02 0. -1.
</event>
<event>
 5    1  0.1252945E-008  0.3756020E+03  0.7957747E-01  0.3470535E+00
         13   -1    0    0    0    0  0.00000000000E+00  0.00000000000E+00  0.14999999963E+04  0.15000000000E+04  0.10566000000E+00 0.  1.
        994   -1    0    0    0    0 -0.00000000000E+00 -0.00000000000E+00  0.11368683772E-12  0.17120000000E+03  0.17120000000E+03 0.  0.
         13    1    1    2    0    0 -0.79010080502E+02  0.16442989756E+02  0.39534850014E+03  0.40350144047E+03  0.10566000000E+00 0.  1.
        994    1    1    2    0    0  0.74732099468E+02 -0.80654979971E+01  0.25784011840E+02  0.18874372629E+03  0.17120000000E+03 0.  0.
        998    1    1    2    0    0  0.42779810342E+01 -0.83774917584E+01  0.10788674843E+04  0.10789548332E+04  0.10000000000E+02 0.  1.
</event>
<event>
 5    1  0.1252945E-008  0.3810413E+03  0.7957747E-01  0.3446637E+00
         13   -1    0    0    0    0  0.00000000000E+00  0.00000000000E+00  0.14999999963E+04  0.15000000000E+04  0.10566000000E+00 0.  1.
        994   -1    0    0    0    0 -0.00000000000E+00 -0.00000000000E+00  0.11368683772E-12  0.17120000000E+03  0.17120000000E+03 0.  0.
         13    1    1    2    0    0 -0.31223422624E+02 -0.30944350972E+02  0.26324001004E+03  0.26688531063E+03  0.10566000000E+00 0.  1.
        994    1    1    2    0    0  0.53780005915E+01  0.33309552483E+02  0.74104039086E+01  0.17465051750E+03  0.17120000000E+03 0.  0.
        998    1    1    2    0    0  0.25845422032E+02 -0.23652015108E+01  0.12293495823E+04  0.12296641719E+04  0.10000000000E+02 0.  1.
</event>
<event>
 5    1  0.1252945E-008  0.3829683E+03  0.7957747E-01  0.3438335E+00
         13   -1    0    0    0    0  0.00000000000E+00  0.00000000000E+00  0.14999999963E+04  0.15000000000E+04  0.10566000000E+00 0. -1.
        994   -1    0    0    0    0 -0.00000000000E+00 -0.00000000000E+00  0.11368683772E-12  0.17120000000E+03  0.17120000000E+03 0.  0.
         13    1    1    2    0    0 -0.33600124767E+02  0.49336364506E+02  0.30650645730E+03  0.31226473508E+03  0.10566000000E+00 0. -1.
        994    1    1    2    0    0  0.27459928900E+02 -0.12299802993E+03  0.57130761691E+02  0.22012707011E+03  0.17120000000E+03 0.  0.
        998    1    1    2    0    0  0.61401958665E+01  0.73661665426E+02  0.11363627773E+04  0.11388081948E+04  0.10000000000E+02 0. -1.
</event>
<event>
 5    1  0.1252945E-008  0.3848259E+03  0.7957747E-01  0.3430411E+00
         13   -1    0    0    0    0  0.00000000000E+00  0.00000000000E+00  0.14999999963E+04  0.15000000000E+04  0.10566000000E+00 0.  1.
        994   -1    0    0    0    0 -0.00000000000E+00 -0.00000000000E+00  0.11368683772E-12  0.17120000000E+03  0.17120000000E+03 0.  0.
         13    1    1    2    0    0 -0.10564098909E+02 -0.34679656937E+01  0.36719172316E+02  0.38365814880E+02  0.10566000000E+00 0.  1.
        994    1    1    2    0    0  0.30490309165E+01 -0.28623819186E+01  0.17741415615E+01  0.17126026217E+03  0.17120000000E+03 0.  0.
        998    1    1    2    0    0  0.75150679925E+01  0.63303476123E+01  0.14615066824E+04  0.14615739230E+04  0.10000000000E+02 0.  1.
</event>
<event>
 5    1  0.1252945E-008  0.3844134E+03  0.7957747E-01  0.3432164E+00
         13   -1    0    0    0    0  0.00000000000E+00  0.00000000000E+00  0.14999999963E+04  0.15000000000E+04  0.10566000000E+00 0. -1.
        994   -1    0    0    0    0 -0.00000000000E+00 -0.00000000000E+00  0.11368683772E-12  0.17120000000E+03  0.17120000000E+03 0.  0.
         13    1    1    2    0    0  0.85845259101E+01 -0.11120384932E+02  0.52924029977E+02  0.54756927956E+02  0.10566000000E+00 0. -1.
        994    1    1    2    0    0 -0.18964534650E+01  0.17783416885E+01  0.19439368091E+01  0.17123077388E+03  0.17120000000E+03 0.  0.
        998    1    1    2    0    0 -0.66880724450E+01  0.93420432434E+01  0.14451320295E+04  0.14452122982E+04  0.10000000000E+02 0. -1.
</event>
<event>
 5    1  0.1252945E-008  0.3856835E+03  0.7957747E-01  0.3426778E+00
         13   -1    0    0    0    0  0.00000000000E+00  0.00000000000E+00  0.14999999963E+04  0.15000000000E+04  0.10566000000E+00 0. -1.
        994   -1    0    0    0    0 -0.00000000000E+00 -0.00000000000E+00  0.11368683772E-12  0.17120000000E+03  0.17120000000E+03 0.  0.
         13    1    1    2    0    0  0.98856248451E+01 -0.29819151559E+01  0.43688646605E+02  0.44892386914E+02  0.10566000000E+00 0. -1.
        994    1    1    2    0    0 -0.98501385235E-02 -0.55508458585E+01  0.13922615321E+01  0.17129562277E+03  0.17120000000E+03 0.  0.
        998    1    1    2    0    0 -0.98757747066E+01  0.85327610144E+01  0.14549190881E+04  0.14550119903E+04  0.10000000000E+02 0. -1.
</event>
<event>
 5    1  0.1252945E-008  0.3837551E+03  0.7957747E-01  0.3434969E+00
         13   -1    0    0    0    0  0.00000000000E+00  0.00000000000E+00  0.14999999963E+04  0.15000000000E+04  0.10566000000E+00 0. -1.
        994   -1    0    0    0    0 -0.00000000000E+00 -0.00000000000E+00  0.11368683772E-12  0.17120000000E+03  0.17120000000E+03 0.  0.
         13    1    1    2    0    0 -0.14570373369E+02 -0.14889811771E+02  0.10097297512E+03  0.10309973396E+03  0.10566000000E+00 0. -1.
        994    1    1    2    0    0  0.75176880604E+01  0.55621348297E+00  0.24371232388E+01  0.17138320973E+03  0.17120000000E+03 0.  0.
        998    1    1    2    0    0  0.70526853083E+01  0.14333598288E+02  0.13965898979E+04  0.13967170563E+04  0.10000000000E+02 0. -1.
</event>
<event>
 5    1  0.1252945E-008  0.3706909E+03  0.7957747E-01  0.3492722E+00
         13   -1    0    0    0    0  0.00000000000E+00  0.00000000000E+00  0.14999999963E+04  0.15000000000E+04  0.10566000000E+00 0. -1.
        994   -1    0    0    0    0 -0.00000000000E+00 -0.00000000000E+00  0.11368683772E-12  0.17120000000E+03  0.17120000000E+03 0.  0.
         13    1    1    2    0    0 -0.53782734565E+02  0.73596279880E+02  0.45398379323E+03  0.46304458817E+03  0.10566000000E+00 0. -1.
        994    1    1    2    0    0  0.24031193298E+02 -0.50676972639E+02  0.19838476212E+02  0.18124199002E+03  0.17120000000E+03 0.  0.
        998    1    1    2    0    0  0.29751541267E+02 -0.22919307240E+02  0.10261777268E+04  0.10269134218E+04  0.10000000000E+02 0. -1.
</event>
<event>
 5    1  0.1252945E-008  0.3844336E+03  0.7957747E-01  0.3432078E+00
         13   -1    0    0    0    0  0.00000000000E+00  0.00000000000E+00  0.14999999963E+04  0.15000000000E+04  0.10566000000E+00 0. -1.
        994   -1    0    0    0    0 -0.00000000000E+00 -0.00000000000E+00  0.11368683772E-12  0.17120000000E+03  0.17120000000E+03 0.  0.
         13    1    1    2    0    0  0.12202322085E+02  0.88038568783E+01  0.46333293624E+02  0.48715396153E+02  0.10566000000E+00 0. -1.
        994    1    1    2    0    0 -0.82455124058E+02  0.95869181605E+01  0.24954459195E+02  0.19189299497E+03  0.17120000000E+03 0.  0.
        998    1    1    2    0    0  0.70252801973E+02 -0.18390775039E+02  0.14287122435E+04  0.14305916089E+04  0.10000000000E+02 0. -1.
</event>
<event>
 5    1  0.1252945E-008  0.3822756E+03  0.7957747E-01  0.3441309E+00
         13   -1    0    0    0    0  0.00000000000E+00  0.00000000000E+00  0.14999999963E+04  0.15000000000E+04  0.10566000000E+00 0.  1.
        994   -1    0    0    0    0 -0.00000000000E+00 -0.00000000000E+00  0.11368683772E-12  0.17120000000E+03  0.17120000000E+03 0.  0.
         13    1    1    2    0    0  0.77470133041E+00 -0.17846832853E+02  0.54074194512E+02  0.56948566981E+02  0.10566000000E+00 0.  1.
        994    1    1    2    0    0  0.75937973516E+01  0.49722388835E+01  0.32622290676E+01  0.17147148759E+03  0.17120000000E+03 0.  0.
        998    1    1    2    0    0 -0.83684986820E+01  0.12874593970E+02  0.14426635727E+04  0.14427799454E+04  0.10000000000E+02 0.  1.
</event>
<event>
 5    1  0.1252945E-008  0.3835946E+03  0.7957747E-01  0.3435655E+00
         13   -1    0    0    0    0  0.00000000000E+00  0.00000000000E+00  0.14999999963E+04  0.15000000000E+04  0.10566000000E+00 0.  1.
        994   -1    0    0    0    0 -0.00000000000E+00 -0.00000000000E+00  0.11368683772E-12  0.17120000000E+03  0.17120000000E+03 0.  0.
         13    1    1    2    0    0  0.10078661774E+02  0.36729763450E+01  0.23572607211E+02  0.25898825324E+02  0.10566000000E+00 0.  1.
        994    1    1    2    0    0 -0.90237021025E+01 -0.96074404657E+01  0.29036630765E+01  0.17173118928E+03  0.17120000000E+03 0.  0.
        998    1    1    2    0    0 -0.10549596719E+01  0.59344641207E+01  0.14735237260E+04  0.14735699854E+04  0.10000000000E+02 0.  1.
</event>
<event>
 5    1  0.1252945E-008  0.3703679E+03  0.7957747E-01  0.3494202E+00
         13   -1    0    0    0    0  0.00000000000E+00  0.00000000000E+00  0.14999999963E+04  0.15000000000E+04  0.10566000000E+00 0.  1.
        994   -1    0    0    0    0 -0.00000000000E+00 -0.00000000000E+00  0.11368683772E-12  0.17120000000E+03  0.17120000000E+03 0.  0.
         13    1    1    2    0    0  0.20403321616E+02 -0.21570353740E+01  0.18865452311E+02  0.27872294299E+02  0.10566000000E+00 0.  1.
        994    1    1    2    0    0 -0.24104082091E+02  0.31815426593E+01  0.11120918897E+02  0.17327505252E+03  0.17120000000E+03 0.  0.
        998    1    1    2    0    0  0.37007604746E+01 -0.10245072853E+01  0.14700136251E+04  0.14700526532E+04  0.10000000000E+02 0.  1.
</event>
<event>
 5    1  0.1252945E-008  0.3859132E+03  0.7957747E-01  0.3425808E+00
         13   -1    0    0    0    0  0.00000000000E+00  0.00000000000E+00  0.14999999963E+04  0.15000000000E+04  0.10566000000E+00 0.  1.
        994   -1    0    0    0    0 -0.00000000000E+00 -0.00000000000E+00  0.11368683772E-12  0.17120000000E+03  0.17120000000E+03 0.  0.
         13    1    1    2    0    0 -0.50634509978E+00  0.10747047036E+02  0.48938228606E+02  0.50107053281E+02  0.10566000000E+00 0.  1.
        994    1    1    2    0    0 -0.80588761672E+00 -0.95738312361E+01  0.14801485706E+01  0.17147576662E+03  0.17120000000E+03 0.  0.
        998    1    1    2    0    0  0.13122327165E+01 -0.11732157994E+01  0.14495816191E+04  0.14496171801E+04  0.10000000000E+02 0.  1.
</event>
<event>
 5    1  0.1252945E-008  0.3817378E+03  0.7957747E-01  0.3443626E+00
         13   -1    0    0    0    0  0.00000000000E+00  0.00000000000E+00  0.14999999963E+04  0.15000000000E+04  0.10566000000E+00 0. -1.
        994   -1    0    0    0    0 -0.00000000000E+00 -0.00000000000E+00  0.11368683772E-12  0.17120000000E+03  0.17120000000E+03 0.  0.
         13    1    1    2    0    0 -0.28574575905E+01 -0.11492940738E+02  0.20256189654E+02  0.23464380112E+02  0.10566000000E+00 0. -1.
        994    1    1    2    0    0  0.22461092816E+01  0.74012032593E+01  0.34573502086E+01  0.17140949824E+03  0.17120000000E+03 0.  0.
        998    1    1    2    0    0  0.61134830891E+00  0.40917374787E+01  0.14762864564E+04  0.14763261216E+04  0.10000000000E+02 0. -1.
</event>
<event>
 5    1  0.1252945E-008  0.3843602E+03  0.7957747E-01  0.3432390E+00
         13   -1    0    0    0    0  0.00000000000E+00  0.00000000000E+00  0.14999999963E+04  0.15000000000E+04  0.10566000000E+00 0.  1.
        994   -1    0    0    0    0 -0.00000000000E+00 -0.00000000000E+00  0.11368683772E-12  0.17120000000E+03  0.17120000000E+03 0.  0.
         13    1    1    2    0    0  0.98091665923E+01 -0.18980316114E+02  0.12071278704E+03  0.12258898918E+03  0.10566000000E+00 0.  1.
        994    1    1    2    0    0  0.13713419019E+01  0.11189127960E+02  0.23670049406E+01  0.17158706209E+03  0.17120000000E+03 0.  0.
        998    1    1    2    0    0 -0.11180508494E+02  0.77911881543E+01  0.13769202043E+04  0.13770239487E+04  0.10000000000E+02 0.  1.
</event>
<event>
 5    1  0.1252945E-008  0.3851240E+03  0.7957747E-01  0.3429146E+00
         13   -1    0    0    0    0  0.00000000000E+00  0.00000000000E+00  0.14999999963E+04  0.15000000000E+04  0.10566000000E+00 0. -1.
        994   -1    0    0    0    0 -0.00000000000E+00 -0.00000000000E+00  0.11368683772E-12  0.17120000000E+03  0.17120000000E+03 0.  0.
         13    1    1    2    0    0 -0.14425702243E+02 -0.14507081436E+02  0.12305618026E+03  0.12474530436E+03  0.10566000000E+00 0. -1.
        994    1    1    2    0    0  0.76648654020E+01  0.23950826833E+02  0.36502195159E+01  0.17307557994E+03  0.17120000000E+03 0.  0.
        998    1    1    2    0    0  0.67608368413E+01 -0.94437453967E+01  0.13732935965E+04  0.13733791157E+04  0.10000000000E+02 0. -1.
</event>
<event>
 5    1  0.1252945E-008  0.3819417E+03  0.7957747E-01  0.3442747E+00
         13   -1    0    0    0    0  0.00000000000E+00  0.00000000000E+00  0.14999999963E+04  0.15000000000E+04  0.10566000000E+00 0.  1.
        994   -1    0    0    0    0 -0.00000000000E+00 -0.00000000000E+00  0.11368683772E-12  0.17120000000E+03  0.17120000000E+03 0.  0.
         13    1    1    2    0    0 -0.99585696211E+01  0.10294277190E+02  0.30617924825E+02  0.33802569967E+02  0.10566000000E+00 0.  1.
        994    1    1    2    0    0  0.13120713684E+02 -0.10350974968E+02  0.40844282059E+01  0.17206225142E+03  0.17120000000E+03 0.  0.
        998    1    1    2    0    0 -0.31621440633E+01  0.56697778398E-01  0.14652976432E+04  0.14653351786E+04  0.10000000000E+02 0.  1.
</event>
<event>
 5    1  0.1252945E-008  0.3828371E+03  0.7957747E-01  0.3438897E+00
         13   -1    0    0    0    0  0.00000000000E+00  0.00000000000E+00  0.14999999963E+04  0.15000000000E+04  0.10566000000E+00 0.  1.
        994   -1    0    0    0    0 -0.00000000000E+00 -0.00000000000E+00  0.11368683772E-12  0.17120000000E+03  0.17120000000E+03 0.  0.
         13    1    1    2    0    0  0.17062477568E+02 -0.96216592569E+01  0.69221475288E+02  0.71939754467E+02  0.10566000000E+00 0.  1.
        994    1    1    2    0    0 -0.13854286789E+02  0.56602244434E+01  0.34499336455E+01  0.17188752557E+03  0.17120000000E+03 0.  0.
        998    1    1    2    0    0 -0.32081907789E+01  0.39614348135E+01  0.14273285873E+04  0.14273727200E+04  0.10000000000E+02 0.  1.
</event>
<event>
 5    1  0.1252945E-008  0.3844967E+03  0.7957747E-01  0.3431810E+00
         13   -1    0    0    0    0  0.00000000000E+00  0.00000000000E+00  0.14999999963E+04  0.15000000000E+04  0.10566000000E+00 0. -1.
        994   -1    0    0    0    0 -0.00000000000E+00 -0.00000000000E+00  0.11368683772E-12  0.17120000000E+03  0.17120000000E+03 0.  0.
         13    1    1    2    0    0 -0.37099398312E+01  0.15362521687E+02  0.62958090856E+02  0.64911502019E+02  0.10566000000E+00 0. -1.
        994    1    1    2    0    0  0.12027255138E+02 -0.16707149883E+02  0.32774227361E+01  0.17246438828E+03  0.17120000000E+03 0.  0.
        998    1    1    2    0    0 -0.83173153064E+01  0.13446281958E+01  0.14337644827E+04  0.14338241097E+04  0.10000000000E+02 0. -1.
</event>
<event>
 5    1  0.1252945E-008  0.3858835E+03  0.7957747E-01  0.3425934E+00
         13   -1    0    0    0    0  0.00000000000E+00  0.00000000000E+00  0.14999999963E+04  0.15000000000E+04  0.10566000000E+00 0.  1.
        994   -1    0    0    0    0 -0.00000000000E+00 -0.00000000000E+00  0.11368683772E-12  0.17120000000E+03  0.17120000000E+03 0.  0.
         13    1    1    2    0    0  0.25391731608E+00 -0.10128090938E+02  0.45490725337E+02  0.46605364023E+02  0.10566000000E+00 0.  1.
        994    1    1    2    0    0  0.95615849026E+01 -0.17005554250E+00  0.14920663577E+01  0.17147337720E+03  0.17120000000E+03 0.  0.
        998    1    1    2    0    0 -0.98155022187E+01  0.10298146480E+02  0.14530172046E+04  0.14531212588E+04  0.10000000000E+02 0.  1.
</event>
<event>
 5    1  0.1252945E-008  0.3817504E+03  0.7957747E-01  0.3443572E+00
         13   -1    0    0    0    0  0.00000000000E+00  0.00000000000E+00  0.14999999963E+04  0.15000000000E+04  0.10566000000E+00 0. -1.
        994   -1    0    0    0    0 -0.00000000000E+00 -0.00000000000E+00  0.11368683772E-12  0.17120000000E+03  0.17120000000E+03 0.  0.
         13    1    1    2    0    0  0.23336888564E+02  0.24051555337E+02  0.24941541697E+02  0.41775343784E+02  0.10566000000E+00 0. -1.
        994    1    1    2    0    0 -0.25452311569E+02 -0.23444460405E+02  0.21671441195E+02  0.17600157457E+03  0.17120000000E+03 0.  0.
        998    1    1    2    0    0  0.21154230046E+01 -0.60709493266E+00  0.14533870134E+04  0.14534230816E+04  0.10000000000E+02 0. -1.
</event>
<event>
 5    1  0.1252945E-008  0.3821914E+03  0.7957747E-01  0.3441672E+00
         13   -1    0    0    0    0  0.00000000000E+00  0.00000000000E+00  0.14999999963E+04  0.15000000000E+04  0.10566000000E+00 0.  1.
        994   -1    0    0    0    0 -0.00000000000E+00 -0.00000000000E+00  0.11368683772E-12  0.17120000000E+03  0.17120000000E+03 0.  0.
         13    1    1    2    0    0  0.11664289094E+02  0.68612456566E+01  0.28839361924E+02  0.31856746417E+02  0.10566000000E+00 0.  1.
        994    1    1    2    0    0 -0.99984231565E+01 -0.64708543773E+01  0.35019253230E+01  0.17164947976E+03  0.17120000000E+03 0.  0.
        998    1    1    2    0    0 -0.16658659375E+01 -0.39039127936E+00  0.14676587090E+04  0.14676937738E+04  0.10000000000E+02 0.  1.
</event>
<event>
 5    1  0.1252945E-008  0.3825640E+03  0.7957747E-01  0.3440070E+00
         13   -1    0    0    0    0  0.00000000000E+00  0.00000000000E+00  0.14999999963E+04  0.15000000000E+04  0.10566000000E+00 0. -1.
        994   -1    0    0    0    0 -0.00000000000E+00 -0.00000000000E+00  0.11368683772E-12  0.17120000000E+03  0.17120000000E+03 0.  0.
         13    1    1    2    0    0  0.57016805834E+01 -0.11015850491E+02  0.25766305157E+02  0.28596709059E+02  0.10566000000E+00 0. -1.
        994    1    1    2    0    0  0.11136532059E+02  0.18586209419E+02  0.44021617236E+01  0.17262180788E+03  0.17120000000E+03 0.  0.
        998    1    1    2    0    0 -0.16838212642E+02 -0.75703589281E+01  0.14698315294E+04  0.14699814831E+04  0.10000000000E+02 0. -1.
</event>
<event>
 5    1  0.1252945E-008  0.3728308E+03  0.7957747E-01  0.3482982E+00
         13   -1    0    0    0    0  0.00000000000E+00  0.00000000000E+00  0.14999999963E+04  0.15000000000E+04  0.10566000000E+00 0.  1.
        994   -1    0    0    0    0 -0.00000000000E+00 -0.00000000000E+00  0.11368683772E-12  0.17120000000E+03  0.17120000000E+03 0.  0.
         13    1    1    2    0    0 -0.10706495852E+03  0.17575161610E+02  0.54658557725E+03  0.55725003012E+03  0.10566000000E+00 0.  1.
        994    1    1    2    0    0  0.91943752634E+02 -0.25164757402E+02  0.39583838062E+02  0.19990807612E+03  0.17120000000E+03 0.  0.
        998    1    1    2    0    0  0.15121205882E+02  0.75895957916E+01  0.91383058097E+03  0.91404189376E+03  0.10000000000E+02 0.  1.
</event>
<event>
 5    1  0.1252945E-008  0.3855192E+03  0.7957747E-01  0.3427473E+00
         13   -1    0    0    0    0  0.00000000000E+00  0.00000000000E+00  0.14999999963E+04  0.15000000000E+04  0.10566000000E+00 0.  1.
        994   -1    0    0    0    0 -0.00000000000E+00 -0.00000000000E+00  0.11368683772E-12  0.17120000000E+03  0.17120000000E+03 0.  0.
         13    1    1    2    0    0 -0.10264987847E+02 -0.16299809139E+01  0.40407186927E+02  0.41722640529E+02  0.10566000000E+00 0.  1.
        994    1    1    2    0    0  0.27822255778E+01  0.13303944702E+00  0.13980704816E+01  0.17122836529E+03  0.17120000000E+03 0.  0.
        998    1    1    2    0    0  0.74827622688E+01  0.14969414669E+01  0.14581947389E+04  0.14582489942E+04  0.10000000000E+02 0.  1.
</event>
<event>
 5    1  0.1252945E-008  0.3839078E+03  0.7957747E-01  0.3434318E+00
         13   -1    0    0    0    0  0.00000000000E+00  0.00000000000E+00  0.14999999963E+04  0.15000000000E+04  0.10566000000E+00 0. -1.
        994   -1    0    0    0    0 -0.00000000000E+00 -0.00000000000E+00  0.11368683772E-12  0.17120000000E+03  0.17120000000E+03 0.  0.
         13    1    1    2    0    0 -0.17681730971E+02 -0.13684637601E+02  0.11390047810E+03  0.11607429945E+03  0.10566000000E+00 0. -1.
        994    1    1    2    0    0  0.90140805036E+01  0.12256057233E+02  0.29376409436E+01  0.17189977987E+03  0.17120000000E+03 0.  0.
        998    1    1    2    0    0  0.86676504676E+01  0.14285803676E+01  0.13831618772E+04  0.13832259207E+04  0.10000000000E+02 0. -1.
</event>
<event>
 5    1  0.1252945E-008  0.3767587E+03  0.7957747E-01  0.3465395E+00
         13   -1    0    0    0    0  0.00000000000E+00  0.00000000000E+00  0.14999999963E+04  0.15000000000E+04  0.10566000000E+00 0. -1.
        994   -1    0    0    0    0 -0.00000000000E+00 -0.00000000000E+00  0.11368683772E-12  0.17120000000E+03  0.17120000000E+03 0.  0.
         13    1    1    2    0    0 -0.13550041317E+02  0.18603424397E+02  0.43304759528E+02  0.49040844006E+02  0.10566000000E+00 0. -1.
        994    1    1    2    0    0  0.85284349506E+01 -0.14978004151E+02  0.67828703319E+01  0.17219907706E+03  0.17120000000E+03 0.  0.
        998    1    1    2    0    0  0.50216063666E+01 -0.36254202461E+01  0.14499123664E+04  0.14499600789E+04  0.10000000000E+02 0. -1.
</event>
<event>
 5    1  0.1252945E-008  0.3847897E+03  0.7957747E-01  0.3430565E+00
         13   -1    0    0    0    0  0.00000000000E+00  0.00000000000E+00  0.14999999963E+04  0.15000000000E+04  0.10566000000E+00 0. -1.
        994   -1    0    0    0    0 -0.00000000000E+00 -0.00000000000E+00  0.11368683772E-12  0.17120000000E+03  0.17120000000E+03 0.  0.
         13    1    1    2    0    0 -0.19319336214E+01 -0.11990141952E+02  0.41523630888E+02  0.43263367388E+02  0.10566000000E+00 0. -1.
        994    1    1    2    0    0 -0.44967698711E+01  0.12876934295E+02  0.23470384212E+01  0.17175850769E+03  0.17120000000E+03 0.  0.
        998    1    1    2    0    0  0.64287034925E+01 -0.88679234290E+00  0.14561293270E+04  0.14561781249E+04  0.10000000000E+02 0. -1.
</event>
<event>
 5    1  0.1252945E-008  0.3697671E+03  0.7957747E-01  0.3496962E+00
         13   -1    0    0    0    0  0.00000000000E+00  0.00000000000E+00  0.14999999963E+04  0.15000000000E+04  0.10566000000E+00 0. -1.
        994   -1    0    0    0    0 -0.00000000000E+00 -0.00000000000E+00  0.11368683772E-12  0.17120000000E+03  0.17120000000E+03 0.  0.
         13    1    1    2    0    0  0.10803432080E+03  0.97236723343E+02  0.49011754745E+03  0.51121582166E+03  0.10566000000E+00 0. -1.
        994    1    1    2    0    0 -0.11563147477E+03 -0.14500894512E+03  0.13986418998E+03  0.28856483459E+03  0.17120000000E+03 0.  0.
        998    1    1    2    0    0  0.75971539710E+01  0.47772221780E+02  0.87001825886E+03  0.87141934375E+03  0.10000000000E+02 0. -1.
</event>
<event>
 5    1  0.1252945E-008  0.4099480E+03  0.7957747E-01  0.3330299E+00
         13   -1    0    0    0    0  0.00000000000E+00  0.00000000000E+00  0.14999999963E+04  0.15000000000E+04  0.10566000000E+00 0. -1.
        994   -1    0    0    0    0 -0.00000000000E+00 -0.00000000000E+00  0.11368683772E-12  0.17120000000E+03  0.17120000000E+03 0.  0.
         13    1    1    2    0    0 -0.93467245871E+02 -0.24710095151E+02  0.13271346625E+03  0.16419375792E+03  0.10566000000E+00 0. -1.
        994    1    1    2    0    0  0.61675617201E+02 -0.13615256797E+01  0.49564363421E+02  0.18860488231E+03  0.17120000000E+03 0.  0.
        998    1    1    2    0    0  0.31791628669E+02  0.26071620831E+02  0.13177221666E+04  0.13184013598E+04  0.10000000000E+02 0. -1.
</event>
<event>
 5    1  0.1252945E-008  0.3821221E+03  0.7957747E-01  0.3441970E+00
         13   -1    0    0    0    0  0.00000000000E+00  0.00000000000E+00  0.14999999963E+04  0.15000000000E+04  0.10566000000E+00 0. -1.
        994   -1    0    0    0    0 -0.00000000000E+00 -0.00000000000E+00  0.11368683772E-12  0.17120000000E+03  0.17120000000E+03 0.  0.
         13    1    1    2    0    0  0.21278755789E+02 -0.20219317756E+02  0.13462847068E+03  0.13779130067E+03  0.10566000000E+00 0. -1.
        994    1    1    2    0    0 -0.15571126068E+02  0.16723100608E+02  0.48009068617E+01  0.17278486846E+03  0.17120000000E+03 0.  0.
        998    1    1    2    0    0 -0.57076297203E+01  0.34962171482E+01  0.13605706187E+04  0.13606238309E+04  0.10000000000E+02 0. -1.
</event>
<event>
 5    1  0.1252945E-008  0.3844099E+03  0.7957747E-01  0.3432179E+00
         13   -1    0    0    0    0  0.00000000000E+00  0.00000000000E+00  0.14999999963E+04  0.15000000000E+04  0.10566000000E+00 0. -1.
        994   -1    0    0    0    0 -0.00000000000E+00 -0.00000000000E+00  0.11368683772E-12  0.17120000000E+03  0.17120000000E+03 0.  0.
         13    1    1    2    0    0  0.44821414575E+01 -0.19097661802E+02  0.95594362226E+02  0.97586390095E+02  0.10566000000E+00 0. -1.
        994    1    1    2    0    0 -0.11400155650E+02  0.16401339323E+02  0.32390828054E+01  0.17239170264E+03  0.17120000000E+03 0.  0.
        998    1    1    2    0    0  0.69180141927E+01  0.26963224788E+01  0.14011665512E+04  0.14012219073E+04  0.10000000000E+02 0. -1.
</event>
<event>
 5    1  0.1252945E-008  0.3718236E+03  0.7957747E-01  0.3487552E+00
         13   -1    0    0    0    0  0.00000000000E+00  0.00000000000E+00  0.14999999963E+04  0.15000000000E+04  0.10566000000E+00 0. -1.
        994   -1    0    0    0    0 -0.00000000000E+00 -0.00000000000E+00  0.11368683772E-12  0.17120000000E+03  0.17120000000E+03 0.  0.
         13    1    1    2    0    0 -0.16773784591E+02 -0.33449551303E+01  0.13865349240E+02  0.22018347983E+02  0.10566000000E+00 0. -1.
        994    1    1    2    0    0  0.14381728626E+02  0.11887791327E+01  0.90348735021E+01  0.17204451823E+03  0.17120000000E+03 0.  0.
        998    1    1    2    0    0  0.23920559655E+01  0.21561759976E+01  0.14770997735E+04  0.14771371338E+04  0.10000000000E+02 0. -1.
</event>
<event>
 5    1  0.1252945E-008  0.3826730E+03  0.7957747E-01  0.3439601E+00
         13   -1    0    0    0    0  0.00000000000E+00  0.00000000000E+00  0.14999999963E+04  0.15000000000E+04  0.10566000000E+00 0. -1.
        994   -1    0    0    0    0 -0.00000000000E+00 -0.00000000000E+00  0.11368683772E-12  0.17120000000E+03  0.17120000000E+03 0.  0.
         13    1    1    2    0    0  0.10585067435E+02  0.10460734012E+02  0.37938545125E+02  0.40753097783E+02  0.10566000000E+00 0. -1.
        994    1    1    2    0    0 -0.12896508896E+02 -0.90370552502E+01  0.36120369793E+01  0.17196067900E+03  0.17120000000E+03 0.  0.
        998    1    1    2    0    0  0.23114414619E+01 -0.14236787619E+01  0.14584494142E+04  0.14584862232E+04  0.10000000000E+02 0. -1.
</event>
<event>
 5    1  0.1252945E-008  0.3830978E+03  0.7957747E-01  0.3437780E+00
         13   -1    0    0    0    0  0.00000000000E+00  0.00000000000E+00  0.14999999963E+04  0.15000000000E+04  0.10566000000E+00 0.  1.
        994   -1    0    0    0    0 -0.00000000000E+00 -0.00000000000E+00  0.11368683772E-12  0.17120000000E+03  0.17120000000E+03 0.  0.
         13    1    1    2    0    0  0.95589934501E+00  0.21772292652E+02  0.91216817760E+02  0.93784142994E+02  0.10566000000E+00 0.  1.
        994    1    1    2    0    0 -0.27662129351E+01 -0.13892547596E+02  0.32417571901E+01  0.17181560989E+03  0.17120000000E+03 0.  0.
        998    1    1    2    0    0  0.18103135900E+01 -0.78797450560E+01  0.14055414213E+04  0.14056002471E+04  0.10000000000E+02 0.  1.
</event>
<event>
 5    1  0.1252945E-008  0.3847663E+03  0.7957747E-01  0.3430664E+00
         13   -1    0    0    0    0  0.00000000000E+00  0.00000000000E+00  0.14999999963E+04  0.15000000000E+04  0.10566000000E+00 0.  1.
        994   -1    0    0    0    0 -0.00000000000E+00 -0.00000000000E+00  0.11368683772E-12  0.17120000000E+03  0.17120000000E+03 0.  0.
         13    1    1    2    0    0 -0.85978293745E+01  0.11830705271E+02  0.66436031039E+02  0.68026800906E+02  0.10566000000E+00 0.  1.
        994    1    1    2    0    0 -0.34218410487E+01  0.19573401664E+01  0.17973344633E+01  0.17125481187E+03  0.17120000000E+03 0.  0.
        998    1    1    2    0    0  0.12019670423E+02 -0.13788045437E+02  0.14317666308E+04  0.14319183872E+04  0.10000000000E+02 0.  1.
</event>
<event>
 5    1  0.1252945E-008  0.3836926E+03  0.7957747E-01  0.3435236E+00
         13   -1    0    0    0    0  0.00000000000E+00  0.00000000000E+00  0.14999999963E+04  0.15000000000E+04  0.10566000000E+00 0.  1.
        994   -1    0    0    0    0 -0.00000000000E+00 -0.00000000000E+00  0.11368683772E-12  0.17120000000E+03  0.17120000000E+03 0.  0.
         13    1    1    2    0    0 -0.17467503198E+02  0.10374963727E+01  0.65253976666E+02  0.67559475290E+02  0.10566000000E+00 0.  1.
        994    1    1    2    0    0  0.15029032371E+02 -0.14023704907E+01  0.30334369114E+01  0.17189089620E+03  0.17120000000E+03 0.  0.
        998    1    1    2    0    0  0.24384708269E+01  0.36487411791E+00  0.14317125827E+04  0.14317496285E+04  0.10000000000E+02 0.  1.
</event>
<event>
 5    1  0.1252945E-008  0.3079135E+03  0.7957747E-01  0.3841095E+00
         13   -1    0    0    0    0  0.00000000000E+00  0.00000000000E+00  0.14999999963E+04  0.15000000000E+04  0.10566000000E+00 0. -1.
        994   -1    0    0    0    0 -0.00000000000E+00 -0.00000000000E+00  0.11368683772E-12  0.17120000000E+03  0.17120000000E+03 0.  0.
         13    1    1    2    0    0  0.15090237496E+03  0.16689004573E+03  0.60977370493E+03  0.64995984224E+03  0.10566000000E+00 0. -1.
        994    1    1    2    0    0 -0.14305917913E+03 -0.16921444703E+03  0.23408636320E+03  0.36497304456E+03  0.17120000000E+03 0.  0.
        998    1    1    2    0    0 -0.78431958268E+01  0.23244013037E+01  0.65613992815E+03  0.65626711320E+03  0.10000000000E+02 0.  0.
</event>
<event>
 5    1  0.1252945E-008  0.3823005E+03  0.7957747E-01  0.3441202E+00
         13   -1    0    0    0    0  0.00000000000E+00  0.00000000000E+00  0.14999999963E+04  0.15000000000E+04  0.10566000000E+00 0. -1.
        994   -1    0    0    0    0 -0.00000000000E+00 -0.00000000000E+00  0.11368683772E-12  0.17120000000E+03  0.17120000000E+03 0.  0.
         13    1    1    2    0    0 -0.16605396511E+02 -0.12839288421E+02  0.73210653039E+02  0.76160340091E+02  0.10566000000E+00 0. -1.
        994    1    1    2    0    0  0.92973492875E+01  0.91519977321E+01  0.35412261345E+01  0.17173287411E+03  0.17120000000E+03 0.  0.
        998    1    1    2    0    0  0.73080472233E+01  0.36872906893E+01  0.14232481171E+04  0.14233067858E+04  0.10000000000E+02 0. -1.
</event>
<event>
 5    1  0.1252945E-008  0.3837059E+03  0.7957747E-01  0.3435179E+00
         13   -1    0    0    0    0  0.00000000000E+00  0.00000000000E+00  0.14999999963E+04  0.15000000000E+04  0.10566000000E+00 0. -1.
        994   -1    0    0    0    0 -0.00000000000E+00 -0.00000000000E+00  0.11368683772E-12  0.17120000000E+03  0.17120000000E+03 0.  0.
         13    1    1    2    0    0 -0.19740387980E+02 -0.25011746837E+01  0.86757020535E+02  0.89009721764E+02  0.10566000000E+00 0. -1.
        994    1    1    2    0    0  0.11587012617E+02  0.57140267760E+01  0.28253950519E+01  0.17171002248E+03  0.17120000000E+03 0.  0.
        998    1    1    2    0    0  0.81533753634E+01 -0.32128520923E+01  0.14104175807E+04  0.14104802558E+04  0.10000000000E+02 0. -1.
</event>
<event>
 5    1  0.1252945E-008  0.3838493E+03  0.7957747E-01  0.3434567E+00
         13   -1    0    0    0    0  0.00000000000E+00  0.00000000000E+00  0.14999999963E+04  0.15000000000E+04  0.10566000000E+00 0.  1.
        994   -1    0    0    0    0 -0.00000000000E+00 -0.00000000000E+00  0.11368683772E-12  0.17120000000E+03  0.17120000000E+03 0.  0.
         13    1    1    2    0    0  0.46808535932E+01 -0.21427982228E+02  0.10328838207E+03  0.10559152356E+03  0.10566000000E+00 0.  1.
        994    1    1    2    0    0 -0.83675878790E+00  0.21450078240E+02  0.37251062975E+01  0.17258077077E+03  0.17120000000E+03 0.  0.
        998    1    1    2    0    0 -0.38440948053E+01 -0.22096012499E-01  0.13929865079E+04  0.13930277057E+04  0.10000000000E+02 0.  1.
</event>
<event>
 5    1  0.1252945E-008  0.3710045E+03  0.7957747E-01  0.3491287E+00
         13   -1    0    0    0    0  0.00000000000E+00  0.00000000000E+00  0.14999999963E+04  0.15000000000E+04  0.10566000000E+00 0. -1.
        994   -1    0    0    0    0 -0.00000000000E+00 -0.00000000000E+00  0.11368683772E-12  0.17120000000E+03  0.17120000000E+03 0.  0.
         13    1    1    2    0    0 -0.28519932777E+02 -0.17108851518E+01  0.39586577279E+02  0.48820302726E+02  0.10566000000E+00 0. -1.
        994    1    1    2    0    0  0.49140603963E+02  0.26026545938E+02  0.19476154722E+02  0.18105507630E+03  0.17120000000E+03 0.  0.
        998    1    1    2    0    0 -0.20620671186E+02 -0.24315660786E+02  0.14409372643E+04  0.14413246210E+04  0.10000000000E+02 0. -1.
</event>
<event>
 5    1  0.1252945E-008  0.3854913E+03  0.7957747E-01  0.3427591E+00
         13   -1    0    0    0    0  0.00000000000E+00  0.00000000000E+00  0.14999999963E+04  0.15000000000E+04  0.10566000000E+00 0. -1.
        994   -1    0    0    0    0 -0.00000000000E+00 -0.00000000000E+00  0.11368683772E-12  0.17120000000E+03  0.17120000000E+03 0.  0.
         13    1    1    2    0    0  0.11865577858E+02 -0.66296768047E+01  0.64332255617E+02  0.65752527170E+02  0.10566000000E+00 0. -1.
        994    1    1    2    0    0 -0.21447347010E+01  0.28294011350E+02  0.40345501686E+01  0.17358245464E+03  0.17120000000E+03 0.  0.
        998    1    1    2    0    0 -0.97208431570E+01 -0.21664334545E+02  0.14316331905E+04  0.14318650182E+04  0.10000000000E+02 0. -1.
</event>
<event>
 5    1  0.1252945E-008  0.3858478E+03  0.7957747E-01  0.3426085E+00
         13   -1    0    0    0    0  0.00000000000E+00  0.00000000000E+00  0.14999999963E+04  0.15000000000E+04  0.10566000000E+00 0. -1.
        994   -1    0    0    0    0 -0.00000000000E+00 -0.00000000000E+00  0.11368683772E-12  0.17120000000E+03  0.17120000000E+03 0.  0.
         13    1    1    2    0    0  0.12498401681E+02 -0.61311169696E+01  0.74902541857E+02  0.76185317356E+02  0.10566000000E+00 0. -1.
        994    1    1    2    0    0 -0.16099373281E+02  0.10355929750E+02  0.24125099957E+01  0.17228376391E+03  0.17120000000E+03 0.  0.
        998    1    1    2    0    0  0.36009715996E+01 -0.42248127805E+01  0.14226849444E+04  0.14227309187E+04  0.10000000000E+02 0. -1.
</event>
<event>
 5    1  0.1252945E-008  0.3796103E+03  0.7957747E-01  0.3452857E+00
         13   -1    0    0    0    0  0.00000000000E+00  0.00000000000E+00  0.14999999963E+04  0.15000000000E+04  0.10566000000E+00 0. -1.
        994   -1    0    0    0    0 -0.00000000000E+00 -0.00000000000E+00  0.11368683772E-12  0.17120000000E+03  0.17120000000E+03 0.  0.
         13    1    1    2    0    0 -0.35861042771E+02 -0.38185684010E+02  0.31674974533E+03  0.32105229042E+03  0.10566000000E+00 0. -1.
        994    1    1    2    0    0  0.15683564911E+02  0.25620987722E+02  0.73564373417E+01  0.17397116540E+03  0.17120000000E+03 0.  0.
        998    1    1    2    0    0  0.20177477860E+02  0.12564696289E+02  0.11758938136E+04  0.11761765442E+04  0.10000000000E+02 0. -1.
</event>
<event>
 5    1  0.1252945E-008  0.3765676E+03  0.7957747E-01  0.3466241E+00
         13   -1    0    0    0    0  0.00000000000E+00  0.00000000000E+00  0.14999999963E+04  0.15000000000E+04  0.10566000000E+00 0. -1.
        994   -1    0    0    0    0 -0.00000000000E+00 -0.00000000000E+00  0.11368683772E-12  0.17120000000E+03  0.17120000000E+03 0.  0.
         13    1    1    2    0    0 -0.29058047219E+02 -0.84520830524E+01  0.72669783821E+02  0.78719225484E+02  0.10566000000E+00 0. -1.
        994    1    1    2    0    0  0.29735082440E+02  0.47279411560E+01  0.89472647292E+01  0.17405752527E+03  0.17120000000E+03 0.  0.
        998    1    1    2    0    0 -0.67703522056E+00  0.37241418965E+01  0.14183829477E+04  0.14184232493E+04  0.10000000000E+02 0. -1.
</event>
<event>
 5    1  0.1252945E-008  0.3830582E+03  0.7957747E-01  0.3437950E+00
         13   -1    0    0    0    0  0.00000000000E+00  0.00000000000E+00  0.14999999963E+04  0.15000000000E+04  0.10566000000E+00 0.  1.
        994   -1    0    0    0    0 -0.00000000000E+00 -0.00000000000E+00  0.11368683772E-12  0.17120000000E+03  0.17120000000E+03 0.  0.
         13    1    1    2    0    0 -0.31821627935E+01  0.24250824932E+02  0.11152119592E+03  0.11417187470E+03  0.10566000000E+00 0.  1.
        994    1    1    2    0    0 -0.22714521830E+01 -0.19339161090E+02  0.38531226383E+01  0.17234688625E+03  0.17120000000E+03 0.  0.
        998    1    1    2    0    0  0.54536149765E+01 -0.49116638413E+01  0.13846256777E+04  0.13846812390E+04  0.10000000000E+02 0.  1.
</event>
<event>
 5    1  0.1252945E-008  0.3734768E+03  0.7957747E-01  0.3480063E+00
         13   -1    0    0    0    0  0.00000000000E+00  0.00000000000E+00  0.14999999963E+04  0.15000000000E+04  0.10566000000E+00 0.  1.
        994   -1    0    0    0    0 -0.00000000000E+00 -0.00000000000E+00  0.11368683772E-12  0.17120000000E+03  0.17120000000E+03 0.  0.
         13    1    1    2    0    0  0.50933304777E+02  0.68757803059E+01  0.16977175397E+03  0.17738076981E+03  0.10566000000E+00 0.  1.
        994    1    1    2    0    0 -0.32039928463E+02 -0.32279520638E+02  0.14563816606E+02  0.17773595366E+03  0.17120000000E+03 0.  0.
        998    1    1    2    0    0 -0.18893376314E+02  0.25403740332E+02  0.13156644257E+04  0.13160832765E+04  0.10000000000E+02 0.  1.
</event>
<event>
 5    1  0.1252945E-008  0.3815833E+03  0.7957747E-01  0.3444293E+00
         13   -1    0    0    0    0  0.00000000000E+00  0.00000000000E+00  0.14999999963E+04  0.15000000000E+04  0.10566000000E+00 0. -1.
        994   -1    0    0    0    0 -0.00000000000E+00 -0.00000000000E+00  0.11368683772E-12  0.17120000000E+03  0.17120000000E+03 0.  0.
         13    1    1    2    0    0  0.15863032554E+01  0.12527013612E+02  0.22722188711E+02  0.25995219789E+02  0.10566000000E+00 0. -1.
        994    1    1    2    0    0 -0.44728983001E+01 -0.61890272125E+01  0.35299772828E+01  0.17140656818E+03  0.17120000000E+03 0.  0.
        998    1    1    2    0    0  0.28865950448E+01 -0.63379863996E+01  0.14737478303E+04  0.14737982120E+04  0.10000000000E+02 0. -1.
</event>
<event>
 5    1  0.1252945E-008  0.3816069E+03  0.7957747E-01  0.3444192E+00
         13   -1    0    0    0    0  0.00000000000E+00  0.00000000000E+00  0.14999999963E+04  0.15000000000E+04  0.10566000000E+00 0. -1.
        994   -1    0    0    0    0 -0.00000000000E+00 -0.00000000000E+00  0.11368683772E-12  0.17120000000E+03  0.17120000000E+03 0.  0.
         13    1    1    2    0    0 -0.75104096802E+01  0.91547174623E+01  0.21058126773E+02  0.24159283363E+02  0.10566000000E+00 0. -1.
        994    1    1    2    0    0 -0.15028683733E+02  0.53636406828E+01  0.41713731957E+01  0.17199264615E+03  0.17120000000E+03 0.  0.
        998    1    1    2    0    0  0.22539093413E+02 -0.14518358145E+02  0.14747704963E+04  0.14750480705E+04  0.10000000000E+02 0. -1.
</event>
<event>
 5    1  0.1252945E-008  0.3802333E+03  0.7957747E-01  0.3450143E+00
         13   -1    0    0    0    0  0.00000000000E+00  0.00000000000E+00  0.14999999963E+04  0.15000000000E+04  0.10566000000E+00 0. -1.
        994   -1    0    0    0    0 -0.00000000000E+00 -0.00000000000E+00  0.11368683772E-12  0.17120000000E+03  0.17120000000E+03 0.  0.
         13    1    1    2    0    0  0.29802426754E+02  0.20467347462E+02  0.20480975412E+03  0.20797630514E+03  0.10566000000E+00 0. -1.
        994    1    1    2    0    0  0.93560860860E+01  0.23253253152E+01  0.43259673356E+01  0.17152579246E+03  0.17120000000E+03 0.  0.
        998    1    1    2    0    0 -0.39158512840E+02 -0.22792672777E+02  0.12908642748E+04  0.12916979024E+04  0.10000000000E+02 0. -1.
</event>
<event>
 5    1  0.1252945E-008  0.3759004E+03  0.7957747E-01  0.3469206E+00
         13   -1    0    0    0    0  0.00000000000E+00  0.00000000000E+00  0.14999999963E+04  0.15000000000E+04  0.10566000000E+00 0.  1.
        994   -1    0    0    0    0 -0.00000000000E+00 -0.00000000000E+00  0.11368683772E-12  0.17120000000E+03  0.17120000000E+03 0.  0.
         13    1    1    2    0    0 -0.39681939646E+02 -0.45255127830E+02  0.27635883854E+03  0.28283723541E+03  0.10566000000E+00 0.  1.
        994    1    1    2    0    0  0.48431573915E+02  0.12986020824E+02  0.14785668471E+02  0.17900365941E+03  0.17120000000E+03 0.  0.
        998    1    1    2    0    0 -0.87496342694E+01  0.32269107006E+02  0.12088554893E+04  0.12093591052E+04  0.10000000000E+02 0.  1.
</event>
<event>
 5    1  0.1252945E-008  0.3715244E+03  0.7957747E-01  0.3488914E+00
         13   -1    0    0    0    0  0.00000000000E+00  0.00000000000E+00  0.14999999963E+04  0.15000000000E+04  0.10566000000E+00 0. -1.
        994   -1    0    0    0    0 -0.00000000000E+00 -0.00000000000E+00  0.11368683772E-12  0.17120000000E+03  0.17120000000E+03 0.  0.
         13    1    1    2    0    0 -0.10138125602E+02  0.34231899877E+02  0.68659046384E+02  0.77386564560E+02  0.10566000000E+00 0. -1.
        994    1    1    2    0    0  0.13463227942E+02 -0.35202918705E+02  0.13376182512E+02  0.17580917567E+03  0.17120000000E+03 0.  0.
        998    1    1    2    0    0 -0.33251023393E+01  0.97101882740E+00  0.14179647674E+04  0.14180042598E+04  0.10000000000E+02 0. -1.
</event>
<event>
 5    1  0.1252945E-008  0.3820490E+03  0.7957747E-01  0.3442285E+00
         13   -1    0    0    0    0  0.00000000000E+00  0.00000000000E+00  0.14999999963E+04  0.15000000000E+04  0.10566000000E+00 0.  1.
        994   -1    0    0    0    0 -0.00000000000E+00 -0.00000000000E+00  0.11368683772E-12  0.17120000000E+03  0.17120000000E+03 0.  0.
         13    1    1    2    0    0 -0.12571592382E+02 -0.99434592658E+01  0.40075156476E+02  0.43161865666E+02  0.10566000000E+00 0.  1.
        994    1    1    2    0    0  0.17808669924E+02 -0.26039138139E+01  0.41787089605E+01  0.17219416570E+03  0.17120000000E+03 0.  0.
        998    1    1    2    0    0 -0.52370775416E+01  0.12547373080E+02  0.14557461308E+04  0.14558439686E+04  0.10000000000E+02 0.  1.
</event>
<event>
 5    1  0.1252945E-008  0.3771144E+03  0.7957747E-01  0.3463820E+00
         13   -1    0    0    0    0  0.00000000000E+00  0.00000000000E+00  0.14999999963E+04  0.15000000000E+04  0.10566000000E+00 0.  1.
        994   -1    0    0    0    0 -0.00000000000E+00 -0.00000000000E+00  0.11368683772E-12  0.17120000000E+03  0.17120000000E+03 0.  0.
         13    1    1    2    0    0 -0.23027661683E+02 -0.31563065158E+02  0.13151030833E+03  0.13719137234E+03  0.10566000000E+00 0.  1.
        994    1    1    2    0    0  0.33872723226E+02  0.97499621587E+01  0.98017416737E+01  0.17506552282E+03  0.17120000000E+03 0.  0.
        998    1    1    2    0    0 -0.10845061543E+02  0.21813102999E+02  0.13586879463E+04  0.13589431048E+04  0.10000000000E+02 0.  1.
</event>
<event>
 5    1  0.1252945E-008  0.3747473E+03  0.7957747E-01  0.3474354E+00
         13   -1    0    0    0    0  0.00000000000E+00  0.00000000000E+00  0.14999999963E+04  0.15000000000E+04  0.10566000000E+00 0. -1.
        994   -1    0    0    0    0 -0.00000000000E+00 -0.00000000000E+00  0.11368683772E-12  0.17120000000E+03  0.17120000000E+03 0.  0.
         13    1    1    2    0    0  0.86729681169E+01  0.12741644515E+02  0.26117504567E+01  0.15633370890E+02  0.10566000000E+00 0. -1.
        994    1    1    2    0    0 -0.97607635436E+01 -0.14843476893E+02  0.14594103496E+02  0.17273687843E+03  0.17120000000E+03 0.  0.
        998    1    1    2    0    0  0.10877954267E+01  0.21018323774E+01  0.14827941423E+04  0.14828297507E+04  0.10000000000E+02 0. -1.
</event>
<event>
 5    1  0.1252945E-008  0.3685745E+03  0.7957747E-01  0.3502468E+00
         13   -1    0    0    0    0  0.00000000000E+00  0.00000000000E+00  0.14999999963E+04  0.15000000000E+04  0.10566000000E+00 0. -1.
        994   -1    0    0    0    0 -0.00000000000E+00 -0.00000000000E+00  0.11368683772E-12  0.17120000000E+03  0.17120000000E+03 0.  0.
         13    1    1    2    0    0  0.86837337396E+02  0.25802700045E+02  0.42315838102E+03  0.43274649518E+03  0.10566000000E+00 0. -1.
        994    1    1    2    0    0 -0.33428531621E+02 -0.56742356469E+02  0.25430264976E+02  0.18518450292E+03  0.17120000000E+03 0.  0.
        998    1    1    2    0    0 -0.53408805775E+02  0.30939656424E+02  0.10514113503E+04  0.10532690019E+04  0.10000000000E+02 0. -1.
</event>
<event>
 5    1  0.1252945E-008  0.3814697E+03  0.7957747E-01  0.3444784E+00
         13   -1    0    0    0    0  0.00000000000E+00  0.00000000000E+00  0.14999999963E+04  0.15000000000E+04  0.10566000000E+00 0.  1.
        994   -1    0    0    0    0 -0.00000000000E+00 -0.00000000000E+00  0.11368683772E-12  0.17120000000E+03  0.17120000000E+03 0.  0.
         13    1    1    2    0    0 -0.67435922213E+01 -0.24887073905E+02  0.11238610924E+03  0.11530607615E+03  0.10566000000E+00 0.  1.
        994    1    1    2    0    0 -0.12566059154E+00 -0.89537715442E+01  0.36598938076E+01  0.17147309013E+03  0.17120000000E+03 0.  0.
        998    1    1    2    0    0  0.68692528128E+01  0.33840845449E+02  0.13839539932E+04  0.13844208337E+04  0.10000000000E+02 0.  1.
</event>
<event>
 5    1  0.1252945E-008  0.3695892E+03  0.7957747E-01  0.3497781E+00
         13   -1    0    0    0    0  0.00000000000E+00  0.00000000000E+00  0.14999999963E+04  0.15000000000E+04  0.10566000000E+00 0. -1.
        994   -1    0    0    0    0 -0.00000000000E+00 -0.00000000000E+00  0.11368683772E-12  0.17120000000E+03  0.17120000000E+03 0.  0.
         13    1    1    2    0    0  0.62014201221E+01 -0.37939316240E+02  0.61369672143E+02  0.72416138749E+02  0.10566000000E+00 0. -1.
        994    1    1    2    0    0 -0.45678408589E+01  0.44221828185E+02  0.17653380929E+02  0.17775690455E+03  0.17120000000E+03 0.  0.
        998    1    1    2    0    0 -0.16335792632E+01 -0.62825119444E+01  0.14209769432E+04  0.14210269567E+04  0.10000000000E+02 0. -1.
</event>
<event>
 5    1  0.1252945E-008  0.3773385E+03  0.7957747E-01  0.3462830E+00
         13   -1    0    0    0    0  0.00000000000E+00  0.00000000000E+00  0.14999999963E+04  0.15000000000E+04  0.10566000000E+00 0. -1.
        994   -1    0    0    0    0 -0.00000000000E+00 -0.00000000000E+00  0.11368683772E-12  0.17120000000E+03  0.17120000000E+03 0.  0.
         13    1    1    2    0    0  0.39869977157E+02  0.25495920956E+02  0.18658249905E+03  0.19249077167E+03  0.10566000000E+00 0. -1.
        994    1    1    2    0    0 -0.36400230111E+02 -0.18333638440E+02  0.11105522746E+02  0.17633454479E+03  0.17120000000E+03 0.  0.
        998    1    1    2    0    0 -0.34697470454E+01 -0.71622825164E+01  0.13023119745E+04  0.13023746835E+04  0.10000000000E+02 0. -1.
</event>
<event>
 5    1  0.1252945E-008  0.3844889E+03  0.7957747E-01  0.3431843E+00
         13   -1    0    0    0    0  0.00000000000E+00  0.00000000000E+00  0.14999999963E+04  0.15000000000E+04  0.10566000000E+00 0. -1.
        994   -1    0    0    0    0 -0.00000000000E+00 -0.00000000000E+00  0.11368683772E-12  0.17120000000E+03  0.17120000000E+03 0.  0.
         13    1    1    2    0    0  0.19042991083E+02  0.35234416772E+01  0.10007356161E+03  0.10193026561E+03  0.10566000000E+00 0. -1.
        994    1    1    2    0    0 -0.13290693342E+02  0.91027086162E+01  0.27394139872E+01  0.17197803994E+03  0.17120000000E+03 0.  0.
        998    1    1    2    0    0 -0.57522977417E+01 -0.12626150293E+02  0.13971870207E+04  0.13972916944E+04  0.10000000000E+02 0. -1.
</event>
<event>
 5    1  0.1252945E-008  0.3809585E+03  0.7957747E-01  0.3446995E+00
         13   -1    0    0    0    0  0.00000000000E+00  0.00000000000E+00  0.14999999963E+04  0.15000000000E+04  0.10566000000E+00 0. -1.
        994   -1    0    0    0    0 -0.00000000000E+00 -0.00000000000E+00  0.11368683772E-12  0.17120000000E+03  0.17120000000E+03 0.  0.
         13    1    1    2    0    0  0.15422377611E+02  0.56867222875E-01  0.31270830686E+02  0.34867305329E+02  0.10566000000E+00 0. -1.
        994    1    1    2    0    0 -0.95522774105E+01 -0.10891888658E+01  0.39581512654E+01  0.17151542000E+03  0.17120000000E+03 0.  0.
        998    1    1    2    0    0 -0.58701002003E+01  0.10323216429E+01  0.14647710143E+04  0.14648172747E+04  0.10000000000E+02 0. -1.
</event>
<event>
 5    1  0.1252945E-008  0.3859911E+03  0.7957747E-01  0.3425480E+00
         13   -1    0    0    0    0  0.00000000000E+00  0.00000000000E+00  0.14999999963E+04  0.15000000000E+04  0.10566000000E+00 0.  1.
        994   -1    0    0    0    0 -0.00000000000E+00 -0.00000000000E+00  0.11368683772E-12  0.17120000000E+03  0.17120000000E+03 0.  0.
         13    1    1    2    0    0 -0.11307410704E+02  0.47983274933E+01  0.61605653717E+02  0.62818382800E+02  0.10566000000E+00 0.  1.
        994    1    1    2    0    0  0.14605281629E+02 -0.16744571751E+02  0.27589309726E+01  0.17265788900E+03  0.17120000000E+03 0.  0.
        998    1    1    2    0    0 -0.32978709248E+01  0.11946244258E+02  0.14356354116E+04  0.14357237282E+04  0.10000000000E+02 0.  1.
</event>
<event>
 5    1  0.1252945E-008  0.3805539E+03  0.7957747E-01  0.3448750E+00
         13   -1    0    0    0    0  0.00000000000E+00  0.00000000000E+00  0.14999999963E+04  0.15000000000E+04  0.10566000000E+00 0. -1.
        994   -1    0    0    0    0 -0.00000000000E+00 -0.00000000000E+00  0.11368683772E-12  0.17120000000E+03  0.17120000000E+03 0.  0.
         13    1    1    2    0    0  0.32938562288E+02 -0.73000593674E+01  0.14456708376E+03  0.14845165080E+03  0.10566000000E+00 0. -1.
        994    1    1    2    0    0 -0.21407981411E+02  0.44097442270E+01  0.54496009718E+01  0.17267566610E+03  0.17120000000E+03 0.  0.
        998    1    1    2    0    0 -0.11530580877E+02  0.28903151404E+01  0.13499833115E+04  0.13500726831E+04  0.10000000000E+02 0. -1.
</event>
<event>
 5    1  0.1252945E-008  0.3850503E+03  0.7957747E-01  0.3429459E+00
         13   -1    0    0    0    0  0.00000000000E+00  0.00000000000E+00  0.14999999963E+04  0.15000000000E+04  0.10566000000E+00 0.  1.
        994   -1    0    0    0    0 -0.00000000000E+00 -0.00000000000E+00  0.11368683772E-12  0.17120000000E+03  0.17120000000E+03 0.  0.
         13    1    1    2    0    0 -0.15466111197E+02 -0.53312452686E+01  0.84892835887E+02  0.86454771532E+02  0.10566000000E+00 0.  1.
        994    1    1    2    0    0  0.80726929733E+01  0.18966776423E+01  0.18313218128E+01  0.17141049996E+03  0.17120000000E+03 0.  0.
        998    1    1    2    0    0  0.73934182241E+01  0.34345676264E+01  0.14132758386E+04  0.14133347285E+04  0.10000000000E+02 0.  1.
</event>
<event>
 5    1  0.1252945E-008  0.3777022E+03  0.7957747E-01  0.3461225E+00
         13   -1    0    0    0    0  0.00000000000E+00  0.00000000000E+00  0.14999999963E+04  0.15000000000E+04  0.10566000000E+00 0. -1.
        994   -1    0    0    0    0 -0.00000000000E+00 -0.00000000000E+00  0.11368683772E-12  0.17120000000E+03  0.17120000000E+03 0.  0.
         13    1    1    2    0    0 -0.30871284955E+02  0.12864577681E+02  0.10480033639E+03  0.11000752368E+03  0.10566000000E+00 0. -1.
        994    1    1    2    0    0  0.17990765895E+02 -0.38103256591E+01  0.64375906492E+01  0.17230516189E+03  0.17120000000E+03 0.  0.
        998    1    1    2    0    0  0.12880519060E+02 -0.90542520215E+01  0.13887620692E+04  0.13888873144E+04  0.10000000000E+02 0. -1.
</event>
<event>
 5    1  0.1252945E-008  0.3683749E+03  0.7957747E-01  0.3503393E+00
         13   -1    0    0    0    0  0.00000000000E+00  0.00000000000E+00  0.14999999963E+04  0.15000000000E+04  0.10566000000E+00 0.  1.
        994   -1    0    0    0    0 -0.00000000000E+00 -0.00000000000E+00  0.11368683772E-12  0.17120000000E+03  0.17120000000E+03 0.  0.
         13    1    1    2    0    0 -0.20719375732E+03  0.41841098311E+02  0.11937780003E+04  0.12123472505E+04  0.10566000000E+00 0.  1.
        994    1    1    2    0    0  0.18826065759E+03 -0.37991146165E+02  0.14332861385E+03  0.29451304544E+03  0.17120000000E+03 0.  0.
        998    1    1    2    0    0  0.18933099730E+02 -0.38499521457E+01  0.16289338214E+03  0.16433970410E+03  0.10000000000E+02 0.  1.
</event>
<event>
 5    1  0.1252945E-008  0.3775048E+03  0.7957747E-01  0.3462096E+00
         13   -1    0    0    0    0  0.00000000000E+00  0.00000000000E+00  0.14999999963E+04  0.15000000000E+04  0.10566000000E+00 0. -1.
        994   -1    0    0    0    0 -0.00000000000E+00 -0.00000000000E+00  0.11368683772E-12  0.17120000000E+03  0.17120000000E+03 0.  0.
         13    1    1    2    0    0 -0.17197713789E+02  0.42720701136E+02  0.18470922128E+03  0.19036367105E+03  0.10566000000E+00 0. -1.
        994    1    1    2    0    0  0.11030932657E+02 -0.33374165064E+02  0.95739382475E+01  0.17503318732E+03  0.17120000000E+03 0.  0.
        998    1    1    2    0    0  0.61667811328E+01 -0.93465360724E+01  0.13057168367E+04  0.13058031416E+04  0.10000000000E+02 0.  1.
</event>
<event>
 5    1  0.1252945E-008  0.3819558E+03  0.7957747E-01  0.3442687E+00
         13   -1    0    0    0    0  0.00000000000E+00  0.00000000000E+00  0.14999999963E+04  0.15000000000E+04  0.10566000000E+00 0. -1.
        994   -1    0    0    0    0 -0.00000000000E+00 -0.00000000000E+00  0.11368683772E-12  0.17120000000E+03  0.17120000000E+03 0.  0.
         13    1    1    2    0    0 -0.27358082518E+02  0.41307848740E+01  0.12695693696E+03  0.12993691958E+03  0.10566000000E+00 0. -1.
        994    1    1    2    0    0  0.92920675595E+01  0.25035603402E+01  0.34567985098E+01  0.17150510135E+03  0.17120000000E+03 0.  0.
        998    1    1    2    0    0  0.18066014958E+02 -0.66343452142E+01  0.13695862608E+04  0.13697579791E+04  0.10000000000E+02 0. -1.
</event>
<event>
 5    1  0.1252945E-008  0.3818979E+03  0.7957747E-01  0.3442936E+00
         13   -1    0    0    0    0  0.00000000000E+00  0.00000000000E+00  0.14999999963E+04  0.15000000000E+04  0.10566000000E+00 0. -1.
        994   -1    0    0    0    0 -0.00000000000E+00 -0.00000000000E+00  0.11368683772E-12  0.17120000000E+03  0.17120000000E+03 0.  0.
         13    1    1    2    0    0 -0.90764947748E+01  0.14996486094E+02  0.49462940371E+02  0.52477337840E+02  0.10566000000E+00 0. -1.
        994    1    1    2    0    0  0.80200836364E+01  0.41913791578E+01  0.34502457317E+01  0.17147371109E+03  0.17120000000E+03 0.  0.
        998    1    1    2    0    0  0.10564111385E+01 -0.19187865251E+02  0.14470868102E+04  0.14472489511E+04  0.10000000000E+02 0. -1.
</event>
<event>
 5    1  0.1252945E-008  0.3762071E+03  0.7957747E-01  0.3467842E+00
         13   -1    0    0    0    0  0.00000000000E+00  0.00000000000E+00  0.14999999963E+04  0.15000000000E+04  0.10566000000E+00 0. -1.
        994   -1    0    0    0    0 -0.00000000000E+00 -0.00000000000E+00  0.11368683772E-12  0.17120000000E+03  0.17120000000E+03 0.  0.
         13    1    1    2    0    0 -0.91588430639E+02 -0.49984211115E+02  0.55990606129E+03  0.56954514362E+03  0.10566000000E+00 0. -1.
        994    1    1    2    0    0  0.85823777095E+02  0.57454574065E+02  0.43071578697E+02  0.20452713680E+03  0.17120000000E+03 0.  0.
        998    1    1    2    0    0  0.57646535445E+01 -0.74703629502E+01  0.89702235629E+03  0.89712771958E+03  0.10000000000E+02 0. -1.
</event>
<event>
 5    1  0.1252945E-008  0.3725150E+03  0.7957747E-01  0.3484412E+00
         13   -1    0    0    0    0  0.00000000000E+00  0.00000000000E+00  0.14999999963E+04  0.15000000000E+04  0.10566000000E+00 0.  1.
        994   -1    0    0    0    0 -0.00000000000E+00 -0.00000000000E+00  0.11368683772E-12  0.17120000000E+03  0.17120000000E+03 0.  0.
         13    1    1    2    0    0  0.79681904775E+02  0.13131179071E+02  0.32114347438E+03  0.33114162546E+03  0.10566000000E+00 0.  1.
        994    1    1    2    0    0 -0.77421465406E+02 -0.21185514207E+02  0.30380112999E+02  0.19150796480E+03  0.17120000000E+03 0.  0.
        998    1    1    2    0    0 -0.22604393682E+01  0.80543351358E+01  0.11484764089E+04  0.11485504097E+04  0.10000000000E+02 0.  1.
</event>
<event>
 5    1  0.1252945E-008  0.3702629E+03  0.7957747E-01  0.3494684E+00
         13   -1    0    0    0    0  0.00000000000E+00  0.00000000000E+00  0.14999999963E+04  0.15000000000E+04  0.10566000000E+00 0.  1.
        994   -1    0    0    0    0 -0.00000000000E+00 -0.00000000000E+00  0.11368683772E-12  0.17120000000E+03  0.17120000000E+03 0.  0.
         13    1    1    2    0    0 -0.36451147492E+02 -0.13399265975E+02  0.72310688604E+02  0.82079676733E+02  0.10566000000E+00 0.  1.
        994    1    1    2    0    0 -0.15686481115E+02  0.20316543021E+01  0.11953810188E+02  0.17234421048E+03  0.17120000000E+03 0.  0.
        998    1    1    2    0    0  0.52137628607E+02  0.11367611673E+02  0.14157354975E+04  0.14167761128E+04  0.10000000000E+02 0.  1.
</event>
<event>
 5    1  0.1252945E-008  0.4389171E+03  0.7957747E-01  0.3228918E+00
         13   -1    0    0    0    0  0.00000000000E+00  0.00000000000E+00  0.14999999963E+04  0.15000000000E+04  0.10566000000E+00 0.  1.
        994   -1    0    0    0    0 -0.00000000000E+00 -0.00000000000E+00  0.11368683772E-12  0.17120000000E+03  0.17120000000E+03 0.  0.
         13    1    1    2    0    0 -0.15890262112E+01 -0.17904878765E+02 -0.19190956803E+02  0.26294746147E+02  0.10566000000E+00 0.  1.
        994    1    1    2    0    0  0.93816743179E+00  0.19731057312E+02  0.55317411358E+02  0.18099627284E+03  0.17120000000E+03 0.  0.
        998    1    1    2    0    0  0.65085877938E+00 -0.18261785473E+01  0.14638735417E+04  0.14639089810E+04  0.10000000000E+02 0.  1.
</event>
<event>
 5    1  0.1252945E-008  0.3768773E+03  0.7957747E-01  0.3464869E+00
         13   -1    0    0    0    0  0.00000000000E+00  0.00000000000E+00  0.14999999963E+04  0.15000000000E+04  0.10566000000E+00 0.  1.
        994   -1    0    0    0    0 -0.00000000000E+00 -0.00000000000E+00  0.11368683772E-12  0.17120000000E+03  0.17120000000E+03 0.  0.
         13    1    1    2    0    0 -0.68066398536E+02 -0.39600186073E+02  0.43594247011E+03  0.44299780784E+03  0.10566000000E+00 0.  1.
        994    1    1    2    0    0  0.44024031291E+02  0.60827531957E+02  0.25005938208E+02  0.18860763749E+03  0.17120000000E+03 0.  0.
        998    1    1    2    0    0  0.24042367246E+02 -0.21227345885E+02  0.10390515880E+04  0.10395945547E+04  0.10000000000E+02 0.  1.
</event>
<event>
 5    1  0.1252945E-008  0.3734904E+03  0.7957747E-01  0.3480002E+00
         13   -1    0    0    0    0  0.00000000000E+00  0.00000000000E+00  0.14999999963E+04  0.15000000000E+04  0.10566000000E+00 0. -1.
        994   -1    0    0    0    0 -0.00000000000E+00 -0.00000000000E+00  0.11368683772E-12  0.17120000000E+03  0.17120000000E+03 0.  0.
         13    1    1    2    0    0  0.19020370243E+02 -0.41169867706E+02  0.13025699669E+03  0.13792617171E+03  0.10566000000E+00 0. -1.
        994    1    1    2    0    0 -0.41646886790E+02  0.20535277990E+02  0.14858778702E+02  0.17800669686E+03  0.17120000000E+03 0.  0.
        998    1    1    2    0    0  0.22626516547E+02  0.20634589716E+02  0.13548842209E+04  0.13552671314E+04  0.10000000000E+02 0. -1.
</event>
<event>
 5    1  0.1252945E-008  0.3802818E+03  0.7957747E-01  0.3449932E+00
         13   -1    0    0    0    0  0.00000000000E+00  0.00000000000E+00  0.14999999963E+04  0.15000000000E+04  0.10566000000E+00 0.  1.
        994   -1    0    0    0    0 -0.00000000000E+00 -0.00000000000E+00  0.11368683772E-12  0.17120000000E+03  0.17120000000E+03 0.  0.
         13    1    1    2    0    0 -0.61056710663E+01 -0.13000530809E+02  0.25693236868E+02  0.29435465094E+02  0.10566000000E+00 0.  1.
        994    1    1    2    0    0  0.35483694293E+01 -0.12792303135E+02  0.45797631209E+01  0.17177499287E+03  0.17120000000E+03 0.  0.
        998    1    1    2    0    0  0.25573016370E+01  0.25792833944E+02  0.14697269963E+04  0.14699895420E+04  0.10000000000E+02 0.  1.
</event>
<event>
 5    1  0.1252945E-008  0.3815594E+03  0.7957747E-01  0.3444396E+00
         13   -1    0    0    0    0  0.00000000000E+00  0.00000000000E+00  0.14999999963E+04  0.15000000000E+04  0.10566000000E+00 0.  1.
        994   -1    0    0    0    0 -0.00000000000E+00 -0.00000000000E+00  0.11368683772E-12  0.17120000000E+03  0.17120000000E+03 0.  0.
         13    1    1    2    0    0 -0.26453788364E+02 -0.48008802755E+01  0.94467445452E+02  0.98218943104E+02  0.10566000000E+00 0.  1.
        994    1    1    2    0    0  0.38559690952E+02  0.73660230866E+01  0.84904172217E+01  0.17584833024E+03  0.17120000000E+03 0.  0.
        998    1    1    2    0    0 -0.12105902588E+02 -0.25651428111E+01  0.13970421336E+04  0.13971327267E+04  0.10000000000E+02 0.  1.
</event>
<event>
 5    1  0.1252945E-008  0.3849607E+03  0.7957747E-01  0.3429839E+00
         13   -1    0    0    0    0  0.00000000000E+00  0.00000000000E+00  0.14999999963E+04  0.15000000000E+04  0.10566000000E+00 0.  1.
        994   -1    0    0    0    0 -0.00000000000E+00 -0.00000000000E+00  0.11368683772E-12  0.17120000000E+03  0.17120000000E+03 0.  0.
         13    1    1    2    0    0 -0.11033371130E+02 -0.73060672383E+01  0.55828106735E+02  0.57375104032E+02  0.10566000000E+00 0.  1.
        994    1    1    2    0    0 -0.16360184188E+01  0.26200311886E+01  0.16810161461E+01  0.17123611458E+03  0.17120000000E+03 0.  0.
        998    1    1    2    0    0  0.12669389548E+02  0.46860360498E+01  0.14424908734E+04  0.14425887814E+04  0.10000000000E+02 0.  1.
</event>
<event>
 5    1  0.1252945E-008  0.3854551E+03  0.7957747E-01  0.3427744E+00
         13   -1    0    0    0    0  0.00000000000E+00  0.00000000000E+00  0.14999999963E+04  0.15000000000E+04  0.10566000000E+00 0. -1.
        994   -1    0    0    0    0 -0.00000000000E+00 -0.00000000000E+00  0.11368683772E-12  0.17120000000E+03  0.17120000000E+03 0.  0.
         13    1    1    2    0    0 -0.16272200124E+02  0.67707469369E+01  0.10387647617E+03  0.10536109802E+03  0.10566000000E+00 0. -1.
        994    1    1    2    0    0  0.17311477564E+02 -0.80869710506E+01  0.26041468565E+01  0.17228263969E+03  0.17120000000E+03 0.  0.
        998    1    1    2    0    0 -0.10392774402E+01  0.13162241138E+01  0.13935193733E+04  0.13935562623E+04  0.10000000000E+02 0.  0.
</event>
<event>
 5    1  0.1252945E-008  0.3831295E+03  0.7957747E-01  0.3437644E+00
         13   -1    0    0    0    0  0.00000000000E+00  0.00000000000E+00  0.14999999963E+04  0.15000000000E+04  0.10566000000E+00 0. -1.
        994   -1    0    0    0    0 -0.00000000000E+00 -0.00000000000E+00  0.11368683772E-12  0.17120000000E+03  0.17120000000E+03 0.  0.
         13    1    1    2    0    0 -0.24382125245E+02  0.10032076773E+02  0.13214878353E+03  0.13475326619E+03  0.10566000000E+00 0. -1.
        994    1    1    2    0    0  0.13808408782E+02 -0.16173151406E+02  0.40594565862E+01  0.17256350184E+03  0.17120000000E+03 0.  0.
        998    1    1    2    0    0  0.10573716463E+02  0.61410746338E+01  0.13637917562E+04  0.13638832320E+04  0.10000000000E+02 0. -1.
</event>
<event>
 5    1  0.1252945E-008  0.3697444E+03  0.7957747E-01  0.3497066E+00
         13   -1    0    0    0    0  0.00000000000E+00  0.00000000000E+00  0.14999999963E+04  0.15000000000E+04  0.10566000000E+00 0. -1.
        994   -1    0    0    0    0 -0.00000000000E+00 -0.00000000000E+00  0.11368683772E-12  0.17120000000E+03  0.17120000000E+03 0.  0.
         13    1    1    2    0    0 -0.44706262010E+02  0.39984247749E+02  0.21562289970E+03  0.22380937418E+03  0.10566000000E+00 0. -1.
        994    1    1    2    0    0  0.26551960232E+02  0.12905297743E+02  0.12424834587E+02  0.17417051937E+03  0.17120000000E+03 0.  0.
        998    1    1    2    0    0  0.18154301778E+02 -0.52889545492E+02  0.12719522620E+04  0.12732201065E+04  0.10000000000E+02 0. -1.
</event>
<event>
 5    1  0.1252945E-008  0.3820533E+03  0.7957747E-01  0.3442267E+00
         13   -1    0    0    0    0  0.00000000000E+00  0.00000000000E+00  0.14999999963E+04  0.15000000000E+04  0.10566000000E+00 0. -1.
        994   -1    0    0    0    0 -0.00000000000E+00 -0.00000000000E+00  0.11368683772E-12  0.17120000000E+03  0.17120000000E+03 0.  0.
         13    1    1    2    0    0  0.23146983934E+02  0.31145574960E+02  0.36428628837E+02  0.53224861370E+02  0.10566000000E+00 0. -1.
        994    1    1    2    0    0 -0.12609333342E+02 -0.25725352462E+02  0.20462030065E+02  0.17478250405E+03  0.17120000000E+03 0.  0.
        998    1    1    2    0    0 -0.10537650592E+02 -0.54202224981E+01  0.14431093374E+04  0.14431926346E+04  0.10000000000E+02 0. -1.
</event>
<event>
 5    1  0.1252945E-008  0.3837308E+03  0.7957747E-01  0.3435073E+00
         13   -1    0    0    0    0  0.00000000000E+00  0.00000000000E+00  0.14999999963E+04  0.15000000000E+04  0.10566000000E+00 0. -1.
        994   -1    0    0    0    0 -0.00000000000E+00 -0.00000000000E+00  0.11368683772E-12  0.17120000000E+03  0.17120000000E+03 0.  0.
         13    1    1    2    0    0  0.16665368989E+02  0.65947115767E+01  0.64746812317E+02  0.67181735714E+02  0.10566000000E+00 0. -1.
        994    1    1    2    0    0 -0.32369823953E+02  0.65247333648E+01  0.58706070224E+01  0.17445423949E+03  0.17120000000E+03 0.  0.
        998    1    1    2    0    0  0.15704454964E+02 -0.13119444942E+02  0.14293825769E+04  0.14295640248E+04  0.10000000000E+02 0. -1.
</event>
<event>
 5    1  0.1252945E-008  0.3745019E+03  0.7957747E-01  0.3475453E+00
         13   -1    0    0    0    0  0.00000000000E+00  0.00000000000E+00  0.14999999963E+04  0.15000000000E+04  0.10566000000E+00 0.  1.
        994   -1    0    0    0    0 -0.00000000000E+00 -0.00000000000E+00  0.11368683772E-12  0.17120000000E+03  0.17120000000E+03 0.  0.
         13    1    1    2    0    0 -0.35303994069E+02  0.16579330191E+02  0.10532491719E+03  0.11231471645E+03  0.10566000000E+00 0.  1.
        994    1    1    2    0    0  0.32291751746E+02  0.25347447489E+01  0.10515440138E+02  0.17455427993E+03  0.17120000000E+03 0.  0.
        998    1    1    2    0    0  0.30122423231E+01 -0.19114074940E+02  0.13841596390E+04  0.13843310036E+04  0.10000000000E+02 0.  1.
</event>
<event>
 5    1  0.1252945E-008  0.3850755E+03  0.7957747E-01  0.3429352E+00
         13   -1    0    0    0    0  0.00000000000E+00  0.00000000000E+00  0.14999999963E+04  0.15000000000E+04  0.10566000000E+00 0. -1.
        994   -1    0    0    0    0 -0.00000000000E+00 -0.00000000000E+00  0.11368683772E-12  0.17120000000E+03  0.17120000000E+03 0.  0.
         13    1    1    2    0    0 -0.15119200003E+02 -0.16524350555E+01  0.74160621063E+02  0.75704224656E+02  0.10566000000E+00 0. -1.
        994    1    1    2    0    0  0.71181113567E+01 -0.16490313966E+00  0.17593706136E+01  0.17135702521E+03  0.17120000000E+03 0.  0.
        998    1    1    2    0    0  0.80010886458E+01  0.18173381952E+01  0.14240800046E+04  0.14241387501E+04  0.10000000000E+02 0. -1.
</event>
<event>
 5    1  0.1252945E-008  0.3786280E+03  0.7957747E-01  0.3457154E+00
         13   -1    0    0    0    0  0.00000000000E+00  0.00000000000E+00  0.14999999963E+04  0.15000000000E+04  0.10566000000E+00 0. -1.
        994   -1    0    0    0    0 -0.00000000000E+00 -0.00000000000E+00  0.11368683772E-12  0.17120000000E+03  0.17120000000E+03 0.  0.
         13    1    1    2    0    0  0.13986333920E+02  0.23417660609E+02  0.73770545159E+02  0.78651820462E+02  0.10566000000E+00 0. -1.
        994    1    1    2    0    0 -0.13376828029E+02 -0.17658667455E+02  0.64771382778E+01  0.17274883903E+03  0.17120000000E+03 0.  0.
        998    1    1    2    0    0 -0.60950589068E+00 -0.57589931533E+01  0.14197523128E+04  0.14197993405E+04  0.10000000000E+02 0. -1.
</event>
<event>
 5    1  0.1252945E-008  0.3757991E+03  0.7957747E-01  0.3469657E+00
         13   -1    0    0    0    0  0.00000000000E+00  0.00000000000E+00  0.14999999963E+04  0.15000000000E+04  0.10566000000E+00 0.  1.
        994   -1    0    0    0    0 -0.00000000000E+00 -0.00000000000E+00  0.11368683772E-12  0.17120000000E+03  0.17120000000E+03 0.  0.
         13    1    1    2    0    0 -0.51544212708E+02  0.32180744533E+02  0.29093883150E+03  0.29721679128E+03  0.10566000000E+00 0.  1.
        994    1    1    2    0    0  0.26127880886E+02 -0.25043087233E+02  0.10722230892E+02  0.17531180398E+03  0.17120000000E+03 0.  0.
        998    1    1    2    0    0  0.25416331822E+02 -0.71376573005E+01  0.11983389339E+04  0.11986714047E+04  0.10000000000E+02 0.  1.
</event>
<event>
 5    1  0.1252945E-008  0.3727579E+03  0.7957747E-01  0.3483311E+00
         13   -1    0    0    0    0  0.00000000000E+00  0.00000000000E+00  0.14999999963E+04  0.15000000000E+04  0.10566000000E+00 0.  1.
        994   -1    0    0    0    0 -0.00000000000E+00 -0.00000000000E+00  0.11368683772E-12  0.17120000000E+03  0.17120000000E+03 0.  0.
         13    1    1    2    0    0 -0.90070755278E+01 -0.55896572234E+02  0.19663254606E+03  0.20462141514E+03  0.10566000000E+00 0.  1.
        994    1    1    2    0    0 -0.89634596080E+00  0.38630361725E+02  0.12965957933E+02  0.17598484125E+03  0.17120000000E+03 0.  0.
        998    1    1    2    0    0  0.99034214886E+01  0.17266210509E+02  0.12904014923E+04  0.12905937436E+04  0.10000000000E+02 0.  1.
</event>
<event>
 5    1  0.1252945E-008  0.3796121E+03  0.7957747E-01  0.3452849E+00
         13   -1    0    0    0    0  0.00000000000E+00  0.00000000000E+00  0.14999999963E+04  0.15000000000E+04  0.10566000000E+00 0.  1.
        994   -1    0    0    0    0 -0.00000000000E+00 -0.00000000000E+00  0.11368683772E-12  0.17120000000E+03  0.17120000000E+03 0.  0.
         13    1    1    2    0    0  0.46174426752E+01 -0.31982238249E+02  0.10785367623E+03  0.11259045689E+03  0.10566000000E+00 0.  1.
        994    1    1    2    0    0 -0.89242662208E+01  0.37735323591E+02  0.93783883878E+01  0.17578677807E+03  0.17120000000E+03 0.  0.
        998    1    1    2    0    0  0.43068235457E+01 -0.57530853424E+01  0.13827679317E+04  0.13828227650E+04  0.10000000000E+02 0.  1.
</event>
<event>
 5    1  0.1252945E-008  0.3755506E+03  0.7957747E-01  0.3470764E+00
         13   -1    0    0    0    0  0.00000000000E+00  0.00000000000E+00  0.14999999963E+04  0.15000000000E+04  0.10566000000E+00 0. -1.
        994   -1    0    0    0    0 -0.00000000000E+00 -0.00000000000E+00  0.11368683772E-12  0.17120000000E+03  0.17120000000E+03 0.  0.
         13    1    1    2    0    0 -0.36895693289E+02 -0.52019364407E+01  0.12312964260E+03  0.12864397528E+03  0.10566000000E+00 0. -1.
        994    1    1    2    0    0 -0.81516106792E+01  0.27031381574E+00  0.66219863468E+01  0.17152204677E+03  0.17120000000E+03 0.  0.
        998    1    1    2    0    0  0.45047303968E+02  0.49316226249E+01  0.13702483673E+04  0.13710339779E+04  0.10000000000E+02 0. -1.
</event>
<event>
 5    1  0.1252945E-008  0.3104668E+03  0.7957747E-01  0.3824017E+00
         13   -1    0    0    0    0  0.00000000000E+00  0.00000000000E+00  0.14999999963E+04  0.15000000000E+04  0.10566000000E+00 0. -1.
        994   -1    0    0    0    0 -0.00000000000E+00 -0.00000000000E+00  0.11368683772E-12  0.17120000000E+03  0.17120000000E+03 0.  0.
         13    1    1    2    0    0 -0.17088617929E+03 -0.17389357116E+03  0.53098720971E+03  0.58428459538E+03  0.10566000000E+00 0. -1.
        994    1    1    2    0    0  0.18107172734E+03  0.17291688274E+03  0.33179946158E+03  0.44954147916E+03  0.17120000000E+03 0.  0.
        998    1    1    2    0    0 -0.10185548049E+02  0.97668841729E+00  0.63721332499E+03  0.63737392546E+03  0.10000000000E+02 0.  0.
</event>
<event>
 5    1  0.1252945E-008  0.3757730E+03  0.7957747E-01  0.3469773E+00
         13   -1    0    0    0    0  0.00000000000E+00  0.00000000000E+00  0.14999999963E+04  0.15000000000E+04  0.10566000000E+00 0.  1.
        994   -1    0    0    0    0 -0.00000000000E+00 -0.00000000000E+00  0.11368683772E-12  0.17120000000E+03  0.17120000000E+03 0.  0.
         13    1    1    2    0    0  0.44044945723E+02 -0.16833461554E+02  0.18608015523E+03  0.19196134508E+03  0.10566000000E+00 0.  1.
        994    1    1    2    0    0 -0.14903210488E+02  0.86261073823E+01  0.72882441613E+01  0.17221809985E+03  0.17120000000E+03 0.  0.
        998    1    1    2    0    0 -0.29141735235E+02  0.82073541720E+01  0.13066315969E+04  0.13070205551E+04  0.10000000000E+02 0.  1.
</event>
<event>
 5    1  0.1252945E-008  0.3851396E+03  0.7957747E-01  0.3429080E+00
         13   -1    0    0    0    0  0.00000000000E+00  0.00000000000E+00  0.14999999963E+04  0.15000000000E+04  0.10566000000E+00 0. -1.
        994   -1    0    0    0    0 -0.00000000000E+00 -0.00000000000E+00  0.11368683772E-12  0.17120000000E+03  0.17120000000E+03 0.  0.
         13    1    1    2    0    0 -0.12940452894E+02  0.45056397379E+01  0.63487148377E+02  0.64949097636E+02  0.10566000000E+00 0. -1.
        994    1    1    2    0    0  0.49257759971E+01  0.10906205366E+02  0.20317413501E+01  0.17162976594E+03  0.17120000000E+03 0.  0.
        998    1    1    2    0    0  0.80146768970E+01 -0.15411845104E+02  0.14344811066E+04  0.14346211364E+04  0.10000000000E+02 0. -1.
</event>
<event>
 5    1  0.1252945E-008  0.3831777E+03  0.7957747E-01  0.3437438E+00
         13   -1    0    0    0    0  0.00000000000E+00  0.00000000000E+00  0.14999999963E+04  0.15000000000E+04  0.10566000000E+00 0.  1.
        994   -1    0    0    0    0 -0.00000000000E+00 -0.00000000000E+00  0.11368683772E-12  0.17120000000E+03  0.17120000000E+03 0.  0.
         13    1    1    2    0    0 -0.10770356556E+02  0.48953605201E+00  0.22380037391E+02  0.24841849036E+02  0.10566000000E+00 0.  1.
        994    1    1    2    0    0  0.23958639183E+01  0.35365111516E+01  0.25979602909E+01  0.17127298816E+03  0.17120000000E+03 0.  0.
        998    1    1    2    0    0  0.83744926381E+01 -0.40260472036E+01  0.14750219986E+04  0.14750851628E+04  0.10000000000E+02 0.  1.
</event>
<event>
 5    1  0.1252945E-008  0.3845990E+03  0.7957747E-01  0.3431375E+00
         13   -1    0    0    0    0  0.00000000000E+00  0.00000000000E+00  0.14999999963E+04  0.15000000000E+04  0.10566000000E+00 0. -1.
        994   -1    0    0    0    0 -0.00000000000E+00 -0.00000000000E+00  0.11368683772E-12  0.17120000000E+03  0.17120000000E+03 0.  0.
         13    1    1    2    0    0  0.29991939738E+01 -0.12098366204E+02  0.41789232768E+02  0.43608677676E+02  0.10566000000E+00 0. -1.
        994    1    1    2    0    0 -0.62528686070E+01  0.90759022620E+01  0.22294348250E+01  0.17156888047E+03  0.17120000000E+03 0.  0.
        998    1    1    2    0    0  0.32536746332E+01  0.30224639420E+01  0.14559813287E+04  0.14560224418E+04  0.10000000000E+02 0. -1.
</event>
<event>
 5    1  0.1252945E-008  0.3816314E+03  0.7957747E-01  0.3444086E+00
         13   -1    0    0    0    0  0.00000000000E+00  0.00000000000E+00  0.14999999963E+04  0.15000000000E+04  0.10566000000E+00 0.  1.
        994   -1    0    0    0    0 -0.00000000000E+00 -0.00000000000E+00  0.11368683772E-12  0.17120000000E+03  0.17120000000E+03 0.  0.
         13    1    1    2    0    0 -0.15045463443E+02 -0.37434171060E+01  0.37053414134E+02  0.40166476132E+02  0.10566000000E+00 0.  1.
        994    1    1    2    0    0 -0.50994397672E+01  0.93710336615E+00  0.34012868327E+01  0.17131226226E+03  0.17120000000E+03 0.  0.
        998    1    1    2    0    0  0.20144903210E+02  0.28063137399E+01  0.14595452953E+04  0.14597212616E+04  0.10000000000E+02 0.  1.
</event>
<event>
 5    1  0.1252945E-008  0.3777999E+03  0.7957747E-01  0.3460795E+00
         13   -1    0    0    0    0  0.00000000000E+00  0.00000000000E+00  0.14999999963E+04  0.15000000000E+04  0.10566000000E+00 0. -1.
        994   -1    0    0    0    0 -0.00000000000E+00 -0.00000000000E+00  0.11368683772E-12  0.17120000000E+03  0.17120000000E+03 0.  0.
         13    1    1    2    0    0 -0.30838890833E+03  0.19995285236E+02  0.95374945247E+03  0.10025674837E+04  0.10566000000E+00 0. -1.
        994    1    1    2    0    0  0.31065196554E+03 -0.24782083177E+02  0.45880010953E+03  0.58045307807E+03  0.17120000000E+03 0.  0.
        998    1    1    2    0    0 -0.22630572020E+01  0.47867979413E+01  0.87450434276E+02  0.88179438179E+02  0.10000000000E+02 0.  0.
</event>
<event>
 5    1  0.1252945E-008  0.3850778E+03  0.7957747E-01  0.3429342E+00
         13   -1    0    0    0    0  0.00000000000E+00  0.00000000000E+00  0.14999999963E+04  0.15000000000E+04  0.10566000000E+00 0. -1.
        994   -1    0    0    0    0 -0.00000000000E+00 -0.00000000000E+00  0.11368683772E-12  0.17120000000E+03  0.17120000000E+03 0.  0.
         13    1    1    2    0    0  0.22989833457E+01  0.14148745356E+02  0.63859339633E+02  0.65448443388E+02  0.10566000000E+00 0. -1.
        994    1    1    2    0    0  0.80218875794E-01 -0.11469682091E+02  0.20241782032E+01  0.17159573812E+03  0.17120000000E+03 0.  0.
        998    1    1    2    0    0 -0.23792022215E+01 -0.26790632644E+01  0.14341164784E+04  0.14341558185E+04  0.10000000000E+02 0. -1.
</event>
<event>
 5    1  0.1252945E-008  0.3915127E+03  0.7957747E-01  0.3402512E+00
         13   -1    0    0    0    0  0.00000000000E+00  0.00000000000E+00  0.14999999963E+04  0.15000000000E+04  0.10566000000E+00 0.  1.
        994   -1    0    0    0    0 -0.00000000000E+00 -0.00000000000E+00  0.11368683772E-12  0.17120000000E+03  0.17120000000E+03 0.  0.
         13    1    1    2    0    0  0.36894495471E+02  0.74658907076E+02  0.13173391826E+03  0.15584926239E+03  0.10566000000E+00 0.  1.
        994    1    1    2    0    0 -0.37281679732E+02 -0.76505466078E+02  0.50767030848E+02  0.19781238941E+03  0.17120000000E+03 0.  0.
        998    1    1    2    0    0  0.38718426150E+00  0.18465590020E+01  0.13174990472E+04  0.13175383482E+04  0.10000000000E+02 0.  0.
</event>
<event>
 5    1  0.1252945E-008  0.3848539E+03  0.7957747E-01  0.3430292E+00
         13   -1    0    0    0    0  0.00000000000E+00  0.00000000000E+00  0.14999999963E+04  0.15000000000E+04  0.10566000000E+00 0.  1.
        994   -1    0    0    0    0 -0.00000000000E+00 -0.00000000000E+00  0.11368683772E-12  0.17120000000E+03  0.17120000000E+03 0.  0.
         13    1    1    2    0    0 -0.28534305192E+01  0.11547399360E+02  0.42298773280E+02  0.43939525290E+02  0.10566000000E+00 0.  1.
        994    1    1    2    0    0 -0.55412309026E+01 -0.51280649620E+01  0.18902704580E+01  0.17137682286E+03  0.17120000000E+03 0.  0.
        998    1    1    2    0    0  0.83946614218E+01 -0.64193343981E+01  0.14558109525E+04  0.14558836519E+04  0.10000000000E+02 0.  1.
</event>
<event>
 5    1  0.1693932E-008  0.3856521E+03  0.7957747E-01  0.3426911E+00
         13   -1    0    0    0    0  0.00000000000E+00  0.00000000000E+00  0.14999999963E+04  0.15000000000E+04  0.10566000000E+00 0.  1.
        994   -1    0    0    0    0 -0.00000000000E+00 -0.00000000000E+00  0.11368683772E-12  0.17120000000E+03  0.17120000000E+03 0.  0.
         13    1    1    2    0    0 -0.39214090821E+01  0.10062714303E+02  0.43826234290E+02  0.45137408481E+02  0.10566000000E+00 0.  1.
        994    1    1    2    0    0  0.25944818281E+01 -0.11259628079E+02  0.17450010315E+01  0.17159835544E+03  0.17120000000E+03 0.  0.
        998    1    1    2    0    0  0.13269272540E+01  0.11969137757E+01  0.14544287610E+04  0.14544642361E+04  0.10000000000E+02 0.  1.
</event>
<event>
 5    1  0.1252945E-008  0.3787749E+03  0.7957747E-01  0.3456510E+00
         13   -1    0    0    0    0  0.00000000000E+00  0.00000000000E+00  0.14999999963E+04  0.15000000000E+04  0.10566000000E+00 0.  1.
        994   -1    0    0    0    0 -0.00000000000E+00 -0.00000000000E+00  0.11368683772E-12  0.17120000000E+03  0.17120000000E+03 0.  0.
         13    1    1    2    0    0 -0.34439431746E+01  0.31183605847E+03  0.95594918069E+03  0.10055309221E+04  0.10566000000E+00 0.  1.
        994    1    1    2    0    0  0.82818430679E+01 -0.31272212813E+03  0.46584158102E+03  0.58666987050E+03  0.17120000000E+03 0.  0.
        998    1    1    2    0    0 -0.48378998933E+01  0.88606966633E+00  0.78209234572E+02  0.78999207383E+02  0.10000000000E+02 0. -1.
</event>
<event>
 5    1  0.1252945E-008  0.3814077E+03  0.7957747E-01  0.3445052E+00
         13   -1    0    0    0    0  0.00000000000E+00  0.00000000000E+00  0.14999999963E+04  0.15000000000E+04  0.10566000000E+00 0.  1.
        994   -1    0    0    0    0 -0.00000000000E+00 -0.00000000000E+00  0.11368683772E-12  0.17120000000E+03  0.17120000000E+03 0.  0.
         13    1    1    2    0    0 -0.13851059790E+02  0.19596146095E+02  0.87275609619E+02  0.90514661782E+02  0.10566000000E+00 0.  1.
        994    1    1    2    0    0  0.22775908277E+01 -0.48088358693E+01  0.35184309318E+01  0.17131880130E+03  0.17120000000E+03 0.  0.
        998    1    1    2    0    0  0.11573468962E+02 -0.14787310226E+02  0.14092059557E+04  0.14093665369E+04  0.10000000000E+02 0.  1.
</event>
<event>
 5    1  0.1252945E-008  0.3801678E+03  0.7957747E-01  0.3450428E+00
         13   -1    0    0    0    0  0.00000000000E+00  0.00000000000E+00  0.14999999963E+04  0.15000000000E+04  0.10566000000E+00 0. -1.
        994   -1    0    0    0    0 -0.00000000000E+00 -0.00000000000E+00  0.11368683772E-12  0.17120000000E+03  0.17120000000E+03 0.  0.
         13    1    1    2    0    0 -0.31759666022E+01  0.18185460134E+02  0.40563056295E+02  0.44566471974E+02  0.10566000000E+00 0. -1.
        994    1    1    2    0    0  0.65857071048E+00 -0.12245193627E+02  0.45510358674E+01  0.17169895285E+03  0.17120000000E+03 0.  0.
        998    1    1    2    0    0  0.25173958917E+01 -0.59402665066E+01  0.14548859041E+04  0.14549345752E+04  0.10000000000E+02 0. -1.
</event>
<event>
 5    1  0.1615548E-008  0.3864701E+03  0.7957747E-01  0.3423461E+00
         13   -1    0    0    0    0  0.00000000000E+00  0.00000000000E+00  0.14999999963E+04  0.15000000000E+04  0.10566000000E+00 0.  1.
        994   -1    0    0    0    0 -0.00000000000E+00 -0.00000000000E+00  0.11368683772E-12  0.17120000000E+03  0.17120000000E+03 0.  0.
         13    1    1    2    0    0  0.10532394771E+02  0.13652407313E+01  0.62004589657E+02  0.62907674606E+02  0.10566000000E+00 0.  1.
        994    1    1    2    0    0 -0.10581766004E+02 -0.14571153381E+01  0.12755319228E+01  0.17153764583E+03  0.17120000000E+03 0.  0.
        998    1    1    2    0    0  0.49371233436E-01  0.91874606814E-01  0.14367198747E+04  0.14367546796E+04  0.10000000000E+02 0.  1.
</event>
<event>
 5    1  0.1252945E-008  0.3794727E+03  0.7957747E-01  0.3453458E+00
         13   -1    0    0    0    0  0.00000000000E+00  0.00000000000E+00  0.14999999963E+04  0.15000000000E+04  0.10566000000E+00 0.  1.
        994   -1    0    0    0    0 -0.00000000000E+00 -0.00000000000E+00  0.11368683772E-12  0.17120000000E+03  0.17120000000E+03 0.  0.
         13    1    1    2    0    0  0.48854860447E+02  0.31906632354E+02  0.31703313270E+03  0.32235826183E+03  0.10566000000E+00 0.  1.
        994    1    1    2    0    0 -0.41378999876E+02 -0.36800881305E+02  0.14737885855E+02  0.18053579084E+03  0.17120000000E+03 0.  0.
        998    1    1    2    0    0 -0.74758605708E+01  0.48942489510E+01  0.11682289777E+04  0.11683059473E+04  0.10000000000E+02 0.  1.
</event>
<event>
 5    1  0.1252945E-008  0.3810494E+03  0.7957747E-01  0.3446602E+00
         13   -1    0    0    0    0  0.00000000000E+00  0.00000000000E+00  0.14999999963E+04  0.15000000000E+04  0.10566000000E+00 0. -1.
        994   -1    0    0    0    0 -0.00000000000E+00 -0.00000000000E+00  0.11368683772E-12  0.17120000000E+03  0.17120000000E+03 0.  0.
         13    1    1    2    0    0  0.18130022185E+02 -0.29753355013E+01  0.23324270804E+01  0.18520305232E+02  0.10566000000E+00 0. -1.
        994    1    1    2    0    0 -0.19552976756E+02  0.46939305581E+01  0.18377065690E+02  0.17335370901E+03  0.17120000000E+03 0.  0.
        998    1    1    2    0    0  0.14229545713E+01 -0.17185950568E+01  0.14792905035E+04  0.14793259858E+04  0.10000000000E+02 0. -1.
</event>
<event>
 5    1  0.1252945E-008  0.3860995E+03  0.7957747E-01  0.3425022E+00
         13   -1    0    0    0    0  0.00000000000E+00  0.00000000000E+00  0.14999999963E+04  0.15000000000E+04  0.10566000000E+00 0. -1.
        994   -1    0    0    0    0 -0.00000000000E+00 -0.00000000000E+00  0.11368683772E-12  0.17120000000E+03  0.17120000000E+03 0.  0.
         13    1    1    2    0    0  0.49919350689E+01  0.93262645280E+01  0.50237461897E+02  0.51339189395E+02  0.10566000000E+00 0. -1.
        994    1    1    2    0    0 -0.12205830745E+02 -0.82419377034E+01  0.17963559712E+01  0.17184172583E+03  0.17120000000E+03 0.  0.
        998    1    1    2    0    0  0.72138956764E+01 -0.10843268246E+01  0.14479661784E+04  0.14480190848E+04  0.10000000000E+02 0. -1.
</event>
<event>
 5    1  0.1252945E-008  0.3834112E+03  0.7957747E-01  0.3436439E+00
         13   -1    0    0    0    0  0.00000000000E+00  0.00000000000E+00  0.14999999963E+04  0.15000000000E+04  0.10566000000E+00 0. -1.
        994   -1    0    0    0    0 -0.00000000000E+00 -0.00000000000E+00  0.11368683772E-12  0.17120000000E+03  0.17120000000E+03 0.  0.
         13    1    1    2    0    0 -0.13864998582E+01  0.14006522064E+02  0.39443756814E+02  0.41879901598E+02  0.10566000000E+00 0. -1.
        994    1    1    2    0    0  0.11534700672E+02 -0.12987946426E+02  0.34190939861E+01  0.17211294628E+03  0.17120000000E+03 0.  0.
        998    1    1    2    0    0 -0.10148200813E+02 -0.10185756383E+01  0.14571371455E+04  0.14572071521E+04  0.10000000000E+02 0. -1.
</event>
<event>
 5    1  0.1252945E-008  0.3777644E+03  0.7957747E-01  0.3460951E+00
         13   -1    0    0    0    0  0.00000000000E+00  0.00000000000E+00  0.14999999963E+04  0.15000000000E+04  0.10566000000E+00 0. -1.
        994   -1    0    0    0    0 -0.00000000000E+00 -0.00000000000E+00  0.11368683772E-12  0.17120000000E+03  0.17120000000E+03 0.  0.
         13    1    1    2    0    0 -0.45782641823E+02 -0.57975101306E+02  0.42391621608E+03  0.43030469680E+03  0.10566000000E+00 0. -1.
        994    1    1    2    0    0  0.46908966770E+02  0.41824357845E+02  0.18685391441E+02  0.18332569903E+03  0.17120000000E+03 0.  0.
        998    1    1    2    0    0 -0.11263249472E+01  0.16150743462E+02  0.10573983888E+04  0.10575696042E+04  0.10000000000E+02 0. -1.
</event>
<event>
 5    1  0.1557281E-008  0.3857634E+03  0.7957747E-01  0.3426441E+00
         13   -1    0    0    0    0  0.00000000000E+00  0.00000000000E+00  0.14999999963E+04  0.15000000000E+04  0.10566000000E+00 0. -1.
        994   -1    0    0    0    0 -0.00000000000E+00 -0.00000000000E+00  0.11368683772E-12  0.17120000000E+03  0.17120000000E+03 0.  0.
         13    1    1    2    0    0  0.49018093064E+01 -0.92966707630E+01  0.45863863483E+02  0.47052746566E+02  0.10566000000E+00 0. -1.
        994    1    1    2    0    0 -0.47683320289E+01 -0.25593590578E+00  0.13264250137E+01  0.17127171949E+03  0.17120000000E+03 0.  0.
        998    1    1    2    0    0 -0.13347727746E+00  0.95526066688E+01  0.14528097078E+04  0.14528755339E+04  0.10000000000E+02 0. -1.
</event>
<event>
 5    1  0.1252945E-008  0.3855960E+03  0.7957747E-01  0.3427148E+00
         13   -1    0    0    0    0  0.00000000000E+00  0.00000000000E+00  0.14999999963E+04  0.15000000000E+04  0.10566000000E+00 0. -1.
        994   -1    0    0    0    0 -0.00000000000E+00 -0.00000000000E+00  0.11368683772E-12  0.17120000000E+03  0.17120000000E+03 0.  0.
         13    1    1    2    0    0  0.37034445277E+01  0.10885303674E+02  0.51969505401E+02  0.53226365583E+02  0.10566000000E+00 0. -1.
        994    1    1    2    0    0  0.55733050574E+01 -0.29807106691E+01  0.14656565877E+01  0.17132289548E+03  0.17120000000E+03 0.  0.
        998    1    1    2    0    0 -0.92767495851E+01 -0.79045930053E+01  0.14465648343E+04  0.14466507389E+04  0.10000000000E+02 0. -1.
</event>
<event>
 5    1  0.1252945E-008  0.3856992E+03  0.7957747E-01  0.3426712E+00
         13   -1    0    0    0    0  0.00000000000E+00  0.00000000000E+00  0.14999999963E+04  0.15000000000E+04  0.10566000000E+00 0.  1.
        994   -1    0    0    0    0 -0.00000000000E+00 -0.00000000000E+00  0.11368683772E-12  0.17120000000E+03  0.17120000000E+03 0.  0.
         13    1    1    2    0    0 -0.91939704036E+00  0.12587807804E+02  0.68059907111E+02  0.69220375007E+02  0.10566000000E+00 0.  1.
        994    1    1    2    0    0 -0.14966216191E+01  0.30006909014E+01  0.13203033947E+01  0.17123792577E+03  0.17120000000E+03 0.  0.
        998    1    1    2    0    0  0.24160186594E+01 -0.15588498706E+02  0.14306197858E+04  0.14307416992E+04  0.10000000000E+02 0.  1.
</event>
<event>
 5    1  0.1252945E-008  0.3847887E+03  0.7957747E-01  0.3430569E+00
         13   -1    0    0    0    0  0.00000000000E+00  0.00000000000E+00  0.14999999963E+04  0.15000000000E+04  0.10566000000E+00 0.  1.
        994   -1    0    0    0    0 -0.00000000000E+00 -0.00000000000E+00  0.11368683772E-12  0.17120000000E+03  0.17120000000E+03 0.  0.
         13    1    1    2    0    0  0.26377937295E+00  0.20569072486E+02  0.11969838676E+03  0.12145316496E+03  0.10566000000E+00 0.  1.
        994    1    1    2    0    0 -0.38232820079E+01 -0.14987022243E+02  0.25227412413E+01  0.17191577166E+03  0.17120000000E+03 0.  0.
        998    1    1    2    0    0  0.35595026349E+01 -0.55820502434E+01  0.13777788683E+04  0.13778310634E+04  0.10000000000E+02 0.  1.
</event>
<event>
 5    1  0.1252945E-008  0.3747173E+03  0.7957747E-01  0.3474488E+00
         13   -1    0    0    0    0  0.00000000000E+00  0.00000000000E+00  0.14999999963E+04  0.15000000000E+04  0.10566000000E+00 0. -1.
        994   -1    0    0    0    0 -0.00000000000E+00 -0.00000000000E+00  0.11368683772E-12  0.17120000000E+03  0.17120000000E+03 0.  0.
         13    1    1    2    0    0 -0.48241445579E+02 -0.80686274211E+02  0.46624513847E+03  0.47562806081E+03  0.10566000000E+00 0. -1.
        994    1    1    2    0    0  0.47828397208E+02  0.74207031807E+02  0.33824358295E+02  0.19557036167E+03  0.17120000000E+03 0.  0.
        998    1    1    2    0    0  0.41304837117E+00  0.64792424035E+01  0.99993049951E+03  0.10000015775E+04  0.10000000000E+02 0.  0.
</event>
<event>
 5    1  0.1252945E-008  0.3701957E+03  0.7957747E-01  0.3494992E+00
         13   -1    0    0    0    0  0.00000000000E+00  0.00000000000E+00  0.14999999963E+04  0.15000000000E+04  0.10566000000E+00 0. -1.
        994   -1    0    0    0    0 -0.00000000000E+00 -0.00000000000E+00  0.11368683772E-12  0.17120000000E+03  0.17120000000E+03 0.  0.
         13    1    1    2    0    0  0.64973724136E+02 -0.99217328541E+01  0.30938844209E+03  0.31629297317E+03  0.10566000000E+00 0. -1.
        994    1    1    2    0    0  0.39903713846E+01  0.94151972049E+01  0.95282101278E+01  0.17176960089E+03  0.17120000000E+03 0.  0.
        998    1    1    2    0    0 -0.68964095520E+02  0.50653564923E+00  0.11810833441E+04  0.11831374259E+04  0.10000000000E+02 0. -1.
</event>
<event>
 5    1  0.1252945E-008  0.3856854E+03  0.7957747E-01  0.3426771E+00
         13   -1    0    0    0    0  0.00000000000E+00  0.00000000000E+00  0.14999999963E+04  0.15000000000E+04  0.10566000000E+00 0.  1.
        994   -1    0    0    0    0 -0.00000000000E+00 -0.00000000000E+00  0.11368683772E-12  0.17120000000E+03  0.17120000000E+03 0.  0.
         13    1    1    2    0    0 -0.49559316477E+01 -0.10123603503E+02  0.47539073406E+02  0.48857172152E+02  0.10566000000E+00 0.  1.
        994    1    1    2    0    0  0.81128023562E+01  0.12188151457E+02  0.19939760976E+01  0.17183650526E+03  0.17120000000E+03 0.  0.
        998    1    1    2    0    0 -0.31568707085E+01 -0.20645479545E+01  0.14504669468E+04  0.14505063226E+04  0.10000000000E+02 0.  1.
</event>
<event>
 5    1  0.1252945E-008  0.3880833E+03  0.7957747E-01  0.3416700E+00
         13   -1    0    0    0    0  0.00000000000E+00  0.00000000000E+00  0.14999999963E+04  0.15000000000E+04  0.10566000000E+00 0. -1.
        994   -1    0    0    0    0 -0.00000000000E+00 -0.00000000000E+00  0.11368683772E-12  0.17120000000E+03  0.17120000000E+03 0.  0.
         13    1    1    2    0    0  0.21818785991E+02  0.26483820809E+02  0.21467789142E+02  0.40476280973E+02  0.10566000000E+00 0. -1.
        994    1    1    2    0    0 -0.10134549929E+02  0.16297117624E+02  0.22216866490E+02  0.17369897611E+03  0.17120000000E+03 0.  0.
        998    1    1    2    0    0 -0.11684236062E+02 -0.42780938433E+02  0.14563153406E+04  0.14570247429E+04  0.10000000000E+02 0. -1.
</event>
<event>
 5    1  0.1252945E-008  0.3775047E+03  0.7957747E-01  0.3462096E+00
         13   -1    0    0    0    0  0.00000000000E+00  0.00000000000E+00  0.14999999963E+04  0.15000000000E+04  0.10566000000E+00 0. -1.
        994   -1    0    0    0    0 -0.00000000000E+00 -0.00000000000E+00  0.11368683772E-12  0.17120000000E+03  0.17120000000E+03 0.  0.
         13    1    1    2    0    0  0.82101258940E+01 -0.35713064031E+02  0.17626167594E+03  0.18003060484E+03  0.10566000000E+00 0. -1.
        994    1    1    2    0    0 -0.32057560059E+02 -0.40487696860E+02  0.14440959037E+02  0.17940156647E+03  0.17120000000E+03 0.  0.
        998    1    1    2    0    0  0.23847434165E+02  0.76200760891E+02  0.13092973613E+04  0.13117678287E+04  0.10000000000E+02 0. -1.
</event>
<event>
 5    1  0.1252945E-008  0.3838877E+03  0.7957747E-01  0.3434403E+00
         13   -1    0    0    0    0  0.00000000000E+00  0.00000000000E+00  0.14999999963E+04  0.15000000000E+04  0.10566000000E+00 0.  1.
        994   -1    0    0    0    0 -0.00000000000E+00 -0.00000000000E+00  0.11368683772E-12  0.17120000000E+03  0.17120000000E+03 0.  0.
         13    1    1    2    0    0 -0.43252505913E+01 -0.98308800857E+01  0.25644020232E+02  0.27802534662E+02  0.10566000000E+00 0.  1.
        994    1    1    2    0    0  0.70396985736E+01  0.62390213862E+01  0.24754594333E+01  0.17147609350E+03  0.17120000000E+03 0.  0.
        998    1    1    2    0    0 -0.27144479823E+01  0.35918586995E+01  0.14718805166E+04  0.14719213718E+04  0.10000000000E+02 0.  1.
</event>
<event>
 5    1  0.1252945E-008  0.3810105E+03  0.7957747E-01  0.3446770E+00
         13   -1    0    0    0    0  0.00000000000E+00  0.00000000000E+00  0.14999999963E+04  0.15000000000E+04  0.10566000000E+00 0.  1.
        994   -1    0    0    0    0 -0.00000000000E+00 -0.00000000000E+00  0.11368683772E-12  0.17120000000E+03  0.17120000000E+03 0.  0.
         13    1    1    2    0    0  0.10683984574E+02  0.13594951755E+02  0.40325614036E+02  0.43876378053E+02  0.10566000000E+00 0.  1.
        994    1    1    2    0    0 -0.94693694350E+00 -0.10224153394E+02  0.39752766175E+01  0.17155370246E+03  0.17120000000E+03 0.  0.
        998    1    1    2    0    0 -0.97370476309E+01 -0.33707983603E+01  0.14556991056E+04  0.14557699195E+04  0.10000000000E+02 0.  1.
</event>
<event>
 5    1  0.1252945E-008  0.3860462E+03  0.7957747E-01  0.3425247E+00
         13   -1    0    0    0    0  0.00000000000E+00  0.00000000000E+00  0.14999999963E+04  0.15000000000E+04  0.10566000000E+00 0.  1.
        994   -1    0    0    0    0 -0.00000000000E+00 -0.00000000000E+00  0.11368683772E-12  0.17120000000E+03  0.17120000000E+03 0.  0.
         13    1    1    2    0    0  0.89570069989E+01  0.79912086494E+01  0.66235506870E+02  0.67314492677E+02  0.10566000000E+00 0.  1.
        994    1    1    2    0    0 -0.10552207741E+02  0.14886265777E+01  0.14839219970E+01  0.17153777171E+03  0.17120000000E+03 0.  0.
        998    1    1    2    0    0  0.15952007422E+01 -0.94798352271E+01  0.14322805674E+04  0.14323477356E+04  0.10000000000E+02 0.  1.
</event>
<event>
 5    1  0.1252945E-008  0.3742843E+03  0.7957747E-01  0.3476430E+00
         13   -1    0    0    0    0  0.00000000000E+00  0.00000000000E+00  0.14999999963E+04  0.15000000000E+04  0.10566000000E+00 0.  1.
        994   -1    0    0    0    0 -0.00000000000E+00 -0.00000000000E+00  0.11368683772E-12  0.17120000000E+03  0.17120000000E+03 0.  0.
         13    1    1    2    0    0  0.98293035154E+01  0.12701931061E+02  0.15001731226E+02  0.21977656019E+02  0.10566000000E+00 0.  1.
        994    1    1    2    0    0 -0.97904227812E+01 -0.14747799719E+02  0.81151260378E+01  0.17230393276E+03  0.17120000000E+03 0.  0.
        998    1    1    2    0    0 -0.38880734148E-01  0.20458686581E+01  0.14768831390E+04  0.14769184112E+04  0.10000000000E+02 0.  1.
</event>
<event>
 5    1  0.1252945E-008  0.3743533E+03  0.7957747E-01  0.3476120E+00
         13   -1    0    0    0    0  0.00000000000E+00  0.00000000000E+00  0.14999999963E+04  0.15000000000E+04  0.10566000000E+00 0. -1.
        994   -1    0    0    0    0 -0.00000000000E+00 -0.00000000000E+00  0.11368683772E-12  0.17120000000E+03  0.17120000000E+03 0.  0.
         13    1    1    2    0    0 -0.77019752832E+02 -0.19103633594E+02  0.23622332784E+03  0.24919563183E+03  0.10566000000E+00 0. -1.
        994    1    1    2    0    0  0.30781908398E+02  0.72939721638E+02  0.35859574311E+02  0.19199759881E+03  0.17120000000E+03 0.  0.
        998    1    1    2    0    0  0.46237844434E+02 -0.53836088044E+02  0.12279170941E+04  0.12300067694E+04  0.10000000000E+02 0. -1.
</event>
<event>
 5    1  0.1252945E-008  0.3799970E+03  0.7957747E-01  0.3451172E+00
         13   -1    0    0    0    0  0.00000000000E+00  0.00000000000E+00  0.14999999963E+04  0.15000000000E+04  0.10566000000E+00 0.  1.
        994   -1    0    0    0    0 -0.00000000000E+00 -0.00000000000E+00  0.11368683772E-12  0.17120000000E+03  0.17120000000E+03 0.  0.
         13    1    1    2    0    0 -0.12641755799E+02 -0.55009485614E+02  0.28070156724E+03  0.28632016784E+03  0.10566000000E+00 0.  1.
        994    1    1    2    0    0  0.39858963426E+02  0.62600994812E+02  0.22771643970E+02  0.18797768295E+03  0.17120000000E+03 0.  0.
        998    1    1    2    0    0 -0.27217207626E+02 -0.75915091981E+01  0.11965267851E+04  0.11969021492E+04  0.10000000000E+02 0.  1.
</event>
<event>
 5    1  0.1252945E-008  0.3848373E+03  0.7957747E-01  0.3430363E+00
         13   -1    0    0    0    0  0.00000000000E+00  0.00000000000E+00  0.14999999963E+04  0.15000000000E+04  0.10566000000E+00 0. -1.
        994   -1    0    0    0    0 -0.00000000000E+00 -0.00000000000E+00  0.11368683772E-12  0.17120000000E+03  0.17120000000E+03 0.  0.
         13    1    1    2    0    0 -0.12710791403E+01 -0.10143868500E+02  0.30684068097E+02  0.32342493865E+02  0.10566000000E+00 0. -1.
        994    1    1    2    0    0  0.37473120170E+01  0.32628072878E+01  0.17921782676E+01  0.17128146473E+03  0.17120000000E+03 0.  0.
        998    1    1    2    0    0 -0.24762328767E+01  0.68810612127E+01  0.14675237499E+04  0.14675760414E+04  0.10000000000E+02 0. -1.
</event>
<event>
 5    1  0.1252945E-008  0.4155252E+03  0.7957747E-01  0.3309703E+00
         13   -1    0    0    0    0  0.00000000000E+00  0.00000000000E+00  0.14999999963E+04  0.15000000000E+04  0.10566000000E+00 0.  1.
        994   -1    0    0    0    0 -0.00000000000E+00 -0.00000000000E+00  0.11368683772E-12  0.17120000000E+03  0.17120000000E+03 0.  0.
         13    1    1    2    0    0  0.14724084144E+03  0.13306887426E+02  0.27208888770E+03  0.30965999518E+03  0.10566000000E+00 0.  1.
        994    1    1    2    0    0 -0.10377760119E+03 -0.29337344359E+02  0.88000271086E+02  0.22064441528E+03  0.17120000000E+03 0.  0.
        998    1    1    2    0    0 -0.43463240250E+02  0.16030456933E+02  0.11399108375E+04  0.11408955895E+04  0.10000000000E+02 0.  1.
</event>
<event>
 5    1  0.1252945E-008  0.3793994E+03  0.7957747E-01  0.3453778E+00
         13   -1    0    0    0    0  0.00000000000E+00  0.00000000000E+00  0.14999999963E+04  0.15000000000E+04  0.10566000000E+00 0.  1.
        994   -1    0    0    0    0 -0.00000000000E+00 -0.00000000000E+00  0.11368683772E-12  0.17120000000E+03  0.17120000000E+03 0.  0.
         13    1    1    2    0    0  0.13460391461E+02  0.10120160401E+02  0.30424197367E+02  0.34774167629E+02  0.10566000000E+00 0.  1.
        994    1    1    2    0    0 -0.65492600582E+01 -0.59920735155E+01  0.47006306107E+01  0.17149441297E+03  0.17120000000E+03 0.  0.
        998    1    1    2    0    0 -0.69111314030E+01 -0.41280868858E+01  0.14648751683E+04  0.14649314194E+04  0.10000000000E+02 0.  1.
</event>
<event>
 5    1  0.1252945E-008  0.3724603E+03  0.7957747E-01  0.3484660E+00
         13   -1    0    0    0    0  0.00000000000E+00  0.00000000000E+00  0.14999999963E+04  0.15000000000E+04  0.10566000000E+00 0. -1.
        994   -1    0    0    0    0 -0.00000000000E+00 -0.00000000000E+00  0.11368683772E-12  0.17120000000E+03  0.17120000000E+03 0.  0.
         13    1    1    2    0    0 -0.23724595527E+02 -0.99152894639E+01  0.38079829435E+02  0.45948383779E+02  0.10566000000E+00 0. -1.
        994    1    1    2    0    0  0.95430295242E+01  0.24482914751E+02  0.10359761285E+02  0.17351440050E+03  0.17120000000E+03 0.  0.
        998    1    1    2    0    0  0.14181566003E+02 -0.14567625287E+02  0.14515604056E+04  0.14517372157E+04  0.10000000000E+02 0. -1.
</event>
<event>
 5    1  0.1252945E-008  0.3858597E+03  0.7957747E-01  0.3426034E+00
         13   -1    0    0    0    0  0.00000000000E+00  0.00000000000E+00  0.14999999963E+04  0.15000000000E+04  0.10566000000E+00 0. -1.
        994   -1    0    0    0    0 -0.00000000000E+00 -0.00000000000E+00  0.11368683772E-12  0.17120000000E+03  0.17120000000E+03 0.  0.
         13    1    1    2    0    0 -0.10703863466E+02  0.41081520492E+01  0.55484459825E+02  0.56656738809E+02  0.10566000000E+00 0. -1.
        994    1    1    2    0    0  0.49821106895E+01 -0.57788553875E+01  0.13948489467E+01  0.17137561729E+03  0.17120000000E+03 0.  0.
        998    1    1    2    0    0  0.57217527766E+01  0.16707033383E+01  0.14431206875E+04  0.14431676439E+04  0.10000000000E+02 0. -1.
</event>
<event>
 5    1  0.1252945E-008  0.3833463E+03  0.7957747E-01  0.3436716E+00
         13   -1    0    0    0    0  0.00000000000E+00  0.00000000000E+00  0.14999999963E+04  0.15000000000E+04  0.10566000000E+00 0.  1.
        994   -1    0    0    0    0 -0.00000000000E+00 -0.00000000000E+00  0.11368683772E-12  0.17120000000E+03  0.17120000000E+03 0.  0.
         13    1    1    2    0    0 -0.22780623597E+03  0.17031767645E+02  0.91498955080E+03  0.94307563402E+03  0.10566000000E+00 0.  1.
        994    1    1    2    0    0  0.26037766162E+03 -0.30614849660E+01  0.27405419816E+03  0.41499523237E+03  0.17120000000E+03 0.  0.
        998    1    1    2    0    0 -0.32571425649E+02 -0.13970282679E+02  0.31095624732E+03  0.31312913361E+03  0.10000000000E+02 0.  1.
</event>
<event>
 5    1  0.1252945E-008  0.3774489E+03  0.7957747E-01  0.3462342E+00
         13   -1    0    0    0    0  0.00000000000E+00  0.00000000000E+00  0.14999999963E+04  0.15000000000E+04  0.10566000000E+00 0.  1.
        994   -1    0    0    0    0 -0.00000000000E+00 -0.00000000000E+00  0.11368683772E-12  0.17120000000E+03  0.17120000000E+03 0.  0.
         13    1    1    2    0    0 -0.24030627038E+02 -0.54436634528E+02  0.34217414482E+03  0.34730962377E+03  0.10566000000E+00 0.  1.
        994    1    1    2    0    0  0.56887937864E+02  0.10337429922E+02  0.16781428178E+02  0.18147770184E+03  0.17120000000E+03 0.  0.
        998    1    1    2    0    0 -0.32857310826E+02  0.44099204605E+02  0.11410444233E+04  0.11424126744E+04  0.10000000000E+02 0.  1.
</event>
<event>
 5    1  0.1252945E-008  0.3822793E+03  0.7957747E-01  0.3441293E+00
         13   -1    0    0    0    0  0.00000000000E+00  0.00000000000E+00  0.14999999963E+04  0.15000000000E+04  0.10566000000E+00 0.  1.
        994   -1    0    0    0    0 -0.00000000000E+00 -0.00000000000E+00  0.11368683772E-12  0.17120000000E+03  0.17120000000E+03 0.  0.
         13    1    1    2    0    0 -0.26096272748E+02  0.13562825096E+00  0.13562872527E+03  0.13811660337E+03  0.10566000000E+00 0.  1.
        994    1    1    2    0    0 -0.95491590459E+01 -0.67275097022E+01  0.34397993704E+01  0.17163250871E+03  0.17120000000E+03 0.  0.
        998    1    1    2    0    0  0.35645431794E+02  0.65918814512E+01  0.13609314716E+04  0.13614508879E+04  0.10000000000E+02 0.  1.
</event>
<event>
 5    1  0.1252945E-008  0.3857437E+03  0.7957747E-01  0.3426524E+00
         13   -1    0    0    0    0  0.00000000000E+00  0.00000000000E+00  0.14999999963E+04  0.15000000000E+04  0.10566000000E+00 0.  1.
        994   -1    0    0    0    0 -0.00000000000E+00 -0.00000000000E+00  0.11368683772E-12  0.17120000000E+03  0.17120000000E+03 0.  0.
         13    1    1    2    0    0  0.76231564279E+01 -0.10868905846E+02  0.73595780482E+02  0.74783659291E+02  0.10566000000E+00 0.  1.
        994    1    1    2    0    0 -0.71506857178E-01  0.36605843016E+01  0.13053176074E+01  0.17124412061E+03  0.17120000000E+03 0.  0.
        998    1    1    2    0    0 -0.75516495707E+01  0.72083215442E+01  0.14250988982E+04  0.14251722201E+04  0.10000000000E+02 0.  1.
</event>
<event>
 5    1  0.1252945E-008  0.3685883E+03  0.7957747E-01  0.3502404E+00
         13   -1    0    0    0    0  0.00000000000E+00  0.00000000000E+00  0.14999999963E+04  0.15000000000E+04  0.10566000000E+00 0.  1.
        994   -1    0    0    0    0 -0.00000000000E+00 -0.00000000000E+00  0.11368683772E-12  0.17120000000E+03  0.17120000000E+03 0.  0.
         13    1    1    2    0    0  0.44040751078E+02 -0.62671449135E+02  0.33693611329E+03  0.34553328913E+03  0.10566000000E+00 0.  1.
        994    1    1    2    0    0 -0.27845398390E+02  0.87028858234E+01  0.12971739162E+02  0.17415169379E+03  0.17120000000E+03 0.  0.
        998    1    1    2    0    0 -0.16195352688E+02  0.53968563312E+02  0.11500921438E+04  0.11515150171E+04  0.10000000000E+02 0.  1.
</event>
<event>
 5    1  0.1252945E-008  0.3827334E+03  0.7957747E-01  0.3439342E+00
         13   -1    0    0    0    0  0.00000000000E+00  0.00000000000E+00  0.14999999963E+04  0.15000000000E+04  0.10566000000E+00 0.  1.
        994   -1    0    0    0    0 -0.00000000000E+00 -0.00000000000E+00  0.11368683772E-12  0.17120000000E+03  0.17120000000E+03 0.  0.
         13    1    1    2    0    0  0.22835531534E+02  0.67364301688E+01  0.97740399309E+02  0.10059839866E+03  0.10566000000E+00 0.  1.
        994    1    1    2    0    0 -0.19778303827E+02 -0.92488153703E+01  0.43406179763E+01  0.17264125478E+03  0.17120000000E+03 0.  0.
        998    1    1    2    0    0 -0.30572277068E+01  0.25123852015E+01  0.13979189790E+04  0.13979603466E+04  0.10000000000E+02 0.  0.
</event>
<event>
 5    1  0.1252945E-008  0.3804156E+03  0.7957747E-01  0.3449351E+00
         13   -1    0    0    0    0  0.00000000000E+00  0.00000000000E+00  0.14999999963E+04  0.15000000000E+04  0.10566000000E+00 0.  1.
        994   -1    0    0    0    0 -0.00000000000E+00 -0.00000000000E+00  0.11368683772E-12  0.17120000000E+03  0.17120000000E+03 0.  0.
         13    1    1    2    0    0 -0.38826372892E+02  0.13047606551E+01  0.22254186910E+03  0.22590724712E+03  0.10566000000E+00 0.  1.
        994    1    1    2    0    0  0.37549385678E+01 -0.12337881261E+02  0.44789408656E+01  0.17174348252E+03  0.17120000000E+03 0.  0.
        998    1    1    2    0    0  0.35071434324E+02  0.11033120606E+02  0.12729791863E+04  0.12735492704E+04  0.10000000000E+02 0.  1.
</event>
<event>
 5    1  0.1252945E-008  0.3714422E+03  0.7957747E-01  0.3489289E+00
         13   -1    0    0    0    0  0.00000000000E+00  0.00000000000E+00  0.14999999963E+04  0.15000000000E+04  0.10566000000E+00 0. -1.
        994   -1    0    0    0    0 -0.00000000000E+00 -0.00000000000E+00  0.11368683772E-12  0.17120000000E+03  0.17120000000E+03 0.  0.
         13    1    1    2    0    0  0.83608384344E+01  0.73600624268E+01  0.31805114175E+01  0.11584513592E+02  0.10566000000E+00 0. -1.
        994    1    1    2    0    0 -0.19904453456E+02 -0.10804261111E+02  0.10283892244E+02  0.17299745017E+03  0.17120000000E+03 0.  0.
        998    1    1    2    0    0  0.11543615022E+02  0.34441986841E+01  0.14865355926E+04  0.14866180362E+04  0.10000000000E+02 0. -1.
</event>
<event>
 5    1  0.1252945E-008  0.4021138E+03  0.7957747E-01  0.3360182E+00
         13   -1    0    0    0    0  0.00000000000E+00  0.00000000000E+00  0.14999999963E+04  0.15000000000E+04  0.10566000000E+00 0.  1.
        994   -1    0    0    0    0 -0.00000000000E+00 -0.00000000000E+00  0.11368683772E-12  0.17120000000E+03  0.17120000000E+03 0.  0.
         13    1    1    2    0    0 -0.70408146931E+02  0.95391295979E+02  0.18553770449E+03  0.22018414442E+03  0.10566000000E+00 0.  1.
        994    1    1    2    0    0  0.73976743149E+02 -0.11737868058E+03  0.10997452468E+03  0.24628063111E+03  0.17120000000E+03 0.  0.
        998    1    1    2    0    0 -0.35685962182E+01  0.21987384605E+02  0.12044877671E+04  0.12047352245E+04  0.10000000000E+02 0.  1.
</event>
<event>
 5    1  0.1252945E-008  0.3803079E+03  0.7957747E-01  0.3449819E+00
         13   -1    0    0    0    0  0.00000000000E+00  0.00000000000E+00  0.14999999963E+04  0.15000000000E+04  0.10566000000E+00 0.  1.
        994   -1    0    0    0    0 -0.00000000000E+00 -0.00000000000E+00  0.11368683772E-12  0.17120000000E+03  0.17120000000E+03 0.  0.
         13    1    1    2    0    0  0.61573747931E+01  0.19804997201E+02  0.55648555125E+02  0.59387911481E+02  0.10566000000E+00 0.  1.
        994    1    1    2    0    0 -0.15771861243E+02  0.53930387010E+01  0.49061986509E+01  0.17207947948E+03  0.17120000000E+03 0.  0.
        998    1    1    2    0    0  0.96144864501E+01 -0.25198035902E+02  0.14394452425E+04  0.14397326090E+04  0.10000000000E+02 0.  1.
</event>
<event>
 5    1  0.1252945E-008  0.3979062E+03  0.7957747E-01  0.3376714E+00
         13   -1    0    0    0    0  0.00000000000E+00  0.00000000000E+00  0.14999999963E+04  0.15000000000E+04  0.10566000000E+00 0. -1.
        994   -1    0    0    0    0 -0.00000000000E+00 -0.00000000000E+00  0.11368683772E-12  0.17120000000E+03  0.17120000000E+03 0.  0.
         13    1    1    2    0    0 -0.60909702195E+02  0.12019792299E+01  0.59208491626E+02  0.84953476798E+02  0.10566000000E+00 0. -1.
        994    1    1    2    0    0  0.56842081028E+02 -0.29836701093E+00  0.39183410088E+02  0.18459656233E+03  0.17120000000E+03 0.  0.
        998    1    1    2    0    0  0.40676211661E+01 -0.90361221896E+00  0.14016080946E+04  0.14016499609E+04  0.10000000000E+02 0. -1.
</event>
<event>
 5    1  0.1252945E-008  0.3824754E+03  0.7957747E-01  0.3440450E+00
         13   -1    0    0    0    0  0.00000000000E+00  0.00000000000E+00  0.14999999963E+04  0.15000000000E+04  0.10566000000E+00 0.  1.
        994   -1    0    0    0    0 -0.00000000000E+00 -0.00000000000E+00  0.11368683772E-12  0.17120000000E+03  0.17120000000E+03 0.  0.
         13    1    1    2    0    0  0.59443460400E+01 -0.24372617408E+02  0.11038890157E+03  0.11320371232E+03  0.10566000000E+00 0.  1.
        994    1    1    2    0    0 -0.35855418645E+01  0.11438319979E+02  0.33653597154E+01  0.17165213928E+03  0.17120000000E+03 0.  0.
        998    1    1    2    0    0 -0.23588041755E+01  0.12934297429E+02  0.13862457350E+04  0.13863441484E+04  0.10000000000E+02 0.  1.
</event>
<event>
 5    1  0.1252945E-008  0.3713583E+03  0.7957747E-01  0.3489672E+00
         13   -1    0    0    0    0  0.00000000000E+00  0.00000000000E+00  0.14999999963E+04  0.15000000000E+04  0.10566000000E+00 0.  1.
        994   -1    0    0    0    0 -0.00000000000E+00 -0.00000000000E+00  0.11368683772E-12  0.17120000000E+03  0.17120000000E+03 0.  0.
         13    1    1    2    0    0 -0.58303067424E+02  0.45285834086E+02  0.21663686497E+03  0.22887026209E+03  0.10566000000E+00 0.  1.
        994    1    1    2    0    0  0.50829504404E+02 -0.25951052193E+02  0.23189362573E+02  0.18194582206E+03  0.17120000000E+03 0.  0.
        998    1    1    2    0    0  0.74735630207E+01 -0.19334781893E+02  0.12601737687E+04  0.12603839159E+04  0.10000000000E+02 0.  1.
</event>
<event>
 5    1  0.1252945E-008  0.3845919E+03  0.7957747E-01  0.3431405E+00
         13   -1    0    0    0    0  0.00000000000E+00  0.00000000000E+00  0.14999999963E+04  0.15000000000E+04  0.10566000000E+00 0.  1.
        994   -1    0    0    0    0 -0.00000000000E+00 -0.00000000000E+00  0.11368683772E-12  0.17120000000E+03  0.17120000000E+03 0.  0.
         13    1    1    2    0    0  0.56707487074E+02 -0.65734294446E+02  0.26643242231E+03  0.28021952712E+03  0.10566000000E+00 0.  1.
        994    1    1    2    0    0 -0.50215752025E+01 -0.20805027615E+02  0.20562778402E+02  0.17375365679E+03  0.17120000000E+03 0.  0.
        998    1    1    2    0    0 -0.51685911871E+02  0.86539322061E+02  0.12130047956E+04  0.12172268161E+04  0.10000000000E+02 0.  1.
</event>
<event>
 5    1  0.1252945E-008  0.3830559E+03  0.7957747E-01  0.3437959E+00
         13   -1    0    0    0    0  0.00000000000E+00  0.00000000000E+00  0.14999999963E+04  0.15000000000E+04  0.10566000000E+00 0. -1.
        994   -1    0    0    0    0 -0.00000000000E+00 -0.00000000000E+00  0.11368683772E-12  0.17120000000E+03  0.17120000000E+03 0.  0.
         13    1    1    2    0    0 -0.16872200487E+02 -0.91260005746E+01  0.71731696307E+02  0.74252289223E+02  0.10566000000E+00 0. -1.
        994    1    1    2    0    0  0.49187561623E+01  0.76138524886E+01  0.28704153086E+01  0.17146382766E+03  0.17120000000E+03 0.  0.
        998    1    1    2    0    0  0.11953444325E+02  0.15121480859E+01  0.14253978847E+04  0.14254838831E+04  0.10000000000E+02 0. -1.
</event>
<event>
 5    1  0.1252945E-008  0.3810806E+03  0.7957747E-01  0.3446467E+00
         13   -1    0    0    0    0  0.00000000000E+00  0.00000000000E+00  0.14999999963E+04  0.15000000000E+04  0.10566000000E+00 0.  1.
        994   -1    0    0    0    0 -0.00000000000E+00 -0.00000000000E+00  0.11368683772E-12  0.17120000000E+03  0.17120000000E+03 0.  0.
         13    1    1    2    0    0 -0.48539713612E+02  0.16533208531E+02  0.20195109514E+03  0.20835956128E+03  0.10566000000E+00 0.  1.
        994    1    1    2    0    0  0.13513228335E+03  0.30381018844E+02  0.70377149173E+02  0.23118417644E+03  0.17120000000E+03 0.  0.
        998    1    1    2    0    0 -0.86592569737E+02 -0.46914227374E+02  0.12276717520E+04  0.12316562623E+04  0.10000000000E+02 0.  1.
</event>
<event>
 5    1  0.1252945E-008  0.3774896E+03  0.7957747E-01  0.3462163E+00
         13   -1    0    0    0    0  0.00000000000E+00  0.00000000000E+00  0.14999999963E+04  0.15000000000E+04  0.10566000000E+00 0. -1.
        994   -1    0    0    0    0 -0.00000000000E+00 -0.00000000000E+00  0.11368683772E-12  0.17120000000E+03  0.17120000000E+03 0.  0.
         13    1    1    2    0    0  0.95215167250E+01  0.10452539536E+02  0.16296432412E+02  0.21575442913E+02  0.10566000000E+00 0. -1.
        994    1    1    2    0    0 -0.82211297500E+01 -0.92814527663E+00  0.56365379368E+01  0.17149244586E+03  0.17120000000E+03 0.  0.
        998    1    1    2    0    0 -0.13003869750E+01 -0.95243942589E+01  0.14780670259E+04  0.14781321112E+04  0.10000000000E+02 0. -1.
</event>
<event>
 5    1  0.1252945E-008  0.3820518E+03  0.7957747E-01  0.3442273E+00
         13   -1    0    0    0    0  0.00000000000E+00  0.00000000000E+00  0.14999999963E+04  0.15000000000E+04  0.10566000000E+00 0.  1.
        994   -1    0    0    0    0 -0.00000000000E+00 -0.00000000000E+00  0.11368683772E-12  0.17120000000E+03  0.17120000000E+03 0.  0.
         13    1    1    2    0    0  0.32642260763E+02  0.92685495247E+01  0.18775812770E+03  0.19079976122E+03  0.10566000000E+00 0.  1.
        994    1    1    2    0    0 -0.18204357044E+02 -0.94559664782E+00  0.42050998604E+01  0.17221909195E+03  0.17120000000E+03 0.  0.
        998    1    1    2    0    0 -0.14437903719E+02 -0.83229528769E+01  0.13080367687E+04  0.13081811468E+04  0.10000000000E+02 0.  1.
</event>
<event>
 5    1  0.1252945E-008  0.3837072E+03  0.7957747E-01  0.3435174E+00
         13   -1    0    0    0    0  0.00000000000E+00  0.00000000000E+00  0.14999999963E+04  0.15000000000E+04  0.10566000000E+00 0.  1.
        994   -1    0    0    0    0 -0.00000000000E+00 -0.00000000000E+00  0.11368683772E-12  0.17120000000E+03  0.17120000000E+03 0.  0.
         13    1    1    2    0    0  0.32512935972E+01  0.20676319883E+02  0.90753352032E+02  0.93135724526E+02  0.10566000000E+00 0.  1.
        994    1    1    2    0    0  0.13963795367E+01 -0.22246000287E+02  0.39158492248E+01  0.17268934038E+03  0.17120000000E+03 0.  0.
        998    1    1    2    0    0 -0.46476731339E+01  0.15696804043E+01  0.14053307950E+04  0.14053749351E+04  0.10000000000E+02 0.  1.
</event>
<event>
 5    1  0.1252945E-008  0.3738971E+03  0.7957747E-01  0.3478170E+00
         13   -1    0    0    0    0  0.00000000000E+00  0.00000000000E+00  0.14999999963E+04  0.15000000000E+04  0.10566000000E+00 0. -1.
        994   -1    0    0    0    0 -0.00000000000E+00 -0.00000000000E+00  0.11368683772E-12  0.17120000000E+03  0.17120000000E+03 0.  0.
         13    1    1    2    0    0  0.10242583361E+02  0.65727138392E+02  0.22872631575E+03  0.23820307705E+03  0.10566000000E+00 0. -1.
        994    1    1    2    0    0 -0.58472249064E+02  0.29539274680E+02  0.28385834303E+02  0.18549061499E+03  0.17120000000E+03 0.  0.
        998    1    1    2    0    0  0.48229665702E+02 -0.95266413072E+02  0.12428878462E+04  0.12475063080E+04  0.10000000000E+02 0. -1.
</event>
<event>
 5    1  0.1252945E-008  0.3792703E+03  0.7957747E-01  0.3454342E+00
         13   -1    0    0    0    0  0.00000000000E+00  0.00000000000E+00  0.14999999963E+04  0.15000000000E+04  0.10566000000E+00 0.  1.
        994   -1    0    0    0    0 -0.00000000000E+00 -0.00000000000E+00  0.11368683772E-12  0.17120000000E+03  0.17120000000E+03 0.  0.
         13    1    1    2    0    0  0.27870823923E+02 -0.13685242986E+02  0.23026025254E+02  0.38655888358E+02  0.10566000000E+00 0.  1.
        994    1    1    2    0    0 -0.38952101637E+02  0.20104450807E+01  0.21444777137E+02  0.17689156729E+03  0.17120000000E+03 0.  0.
        998    1    1    2    0    0  0.11081277714E+02  0.11674797906E+02  0.14555291939E+04  0.14556525444E+04  0.10000000000E+02 0.  1.
</event>
<event>
 5    1  0.1252945E-008  0.3827222E+03  0.7957747E-01  0.3439391E+00
         13   -1    0    0    0    0  0.00000000000E+00  0.00000000000E+00  0.14999999963E+04  0.15000000000E+04  0.10566000000E+00 0.  1.
        994   -1    0    0    0    0 -0.00000000000E+00 -0.00000000000E+00  0.11368683772E-12  0.17120000000E+03  0.17120000000E+03 0.  0.
         13    1    1    2    0    0 -0.11204395667E+02  0.16934690675E+02  0.71628604797E+02  0.74451262043E+02  0.10566000000E+00 0.  1.
        994    1    1    2    0    0  0.12676312744E+02 -0.13778037897E+02  0.39274712561E+01  0.17226545871E+03  0.17120000000E+03 0.  0.
        998    1    1    2    0    0 -0.14719170770E+01 -0.31566527780E+01  0.14244439202E+04  0.14244832793E+04  0.10000000000E+02 0.  1.
</event>
<event>
 5    1  0.1252945E-008  0.3804344E+03  0.7957747E-01  0.3449269E+00
         13   -1    0    0    0    0  0.00000000000E+00  0.00000000000E+00  0.14999999963E+04  0.15000000000E+04  0.10566000000E+00 0. -1.
        994   -1    0    0    0    0 -0.00000000000E+00 -0.00000000000E+00  0.11368683772E-12  0.17120000000E+03  0.17120000000E+03 0.  0.
         13    1    1    2    0    0 -0.96086437869E+01  0.78160193306E+01  0.18464070404E+02  0.22233966212E+02  0.10566000000E+00 0. -1.
        994    1    1    2    0    0 -0.14459955016E+02 -0.14922861513E+02  0.53566723146E+01  0.17253960714E+03  0.17120000000E+03 0.  0.
        998    1    1    2    0    0  0.24068598803E+02  0.71068421824E+01  0.14761792536E+04  0.14764264266E+04  0.10000000000E+02 0. -1.
</event>
<event>
 5    1  0.1252945E-008  0.3821464E+03  0.7957747E-01  0.3441865E+00
         13   -1    0    0    0    0  0.00000000000E+00  0.00000000000E+00  0.14999999963E+04  0.15000000000E+04  0.10566000000E+00 0.  1.
        994   -1    0    0    0    0 -0.00000000000E+00 -0.00000000000E+00  0.11368683772E-12  0.17120000000E+03  0.17120000000E+03 0.  0.
         13    1    1    2    0    0 -0.11387653599E+02  0.59662249497E+01  0.25991635075E+02  0.28997426654E+02  0.10566000000E+00 0.  1.
        994    1    1    2    0    0  0.91287942732E+01  0.25897509253E+00  0.33304478624E+01  0.17147575291E+03  0.17120000000E+03 0.  0.
        998    1    1    2    0    0  0.22588593258E+01 -0.62252000422E+01  0.14706779133E+04  0.14707268204E+04  0.10000000000E+02 0.  1.
</event>
<event>
 5    1  0.1252945E-008  0.3845867E+03  0.7957747E-01  0.3431427E+00
         13   -1    0    0    0    0  0.00000000000E+00  0.00000000000E+00  0.14999999963E+04  0.15000000000E+04  0.10566000000E+00 0.  1.
        994   -1    0    0    0    0 -0.00000000000E+00 -0.00000000000E+00  0.11368683772E-12  0.17120000000E+03  0.17120000000E+03 0.  0.
         13    1    1    2    0    0 -0.23577453360E+01 -0.19726483751E+02  0.10498078964E+03  0.10684414108E+03  0.10566000000E+00 0.  1.
        994    1    1    2    0    0  0.22317860431E+01  0.15296793124E+02  0.26228345292E+01  0.17191652628E+03  0.17120000000E+03 0.  0.
        998    1    1    2    0    0  0.12595929286E+00  0.44296906265E+01  0.13923963721E+04  0.13924393326E+04  0.10000000000E+02 0.  1.
</event>
<event>
 5    1  0.1252945E-008  0.3769412E+03  0.7957747E-01  0.3464586E+00
         13   -1    0    0    0    0  0.00000000000E+00  0.00000000000E+00  0.14999999963E+04  0.15000000000E+04  0.10566000000E+00 0.  1.
        994   -1    0    0    0    0 -0.00000000000E+00 -0.00000000000E+00  0.11368683772E-12  0.17120000000E+03  0.17120000000E+03 0.  0.
         13    1    1    2    0    0  0.25672688922E+02  0.13784601688E+02  0.81942613148E+02  0.86969564870E+02  0.10566000000E+00 0.  1.
        994    1    1    2    0    0  0.52477535159E+01  0.13395216541E+02  0.63845062462E+01  0.17192199587E+03  0.17120000000E+03 0.  0.
        998    1    1    2    0    0 -0.30920442437E+02 -0.27179818229E+02  0.14116728769E+04  0.14123084393E+04  0.10000000000E+02 0.  1.
</event>
<event>
 5    1  0.1322820E-008  0.3852721E+03  0.7957747E-01  0.3428519E+00
         13   -1    0    0    0    0  0.00000000000E+00  0.00000000000E+00  0.14999999963E+04  0.15000000000E+04  0.10566000000E+00 0. -1.
        994   -1    0    0    0    0 -0.00000000000E+00 -0.00000000000E+00  0.11368683772E-12  0.17120000000E+03  0.17120000000E+03 0.  0.
         13    1    1    2    0    0  0.88732586499E+01 -0.77511381132E+01  0.47207871297E+02  0.48656028790E+02  0.10566000000E+00 0. -1.
        994    1    1    2    0    0 -0.31485973759E+01  0.42743760607E+01  0.15877147930E+01  0.17128965174E+03  0.17120000000E+03 0.  0.
        998    1    1    2    0    0 -0.57246612739E+01  0.34767620525E+01  0.14512044102E+04  0.14512543195E+04  0.10000000000E+02 0. -1.
</event>
<event>
 5    1  0.1252945E-008  0.3802782E+03  0.7957747E-01  0.3449948E+00
         13   -1    0    0    0    0  0.00000000000E+00  0.00000000000E+00  0.14999999963E+04  0.15000000000E+04  0.10566000000E+00 0.  1.
        994   -1    0    0    0    0 -0.00000000000E+00 -0.00000000000E+00  0.11368683772E-12  0.17120000000E+03  0.17120000000E+03 0.  0.
         13    1    1    2    0    0 -0.47392069935E+02  0.85123530712E+02  0.44776120828E+03  0.45823807631E+03  0.10566000000E+00 0.  1.
        994    1    1    2    0    0  0.78238923390E+02 -0.12614847501E+03  0.81482000946E+02  0.24079768138E+03  0.17120000000E+03 0.  0.
        998    1    1    2    0    0 -0.30846853455E+02  0.41024944295E+02  0.97075678705E+03  0.97216424231E+03  0.10000000000E+02 0.  1.
</event>
<event>
 5    1  0.1252945E-008  0.3701932E+03  0.7957747E-01  0.3495003E+00
         13   -1    0    0    0    0  0.00000000000E+00  0.00000000000E+00  0.14999999963E+04  0.15000000000E+04  0.10566000000E+00 0. -1.
        994   -1    0    0    0    0 -0.00000000000E+00 -0.00000000000E+00  0.11368683772E-12  0.17120000000E+03  0.17120000000E+03 0.  0.
         13    1    1    2    0    0 -0.10308974590E+02  0.63736533076E+02  0.18387710359E+03  0.19488309571E+03  0.10566000000E+00 0. -1.
        994    1    1    2    0    0  0.26169107047E+02 -0.36825661722E+02  0.18215240844E+02  0.17799490589E+03  0.17120000000E+03 0.  0.
        998    1    1    2    0    0 -0.15860132457E+02 -0.26910871353E+02  0.12979076518E+04  0.12983219984E+04  0.10000000000E+02 0. -1.
</event>
<event>
 5    1  0.1252945E-008  0.3834905E+03  0.7957747E-01  0.3436099E+00
         13   -1    0    0    0    0  0.00000000000E+00  0.00000000000E+00  0.14999999963E+04  0.15000000000E+04  0.10566000000E+00 0. -1.
        994   -1    0    0    0    0 -0.00000000000E+00 -0.00000000000E+00  0.11368683772E-12  0.17120000000E+03  0.17120000000E+03 0.  0.
         13    1    1    2    0    0 -0.22500927453E+02  0.15575073491E+02  0.16052801156E+03  0.16284387710E+03  0.10566000000E+00 0. -1.
        994    1    1    2    0    0  0.84466032151E+01 -0.11460977153E+02  0.30515789295E+01  0.17181807599E+03  0.17120000000E+03 0.  0.
        998    1    1    2    0    0  0.14054324238E+02 -0.41140963376E+01  0.13364204058E+04  0.13365380469E+04  0.10000000000E+02 0. -1.
</event>
<event>
 5    1  0.1252945E-008  0.3756277E+03  0.7957747E-01  0.3470420E+00
         13   -1    0    0    0    0  0.00000000000E+00  0.00000000000E+00  0.14999999963E+04  0.15000000000E+04  0.10566000000E+00 0. -1.
        994   -1    0    0    0    0 -0.00000000000E+00 -0.00000000000E+00  0.11368683772E-12  0.17120000000E+03  0.17120000000E+03 0.  0.
         13    1    1    2    0    0  0.38554902403E+02 -0.25916280588E+02  0.15298885188E+03  0.15988662878E+03  0.10566000000E+00 0. -1.
        994    1    1    2    0    0 -0.35297023124E+02  0.27642529826E+02  0.13205307789E+02  0.17746495274E+03  0.17120000000E+03 0.  0.
        998    1    1    2    0    0 -0.32578792791E+01 -0.17262492380E+01  0.13338058366E+04  0.13338484185E+04  0.10000000000E+02 0.  1.
</event>
<event>
 5    1  0.1252945E-008  0.3787057E+03  0.7957747E-01  0.3456813E+00
         13   -1    0    0    0    0  0.00000000000E+00  0.00000000000E+00  0.14999999963E+04  0.15000000000E+04  0.10566000000E+00 0. -1.
        994   -1    0    0    0    0 -0.00000000000E+00 -0.00000000000E+00  0.11368683772E-12  0.17120000000E+03  0.17120000000E+03 0.  0.
         13    1    1    2    0    0 -0.20277301935E+02  0.11092477132E+02  0.55786688665E+02  0.60385245044E+02  0.10566000000E+00 0. -1.
        994    1    1    2    0    0  0.81770656809E+01  0.22121444641E+01  0.50288506747E+01  0.17148319838E+03  0.17120000000E+03 0.  0.
        998    1    1    2    0    0  0.12100236254E+02 -0.13304621596E+02  0.14391844569E+04  0.14393315566E+04  0.10000000000E+02 0. -1.
</event>
<event>
 5    1  0.1252945E-008  0.3822606E+03  0.7957747E-01  0.3441374E+00
         13   -1    0    0    0    0  0.00000000000E+00  0.00000000000E+00  0.14999999963E+04  0.15000000000E+04  0.10566000000E+00 0.  1.
        994   -1    0    0    0    0 -0.00000000000E+00 -0.00000000000E+00  0.11368683772E-12  0.17120000000E+03  0.17120000000E+03 0.  0.
         13    1    1    2    0    0  0.19568360675E+02  0.10164955493E+02  0.84251017143E+02  0.87088989622E+02  0.10566000000E+00 0.  1.
        994    1    1    2    0    0 -0.64760271919E+01  0.19089053305E+01  0.31476135809E+01  0.17136198621E+03  0.17120000000E+03 0.  0.
        998    1    1    2    0    0 -0.13092333483E+02 -0.12073860824E+02  0.14126013656E+04  0.14127490242E+04  0.10000000000E+02 0.  1.
</event>
<event>
 5    1  0.1252945E-008  0.3821028E+03  0.7957747E-01  0.3442053E+00
         13   -1    0    0    0    0  0.00000000000E+00  0.00000000000E+00  0.14999999963E+04  0.15000000000E+04  0.10566000000E+00 0.  1.
        994   -1    0    0    0    0 -0.00000000000E+00 -0.00000000000E+00  0.11368683772E-12  0.17120000000E+03  0.17120000000E+03 0.  0.
         13    1    1    2    0    0  0.26961630494E+02  0.12937902242E+01  0.11691675169E+03  0.11999225559E+03  0.10566000000E+00 0.  1.
        994    1    1    2    0    0 -0.16842852129E+02 -0.64675099963E+01  0.41568175360E+01  0.17219822730E+03  0.17120000000E+03 0.  0.
        998    1    1    2    0    0 -0.10118778364E+02  0.51737197721E+01  0.13789264271E+04  0.13790095171E+04  0.10000000000E+02 0.  1.
</event>
<event>
 5    1  0.1252945E-008  0.3794147E+03  0.7957747E-01  0.3453711E+00
         13   -1    0    0    0    0  0.00000000000E+00  0.00000000000E+00  0.14999999963E+04  0.15000000000E+04  0.10566000000E+00 0.  1.
        994   -1    0    0    0    0 -0.00000000000E+00 -0.00000000000E+00  0.11368683772E-12  0.17120000000E+03  0.17120000000E+03 0.  0.
         13    1    1    2    0    0  0.39348790327E+01 -0.27780406498E+02  0.87275531507E+02  0.91674772005E+02  0.10566000000E+00 0.  1.
        994    1    1    2    0    0 -0.45297637206E+01  0.16912316933E+02  0.54562869014E+01  0.17217943051E+03  0.17120000000E+03 0.  0.
        998    1    1    2    0    0  0.59488468793E+00  0.10868089565E+02  0.14072681779E+04  0.14073457975E+04  0.10000000000E+02 0.  1.
</event>
<event>
 5    1  0.1252945E-008  0.3858618E+03  0.7957747E-01  0.3426025E+00
         13   -1    0    0    0    0  0.00000000000E+00  0.00000000000E+00  0.14999999963E+04  0.15000000000E+04  0.10566000000E+00 0.  1.
        994   -1    0    0    0    0 -0.00000000000E+00 -0.00000000000E+00  0.11368683772E-12  0.17120000000E+03  0.17120000000E+03 0.  0.
         13    1    1    2    0    0 -0.12101133875E+02  0.10670442624E+01  0.57912112060E+02  0.59172628063E+02  0.10566000000E+00 0.  1.
        994    1    1    2    0    0  0.17662905360E+02 -0.40968601509E+01  0.22817824117E+01  0.17217261402E+03  0.17120000000E+03 0.  0.
        998    1    1    2    0    0 -0.55617714846E+01  0.30298158885E+01  0.14398061018E+04  0.14398547579E+04  0.10000000000E+02 0.  1.
</event>
<event>
 5    1  0.1252945E-008  0.3729477E+03  0.7957747E-01  0.3482453E+00
         13   -1    0    0    0    0  0.00000000000E+00  0.00000000000E+00  0.14999999963E+04  0.15000000000E+04  0.10566000000E+00 0.  1.
        994   -1    0    0    0    0 -0.00000000000E+00 -0.00000000000E+00  0.11368683772E-12  0.17120000000E+03  0.17120000000E+03 0.  0.
         13    1    1    2    0    0 -0.71696819001E+02  0.68308447409E+02  0.32764338569E+03  0.34228157588E+03  0.10566000000E+00 0.  1.
        994    1    1    2    0    0  0.61536971147E+02 -0.59733776481E+02  0.38963800811E+02  0.19540353283E+03  0.17120000000E+03 0.  0.
        998    1    1    2    0    0  0.10159847853E+02 -0.85746709284E+01  0.11333928098E+04  0.11335148913E+04  0.10000000000E+02 0.  1.
</event>
<event>
 5    1  0.1252945E-008  0.3792420E+03  0.7957747E-01  0.3454466E+00
         13   -1    0    0    0    0  0.00000000000E+00  0.00000000000E+00  0.14999999963E+04  0.15000000000E+04  0.10566000000E+00 0. -1.
        994   -1    0    0    0    0 -0.00000000000E+00 -0.00000000000E+00  0.11368683772E-12  0.17120000000E+03  0.17120000000E+03 0.  0.
         13    1    1    2    0    0 -0.12534007840E+01  0.12090238077E+02  0.14278134865E+02  0.18751564456E+02  0.10566000000E+00 0. -1.
        994    1    1    2    0    0  0.60804190870E+00 -0.12124344342E+02  0.50103121018E+01  0.17170297804E+03  0.17120000000E+03 0.  0.
        998    1    1    2    0    0  0.64535887525E+00  0.34106264698E-01  0.14807115493E+04  0.14807454575E+04  0.10000000000E+02 0. -1.
</event>
<event>
 5    1  0.1252945E-008  0.3830660E+03  0.7957747E-01  0.3437916E+00
         13   -1    0    0    0    0  0.00000000000E+00  0.00000000000E+00  0.14999999963E+04  0.15000000000E+04  0.10566000000E+00 0. -1.
        994   -1    0    0    0    0 -0.00000000000E+00 -0.00000000000E+00  0.11368683772E-12  0.17120000000E+03  0.17120000000E+03 0.  0.
         13    1    1    2    0    0  0.27732390439E+02 -0.17486207232E+02  0.18408744092E+03  0.18698409021E+03  0.10566000000E+00 0. -1.
        994    1    1    2    0    0 -0.26979631837E+02  0.18333770003E+02  0.61226797372E+01  0.17438737014E+03  0.17120000000E+03 0.  0.
        998    1    1    2    0    0 -0.75275860199E+00 -0.84756277165E+00  0.13097898756E+04  0.13098285397E+04  0.10000000000E+02 0.  0.
</event>
<event>
 5    1  0.1252945E-008  0.3709903E+03  0.7957747E-01  0.3491352E+00
         13   -1    0    0    0    0  0.00000000000E+00  0.00000000000E+00  0.14999999963E+04  0.15000000000E+04  0.10566000000E+00 0. -1.
        994   -1    0    0    0    0 -0.00000000000E+00 -0.00000000000E+00  0.11368683772E-12  0.17120000000E+03  0.17120000000E+03 0.  0.
         13    1    1    2    0    0 -0.75441331044E+02  0.21339033823E+00  0.28525762324E+03  0.29506501444E+03  0.10566000000E+00 0. -1.
        994    1    1    2    0    0  0.19670346392E+02 -0.37397314840E+02  0.17753397541E+02  0.17722896154E+03  0.17120000000E+03 0.  0.
        998    1    1    2    0    0  0.55770984652E+02  0.37183924502E+02  0.11969889755E+04  0.11989060240E+04  0.10000000000E+02 0. -1.
</event>
<event>
 5    1  0.1252945E-008  0.3812977E+03  0.7957747E-01  0.3445527E+00
         13   -1    0    0    0    0  0.00000000000E+00  0.00000000000E+00  0.14999999963E+04  0.15000000000E+04  0.10566000000E+00 0. -1.
        994   -1    0    0    0    0 -0.00000000000E+00 -0.00000000000E+00  0.11368683772E-12  0.17120000000E+03  0.17120000000E+03 0.  0.
         13    1    1    2    0    0 -0.28810116490E+01  0.42905528231E+02  0.21788758045E+03  0.22209050736E+03  0.10566000000E+00 0. -1.
        994    1    1    2    0    0  0.24508513227E+02 -0.47861319820E+02  0.13164366705E+02  0.17992807926E+03  0.17120000000E+03 0.  0.
        998    1    1    2    0    0 -0.21627501578E+02  0.49557915886E+01  0.12689480491E+04  0.12691814134E+04  0.10000000000E+02 0. -1.
</event>
<event>
 5    1  0.1252945E-008  0.3710615E+03  0.7957747E-01  0.3491026E+00
         13   -1    0    0    0    0  0.00000000000E+00  0.00000000000E+00  0.14999999963E+04  0.15000000000E+04  0.10566000000E+00 0.  1.
        994   -1    0    0    0    0 -0.00000000000E+00 -0.00000000000E+00  0.11368683772E-12  0.17120000000E+03  0.17120000000E+03 0.  0.
         13    1    1    2    0    0  0.64197225119E+02  0.34322521067E+02  0.42714205278E+03  0.43330089267E+03  0.10566000000E+00 0.  1.
        994    1    1    2    0    0 -0.59840208238E+01  0.47786762283E+01  0.89173323222E+01  0.17160303921E+03  0.17120000000E+03 0.  0.
        998    1    1    2    0    0 -0.58213204295E+02 -0.39101197296E+02  0.10639406112E+04  0.10662960681E+04  0.10000000000E+02 0. -1.
</event>
<event>
 5    1  0.1252945E-008  0.3835104E+03  0.7957747E-01  0.3436014E+00
         13   -1    0    0    0    0  0.00000000000E+00  0.00000000000E+00  0.14999999963E+04  0.15000000000E+04  0.10566000000E+00 0.  1.
        994   -1    0    0    0    0 -0.00000000000E+00 -0.00000000000E+00  0.11368683772E-12  0.17120000000E+03  0.17120000000E+03 0.  0.
         13    1    1    2    0    0 -0.31420950422E+01  0.11752736897E+02  0.30037451844E+02  0.32407703762E+02  0.10566000000E+00 0.  1.
        994    1    1    2    0    0  0.44147702682E+00 -0.12370127937E+02  0.28779601727E+01  0.17167101567E+03  0.17120000000E+03 0.  0.
        998    1    1    2    0    0  0.27006180154E+01  0.61739104050E+00  0.14670845843E+04  0.14671212806E+04  0.10000000000E+02 0.  1.
</event>
<event>
 5    1  0.1252945E-008  0.3859900E+03  0.7957747E-01  0.3425484E+00
         13   -1    0    0    0    0  0.00000000000E+00  0.00000000000E+00  0.14999999963E+04  0.15000000000E+04  0.10566000000E+00 0. -1.
        994   -1    0    0    0    0 -0.00000000000E+00 -0.00000000000E+00  0.11368683772E-12  0.17120000000E+03  0.17120000000E+03 0.  0.
         13    1    1    2    0    0  0.11553231236E+02  0.39584896392E+01  0.62155547277E+02  0.63344060602E+02  0.10566000000E+00 0. -1.
        994    1    1    2    0    0 -0.14560804593E+02 -0.94873955074E+01  0.21301439468E+01  0.17209301327E+03  0.17120000000E+03 0.  0.
        998    1    1    2    0    0  0.30075733572E+01  0.55289058682E+01  0.14357143051E+04  0.14357629261E+04  0.10000000000E+02 0. -1.
</event>
<event>
 5    1  0.1252945E-008  0.3784123E+03  0.7957747E-01  0.3458101E+00
         13   -1    0    0    0    0  0.00000000000E+00  0.00000000000E+00  0.14999999963E+04  0.15000000000E+04  0.10566000000E+00 0. -1.
        994   -1    0    0    0    0 -0.00000000000E+00 -0.00000000000E+00  0.11368683772E-12  0.17120000000E+03  0.17120000000E+03 0.  0.
         13    1    1    2    0    0 -0.21188213032E+01  0.13488395238E+02  0.17374383395E+02  0.22097659881E+02  0.10566000000E+00 0. -1.
        994    1    1    2    0    0  0.63187550974E+00  0.50929789855E+01  0.50252949331E+01  0.17135060925E+03  0.17120000000E+03 0.  0.
        998    1    1    2    0    0  0.14869457935E+01 -0.18581374224E+02  0.14776003180E+04  0.14777517309E+04  0.10000000000E+02 0. -1.
</event>
<event>
 5    1  0.1252945E-008  0.3855193E+03  0.7957747E-01  0.3427473E+00
         13   -1    0    0    0    0  0.00000000000E+00  0.00000000000E+00  0.14999999963E+04  0.15000000000E+04  0.10566000000E+00 0. -1.
        994   -1    0    0    0    0 -0.00000000000E+00 -0.00000000000E+00  0.11368683772E-12  0.17120000000E+03  0.17120000000E+03 0.  0.
         13    1    1    2    0    0  0.55533481195E+01 -0.84113075485E+01  0.36891156485E+02  0.38243409378E+02  0.10566000000E+00 0. -1.
        994    1    1    2    0    0 -0.55913163397E+01  0.57831514305E+01  0.15850306956E+01  0.17139620760E+03  0.17120000000E+03 0.  0.
        998    1    1    2    0    0  0.37968220221E-01  0.26281561180E+01  0.14615238091E+04  0.14615603830E+04  0.10000000000E+02 0. -1.
</event>
<event>
 5    1  0.1252945E-008  0.3829367E+03  0.7957747E-01  0.3438470E+00
         13   -1    0    0    0    0  0.00000000000E+00  0.00000000000E+00  0.14999999963E+04  0.15000000000E+04  0.10566000000E+00 0.  1.
        994   -1    0    0    0    0 -0.00000000000E+00 -0.00000000000E+00  0.11368683772E-12  0.17120000000E+03  0.17120000000E+03 0.  0.
         13    1    1    2    0    0 -0.38007508504E+01  0.17645999593E+02  0.72249237230E+02  0.74470064141E+02  0.10566000000E+00 0.  1.
        994    1    1    2    0    0 -0.20362930668E+02  0.16497162756E+02  0.49352096463E+01  0.17326454230E+03  0.17120000000E+03 0.  0.
        998    1    1    2    0    0  0.24163681519E+02 -0.34143162349E+02  0.14228155494E+04  0.14234653936E+04  0.10000000000E+02 0.  1.
</event>
<event>
 5    1  0.1252945E-008  0.3844642E+03  0.7957747E-01  0.3431948E+00
         13   -1    0    0    0    0  0.00000000000E+00  0.00000000000E+00  0.14999999963E+04  0.15000000000E+04  0.10566000000E+00 0.  1.
        994   -1    0    0    0    0 -0.00000000000E+00 -0.00000000000E+00  0.11368683772E-12  0.17120000000E+03  0.17120000000E+03 0.  0.
         13    1    1    2    0    0 -0.41509749901E+01  0.13316555424E+02  0.50463359772E+02  0.52355735934E+02  0.10566000000E+00 0.  1.
        994    1    1    2    0    0  0.18351601334E+01 -0.11306191384E+02  0.23287155776E+01  0.17159854514E+03  0.17120000000E+03 0.  0.
        998    1    1    2    0    0  0.23158148567E+01 -0.20103640403E+01  0.14472079209E+04  0.14472457189E+04  0.10000000000E+02 0.  1.
</event>
<event>
 5    1  0.1252945E-008  0.3827256E+03  0.7957747E-01  0.3439376E+00
         13   -1    0    0    0    0  0.00000000000E+00  0.00000000000E+00  0.14999999963E+04  0.15000000000E+04  0.10566000000E+00 0. -1.
        994   -1    0    0    0    0 -0.00000000000E+00 -0.00000000000E+00  0.11368683772E-12  0.17120000000E+03  0.17120000000E+03 0.  0.
         13    1    1    2    0    0  0.10770090327E+02  0.29560506247E+02  0.17916663513E+03  0.18190797861E+03  0.10566000000E+00 0. -1.
        994    1    1    2    0    0  0.21408213132E+02 -0.28507246994E+02  0.69858443479E+01  0.17501204742E+03  0.17120000000E+03 0.  0.
        998    1    1    2    0    0 -0.32178303459E+02 -0.10532592528E+01  0.13138475168E+04  0.13142799740E+04  0.10000000000E+02 0. -1.
</event>
<event>
 5    1  0.1252945E-008  0.3690782E+03  0.7957747E-01  0.3500138E+00
         13   -1    0    0    0    0  0.00000000000E+00  0.00000000000E+00  0.14999999963E+04  0.15000000000E+04  0.10566000000E+00 0.  1.
        994   -1    0    0    0    0 -0.00000000000E+00 -0.00000000000E+00  0.11368683772E-12  0.17120000000E+03  0.17120000000E+03 0.  0.
         13    1    1    2    0    0 -0.85668229275E+01 -0.19995280627E+02  0.20156194017E+02  0.29656112754E+02  0.10566000000E+00 0.  1.
        994    1    1    2    0    0  0.17165964268E+01  0.15224060521E+02  0.10566268222E+02  0.17220860822E+03  0.17120000000E+03 0.  0.
        998    1    1    2    0    0  0.68502265007E+01  0.47712201067E+01  0.14692775340E+04  0.14693352790E+04  0.10000000000E+02 0.  1.
</event>
<event>
 5    1  0.1252945E-008  0.3738456E+03  0.7957747E-01  0.3478402E+00
         13   -1    0    0    0    0  0.00000000000E+00  0.00000000000E+00  0.14999999963E+04  0.15000000000E+04  0.10566000000E+00 0. -1.
        994   -1    0    0    0    0 -0.00000000000E+00 -0.00000000000E+00  0.11368683772E-12  0.17120000000E+03  0.17120000000E+03 0.  0.
         13    1    1    2    0    0 -0.32004082228E+01 -0.43408178267E+02  0.11736446835E+03  0.12517564518E+03  0.10566000000E+00 0. -1.
        994    1    1    2    0    0 -0.30127515556E+00  0.45771767147E+02  0.14456292382E+02  0.17780205236E+03  0.17120000000E+03 0.  0.
        998    1    1    2    0    0  0.35016833783E+01 -0.23635888799E+01  0.13681792356E+04  0.13682223025E+04  0.10000000000E+02 0. -1.
</event>
<event>
 5    1  0.1252945E-008  0.3824781E+03  0.7957747E-01  0.3440439E+00
         13   -1    0    0    0    0  0.00000000000E+00  0.00000000000E+00  0.14999999963E+04  0.15000000000E+04  0.10566000000E+00 0.  1.
        994   -1    0    0    0    0 -0.00000000000E+00 -0.00000000000E+00  0.11368683772E-12  0.17120000000E+03  0.17120000000E+03 0.  0.
         13    1    1    2    0    0 -0.12236634817E+02 -0.11692960910E+02  0.46785157221E+02  0.49752614672E+02  0.10566000000E+00 0.  1.
        994    1    1    2    0    0  0.10131812788E+02  0.19152657742E+02  0.44456452517E+01  0.17262294659E+03  0.17120000000E+03 0.  0.
        998    1    1    2    0    0  0.21048220291E+01 -0.74596968316E+01  0.14487691938E+04  0.14488244387E+04  0.10000000000E+02 0.  1.
</event>
<event>
 5    1  0.1252945E-008  0.3849907E+03  0.7957747E-01  0.3429712E+00
         13   -1    0    0    0    0  0.00000000000E+00  0.00000000000E+00  0.14999999963E+04  0.15000000000E+04  0.10566000000E+00 0.  1.
        994   -1    0    0    0    0 -0.00000000000E+00 -0.00000000000E+00  0.11368683772E-12  0.17120000000E+03  0.17120000000E+03 0.  0.
         13    1    1    2    0    0  0.10306442966E+02 -0.43234694363E+01  0.37713332536E+02  0.39334739984E+02  0.10566000000E+00 0.  1.
        994    1    1    2    0    0 -0.75907602034E+01  0.62169722307E+01  0.19514307664E+01  0.17149203616E+03  0.17120000000E+03 0.  0.
        998    1    1    2    0    0 -0.27156827623E+01 -0.18935027944E+01  0.14603352330E+04  0.14603732239E+04  0.10000000000E+02 0.  1.
</event>
<event>
 5    1  0.1252945E-008  0.3775597E+03  0.7957747E-01  0.3461854E+00
         13   -1    0    0    0    0  0.00000000000E+00  0.00000000000E+00  0.14999999963E+04  0.15000000000E+04  0.10566000000E+00 0. -1.
        994   -1    0    0    0    0 -0.00000000000E+00 -0.00000000000E+00  0.11368683772E-12  0.17120000000E+03  0.17120000000E+03 0.  0.
         13    1    1    2    0    0 -0.77999744233E+02 -0.15589291153E+02  0.46210878307E+03  0.46890460080E+03  0.10566000000E+00 0. -1.
        994    1    1    2    0    0  0.68109655416E+02  0.75992201700E+01  0.21365559194E+02  0.18564105265E+03  0.17120000000E+03 0.  0.
        998    1    1    2    0    0  0.98900888171E+01  0.79900709825E+01  0.10165256540E+04  0.10166543465E+04  0.10000000000E+02 0.  0.
</event>
<event>
 5    1  0.1252945E-008  0.3858185E+03  0.7957747E-01  0.3426208E+00
         13   -1    0    0    0    0  0.00000000000E+00  0.00000000000E+00  0.14999999963E+04  0.15000000000E+04  0.10566000000E+00 0.  1.
        994   -1    0    0    0    0 -0.00000000000E+00 -0.00000000000E+00  0.11368683772E-12  0.17120000000E+03  0.17120000000E+03 0.  0.
         13    1    1    2    0    0 -0.62606057474E+01 -0.12177968498E+02  0.79585823081E+02  0.80755262990E+02  0.10566000000E+00 0.  1.
        994    1    1    2    0    0  0.80615032370E+01  0.19046028815E+01  0.14494102031E+01  0.17140640635E+03  0.17120000000E+03 0.  0.
        998    1    1    2    0    0 -0.18008974896E+01  0.10273365617E+02  0.14189647630E+04  0.14190383307E+04  0.10000000000E+02 0.  1.
</event>
<event>
 5    1  0.1252945E-008  0.3782328E+03  0.7957747E-01  0.3458890E+00
         13   -1    0    0    0    0  0.00000000000E+00  0.00000000000E+00  0.14999999963E+04  0.15000000000E+04  0.10566000000E+00 0.  1.
        994   -1    0    0    0    0 -0.00000000000E+00 -0.00000000000E+00  0.11368683772E-12  0.17120000000E+03  0.17120000000E+03 0.  0.
         13    1    1    2    0    0  0.19321405437E+02 -0.17758299516E+02  0.71191551791E+02  0.75874383821E+02  0.10566000000E+00 0.  1.
        994    1    1    2    0    0 -0.50820649639E+02 -0.51725379831E+02  0.22917785603E+02  0.18733103919E+03  0.17120000000E+03 0.  0.
        998    1    1    2    0    0  0.31499244202E+02  0.69483679347E+02  0.14058906589E+04  0.14079945770E+04  0.10000000000E+02 0.  1.
</event>
<event>
 5    1  0.1252945E-008  0.3838262E+03  0.7957747E-01  0.3434666E+00
         13   -1    0    0    0    0  0.00000000000E+00  0.00000000000E+00  0.14999999963E+04  0.15000000000E+04  0.10566000000E+00 0.  1.
        994   -1    0    0    0    0 -0.00000000000E+00 -0.00000000000E+00  0.11368683772E-12  0.17120000000E+03  0.17120000000E+03 0.  0.
         13    1    1    2    0    0 -0.16310226949E+02 -0.10736013135E+02  0.87986176129E+02  0.90126931796E+02  0.10566000000E+00 0.  1.
        994    1    1    2    0    0  0.18964488003E+01  0.12118328896E+02  0.27108566308E+01  0.17166024338E+03  0.17120000000E+03 0.  0.
        998    1    1    2    0    0  0.14413778149E+02 -0.13823157609E+01  0.14093029635E+04  0.14094128248E+04  0.10000000000E+02 0.  1.
</event>
<event>
 5    1  0.1252945E-008  0.3843521E+03  0.7957747E-01  0.3432425E+00
         13   -1    0    0    0    0  0.00000000000E+00  0.00000000000E+00  0.14999999963E+04  0.15000000000E+04  0.10566000000E+00 0. -1.
        994   -1    0    0    0    0 -0.00000000000E+00 -0.00000000000E+00  0.11368683772E-12  0.17120000000E+03  0.17120000000E+03 0.  0.
         13    1    1    2    0    0 -0.19217284020E+02  0.81097049883E+01  0.12509417027E+03  0.12682126762E+03  0.10566000000E+00 0. -1.
        994    1    1    2    0    0 -0.23909645209E+01 -0.24884035781E+01  0.19914052542E+01  0.17124635634E+03  0.17120000000E+03 0.  0.
        998    1    1    2    0    0  0.21608248541E+02 -0.56213014102E+01  0.13729144208E+04  0.13731323760E+04  0.10000000000E+02 0. -1.
</event>
<event>
 5    1  0.1252945E-008  0.3810172E+03  0.7957747E-01  0.3446741E+00
         13   -1    0    0    0    0  0.00000000000E+00  0.00000000000E+00  0.14999999963E+04  0.15000000000E+04  0.10566000000E+00 0.  1.
        994   -1    0    0    0    0 -0.00000000000E+00 -0.00000000000E+00  0.11368683772E-12  0.17120000000E+03  0.17120000000E+03 0.  0.
         13    1    1    2    0    0 -0.44367837357E+01 -0.26464664708E+02  0.94438542114E+02  0.98176947033E+02  0.10566000000E+00 0.  1.
        994    1    1    2    0    0  0.68737652733E+01  0.23074070833E+02  0.55541844137E+01  0.17297384299E+03  0.17120000000E+03 0.  0.
        998    1    1    2    0    0 -0.24369815376E+01  0.33905938748E+01  0.14000072698E+04  0.14000492100E+04  0.10000000000E+02 0.  1.
</event>
<event>
 5    1  0.1252945E-008  0.3785398E+03  0.7957747E-01  0.3457541E+00
         13   -1    0    0    0    0  0.00000000000E+00  0.00000000000E+00  0.14999999963E+04  0.15000000000E+04  0.10566000000E+00 0.  1.
        994   -1    0    0    0    0 -0.00000000000E+00 -0.00000000000E+00  0.11368683772E-12  0.17120000000E+03  0.17120000000E+03 0.  0.
         13    1    1    2    0    0 -0.13705154179E+02 -0.15699454332E+00  0.15497478348E+02  0.20689100936E+02  0.10566000000E+00 0.  1.
        994    1    1    2    0    0  0.50543070087E+02  0.13247574754E+00  0.13501750024E+02  0.17901496233E+03  0.17120000000E+03 0.  0.
        998    1    1    2    0    0 -0.36837915908E+02  0.24518795782E-01  0.14710007679E+04  0.14714959367E+04  0.10000000000E+02 0.  1.
</event>
<event>
 5    1  0.1252945E-008  0.3820683E+03  0.7957747E-01  0.3442202E+00
         13   -1    0    0    0    0  0.00000000000E+00  0.00000000000E+00  0.14999999963E+04  0.15000000000E+04  0.10566000000E+00 0. -1.
        994   -1    0    0    0    0 -0.00000000000E+00 -0.00000000000E+00  0.11368683772E-12  0.17120000000E+03  0.17120000000E+03 0.  0.
         13    1    1    2    0    0  0.10173166820E+02 -0.10474267007E+02  0.34648129266E+02  0.37599303427E+02  0.10566000000E+00 0. -1.
        994    1    1    2    0    0 -0.40577148295E+01 -0.48378125748E+01  0.32250840622E+01  0.17134675558E+03  0.17120000000E+03 0.  0.
        998    1    1    2    0    0 -0.61154519906E+01  0.15312079582E+02  0.14621267830E+04  0.14622539410E+04  0.10000000000E+02 0. -1.
</event>
<event>
 5    1  0.1252945E-008  0.3848869E+03  0.7957747E-01  0.3430152E+00
         13   -1    0    0    0    0  0.00000000000E+00  0.00000000000E+00  0.14999999963E+04  0.15000000000E+04  0.10566000000E+00 0.  1.
        994   -1    0    0    0    0 -0.00000000000E+00 -0.00000000000E+00  0.11368683772E-12  0.17120000000E+03  0.17120000000E+03 0.  0.
         13    1    1    2    0    0 -0.16596703868E+02  0.22556564879E+01  0.83495928324E+02  0.85159378675E+02  0.10566000000E+00 0.  1.
        994    1    1    2    0    0  0.10517102028E+02  0.10052570715E+01  0.20535957448E+01  0.17153797606E+03  0.17120000000E+03 0.  0.
        998    1    1    2    0    0  0.60796018403E+01 -0.32609135594E+01  0.14144504722E+04  0.14145026453E+04  0.10000000000E+02 0.  1.
</event>
<event>
 5    1  0.1252945E-008  0.3718595E+03  0.7957747E-01  0.3487388E+00
         13   -1    0    0    0    0  0.00000000000E+00  0.00000000000E+00  0.14999999963E+04  0.15000000000E+04  0.10566000000E+00 0. -1.
        994   -1    0    0    0    0 -0.00000000000E+00 -0.00000000000E+00  0.11368683772E-12  0.17120000000E+03  0.17120000000E+03 0.  0.
         13    1    1    2    0    0 -0.21030303102E+02  0.22206857652E+02  0.50748119387E+02  0.59252012292E+02  0.10566000000E+00 0. -1.
        994    1    1    2    0    0  0.20106281539E+02 -0.30029331531E+02  0.12800652989E+02  0.17544036031E+03  0.17120000000E+03 0.  0.
        998    1    1    2    0    0  0.92402156241E+00  0.78224738793E+01  0.14364512239E+04  0.14365076274E+04  0.10000000000E+02 0. -1.
</event>
<event>
 5    1  0.1252945E-008  0.3694471E+03  0.7957747E-01  0.3498436E+00
         13   -1    0    0    0    0  0.00000000000E+00  0.00000000000E+00  0.14999999963E+04  0.15000000000E+04  0.10566000000E+00 0.  1.
        994   -1    0    0    0    0 -0.00000000000E+00 -0.00000000000E+00  0.11368683772E-12  0.17120000000E+03  0.17120000000E+03 0.  0.
         13    1    1    2    0    0  0.46608960894E+02  0.79968214894E+02  0.52175175772E+03  0.52989830956E+03  0.10566000000E+00 0.  1.
        994    1    1    2    0    0 -0.15773495236E+02 -0.33924749041E+02  0.14422793766E+02  0.17583272940E+03  0.17120000000E+03 0.  0.
        998    1    1    2    0    0 -0.30835465658E+02 -0.46043465853E+02  0.96382544479E+03  0.96546896103E+03  0.10000000000E+02 0.  1.
</event>
<event>
 5    1  0.1252945E-008  0.3857550E+03  0.7957747E-01  0.3426476E+00
         13   -1    0    0    0    0  0.00000000000E+00  0.00000000000E+00  0.14999999963E+04  0.15000000000E+04  0.10566000000E+00 0.  1.
        994   -1    0    0    0    0 -0.00000000000E+00 -0.00000000000E+00  0.11368683772E-12  0.17120000000E+03  0.17120000000E+03 0.  0.
         13    1    1    2    0    0  0.59698017957E+01  0.10788227635E+02  0.65338889634E+02  0.66492150301E+02  0.10566000000E+00 0.  1.
        994    1    1    2    0    0  0.38969451351E+01 -0.85890305960E+00  0.13079836631E+01  0.17125149552E+03  0.17120000000E+03 0.  0.
        998    1    1    2    0    0 -0.98667469308E+01 -0.99293245758E+01  0.14333531230E+04  0.14334563542E+04  0.10000000000E+02 0.  1.
</event>
<event>
 5    1  0.1252945E-008  0.3793758E+03  0.7957747E-01  0.3453881E+00
         13   -1    0    0    0    0  0.00000000000E+00  0.00000000000E+00  0.14999999963E+04  0.15000000000E+04  0.10566000000E+00 0. -1.
        994   -1    0    0    0    0 -0.00000000000E+00 -0.00000000000E+00  0.11368683772E-12  0.17120000000E+03  0.17120000000E+03 0.  0.
         13    1    1    2    0    0  0.15615638768E+02  0.65214897818E+01  0.30503583974E+02  0.34883488966E+02  0.10566000000E+00 0. -1.
        994    1    1    2    0    0 -0.55438862276E+01 -0.13808124528E+02  0.51905772553E+01  0.17192376528E+03  0.17120000000E+03 0.  0.
        998    1    1    2    0    0 -0.10071752540E+02  0.72866347465E+01  0.14643058350E+04  0.14643927457E+04  0.10000000000E+02 0. -1.
</event>
<event>
 5    1  0.1252945E-008  0.3963901E+03  0.7957747E-01  0.3382757E+00
         13   -1    0    0    0    0  0.00000000000E+00  0.00000000000E+00  0.14999999963E+04  0.15000000000E+04  0.10566000000E+00 0.  1.
        994   -1    0    0    0    0 -0.00000000000E+00 -0.00000000000E+00  0.11368683772E-12  0.17120000000E+03  0.17120000000E+03 0.  0.
         13    1    1    2    0    0  0.13136180226E+03 -0.86871201952E+02  0.31593857522E+03  0.35301518848E+03  0.10566000000E+00 0.  1.
        994    1    1    2    0    0 -0.14722007970E+03  0.96257575386E+02  0.15800646650E+03  0.29191566615E+03  0.17120000000E+03 0.  0.
        998    1    1    2    0    0  0.15858277436E+02 -0.93863734337E+01  0.10260549546E+04  0.10262691454E+04  0.10000000000E+02 0.  1.
</event>
<event>
 5    1  0.1252945E-008  0.3808206E+03  0.7957747E-01  0.3447593E+00
         13   -1    0    0    0    0  0.00000000000E+00  0.00000000000E+00  0.14999999963E+04  0.15000000000E+04  0.10566000000E+00 0.  1.
        994   -1    0    0    0    0 -0.00000000000E+00 -0.00000000000E+00  0.11368683772E-12  0.17120000000E+03  0.17120000000E+03 0.  0.
         13    1    1    2    0    0  0.73417231325E+01 -0.22352099142E+02  0.79298773078E+02  0.82715317870E+02  0.10566000000E+00 0.  1.
        994    1    1    2    0    0  0.24102874950E+01 -0.12304178805E+01  0.37439187237E+01  0.17126231442E+03  0.17120000000E+03 0.  0.
        998    1    1    2    0    0 -0.97520106275E+01  0.23582517022E+02  0.14169573045E+04  0.14172223677E+04  0.10000000000E+02 0.  1.
</event>
<event>
 5    1  0.1252945E-008  0.3802194E+03  0.7957747E-01  0.3450204E+00
         13   -1    0    0    0    0  0.00000000000E+00  0.00000000000E+00  0.14999999963E+04  0.15000000000E+04  0.10566000000E+00 0.  1.
        994   -1    0    0    0    0 -0.00000000000E+00 -0.00000000000E+00  0.11368683772E-12  0.17120000000E+03  0.17120000000E+03 0.  0.
         13    1    1    2    0    0 -0.17657215549E+02 -0.30935288615E+01  0.37500499714E+02  0.41564959095E+02  0.10566000000E+00 0.  1.
        994    1    1    2    0    0  0.18919212591E+02  0.22753200101E+01  0.52363432724E+01  0.17233680099E+03  0.17120000000E+03 0.  0.
        998    1    1    2    0    0 -0.12619970420E+01  0.81820885142E+00  0.14572631533E+04  0.14572982399E+04  0.10000000000E+02 0.  1.
</event>
<event>
 5    1  0.1252945E-008  0.3820290E+03  0.7957747E-01  0.3442371E+00
         13   -1    0    0    0    0  0.00000000000E+00  0.00000000000E+00  0.14999999963E+04  0.15000000000E+04  0.10566000000E+00 0.  1.
        994   -1    0    0    0    0 -0.00000000000E+00 -0.00000000000E+00  0.11368683772E-12  0.17120000000E+03  0.17120000000E+03 0.  0.
         13    1    1    2    0    0 -0.82303940988E+02  0.38193965411E+02  0.20207211558E+03  0.22150816860E+03  0.10566000000E+00 0.  1.
        994    1    1    2    0    0  0.81082565799E+02 -0.33110884171E+02  0.46018733243E+02  0.19773183086E+03  0.17120000000E+03 0.  0.
        998    1    1    2    0    0  0.12213751889E+01 -0.50830812399E+01  0.12519091475E+04  0.12519600005E+04  0.10000000000E+02 0.  1.
</event>
<event>
 5    1  0.1252945E-008  0.3688253E+03  0.7957747E-01  0.3501307E+00
         13   -1    0    0    0    0  0.00000000000E+00  0.00000000000E+00  0.14999999963E+04  0.15000000000E+04  0.10566000000E+00 0.  1.
        994   -1    0    0    0    0 -0.00000000000E+00 -0.00000000000E+00  0.11368683772E-12  0.17120000000E+03  0.17120000000E+03 0.  0.
         13    1    1    2    0    0 -0.11215212451E+03 -0.31280608770E+02  0.47243557739E+03  0.48657164063E+03  0.10566000000E+00 0.  1.
        994    1    1    2    0    0  0.10682233807E+03  0.33895319391E+02  0.54849385010E+02  0.21184380950E+03  0.17120000000E+03 0.  0.
        998    1    1    2    0    0  0.53297864408E+01 -0.26147106210E+01  0.97271503387E+03  0.97278454987E+03  0.10000000000E+02 0. -1.
</event>
<event>
 5    1  0.1252945E-008  0.3817464E+03  0.7957747E-01  0.3443589E+00
         13   -1    0    0    0    0  0.00000000000E+00  0.00000000000E+00  0.14999999963E+04  0.15000000000E+04  0.10566000000E+00 0.  1.
        994   -1    0    0    0    0 -0.00000000000E+00 -0.00000000000E+00  0.11368683772E-12  0.17120000000E+03  0.17120000000E+03 0.  0.
         13    1    1    2    0    0 -0.16645941386E+02  0.23663449049E+02  0.14092636611E+03  0.14386555534E+03  0.10566000000E+00 0.  1.
        994    1    1    2    0    0  0.30939727774E+01 -0.13643912916E+01  0.32921816332E+01  0.17126503639E+03  0.17120000000E+03 0.  0.
        998    1    1    2    0    0  0.13551968609E+02 -0.22299057757E+02  0.13557814485E+04  0.13560694083E+04  0.10000000000E+02 0.  1.
</event>
<event>
 5    1  0.1252945E-008  0.3851051E+03  0.7957747E-01  0.3429227E+00
         13   -1    0    0    0    0  0.00000000000E+00  0.00000000000E+00  0.14999999963E+04  0.15000000000E+04  0.10566000000E+00 0.  1.
        994   -1    0    0    0    0 -0.00000000000E+00 -0.00000000000E+00  0.11368683772E-12  0.17120000000E+03  0.17120000000E+03 0.  0.
         13    1    1    2    0    0  0.54686115102E+01 -0.14128291087E+02  0.78707837335E+02  0.80152661484E+02  0.10566000000E+00 0.  1.
        994    1    1    2    0    0  0.34446093616E+01  0.36378603768E+00  0.16174160153E+01  0.17124267490E+03  0.17120000000E+03 0.  0.
        998    1    1    2    0    0 -0.89132208718E+01  0.13764505049E+02  0.14196747429E+04  0.14198046636E+04  0.10000000000E+02 0.  1.
</event>
<event>
 5    1  0.1252945E-008  0.3759380E+03  0.7957747E-01  0.3469038E+00
         13   -1    0    0    0    0  0.00000000000E+00  0.00000000000E+00  0.14999999963E+04  0.15000000000E+04  0.10566000000E+00 0. -1.
        994   -1    0    0    0    0 -0.00000000000E+00 -0.00000000000E+00  0.11368683772E-12  0.17120000000E+03  0.17120000000E+03 0.  0.
         13    1    1    2    0    0 -0.72430623375E+02  0.44591081222E+02  0.44351249808E+03  0.45159484811E+03  0.10566000000E+00 0. -1.
        994    1    1    2    0    0  0.65295609638E+02 -0.40531996576E+02  0.26481603605E+02  0.18951800631E+03  0.17120000000E+03 0.  0.
        998    1    1    2    0    0  0.71350137370E+01 -0.40590846461E+01  0.10300058946E+04  0.10300871456E+04  0.10000000000E+02 0. -1.
</event>
<event>
 5    1  0.1252945E-008  0.3774364E+03  0.7957747E-01  0.3462398E+00
         13   -1    0    0    0    0  0.00000000000E+00  0.00000000000E+00  0.14999999963E+04  0.15000000000E+04  0.10566000000E+00 0.  1.
        994   -1    0    0    0    0 -0.00000000000E+00 -0.00000000000E+00  0.11368683772E-12  0.17120000000E+03  0.17120000000E+03 0.  0.
         13    1    1    2    0    0 -0.41969920909E+00  0.13118014627E+02  0.13972803323E+02  0.19170520387E+02  0.10566000000E+00 0.  1.
        994    1    1    2    0    0 -0.15856167813E+02  0.61741255974E+01  0.64096667803E+01  0.17216289296E+03  0.17120000000E+03 0.  0.
        998    1    1    2    0    0  0.16275867022E+02 -0.19292140224E+02  0.14796175262E+04  0.14798665867E+04  0.10000000000E+02 0.  1.
</event>
<event>
 5    1  0.1252945E-008  0.3779792E+03  0.7957747E-01  0.3460005E+00
         13   -1    0    0    0    0  0.00000000000E+00  0.00000000000E+00  0.14999999963E+04  0.15000000000E+04  0.10566000000E+00 0.  1.
        994   -1    0    0    0    0 -0.00000000000E+00 -0.00000000000E+00  0.11368683772E-12  0.17120000000E+03  0.17120000000E+03 0.  0.
         13    1    1    2    0    0  0.37774265199E+02  0.30135628278E+02  0.68635089014E+02  0.83939488985E+02  0.10566000000E+00 0.  1.
        994    1    1    2    0    0 -0.37530537009E+02 -0.27233699724E+02  0.22996138948E+02  0.17885323037E+03  0.17120000000E+03 0.  0.
        998    1    1    2    0    0 -0.24372818966E+00 -0.29019285544E+01  0.14083687683E+04  0.14084072806E+04  0.10000000000E+02 0.  1.
</event>
<event>
 5    1  0.1252945E-008  0.3842040E+03  0.7957747E-01  0.3433055E+00
         13   -1    0    0    0    0  0.00000000000E+00  0.00000000000E+00  0.14999999963E+04  0.15000000000E+04  0.10566000000E+00 0. -1.
        994   -1    0    0    0    0 -0.00000000000E+00 -0.00000000000E+00  0.11368683772E-12  0.17120000000E+03  0.17120000000E+03 0.  0.
         13    1    1    2    0    0  0.21177637467E+02 -0.70783514573E+01  0.12441838464E+03  0.12640625375E+03  0.10566000000E+00 0. -1.
        994    1    1    2    0    0 -0.69699307677E+01  0.18347949032E+02  0.32970605516E+01  0.17235294537E+03  0.17120000000E+03 0.  0.
        998    1    1    2    0    0 -0.14207706700E+02 -0.11269597574E+02  0.13722845511E+04  0.13724408009E+04  0.10000000000E+02 0. -1.
</event>
<event>
 5    1  0.1252945E-008  0.3828577E+03  0.7957747E-01  0.3438809E+00
         13   -1    0    0    0    0  0.00000000000E+00  0.00000000000E+00  0.14999999963E+04  0.15000000000E+04  0.10566000000E+00 0. -1.
        994   -1    0    0    0    0 -0.00000000000E+00 -0.00000000000E+00  0.11368683772E-12  0.17120000000E+03  0.17120000000E+03 0.  0.
         13    1    1    2    0    0 -0.40022251548E+01 -0.22226302418E+02  0.97303961806E+02  0.99890432338E+02  0.10566000000E+00 0. -1.
        994    1    1    2    0    0  0.25547449380E+01  0.76811825798E+01  0.29145487901E+01  0.17141604908E+03  0.17120000000E+03 0.  0.
        998    1    1    2    0    0  0.14474802168E+01  0.14545119839E+02  0.13997814857E+04  0.13998935186E+04  0.10000000000E+02 0. -1.
</event>
<event>
 5    1  0.1252945E-008  0.3801371E+03  0.7957747E-01  0.3450562E+00
         13   -1    0    0    0    0  0.00000000000E+00  0.00000000000E+00  0.14999999963E+04  0.15000000000E+04  0.10566000000E+00 0. -1.
        994   -1    0    0    0    0 -0.00000000000E+00 -0.00000000000E+00  0.11368683772E-12  0.17120000000E+03  0.17120000000E+03 0.  0.
         13    1    1    2    0    0 -0.50512682098E+01  0.12906193179E+02  0.22107308179E+02  0.26092707255E+02  0.10566000000E+00 0. -1.
        994    1    1    2    0    0  0.15055770520E+02 -0.18789017881E+01  0.48335538348E+01  0.17193897098E+03  0.17120000000E+03 0.  0.
        998    1    1    2    0    0 -0.10004502311E+02 -0.11027291391E+02  0.14730591343E+04  0.14731683218E+04  0.10000000000E+02 0. -1.
</event>
<event>
 5    1  0.1252945E-008  0.3850359E+03  0.7957747E-01  0.3429520E+00
         13   -1    0    0    0    0  0.00000000000E+00  0.00000000000E+00  0.14999999963E+04  0.15000000000E+04  0.10566000000E+00 0. -1.
        994   -1    0    0    0    0 -0.00000000000E+00 -0.00000000000E+00  0.11368683772E-12  0.17120000000E+03  0.17120000000E+03 0.  0.
         13    1    1    2    0    0 -0.12312795757E+02 -0.91959573227E+01  0.80093077556E+02  0.81554170996E+02  0.10566000000E+00 0. -1.
        994    1    1    2    0    0 -0.51154746213E+01  0.30612891269E+01  0.17291871928E+01  0.17131249126E+03  0.17120000000E+03 0.  0.
        998    1    1    2    0    0  0.17428270378E+02  0.61346681958E+01  0.14181777315E+04  0.14183333377E+04  0.10000000000E+02 0. -1.
</event>
<event>
 5    1  0.1252945E-008  0.3821565E+03  0.7957747E-01  0.3441822E+00
         13   -1    0    0    0    0  0.00000000000E+00  0.00000000000E+00  0.14999999963E+04  0.15000000000E+04  0.10566000000E+00 0.  1.
        994   -1    0    0    0    0 -0.00000000000E+00 -0.00000000000E+00  0.11368683772E-12  0.17120000000E+03  0.17120000000E+03 0.  0.
         13    1    1    2    0    0 -0.19487804128E+02 -0.92658979218E+01  0.78041391945E+02  0.80969756050E+02  0.10566000000E+00 0.  1.
        994    1    1    2    0    0  0.63680684933E+01  0.29787905117E+01  0.32125945953E+01  0.17137440373E+03  0.17120000000E+03 0.  0.
        998    1    1    2    0    0  0.13119735635E+02  0.62871074101E+01  0.14187460097E+04  0.14188558402E+04  0.10000000000E+02 0.  1.
</event>
<event>
 5    1  0.1252945E-008  0.3855856E+03  0.7957747E-01  0.3427193E+00
         13   -1    0    0    0    0  0.00000000000E+00  0.00000000000E+00  0.14999999963E+04  0.15000000000E+04  0.10566000000E+00 0. -1.
        994   -1    0    0    0    0 -0.00000000000E+00 -0.00000000000E+00  0.11368683772E-12  0.17120000000E+03  0.17120000000E+03 0.  0.
         13    1    1    2    0    0  0.57743130438E+01  0.10512458405E+02  0.51375258526E+02  0.52756827288E+02  0.10566000000E+00 0. -1.
        994    1    1    2    0    0 -0.18945105264E+02 -0.82142327178E+01  0.27405357257E+01  0.17246257904E+03  0.17120000000E+03 0.  0.
        998    1    1    2    0    0  0.13170792220E+02 -0.22982256869E+01  0.14458842020E+04  0.14459805937E+04  0.10000000000E+02 0. -1.
</event>
<event>
 5    1  0.1252945E-008  0.3811738E+03  0.7957747E-01  0.3446063E+00
         13   -1    0    0    0    0  0.00000000000E+00  0.00000000000E+00  0.14999999963E+04  0.15000000000E+04  0.10566000000E+00 0.  1.
        994   -1    0    0    0    0 -0.00000000000E+00 -0.00000000000E+00  0.11368683772E-12  0.17120000000E+03  0.17120000000E+03 0.  0.
         13    1    1    2    0    0  0.10254193475E+02  0.64376669821E+01  0.19078617754E+02  0.22596390407E+02  0.10566000000E+00 0.  1.
        994    1    1    2    0    0 -0.71949634765E+01 -0.10489173226E+02  0.40807115250E+01  0.17172036123E+03  0.17120000000E+03 0.  0.
        998    1    1    2    0    0 -0.30592299983E+01  0.40515062442E+01  0.14768406670E+04  0.14768832484E+04  0.10000000000E+02 0.  1.
</event>
<event>
 5    1  0.1252945E-008  0.3846663E+03  0.7957747E-01  0.3431089E+00
         13   -1    0    0    0    0  0.00000000000E+00  0.00000000000E+00  0.14999999963E+04  0.15000000000E+04  0.10566000000E+00 0. -1.
        994   -1    0    0    0    0 -0.00000000000E+00 -0.00000000000E+00  0.11368683772E-12  0.17120000000E+03  0.17120000000E+03 0.  0.
         13    1    1    2    0    0 -0.11650587164E+02  0.62537503072E+01  0.46042991118E+02  0.47904214525E+02  0.10566000000E+00 0. -1.
        994    1    1    2    0    0  0.15811853228E+02 -0.10444215509E+02  0.29790260139E+01  0.17227132941E+03  0.17120000000E+03 0.  0.
        998    1    1    2    0    0 -0.41612660646E+01  0.41904652013E+01  0.14509779791E+04  0.14510244561E+04  0.10000000000E+02 0. -1.
</event>
<event>
 5    1  0.1252945E-008  0.3845167E+03  0.7957747E-01  0.3431725E+00
         13   -1    0    0    0    0  0.00000000000E+00  0.00000000000E+00  0.14999999963E+04  0.15000000000E+04  0.10566000000E+00 0.  1.
        994   -1    0    0    0    0 -0.00000000000E+00 -0.00000000000E+00  0.11368683772E-12  0.17120000000E+03  0.17120000000E+03 0.  0.
         13    1    1    2    0    0 -0.15840936368E+02 -0.16770696133E+02  0.12159323972E+03  0.12376234736E+03  0.10566000000E+00 0.  1.
        994    1    1    2    0    0  0.29474908880E+02  0.18907215809E+02  0.59198059753E+01  0.17484489459E+03  0.17120000000E+03 0.  0.
        998    1    1    2    0    0 -0.13633972511E+02 -0.21365196761E+01  0.13724869506E+04  0.13725927580E+04  0.10000000000E+02 0.  1.
</event>
<event>
 5    1  0.1252945E-008  0.3696703E+03  0.7957747E-01  0.3497407E+00
         13   -1    0    0    0    0  0.00000000000E+00  0.00000000000E+00  0.14999999963E+04  0.15000000000E+04  0.10566000000E+00 0. -1.
        994   -1    0    0    0    0 -0.00000000000E+00 -0.00000000000E+00  0.11368683772E-12  0.17120000000E+03  0.17120000000E+03 0.  0.
         13    1    1    2    0    0 -0.87920575449E+01  0.15382813494E+02  0.12622172001E+02  0.21754576919E+02  0.10566000000E+00 0. -1.
        994    1    1    2    0    0 -0.17739478200E+01 -0.96146968494E+01  0.97724572398E+01  0.17175718386E+03  0.17120000000E+03 0.  0.
        998    1    1    2    0    0  0.10566005365E+02 -0.57681166445E+01  0.14776053670E+04  0.14776882392E+04  0.10000000000E+02 0. -1.
</event>
<event>
 5    1  0.1252945E-008  0.3816680E+03  0.7957747E-01  0.3443928E+00
         13   -1    0    0    0    0  0.00000000000E+00  0.00000000000E+00  0.14999999963E+04  0.15000000000E+04  0.10566000000E+00 0. -1.
        994   -1    0    0    0    0 -0.00000000000E+00 -0.00000000000E+00  0.11368683772E-12  0.17120000000E+03  0.17120000000E+03 0.  0.
         13    1    1    2    0    0 -0.77225660393E+01  0.88079090026E+01  0.20091191495E+02  0.23256922130E+02  0.10566000000E+00 0. -1.
        994    1    1    2    0    0 -0.27276128570E+01  0.26054499794E+00  0.33184921518E+01  0.17125408067E+03  0.17120000000E+03 0.  0.
        998    1    1    2    0    0  0.10450178896E+02 -0.90684540006E+01  0.14765903126E+04  0.14766889972E+04  0.10000000000E+02 0. -1.
</event>
<event>
 5    1  0.1252945E-008  0.3293724E+03  0.7957747E-01  0.3706344E+00
         13   -1    0    0    0    0  0.00000000000E+00  0.00000000000E+00  0.14999999963E+04  0.15000000000E+04  0.10566000000E+00 0.  1.
        994   -1    0    0    0    0 -0.00000000000E+00 -0.00000000000E+00  0.11368683772E-12  0.17120000000E+03  0.17120000000E+03 0.  0.
         13    1    1    2    0    0  0.18530134183E+03 -0.50148694698E+02  0.93927962961E+03  0.95869583947E+03  0.10566000000E+00 0.  1.
        994    1    1    2    0    0 -0.17430700340E+03 -0.28523513327E+02  0.13754948529E+03  0.28182587381E+03  0.17120000000E+03 0.  0.
        998    1    1    2    0    0 -0.10994338429E+02  0.78672208025E+02  0.42317088139E+03  0.43067828671E+03  0.10000000000E+02 0.  1.
</event>
<event>
 5    1  0.1252945E-008  0.3858486E+03  0.7957747E-01  0.3426081E+00
         13   -1    0    0    0    0  0.00000000000E+00  0.00000000000E+00  0.14999999963E+04  0.15000000000E+04  0.10566000000E+00 0. -1.
        994   -1    0    0    0    0 -0.00000000000E+00 -0.00000000000E+00  0.11368683772E-12  0.17120000000E+03  0.17120000000E+03 0.  0.
         13    1    1    2    0    0  0.11548062103E+02  0.30964150379E+01  0.58521865740E+02  0.59730774799E+02  0.10566000000E+00 0. -1.
        994    1    1    2    0    0 -0.12169117838E+02  0.35662750524E+01  0.17369711166E+01  0.17167778778E+03  0.17120000000E+03 0.  0.
        998    1    1    2    0    0  0.62105573509E+00 -0.66626900903E+01  0.14397411594E+04  0.14397914374E+04  0.10000000000E+02 0. -1.
</event>
<event>
 5    1  0.1252945E-008  0.3724461E+03  0.7957747E-01  0.3484724E+00
         13   -1    0    0    0    0  0.00000000000E+00  0.00000000000E+00  0.14999999963E+04  0.15000000000E+04  0.10566000000E+00 0. -1.
        994   -1    0    0    0    0 -0.00000000000E+00 -0.00000000000E+00  0.11368683772E-12  0.17120000000E+03  0.17120000000E+03 0.  0.
         13    1    1    2    0    0  0.20147239215E+02  0.18335543120E+02  0.42425945023E+02  0.50418998053E+02  0.10566000000E+00 0. -1.
        994    1    1    2    0    0 -0.17537147173E+02 -0.17875923891E+02  0.10149224623E+02  0.17331920536E+03  0.17120000000E+03 0.  0.
        998    1    1    2    0    0 -0.26100920426E+01 -0.45961922890E+00  0.14474248266E+04  0.14474617966E+04  0.10000000000E+02 0. -1.
</event>
<event>
 5    1  0.1252945E-008  0.3847315E+03  0.7957747E-01  0.3430812E+00
         13   -1    0    0    0    0  0.00000000000E+00  0.00000000000E+00  0.14999999963E+04  0.15000000000E+04  0.10566000000E+00 0.  1.
        994   -1    0    0    0    0 -0.00000000000E+00 -0.00000000000E+00  0.11368683772E-12  0.17120000000E+03  0.17120000000E+03 0.  0.
         13    1    1    2    0    0  0.64205991135E+01 -0.18538747886E+02  0.10460940843E+03  0.10643330664E+03  0.10566000000E+00 0.  1.
        994    1    1    2    0    0 -0.42987035603E+02  0.64711236500E+01  0.80085972940E+01  0.17681441769E+03  0.17120000000E+03 0.  0.
        998    1    1    2    0    0  0.36566436489E+02  0.12067624236E+02  0.13873819906E+04  0.13879522757E+04  0.10000000000E+02 0.  1.
</event>
<event>
 5    1  0.1252945E-008  0.3837719E+03  0.7957747E-01  0.3434898E+00
         13   -1    0    0    0    0  0.00000000000E+00  0.00000000000E+00  0.14999999963E+04  0.15000000000E+04  0.10566000000E+00 0. -1.
        994   -1    0    0    0    0 -0.00000000000E+00 -0.00000000000E+00  0.11368683772E-12  0.17120000000E+03  0.17120000000E+03 0.  0.
         13    1    1    2    0    0  0.11189013535E+02 -0.27441727996E+01  0.28028271429E+02  0.30303789723E+02  0.10566000000E+00 0. -1.
        994    1    1    2    0    0 -0.16868994200E+02  0.19143765135E+00  0.31813527756E+01  0.17205859647E+03  0.17120000000E+03 0.  0.
        998    1    1    2    0    0  0.56799806650E+01  0.25527351482E+01  0.14687903721E+04  0.14688376138E+04  0.10000000000E+02 0. -1.
</event>
<event>
 5    1  0.1252945E-008  0.3693711E+03  0.7957747E-01  0.3498786E+00
         13   -1    0    0    0    0  0.00000000000E+00  0.00000000000E+00  0.14999999963E+04  0.15000000000E+04  0.10566000000E+00 0.  1.
        994   -1    0    0    0    0 -0.00000000000E+00 -0.00000000000E+00  0.11368683772E-12  0.17120000000E+03  0.17120000000E+03 0.  0.
         13    1    1    2    0    0 -0.68040913533E-01  0.59193627178E+02  0.19941689242E+03  0.20801682210E+03  0.10566000000E+00 0.  1.
        994    1    1    2    0    0  0.39079598052E+02  0.50385392266E+01  0.16042120655E+02  0.17640689186E+03  0.17120000000E+03 0.  0.
        998    1    1    2    0    0 -0.39011557138E+02 -0.64232166405E+02  0.12845409832E+04  0.12867762860E+04  0.10000000000E+02 0.  1.
</event>
<event>
 5    1  0.1351965E-008  0.3850277E+03  0.7957747E-01  0.3429555E+00
         13   -1    0    0    0    0  0.00000000000E+00  0.00000000000E+00  0.14999999963E+04  0.15000000000E+04  0.10566000000E+00 0. -1.
        994   -1    0    0    0    0 -0.00000000000E+00 -0.00000000000E+00  0.11368683772E-12  0.17120000000E+03  0.17120000000E+03 0.  0.
         13    1    1    2    0    0  0.99486952864E+01 -0.12249645586E+02  0.80537604581E+02  0.82069161508E+02  0.10566000000E+00 0. -1.
        994    1    1    2    0    0 -0.22637102394E+01  0.35027302514E+01  0.16735953348E+01  0.17125896889E+03  0.17120000000E+03 0.  0.
        998    1    1    2    0    0 -0.76849850470E+01  0.87469153348E+01  0.14177887964E+04  0.14178718696E+04  0.10000000000E+02 0. -1.
</event>
<event>
 5    1  0.1252945E-008  0.3842579E+03  0.7957747E-01  0.3432826E+00
         13   -1    0    0    0    0  0.00000000000E+00  0.00000000000E+00  0.14999999963E+04  0.15000000000E+04  0.10566000000E+00 0. -1.
        994   -1    0    0    0    0 -0.00000000000E+00 -0.00000000000E+00  0.11368683772E-12  0.17120000000E+03  0.17120000000E+03 0.  0.
         13    1    1    2    0    0 -0.78297131844E+01  0.15085210253E+02  0.73348480888E+02  0.75291957005E+02  0.10566000000E+00 0. -1.
        994    1    1    2    0    0 -0.11104820930E+02 -0.14946403602E+02  0.31428138295E+01  0.17223829222E+03  0.17120000000E+03 0.  0.
        998    1    1    2    0    0  0.18934534115E+02 -0.13880665120E+00  0.14235087016E+04  0.14236697508E+04  0.10000000000E+02 0. -1.
</event>
<event>
 5    1  0.1252945E-008  0.3824050E+03  0.7957747E-01  0.3440753E+00
         13   -1    0    0    0    0  0.00000000000E+00  0.00000000000E+00  0.14999999963E+04  0.15000000000E+04  0.10566000000E+00 0.  1.
        994   -1    0    0    0    0 -0.00000000000E+00 -0.00000000000E+00  0.11368683772E-12  0.17120000000E+03  0.17120000000E+03 0.  0.
         13    1    1    2    0    0  0.10471797638E+02  0.19115635181E+01  0.18094422443E+02  0.20993615897E+02  0.10566000000E+00 0.  1.
        994    1    1    2    0    0 -0.93175576192E+01 -0.47180733825E+01  0.32858605545E+01  0.17154974199E+03  0.17120000000E+03 0.  0.
        998    1    1    2    0    0 -0.11542400189E+01  0.28065098644E+01  0.14786197133E+04  0.14786566421E+04  0.10000000000E+02 0.  1.
</event>
<event>
 5    1  0.1252945E-008  0.3851516E+03  0.7957747E-01  0.3429029E+00
         13   -1    0    0    0    0  0.00000000000E+00  0.00000000000E+00  0.14999999963E+04  0.15000000000E+04  0.10566000000E+00 0.  1.
        994   -1    0    0    0    0 -0.00000000000E+00 -0.00000000000E+00  0.11368683772E-12  0.17120000000E+03  0.17120000000E+03 0.  0.
         13    1    1    2    0    0  0.12737147537E+02  0.54253972540E+01  0.71478339020E+02  0.72806826437E+02  0.10566000000E+00 0.  1.
        994    1    1    2    0    0  0.11656600461E+02  0.29136080289E+01  0.20295668959E+01  0.17163311041E+03  0.17120000000E+03 0.  0.
        998    1    1    2    0    0 -0.24393747998E+02 -0.83390052828E+01  0.14264920904E+04  0.14267600632E+04  0.10000000000E+02 0.  1.
</event>
<event>
 5    1  0.1252945E-008  0.3807132E+03  0.7957747E-01  0.3448059E+00
         13   -1    0    0    0    0  0.00000000000E+00  0.00000000000E+00  0.14999999963E+04  0.15000000000E+04  0.10566000000E+00 0.  1.
        994   -1    0    0    0    0 -0.00000000000E+00 -0.00000000000E+00  0.11368683772E-12  0.17120000000E+03  0.17120000000E+03 0.  0.
         13    1    1    2    0    0 -0.14378037416E+03 -0.16213102301E+01  0.83044741409E+03  0.84280385819E+03  0.10566000000E+00 0.  1.
        994    1    1    2    0    0  0.15700444573E+03 -0.87708572411E+01  0.91193041117E+02  0.24970569610E+03  0.17120000000E+03 0.  0.
        998    1    1    2    0    0 -0.13224071568E+02  0.10392167471E+02  0.57835954107E+03  0.57869044571E+03  0.10000000000E+02 0.  0.
</event>
<event>
 5    1  0.1252945E-008  0.3820555E+03  0.7957747E-01  0.3442257E+00
         13   -1    0    0    0    0  0.00000000000E+00  0.00000000000E+00  0.14999999963E+04  0.15000000000E+04  0.10566000000E+00 0. -1.
        994   -1    0    0    0    0 -0.00000000000E+00 -0.00000000000E+00  0.11368683772E-12  0.17120000000E+03  0.17120000000E+03 0.  0.
         13    1    1    2    0    0  0.20638562872E+02 -0.22381404569E+01  0.70943013660E+02  0.73918075606E+02  0.10566000000E+00 0. -1.
        994    1    1    2    0    0 -0.71864776646E+01 -0.80377991325E+01  0.34852157416E+01  0.17157458554E+03  0.17120000000E+03 0.  0.
        998    1    1    2    0    0 -0.13452085207E+02  0.10275939589E+02  0.14255717669E+04  0.14257073388E+04  0.10000000000E+02 0. -1.
</event>
<event>
 5    1  0.1252945E-008  0.3836627E+03  0.7957747E-01  0.3435364E+00
         13   -1    0    0    0    0  0.00000000000E+00  0.00000000000E+00  0.14999999963E+04  0.15000000000E+04  0.10566000000E+00 0.  1.
        994   -1    0    0    0    0 -0.00000000000E+00 -0.00000000000E+00  0.11368683772E-12  0.17120000000E+03  0.17120000000E+03 0.  0.
         13    1    1    2    0    0 -0.12787099123E+02  0.22644321313E+02  0.15132189403E+03  0.15354022916E+03  0.10566000000E+00 0.  1.
        994    1    1    2    0    0  0.14716913123E+02 -0.56452938660E+01  0.31165925185E+01  0.17195234812E+03  0.17120000000E+03 0.  0.
        998    1    1    2    0    0 -0.19298139995E+01 -0.16999027447E+02  0.13455615097E+04  0.13457074227E+04  0.10000000000E+02 0.  1.
</event>
<event>
 5    1  0.1252945E-008  0.3856910E+03  0.7957747E-01  0.3426747E+00
         13   -1    0    0    0    0  0.00000000000E+00  0.00000000000E+00  0.14999999963E+04  0.15000000000E+04  0.10566000000E+00 0. -1.
        994   -1    0    0    0    0 -0.00000000000E+00 -0.00000000000E+00  0.11368683772E-12  0.17120000000E+03  0.17120000000E+03 0.  0.
         13    1    1    2    0    0 -0.10830015512E+02  0.51422327693E+01  0.57701155950E+02  0.58933575794E+02  0.10566000000E+00 0. -1.
        994    1    1    2    0    0  0.58634011180E+01  0.25870715497E+01  0.14222224985E+01  0.17132581571E+03  0.17120000000E+03 0.  0.
        998    1    1    2    0    0  0.49666143937E+01 -0.77293043190E+01  0.14408766178E+04  0.14409406085E+04  0.10000000000E+02 0. -1.
</event>
<event>
 5    1  0.1252945E-008  0.3774560E+03  0.7957747E-01  0.3462311E+00
         13   -1    0    0    0    0  0.00000000000E+00  0.00000000000E+00  0.14999999963E+04  0.15000000000E+04  0.10566000000E+00 0. -1.
        994   -1    0    0    0    0 -0.00000000000E+00 -0.00000000000E+00  0.11368683772E-12  0.17120000000E+03  0.17120000000E+03 0.  0.
         13    1    1    2    0    0 -0.48570743642E+02 -0.26322452045E+00  0.27010815295E+03  0.27444054344E+03  0.10566000000E+00 0. -1.
        994    1    1    2    0    0  0.40501310399E+00 -0.14516773313E+02  0.61342105310E+01  0.17192431265E+03  0.17120000000E+03 0.  0.
        998    1    1    2    0    0  0.48165730538E+02  0.14779997834E+02  0.12237576328E+04  0.12248351439E+04  0.10000000000E+02 0. -1.
</event>
<event>
 5    1  0.1252945E-008  0.3840319E+03  0.7957747E-01  0.3433789E+00
         13   -1    0    0    0    0  0.00000000000E+00  0.00000000000E+00  0.14999999963E+04  0.15000000000E+04  0.10566000000E+00 0. -1.
        994   -1    0    0    0    0 -0.00000000000E+00 -0.00000000000E+00  0.11368683772E-12  0.17120000000E+03  0.17120000000E+03 0.  0.
         13    1    1    2    0    0 -0.61304172848E+01 -0.32486860175E+02  0.19081168189E+03  0.19365455638E+03  0.10566000000E+00 0. -1.
        994    1    1    2    0    0  0.86697321434E+01  0.51375692739E+02  0.11119088781E+02  0.17929779752E+03  0.17120000000E+03 0.  0.
        998    1    1    2    0    0 -0.25393148586E+01 -0.18888832563E+02  0.12980692256E+04  0.12982476461E+04  0.10000000000E+02 0. -1.
</event>
<event>
 5    1  0.1252945E-008  0.3749603E+03  0.7957747E-01  0.3473400E+00
         13   -1    0    0    0    0  0.00000000000E+00  0.00000000000E+00  0.14999999963E+04  0.15000000000E+04  0.10566000000E+00 0.  1.
        994   -1    0    0    0    0 -0.00000000000E+00 -0.00000000000E+00  0.11368683772E-12  0.17120000000E+03  0.17120000000E+03 0.  0.
         13    1    1    2    0    0  0.16169491830E+02 -0.72668865117E+01  0.20564593322E+02  0.27150944148E+02  0.10566000000E+00 0.  1.
        994    1    1    2    0    0 -0.11820836538E+02  0.55966584321E+01  0.72808309375E+01  0.17185315028E+03  0.17120000000E+03 0.  0.
        998    1    1    2    0    0 -0.43486552919E+01  0.16702280796E+01  0.14721545720E+04  0.14721959056E+04  0.10000000000E+02 0.  1.
</event>
<event>
 5    1  0.1252945E-008  0.3844886E+03  0.7957747E-01  0.3431844E+00
         13   -1    0    0    0    0  0.00000000000E+00  0.00000000000E+00  0.14999999963E+04  0.15000000000E+04  0.10566000000E+00 0.  1.
        994   -1    0    0    0    0 -0.00000000000E+00 -0.00000000000E+00  0.11368683772E-12  0.17120000000E+03  0.17120000000E+03 0.  0.
         13    1    1    2    0    0  0.95095351165E+01  0.98710700816E+01  0.48113262580E+02  0.50027657179E+02  0.10566000000E+00 0.  1.
        994    1    1    2    0    0 -0.11787701268E+02 -0.94204184715E+01  0.26346530982E+01  0.17188390146E+03  0.17120000000E+03 0.  0.
        998    1    1    2    0    0  0.22781661515E+01 -0.45065161011E+00  0.14492520806E+04  0.14492884414E+04  0.10000000000E+02 0.  1.
</event>
<event>
 5    1  0.1252945E-008  0.3837361E+03  0.7957747E-01  0.3435050E+00
         13   -1    0    0    0    0  0.00000000000E+00  0.00000000000E+00  0.14999999963E+04  0.15000000000E+04  0.10566000000E+00 0. -1.
        994   -1    0    0    0    0 -0.00000000000E+00 -0.00000000000E+00  0.11368683772E-12  0.17120000000E+03  0.17120000000E+03 0.  0.
         13    1    1    2    0    0  0.24526141605E+01 -0.27189372795E+02  0.16472463692E+03  0.16697153794E+03  0.10566000000E+00 0. -1.
        994    1    1    2    0    0 -0.16389804227E+01  0.16004512865E+02  0.31140952806E+01  0.17198246503E+03  0.17120000000E+03 0.  0.
        998    1    1    2    0    0 -0.81363373784E+00  0.11184859930E+02  0.13321612641E+04  0.13322459970E+04  0.10000000000E+02 0. -1.
</event>
<event>
 5    1  0.1252945E-008  0.3788421E+03  0.7957747E-01  0.3456216E+00
         13   -1    0    0    0    0  0.00000000000E+00  0.00000000000E+00  0.14999999963E+04  0.15000000000E+04  0.10566000000E+00 0.  1.
        994   -1    0    0    0    0 -0.00000000000E+00 -0.00000000000E+00  0.11368683772E-12  0.17120000000E+03  0.17120000000E+03 0.  0.
         13    1    1    2    0    0  0.15263210571E+02  0.23217951396E+02  0.77732998623E+02  0.82549797716E+02  0.10566000000E+00 0.  1.
        994    1    1    2    0    0 -0.10686233348E+02 -0.22021959004E+02  0.67320374921E+01  0.17307201562E+03  0.17120000000E+03 0.  0.
        998    1    1    2    0    0 -0.45769772223E+01 -0.11959923922E+01  0.14155349602E+04  0.14155781867E+04  0.10000000000E+02 0.  1.
</event>
<event>
 5    1  0.1252945E-008  0.3801820E+03  0.7957747E-01  0.3450366E+00
         13   -1    0    0    0    0  0.00000000000E+00  0.00000000000E+00  0.14999999963E+04  0.15000000000E+04  0.10566000000E+00 0.  1.
        994   -1    0    0    0    0 -0.00000000000E+00 -0.00000000000E+00  0.11368683772E-12  0.17120000000E+03  0.17120000000E+03 0.  0.
         13    1    1    2    0    0 -0.23813546072E+02  0.12385499168E+02  0.84070128210E+02  0.88251250345E+02  0.10566000000E+00 0.  1.
        994    1    1    2    0    0  0.24167483433E+02 -0.89004126290E+01  0.62604197046E+01  0.17323948007E+03  0.17120000000E+03 0.  0.
        998    1    1    2    0    0 -0.35393736110E+00 -0.34850865386E+01  0.14096694484E+04  0.14097092696E+04  0.10000000000E+02 0.  1.
</event>
<event>
 5    1  0.1252945E-008  0.3861662E+03  0.7957747E-01  0.3424741E+00
         13   -1    0    0    0    0  0.00000000000E+00  0.00000000000E+00  0.14999999963E+04  0.15000000000E+04  0.10566000000E+00 0.  1.
        994   -1    0    0    0    0 -0.00000000000E+00 -0.00000000000E+00  0.11368683772E-12  0.17120000000E+03  0.17120000000E+03 0.  0.
         13    1    1    2    0    0 -0.99875209482E+01  0.21080482180E+01  0.48417021677E+02  0.49481446969E+02  0.10566000000E+00 0.  1.
        994    1    1    2    0    0  0.11704021180E+02 -0.45797124446E+01  0.15699103770E+01  0.17166788429E+03  0.17120000000E+03 0.  0.
        998    1    1    2    0    0 -0.17165002321E+01  0.24716642266E+01  0.14500130642E+04  0.14500506687E+04  0.10000000000E+02 0.  1.
</event>
<event>
 5    1  0.1252945E-008  0.3834006E+03  0.7957747E-01  0.3436484E+00
         13   -1    0    0    0    0  0.00000000000E+00  0.00000000000E+00  0.14999999963E+04  0.15000000000E+04  0.10566000000E+00 0.  1.
        994   -1    0    0    0    0 -0.00000000000E+00 -0.00000000000E+00  0.11368683772E-12  0.17120000000E+03  0.17120000000E+03 0.  0.
         13    1    1    2    0    0  0.16290696837E+02  0.14418300447E+02  0.10383324316E+03  0.10608783031E+03  0.10566000000E+00 0.  1.
        994    1    1    2    0    0 -0.47958483982E+01  0.42878771716E+00  0.25029250828E+01  0.17128598499E+03  0.17120000000E+03 0.  0.
        998    1    1    2    0    0 -0.11494848438E+02 -0.14847088164E+02  0.13936638280E+04  0.13938261847E+04  0.10000000000E+02 0.  1.
</event>
<event>
 5    1  0.1252945E-008  0.3828702E+03  0.7957747E-01  0.3438755E+00
         13   -1    0    0    0    0  0.00000000000E+00  0.00000000000E+00  0.14999999963E+04  0.15000000000E+04  0.10566000000E+00 0. -1.
        994   -1    0    0    0    0 -0.00000000000E+00 -0.00000000000E+00  0.11368683772E-12  0.17120000000E+03  0.17120000000E+03 0.  0.
         13    1    1    2    0    0  0.20459594668E+00  0.10337885997E+02  0.18493000317E+02  0.21187637224E+02  0.10566000000E+00 0. -1.
        994    1    1    2    0    0  0.23077558083E+01 -0.13531992147E+02  0.33155129751E+01  0.17178146924E+03  0.17120000000E+03 0.  0.
        998    1    1    2    0    0 -0.25123517550E+01  0.31941061494E+01  0.14781914830E+04  0.14782308935E+04  0.10000000000E+02 0. -1.
</event>
<event>
 5    1  0.1252945E-008  0.3845475E+03  0.7957747E-01  0.3431594E+00
         13   -1    0    0    0    0  0.00000000000E+00  0.00000000000E+00  0.14999999963E+04  0.15000000000E+04  0.10566000000E+00 0. -1.
        994   -1    0    0    0    0 -0.00000000000E+00 -0.00000000000E+00  0.11368683772E-12  0.17120000000E+03  0.17120000000E+03 0.  0.
         13    1    1    2    0    0  0.19221554643E+01 -0.14711813317E+02  0.62655768540E+02  0.64388575292E+02  0.10566000000E+00 0. -1.
        994    1    1    2    0    0  0.39213640856E+01  0.46909738165E+00  0.19063415288E+01  0.17125615693E+03  0.17120000000E+03 0.  0.
        998    1    1    2    0    0 -0.58435195499E+01  0.14242715935E+02  0.14354378862E+04  0.14355552678E+04  0.10000000000E+02 0. -1.
</event>
<event>
 5    1  0.1252945E-008  0.3780783E+03  0.7957747E-01  0.3459569E+00
         13   -1    0    0    0    0  0.00000000000E+00  0.00000000000E+00  0.14999999963E+04  0.15000000000E+04  0.10566000000E+00 0.  1.
        994   -1    0    0    0    0 -0.00000000000E+00 -0.00000000000E+00  0.11368683772E-12  0.17120000000E+03  0.17120000000E+03 0.  0.
         13    1    1    2    0    0  0.23983707328E+02 -0.63854398185E+02  0.36486931814E+03  0.37119029199E+03  0.10566000000E+00 0.  1.
        994    1    1    2    0    0 -0.32757402782E+02  0.54567267568E+02  0.18857129032E+02  0.18361826010E+03  0.17120000000E+03 0.  0.
        998    1    1    2    0    0  0.87736954545E+01  0.92871306172E+01  0.11162735491E+04  0.11163914479E+04  0.10000000000E+02 0.  1.
</event>
<event>
 5    1  0.1252945E-008  0.3799847E+03  0.7957747E-01  0.3451225E+00
         13   -1    0    0    0    0  0.00000000000E+00  0.00000000000E+00  0.14999999963E+04  0.15000000000E+04  0.10566000000E+00 0. -1.
        994   -1    0    0    0    0 -0.00000000000E+00 -0.00000000000E+00  0.11368683772E-12  0.17120000000E+03  0.17120000000E+03 0.  0.
         13    1    1    2    0    0  0.57932664547E+02 -0.26731018300E+02  0.33257070145E+03  0.33863553208E+03  0.10566000000E+00 0. -1.
        994    1    1    2    0    0 -0.71633617704E+02  0.30619097153E+02  0.24704027338E+02  0.18970670326E+03  0.17120000000E+03 0.  0.
        998    1    1    2    0    0  0.13700953156E+02 -0.38880788535E+01  0.11427252675E+04  0.11428577647E+04  0.10000000000E+02 0. -1.
</event>
<event>
 5    1  0.1252945E-008  0.3840323E+03  0.7957747E-01  0.3433787E+00
         13   -1    0    0    0    0  0.00000000000E+00  0.00000000000E+00  0.14999999963E+04  0.15000000000E+04  0.10566000000E+00 0. -1.
        994   -1    0    0    0    0 -0.00000000000E+00 -0.00000000000E+00  0.11368683772E-12  0.17120000000E+03  0.17120000000E+03 0.  0.
         13    1    1    2    0    0 -0.13967190071E+02  0.32862817263E+01  0.49198156839E+02  0.51247944802E+02  0.10566000000E+00 0. -1.
        994    1    1    2    0    0  0.36828070111E+01 -0.98493015221E+01  0.24761889202E+01  0.17154050052E+03  0.17120000000E+03 0.  0.
        998    1    1    2    0    0  0.10284383060E+02  0.65630197958E+01  0.14483256505E+04  0.14484115547E+04  0.10000000000E+02 0. -1.
</event>
<event>
 5    1  0.1252945E-008  0.3858860E+03  0.7957747E-01  0.3425923E+00
         13   -1    0    0    0    0  0.00000000000E+00  0.00000000000E+00  0.14999999963E+04  0.15000000000E+04  0.10566000000E+00 0. -1.
        994   -1    0    0    0    0 -0.00000000000E+00 -0.00000000000E+00  0.11368683772E-12  0.17120000000E+03  0.17120000000E+03 0.  0.
         13    1    1    2    0    0 -0.21860775983E+02 -0.43055175884E+01  0.42728860910E+01  0.22686994686E+02  0.10566000000E+00 0. -1.
        994    1    1    2    0    0  0.10644376699E+02 -0.10932582024E+02  0.20461618607E+02  0.17309229313E+03  0.17120000000E+03 0.  0.
        998    1    1    2    0    0  0.11216399284E+02  0.15238099612E+02  0.14752654916E+04  0.14754207122E+04  0.10000000000E+02 0. -1.
</event>
<event>
 5    1  0.1252945E-008  0.3846372E+03  0.7957747E-01  0.3431212E+00
         13   -1    0    0    0    0  0.00000000000E+00  0.00000000000E+00  0.14999999963E+04  0.15000000000E+04  0.10566000000E+00 0.  1.
        994   -1    0    0    0    0 -0.00000000000E+00 -0.00000000000E+00  0.11368683772E-12  0.17120000000E+03  0.17120000000E+03 0.  0.
         13    1    1    2    0    0  0.32338375895E+01  0.11606869141E+02  0.40205668185E+02  0.41972419934E+02  0.10566000000E+00 0.  1.
        994    1    1    2    0    0  0.27491413299E+00 -0.63922734318E+01  0.19451515673E+01  0.17133055872E+03  0.17120000000E+03 0.  0.
        998    1    1    2    0    0 -0.35087517225E+01 -0.52145957094E+01  0.14578491765E+04  0.14578970213E+04  0.10000000000E+02 0.  1.
</event>
<event>
 5    1  0.1252945E-008  0.3840189E+03  0.7957747E-01  0.3433844E+00
         13   -1    0    0    0    0  0.00000000000E+00  0.00000000000E+00  0.14999999963E+04  0.15000000000E+04  0.10566000000E+00 0. -1.
        994   -1    0    0    0    0 -0.00000000000E+00 -0.00000000000E+00  0.11368683772E-12  0.17120000000E+03  0.17120000000E+03 0.  0.
         13    1    1    2    0    0 -0.10635722427E+02 -0.19174397805E+01  0.27273228736E+02  0.29336586996E+02  0.10566000000E+00 0. -1.
        994    1    1    2    0    0  0.39379990233E+01  0.28441095411E+01  0.21958781912E+01  0.17128297836E+03  0.17120000000E+03 0.  0.
        998    1    1    2    0    0  0.66977234041E+01 -0.92666976062E+00  0.14705308894E+04  0.14705804346E+04  0.10000000000E+02 0. -1.
</event>
<event>
 5    1  0.1252945E-008  0.3752136E+03  0.7957747E-01  0.3472268E+00
         13   -1    0    0    0    0  0.00000000000E+00  0.00000000000E+00  0.14999999963E+04  0.15000000000E+04  0.10566000000E+00 0.  1.
        994   -1    0    0    0    0 -0.00000000000E+00 -0.00000000000E+00  0.11368683772E-12  0.17120000000E+03  0.17120000000E+03 0.  0.
         13    1    1    2    0    0 -0.28288958749E+02  0.26961431646E+02  0.11891092635E+03  0.12516790145E+03  0.10566000000E+00 0.  1.
        994    1    1    2    0    0  0.11198766911E+02 -0.91074522333E+01  0.72771502910E+01  0.17196149273E+03  0.17120000000E+03 0.  0.
        998    1    1    2    0    0  0.17090191838E+02 -0.17853979413E+02  0.13738119196E+04  0.13740706058E+04  0.10000000000E+02 0.  1.
</event>
<event>
 5    1  0.1252945E-008  0.3830111E+03  0.7957747E-01  0.3438151E+00
         13   -1    0    0    0    0  0.00000000000E+00  0.00000000000E+00  0.14999999963E+04  0.15000000000E+04  0.10566000000E+00 0.  1.
        994   -1    0    0    0    0 -0.00000000000E+00 -0.00000000000E+00  0.11368683772E-12  0.17120000000E+03  0.17120000000E+03 0.  0.
         13    1    1    2    0    0  0.21497273367E+02  0.15598270545E+02  0.14844406181E+03  0.15080149024E+03  0.10566000000E+00 0.  1.
        994    1    1    2    0    0 -0.59819810557E+01  0.33405192931E+01  0.27762077039E+01  0.17135953576E+03  0.17120000000E+03 0.  0.
        998    1    1    2    0    0 -0.15515292311E+02 -0.18938789838E+02  0.13487797268E+04  0.13490389740E+04  0.10000000000E+02 0.  1.
</event>
<event>
 5    1  0.1334815E-008  0.3856939E+03  0.7957747E-01  0.3426735E+00
         13   -1    0    0    0    0  0.00000000000E+00  0.00000000000E+00  0.14999999963E+04  0.15000000000E+04  0.10566000000E+00 0. -1.
        994   -1    0    0    0    0 -0.00000000000E+00 -0.00000000000E+00  0.11368683772E-12  0.17120000000E+03  0.17120000000E+03 0.  0.
         13    1    1    2    0    0  0.57534830346E+00  0.11478313739E+02  0.42586783099E+02  0.44110406603E+02  0.10566000000E+00 0. -1.
        994    1    1    2    0    0  0.44108841818E+00 -0.42429719101E+02  0.72162959279E+01  0.17652759147E+03  0.17120000000E+03 0.  0.
        998    1    1    2    0    0 -0.10164367216E+01  0.30951405363E+02  0.14501969173E+04  0.14505620019E+04  0.10000000000E+02 0. -1.
</event>
<event>
 5    1  0.1252945E-008  0.3860812E+03  0.7957747E-01  0.3425100E+00
         13   -1    0    0    0    0  0.00000000000E+00  0.00000000000E+00  0.14999999963E+04  0.15000000000E+04  0.10566000000E+00 0.  1.
        994   -1    0    0    0    0 -0.00000000000E+00 -0.00000000000E+00  0.11368683772E-12  0.17120000000E+03  0.17120000000E+03 0.  0.
         13    1    1    2    0    0  0.12603020158E+02 -0.31839199309E+01  0.77561963305E+02  0.78643771393E+02  0.10566000000E+00 0.  1.
        994    1    1    2    0    0 -0.75354887015E+01  0.94451089878E+01  0.15728860492E+01  0.17163306105E+03  0.17120000000E+03 0.  0.
        998    1    1    2    0    0 -0.50675314564E+01 -0.62611890569E+01  0.14208651469E+04  0.14209231676E+04  0.10000000000E+02 0.  1.
</event>
<event>
 5    1  0.1252945E-008  0.3818365E+03  0.7957747E-01  0.3443201E+00
         13   -1    0    0    0    0  0.00000000000E+00  0.00000000000E+00  0.14999999963E+04  0.15000000000E+04  0.10566000000E+00 0. -1.
        994   -1    0    0    0    0 -0.00000000000E+00 -0.00000000000E+00  0.11368683772E-12  0.17120000000E+03  0.17120000000E+03 0.  0.
         13    1    1    2    0    0  0.16567007375E+02 -0.12240371568E+02  0.60341419047E+02  0.63760414413E+02  0.10566000000E+00 0. -1.
        994    1    1    2    0    0 -0.21355571763E+02  0.21462680610E+02  0.62609212314E+01  0.17396938305E+03  0.17120000000E+03 0.  0.
        998    1    1    2    0    0  0.47885643885E+01 -0.92223090418E+01  0.14333976560E+04  0.14334702025E+04  0.10000000000E+02 0. -1.
</event>
<event>
 5    1  0.1252945E-008  0.3748043E+03  0.7957747E-01  0.3474098E+00
         13   -1    0    0    0    0  0.00000000000E+00  0.00000000000E+00  0.14999999963E+04  0.15000000000E+04  0.10566000000E+00 0. -1.
        994   -1    0    0    0    0 -0.00000000000E+00 -0.00000000000E+00  0.11368683772E-12  0.17120000000E+03  0.17120000000E+03 0.  0.
         13    1    1    2    0    0 -0.20267321484E+02  0.99343745120E+01  0.35510533811E+02  0.42076897375E+02  0.10566000000E+00 0. -1.
        994    1    1    2    0    0  0.94523394245E+01  0.23241838239E+00  0.70834063890E+01  0.17160715424E+03  0.17120000000E+03 0.  0.
        998    1    1    2    0    0  0.10814982060E+02 -0.10166792894E+02  0.14574060561E+04  0.14575159484E+04  0.10000000000E+02 0. -1.
</event>
<event>
 5    1  0.1252945E-008  0.3849107E+03  0.7957747E-01  0.3430051E+00
         13   -1    0    0    0    0  0.00000000000E+00  0.00000000000E+00  0.14999999963E+04  0.15000000000E+04  0.10566000000E+00 0. -1.
        994   -1    0    0    0    0 -0.00000000000E+00 -0.00000000000E+00  0.11368683772E-12  0.17120000000E+03  0.17120000000E+03 0.  0.
         13    1    1    2    0    0  0.10057970330E+02 -0.72359364821E+01  0.45540365497E+02  0.47195948953E+02  0.10566000000E+00 0. -1.
        994    1    1    2    0    0 -0.67408053975E+01  0.61164575624E+01  0.19470739415E+01  0.17145285243E+03  0.17120000000E+03 0.  0.
        998    1    1    2    0    0 -0.33171649330E+01  0.11194789197E+01  0.14525125568E+04  0.14525511986E+04  0.10000000000E+02 0. -1.
</event>
<event>
 5    1  0.1252945E-008  0.3837805E+03  0.7957747E-01  0.3434861E+00
         13   -1    0    0    0    0  0.00000000000E+00  0.00000000000E+00  0.14999999963E+04  0.15000000000E+04  0.10566000000E+00 0.  1.
        994   -1    0    0    0    0 -0.00000000000E+00 -0.00000000000E+00  0.11368683772E-12  0.17120000000E+03  0.17120000000E+03 0.  0.
         13    1    1    2    0    0  0.97703110016E+01 -0.77154773155E+01  0.34742235831E+02  0.36905577923E+02  0.10566000000E+00 0.  1.
        994    1    1    2    0    0 -0.36945554707E+01  0.69428704635E+00  0.22834704241E+01  0.17125649188E+03  0.17120000000E+03 0.  0.
        998    1    1    2    0    0 -0.60757555309E+01  0.70211902692E+01  0.14629742900E+04  0.14630379302E+04  0.10000000000E+02 0.  1.
</event>
<event>
 5    1  0.1252945E-008  0.3849793E+03  0.7957747E-01  0.3429760E+00
         13   -1    0    0    0    0  0.00000000000E+00  0.00000000000E+00  0.14999999963E+04  0.15000000000E+04  0.10566000000E+00 0.  1.
        994   -1    0    0    0    0 -0.00000000000E+00 -0.00000000000E+00  0.11368683772E-12  0.17120000000E+03  0.17120000000E+03 0.  0.
         13    1    1    2    0    0 -0.13662060542E+02  0.20653605422E+01  0.63339781308E+02  0.64829442945E+02  0.10566000000E+00 0.  1.
        994    1    1    2    0    0 -0.33647013338E+01  0.62033269478E+01  0.18042334147E+01  0.17135488828E+03  0.17120000000E+03 0.  0.
        998    1    1    2    0    0  0.17026761876E+02 -0.82686874900E+01  0.14348559816E+04  0.14350156688E+04  0.10000000000E+02 0.  1.
</event>
<event>
 5    1  0.1252945E-008  0.3780018E+03  0.7957747E-01  0.3459906E+00
         13   -1    0    0    0    0  0.00000000000E+00  0.00000000000E+00  0.14999999963E+04  0.15000000000E+04  0.10566000000E+00 0.  1.
        994   -1    0    0    0    0 -0.00000000000E+00 -0.00000000000E+00  0.11368683772E-12  0.17120000000E+03  0.17120000000E+03 0.  0.
         13    1    1    2    0    0  0.69723446035E+02  0.46525471435E+02  0.49860286049E+03  0.50559944825E+03  0.10566000000E+00 0.  1.
        994    1    1    2    0    0 -0.57697369186E+02 -0.50765298224E+02  0.25284907548E+02  0.18935381819E+03  0.17120000000E+03 0.  0.
        998    1    1    2    0    0 -0.12026076850E+02  0.42398267889E+01  0.97611222824E+03  0.97624673356E+03  0.10000000000E+02 0.  1.
</event>
<event>
 5    1  0.1252945E-008  0.3827746E+03  0.7957747E-01  0.3439166E+00
         13   -1    0    0    0    0  0.00000000000E+00  0.00000000000E+00  0.14999999963E+04  0.15000000000E+04  0.10566000000E+00 0. -1.
        994   -1    0    0    0    0 -0.00000000000E+00 -0.00000000000E+00  0.11368683772E-12  0.17120000000E+03  0.17120000000E+03 0.  0.
         13    1    1    2    0    0 -0.16274287376E+02  0.16095726995E+02  0.96260704387E+02  0.98944728158E+02  0.10566000000E+00 0. -1.
        994    1    1    2    0    0  0.18994287414E+01 -0.14923583170E+02  0.34891282574E+01  0.17189512844E+03  0.17120000000E+03 0.  0.
        998    1    1    2    0    0  0.14374858634E+02 -0.11721438244E+01  0.14002501636E+04  0.14003601434E+04  0.10000000000E+02 0. -1.
</event>
<event>
 5    1  0.1252945E-008  0.3854432E+03  0.7957747E-01  0.3427795E+00
         13   -1    0    0    0    0  0.00000000000E+00  0.00000000000E+00  0.14999999963E+04  0.15000000000E+04  0.10566000000E+00 0.  1.
        994   -1    0    0    0    0 -0.00000000000E+00 -0.00000000000E+00  0.11368683772E-12  0.17120000000E+03  0.17120000000E+03 0.  0.
         13    1    1    2    0    0  0.14473282358E+02 -0.13678169349E+01  0.82429346829E+02  0.83701584262E+02  0.10566000000E+00 0.  1.
        994    1    1    2    0    0  0.10051065876E+01 -0.10491228737E+02  0.17750991313E+01  0.17153328277E+03  0.17120000000E+03 0.  0.
        998    1    1    2    0    0 -0.15478388945E+02  0.11859045672E+02  0.14157955503E+04  0.14159651330E+04  0.10000000000E+02 0.  1.
</event>
<event>
 5    1  0.1252945E-008  0.2963168E+03  0.7957747E-01  0.3922670E+00
         13   -1    0    0    0    0  0.00000000000E+00  0.00000000000E+00  0.14999999963E+04  0.15000000000E+04  0.10566000000E+00 0. -1.
        994   -1    0    0    0    0 -0.00000000000E+00 -0.00000000000E+00  0.11368683772E-12  0.17120000000E+03  0.17120000000E+03 0.  0.
         13    1    1    2    0    0 -0.14861774316E+03 -0.77124749058E+02  0.67222926914E+03  0.69276811558E+03  0.10566000000E+00 0. -1.
        994    1    1    2    0    0  0.12602628458E+03  0.70944692308E+02  0.92061366703E+02  0.24228187924E+03  0.17120000000E+03 0.  0.
        998    1    1    2    0    0  0.22591458582E+02  0.61800567498E+01  0.73570936043E+03  0.73615000518E+03  0.10000000000E+02 0.  0.
</event>
<event>
 5    1  0.1252945E-008  0.3839239E+03  0.7957747E-01  0.3434249E+00
         13   -1    0    0    0    0  0.00000000000E+00  0.00000000000E+00  0.14999999963E+04  0.15000000000E+04  0.10566000000E+00 0.  1.
        994   -1    0    0    0    0 -0.00000000000E+00 -0.00000000000E+00  0.11368683772E-12  0.17120000000E+03  0.17120000000E+03 0.  0.
         13    1    1    2    0    0  0.34511926176E+01  0.94814222463E+01  0.22940149589E+02  0.25061319309E+02  0.10566000000E+00 0.  1.
        994    1    1    2    0    0 -0.18802891383E+01 -0.52226440099E+01  0.22670187288E+01  0.17130496453E+03  0.17120000000E+03 0.  0.
        998    1    1    2    0    0 -0.15709034793E+01 -0.42587782365E+01  0.14747928280E+04  0.14748337162E+04  0.10000000000E+02 0.  1.
</event>
<event>
 5    1  0.1252945E-008  0.3856820E+03  0.7957747E-01  0.3426785E+00
         13   -1    0    0    0    0  0.00000000000E+00  0.00000000000E+00  0.14999999963E+04  0.15000000000E+04  0.10566000000E+00 0. -1.
        994   -1    0    0    0    0 -0.00000000000E+00 -0.00000000000E+00  0.11368683772E-12  0.17120000000E+03  0.17120000000E+03 0.  0.
         13    1    1    2    0    0  0.67439793755E+01 -0.74619895798E+01  0.39825069154E+02  0.41075659989E+02  0.10566000000E+00 0. -1.
        994    1    1    2    0    0 -0.10572910796E+01  0.54334775120E+01  0.13924800507E+01  0.17129512411E+03  0.17120000000E+03 0.  0.
        998    1    1    2    0    0 -0.56866882959E+01  0.20285120678E+01  0.14587824471E+04  0.14588292159E+04  0.10000000000E+02 0. -1.
</event>
<event>
 5    1  0.1252945E-008  0.3749927E+03  0.7957747E-01  0.3473256E+00
         13   -1    0    0    0    0  0.00000000000E+00  0.00000000000E+00  0.14999999963E+04  0.15000000000E+04  0.10566000000E+00 0.  1.
        994   -1    0    0    0    0 -0.00000000000E+00 -0.00000000000E+00  0.11368683772E-12  0.17120000000E+03  0.17120000000E+03 0.  0.
         13    1    1    2    0    0  0.14869058450E+02  0.23403695132E+00  0.13790220530E+02  0.20281149346E+02  0.10566000000E+00 0.  1.
        994    1    1    2    0    0 -0.46159995335E+01 -0.36283239500E+01  0.67996944835E+01  0.17143555066E+03  0.17120000000E+03 0.  0.
        998    1    1    2    0    0 -0.10253058916E+02  0.33942869987E+01  0.14794100813E+04  0.14794833000E+04  0.10000000000E+02 0.  1.
</event>
<event>
 5    1  0.1252945E-008  0.2085597E+03  0.7957747E-01  0.4888466E+00
         13   -1    0    0    0    0  0.00000000000E+00  0.00000000000E+00  0.14999999963E+04  0.15000000000E+04  0.10566000000E+00 0. -1.
        994   -1    0    0    0    0 -0.00000000000E+00 -0.00000000000E+00  0.11368683772E-12  0.17120000000E+03  0.17120000000E+03 0.  0.
         13    1    1    2    0    0  0.53795513059E+02 -0.15519131219E+03  0.17917589153E+03  0.24306853329E+03  0.10566000000E+00 0. -1.
        994    1    1    2    0    0 -0.51702705084E+02  0.87440590497E+02  0.13545347411E+03  0.24078228803E+03  0.17120000000E+03 0.  0.
        998    1    1    2    0    0 -0.20928079753E+01  0.67750721696E+02  0.11853706306E+04  0.11873491787E+04  0.10000000000E+02 0. -1.
</event>
<event>
 5    1  0.1252945E-008  0.3735215E+03  0.7957747E-01  0.3479861E+00
         13   -1    0    0    0    0  0.00000000000E+00  0.00000000000E+00  0.14999999963E+04  0.15000000000E+04  0.10566000000E+00 0. -1.
        994   -1    0    0    0    0 -0.00000000000E+00 -0.00000000000E+00  0.11368683772E-12  0.17120000000E+03  0.17120000000E+03 0.  0.
         13    1    1    2    0    0 -0.13077492879E+02  0.17139274995E+02  0.12535275088E+02  0.24938320972E+02  0.10566000000E+00 0. -1.
        994    1    1    2    0    0  0.18176732784E+01 -0.20163062172E+02  0.14265157451E+02  0.17298204453E+03  0.17120000000E+03 0.  0.
        998    1    1    2    0    0  0.11259819600E+02  0.30237871771E+01  0.14731995637E+04  0.14732796345E+04  0.10000000000E+02 0. -1.
</event>
<event>
 5    1  0.1252945E-008  0.3827669E+03  0.7957747E-01  0.3439198E+00
         13   -1    0    0    0    0  0.00000000000E+00  0.00000000000E+00  0.14999999963E+04  0.15000000000E+04  0.10566000000E+00 0. -1.
        994   -1    0    0    0    0 -0.00000000000E+00 -0.00000000000E+00  0.11368683772E-12  0.17120000000E+03  0.17120000000E+03 0.  0.
         13    1    1    2    0    0 -0.45196144793E+01  0.26646472976E+02  0.13202992264E+03  0.13476784882E+03  0.10566000000E+00 0. -1.
        994    1    1    2    0    0 -0.14211862997E+02 -0.19675878853E+02  0.46968656279E+01  0.17297577231E+03  0.17120000000E+03 0.  0.
        998    1    1    2    0    0  0.18731477477E+02 -0.69705941236E+01  0.13632732080E+04  0.13634563789E+04  0.10000000000E+02 0.  1.
</event>
<event>
 5    1  0.1252945E-008  0.3765352E+03  0.7957747E-01  0.3466385E+00
         13   -1    0    0    0    0  0.00000000000E+00  0.00000000000E+00  0.14999999963E+04  0.15000000000E+04  0.10566000000E+00 0. -1.
        994   -1    0    0    0    0 -0.00000000000E+00 -0.00000000000E+00  0.11368683772E-12  0.17120000000E+03  0.17120000000E+03 0.  0.
         13    1    1    2    0    0  0.13541022339E+03  0.15766563276E+02  0.39836481364E+03  0.42104518644E+03  0.10566000000E+00 0. -1.
        994    1    1    2    0    0 -0.14729933769E+03 -0.63528431047E+02  0.11328624064E+03  0.26053055243E+03  0.17120000000E+03 0.  0.
        998    1    1    2    0    0  0.11889114299E+02  0.47761867771E+02  0.98834894200E+03  0.98962426112E+03  0.10000000000E+02 0. -1.
</event>
<event>
 5    1  0.1252945E-008  0.3854474E+03  0.7957747E-01  0.3427777E+00
         13   -1    0    0    0    0  0.00000000000E+00  0.00000000000E+00  0.14999999963E+04  0.15000000000E+04  0.10566000000E+00 0.  1.
        994   -1    0    0    0    0 -0.00000000000E+00 -0.00000000000E+00  0.11368683772E-12  0.17120000000E+03  0.17120000000E+03 0.  0.
         13    1    1    2    0    0  0.15349690719E+02  0.41838276673E+01  0.93691539663E+02  0.95032800588E+02  0.10566000000E+00 0.  1.
        994    1    1    2    0    0 -0.20393268962E+01 -0.15878729546E+02  0.22502704539E+01  0.17196161381E+03  0.17120000000E+03 0.  0.
        998    1    1    2    0    0 -0.13310363823E+02  0.11694901878E+02  0.14040581862E+04  0.14042055856E+04  0.10000000000E+02 0.  1.
</event>
<event>
 5    1  0.1252945E-008  0.3960237E+03  0.7957747E-01  0.3384224E+00
         13   -1    0    0    0    0  0.00000000000E+00  0.00000000000E+00  0.14999999963E+04  0.15000000000E+04  0.10566000000E+00 0.  1.
        994   -1    0    0    0    0 -0.00000000000E+00 -0.00000000000E+00  0.11368683772E-12  0.17120000000E+03  0.17120000000E+03 0.  0.
         13    1    1    2    0    0  0.87073115332E+01 -0.39531682427E+02  0.21943171688E+02  0.46044382257E+02  0.10566000000E+00 0.  1.
        994    1    1    2    0    0 -0.61587990421E+01  0.38147916124E+02  0.31196506863E+02  0.17825783672E+03  0.17120000000E+03 0.  0.
        998    1    1    2    0    0 -0.25485124911E+01  0.13837663027E+01  0.14468603177E+04  0.14468977810E+04  0.10000000000E+02 0.  1.
</event>
<event>
 5    1  0.1252945E-008  0.3850098E+03  0.7957747E-01  0.3429631E+00
         13   -1    0    0    0    0  0.00000000000E+00  0.00000000000E+00  0.14999999963E+04  0.15000000000E+04  0.10566000000E+00 0. -1.
        994   -1    0    0    0    0 -0.00000000000E+00 -0.00000000000E+00  0.11368683772E-12  0.17120000000E+03  0.17120000000E+03 0.  0.
         13    1    1    2    0    0  0.15846278606E+02  0.82178077841E+01  0.10764377206E+03  0.10911383844E+03  0.10566000000E+00 0. -1.
        994    1    1    2    0    0 -0.17166370293E+01  0.27587982503E+01  0.16599836942E+01  0.17123887805E+03  0.17120000000E+03 0.  0.
        998    1    1    2    0    0 -0.14129641577E+02 -0.10976606034E+02  0.13906962405E+04  0.13908472835E+04  0.10000000000E+02 0. -1.
</event>
<event>
 5    1  0.1252945E-008  0.3728305E+03  0.7957747E-01  0.3482983E+00
         13   -1    0    0    0    0  0.00000000000E+00  0.00000000000E+00  0.14999999963E+04  0.15000000000E+04  0.10566000000E+00 0.  1.
        994   -1    0    0    0    0 -0.00000000000E+00 -0.00000000000E+00  0.11368683772E-12  0.17120000000E+03  0.17120000000E+03 0.  0.
         13    1    1    2    0    0 -0.88450490927E+01 -0.15869692032E+02  0.17578437410E+02  0.25280321289E+02  0.10566000000E+00 0.  1.
        994    1    1    2    0    0  0.10213549436E+02  0.15137335879E+02  0.89396858822E+01  0.17240305541E+03  0.17120000000E+03 0.  0.
        998    1    1    2    0    0 -0.13685003430E+01  0.73235615320E+00  0.14734818730E+04  0.14735166233E+04  0.10000000000E+02 0.  1.
</event>
<event>
 5    1  0.1252945E-008  0.3790311E+03  0.7957747E-01  0.3455388E+00
         13   -1    0    0    0    0  0.00000000000E+00  0.00000000000E+00  0.14999999963E+04  0.15000000000E+04  0.10566000000E+00 0.  1.
        994   -1    0    0    0    0 -0.00000000000E+00 -0.00000000000E+00  0.11368683772E-12  0.17120000000E+03  0.17120000000E+03 0.  0.
         13    1    1    2    0    0  0.13902845471E+02 -0.94701150178E-01  0.19059351418E+02  0.23591696018E+02  0.10566000000E+00 0.  1.
        994    1    1    2    0    0 -0.74955166237E+01  0.23229965295E+01  0.48295888156E+01  0.17144778800E+03  0.17120000000E+03 0.  0.
        998    1    1    2    0    0 -0.64073288469E+01 -0.22282953793E+01  0.14761110560E+04  0.14761605160E+04  0.10000000000E+02 0.  1.
</event>
<event>
 5    1  0.1252945E-008  0.3785276E+03  0.7957747E-01  0.3457595E+00
         13   -1    0    0    0    0  0.00000000000E+00  0.00000000000E+00  0.14999999963E+04  0.15000000000E+04  0.10566000000E+00 0.  1.
        994   -1    0    0    0    0 -0.00000000000E+00 -0.00000000000E+00  0.11368683772E-12  0.17120000000E+03  0.17120000000E+03 0.  0.
         13    1    1    2    0    0  0.10916128335E+02 -0.90969847099E+01  0.21708224995E+02  0.25945619768E+02  0.10566000000E+00 0.  1.
        994    1    1    2    0    0  0.46933049105E+02 -0.21207620331E+02  0.13840841278E+02  0.17931392346E+03  0.17120000000E+03 0.  0.
        998    1    1    2    0    0 -0.57849177440E+02  0.30304605041E+02  0.14644509300E+04  0.14659404568E+04  0.10000000000E+02 0.  1.
</event>
<event>
 5    1  0.1252945E-008  0.4248963E+03  0.7957747E-01  0.3276295E+00
         13   -1    0    0    0    0  0.00000000000E+00  0.00000000000E+00  0.14999999963E+04  0.15000000000E+04  0.10566000000E+00 0. -1.
        994   -1    0    0    0    0 -0.00000000000E+00 -0.00000000000E+00  0.11368683772E-12  0.17120000000E+03  0.17120000000E+03 0.  0.
         13    1    1    2    0    0 -0.48508529002E+02 -0.29895037664E+02  0.21599080046E+02  0.60937033779E+02  0.10566000000E+00 0. -1.
        994    1    1    2    0    0  0.43049466986E+02  0.30166497005E+02  0.55748559515E+02  0.18756496485E+03  0.17120000000E+03 0.  0.
        998    1    1    2    0    0  0.54590620159E+01 -0.27145934108E+00  0.14226523567E+04  0.14226980014E+04  0.10000000000E+02 0. -1.
</event>
<event>
 5    1  0.1252945E-008  0.3850400E+03  0.7957747E-01  0.3429502E+00
         13   -1    0    0    0    0  0.00000000000E+00  0.00000000000E+00  0.14999999963E+04  0.15000000000E+04  0.10566000000E+00 0.  1.
        994   -1    0    0    0    0 -0.00000000000E+00 -0.00000000000E+00  0.11368683772E-12  0.17120000000E+03  0.17120000000E+03 0.  0.
         13    1    1    2    0    0  0.63638920647E+01  0.10332850080E+02  0.46755577765E+02  0.48304887218E+02  0.10566000000E+00 0.  1.
        994    1    1    2    0    0 -0.48724099788E+01 -0.14927516593E+01  0.16956549732E+01  0.17128421974E+03  0.17120000000E+03 0.  0.
        998    1    1    2    0    0 -0.14914820859E+01 -0.88400984205E+01  0.14515487635E+04  0.14516108930E+04  0.10000000000E+02 0.  1.
</event>
<event>
 5    1  0.1252945E-008  0.3799863E+03  0.7957747E-01  0.3451218E+00
         13   -1    0    0    0    0  0.00000000000E+00  0.00000000000E+00  0.14999999963E+04  0.15000000000E+04  0.10566000000E+00 0.  1.
        994   -1    0    0    0    0 -0.00000000000E+00 -0.00000000000E+00  0.11368683772E-12  0.17120000000E+03  0.17120000000E+03 0.  0.
         13    1    1    2    0    0 -0.31110368016E+02  0.19185945003E+02  0.18371581965E+03  0.18731649430E+03  0.10566000000E+00 0.  1.
        994    1    1    2    0    0  0.30926567735E+01  0.10353428764E+01  0.41756035747E+01  0.17128196673E+03  0.17120000000E+03 0.  0.
        998    1    1    2    0    0  0.28017711243E+02 -0.20221287880E+02  0.13121085731E+04  0.13126015390E+04  0.10000000000E+02 0.  1.
</event>
<event>
 5    1  0.1252945E-008  0.3727205E+03  0.7957747E-01  0.3483481E+00
         13   -1    0    0    0    0  0.00000000000E+00  0.00000000000E+00  0.14999999963E+04  0.15000000000E+04  0.10566000000E+00 0. -1.
        994   -1    0    0    0    0 -0.00000000000E+00 -0.00000000000E+00  0.11368683772E-12  0.17120000000E+03  0.17120000000E+03 0.  0.
         13    1    1    2    0    0 -0.14253345624E+02  0.15953857942E+02  0.25463689471E+02  0.33257992877E+02  0.10566000000E+00 0. -1.
        994    1    1    2    0    0  0.28209126329E+02 -0.25821356256E+01  0.10607652305E+02  0.17385161639E+03  0.17120000000E+03 0.  0.
        998    1    1    2    0    0 -0.13955780705E+02 -0.13371722316E+02  0.14639286545E+04  0.14640903907E+04  0.10000000000E+02 0. -1.
</event>
<event>
 5    1  0.1252945E-008  0.3828116E+03  0.7957747E-01  0.3439007E+00
         13   -1    0    0    0    0  0.00000000000E+00  0.00000000000E+00  0.14999999963E+04  0.15000000000E+04  0.10566000000E+00 0. -1.
        994   -1    0    0    0    0 -0.00000000000E+00 -0.00000000000E+00  0.11368683772E-12  0.17120000000E+03  0.17120000000E+03 0.  0.
         13    1    1    2    0    0  0.17869543276E+02 -0.58411499287E+01  0.63397877056E+02  0.66126708587E+02  0.10566000000E+00 0. -1.
        994    1    1    2    0    0 -0.13962367115E+02  0.39193821068E+01  0.34174357233E+01  0.17184710681E+03  0.17120000000E+03 0.  0.
        998    1    1    2    0    0 -0.39071761605E+01  0.19217678219E+01  0.14331846835E+04  0.14332261846E+04  0.10000000000E+02 0. -1.
</event>
<event>
 5    1  0.1252945E-008  0.3810097E+03  0.7957747E-01  0.3446774E+00
         13   -1    0    0    0    0  0.00000000000E+00  0.00000000000E+00  0.14999999963E+04  0.15000000000E+04  0.10566000000E+00 0. -1.
        994   -1    0    0    0    0 -0.00000000000E+00 -0.00000000000E+00  0.11368683772E-12  0.17120000000E+03  0.17120000000E+03 0.  0.
         13    1    1    2    0    0 -0.27827053701E+02 -0.12231268382E+02  0.12529757981E+03  0.12893193365E+03  0.10566000000E+00 0. -1.
        994    1    1    2    0    0  0.12963850264E+02  0.19190102446E+02  0.54132567513E+01  0.17284404761E+03  0.17120000000E+03 0.  0.
        998    1    1    2    0    0  0.14863203436E+02 -0.69588340641E+01  0.13692891597E+04  0.13694240187E+04  0.10000000000E+02 0. -1.
</event>
<event>
 5    1  0.1252945E-008  0.3690014E+03  0.7957747E-01  0.3500493E+00
         13   -1    0    0    0    0  0.00000000000E+00  0.00000000000E+00  0.14999999963E+04  0.15000000000E+04  0.10566000000E+00 0.  1.
        994   -1    0    0    0    0 -0.00000000000E+00 -0.00000000000E+00  0.11368683772E-12  0.17120000000E+03  0.17120000000E+03 0.  0.
         13    1    1    2    0    0 -0.50733296435E+02  0.53958959978E+02  0.25127597484E+03  0.26196385900E+03  0.10566000000E+00 0.  1.
        994    1    1    2    0    0  0.21906248288E+02 -0.47636409453E+02  0.20051208664E+02  0.18016826077E+03  0.17120000000E+03 0.  0.
        998    1    1    2    0    0  0.28827048146E+02 -0.63225505251E+01  0.12286728128E+04  0.12290678802E+04  0.10000000000E+02 0.  1.
</event>
<event>
 5    1  0.1252945E-008  0.3826916E+03  0.7957747E-01  0.3439522E+00
         13   -1    0    0    0    0  0.00000000000E+00  0.00000000000E+00  0.14999999963E+04  0.15000000000E+04  0.10566000000E+00 0.  1.
        994   -1    0    0    0    0 -0.00000000000E+00 -0.00000000000E+00  0.11368683772E-12  0.17120000000E+03  0.17120000000E+03 0.  0.
         13    1    1    2    0    0  0.16316194432E+02 -0.82229910725E+01  0.58037525477E+02  0.60845717273E+02  0.10566000000E+00 0.  1.
        994    1    1    2    0    0 -0.15307364191E+02  0.51498785779E+01  0.36453227505E+01  0.17199873554E+03  0.17120000000E+03 0.  0.
        998    1    1    2    0    0 -0.10088302410E+01  0.30731124946E+01  0.14383171481E+04  0.14383555472E+04  0.10000000000E+02 0.  1.
</event>
<event>
 5    1  0.1252945E-008  0.3794756E+03  0.7957747E-01  0.3453445E+00
         13   -1    0    0    0    0  0.00000000000E+00  0.00000000000E+00  0.14999999963E+04  0.15000000000E+04  0.10566000000E+00 0.  1.
        994   -1    0    0    0    0 -0.00000000000E+00 -0.00000000000E+00  0.11368683772E-12  0.17120000000E+03  0.17120000000E+03 0.  0.
         13    1    1    2    0    0  0.18118353955E+02  0.99303393563E+01  0.46182903247E+02  0.50594052083E+02  0.10566000000E+00 0.  1.
        994    1    1    2    0    0 -0.17069122330E+02 -0.56218088797E+01  0.54803087821E+01  0.17222785331E+03  0.17120000000E+03 0.  0.
        998    1    1    2    0    0 -0.10492316257E+01 -0.43085304766E+01  0.14483367842E+04  0.14483780946E+04  0.10000000000E+02 0.  0.
</event>
<event>
 5    1  0.1252945E-008  0.3821872E+03  0.7957747E-01  0.3441690E+00
         13   -1    0    0    0    0  0.00000000000E+00  0.00000000000E+00  0.14999999963E+04  0.15000000000E+04  0.10566000000E+00 0. -1.
        994   -1    0    0    0    0 -0.00000000000E+00 -0.00000000000E+00  0.11368683772E-12  0.17120000000E+03  0.17120000000E+03 0.  0.
         13    1    1    2    0    0 -0.52591407698E+01  0.11080305727E+02  0.23485934452E+02  0.26495886809E+02  0.10566000000E+00 0. -1.
        994    1    1    2    0    0  0.31720911733E+01 -0.10277885205E+02  0.34171882692E+01  0.17157160098E+03  0.17120000000E+03 0.  0.
        998    1    1    2    0    0  0.20870495964E+01 -0.80242052209E+00  0.14730968736E+04  0.14731325122E+04  0.10000000000E+02 0. -1.
</event>
<event>
 5    1  0.1252945E-008  0.3724735E+03  0.7957747E-01  0.3484600E+00
         13   -1    0    0    0    0  0.00000000000E+00  0.00000000000E+00  0.14999999963E+04  0.15000000000E+04  0.10566000000E+00 0. -1.
        994   -1    0    0    0    0 -0.00000000000E+00 -0.00000000000E+00  0.11368683772E-12  0.17120000000E+03  0.17120000000E+03 0.  0.
         13    1    1    2    0    0  0.11350875108E+02  0.14777353733E+02  0.18017080179E+02  0.25919855156E+02  0.10566000000E+00 0. -1.
        994    1    1    2    0    0 -0.94218781495E+01 -0.18043678136E+02  0.94037569968E+01  0.17266214627E+03  0.17120000000E+03 0.  0.
        998    1    1    2    0    0 -0.19289969581E+01  0.32663244022E+01  0.14725791591E+04  0.14726179986E+04  0.10000000000E+02 0. -1.
</event>
<event>
 5    1  0.1252945E-008  0.3852461E+03  0.7957747E-01  0.3428629E+00
         13   -1    0    0    0    0  0.00000000000E+00  0.00000000000E+00  0.14999999963E+04  0.15000000000E+04  0.10566000000E+00 0. -1.
        994   -1    0    0    0    0 -0.00000000000E+00 -0.00000000000E+00  0.11368683772E-12  0.17120000000E+03  0.17120000000E+03 0.  0.
         13    1    1    2    0    0 -0.10992940686E+02 -0.10007524781E+01  0.40390927435E+02  0.41872239414E+02  0.10566000000E+00 0. -1.
        994    1    1    2    0    0  0.73474878871E+01  0.14178706902E+01  0.16920353875E+01  0.17137181483E+03  0.17120000000E+03 0.  0.
        998    1    1    2    0    0  0.36454527988E+01 -0.41711821214E+00  0.14579170335E+04  0.14579559458E+04  0.10000000000E+02 0. -1.
</event>
<event>
 5    1  0.1252945E-008  0.3838550E+03  0.7957747E-01  0.3434543E+00
         13   -1    0    0    0    0  0.00000000000E+00  0.00000000000E+00  0.14999999963E+04  0.15000000000E+04  0.10566000000E+00 0. -1.
        994   -1    0    0    0    0 -0.00000000000E+00 -0.00000000000E+00  0.11368683772E-12  0.17120000000E+03  0.17120000000E+03 0.  0.
         13    1    1    2    0    0  0.56314043423E+02  0.74858015711E+02  0.55144862259E+03  0.55934836062E+03  0.10566000000E+00 0. -1.
        994    1    1    2    0    0 -0.10953340350E+03 -0.98628581742E+02  0.77555320731E+02  0.23885022795E+03  0.17120000000E+03 0.  0.
        998    1    1    2    0    0  0.53219360077E+02  0.23770566030E+02  0.87099605296E+03  0.87300141143E+03  0.10000000000E+02 0. -1.
</event>
<event>
 5    1  0.1252945E-008  0.3802016E+03  0.7957747E-01  0.3450281E+00
         13   -1    0    0    0    0  0.00000000000E+00  0.00000000000E+00  0.14999999963E+04  0.15000000000E+04  0.10566000000E+00 0. -1.
        994   -1    0    0    0    0 -0.00000000000E+00 -0.00000000000E+00  0.11368683772E-12  0.17120000000E+03  0.17120000000E+03 0.  0.
         13    1    1    2    0    0  0.14302675600E+02  0.10279926268E+02  0.36070771879E+02  0.40141688572E+02  0.10566000000E+00 0. -1.
        994    1    1    2    0    0 -0.15862993380E+02 -0.10237604555E+02  0.52230683150E+01  0.17231704370E+03  0.17120000000E+03 0.  0.
        998    1    1    2    0    0  0.15603177798E+01 -0.42321713149E-01  0.14587061561E+04  0.14587412677E+04  0.10000000000E+02 0. -1.
</event>
<event>
 5    1  0.1252945E-008  0.3835184E+03  0.7957747E-01  0.3435980E+00
         13   -1    0    0    0    0  0.00000000000E+00  0.00000000000E+00  0.14999999963E+04  0.15000000000E+04  0.10566000000E+00 0.  1.
        994   -1    0    0    0    0 -0.00000000000E+00 -0.00000000000E+00  0.11368683772E-12  0.17120000000E+03  0.17120000000E+03 0.  0.
         13    1    1    2    0    0 -0.21001524999E+02  0.35016985320E+01  0.12233043833E+03  0.12416953431E+03  0.10566000000E+00 0.  1.
        994    1    1    2    0    0 -0.20377053853E+02 -0.45430382569E+01  0.38091804481E+01  0.17251032832E+03  0.17120000000E+03 0.  0.
        998    1    1    2    0    0  0.41378578852E+02  0.10413397248E+01  0.13738603775E+04  0.13745201374E+04  0.10000000000E+02 0.  1.
</event>
<event>
 5    1  0.1252945E-008  0.3827631E+03  0.7957747E-01  0.3439215E+00
         13   -1    0    0    0    0  0.00000000000E+00  0.00000000000E+00  0.14999999963E+04  0.15000000000E+04  0.10566000000E+00 0.  1.
        994   -1    0    0    0    0 -0.00000000000E+00 -0.00000000000E+00  0.11368683772E-12  0.17120000000E+03  0.17120000000E+03 0.  0.
         13    1    1    2    0    0 -0.42125001500E+01 -0.17549180071E+02  0.69764164665E+02  0.72060868120E+02  0.10566000000E+00 0.  1.
        994    1    1    2    0    0  0.15168675521E+02 -0.25338606901E+02  0.56392677170E+01  0.17381995011E+03  0.17120000000E+03 0.  0.
        998    1    1    2    0    0 -0.10956175371E+02  0.42887786972E+02  0.14245965639E+04  0.14253191818E+04  0.10000000000E+02 0.  1.
</event>
<event>
 5    1  0.1252945E-008  0.3842162E+03  0.7957747E-01  0.3433003E+00
         13   -1    0    0    0    0  0.00000000000E+00  0.00000000000E+00  0.14999999963E+04  0.15000000000E+04  0.10566000000E+00 0.  1.
        994   -1    0    0    0    0 -0.00000000000E+00 -0.00000000000E+00  0.11368683772E-12  0.17120000000E+03  0.17120000000E+03 0.  0.
         13    1    1    2    0    0 -0.12525061972E+02  0.23597210750E+02  0.15810351595E+03  0.16034474876E+03  0.10566000000E+00 0.  1.
        994    1    1    2    0    0  0.20686973317E+01 -0.31352406366E+02  0.52815968346E+01  0.17413956517E+03  0.17120000000E+03 0.  0.
        998    1    1    2    0    0  0.10456364640E+02  0.77551956163E+01  0.13366148835E+04  0.13367156861E+04  0.10000000000E+02 0.  1.
</event>
<event>
 5    1  0.1252945E-008  0.3866300E+03  0.7957747E-01  0.3422788E+00
         13   -1    0    0    0    0  0.00000000000E+00  0.00000000000E+00  0.14999999963E+04  0.15000000000E+04  0.10566000000E+00 0.  1.
        994   -1    0    0    0    0 -0.00000000000E+00 -0.00000000000E+00  0.11368683772E-12  0.17120000000E+03  0.17120000000E+03 0.  0.
         13    1    1    2    0    0  0.47806088156E+02 -0.64397480316E+02  0.13980268983E+03  0.16117462823E+03  0.10566000000E+00 0.  1.
        994    1    1    2    0    0 -0.57965308903E+02  0.58158635215E+02  0.45516715539E+02  0.19525269596E+03  0.17120000000E+03 0.  0.
        998    1    1    2    0    0  0.10159220747E+02  0.62388451013E+01  0.13146805909E+04  0.13147726758E+04  0.10000000000E+02 0.  1.
</event>
<event>
 5    1  0.1252945E-008  0.3848054E+03  0.7957747E-01  0.3430498E+00
         13   -1    0    0    0    0  0.00000000000E+00  0.00000000000E+00  0.14999999963E+04  0.15000000000E+04  0.10566000000E+00 0. -1.
        994   -1    0    0    0    0 -0.00000000000E+00 -0.00000000000E+00  0.11368683772E-12  0.17120000000E+03  0.17120000000E+03 0.  0.
         13    1    1    2    0    0  0.59106602083E+01 -0.15503912711E+02  0.79451849069E+02  0.81165970074E+02  0.10566000000E+00 0. -1.
        994    1    1    2    0    0 -0.41082127106E+01  0.10347762462E+02  0.21347976813E+01  0.17157491355E+03  0.17120000000E+03 0.  0.
        998    1    1    2    0    0 -0.18024474977E+01  0.51561502497E+01  0.14184133495E+04  0.14184591164E+04  0.10000000000E+02 0. -1.
</event>
<event>
 5    1  0.1252945E-008  0.3711885E+03  0.7957747E-01  0.3490446E+00
         13   -1    0    0    0    0  0.00000000000E+00  0.00000000000E+00  0.14999999963E+04  0.15000000000E+04  0.10566000000E+00 0. -1.
        994   -1    0    0    0    0 -0.00000000000E+00 -0.00000000000E+00  0.11368683772E-12  0.17120000000E+03  0.17120000000E+03 0.  0.
         13    1    1    2    0    0  0.52054602936E+02 -0.21100446979E+02  0.20992693974E+03  0.21731139349E+03  0.10566000000E+00 0. -1.
        994    1    1    2    0    0 -0.75277581323E+01 -0.48195680508E+01  0.89243165739E+01  0.17166531043E+03  0.17120000000E+03 0.  0.
        998    1    1    2    0    0 -0.44526844804E+02  0.25920015030E+02  0.12811487400E+04  0.12822232961E+04  0.10000000000E+02 0. -1.
</event>
<event>
 5    1  0.1252945E-008  0.3816085E+03  0.7957747E-01  0.3444184E+00
         13   -1    0    0    0    0  0.00000000000E+00  0.00000000000E+00  0.14999999963E+04  0.15000000000E+04  0.10566000000E+00 0. -1.
        994   -1    0    0    0    0 -0.00000000000E+00 -0.00000000000E+00  0.11368683772E-12  0.17120000000E+03  0.17120000000E+03 0.  0.
         13    1    1    2    0    0 -0.17839007145E+02  0.36524634517E+01  0.48374309240E+02  0.51688060746E+02  0.10566000000E+00 0. -1.
        994    1    1    2    0    0  0.13610688571E+02 -0.19110762147E+01  0.39517812836E+01  0.17179627362E+03  0.17120000000E+03 0.  0.
        998    1    1    2    0    0  0.42283185746E+01 -0.17413872370E+01  0.14476739058E+04  0.14477156656E+04  0.10000000000E+02 0. -1.
</event>
<event>
 5    1  0.1252945E-008  0.3830881E+03  0.7957747E-01  0.3437821E+00
         13   -1    0    0    0    0  0.00000000000E+00  0.00000000000E+00  0.14999999963E+04  0.15000000000E+04  0.10566000000E+00 0.  1.
        994   -1    0    0    0    0 -0.00000000000E+00 -0.00000000000E+00  0.11368683772E-12  0.17120000000E+03  0.17120000000E+03 0.  0.
         13    1    1    2    0    0 -0.24112110290E+01  0.13799008458E+02  0.38398971558E+02  0.40874426648E+02  0.10566000000E+00 0.  1.
        994    1    1    2    0    0  0.24261112251E+01 -0.10698507189E+01  0.26056039855E+01  0.17124035672E+03  0.17120000000E+03 0.  0.
        998    1    1    2    0    0 -0.14900196070E-01 -0.12729157739E+02  0.14589954207E+04  0.14590852166E+04  0.10000000000E+02 0.  1.
</event>
<event>
 5    1  0.1252945E-008  0.3781695E+03  0.7957747E-01  0.3459168E+00
         13   -1    0    0    0    0  0.00000000000E+00  0.00000000000E+00  0.14999999963E+04  0.15000000000E+04  0.10566000000E+00 0.  1.
        994   -1    0    0    0    0 -0.00000000000E+00 -0.00000000000E+00  0.11368683772E-12  0.17120000000E+03  0.17120000000E+03 0.  0.
         13    1    1    2    0    0  0.10021090895E+02  0.11183150089E+02  0.19779351164E+02  0.24833827839E+02  0.10566000000E+00 0.  1.
        994    1    1    2    0    0 -0.10859801903E+02 -0.13714981062E+02  0.60900026112E+01  0.17219919900E+03  0.17120000000E+03 0.  0.
        998    1    1    2    0    0  0.83871100803E+00  0.25318309725E+01  0.14741306425E+04  0.14741669732E+04  0.10000000000E+02 0.  1.
</event>
<event>
 5    1  0.1252945E-008  0.3732748E+03  0.7957747E-01  0.3480974E+00
         13   -1    0    0    0    0  0.00000000000E+00  0.00000000000E+00  0.14999999963E+04  0.15000000000E+04  0.10566000000E+00 0.  1.
        994   -1    0    0    0    0 -0.00000000000E+00 -0.00000000000E+00  0.11368683772E-12  0.17120000000E+03  0.17120000000E+03 0.  0.
         13    1    1    2    0    0  0.14174215993E+03 -0.16978719737E+03  0.88568480100E+03  0.91288340448E+03  0.10566000000E+00 0.  1.
        994    1    1    2    0    0 -0.13895399649E+03  0.17401849662E+03  0.20232195454E+03  0.34617085897E+03  0.17120000000E+03 0.  0.
        998    1    1    2    0    0 -0.27881634321E+01 -0.42312992518E+01  0.41199324073E+03  0.41214573655E+03  0.10000000000E+02 0.  0.
</event>
<event>
 5    1  0.1252945E-008  0.3809564E+03  0.7957747E-01  0.3447005E+00
         13   -1    0    0    0    0  0.00000000000E+00  0.00000000000E+00  0.14999999963E+04  0.15000000000E+04  0.10566000000E+00 0.  1.
        994   -1    0    0    0    0 -0.00000000000E+00 -0.00000000000E+00  0.11368683772E-12  0.17120000000E+03  0.17120000000E+03 0.  0.
         13    1    1    2    0    0 -0.27758012251E+02 -0.27361412023E+01  0.10954742664E+03  0.11304266257E+03  0.10566000000E+00 0.  1.
        994    1    1    2    0    0  0.10332538488E+02 -0.25539734816E+01  0.40287262271E+01  0.17157783880E+03  0.17120000000E+03 0.  0.
        998    1    1    2    0    0  0.17425473763E+02  0.52901146839E+01  0.13864238434E+04  0.13865794986E+04  0.10000000000E+02 0.  1.
</event>
<event>
 5    1  0.1252945E-008  0.3814490E+03  0.7957747E-01  0.3444873E+00
         13   -1    0    0    0    0  0.00000000000E+00  0.00000000000E+00  0.14999999963E+04  0.15000000000E+04  0.10566000000E+00 0. -1.
        994   -1    0    0    0    0 -0.00000000000E+00 -0.00000000000E+00  0.11368683772E-12  0.17120000000E+03  0.17120000000E+03 0.  0.
         13    1    1    2    0    0 -0.36043409331E+01  0.11341996817E+02  0.19521073914E+02  0.22862975662E+02  0.10566000000E+00 0. -1.
        994    1    1    2    0    0 -0.12853405652E+02 -0.11036443213E+02  0.43589538797E+01  0.17209141058E+03  0.17120000000E+03 0.  0.
        998    1    1    2    0    0  0.16457746585E+02 -0.30555360364E+00  0.14761199685E+04  0.14762456138E+04  0.10000000000E+02 0. -1.
</event>
<event>
 5    1  0.1252945E-008  0.3835816E+03  0.7957747E-01  0.3435710E+00
         13   -1    0    0    0    0  0.00000000000E+00  0.00000000000E+00  0.14999999963E+04  0.15000000000E+04  0.10566000000E+00 0. -1.
        994   -1    0    0    0    0 -0.00000000000E+00 -0.00000000000E+00  0.11368683772E-12  0.17120000000E+03  0.17120000000E+03 0.  0.
         13    1    1    2    0    0  0.20468303086E+01 -0.13451300697E+02  0.39449663782E+02  0.41730254508E+02  0.10566000000E+00 0. -1.
        994    1    1    2    0    0  0.17537275986E+01  0.66115102812E+01  0.24905663784E+01  0.17135469223E+03  0.17120000000E+03 0.  0.
        998    1    1    2    0    0 -0.38005579072E+01  0.68397904160E+01  0.14580597661E+04  0.14581150533E+04  0.10000000000E+02 0. -1.
</event>
<event>
 5    1  0.1252945E-008  0.3862144E+03  0.7957747E-01  0.3424538E+00
         13   -1    0    0    0    0  0.00000000000E+00  0.00000000000E+00  0.14999999963E+04  0.15000000000E+04  0.10566000000E+00 0. -1.
        994   -1    0    0    0    0 -0.00000000000E+00 -0.00000000000E+00  0.11368683772E-12  0.17120000000E+03  0.17120000000E+03 0.  0.
         13    1    1    2    0    0  0.39117362026E+01  0.10114349460E+02  0.55234958827E+02  0.56289551302E+02  0.10566000000E+00 0. -1.
        994    1    1    2    0    0 -0.44627421632E+01 -0.13519607083E+02  0.16926637526E+01  0.17179930429E+03  0.17120000000E+03 0.  0.
        998    1    1    2    0    0  0.55100596055E+00  0.34052576229E+01  0.14430723737E+04  0.14431111444E+04  0.10000000000E+02 0. -1.
</event>
<event>
 5    1  0.1252945E-008  0.3775691E+03  0.7957747E-01  0.3461812E+00
         13   -1    0    0    0    0  0.00000000000E+00  0.00000000000E+00  0.14999999963E+04  0.15000000000E+04  0.10566000000E+00 0. -1.
        994   -1    0    0    0    0 -0.00000000000E+00 -0.00000000000E+00  0.11368683772E-12  0.17120000000E+03  0.17120000000E+03 0.  0.
         13    1    1    2    0    0  0.84289852059E+02  0.16241089283E+02  0.48961255210E+03  0.49708049094E+03  0.10566000000E+00 0. -1.
        994    1    1    2    0    0 -0.78530745281E+02 -0.16406707256E+02  0.27372150135E+02  0.19103646929E+03  0.17120000000E+03 0.  0.
        998    1    1    2    0    0 -0.57591067777E+01  0.16561797263E+00  0.98301529404E+03  0.98308303976E+03  0.10000000000E+02 0. -1.
</event>
<event>
 5    1  0.1252945E-008  0.3705175E+03  0.7957747E-01  0.3493516E+00
         13   -1    0    0    0    0  0.00000000000E+00  0.00000000000E+00  0.14999999963E+04  0.15000000000E+04  0.10566000000E+00 0.  1.
        994   -1    0    0    0    0 -0.00000000000E+00 -0.00000000000E+00  0.11368683772E-12  0.17120000000E+03  0.17120000000E+03 0.  0.
         13    1    1    2    0    0 -0.73360160644E+02  0.14279377211E+02  0.32539630163E+03  0.33386880366E+03  0.10566000000E+00 0.  1.
        994    1    1    2    0    0  0.38248142131E+02  0.11177731520E+02  0.14499218817E+02  0.17637326726E+03  0.17120000000E+03 0.  0.
        998    1    1    2    0    0  0.35112018512E+02 -0.25457108732E+02  0.11601044758E+04  0.11609579291E+04  0.10000000000E+02 0.  1.
</event>
<event>
 5    1  0.1252945E-008  0.3809265E+03  0.7957747E-01  0.3447134E+00
         13   -1    0    0    0    0  0.00000000000E+00  0.00000000000E+00  0.14999999963E+04  0.15000000000E+04  0.10566000000E+00 0.  1.
        994   -1    0    0    0    0 -0.00000000000E+00 -0.00000000000E+00  0.11368683772E-12  0.17120000000E+03  0.17120000000E+03 0.  0.
         13    1    1    2    0    0 -0.16871408984E+02  0.39986808472E+01  0.42877470620E+02  0.46250649081E+02  0.10566000000E+00 0.  1.
        994    1    1    2    0    0 -0.82431861261E+01  0.72366552742E+01  0.40672807801E+01  0.17159924845E+03  0.17120000000E+03 0.  0.
        998    1    1    2    0    0  0.25114595110E+02 -0.11235336121E+02  0.14530552449E+04  0.14533501025E+04  0.10000000000E+02 0.  1.
</event>
<event>
 5    1  0.1252945E-008  0.3846384E+03  0.7957747E-01  0.3431207E+00
         13   -1    0    0    0    0  0.00000000000E+00  0.00000000000E+00  0.14999999963E+04  0.15000000000E+04  0.10566000000E+00 0.  1.
        994   -1    0    0    0    0 -0.00000000000E+00 -0.00000000000E+00  0.11368683772E-12  0.17120000000E+03  0.17120000000E+03 0.  0.
         13    1    1    2    0    0 -0.13922417551E+02  0.15540365697E+02  0.12074978084E+03  0.12253920766E+03  0.10566000000E+00 0.  1.
        994    1    1    2    0    0 -0.16286780563E+02 -0.34132918601E+02  0.65333260561E+01  0.17544925107E+03  0.17120000000E+03 0.  0.
        998    1    1    2    0    0  0.30209198114E+02  0.18592552904E+02  0.13727168894E+04  0.13732115413E+04  0.10000000000E+02 0.  1.
</event>
<event>
 5    1  0.1252945E-008  0.3841673E+03  0.7957747E-01  0.3433212E+00
         13   -1    0    0    0    0  0.00000000000E+00  0.00000000000E+00  0.14999999963E+04  0.15000000000E+04  0.10566000000E+00 0. -1.
        994   -1    0    0    0    0 -0.00000000000E+00 -0.00000000000E+00  0.11368683772E-12  0.17120000000E+03  0.17120000000E+03 0.  0.
         13    1    1    2    0    0  0.11448908821E+02 -0.17633039250E+01  0.33081890355E+02  0.35051524752E+02  0.10566000000E+00 0. -1.
        994    1    1    2    0    0 -0.19455772312E+01  0.20336429771E+01  0.20702617265E+01  0.17123564745E+03  0.17120000000E+03 0.  0.
        998    1    1    2    0    0 -0.95033315900E+01 -0.27033905211E+00  0.14648478442E+04  0.14649128278E+04  0.10000000000E+02 0. -1.
</event>
<event>
 5    1  0.1252945E-008  0.3843516E+03  0.7957747E-01  0.3432427E+00
         13   -1    0    0    0    0  0.00000000000E+00  0.00000000000E+00  0.14999999963E+04  0.15000000000E+04  0.10566000000E+00 0.  1.
        994   -1    0    0    0    0 -0.00000000000E+00 -0.00000000000E+00  0.11368683772E-12  0.17120000000E+03  0.17120000000E+03 0.  0.
         13    1    1    2    0    0 -0.58576815471E+02 -0.17312008801E+02  0.10326853765E+03  0.11998062757E+03  0.10566000000E+00 0.  1.
        994    1    1    2    0    0 -0.27734782428E+02  0.11162192356E+03  0.69256561912E+02  0.21756512437E+03  0.17120000000E+03 0.  0.
        998    1    1    2    0    0  0.86311597899E+02 -0.94309914757E+02  0.13274748967E+04  0.13336542481E+04  0.10000000000E+02 0.  1.
</event>
<event>
 5    1  0.1252945E-008  0.3853614E+03  0.7957747E-01  0.3428141E+00
         13   -1    0    0    0    0  0.00000000000E+00  0.00000000000E+00  0.14999999963E+04  0.15000000000E+04  0.10566000000E+00 0.  1.
        994   -1    0    0    0    0 -0.00000000000E+00 -0.00000000000E+00  0.11368683772E-12  0.17120000000E+03  0.17120000000E+03 0.  0.
         13    1    1    2    0    0 -0.12924604466E+02 -0.96324082087E+01  0.81895908312E+02  0.83467236990E+02  0.10566000000E+00 0.  1.
        994    1    1    2    0    0  0.15124287187E+02  0.18361520927E+02  0.33118424507E+01  0.17287653922E+03  0.17120000000E+03 0.  0.
        998    1    1    2    0    0 -0.21996827208E+01 -0.87291127186E+01  0.14147922455E+04  0.14148562238E+04  0.10000000000E+02 0.  1.
</event>
<event>
 5    1  0.1252945E-008  0.3822531E+03  0.7957747E-01  0.3441406E+00
         13   -1    0    0    0    0  0.00000000000E+00  0.00000000000E+00  0.14999999963E+04  0.15000000000E+04  0.10566000000E+00 0. -1.
        994   -1    0    0    0    0 -0.00000000000E+00 -0.00000000000E+00  0.11368683772E-12  0.17120000000E+03  0.17120000000E+03 0.  0.
         13    1    1    2    0    0  0.21116074303E+03  0.96678012633E+02  0.11396510545E+04  0.11630735293E+04  0.10566000000E+00 0. -1.
        994    1    1    2    0    0 -0.20775513544E+03 -0.10079203988E+03  0.20669036051E+03  0.35405024606E+03  0.17120000000E+03 0.  0.
        998    1    1    2    0    0 -0.34056075928E+01  0.41140272480E+01  0.15365858129E+03  0.15407622461E+03  0.10000000000E+02 0.  0.
</event>
<event>
 5    1  0.1252945E-008  0.3775036E+03  0.7957747E-01  0.3462101E+00
         13   -1    0    0    0    0  0.00000000000E+00  0.00000000000E+00  0.14999999963E+04  0.15000000000E+04  0.10566000000E+00 0. -1.
        994   -1    0    0    0    0 -0.00000000000E+00 -0.00000000000E+00  0.11368683772E-12  0.17120000000E+03  0.17120000000E+03 0.  0.
         13    1    1    2    0    0  0.57801209145E+01  0.10773841745E+02  0.11455542608E+02  0.16754882399E+02  0.10566000000E+00 0. -1.
        994    1    1    2    0    0 -0.42987007012E+01 -0.72364882768E+01  0.56374778572E+01  0.17149946573E+03  0.17120000000E+03 0.  0.
        998    1    1    2    0    0 -0.14814202133E+01 -0.35373534685E+01  0.14829069758E+04  0.14829456519E+04  0.10000000000E+02 0. -1.
</event>
<event>
 5    1  0.1252945E-008  0.3850744E+03  0.7957747E-01  0.3429357E+00
         13   -1    0    0    0    0  0.00000000000E+00  0.00000000000E+00  0.14999999963E+04  0.15000000000E+04  0.10566000000E+00 0.  1.
        994   -1    0    0    0    0 -0.00000000000E+00 -0.00000000000E+00  0.11368683772E-12  0.17120000000E+03  0.17120000000E+03 0.  0.
         13    1    1    2    0    0 -0.12573248582E+02  0.30733488277E+01  0.45988117291E+02  0.47774995018E+02  0.10566000000E+00 0.  1.
        994    1    1    2    0    0  0.29611859698E+02 -0.21930875448E+02  0.60703260780E+01  0.17522589532E+03  0.17120000000E+03 0.  0.
        998    1    1    2    0    0 -0.17038611116E+02  0.18857526621E+02  0.14479415529E+04  0.14481991097E+04  0.10000000000E+02 0.  1.
</event>
<event>
 5    1  0.1252945E-008  0.3853752E+03  0.7957747E-01  0.3428082E+00
         13   -1    0    0    0    0  0.00000000000E+00  0.00000000000E+00  0.14999999963E+04  0.15000000000E+04  0.10566000000E+00 0. -1.
        994   -1    0    0    0    0 -0.00000000000E+00 -0.00000000000E+00  0.11368683772E-12  0.17120000000E+03  0.17120000000E+03 0.  0.
         13    1    1    2    0    0 -0.69963231022E+01  0.95959495843E+01  0.50535078064E+02  0.51911810452E+02  0.10566000000E+00 0. -1.
        994    1    1    2    0    0  0.58229360288E+01  0.86726353028E+00  0.15578170696E+01  0.17130827629E+03  0.17120000000E+03 0.  0.
        998    1    1    2    0    0  0.11733870734E+01 -0.10463213115E+02  0.14479071011E+04  0.14479799133E+04  0.10000000000E+02 0. -1.
</event>
<event>
 5    1  0.1252945E-008  0.3755198E+03  0.7957747E-01  0.3470901E+00
         13   -1    0    0    0    0  0.00000000000E+00  0.00000000000E+00  0.14999999963E+04  0.15000000000E+04  0.10566000000E+00 0. -1.
        994   -1    0    0    0    0 -0.00000000000E+00 -0.00000000000E+00  0.11368683772E-12  0.17120000000E+03  0.17120000000E+03 0.  0.
         13    1    1    2    0    0 -0.61245288347E+02 -0.56222715568E+01  0.14988508296E+03  0.16201279128E+03  0.10566000000E+00 0. -1.
        994    1    1    2    0    0  0.94342597578E+01 -0.37936437865E+02  0.19355493627E+02  0.17666990040E+03  0.17120000000E+03 0.  0.
        998    1    1    2    0    0  0.51811028589E+02  0.43558709422E+02  0.13307594197E+04  0.13325173083E+04  0.10000000000E+02 0. -1.
</event>
<event>
 5    1  0.1410078E-008  0.3863148E+03  0.7957747E-01  0.3424115E+00
         13   -1    0    0    0    0  0.00000000000E+00  0.00000000000E+00  0.14999999963E+04  0.15000000000E+04  0.10566000000E+00 0.  1.
        994   -1    0    0    0    0 -0.00000000000E+00 -0.00000000000E+00  0.11368683772E-12  0.17120000000E+03  0.17120000000E+03 0.  0.
         13    1    1    2    0    0  0.10191084986E+02  0.18651442222E+01  0.56193453501E+02  0.57140636649E+02  0.10566000000E+00 0.  1.
        994    1    1    2    0    0 -0.56732710152E+01 -0.26512774329E+01  0.11071941595E+01  0.17131807014E+03  0.17120000000E+03 0.  0.
        998    1    1    2    0    0 -0.45178139704E+01  0.78613321072E+00  0.14426993486E+04  0.14427412932E+04  0.10000000000E+02 0.  1.
</event>
<event>
 5    1  0.2384955E-008  0.3865493E+03  0.7957747E-01  0.3423128E+00
         13   -1    0    0    0    0  0.00000000000E+00  0.00000000000E+00  0.14999999963E+04  0.15000000000E+04  0.10566000000E+00 0. -1.
        994   -1    0    0    0    0 -0.00000000000E+00 -0.00000000000E+00  0.11368683772E-12  0.17120000000E+03  0.17120000000E+03 0.  0.
         13    1    1    2    0    0  0.84191981096E+01  0.55685415072E+01  0.60786713566E+02  0.61619211790E+02  0.10566000000E+00 0. -1.
        994    1    1    2    0    0 -0.47782259610E+01 -0.37307779232E+01  0.98316035086E+00  0.17131011865E+03  0.17120000000E+03 0.  0.
        998    1    1    2    0    0 -0.36409721486E+01 -0.18377635839E+01  0.14382301224E+04  0.14382706696E+04  0.10000000000E+02 0. -1.
</event>
<event>
 5    1  0.1252945E-008  0.4096612E+03  0.7957747E-01  0.3331373E+00
         13   -1    0    0    0    0  0.00000000000E+00  0.00000000000E+00  0.14999999963E+04  0.15000000000E+04  0.10566000000E+00 0.  1.
        994   -1    0    0    0    0 -0.00000000000E+00 -0.00000000000E+00  0.11368683772E-12  0.17120000000E+03  0.17120000000E+03 0.  0.
         13    1    1    2    0    0  0.27171733959E+02 -0.93960748131E+02  0.12156011472E+03  0.15602499149E+03  0.10566000000E+00 0.  1.
        994    1    1    2    0    0 -0.29897374256E+02  0.92914237253E+02  0.73709500420E+02  0.21040303925E+03  0.17120000000E+03 0.  0.
        998    1    1    2    0    0  0.27256402972E+01  0.10465108771E+01  0.13047303811E+04  0.13047719693E+04  0.10000000000E+02 0.  1.
</event>
<event>
 5    1  0.1252945E-008  0.3749659E+03  0.7957747E-01  0.3473375E+00
         13   -1    0    0    0    0  0.00000000000E+00  0.00000000000E+00  0.14999999963E+04  0.15000000000E+04  0.10566000000E+00 0. -1.
        994   -1    0    0    0    0 -0.00000000000E+00 -0.00000000000E+00  0.11368683772E-12  0.17120000000E+03  0.17120000000E+03 0.  0.
         13    1    1    2    0    0 -0.62993216243E+02  0.76543848181E+01  0.26729639698E+03  0.27472551738E+03  0.10566000000E+00 0. -1.
        994    1    1    2    0    0  0.50023522167E+02 -0.25306770958E+02  0.17456476539E+02  0.18098882286E+03  0.17120000000E+03 0.  0.
        998    1    1    2    0    0  0.12969694076E+02  0.17652386140E+02  0.12152471228E+04  0.12154856598E+04  0.10000000000E+02 0. -1.
</event>
<event>
 5    1  0.5344411E-008  0.3865270E+03  0.7957747E-01  0.3423222E+00
         13   -1    0    0    0    0  0.00000000000E+00  0.00000000000E+00  0.14999999963E+04  0.15000000000E+04  0.10566000000E+00 0.  1.
        994   -1    0    0    0    0 -0.00000000000E+00 -0.00000000000E+00  0.11368683772E-12  0.17120000000E+03  0.17120000000E+03 0.  0.
         13    1    1    2    0    0  0.10409715380E+02  0.11854236802E+01  0.62369142856E+02  0.63243090913E+02  0.10566000000E+00 0.  1.
        994    1    1    2    0    0 -0.10588619010E+02 -0.18300306588E-01  0.12408653277E+01  0.17153162663E+03  0.17120000000E+03 0.  0.
        998    1    1    2    0    0  0.17890362936E+00 -0.11671233736E+01  0.14363899881E+04  0.14364252825E+04  0.10000000000E+02 0.  1.
</event>
<event>
 5    1  0.1252945E-008  0.3817252E+03  0.7957747E-01  0.3443681E+00
         13   -1    0    0    0    0  0.00000000000E+00  0.00000000000E+00  0.14999999963E+04  0.15000000000E+04  0.10566000000E+00 0. -1.
        994   -1    0    0    0    0 -0.00000000000E+00 -0.00000000000E+00  0.11368683772E-12  0.17120000000E+03  0.17120000000E+03 0.  0.
         13    1    1    2    0    0  0.79189476409E+01 -0.85073258150E+01  0.19160917368E+02  0.22410627896E+02  0.10566000000E+00 0. -1.
        994    1    1    2    0    0 -0.64841908066E+01  0.10509857464E+02  0.37718625232E+01  0.17168625100E+03  0.17120000000E+03 0.  0.
        998    1    1    2    0    0 -0.14347568342E+01 -0.20025316488E+01  0.14770672164E+04  0.14771031211E+04  0.10000000000E+02 0. -1.
</event>
<event>
 5    1  0.1252945E-008  0.3774167E+03  0.7957747E-01  0.3462484E+00
         13   -1    0    0    0    0  0.00000000000E+00  0.00000000000E+00  0.14999999963E+04  0.15000000000E+04  0.10566000000E+00 0. -1.
        994   -1    0    0    0    0 -0.00000000000E+00 -0.00000000000E+00  0.11368683772E-12  0.17120000000E+03  0.17120000000E+03 0.  0.
         13    1    1    2    0    0  0.10499197405E+02  0.16379166976E+02  0.31844618663E+02  0.37317571716E+02  0.10566000000E+00 0. -1.
        994    1    1    2    0    0 -0.21026008189E+02 -0.11343828956E+02  0.73697618191E+01  0.17301597864E+03  0.17120000000E+03 0.  0.
        998    1    1    2    0    0  0.10526810784E+02 -0.50353380192E+01  0.14607856158E+04  0.14608664496E+04  0.10000000000E+02 0. -1.
</event>
<event>
 5    1  0.1252945E-008  0.3852281E+03  0.7957747E-01  0.3428705E+00
         13   -1    0    0    0    0  0.00000000000E+00  0.00000000000E+00  0.14999999963E+04  0.15000000000E+04  0.10566000000E+00 0. -1.
        994   -1    0    0    0    0 -0.00000000000E+00 -0.00000000000E+00  0.11368683772E-12  0.17120000000E+03  0.17120000000E+03 0.  0.
         13    1    1    2    0    0  0.28210375791E+01  0.13805953702E+02  0.67503308319E+02  0.68958468724E+02  0.10566000000E+00 0. -1.
        994    1    1    2    0    0  0.20023632114E+01 -0.55631232372E+01  0.16318091752E+01  0.17130983801E+03  0.17120000000E+03 0.  0.
        998    1    1    2    0    0 -0.48234007905E+01 -0.82428304649E+01  0.14308648788E+04  0.14309316933E+04  0.10000000000E+02 0. -1.
</event>
<event>
 5    1  0.1252945E-008  0.3787410E+03  0.7957747E-01  0.3456659E+00
         13   -1    0    0    0    0  0.00000000000E+00  0.00000000000E+00  0.14999999963E+04  0.15000000000E+04  0.10566000000E+00 0. -1.
        994   -1    0    0    0    0 -0.00000000000E+00 -0.00000000000E+00  0.11368683772E-12  0.17120000000E+03  0.17120000000E+03 0.  0.
         13    1    1    2    0    0  0.44608120791E+02  0.15678522609E+02  0.63595600170E+02  0.79247157910E+02  0.10566000000E+00 0. -1.
        994    1    1    2    0    0 -0.40657623666E+02 -0.20990533190E+02  0.23227353585E+02  0.17872491377E+03  0.17120000000E+03 0.  0.
        998    1    1    2    0    0 -0.39504971250E+01  0.53120105815E+01  0.14131770425E+04  0.14132279283E+04  0.10000000000E+02 0. -1.
</event>
<event>
 5    1  0.1252945E-008  0.3842007E+03  0.7957747E-01  0.3433069E+00
         13   -1    0    0    0    0  0.00000000000E+00  0.00000000000E+00  0.14999999963E+04  0.15000000000E+04  0.10566000000E+00 0. -1.
        994   -1    0    0    0    0 -0.00000000000E+00 -0.00000000000E+00  0.11368683772E-12  0.17120000000E+03  0.17120000000E+03 0.  0.
         13    1    1    2    0    0  0.14290130616E+02  0.20071505651E+02  0.12963425003E+03  0.13195500414E+03  0.10566000000E+00 0. -1.
        994    1    1    2    0    0 -0.12414998494E+02 -0.31721262436E+02  0.58628810789E+01  0.17465447046E+03  0.17120000000E+03 0.  0.
        998    1    1    2    0    0 -0.18751321222E+01  0.11649756785E+02  0.13645028652E+04  0.13645905254E+04  0.10000000000E+02 0. -1.
</event>
<event>
 5    1  0.1252945E-008  0.3833991E+03  0.7957747E-01  0.3436490E+00
         13   -1    0    0    0    0  0.00000000000E+00  0.00000000000E+00  0.14999999963E+04  0.15000000000E+04  0.10566000000E+00 0. -1.
        994   -1    0    0    0    0 -0.00000000000E+00 -0.00000000000E+00  0.11368683772E-12  0.17120000000E+03  0.17120000000E+03 0.  0.
         13    1    1    2    0    0 -0.31092108115E+02 -0.26998278475E+02  0.23929737282E+03  0.24281447657E+03  0.10566000000E+00 0. -1.
        994    1    1    2    0    0  0.30356494188E+02  0.62701700214E+02  0.18638923786E+02  0.18576832192E+03  0.17120000000E+03 0.  0.
        998    1    1    2    0    0  0.73561392750E+00 -0.35703421739E+02  0.12420636997E+04  0.12426172015E+04  0.10000000000E+02 0. -1.
</event>
<event>
 5    1  0.1252945E-008  0.3759388E+03  0.7957747E-01  0.3469035E+00
         13   -1    0    0    0    0  0.00000000000E+00  0.00000000000E+00  0.14999999963E+04  0.15000000000E+04  0.10566000000E+00 0. -1.
        994   -1    0    0    0    0 -0.00000000000E+00 -0.00000000000E+00  0.11368683772E-12  0.17120000000E+03  0.17120000000E+03 0.  0.
         13    1    1    2    0    0 -0.59257928870E+02  0.35120654208E+02  0.22972055978E+03  0.23982599783E+03  0.10566000000E+00 0. -1.
        994    1    1    2    0    0 -0.27512305930E+02  0.62086755055E+01  0.16959453365E+02  0.17433455678E+03  0.17120000000E+03 0.  0.
        998    1    1    2    0    0  0.86770234800E+02 -0.41329329713E+02  0.12533199831E+04  0.12570394454E+04  0.10000000000E+02 0. -1.
</event>
<event>
 5    1  0.1252945E-008  0.3828617E+03  0.7957747E-01  0.3438792E+00
         13   -1    0    0    0    0  0.00000000000E+00  0.00000000000E+00  0.14999999963E+04  0.15000000000E+04  0.10566000000E+00 0.  1.
        994   -1    0    0    0    0 -0.00000000000E+00 -0.00000000000E+00  0.11368683772E-12  0.17120000000E+03  0.17120000000E+03 0.  0.
         13    1    1    2    0    0 -0.43799616632E+01  0.18227302762E+02  0.67653817820E+02  0.70203054490E+02  0.10566000000E+00 0.  1.
        994    1    1    2    0    0 -0.20414382827E+01 -0.30783401703E+01  0.27406600460E+01  0.17126177293E+03  0.17120000000E+03 0.  0.
        998    1    1    2    0    0  0.64213999459E+01 -0.15148962591E+02  0.14296055184E+04  0.14297351726E+04  0.10000000000E+02 0.  1.
</event>
<event>
 5    1  0.1252945E-008  0.3772626E+03  0.7957747E-01  0.3463165E+00
         13   -1    0    0    0    0  0.00000000000E+00  0.00000000000E+00  0.14999999963E+04  0.15000000000E+04  0.10566000000E+00 0. -1.
        994   -1    0    0    0    0 -0.00000000000E+00 -0.00000000000E+00  0.11368683772E-12  0.17120000000E+03  0.17120000000E+03 0.  0.
         13    1    1    2    0    0 -0.97764169800E+01  0.55648293009E+02  0.25721509516E+03  0.26334754069E+03  0.10566000000E+00 0. -1.
        994    1    1    2    0    0 -0.13791124738E+02 -0.51131162536E+02  0.15041688809E+02  0.17983404379E+03  0.17120000000E+03 0.  0.
        998    1    1    2    0    0  0.23567541718E+02 -0.45171304735E+01  0.12277432123E+04  0.12280184155E+04  0.10000000000E+02 0. -1.
</event>
<event>
 5    1  0.1252945E-008  0.3833086E+03  0.7957747E-01  0.3436877E+00
         13   -1    0    0    0    0  0.00000000000E+00  0.00000000000E+00  0.14999999963E+04  0.15000000000E+04  0.10566000000E+00 0.  1.
        994   -1    0    0    0    0 -0.00000000000E+00 -0.00000000000E+00  0.11368683772E-12  0.17120000000E+03  0.17120000000E+03 0.  0.
         13    1    1    2    0    0  0.13821752338E+02 -0.89849123252E+01  0.53690950955E+02  0.56164925582E+02  0.10566000000E+00 0.  1.
        994    1    1    2    0    0 -0.11926341712E+02  0.57019092630E+01  0.30502914216E+01  0.17173669868E+03  0.17120000000E+03 0.  0.
        998    1    1    2    0    0 -0.18954106265E+01  0.32830030623E+01  0.14432587539E+04  0.14432983757E+04  0.10000000000E+02 0.  1.
</event>
<event>
 5    1  0.1252945E-008  0.2465227E+03  0.7957747E-01  0.4371558E+00
         13   -1    0    0    0    0  0.00000000000E+00  0.00000000000E+00  0.14999999963E+04  0.15000000000E+04  0.10566000000E+00 0.  1.
        994   -1    0    0    0    0 -0.00000000000E+00 -0.00000000000E+00  0.11368683772E-12  0.17120000000E+03  0.17120000000E+03 0.  0.
         13    1    1    2    0    0 -0.15140667632E+03  0.10348555575E+03  0.18380328674E+03  0.25964764829E+03  0.10566000000E+00 0.  1.
        994    1    1    2    0    0  0.13631673148E+03 -0.10019398088E+03  0.25667213777E+03  0.35186803122E+03  0.17120000000E+03 0.  0.
        998    1    1    2    0    0  0.15089944839E+02 -0.32915748652E+01  0.10595245718E+04  0.10596843205E+04  0.10000000000E+02 0.  1.
</event>
<event>
 5    1  0.1252945E-008  0.3837577E+03  0.7957747E-01  0.3434958E+00
         13   -1    0    0    0    0  0.00000000000E+00  0.00000000000E+00  0.14999999963E+04  0.15000000000E+04  0.10566000000E+00 0. -1.
        994   -1    0    0    0    0 -0.00000000000E+00 -0.00000000000E+00  0.11368683772E-12  0.17120000000E+03  0.17120000000E+03 0.  0.
         13    1    1    2    0    0  0.68456453125E+01  0.80836006765E+01  0.24018210890E+02  0.26250582432E+02  0.10566000000E+00 0. -1.
        994    1    1    2    0    0 -0.57205758756E+01 -0.81090733836E+01  0.25734216501E+01  0.17150668954E+03  0.17120000000E+03 0.  0.
        998    1    1    2    0    0 -0.11250694369E+01  0.25472707061E-01  0.14734083637E+04  0.14734427280E+04  0.10000000000E+02 0. -1.
</event>
<event>
 5    1  0.1252945E-008  0.3714288E+03  0.7957747E-01  0.3489350E+00
         13   -1    0    0    0    0  0.00000000000E+00  0.00000000000E+00  0.14999999963E+04  0.15000000000E+04  0.10566000000E+00 0.  1.
        994   -1    0    0    0    0 -0.00000000000E+00 -0.00000000000E+00  0.11368683772E-12  0.17120000000E+03  0.17120000000E+03 0.  0.
         13    1    1    2    0    0 -0.37584381127E+01 -0.95627540795E+01 -0.95343958706E+00  0.10319512281E+02  0.10566000000E+00 0.  1.
        994    1    1    2    0    0  0.97398713215E+01  0.27478418265E+01  0.12056240596E+02  0.17192210057E+03  0.17120000000E+03 0.  0.
        998    1    1    2    0    0 -0.59814332089E+01  0.68149122530E+01  0.14888971953E+04  0.14889583871E+04  0.10000000000E+02 0.  1.
</event>
<event>
 5    1  0.1252945E-008  0.3746988E+03  0.7957747E-01  0.3474571E+00
         13   -1    0    0    0    0  0.00000000000E+00  0.00000000000E+00  0.14999999963E+04  0.15000000000E+04  0.10566000000E+00 0.  1.
        994   -1    0    0    0    0 -0.00000000000E+00 -0.00000000000E+00  0.11368683772E-12  0.17120000000E+03  0.17120000000E+03 0.  0.
         13    1    1    2    0    0 -0.37743526310E+02  0.63051157841E+02  0.15488170755E+03  0.17143038465E+03  0.10566000000E+00 0.  1.
        994    1    1    2    0    0  0.62107065375E+02 -0.83647381546E+02  0.53106898219E+02  0.20732572114E+03  0.17120000000E+03 0.  0.
        998    1    1    2    0    0 -0.24363539065E+02  0.20596223705E+02  0.12920113905E+04  0.12924438942E+04  0.10000000000E+02 0.  1.
</event>
<event>
 5    1  0.1252945E-008  0.3840978E+03  0.7957747E-01  0.3433508E+00
         13   -1    0    0    0    0  0.00000000000E+00  0.00000000000E+00  0.14999999963E+04  0.15000000000E+04  0.10566000000E+00 0.  1.
        994   -1    0    0    0    0 -0.00000000000E+00 -0.00000000000E+00  0.11368683772E-12  0.17120000000E+03  0.17120000000E+03 0.  0.
         13    1    1    2    0    0 -0.16276727922E+02  0.35250252522E+00  0.67054605399E+02  0.69002807183E+02  0.10566000000E+00 0.  1.
        994    1    1    2    0    0  0.11415105547E+01  0.93352299686E+01  0.23705215229E+01  0.17147451396E+03  0.17120000000E+03 0.  0.
        998    1    1    2    0    0  0.15135217368E+02 -0.96877324939E+01  0.14305748694E+04  0.14307226789E+04  0.10000000000E+02 0.  1.
</event>
<event>
 5    1  0.1252945E-008  0.3798743E+03  0.7957747E-01  0.3451706E+00
         13   -1    0    0    0    0  0.00000000000E+00  0.00000000000E+00  0.14999999963E+04  0.15000000000E+04  0.10566000000E+00 0. -1.
        994   -1    0    0    0    0 -0.00000000000E+00 -0.00000000000E+00  0.11368683772E-12  0.17120000000E+03  0.17120000000E+03 0.  0.
         13    1    1    2    0    0 -0.27449123102E+02  0.21119137685E+02  0.14463050733E+03  0.14871942425E+03  0.10566000000E+00 0. -1.
        994    1    1    2    0    0  0.18629935811E+02 -0.35872493376E+01  0.54012807819E+01  0.17233269191E+03  0.17120000000E+03 0.  0.
        998    1    1    2    0    0  0.88191872905E+01 -0.17531888348E+02  0.13499682082E+04  0.13501478838E+04  0.10000000000E+02 0. -1.
</event>
<event>
 5    1  0.1252945E-008  0.3730035E+03  0.7957747E-01  0.3482200E+00
         13   -1    0    0    0    0  0.00000000000E+00  0.00000000000E+00  0.14999999963E+04  0.15000000000E+04  0.10566000000E+00 0. -1.
        994   -1    0    0    0    0 -0.00000000000E+00 -0.00000000000E+00  0.11368683772E-12  0.17120000000E+03  0.17120000000E+03 0.  0.
         13    1    1    2    0    0  0.14578486508E+02 -0.45715751241E+00  0.10761748742E+02  0.18126435444E+02  0.10566000000E+00 0. -1.
        994    1    1    2    0    0  0.63680374971E+01 -0.14722543994E+02  0.85885969248E+01  0.17216419256E+03  0.17120000000E+03 0.  0.
        998    1    1    2    0    0 -0.20946524005E+02  0.15179701506E+02  0.14806496506E+04  0.14809093720E+04  0.10000000000E+02 0. -1.
</event>
<event>
 5    1  0.1252945E-008  0.3840448E+03  0.7957747E-01  0.3433734E+00
         13   -1    0    0    0    0  0.00000000000E+00  0.00000000000E+00  0.14999999963E+04  0.15000000000E+04  0.10566000000E+00 0.  1.
        994   -1    0    0    0    0 -0.00000000000E+00 -0.00000000000E+00  0.11368683772E-12  0.17120000000E+03  0.17120000000E+03 0.  0.
         13    1    1    2    0    0 -0.12066002621E+02  0.40076665409E+01  0.37056968751E+02  0.39177543406E+02  0.10566000000E+00 0.  1.
        994    1    1    2    0    0  0.12762906771E+02 -0.48496010028E+01  0.27203238177E+01  0.17176510292E+03  0.17120000000E+03 0.  0.
        998    1    1    2    0    0 -0.69690414994E+00  0.84193446183E+00  0.14602227037E+04  0.14602573537E+04  0.10000000000E+02 0.  1.
</event>
<event>
 5    1  0.1252945E-008  0.3778862E+03  0.7957747E-01  0.3460414E+00
         13   -1    0    0    0    0  0.00000000000E+00  0.00000000000E+00  0.14999999963E+04  0.15000000000E+04  0.10566000000E+00 0.  1.
        994   -1    0    0    0    0 -0.00000000000E+00 -0.00000000000E+00  0.11368683772E-12  0.17120000000E+03  0.17120000000E+03 0.  0.
         13    1    1    2    0    0 -0.38834867945E+02  0.16421794572E+02  0.18159671753E+03  0.18642746924E+03  0.10566000000E+00 0.  1.
        994    1    1    2    0    0  0.18835615098E+02  0.95881645273E+01  0.67092799154E+01  0.17263014723E+03  0.17120000000E+03 0.  0.
        998    1    1    2    0    0  0.19999252847E+02 -0.26009959099E+02  0.13116939988E+04  0.13121423835E+04  0.10000000000E+02 0.  1.
</event>
<event>
 5    1  0.1252945E-008  0.3859155E+03  0.7957747E-01  0.3425799E+00
         13   -1    0    0    0    0  0.00000000000E+00  0.00000000000E+00  0.14999999963E+04  0.15000000000E+04  0.10566000000E+00 0. -1.
        994   -1    0    0    0    0 -0.00000000000E+00 -0.00000000000E+00  0.11368683772E-12  0.17120000000E+03  0.17120000000E+03 0.  0.
         13    1    1    2    0    0  0.85932969968E+01 -0.85809738093E+01  0.65817747389E+02  0.66928804712E+02  0.10566000000E+00 0. -1.
        994    1    1    2    0    0 -0.15595504997E+01  0.26557529874E+01  0.12074141944E+01  0.17123195692E+03  0.17120000000E+03 0.  0.
        998    1    1    2    0    0 -0.70337464971E+01  0.59252208219E+01  0.14329748347E+04  0.14330392384E+04  0.10000000000E+02 0. -1.
</event>
<event>
 5    1  0.1252945E-008  0.3707712E+03  0.7957747E-01  0.3492354E+00
         13   -1    0    0    0    0  0.00000000000E+00  0.00000000000E+00  0.14999999963E+04  0.15000000000E+04  0.10566000000E+00 0.  1.
        994   -1    0    0    0    0 -0.00000000000E+00 -0.00000000000E+00  0.11368683772E-12  0.17120000000E+03  0.17120000000E+03 0.  0.
         13    1    1    2    0    0 -0.19133747241E+02  0.33665372653E+02  0.83770436280E+02  0.92287348851E+02  0.10566000000E+00 0.  1.
        994    1    1    2    0    0  0.57034346046E+01 -0.15515478017E+02  0.98094004284E+01  0.17227571959E+03  0.17120000000E+03 0.  0.
        998    1    1    2    0    0  0.13430312636E+02 -0.18149894636E+02  0.14064201596E+04  0.14066369316E+04  0.10000000000E+02 0.  1.
</event>
<event>
 5    1  0.1252945E-008  0.3766686E+03  0.7957747E-01  0.3465794E+00
         13   -1    0    0    0    0  0.00000000000E+00  0.00000000000E+00  0.14999999963E+04  0.15000000000E+04  0.10566000000E+00 0.  1.
        994   -1    0    0    0    0 -0.00000000000E+00 -0.00000000000E+00  0.11368683772E-12  0.17120000000E+03  0.17120000000E+03 0.  0.
         13    1    1    2    0    0  0.44041756430E+02  0.35743832549E+02  0.99911943576E+02  0.11488997131E+03  0.10566000000E+00 0.  1.
        994    1    1    2    0    0 -0.41610303314E+02 -0.36091494189E+02  0.25451474394E+02  0.18163488333E+03  0.17120000000E+03 0.  0.
        998    1    1    2    0    0 -0.24314531161E+01  0.34766163948E+00  0.13746365783E+04  0.13746751454E+04  0.10000000000E+02 0.  1.
</event>
<event>
 5    1  0.1252945E-008  0.3804994E+03  0.7957747E-01  0.3448987E+00
         13   -1    0    0    0    0  0.00000000000E+00  0.00000000000E+00  0.14999999963E+04  0.15000000000E+04  0.10566000000E+00 0.  1.
        994   -1    0    0    0    0 -0.00000000000E+00 -0.00000000000E+00  0.11368683772E-12  0.17120000000E+03  0.17120000000E+03 0.  0.
         13    1    1    2    0    0 -0.15205141374E+01 -0.30231001115E+02  0.12478817626E+03  0.12840687478E+03  0.10566000000E+00 0.  1.
        994    1    1    2    0    0  0.43938389287E+01  0.67380082890E+01  0.40972615495E+01  0.17143784334E+03  0.17120000000E+03 0.  0.
        998    1    1    2    0    0 -0.28733247913E+01  0.23492992826E+02  0.13711145585E+04  0.13713552819E+04  0.10000000000E+02 0.  1.
</event>
<event>
 5    1  0.1252945E-008  0.3791870E+03  0.7957747E-01  0.3454706E+00
         13   -1    0    0    0    0  0.00000000000E+00  0.00000000000E+00  0.14999999963E+04  0.15000000000E+04  0.10566000000E+00 0.  1.
        994   -1    0    0    0    0 -0.00000000000E+00 -0.00000000000E+00  0.11368683772E-12  0.17120000000E+03  0.17120000000E+03 0.  0.
         13    1    1    2    0    0  0.71474620622E+01  0.11508984413E+02  0.18111605054E+02  0.22618230210E+02  0.10566000000E+00 0.  1.
        994    1    1    2    0    0 -0.31941106036E+01 -0.13146851485E+02  0.51578714846E+01  0.17181119197E+03  0.17120000000E+03 0.  0.
        998    1    1    2    0    0 -0.39533514586E+01  0.16378670724E+01  0.14767305197E+04  0.14767705778E+04  0.10000000000E+02 0.  1.
</event>
<event>
 5    1  0.1252945E-008  0.3830055E+03  0.7957747E-01  0.3438175E+00
         13   -1    0    0    0    0  0.00000000000E+00  0.00000000000E+00  0.14999999963E+04  0.15000000000E+04  0.10566000000E+00 0.  1.
        994   -1    0    0    0    0 -0.00000000000E+00 -0.00000000000E+00  0.11368683772E-12  0.17120000000E+03  0.17120000000E+03 0.  0.
         13    1    1    2    0    0 -0.16380725485E+02  0.22832508471E+02  0.16772101256E+03  0.17005881579E+03  0.10566000000E+00 0.  1.
        994    1    1    2    0    0  0.10057433126E+02  0.29678422942E+01  0.29876623396E+01  0.17154686291E+03  0.17120000000E+03 0.  0.
        998    1    1    2    0    0  0.63232923583E+01 -0.25800350765E+02  0.13292913214E+04  0.13295943213E+04  0.10000000000E+02 0.  1.
</event>
<event>
 5    1  0.1252945E-008  0.3817246E+03  0.7957747E-01  0.3443683E+00
         13   -1    0    0    0    0  0.00000000000E+00  0.00000000000E+00  0.14999999963E+04  0.15000000000E+04  0.10566000000E+00 0.  1.
        994   -1    0    0    0    0 -0.00000000000E+00 -0.00000000000E+00  0.11368683772E-12  0.17120000000E+03  0.17120000000E+03 0.  0.
         13    1    1    2    0    0  0.14286858688E+02 -0.25421885297E+02  0.14559114239E+03  0.14848292323E+03  0.10566000000E+00 0.  1.
        994    1    1    2    0    0  0.51625261884E+01  0.34668355881E+01  0.33936435946E+01  0.17134651278E+03  0.17120000000E+03 0.  0.
        998    1    1    2    0    0 -0.19449384876E+02  0.21955049709E+02  0.13510152103E+04  0.13513705640E+04  0.10000000000E+02 0.  1.
</event>
<event>
 5    1  0.1252945E-008  0.3726147E+03  0.7957747E-01  0.3483960E+00
         13   -1    0    0    0    0  0.00000000000E+00  0.00000000000E+00  0.14999999963E+04  0.15000000000E+04  0.10566000000E+00 0. -1.
        994   -1    0    0    0    0 -0.00000000000E+00 -0.00000000000E+00  0.11368683772E-12  0.17120000000E+03  0.17120000000E+03 0.  0.
         13    1    1    2    0    0  0.74946812780E+02  0.43006519290E+02  0.25042939900E+03  0.26491787500E+03  0.10566000000E+00 0. -1.
        994    1    1    2    0    0 -0.74650159995E+02 -0.40305408074E+02  0.38176460665E+02  0.19484366671E+03  0.17120000000E+03 0.  0.
        998    1    1    2    0    0 -0.29665278535E+00 -0.27011112161E+01  0.12113941366E+04  0.12114384583E+04  0.10000000000E+02 0. -1.
</event>
<event>
 5    1  0.1252945E-008  0.3821839E+03  0.7957747E-01  0.3441704E+00
         13   -1    0    0    0    0  0.00000000000E+00  0.00000000000E+00  0.14999999963E+04  0.15000000000E+04  0.10566000000E+00 0. -1.
        994   -1    0    0    0    0 -0.00000000000E+00 -0.00000000000E+00  0.11368683772E-12  0.17120000000E+03  0.17120000000E+03 0.  0.
         13    1    1    2    0    0 -0.87569818566E+01 -0.49269903751E+01  0.15535227930E+02  0.18501741439E+02  0.10566000000E+00 0. -1.
        994    1    1    2    0    0  0.19726295879E+01  0.44272438415E+01  0.31127616621E+01  0.17129687983E+03  0.17120000000E+03 0.  0.
        998    1    1    2    0    0  0.67843522687E+01  0.49974653360E+00  0.14813520067E+04  0.14814013787E+04  0.10000000000E+02 0. -1.
</event>
<event>
 5    1  0.1252945E-008  0.4346686E+03  0.7957747E-01  0.3242959E+00
         13   -1    0    0    0    0  0.00000000000E+00  0.00000000000E+00  0.14999999963E+04  0.15000000000E+04  0.10566000000E+00 0. -1.
        994   -1    0    0    0    0 -0.00000000000E+00 -0.00000000000E+00  0.11368683772E-12  0.17120000000E+03  0.17120000000E+03 0.  0.
         13    1    1    2    0    0  0.69570692768E+01 -0.30142266675E+02 -0.11151409524E+02  0.32883463194E+02  0.10566000000E+00 0. -1.
        994    1    1    2    0    0 -0.36299524549E+02  0.35997149123E+02  0.62446557746E+02  0.18926822977E+03  0.17120000000E+03 0.  0.
        998    1    1    2    0    0  0.29342455272E+02 -0.58548824478E+01  0.14487048481E+04  0.14490483070E+04  0.10000000000E+02 0. -1.
</event>
<event>
 5    1  0.1252945E-008  0.3847322E+03  0.7957747E-01  0.3430809E+00
         13   -1    0    0    0    0  0.00000000000E+00  0.00000000000E+00  0.14999999963E+04  0.15000000000E+04  0.10566000000E+00 0. -1.
        994   -1    0    0    0    0 -0.00000000000E+00 -0.00000000000E+00  0.11368683772E-12  0.17120000000E+03  0.17120000000E+03 0.  0.
         13    1    1    2    0    0 -0.13709459445E+02  0.54159586355E+01  0.64573310794E+02  0.66234473781E+02  0.10566000000E+00 0. -1.
        994    1    1    2    0    0  0.23576164354E+01  0.12516103365E+01  0.17866085149E+01  0.17123012835E+03  0.17120000000E+03 0.  0.
        998    1    1    2    0    0  0.11351843009E+02 -0.66675689721E+01  0.14336400770E+04  0.14337353979E+04  0.10000000000E+02 0. -1.
</event>
<event>
 5    1  0.1252945E-008  0.3840308E+03  0.7957747E-01  0.3433793E+00
         13   -1    0    0    0    0  0.00000000000E+00  0.00000000000E+00  0.14999999963E+04  0.15000000000E+04  0.10566000000E+00 0.  1.
        994   -1    0    0    0    0 -0.00000000000E+00 -0.00000000000E+00  0.11368683772E-12  0.17120000000E+03  0.17120000000E+03 0.  0.
         13    1    1    2    0    0  0.57400866552E+01 -0.89742418307E+01  0.25687683043E+02  0.27809240109E+02  0.10566000000E+00 0.  1.
        994    1    1    2    0    0 -0.52508106551E+01  0.12274379581E+02  0.27002872255E+01  0.17174097635E+03  0.17120000000E+03 0.  0.
        998    1    1    2    0    0 -0.48927600017E+00 -0.33001377499E+01  0.14716120260E+04  0.14716497835E+04  0.10000000000E+02 0.  1.
</event>
<event>
 5    1  0.1252945E-008  0.3843006E+03  0.7957747E-01  0.3432644E+00
         13   -1    0    0    0    0  0.00000000000E+00  0.00000000000E+00  0.14999999963E+04  0.15000000000E+04  0.10566000000E+00 0. -1.
        994   -1    0    0    0    0 -0.00000000000E+00 -0.00000000000E+00  0.11368683772E-12  0.17120000000E+03  0.17120000000E+03 0.  0.
         13    1    1    2    0    0  0.32483450913E-01  0.17751079291E+02  0.76799448799E+02  0.78824287951E+02  0.10566000000E+00 0. -1.
        994    1    1    2    0    0  0.28746570662E+01 -0.16702548485E+02  0.29251205777E+01  0.17206171890E+03  0.17120000000E+03 0.  0.
        998    1    1    2    0    0 -0.29071405171E+01 -0.10485308063E+01  0.14202754269E+04  0.14203139932E+04  0.10000000000E+02 0. -1.
</event>
<event>
 5    1  0.1252945E-008  0.3838073E+03  0.7957747E-01  0.3434747E+00
         13   -1    0    0    0    0  0.00000000000E+00  0.00000000000E+00  0.14999999963E+04  0.15000000000E+04  0.10566000000E+00 0. -1.
        994   -1    0    0    0    0 -0.00000000000E+00 -0.00000000000E+00  0.11368683772E-12  0.17120000000E+03  0.17120000000E+03 0.  0.
         13    1    1    2    0    0 -0.11618306765E+02  0.18262444179E+02  0.10643015619E+03  0.10860889112E+03  0.10566000000E+00 0. -1.
        994    1    1    2    0    0  0.58065453620E+01 -0.97710511321E+01  0.26500934099E+01  0.17159735547E+03  0.17120000000E+03 0.  0.
        998    1    1    2    0    0  0.58117614031E+01 -0.84913930469E+01  0.13909197467E+04  0.13909937534E+04  0.10000000000E+02 0. -1.
</event>
<event>
 5    1  0.1252945E-008  0.3813099E+03  0.7957747E-01  0.3445474E+00
         13   -1    0    0    0    0  0.00000000000E+00  0.00000000000E+00  0.14999999963E+04  0.15000000000E+04  0.10566000000E+00 0.  1.
        994   -1    0    0    0    0 -0.00000000000E+00 -0.00000000000E+00  0.11368683772E-12  0.17120000000E+03  0.17120000000E+03 0.  0.
         13    1    1    2    0    0  0.65636733482E+01 -0.26982115200E+02  0.10219501547E+03  0.10590065486E+03  0.10566000000E+00 0.  1.
        994    1    1    2    0    0 -0.16912282801E+02  0.26734447897E+02  0.68115317673E+01  0.17423143511E+03  0.17120000000E+03 0.  0.
        998    1    1    2    0    0  0.10348609453E+02  0.24766730276E+00  0.13909934490E+04  0.13910679100E+04  0.10000000000E+02 0.  1.
</event>
<event>
 5    1  0.1252945E-008  0.3818717E+03  0.7957747E-01  0.3443049E+00
         13   -1    0    0    0    0  0.00000000000E+00  0.00000000000E+00  0.14999999963E+04  0.15000000000E+04  0.10566000000E+00 0. -1.
        994   -1    0    0    0    0 -0.00000000000E+00 -0.00000000000E+00  0.11368683772E-12  0.17120000000E+03  0.17120000000E+03 0.  0.
         13    1    1    2    0    0 -0.20854294581E+02  0.10446768688E+02  0.87645516280E+02  0.90696109434E+02  0.10566000000E+00 0. -1.
        994    1    1    2    0    0  0.57637363935E+01 -0.44550125363E+01  0.33676279911E+01  0.17138800633E+03  0.17120000000E+03 0.  0.
        998    1    1    2    0    0  0.15090558187E+02 -0.59917561521E+01  0.14089868520E+04  0.14091158842E+04  0.10000000000E+02 0. -1.
</event>
<event>
 5    1  0.1252945E-008  0.3825938E+03  0.7957747E-01  0.3439942E+00
         13   -1    0    0    0    0  0.00000000000E+00  0.00000000000E+00  0.14999999963E+04  0.15000000000E+04  0.10566000000E+00 0.  1.
        994   -1    0    0    0    0 -0.00000000000E+00 -0.00000000000E+00  0.11368683772E-12  0.17120000000E+03  0.17120000000E+03 0.  0.
         13    1    1    2    0    0  0.13635265533E+02  0.37829004894E+01  0.34260496507E+02  0.37067824150E+02  0.10566000000E+00 0.  1.
        994    1    1    2    0    0 -0.14762505938E+02  0.12743637453E+02  0.40911560578E+01  0.17235576415E+03  0.17120000000E+03 0.  0.
        998    1    1    2    0    0  0.11272404044E+01 -0.16526537942E+02  0.14616483437E+04  0.14617764117E+04  0.10000000000E+02 0.  1.
</event>
<event>
 5    1  0.1252945E-008  0.3793175E+03  0.7957747E-01  0.3454136E+00
         13   -1    0    0    0    0  0.00000000000E+00  0.00000000000E+00  0.14999999963E+04  0.15000000000E+04  0.10566000000E+00 0. -1.
        994   -1    0    0    0    0 -0.00000000000E+00 -0.00000000000E+00  0.11368683772E-12  0.17120000000E+03  0.17120000000E+03 0.  0.
         13    1    1    2    0    0  0.14181166610E+02  0.24989856283E+01  0.20890498884E+02  0.25372712178E+02  0.10566000000E+00 0. -1.
        994    1    1    2    0    0 -0.15116259141E+02 -0.11778959499E+02  0.57094750912E+01  0.17236381083E+03  0.17120000000E+03 0.  0.
        998    1    1    2    0    0  0.93509253096E+00  0.92799738711E+01  0.14734000223E+04  0.14734634770E+04  0.10000000000E+02 0. -1.
</event>
<event>
 5    1  0.1252945E-008  0.3841305E+03  0.7957747E-01  0.3433368E+00
         13   -1    0    0    0    0  0.00000000000E+00  0.00000000000E+00  0.14999999963E+04  0.15000000000E+04  0.10566000000E+00 0. -1.
        994   -1    0    0    0    0 -0.00000000000E+00 -0.00000000000E+00  0.11368683772E-12  0.17120000000E+03  0.17120000000E+03 0.  0.
         13    1    1    2    0    0  0.11098051036E+02  0.31911271648E+00  0.29161051866E+02  0.31203311998E+02  0.10566000000E+00 0. -1.
        994    1    1    2    0    0 -0.91120638439E+01  0.18093716238E+01  0.23471243553E+01  0.17146793440E+03  0.17120000000E+03 0.  0.
        998    1    1    2    0    0 -0.19859871924E+01 -0.21284843402E+01  0.14684918201E+04  0.14685287536E+04  0.10000000000E+02 0. -1.
</event>
<event>
 5    1  0.1252945E-008  0.3835615E+03  0.7957747E-01  0.3435796E+00
         13   -1    0    0    0    0  0.00000000000E+00  0.00000000000E+00  0.14999999963E+04  0.15000000000E+04  0.10566000000E+00 0. -1.
        994   -1    0    0    0    0 -0.00000000000E+00 -0.00000000000E+00  0.11368683772E-12  0.17120000000E+03  0.17120000000E+03 0.  0.
         13    1    1    2    0    0 -0.21106264752E+02 -0.20144211426E+02  0.15595981892E+03  0.15866549703E+03  0.10566000000E+00 0. -1.
        994    1    1    2    0    0  0.10729574271E+02  0.41488515025E+02  0.84374256079E+01  0.17668347629E+03  0.17120000000E+03 0.  0.
        998    1    1    2    0    0  0.10376690482E+02 -0.21344303600E+02  0.13356027517E+04  0.13358510267E+04  0.10000000000E+02 0. -1.
</event>
<event>
 5    1  0.1252945E-008  0.3811051E+03  0.7957747E-01  0.3446361E+00
         13   -1    0    0    0    0  0.00000000000E+00  0.00000000000E+00  0.14999999963E+04  0.15000000000E+04  0.10566000000E+00 0. -1.
        994   -1    0    0    0    0 -0.00000000000E+00 -0.00000000000E+00  0.11368683772E-12  0.17120000000E+03  0.17120000000E+03 0.  0.
         13    1    1    2    0    0 -0.23849562144E+02  0.31736668397E+02  0.18936406891E+03  0.19348069540E+03  0.10566000000E+00 0. -1.
        994    1    1    2    0    0  0.26103558084E+02 -0.33564798468E+02  0.96218446502E+01  0.17666355407E+03  0.17120000000E+03 0.  0.
        998    1    1    2    0    0 -0.22539959409E+01  0.18281300709E+01  0.13010140827E+04  0.13010557505E+04  0.10000000000E+02 0.  1.
</event>
<event>
 5    1  0.1252945E-008  0.3854252E+03  0.7957747E-01  0.3427871E+00
         13   -1    0    0    0    0  0.00000000000E+00  0.00000000000E+00  0.14999999963E+04  0.15000000000E+04  0.10566000000E+00 0. -1.
        994   -1    0    0    0    0 -0.00000000000E+00 -0.00000000000E+00  0.11368683772E-12  0.17120000000E+03  0.17120000000E+03 0.  0.
         13    1    1    2    0    0 -0.93316002184E+00 -0.14779125576E+02  0.82820883826E+02  0.84134435888E+02  0.10566000000E+00 0. -1.
        994    1    1    2    0    0 -0.71793168938E+01  0.17894215980E+01  0.15989790059E+01  0.17136727037E+03  0.17120000000E+03 0.  0.
        998    1    1    2    0    0  0.81124769156E+01  0.12989703978E+02  0.14155801334E+04  0.14156982937E+04  0.10000000000E+02 0. -1.
</event>
<event>
 5    1  0.1252945E-008  0.3771386E+03  0.7957747E-01  0.3463713E+00
         13   -1    0    0    0    0  0.00000000000E+00  0.00000000000E+00  0.14999999963E+04  0.15000000000E+04  0.10566000000E+00 0. -1.
        994   -1    0    0    0    0 -0.00000000000E+00 -0.00000000000E+00  0.11368683772E-12  0.17120000000E+03  0.17120000000E+03 0.  0.
         13    1    1    2    0    0 -0.81062192047E+02 -0.82207698503E+01  0.44289752833E+03  0.45032975895E+03  0.10566000000E+00 0. -1.
        994    1    1    2    0    0  0.76436860785E+02 -0.19946093896E+01  0.25577536573E+02  0.18923589123E+03  0.17120000000E+03 0.  0.
        998    1    1    2    0    0  0.46253312617E+01  0.10215379240E+02  0.10315249314E+04  0.10316343498E+04  0.10000000000E+02 0. -1.
</event>
<event>
 5    1  0.1252945E-008  0.2577007E+03  0.7957747E-01  0.4253533E+00
         13   -1    0    0    0    0  0.00000000000E+00  0.00000000000E+00  0.14999999963E+04  0.15000000000E+04  0.10566000000E+00 0. -1.
        994   -1    0    0    0    0 -0.00000000000E+00 -0.00000000000E+00  0.11368683772E-12  0.17120000000E+03  0.17120000000E+03 0.  0.
         13    1    1    2    0    0  0.18299724936E+03 -0.34227869304E+02  0.28433754847E+03  0.33986378587E+03  0.10566000000E+00 0. -1.
        994    1    1    2    0    0 -0.17717444012E+03  0.73171760176E+02  0.23018278843E+03  0.34501948468E+03  0.17120000000E+03 0.  0.
        998    1    1    2    0    0 -0.58228092377E+01 -0.38943890871E+02  0.98547965938E+03  0.98631672945E+03  0.10000000000E+02 0.  0.
</event>
<event>
 5    1  0.1252945E-008  0.3760323E+03  0.7957747E-01  0.3468619E+00
         13   -1    0    0    0    0  0.00000000000E+00  0.00000000000E+00  0.14999999963E+04  0.15000000000E+04  0.10566000000E+00 0.  1.
        994   -1    0    0    0    0 -0.00000000000E+00 -0.00000000000E+00  0.11368683772E-12  0.17120000000E+03  0.17120000000E+03 0.  0.
         13    1    1    2    0    0 -0.48746318201E+02  0.19974011105E+02  0.19019562515E+03  0.19735640767E+03  0.10566000000E+00 0.  1.
        994    1    1    2    0    0  0.48625588632E+02 -0.34392924927E+02  0.18261918229E+02  0.18218193877E+03  0.17120000000E+03 0.  0.
        998    1    1    2    0    0  0.12072956899E+00  0.14418913822E+02  0.12915424529E+04  0.12916616536E+04  0.10000000000E+02 0.  1.
</event>
<event>
 5    1  0.1252945E-008  0.3803920E+03  0.7957747E-01  0.3449453E+00
         13   -1    0    0    0    0  0.00000000000E+00  0.00000000000E+00  0.14999999963E+04  0.15000000000E+04  0.10566000000E+00 0. -1.
        994   -1    0    0    0    0 -0.00000000000E+00 -0.00000000000E+00  0.11368683772E-12  0.17120000000E+03  0.17120000000E+03 0.  0.
         13    1    1    2    0    0  0.15630509739E+02 -0.35436584478E+02  0.21242382593E+03  0.21592581443E+03  0.10566000000E+00 0. -1.
        994    1    1    2    0    0 -0.10198188034E+02  0.42278413424E+01  0.43424101388E+01  0.17161053058E+03  0.17120000000E+03 0.  0.
        998    1    1    2    0    0 -0.54323217052E+01  0.31208743135E+02  0.12832337602E+04  0.12836636550E+04  0.10000000000E+02 0. -1.
</event>
<event>
 5    1  0.1252945E-008  0.3567318E+03  0.7957747E-01  0.3559183E+00
         13   -1    0    0    0    0  0.00000000000E+00  0.00000000000E+00  0.14999999963E+04  0.15000000000E+04  0.10566000000E+00 0.  1.
        994   -1    0    0    0    0 -0.00000000000E+00 -0.00000000000E+00  0.11368683772E-12  0.17120000000E+03  0.17120000000E+03 0.  0.
         13    1    1    2    0    0 -0.29585650506E+03  0.32211746656E+02  0.74264209841E+03  0.80005372676E+03  0.10566000000E+00 0.  1.
        994    1    1    2    0    0  0.30543969844E+03 -0.21489900045E+02  0.48685584190E+03  0.60007772495E+03  0.17120000000E+03 0.  0.
        998    1    1    2    0    0 -0.95831933769E+01 -0.10721846611E+02  0.27050205597E+03  0.27106854830E+03  0.10000000000E+02 0.  0.
</event>
<event>
 5    1  0.1252945E-008  0.3863436E+03  0.7957747E-01  0.3423994E+00
         13   -1    0    0    0    0  0.00000000000E+00  0.00000000000E+00  0.14999999963E+04  0.15000000000E+04  0.10566000000E+00 0.  1.
        994   -1    0    0    0    0 -0.00000000000E+00 -0.00000000000E+00  0.11368683772E-12  0.17120000000E+03  0.17120000000E+03 0.  0.
         13    1    1    2    0    0  0.10311998381E+02  0.19117646975E+01  0.63056885258E+02  0.63923189043E+02  0.10566000000E+00 0.  1.
        994    1    1    2    0    0  0.30196179585E+01  0.44737840881E+00  0.99504497989E+00  0.17123010353E+03  0.17120000000E+03 0.  0.
        998    1    1    2    0    0 -0.13331616339E+02 -0.23591431063E+01  0.14359480660E+04  0.14360467074E+04  0.10000000000E+02 0.  1.
</event>
<event>
 5    1  0.1252945E-008  0.3877180E+03  0.7957747E-01  0.3418226E+00
         13   -1    0    0    0    0  0.00000000000E+00  0.00000000000E+00  0.14999999963E+04  0.15000000000E+04  0.10566000000E+00 0. -1.
        994   -1    0    0    0    0 -0.00000000000E+00 -0.00000000000E+00  0.11368683772E-12  0.17120000000E+03  0.17120000000E+03 0.  0.
         13    1    1    2    0    0  0.53908592043E+01  0.23491954229E+02  0.49833124110E+01  0.24612554583E+02  0.10566000000E+00 0. -1.
        994    1    1    2    0    0  0.23584686907E+00 -0.27250229610E+02  0.23407239613E+02  0.17492846968E+03  0.17120000000E+03 0.  0.
        998    1    1    2    0    0 -0.56267060733E+01  0.37582753810E+01  0.14716094443E+04  0.14716589757E+04  0.10000000000E+02 0. -1.
</event>
<event>
 5    1  0.1252945E-008  0.3772595E+03  0.7957747E-01  0.3463179E+00
         13   -1    0    0    0    0  0.00000000000E+00  0.00000000000E+00  0.14999999963E+04  0.15000000000E+04  0.10566000000E+00 0.  1.
        994   -1    0    0    0    0 -0.00000000000E+00 -0.00000000000E+00  0.11368683772E-12  0.17120000000E+03  0.17120000000E+03 0.  0.
         13    1    1    2    0    0 -0.60531559386E+00  0.11712322101E+02  0.99263277792E+01  0.15365156790E+02  0.10566000000E+00 0.  1.
        994    1    1    2    0    0 -0.13545376822E+01 -0.10702882075E+02  0.59157021778E+01  0.17164155088E+03  0.17120000000E+03 0.  0.
        998    1    1    2    0    0  0.19598532761E+01 -0.10094400264E+01  0.14841579663E+04  0.14841932923E+04  0.10000000000E+02 0.  1.
</event>
<event>
 5    1  0.1252945E-008  0.3850227E+03  0.7957747E-01  0.3429576E+00
         13   -1    0    0    0    0  0.00000000000E+00  0.00000000000E+00  0.14999999963E+04  0.15000000000E+04  0.10566000000E+00 0. -1.
        994   -1    0    0    0    0 -0.00000000000E+00 -0.00000000000E+00  0.11368683772E-12  0.17120000000E+03  0.17120000000E+03 0.  0.
         13    1    1    2    0    0 -0.14300330535E+02  0.86016509615E+01  0.91372588227E+02  0.92884061583E+02  0.10566000000E+00 0. -1.
        994    1    1    2    0    0  0.93591701626E+00 -0.41875250963E+01  0.16793985549E+01  0.17126199720E+03  0.17120000000E+03 0.  0.
        998    1    1    2    0    0  0.13364413519E+02 -0.44141258652E+01  0.14069480095E+04  0.14070539412E+04  0.10000000000E+02 0. -1.
</event>
<event>
 5    1  0.1252945E-008  0.3842183E+03  0.7957747E-01  0.3432994E+00
         13   -1    0    0    0    0  0.00000000000E+00  0.00000000000E+00  0.14999999963E+04  0.15000000000E+04  0.10566000000E+00 0.  1.
        994   -1    0    0    0    0 -0.00000000000E+00 -0.00000000000E+00  0.11368683772E-12  0.17120000000E+03  0.17120000000E+03 0.  0.
         13    1    1    2    0    0 -0.82246368876E+00  0.20683047319E+02  0.10628238694E+03  0.10827936937E+03  0.10566000000E+00 0.  1.
        994    1    1    2    0    0 -0.25656812176E+02 -0.14388147155E+02  0.48768335092E+01  0.17377719728E+03  0.17120000000E+03 0.  0.
        998    1    1    2    0    0  0.26479275865E+02 -0.62949001637E+01  0.13888407758E+04  0.13891434334E+04  0.10000000000E+02 0.  1.
</event>
<event>
 5    1  0.1252945E-008  0.3832015E+03  0.7957747E-01  0.3437336E+00
         13   -1    0    0    0    0  0.00000000000E+00  0.00000000000E+00  0.14999999963E+04  0.15000000000E+04  0.10566000000E+00 0. -1.
        994   -1    0    0    0    0 -0.00000000000E+00 -0.00000000000E+00  0.11368683772E-12  0.17120000000E+03  0.17120000000E+03 0.  0.
         13    1    1    2    0    0  0.26774400945E+02 -0.61907234131E+00  0.15334160167E+03  0.15566280790E+03  0.10566000000E+00 0. -1.
        994    1    1    2    0    0 -0.59210135049E+01  0.43238104528E+01  0.27035267942E+01  0.17137824481E+03  0.17120000000E+03 0.  0.
        998    1    1    2    0    0 -0.20853387440E+02 -0.37047381115E+01  0.13439548678E+04  0.13441589473E+04  0.10000000000E+02 0. -1.
</event>
<event>
 5    1  0.1252945E-008  0.3709629E+03  0.7957747E-01  0.3491477E+00
         13   -1    0    0    0    0  0.00000000000E+00  0.00000000000E+00  0.14999999963E+04  0.15000000000E+04  0.10566000000E+00 0.  1.
        994   -1    0    0    0    0 -0.00000000000E+00 -0.00000000000E+00  0.11368683772E-12  0.17120000000E+03  0.17120000000E+03 0.  0.
         13    1    1    2    0    0 -0.43009062595E+02 -0.47242320972E+02  0.22233474824E+03  0.23133172674E+03  0.10566000000E+00 0.  1.
        994    1    1    2    0    0  0.28733854847E+02  0.32320904999E+02  0.15239659568E+02  0.17723420251E+03  0.17120000000E+03 0.  0.
        998    1    1    2    0    0  0.14275207748E+02  0.14921415974E+02  0.12624255885E+04  0.12626340708E+04  0.10000000000E+02 0.  1.
</event>
<event>
 5    1  0.1252945E-008  0.3835900E+03  0.7957747E-01  0.3435674E+00
         13   -1    0    0    0    0  0.00000000000E+00  0.00000000000E+00  0.14999999963E+04  0.15000000000E+04  0.10566000000E+00 0.  1.
        994   -1    0    0    0    0 -0.00000000000E+00 -0.00000000000E+00  0.11368683772E-12  0.17120000000E+03  0.17120000000E+03 0.  0.
         13    1    1    2    0    0  0.21498105702E+02  0.20434266146E+01  0.10856430742E+03  0.11069130115E+03  0.10566000000E+00 0.  1.
        994    1    1    2    0    0 -0.19778756063E+01  0.93275346642E+01  0.26322277257E+01  0.17148551985E+03  0.17120000000E+03 0.  0.
        998    1    1    2    0    0 -0.19520230096E+02 -0.11370961279E+02  0.13888034611E+04  0.13890231790E+04  0.10000000000E+02 0.  1.
</event>
<event>
 5    1  0.1252945E-008  0.3862358E+03  0.7957747E-01  0.3424448E+00
         13   -1    0    0    0    0  0.00000000000E+00  0.00000000000E+00  0.14999999963E+04  0.15000000000E+04  0.10566000000E+00 0.  1.
        994   -1    0    0    0    0 -0.00000000000E+00 -0.00000000000E+00  0.11368683772E-12  0.17120000000E+03  0.17120000000E+03 0.  0.
         13    1    1    2    0    0 -0.10196750818E+02  0.60155038123E+01  0.66680466581E+02  0.67723377063E+02  0.10566000000E+00 0.  1.
        994    1    1    2    0    0  0.96858761594E+01 -0.10917161891E+02  0.17158367500E+01  0.17182952225E+03  0.17120000000E+03 0.  0.
        998    1    1    2    0    0  0.51087465896E+00  0.49016580786E+01  0.14316036929E+04  0.14316471007E+04  0.10000000000E+02 0.  1.
</event>
<event>
 5    1  0.1252945E-008  0.3742244E+03  0.7957747E-01  0.3476699E+00
         13   -1    0    0    0    0  0.00000000000E+00  0.00000000000E+00  0.14999999963E+04  0.15000000000E+04  0.10566000000E+00 0. -1.
        994   -1    0    0    0    0 -0.00000000000E+00 -0.00000000000E+00  0.11368683772E-12  0.17120000000E+03  0.17120000000E+03 0.  0.
         13    1    1    2    0    0 -0.84451295820E+02 -0.89100157689E+02  0.72346359955E+03  0.73380545821E+03  0.10566000000E+00 0. -1.
        994    1    1    2    0    0  0.68467316816E+02  0.76359191138E+02  0.43818372302E+02  0.20432324707E+03  0.17120000000E+03 0.  0.
        998    1    1    2    0    0  0.15983979004E+02  0.12740966551E+02  0.73271802443E+03  0.73307129471E+03  0.10000000000E+02 0. -1.
</event>
<event>
 5    1  0.1252945E-008  0.3801593E+03  0.7957747E-01  0.3450465E+00
         13   -1    0    0    0    0  0.00000000000E+00  0.00000000000E+00  0.14999999963E+04  0.15000000000E+04  0.10566000000E+00 0. -1.
        994   -1    0    0    0    0 -0.00000000000E+00 -0.00000000000E+00  0.11368683772E-12  0.17120000000E+03  0.17120000000E+03 0.  0.
         13    1    1    2    0    0 -0.48395788039E+02 -0.46883993632E+02  0.39613935126E+03  0.40182914023E+03  0.10566000000E+00 0. -1.
        994    1    1    2    0    0  0.55480076973E+02  0.44688134021E+02  0.21199909409E+02  0.18663853949E+03  0.17120000000E+03 0.  0.
        998    1    1    2    0    0 -0.70842889337E+01  0.21958596114E+01  0.10826607356E+04  0.10827323203E+04  0.10000000000E+02 0. -1.
</event>
<event>
 5    1  0.1252945E-008  0.3692348E+03  0.7957747E-01  0.3499415E+00
         13   -1    0    0    0    0  0.00000000000E+00  0.00000000000E+00  0.14999999963E+04  0.15000000000E+04  0.10566000000E+00 0. -1.
        994   -1    0    0    0    0 -0.00000000000E+00 -0.00000000000E+00  0.11368683772E-12  0.17120000000E+03  0.17120000000E+03 0.  0.
         13    1    1    2    0    0  0.41172285244E+01 -0.22205941761E+02  0.19198273829E+02  0.29641867388E+02  0.10566000000E+00 0. -1.
        994    1    1    2    0    0  0.10158304463E+02  0.29861343377E+02  0.14011478396E+02  0.17464436007E+03  0.17120000000E+03 0.  0.
        998    1    1    2    0    0 -0.14275532988E+02 -0.76554016162E+01  0.14667902441E+04  0.14669137725E+04  0.10000000000E+02 0. -1.
</event>
<event>
 5    1  0.1252945E-008  0.3850266E+03  0.7957747E-01  0.3429559E+00
         13   -1    0    0    0    0  0.00000000000E+00  0.00000000000E+00  0.14999999963E+04  0.15000000000E+04  0.10566000000E+00 0. -1.
        994   -1    0    0    0    0 -0.00000000000E+00 -0.00000000000E+00  0.11368683772E-12  0.17120000000E+03  0.17120000000E+03 0.  0.
         13    1    1    2    0    0  0.30629301603E+01  0.16973678503E+02  0.10021775821E+03  0.10169118707E+03  0.10566000000E+00 0. -1.
        994    1    1    2    0    0 -0.12358193113E+02  0.14465845414E+01  0.21262066459E+01  0.17166472642E+03  0.17120000000E+03 0.  0.
        998    1    1    2    0    0  0.92952629526E+01 -0.18420263044E+02  0.13976560314E+04  0.13978440865E+04  0.10000000000E+02 0. -1.
</event>
<event>
 5    1  0.1252945E-008  0.3811000E+03  0.7957747E-01  0.3446383E+00
         13   -1    0    0    0    0  0.00000000000E+00  0.00000000000E+00  0.14999999963E+04  0.15000000000E+04  0.10566000000E+00 0.  1.
        994   -1    0    0    0    0 -0.00000000000E+00 -0.00000000000E+00  0.11368683772E-12  0.17120000000E+03  0.17120000000E+03 0.  0.
         13    1    1    2    0    0 -0.15433565498E+02 -0.52139813593E+02  0.97541708556E+02  0.11167430849E+03  0.10566000000E+00 0.  1.
        994    1    1    2    0    0  0.38518520289E+02 -0.34855680806E+02  0.26816742259E+02  0.18090652989E+03  0.17120000000E+03 0.  0.
        998    1    1    2    0    0 -0.23084954791E+02  0.86995494399E+02  0.13756415455E+04  0.13786191616E+04  0.10000000000E+02 0.  1.
</event>
<event>
 5    1  0.1252945E-008  0.3820997E+03  0.7957747E-01  0.3442066E+00
         13   -1    0    0    0    0  0.00000000000E+00  0.00000000000E+00  0.14999999963E+04  0.15000000000E+04  0.10566000000E+00 0.  1.
        994   -1    0    0    0    0 -0.00000000000E+00 -0.00000000000E+00  0.11368683772E-12  0.17120000000E+03  0.17120000000E+03 0.  0.
         13    1    1    2    0    0  0.59485600685E+01  0.22203705663E+02  0.82556683311E+02  0.85697182190E+02  0.10566000000E+00 0.  1.
        994    1    1    2    0    0 -0.53187703568E+00 -0.20159401525E+02  0.44282634607E+01  0.17244052273E+03  0.17120000000E+03 0.  0.
        998    1    1    2    0    0 -0.54166830328E+01 -0.20443041375E+01  0.14130150495E+04  0.14130622951E+04  0.10000000000E+02 0.  1.
</event>
<event>
 5    1  0.1252945E-008  0.3815468E+03  0.7957747E-01  0.3444451E+00
         13   -1    0    0    0    0  0.00000000000E+00  0.00000000000E+00  0.14999999963E+04  0.15000000000E+04  0.10566000000E+00 0.  1.
        994   -1    0    0    0    0 -0.00000000000E+00 -0.00000000000E+00  0.11368683772E-12  0.17120000000E+03  0.17120000000E+03 0.  0.
         13    1    1    2    0    0 -0.23593655623E+02 -0.35958656015E+01  0.83152905263E+02  0.86510159246E+02  0.10566000000E+00 0.  1.
        994    1    1    2    0    0  0.13089885513E+02  0.25437130682E+02  0.60810449935E+01  0.17368019987E+03  0.17120000000E+03 0.  0.
        998    1    1    2    0    0  0.10503770110E+02 -0.21841265081E+02  0.14107660460E+04  0.14110096409E+04  0.10000000000E+02 0.  1.
</event>
<event>
 5    1  0.1252945E-008  0.3823378E+03  0.7957747E-01  0.3441042E+00
         13   -1    0    0    0    0  0.00000000000E+00  0.00000000000E+00  0.14999999963E+04  0.15000000000E+04  0.10566000000E+00 0.  1.
        994   -1    0    0    0    0 -0.00000000000E+00 -0.00000000000E+00  0.11368683772E-12  0.17120000000E+03  0.17120000000E+03 0.  0.
         13    1    1    2    0    0 -0.92936442729E+01 -0.14212267978E+02  0.48919611559E+02  0.51783201370E+02  0.10566000000E+00 0.  1.
        994    1    1    2    0    0  0.56139834710E+01  0.30335887008E+01  0.30927363493E+01  0.17134679597E+03  0.17120000000E+03 0.  0.
        998    1    1    2    0    0  0.36796608019E+01  0.11178679278E+02  0.14479876484E+04  0.14480700027E+04  0.10000000000E+02 0.  1.
</event>
<event>
 5    1  0.1252945E-008  0.3791714E+03  0.7957747E-01  0.3454775E+00
         13   -1    0    0    0    0  0.00000000000E+00  0.00000000000E+00  0.14999999963E+04  0.15000000000E+04  0.10566000000E+00 0. -1.
        994   -1    0    0    0    0 -0.00000000000E+00 -0.00000000000E+00  0.11368683772E-12  0.17120000000E+03  0.17120000000E+03 0.  0.
         13    1    1    2    0    0 -0.84513852890E+02 -0.11560766208E+03  0.56017376791E+03  0.57818888288E+03  0.10566000000E+00 0. -1.
        994    1    1    2    0    0  0.81126671089E+02  0.67552458550E+02  0.57328874812E+02  0.20914327937E+03  0.17120000000E+03 0.  0.
        998    1    1    2    0    0  0.33871818005E+01  0.48055203526E+02  0.88249735355E+03  0.88386783775E+03  0.10000000000E+02 0. -1.
</event>
<event>
 5    1  0.1252945E-008  0.3772468E+03  0.7957747E-01  0.3463235E+00
         13   -1    0    0    0    0  0.00000000000E+00  0.00000000000E+00  0.14999999963E+04  0.15000000000E+04  0.10566000000E+00 0.  1.
        994   -1    0    0    0    0 -0.00000000000E+00 -0.00000000000E+00  0.11368683772E-12  0.17120000000E+03  0.17120000000E+03 0.  0.
         13    1    1    2    0    0  0.66154317391E+01  0.88145737479E+01  0.84330763753E+01  0.13877629071E+02  0.10566000000E+00 0.  1.
        994    1    1    2    0    0 -0.90847620594E+01 -0.62950127082E+01  0.59416584738E+01  0.17165926538E+03  0.17120000000E+03 0.  0.
        998    1    1    2    0    0  0.24693303203E+01 -0.25195610397E+01  0.14856252614E+04  0.14856631055E+04  0.10000000000E+02 0.  1.
</event>
<event>
 5    1  0.1252945E-008  0.3834860E+03  0.7957747E-01  0.3436119E+00
         13   -1    0    0    0    0  0.00000000000E+00  0.00000000000E+00  0.14999999963E+04  0.15000000000E+04  0.10566000000E+00 0.  1.
        994   -1    0    0    0    0 -0.00000000000E+00 -0.00000000000E+00  0.11368683772E-12  0.17120000000E+03  0.17120000000E+03 0.  0.
         13    1    1    2    0    0  0.14407419514E+02 -0.44222736689E+02  0.24954554639E+03  0.25384289446E+03  0.10566000000E+00 0.  1.
        994    1    1    2    0    0 -0.28139609581E+02  0.83729735263E+02  0.28611633802E+02  0.19475772586E+03  0.17120000000E+03 0.  0.
        998    1    1    2    0    0  0.13732190068E+02 -0.39506998574E+02  0.12218428161E+04  0.12225993797E+04  0.10000000000E+02 0.  1.
</event>
<event>
 5    1  0.1252945E-008  0.3765266E+03  0.7957747E-01  0.3466423E+00
         13   -1    0    0    0    0  0.00000000000E+00  0.00000000000E+00  0.14999999963E+04  0.15000000000E+04  0.10566000000E+00 0. -1.
        994   -1    0    0    0    0 -0.00000000000E+00 -0.00000000000E+00  0.11368683772E-12  0.17120000000E+03  0.17120000000E+03 0.  0.
         13    1    1    2    0    0 -0.80672415362E+01  0.32705571657E+02  0.87394887342E+02  0.93662224515E+02  0.10566000000E+00 0. -1.
        994    1    1    2    0    0  0.55553968554E+02 -0.26790300171E+02  0.18871262090E+02  0.18294679046E+03  0.17120000000E+03 0.  0.
        998    1    1    2    0    0 -0.47486727018E+02 -0.59152714855E+01  0.13937338468E+04  0.13945909850E+04  0.10000000000E+02 0. -1.
</event>
<event>
 5    1  0.1252945E-008  0.3839592E+03  0.7957747E-01  0.3434098E+00
         13   -1    0    0    0    0  0.00000000000E+00  0.00000000000E+00  0.14999999963E+04  0.15000000000E+04  0.10566000000E+00 0.  1.
        994   -1    0    0    0    0 -0.00000000000E+00 -0.00000000000E+00  0.11368683772E-12  0.17120000000E+03  0.17120000000E+03 0.  0.
         13    1    1    2    0    0 -0.65767321670E+01  0.12989639167E+02  0.50125464140E+02  0.52197293521E+02  0.10566000000E+00 0.  1.
        994    1    1    2    0    0  0.10335275577E+01 -0.45407321676E+01  0.22193343170E+01  0.17127770396E+03  0.17120000000E+03 0.  0.
        998    1    1    2    0    0  0.55432046093E+01 -0.84489069996E+01  0.14476551978E+04  0.14477250025E+04  0.10000000000E+02 0.  1.
</event>
<event>
 5    1  0.1252945E-008  0.3834951E+03  0.7957747E-01  0.3436080E+00
         13   -1    0    0    0    0  0.00000000000E+00  0.00000000000E+00  0.14999999963E+04  0.15000000000E+04  0.10566000000E+00 0.  1.
        994   -1    0    0    0    0 -0.00000000000E+00 -0.00000000000E+00  0.11368683772E-12  0.17120000000E+03  0.17120000000E+03 0.  0.
         13    1    1    2    0    0 -0.52363170928E+01  0.29489666344E+02  0.18047502701E+03  0.18294345021E+03  0.10566000000E+00 0.  1.
        994    1    1    2    0    0  0.89254967884E+01 -0.20996680432E+02  0.41012404631E+01  0.17276222173E+03  0.17120000000E+03 0.  0.
        998    1    1    2    0    0 -0.36891796955E+01 -0.84929859123E+01  0.13154237288E+04  0.13154943281E+04  0.10000000000E+02 0.  1.
</event>
<event>
 5    1  0.1252945E-008  0.3843687E+03  0.7957747E-01  0.3432354E+00
         13   -1    0    0    0    0  0.00000000000E+00  0.00000000000E+00  0.14999999963E+04  0.15000000000E+04  0.10566000000E+00 0.  1.
        994   -1    0    0    0    0 -0.00000000000E+00 -0.00000000000E+00  0.11368683772E-12  0.17120000000E+03  0.17120000000E+03 0.  0.
         13    1    1    2    0    0  0.17340951171E+02  0.10573175121E+02  0.10169323503E+03  0.10370161925E+03  0.10566000000E+00 0.  1.
        994    1    1    2    0    0 -0.14396514186E+02 -0.11512356169E+02  0.30644347037E+01  0.17221679571E+03  0.17120000000E+03 0.  0.
        998    1    1    2    0    0 -0.29444369851E+01  0.93918104747E+00  0.13952423265E+04  0.13952815850E+04  0.10000000000E+02 0.  1.
</event>
<event>
 5    1  0.1252945E-008  0.3740891E+03  0.7957747E-01  0.3477307E+00
         13   -1    0    0    0    0  0.00000000000E+00  0.00000000000E+00  0.14999999963E+04  0.15000000000E+04  0.10566000000E+00 0. -1.
        994   -1    0    0    0    0 -0.00000000000E+00 -0.00000000000E+00  0.11368683772E-12  0.17120000000E+03  0.17120000000E+03 0.  0.
         13    1    1    2    0    0 -0.84517541401E+01  0.44485558473E+02  0.15264067483E+03  0.15921552637E+03  0.10566000000E+00 0. -1.
        994    1    1    2    0    0  0.26909318162E+01 -0.11000667616E+02  0.75846462405E+01  0.17174173244E+03  0.17120000000E+03 0.  0.
        998    1    1    2    0    0  0.57608223240E+01 -0.33484890857E+02  0.13397746752E+04  0.13402427412E+04  0.10000000000E+02 0. -1.
</event>
<event>
 5    1  0.1252945E-008  0.3685977E+03  0.7957747E-01  0.3502360E+00
         13   -1    0    0    0    0  0.00000000000E+00  0.00000000000E+00  0.14999999963E+04  0.15000000000E+04  0.10566000000E+00 0.  1.
        994   -1    0    0    0    0 -0.00000000000E+00 -0.00000000000E+00  0.11368683772E-12  0.17120000000E+03  0.17120000000E+03 0.  0.
         13    1    1    2    0    0 -0.13690906468E+03 -0.12896443808E+02  0.61781103104E+03  0.63293040019E+03  0.10566000000E+00 0.  1.
        994    1    1    2    0    0  0.12547085269E+03 -0.97341974331E+01  0.67238634250E+02  0.22286355335E+03  0.17120000000E+03 0.  0.
        998    1    1    2    0    0  0.11438211991E+02  0.22630641241E+02  0.81495033099E+03  0.81540604646E+03  0.10000000000E+02 0.  1.
</event>
<event>
 5    1  0.1252945E-008  0.3856671E+03  0.7957747E-01  0.3426848E+00
         13   -1    0    0    0    0  0.00000000000E+00  0.00000000000E+00  0.14999999963E+04  0.15000000000E+04  0.10566000000E+00 0. -1.
        994   -1    0    0    0    0 -0.00000000000E+00 -0.00000000000E+00  0.11368683772E-12  0.17120000000E+03  0.17120000000E+03 0.  0.
         13    1    1    2    0    0  0.99313330332E+01  0.69604019514E+01  0.55272832637E+02  0.56587770436E+02  0.10566000000E+00 0. -1.
        994    1    1    2    0    0 -0.14759087474E+01 -0.20825727774E+02  0.27310168930E+01  0.17248996405E+03  0.17120000000E+03 0.  0.
        998    1    1    2    0    0 -0.84554242857E+01  0.13865325823E+02  0.14419961467E+04  0.14421222655E+04  0.10000000000E+02 0. -1.
</event>
<event>
 5    1  0.1252945E-008  0.3685303E+03  0.7957747E-01  0.3502673E+00
         13   -1    0    0    0    0  0.00000000000E+00  0.00000000000E+00  0.14999999963E+04  0.15000000000E+04  0.10566000000E+00 0.  1.
        994   -1    0    0    0    0 -0.00000000000E+00 -0.00000000000E+00  0.11368683772E-12  0.17120000000E+03  0.17120000000E+03 0.  0.
         13    1    1    2    0    0  0.10838005975E+01 -0.30954415236E+02  0.42093953812E+02  0.52261482546E+02  0.10566000000E+00 0.  1.
        994    1    1    2    0    0  0.61082687754E+01  0.36338492293E+02  0.14772764042E+02  0.17574262866E+03  0.17120000000E+03 0.  0.
        998    1    1    2    0    0 -0.71920693729E+01 -0.53840770572E+01  0.14431332784E+04  0.14431958888E+04  0.10000000000E+02 0.  1.
</event>
<event>
 5    1  0.1252945E-008  0.3728030E+03  0.7957747E-01  0.3483107E+00
         13   -1    0    0    0    0  0.00000000000E+00  0.00000000000E+00  0.14999999963E+04  0.15000000000E+04  0.10566000000E+00 0. -1.
        994   -1    0    0    0    0 -0.00000000000E+00 -0.00000000000E+00  0.11368683772E-12  0.17120000000E+03  0.17120000000E+03 0.  0.
         13    1    1    2    0    0 -0.18919867327E+02 -0.63364677491E+02  0.15433000469E+03  0.16790117702E+03  0.10566000000E+00 0. -1.
        994    1    1    2    0    0  0.96761876639E+01  0.66837029419E+02  0.28710951195E+02  0.18626480029E+03  0.17120000000E+03 0.  0.
        998    1    1    2    0    0  0.92436796634E+01 -0.34723519278E+01  0.13169590404E+04  0.13170340227E+04  0.10000000000E+02 0. -1.
</event>
<event>
 5    1  0.1252945E-008  0.3857423E+03  0.7957747E-01  0.3426530E+00
         13   -1    0    0    0    0  0.00000000000E+00  0.00000000000E+00  0.14999999963E+04  0.15000000000E+04  0.10566000000E+00 0.  1.
        994   -1    0    0    0    0 -0.00000000000E+00 -0.00000000000E+00  0.11368683772E-12  0.17120000000E+03  0.17120000000E+03 0.  0.
         13    1    1    2    0    0  0.52973112444E+01  0.10361808504E+02  0.51734262322E+02  0.53027102918E+02  0.10566000000E+00 0.  1.
        994    1    1    2    0    0 -0.68491763890E+01 -0.13091641733E+02  0.19785895749E+01  0.17184777309E+03  0.17120000000E+03 0.  0.
        998    1    1    2    0    0  0.15518651447E+01  0.27298332288E+01  0.14462871444E+04  0.14463251240E+04  0.10000000000E+02 0.  1.
</event>
<event>
 5    1  0.1252945E-008  0.3773002E+03  0.7957747E-01  0.3462999E+00
         13   -1    0    0    0    0  0.00000000000E+00  0.00000000000E+00  0.14999999963E+04  0.15000000000E+04  0.10566000000E+00 0. -1.
        994   -1    0    0    0    0 -0.00000000000E+00 -0.00000000000E+00  0.11368683772E-12  0.17120000000E+03  0.17120000000E+03 0.  0.
         13    1    1    2    0    0 -0.13496401091E+02  0.67123768869E+02  0.37672368214E+03  0.38289489033E+03  0.10566000000E+00 0. -1.
        994    1    1    2    0    0 -0.10906397398E+02 -0.55888866732E+02  0.16518578597E+02  0.18117620806E+03  0.17120000000E+03 0.  0.
        998    1    1    2    0    0  0.24402798490E+02 -0.11234902137E+02  0.11067577355E+04  0.11071289016E+04  0.10000000000E+02 0.  1.
</event>
<event>
 5    1  0.1252945E-008  0.3848831E+03  0.7957747E-01  0.3430168E+00
         13   -1    0    0    0    0  0.00000000000E+00  0.00000000000E+00  0.14999999963E+04  0.15000000000E+04  0.10566000000E+00 0.  1.
        994   -1    0    0    0    0 -0.00000000000E+00 -0.00000000000E+00  0.11368683772E-12  0.17120000000E+03  0.17120000000E+03 0.  0.
         13    1    1    2    0    0  0.15493581016E+01  0.11024175450E+02  0.35772648595E+02  0.37465003756E+02  0.10566000000E+00 0.  1.
        994    1    1    2    0    0  0.19181285606E+01 -0.12182799297E+02  0.21887168145E+01  0.17165759610E+03  0.17120000000E+03 0.  0.
        998    1    1    2    0    0 -0.34674866622E+01  0.11586238472E+01  0.14620386309E+04  0.14620774001E+04  0.10000000000E+02 0.  1.
</event>
<event>
 5    1  0.1252945E-008  0.3857059E+03  0.7957747E-01  0.3426684E+00
         13   -1    0    0    0    0  0.00000000000E+00  0.00000000000E+00  0.14999999963E+04  0.15000000000E+04  0.10566000000E+00 0. -1.
        994   -1    0    0    0    0 -0.00000000000E+00 -0.00000000000E+00  0.11368683772E-12  0.17120000000E+03  0.17120000000E+03 0.  0.
         13    1    1    2    0    0 -0.10611250373E+02 -0.64935756811E+01  0.69137821627E+02  0.70248236298E+02  0.10566000000E+00 0. -1.
        994    1    1    2    0    0 -0.76965244459E+01 -0.38797164290E+01  0.15238700215E+01  0.17142360067E+03  0.17120000000E+03 0.  0.
        998    1    1    2    0    0  0.18307774819E+02  0.10373292110E+02  0.14293383046E+04  0.14295281630E+04  0.10000000000E+02 0. -1.
</event>
<event>
 5    1  0.1252945E-008  0.3818648E+03  0.7957747E-01  0.3443079E+00
         13   -1    0    0    0    0  0.00000000000E+00  0.00000000000E+00  0.14999999963E+04  0.15000000000E+04  0.10566000000E+00 0.  1.
        994   -1    0    0    0    0 -0.00000000000E+00 -0.00000000000E+00  0.11368683772E-12  0.17120000000E+03  0.17120000000E+03 0.  0.
         13    1    1    2    0    0  0.32702680121E+01  0.14255303660E+02  0.32559100293E+02  0.35693339872E+02  0.10566000000E+00 0.  1.
        994    1    1    2    0    0 -0.20810260292E+01 -0.73835525328E+01  0.33903107995E+01  0.17140531417E+03  0.17120000000E+03 0.  0.
        998    1    1    2    0    0 -0.11892419830E+01 -0.68717511274E+01  0.14640505852E+04  0.14641013460E+04  0.10000000000E+02 0.  1.
</event>
<event>
 5    1  0.1252945E-008  0.3835842E+03  0.7957747E-01  0.3435699E+00
         13   -1    0    0    0    0  0.00000000000E+00  0.00000000000E+00  0.14999999963E+04  0.15000000000E+04  0.10566000000E+00 0. -1.
        994   -1    0    0    0    0 -0.00000000000E+00 -0.00000000000E+00  0.11368683772E-12  0.17120000000E+03  0.17120000000E+03 0.  0.
         13    1    1    2    0    0  0.35395570088E+01  0.94832634460E+01  0.21296631853E+02  0.23580043293E+02  0.10566000000E+00 0. -1.
        994    1    1    2    0    0 -0.75173375413E+00 -0.48889158453E+01  0.24155312928E+01  0.17128847420E+03  0.17120000000E+03 0.  0.
        998    1    1    2    0    0 -0.27878232547E+01 -0.45943476007E+01  0.14762878331E+04  0.14763314825E+04  0.10000000000E+02 0. -1.
</event>
<event>
 5    1  0.1252945E-008  0.3826567E+03  0.7957747E-01  0.3439672E+00
         13   -1    0    0    0    0  0.00000000000E+00  0.00000000000E+00  0.14999999963E+04  0.15000000000E+04  0.10566000000E+00 0.  1.
        994   -1    0    0    0    0 -0.00000000000E+00 -0.00000000000E+00  0.11368683772E-12  0.17120000000E+03  0.17120000000E+03 0.  0.
         13    1    1    2    0    0  0.54437942878E+00 -0.23810525199E+02  0.10846015649E+03  0.11104437927E+03  0.10566000000E+00 0.  1.
        994    1    1    2    0    0 -0.54612449736E+00  0.28712643455E+01  0.28263448938E+01  0.17124827192E+03  0.17120000000E+03 0.  0.
        998    1    1    2    0    0  0.17450685832E-02  0.20939260854E+02  0.13887134949E+04  0.13889073488E+04  0.10000000000E+02 0.  1.
</event>
<event>
 5    1  0.1252945E-008  0.3801918E+03  0.7957747E-01  0.3450324E+00
         13   -1    0    0    0    0  0.00000000000E+00  0.00000000000E+00  0.14999999963E+04  0.15000000000E+04  0.10566000000E+00 0.  1.
        994   -1    0    0    0    0 -0.00000000000E+00 -0.00000000000E+00  0.11368683772E-12  0.17120000000E+03  0.17120000000E+03 0.  0.
         13    1    1    2    0    0 -0.74018138736E+01  0.10879853325E+02  0.19571830928E+02  0.23584439508E+02  0.10566000000E+00 0.  1.
        994    1    1    2    0    0  0.58456132253E+01 -0.11726450717E+02  0.46100980261E+01  0.17176255076E+03  0.17120000000E+03 0.  0.
        998    1    1    2    0    0  0.15562006483E+01  0.84659739131E+00  0.14758180673E+04  0.14758530097E+04  0.10000000000E+02 0.  0.
</event>
<event>
 5    1  0.1252945E-008  0.3890982E+03  0.7957747E-01  0.3412475E+00
         13   -1    0    0    0    0  0.00000000000E+00  0.00000000000E+00  0.14999999963E+04  0.15000000000E+04  0.10566000000E+00 0.  1.
        994   -1    0    0    0    0 -0.00000000000E+00 -0.00000000000E+00  0.11368683772E-12  0.17120000000E+03  0.17120000000E+03 0.  0.
         13    1    1    2    0    0  0.97434763304E+02  0.43082521897E+01  0.23367565253E+03  0.25321219537E+03  0.10566000000E+00 0.  1.
        994    1    1    2    0    0 -0.41901664171E+02 -0.22481510067E+02  0.29943514841E+02  0.18018663057E+03  0.17120000000E+03 0.  0.
        998    1    1    2    0    0 -0.55533099133E+02  0.18173257878E+02  0.12363808289E+04  0.12378011741E+04  0.10000000000E+02 0.  1.
</event>
<event>
 5    1  0.1252945E-008  0.3829213E+03  0.7957747E-01  0.3438536E+00
         13   -1    0    0    0    0  0.00000000000E+00  0.00000000000E+00  0.14999999963E+04  0.15000000000E+04  0.10566000000E+00 0.  1.
        994   -1    0    0    0    0 -0.00000000000E+00 -0.00000000000E+00  0.11368683772E-12  0.17120000000E+03  0.17120000000E+03 0.  0.
         13    1    1    2    0    0  0.24940142960E+02  0.22338124573E+02  0.19223249368E+03  0.19512648547E+03  0.10566000000E+00 0.  1.
        994    1    1    2    0    0 -0.19240223021E+02 -0.22638130037E+02  0.55936798286E+01  0.17384878592E+03  0.17120000000E+03 0.  0.
        998    1    1    2    0    0 -0.56999199387E+01  0.30000546383E+00  0.13021738228E+04  0.13022247286E+04  0.10000000000E+02 0.  1.
</event>
<event>
 5    1  0.1252945E-008  0.3851389E+03  0.7957747E-01  0.3429084E+00
         13   -1    0    0    0    0  0.00000000000E+00  0.00000000000E+00  0.14999999963E+04  0.15000000000E+04  0.10566000000E+00 0. -1.
        994   -1    0    0    0    0 -0.00000000000E+00 -0.00000000000E+00  0.11368683772E-12  0.17120000000E+03  0.17120000000E+03 0.  0.
         13    1    1    2    0    0 -0.31294393158E+01  0.19726222834E+02  0.11346158924E+03  0.11520616587E+03  0.10566000000E+00 0. -1.
        994    1    1    2    0    0 -0.20444523188E+02 -0.31647965541E+02  0.62415685271E+01  0.17540800845E+03  0.17120000000E+03 0.  0.
        998    1    1    2    0    0  0.23573962504E+02  0.11921742706E+02  0.13802968385E+04  0.13805858257E+04  0.10000000000E+02 0. -1.
</event>
<event>
 5    1  0.1252945E-008  0.3687086E+03  0.7957747E-01  0.3501847E+00
         13   -1    0    0    0    0  0.00000000000E+00  0.00000000000E+00  0.14999999963E+04  0.15000000000E+04  0.10566000000E+00 0. -1.
        994   -1    0    0    0    0 -0.00000000000E+00 -0.00000000000E+00  0.11368683772E-12  0.17120000000E+03  0.17120000000E+03 0.  0.
         13    1    1    2    0    0  0.61002847936E+01  0.33634255608E+02  0.57745271674E+02  0.67104427496E+02  0.10566000000E+00 0. -1.
        994    1    1    2    0    0  0.12797617692E+02 -0.84314643325E+01  0.10761780048E+02  0.17222115003E+03  0.17120000000E+03 0.  0.
        998    1    1    2    0    0 -0.18897902485E+02 -0.25202791276E+02  0.14314929446E+04  0.14318744225E+04  0.10000000000E+02 0. -1.
</event>
<event>
 5    1  0.1252945E-008  0.3849897E+03  0.7957747E-01  0.3429716E+00
         13   -1    0    0    0    0  0.00000000000E+00  0.00000000000E+00  0.14999999963E+04  0.15000000000E+04  0.10566000000E+00 0.  1.
        994   -1    0    0    0    0 -0.00000000000E+00 -0.00000000000E+00  0.11368683772E-12  0.17120000000E+03  0.17120000000E+03 0.  0.
         13    1    1    2    0    0 -0.89219465543E+01  0.61281752478E+01  0.35921798994E+02  0.37517228964E+02  0.10566000000E+00 0.  1.
        994    1    1    2    0    0  0.47192961698E+01 -0.32512596192E+01  0.17432481511E+01  0.17130476164E+03  0.17120000000E+03 0.  0.
        998    1    1    2    0    0  0.42026503845E+01 -0.28769156286E+01  0.14623349491E+04  0.14623780094E+04  0.10000000000E+02 0.  1.
</event>
<event>
 5    1  0.1252945E-008  0.2802633E+03  0.7957747E-01  0.4047843E+00
         13   -1    0    0    0    0  0.00000000000E+00  0.00000000000E+00  0.14999999963E+04  0.15000000000E+04  0.10566000000E+00 0. -1.
        994   -1    0    0    0    0 -0.00000000000E+00 -0.00000000000E+00  0.11368683772E-12  0.17120000000E+03  0.17120000000E+03 0.  0.
         13    1    1    2    0    0  0.16786824454E+03 -0.89211168033E+02  0.10283733153E+04  0.10457963792E+04  0.10566000000E+00 0. -1.
        994    1    1    2    0    0 -0.17336807103E+03  0.93347550411E+02  0.51663639925E+03  0.57878567903E+03  0.17120000000E+03 0.  0.
        998    1    1    2    0    0  0.54998264847E+01 -0.41363823781E+01 -0.45009718286E+02  0.46617941726E+02  0.10000000000E+02 0. -1.
</event>
<event>
 5    1  0.1252945E-008  0.3837564E+03  0.7957747E-01  0.3434964E+00
         13   -1    0    0    0    0  0.00000000000E+00  0.00000000000E+00  0.14999999963E+04  0.15000000000E+04  0.10566000000E+00 0. -1.
        994   -1    0    0    0    0 -0.00000000000E+00 -0.00000000000E+00  0.11368683772E-12  0.17120000000E+03  0.17120000000E+03 0.  0.
         13    1    1    2    0    0  0.27280208661E+02 -0.13278647776E+03  0.76568460512E+03  0.77759204223E+03  0.10566000000E+00 0. -1.
        994    1    1    2    0    0 -0.17278690797E+02  0.17515823883E+03  0.11231509361E+03  0.27000570742E+03  0.17120000000E+03 0.  0.
        998    1    1    2    0    0 -0.10001517864E+02 -0.42371761063E+02  0.62200029755E+03  0.62360225035E+03  0.10000000000E+02 0.  1.
</event>
<event>
 5    1  0.1252945E-008  0.3829442E+03  0.7957747E-01  0.3438438E+00
         13   -1    0    0    0    0  0.00000000000E+00  0.00000000000E+00  0.14999999963E+04  0.15000000000E+04  0.10566000000E+00 0. -1.
        994   -1    0    0    0    0 -0.00000000000E+00 -0.00000000000E+00  0.11368683772E-12  0.17120000000E+03  0.17120000000E+03 0.  0.
         13    1    1    2    0    0 -0.51970785291E+01 -0.24178907849E+02  0.93202791449E+02  0.96428215311E+02  0.10566000000E+00 0. -1.
        994    1    1    2    0    0  0.95746402829E+01  0.49326606477E+02  0.11058492753E+02  0.17876386129E+03  0.17120000000E+03 0.  0.
        998    1    1    2    0    0 -0.43775617537E+01 -0.25147698628E+02  0.13957387121E+04  0.13960079234E+04  0.10000000000E+02 0. -1.
</event>
<event>
 5    1  0.1252945E-008  0.3812078E+03  0.7957747E-01  0.3445916E+00
         13   -1    0    0    0    0  0.00000000000E+00  0.00000000000E+00  0.14999999963E+04  0.15000000000E+04  0.10566000000E+00 0. -1.
        994   -1    0    0    0    0 -0.00000000000E+00 -0.00000000000E+00  0.11368683772E-12  0.17120000000E+03  0.17120000000E+03 0.  0.
         13    1    1    2    0    0 -0.11596331037E+02  0.11886952260E+02  0.40897554724E+02  0.44140635179E+02  0.10566000000E+00 0. -1.
        994    1    1    2    0    0 -0.63506882782E+01  0.80096224799E+01  0.38726969543E+01  0.17154860266E+03  0.17120000000E+03 0.  0.
        998    1    1    2    0    0  0.17947019316E+02 -0.19896574740E+02  0.14552297446E+04  0.14555107622E+04  0.10000000000E+02 0. -1.
</event>
<event>
 5    1  0.1252945E-008  0.3740729E+03  0.7957747E-01  0.3477379E+00
         13   -1    0    0    0    0  0.00000000000E+00  0.00000000000E+00  0.14999999963E+04  0.15000000000E+04  0.10566000000E+00 0. -1.
        994   -1    0    0    0    0 -0.00000000000E+00 -0.00000000000E+00  0.11368683772E-12  0.17120000000E+03  0.17120000000E+03 0.  0.
         13    1    1    2    0    0 -0.26531338850E+02 -0.57087262557E+01  0.48182704197E+02  0.55299960618E+02  0.10566000000E+00 0. -1.
        994    1    1    2    0    0  0.20679754060E+02  0.48899528597E+01  0.86968495003E+01  0.17273285460E+03  0.17120000000E+03 0.  0.
        998    1    1    2    0    0  0.58515847900E+01  0.81877339598E+00  0.14431204426E+04  0.14431671848E+04  0.10000000000E+02 0. -1.
</event>
<event>
 5    1  0.1252945E-008  0.3782116E+03  0.7957747E-01  0.3458983E+00
         13   -1    0    0    0    0  0.00000000000E+00  0.00000000000E+00  0.14999999963E+04  0.15000000000E+04  0.10566000000E+00 0.  1.
        994   -1    0    0    0    0 -0.00000000000E+00 -0.00000000000E+00  0.11368683772E-12  0.17120000000E+03  0.17120000000E+03 0.  0.
         13    1    1    2    0    0 -0.36505863628E+02 -0.14188141846E+02  0.43979375333E+02  0.58891239305E+02  0.10566000000E+00 0.  1.
        994    1    1    2    0    0  0.24604912404E+02  0.17588104833E+02  0.18648269746E+02  0.17484833745E+03  0.17120000000E+03 0.  0.
        998    1    1    2    0    0  0.11900951223E+02 -0.33999629870E+01  0.14373723512E+04  0.14374604232E+04  0.10000000000E+02 0.  1.
</event>
<event>
 5    1  0.1252945E-008  0.3806916E+03  0.7957747E-01  0.3448152E+00
         13   -1    0    0    0    0  0.00000000000E+00  0.00000000000E+00  0.14999999963E+04  0.15000000000E+04  0.10566000000E+00 0.  1.
        994   -1    0    0    0    0 -0.00000000000E+00 -0.00000000000E+00  0.11368683772E-12  0.17120000000E+03  0.17120000000E+03 0.  0.
         13    1    1    2    0    0 -0.19654975711E+02 -0.11155026750E+02  0.64851297455E+02  0.68676448930E+02  0.10566000000E+00 0.  1.
        994    1    1    2    0    0  0.16545408507E+02  0.91576681342E+01  0.49780709092E+01  0.17231318759E+03  0.17120000000E+03 0.  0.
        998    1    1    2    0    0  0.31095672039E+01  0.19973586160E+01  0.14301706279E+04  0.14302103635E+04  0.10000000000E+02 0.  1.
</event>
<event>
 5    1  0.1252945E-008  0.3775075E+03  0.7957747E-01  0.3462084E+00
         13   -1    0    0    0    0  0.00000000000E+00  0.00000000000E+00  0.14999999963E+04  0.15000000000E+04  0.10566000000E+00 0.  1.
        994   -1    0    0    0    0 -0.00000000000E+00 -0.00000000000E+00  0.11368683772E-12  0.17120000000E+03  0.17120000000E+03 0.  0.
         13    1    1    2    0    0 -0.19799457248E+02  0.39405388258E+01  0.36216446156E+02  0.41463097928E+02  0.10566000000E+00 0.  1.
        994    1    1    2    0    0  0.40918366624E+01 -0.19449364736E+02  0.67292967769E+01  0.17248114202E+03  0.17120000000E+03 0.  0.
        998    1    1    2    0    0  0.15707620586E+02  0.15508825910E+02  0.14570542533E+04  0.14572557601E+04  0.10000000000E+02 0.  1.
</event>
<event>
 5    1  0.1252945E-008  0.3840867E+03  0.7957747E-01  0.3433555E+00
         13   -1    0    0    0    0  0.00000000000E+00  0.00000000000E+00  0.14999999963E+04  0.15000000000E+04  0.10566000000E+00 0. -1.
        994   -1    0    0    0    0 -0.00000000000E+00 -0.00000000000E+00  0.11368683772E-12  0.17120000000E+03  0.17120000000E+03 0.  0.
         13    1    1    2    0    0  0.17806258268E+02 -0.60490032950E+01  0.71955692216E+02  0.74372616471E+02  0.10566000000E+00 0. -1.
        994    1    1    2    0    0 -0.34663856208E+02  0.21604819013E+02  0.76067024853E+01  0.17616938739E+03  0.17120000000E+03 0.  0.
        998    1    1    2    0    0  0.16857597939E+02 -0.15555815718E+02  0.14204376016E+04  0.14206579961E+04  0.10000000000E+02 0. -1.
</event>
<event>
 5    1  0.1252945E-008  0.3852341E+03  0.7957747E-01  0.3428680E+00
         13   -1    0    0    0    0  0.00000000000E+00  0.00000000000E+00  0.14999999963E+04  0.15000000000E+04  0.10566000000E+00 0.  1.
        994   -1    0    0    0    0 -0.00000000000E+00 -0.00000000000E+00  0.11368683772E-12  0.17120000000E+03  0.17120000000E+03 0.  0.
         13    1    1    2    0    0  0.12678457870E+01 -0.17960433004E+02  0.10365021385E+03  0.10520248373E+03  0.10566000000E+00 0.  1.
        994    1    1    2    0    0  0.21501308025E+00  0.15738211077E+02  0.23284703790E+01  0.17193777739E+03  0.17120000000E+03 0.  0.
        998    1    1    2    0    0 -0.14828588673E+01  0.22222219266E+01  0.13940213120E+04  0.13940597389E+04  0.10000000000E+02 0.  1.
</event>
<event>
 5    1  0.1252945E-008  0.3765526E+03  0.7957747E-01  0.3466308E+00
         13   -1    0    0    0    0  0.00000000000E+00  0.00000000000E+00  0.14999999963E+04  0.15000000000E+04  0.10566000000E+00 0. -1.
        994   -1    0    0    0    0 -0.00000000000E+00 -0.00000000000E+00  0.11368683772E-12  0.17120000000E+03  0.17120000000E+03 0.  0.
         13    1    1    2    0    0  0.12624459249E+02  0.13904054428E+02  0.26923359225E+02  0.32826485296E+02  0.10566000000E+00 0. -1.
        994    1    1    2    0    0 -0.13769934381E+02 -0.16223113184E+02  0.74162126646E+01  0.17267669416E+03  0.17120000000E+03 0.  0.
        998    1    1    2    0    0  0.11454751323E+01  0.23190587557E+01  0.14656604244E+04  0.14656968205E+04  0.10000000000E+02 0. -1.
</event>
<event>
 5    1  0.1252945E-008  0.3806703E+03  0.7957747E-01  0.3448245E+00
         13   -1    0    0    0    0  0.00000000000E+00  0.00000000000E+00  0.14999999963E+04  0.15000000000E+04  0.10566000000E+00 0. -1.
        994   -1    0    0    0    0 -0.00000000000E+00 -0.00000000000E+00  0.11368683772E-12  0.17120000000E+03  0.17120000000E+03 0.  0.
         13    1    1    2    0    0 -0.12195911283E+02 -0.32359885546E+02  0.14012886842E+03  0.14433299475E+03  0.10566000000E+00 0. -1.
        994    1    1    2    0    0  0.17373351713E+02  0.33964698836E+02  0.86650894541E+01  0.17561309146E+03  0.17120000000E+03 0.  0.
        998    1    1    2    0    0 -0.51774404294E+01 -0.16048132902E+01  0.13512060384E+04  0.13512539138E+04  0.10000000000E+02 0. -1.
</event>
<event>
 5    1  0.1252945E-008  0.3821017E+03  0.7957747E-01  0.3442058E+00
         13   -1    0    0    0    0  0.00000000000E+00  0.00000000000E+00  0.14999999963E+04  0.15000000000E+04  0.10566000000E+00 0. -1.
        994   -1    0    0    0    0 -0.00000000000E+00 -0.00000000000E+00  0.11368683772E-12  0.17120000000E+03  0.17120000000E+03 0.  0.
         13    1    1    2    0    0 -0.37360952229E+01  0.16809503285E+02  0.47365781666E+02  0.50398871466E+02  0.10566000000E+00 0. -1.
        994    1    1    2    0    0 -0.72087816484E+00 -0.10688277274E+02  0.34570341911E+01  0.17156966521E+03  0.17120000000E+03 0.  0.
        998    1    1    2    0    0  0.44569733878E+01 -0.61212260116E+01  0.14491771804E+04  0.14492314633E+04  0.10000000000E+02 0. -1.
</event>
<event>
 5    1  0.1252945E-008  0.3748535E+03  0.7957747E-01  0.3473878E+00
         13   -1    0    0    0    0  0.00000000000E+00  0.00000000000E+00  0.14999999963E+04  0.15000000000E+04  0.10566000000E+00 0.  1.
        994   -1    0    0    0    0 -0.00000000000E+00 -0.00000000000E+00  0.11368683772E-12  0.17120000000E+03  0.17120000000E+03 0.  0.
         13    1    1    2    0    0 -0.21735250579E+02  0.56323955788E+01  0.36168415415E+02  0.42571239533E+02  0.10566000000E+00 0.  1.
        994    1    1    2    0    0  0.10830144141E+01  0.70043639654E+01  0.69248231321E+01  0.17148652195E+03  0.17120000000E+03 0.  0.
        998    1    1    2    0    0  0.20652236165E+02 -0.12636759544E+02  0.14569067577E+04  0.14571422385E+04  0.10000000000E+02 0.  1.
</event>
<event>
 5    1  0.1252945E-008  0.3706109E+03  0.7957747E-01  0.3493088E+00
         13   -1    0    0    0    0  0.00000000000E+00  0.00000000000E+00  0.14999999963E+04  0.15000000000E+04  0.10566000000E+00 0. -1.
        994   -1    0    0    0    0 -0.00000000000E+00 -0.00000000000E+00  0.11368683772E-12  0.17120000000E+03  0.17120000000E+03 0.  0.
         13    1    1    2    0    0 -0.14804031216E+01 -0.15334066278E+02  0.52800540362E+01  0.16285432653E+02  0.10566000000E+00 0. -1.
        994    1    1    2    0    0  0.86683955411E+01  0.20087844526E+02  0.12940953954E+02  0.17307677738E+03  0.17120000000E+03 0.  0.
        998    1    1    2    0    0 -0.71879924196E+01 -0.47537782480E+01  0.14817789883E+04  0.14818377900E+04  0.10000000000E+02 0. -1.
</event>
<event>
 5    1  0.1252945E-008  0.3844763E+03  0.7957747E-01  0.3431896E+00
         13   -1    0    0    0    0  0.00000000000E+00  0.00000000000E+00  0.14999999963E+04  0.15000000000E+04  0.10566000000E+00 0. -1.
        994   -1    0    0    0    0 -0.00000000000E+00 -0.00000000000E+00  0.11368683772E-12  0.17120000000E+03  0.17120000000E+03 0.  0.
         13    1    1    2    0    0  0.12429649383E+02 -0.15459189489E+00  0.40723825862E+02  0.42578882552E+02  0.10566000000E+00 0. -1.
        994    1    1    2    0    0 -0.74886081948E+01 -0.75344008186E+01  0.22622098927E+01  0.17154417519E+03  0.17120000000E+03 0.  0.
        998    1    1    2    0    0 -0.49410411886E+01  0.76889927134E+01  0.14570139605E+04  0.14570769423E+04  0.10000000000E+02 0. -1.
</event>
<event>
 5    1  0.1252945E-008  0.3829179E+03  0.7957747E-01  0.3438551E+00
         13   -1    0    0    0    0  0.00000000000E+00  0.00000000000E+00  0.14999999963E+04  0.15000000000E+04  0.10566000000E+00 0.  1.
        994   -1    0    0    0    0 -0.00000000000E+00 -0.00000000000E+00  0.11368683772E-12  0.17120000000E+03  0.17120000000E+03 0.  0.
         13    1    1    2    0    0 -0.23955838897E+02  0.71059678120E+01  0.10992766302E+03  0.11273189104E+03  0.10566000000E+00 0.  1.
        994    1    1    2    0    0  0.22488050438E+02 -0.82631422977E+01  0.45702251128E+01  0.17292865260E+03  0.17120000000E+03 0.  0.
        998    1    1    2    0    0  0.14677884582E+01  0.11571744857E+01  0.13855021081E+04  0.13855394564E+04  0.10000000000E+02 0.  1.
</event>
<event>
 5    1  0.1252945E-008  0.3781420E+03  0.7957747E-01  0.3459289E+00
         13   -1    0    0    0    0  0.00000000000E+00  0.00000000000E+00  0.14999999963E+04  0.15000000000E+04  0.10566000000E+00 0.  1.
        994   -1    0    0    0    0 -0.00000000000E+00 -0.00000000000E+00  0.11368683772E-12  0.17120000000E+03  0.17120000000E+03 0.  0.
         13    1    1    2    0    0 -0.69605634676E+02 -0.14475033821E+02  0.36482793997E+03  0.37169060780E+03  0.10566000000E+00 0.  1.
        994    1    1    2    0    0  0.85682870813E+02 -0.28388640209E+02  0.32987301685E+02  0.19632898746E+03  0.17120000000E+03 0.  0.
        998    1    1    2    0    0 -0.16077236137E+02  0.42863674029E+02  0.11021847546E+04  0.11031804047E+04  0.10000000000E+02 0.  1.
</event>
<event>
 5    1  0.1252945E-008  0.3854529E+03  0.7957747E-01  0.3427753E+00
         13   -1    0    0    0    0  0.00000000000E+00  0.00000000000E+00  0.14999999963E+04  0.15000000000E+04  0.10566000000E+00 0. -1.
        994   -1    0    0    0    0 -0.00000000000E+00 -0.00000000000E+00  0.11368683772E-12  0.17120000000E+03  0.17120000000E+03 0.  0.
         13    1    1    2    0    0 -0.12546718270E+02  0.15952191265E+02  0.11628147201E+03  0.11803933431E+03  0.10566000000E+00 0. -1.
        994    1    1    2    0    0  0.11547991613E+02 -0.42060587572E+02  0.76778375923E+01  0.17683562516E+03  0.17120000000E+03 0.  0.
        998    1    1    2    0    0  0.99872665719E+00  0.26108396307E+02  0.13760406867E+04  0.13763250405E+04  0.10000000000E+02 0. -1.
</event>
<event>
 5    1  0.1252945E-008  0.3808170E+03  0.7957747E-01  0.3447609E+00
         13   -1    0    0    0    0  0.00000000000E+00  0.00000000000E+00  0.14999999963E+04  0.15000000000E+04  0.10566000000E+00 0.  1.
        994   -1    0    0    0    0 -0.00000000000E+00 -0.00000000000E+00  0.11368683772E-12  0.17120000000E+03  0.17120000000E+03 0.  0.
         13    1    1    2    0    0  0.11514490474E+02  0.19444212439E+02  0.68116322357E+02  0.71767021840E+02  0.10566000000E+00 0.  1.
        994    1    1    2    0    0 -0.30716283228E+01 -0.11761948696E+02  0.42141299020E+01  0.17168278082E+03  0.17120000000E+03 0.  0.
        998    1    1    2    0    0 -0.84428621509E+01 -0.76822637427E+01  0.14276695440E+04  0.14277501973E+04  0.10000000000E+02 0.  1.
</event>
<event>
 5    1  0.1252945E-008  0.3717458E+03  0.7957747E-01  0.3487906E+00
         13   -1    0    0    0    0  0.00000000000E+00  0.00000000000E+00  0.14999999963E+04  0.15000000000E+04  0.10566000000E+00 0. -1.
        994   -1    0    0    0    0 -0.00000000000E+00 -0.00000000000E+00  0.11368683772E-12  0.17120000000E+03  0.17120000000E+03 0.  0.
         13    1    1    2    0    0  0.17296222650E+03  0.95823144046E+02  0.75071002450E+03  0.77631408513E+03  0.10566000000E+00 0. -1.
        994    1    1    2    0    0 -0.18627191812E+03 -0.98871592350E+02  0.18114761333E+03  0.32649152680E+03  0.17120000000E+03 0.  0.
        998    1    1    2    0    0  0.13309691624E+02  0.30484483038E+01  0.56814235845E+03  0.56839438807E+03  0.10000000000E+02 0. -1.
</event>
<event>
 5    1  0.1252945E-008  0.3793470E+03  0.7957747E-01  0.3454007E+00
         13   -1    0    0    0    0  0.00000000000E+00  0.00000000000E+00  0.14999999963E+04  0.15000000000E+04  0.10566000000E+00 0. -1.
        994   -1    0    0    0    0 -0.00000000000E+00 -0.00000000000E+00  0.11368683772E-12  0.17120000000E+03  0.17120000000E+03 0.  0.
         13    1    1    2    0    0  0.61718275368E+01  0.13295617595E+02  0.22465724543E+02  0.26825078670E+02  0.10566000000E+00 0. -1.
        994    1    1    2    0    0  0.22237736653E+02 -0.16792021827E+02  0.70688550558E+01  0.17359694018E+03  0.17120000000E+03 0.  0.
        998    1    1    2    0    0 -0.28409564190E+02  0.34964042313E+01  0.14704654167E+04  0.14707779811E+04  0.10000000000E+02 0. -1.
</event>
<event>
 5    1  0.1252945E-008  0.3860526E+03  0.7957747E-01  0.3425220E+00
         13   -1    0    0    0    0  0.00000000000E+00  0.00000000000E+00  0.14999999963E+04  0.15000000000E+04  0.10566000000E+00 0. -1.
        994   -1    0    0    0    0 -0.00000000000E+00 -0.00000000000E+00  0.11368683772E-12  0.17120000000E+03  0.17120000000E+03 0.  0.
         13    1    1    2    0    0 -0.63214225821E+01  0.10493511149E+02  0.72633553915E+02  0.73659476498E+02  0.10566000000E+00 0. -1.
        994    1    1    2    0    0  0.38383298952E+01  0.10892836291E+01  0.11605901082E+01  0.17125041981E+03  0.17120000000E+03 0.  0.
        998    1    1    2    0    0  0.24830926869E+01 -0.11582794778E+02  0.14262058523E+04  0.14262901037E+04  0.10000000000E+02 0. -1.
</event>
<event>
 5    1  0.1252945E-008  0.3754979E+03  0.7957747E-01  0.3470999E+00
         13   -1    0    0    0    0  0.00000000000E+00  0.00000000000E+00  0.14999999963E+04  0.15000000000E+04  0.10566000000E+00 0.  1.
        994   -1    0    0    0    0 -0.00000000000E+00 -0.00000000000E+00  0.11368683772E-12  0.17120000000E+03  0.17120000000E+03 0.  0.
         13    1    1    2    0    0  0.63212476015E+01 -0.21158237857E+02  0.29137170502E+02  0.36559746571E+02  0.10566000000E+00 0.  1.
        994    1    1    2    0    0 -0.44881616802E+02  0.73499749142E+02  0.32022619507E+02  0.19429735153E+03  0.17120000000E+03 0.  0.
        998    1    1    2    0    0  0.38560369201E+02 -0.52341511285E+02  0.14388402063E+04  0.14403429019E+04  0.10000000000E+02 0.  1.
</event>
<event>
 5    1  0.1252945E-008  0.3852176E+03  0.7957747E-01  0.3428750E+00
         13   -1    0    0    0    0  0.00000000000E+00  0.00000000000E+00  0.14999999963E+04  0.15000000000E+04  0.10566000000E+00 0.  1.
        994   -1    0    0    0    0 -0.00000000000E+00 -0.00000000000E+00  0.11368683772E-12  0.17120000000E+03  0.17120000000E+03 0.  0.
         13    1    1    2    0    0  0.20962480936E+02  0.12862950865E+02  0.14815643886E+03  0.15018396269E+03  0.10566000000E+00 0.  1.
        994    1    1    2    0    0 -0.40228062436E+02 -0.22944065498E+02  0.86024493934E+01  0.17756173373E+03  0.17120000000E+03 0.  0.
        998    1    1    2    0    0  0.19265581500E+02  0.10081114633E+02  0.13432411080E+04  0.13434543036E+04  0.10000000000E+02 0.  1.
</event>
<event>
 5    1  0.1252945E-008  0.3716387E+03  0.7957747E-01  0.3488394E+00
         13   -1    0    0    0    0  0.00000000000E+00  0.00000000000E+00  0.14999999963E+04  0.15000000000E+04  0.10566000000E+00 0. -1.
        994   -1    0    0    0    0 -0.00000000000E+00 -0.00000000000E+00  0.11368683772E-12  0.17120000000E+03  0.17120000000E+03 0.  0.
         13    1    1    2    0    0 -0.46768845890E+02 -0.49269073642E+02  0.26475526522E+03  0.27333153530E+03  0.10566000000E+00 0. -1.
        994    1    1    2    0    0 -0.45751890137E+02  0.24827271056E+02  0.21397072365E+02  0.18021349435E+03  0.17120000000E+03 0.  0.
        998    1    1    2    0    0  0.92520736027E+02  0.24441802586E+02  0.12138476587E+04  0.12176549703E+04  0.10000000000E+02 0.  1.
</event>
<event>
 5    1  0.1252945E-008  0.3840606E+03  0.7957747E-01  0.3433666E+00
         13   -1    0    0    0    0  0.00000000000E+00  0.00000000000E+00  0.14999999963E+04  0.15000000000E+04  0.10566000000E+00 0. -1.
        994   -1    0    0    0    0 -0.00000000000E+00 -0.00000000000E+00  0.11368683772E-12  0.17120000000E+03  0.17120000000E+03 0.  0.
         13    1    1    2    0    0  0.62773342291E+01 -0.17703614458E+02  0.88494420049E+02  0.90465996008E+02  0.10566000000E+00 0. -1.
        994    1    1    2    0    0  0.38222668542E-01  0.38379545680E+01  0.21458648715E+01  0.17125646292E+03  0.17120000000E+03 0.  0.
        998    1    1    2    0    0 -0.63155568977E+01  0.13865659890E+02  0.14093597114E+04  0.14094775411E+04  0.10000000000E+02 0. -1.
</event>
<event>
 5    1  0.1252945E-008  0.3800326E+03  0.7957747E-01  0.3451017E+00
         13   -1    0    0    0    0  0.00000000000E+00  0.00000000000E+00  0.14999999963E+04  0.15000000000E+04  0.10566000000E+00 0.  1.
        994   -1    0    0    0    0 -0.00000000000E+00 -0.00000000000E+00  0.11368683772E-12  0.17120000000E+03  0.17120000000E+03 0.  0.
         13    1    1    2    0    0  0.24879816296E+00  0.10782255147E+02  0.12230932152E+02  0.16307231277E+02  0.10566000000E+00 0.  1.
        994    1    1    2    0    0 -0.63918091224E+00 -0.11170626942E+02  0.45352810216E+01  0.17162517366E+03  0.17120000000E+03 0.  0.
        998    1    1    2    0    0  0.39038274928E+00  0.38837179504E+00  0.14832337831E+04  0.14832675951E+04  0.10000000000E+02 0.  1.
</event>
<event>
 5    1  0.1252945E-008  0.3788558E+03  0.7957747E-01  0.3456156E+00
         13   -1    0    0    0    0  0.00000000000E+00  0.00000000000E+00  0.14999999963E+04  0.15000000000E+04  0.10566000000E+00 0. -1.
        994   -1    0    0    0    0 -0.00000000000E+00 -0.00000000000E+00  0.11368683772E-12  0.17120000000E+03  0.17120000000E+03 0.  0.
         13    1    1    2    0    0  0.76893650489E+02  0.79236430277E+02  0.60838337267E+03  0.61832142505E+03  0.10566000000E+00 0. -1.
        994    1    1    2    0    0 -0.73580212665E+02 -0.10261257298E+03  0.60219873688E+02  0.22108654644E+03  0.17120000000E+03 0.  0.
        998    1    1    2    0    0 -0.33134378246E+01  0.23376142704E+02  0.83139674992E+03  0.83179202851E+03  0.10000000000E+02 0. -1.
</event>
<event>
 5    1  0.1252945E-008  0.4156780E+03  0.7957747E-01  0.3309147E+00
         13   -1    0    0    0    0  0.00000000000E+00  0.00000000000E+00  0.14999999963E+04  0.15000000000E+04  0.10566000000E+00 0.  1.
        994   -1    0    0    0    0 -0.00000000000E+00 -0.00000000000E+00  0.11368683772E-12  0.17120000000E+03  0.17120000000E+03 0.  0.
         13    1    1    2    0    0  0.27686568793E+02 -0.86940106385E+01 -0.44769184743E+01  0.29363001815E+02  0.10566000000E+00 0.  1.
        994    1    1    2    0    0 -0.29136283649E+02  0.12167012024E+02  0.41688161942E+02  0.17900922337E+03  0.17120000000E+03 0.  0.
        998    1    1    2    0    0  0.14497148557E+01 -0.34730013858E+01  0.14627887528E+04  0.14628277748E+04  0.10000000000E+02 0.  1.
</event>
<event>
 5    1  0.1252945E-008  0.3844669E+03  0.7957747E-01  0.3431936E+00
         13   -1    0    0    0    0  0.00000000000E+00  0.00000000000E+00  0.14999999963E+04  0.15000000000E+04  0.10566000000E+00 0. -1.
        994   -1    0    0    0    0 -0.00000000000E+00 -0.00000000000E+00  0.11368683772E-12  0.17120000000E+03  0.17120000000E+03 0.  0.
         13    1    1    2    0    0 -0.12323880771E+02 -0.23598874653E+01  0.42342542471E+02  0.44162757761E+02  0.10566000000E+00 0. -1.
        994    1    1    2    0    0  0.30960616347E+01 -0.12875491058E+01  0.19321080446E+01  0.17124373396E+03  0.17120000000E+03 0.  0.
        998    1    1    2    0    0  0.92278191363E+01  0.36474365711E+01  0.14557253458E+04  0.14557935083E+04  0.10000000000E+02 0. -1.
</event>
<event>
 5    1  0.1252945E-008  0.3833433E+03  0.7957747E-01  0.3436729E+00
         13   -1    0    0    0    0  0.00000000000E+00  0.00000000000E+00  0.14999999963E+04  0.15000000000E+04  0.10566000000E+00 0.  1.
        994   -1    0    0    0    0 -0.00000000000E+00 -0.00000000000E+00  0.11368683772E-12  0.17120000000E+03  0.17120000000E+03 0.  0.
         13    1    1    2    0    0 -0.42411998441E+01  0.13677819798E+02  0.40645827305E+02  0.43094836952E+02  0.10566000000E+00 0.  1.
        994    1    1    2    0    0  0.24961493557E+01 -0.11694601624E+02  0.29278204457E+01  0.17164208867E+03  0.17120000000E+03 0.  0.
        998    1    1    2    0    0  0.17450504884E+01 -0.19832181745E+01  0.14564263485E+04  0.14564630744E+04  0.10000000000E+02 0.  1.
</event>
<event>
 5    1  0.1327686E-008  0.3853938E+03  0.7957747E-01  0.3428004E+00
         13   -1    0    0    0    0  0.00000000000E+00  0.00000000000E+00  0.14999999963E+04  0.15000000000E+04  0.10566000000E+00 0. -1.
        994   -1    0    0    0    0 -0.00000000000E+00 -0.00000000000E+00  0.11368683772E-12  0.17120000000E+03  0.17120000000E+03 0.  0.
         13    1    1    2    0    0 -0.57990988589E+01  0.15205653121E+02  0.86123534198E+02  0.87647679611E+02  0.10566000000E+00 0. -1.
        994    1    1    2    0    0  0.13064555060E+02 -0.16595837961E+02  0.29013202201E+01  0.17252235245E+03  0.17120000000E+03 0.  0.
        998    1    1    2    0    0 -0.72654562008E+01  0.13901848403E+01  0.14109751419E+04  0.14110299679E+04  0.10000000000E+02 0. -1.
</event>
<event>
 5    1  0.1252945E-008  0.3750383E+03  0.7957747E-01  0.3473052E+00
         13   -1    0    0    0    0  0.00000000000E+00  0.00000000000E+00  0.14999999963E+04  0.15000000000E+04  0.10566000000E+00 0. -1.
        994   -1    0    0    0    0 -0.00000000000E+00 -0.00000000000E+00  0.11368683772E-12  0.17120000000E+03  0.17120000000E+03 0.  0.
         13    1    1    2    0    0 -0.65883061904E+01  0.85198937149E+01  0.60778728517E+01  0.12367136686E+02  0.10566000000E+00 0. -1.
        994    1    1    2    0    0  0.41110424792E+01  0.34954767671E+02  0.10880839294E+02  0.17511872863E+03  0.17120000000E+03 0.  0.
        998    1    1    2    0    0  0.24772637112E+01 -0.43474661386E+02  0.14830412841E+04  0.14837141347E+04  0.10000000000E+02 0. -1.
</event>
<event>
 5    1  0.1252945E-008  0.3741618E+03  0.7957747E-01  0.3476980E+00
         13   -1    0    0    0    0  0.00000000000E+00  0.00000000000E+00  0.14999999963E+04  0.15000000000E+04  0.10566000000E+00 0. -1.
        994   -1    0    0    0    0 -0.00000000000E+00 -0.00000000000E+00  0.11368683772E-12  0.17120000000E+03  0.17120000000E+03 0.  0.
         13    1    1    2    0    0  0.23716494451E+02  0.53363421288E+02  0.29052517753E+03  0.29633598632E+03  0.10566000000E+00 0. -1.
        994    1    1    2    0    0  0.11730734043E+02 -0.12611834595E+02  0.81217292808E+01  0.17225583003E+03  0.17120000000E+03 0.  0.
        998    1    1    2    0    0 -0.35447228494E+02 -0.40751586694E+02  0.12013530895E+04  0.12026081837E+04  0.10000000000E+02 0. -1.
</event>
<event>
 5    1  0.1252945E-008  0.3834024E+03  0.7957747E-01  0.3436476E+00
         13   -1    0    0    0    0  0.00000000000E+00  0.00000000000E+00  0.14999999963E+04  0.15000000000E+04  0.10566000000E+00 0. -1.
        994   -1    0    0    0    0 -0.00000000000E+00 -0.00000000000E+00  0.11368683772E-12  0.17120000000E+03  0.17120000000E+03 0.  0.
         13    1    1    2    0    0  0.15551054614E+02  0.10089498443E+02  0.75357134758E+02  0.77603751207E+02  0.10566000000E+00 0. -1.
        994    1    1    2    0    0  0.39071487294E+01 -0.53066509125E+01  0.25689693963E+01  0.17134604156E+03  0.17120000000E+03 0.  0.
        998    1    1    2    0    0 -0.19458203343E+02 -0.47828475302E+01  0.14220738921E+04  0.14222502072E+04  0.10000000000E+02 0. -1.
</event>
<event>
 5    1  0.1252945E-008  0.3838638E+03  0.7957747E-01  0.3434505E+00
         13   -1    0    0    0    0  0.00000000000E+00  0.00000000000E+00  0.14999999963E+04  0.15000000000E+04  0.10566000000E+00 0. -1.
        994   -1    0    0    0    0 -0.00000000000E+00 -0.00000000000E+00  0.11368683772E-12  0.17120000000E+03  0.17120000000E+03 0.  0.
         13    1    1    2    0    0  0.11094152281E+02  0.32161289434E+01  0.31495628407E+02  0.33547123170E+02  0.10566000000E+00 0. -1.
        994    1    1    2    0    0  0.80644220438E+01 -0.50986931596E+01  0.24958046692E+01  0.17148382027E+03  0.17120000000E+03 0.  0.
        998    1    1    2    0    0 -0.19158574325E+02  0.18825642162E+01  0.14660085632E+04  0.14661690566E+04  0.10000000000E+02 0. -1.
</event>
<event>
 5    1  0.1252945E-008  0.3823358E+03  0.7957747E-01  0.3441051E+00
         13   -1    0    0    0    0  0.00000000000E+00  0.00000000000E+00  0.14999999963E+04  0.15000000000E+04  0.10566000000E+00 0. -1.
        994   -1    0    0    0    0 -0.00000000000E+00 -0.00000000000E+00  0.11368683772E-12  0.17120000000E+03  0.17120000000E+03 0.  0.
         13    1    1    2    0    0 -0.26922467062E+02 -0.20570828789E+01  0.13537972341E+03  0.13804612091E+03  0.10566000000E+00 0. -1.
        994    1    1    2    0    0  0.14997947000E+01  0.60236826000E+01  0.30865202846E+01  0.17134030683E+03  0.17120000000E+03 0.  0.
        998    1    1    2    0    0  0.25422672362E+02 -0.39665997211E+01  0.13615337526E+04  0.13618135723E+04  0.10000000000E+02 0. -1.
</event>
<event>
 5    1  0.1252945E-008  0.3813085E+03  0.7957747E-01  0.3445481E+00
         13   -1    0    0    0    0  0.00000000000E+00  0.00000000000E+00  0.14999999963E+04  0.15000000000E+04  0.10566000000E+00 0. -1.
        994   -1    0    0    0    0 -0.00000000000E+00 -0.00000000000E+00  0.11368683772E-12  0.17120000000E+03  0.17120000000E+03 0.  0.
         13    1    1    2    0    0 -0.80704708405E+01  0.31517910361E+02  0.15142807439E+03  0.15488377594E+03  0.10566000000E+00 0. -1.
        994    1    1    2    0    0  0.25934288320E+02 -0.13583341630E+02  0.63321617653E+01  0.17380054877E+03  0.17120000000E+03 0.  0.
        998    1    1    2    0    0 -0.17863817479E+02 -0.17934568731E+02  0.13422397601E+04  0.13425156753E+04  0.10000000000E+02 0. -1.
</event>
<event>
 5    1  0.1252945E-008  0.3763829E+03  0.7957747E-01  0.3467061E+00
         13   -1    0    0    0    0  0.00000000000E+00  0.00000000000E+00  0.14999999963E+04  0.15000000000E+04  0.10566000000E+00 0.  1.
        994   -1    0    0    0    0 -0.00000000000E+00 -0.00000000000E+00  0.11368683772E-12  0.17120000000E+03  0.17120000000E+03 0.  0.
         13    1    1    2    0    0 -0.12271584199E+02  0.39177677262E+02  0.15344014069E+03  0.15883755889E+03  0.10566000000E+00 0.  1.
        994    1    1    2    0    0 -0.12835226043E+01 -0.71946178941E+01  0.61510150834E+01  0.17146627932E+03  0.17120000000E+03 0.  0.
        998    1    1    2    0    0  0.13555106804E+02 -0.31983059368E+02  0.13404088405E+04  0.13408961618E+04  0.10000000000E+02 0.  1.
</event>
<event>
 5    1  0.1252945E-008  0.3745415E+03  0.7957747E-01  0.3475276E+00
         13   -1    0    0    0    0  0.00000000000E+00  0.00000000000E+00  0.14999999963E+04  0.15000000000E+04  0.10566000000E+00 0. -1.
        994   -1    0    0    0    0 -0.00000000000E+00 -0.00000000000E+00  0.11368683772E-12  0.17120000000E+03  0.17120000000E+03 0.  0.
         13    1    1    2    0    0 -0.25289502547E+01  0.54399499415E+02  0.29376698580E+03  0.29877207740E+03  0.10566000000E+00 0. -1.
        994    1    1    2    0    0  0.92249911362E+01  0.10967123608E+02  0.76138823246E+01  0.17196740815E+03  0.17120000000E+03 0.  0.
        998    1    1    2    0    0 -0.66960408815E+01 -0.65366623023E+02  0.11986191282E+04  0.12004605144E+04  0.10000000000E+02 0. -1.
</event>
<event>
 5    1  0.1252945E-008  0.3783928E+03  0.7957747E-01  0.3458186E+00
         13   -1    0    0    0    0  0.00000000000E+00  0.00000000000E+00  0.14999999963E+04  0.15000000000E+04  0.10566000000E+00 0.  1.
        994   -1    0    0    0    0 -0.00000000000E+00 -0.00000000000E+00  0.11368683772E-12  0.17120000000E+03  0.17120000000E+03 0.  0.
         13    1    1    2    0    0 -0.65986404251E+01  0.41812115190E+02  0.20261713891E+03  0.20699157272E+03  0.10566000000E+00 0.  1.
        994    1    1    2    0    0 -0.38912253510E+01 -0.78587837711E+01  0.52051311564E+01  0.17150345626E+03  0.17120000000E+03 0.  0.
        998    1    1    2    0    0  0.10489865776E+02 -0.33953331419E+02  0.12921777262E+04  0.12927049710E+04  0.10000000000E+02 0.  1.
</event>
<event>
 5    1  0.1252945E-008  0.3721782E+03  0.7957747E-01  0.3485940E+00
         13   -1    0    0    0    0  0.00000000000E+00  0.00000000000E+00  0.14999999963E+04  0.15000000000E+04  0.10566000000E+00 0. -1.
        994   -1    0    0    0    0 -0.00000000000E+00 -0.00000000000E+00  0.11368683772E-12  0.17120000000E+03  0.17120000000E+03 0.  0.
         13    1    1    2    0    0 -0.88675247859E+01  0.67786089982E+02  0.25650143115E+03  0.26545542439E+03  0.10566000000E+00 0. -1.
        994    1    1    2    0    0 -0.97896264172E+02 -0.82147084873E+02  0.66449314151E+02  0.22373371101E+03  0.17120000000E+03 0.  0.
        998    1    1    2    0    0  0.10676378896E+03  0.14360994891E+02  0.11770492510E+04  0.11820108646E+04  0.10000000000E+02 0. -1.
</event>
<event>
 5    1  0.1252945E-008  0.3735444E+03  0.7957747E-01  0.3479758E+00
         13   -1    0    0    0    0  0.00000000000E+00  0.00000000000E+00  0.14999999963E+04  0.15000000000E+04  0.10566000000E+00 0. -1.
        994   -1    0    0    0    0 -0.00000000000E+00 -0.00000000000E+00  0.11368683772E-12  0.17120000000E+03  0.17120000000E+03 0.  0.
         13    1    1    2    0    0  0.66876939883E+02 -0.65543071639E+02  0.28614977309E+03  0.30108158883E+03  0.10566000000E+00 0. -1.
        994    1    1    2    0    0 -0.54168265797E+02  0.66112568032E+02  0.39158038438E+02  0.19531478348E+03  0.17120000000E+03 0.  0.
        998    1    1    2    0    0 -0.12708674086E+02 -0.56949639341E+00  0.11746921848E+04  0.11748036277E+04  0.10000000000E+02 0. -1.
</event>
<event>
 5    1  0.1252945E-008  0.3809985E+03  0.7957747E-01  0.3446822E+00
         13   -1    0    0    0    0  0.00000000000E+00  0.00000000000E+00  0.14999999963E+04  0.15000000000E+04  0.10566000000E+00 0. -1.
        994   -1    0    0    0    0 -0.00000000000E+00 -0.00000000000E+00  0.11368683772E-12  0.17120000000E+03  0.17120000000E+03 0.  0.
         13    1    1    2    0    0 -0.63906022465E+01  0.17377876103E+02  0.47147302442E+02  0.50652834733E+02  0.10566000000E+00 0. -1.
        994    1    1    2    0    0 -0.15624114140E+02 -0.11440804922E+02  0.48804220395E+01  0.17236085251E+03  0.17120000000E+03 0.  0.
        998    1    1    2    0    0  0.22014716387E+02 -0.59370711812E+01  0.14479722718E+04  0.14481863128E+04  0.10000000000E+02 0. -1.
</event>
<event>
 5    1  0.1252945E-008  0.3843361E+03  0.7957747E-01  0.3432493E+00
         13   -1    0    0    0    0  0.00000000000E+00  0.00000000000E+00  0.14999999963E+04  0.15000000000E+04  0.10566000000E+00 0. -1.
        994   -1    0    0    0    0 -0.00000000000E+00 -0.00000000000E+00  0.11368683772E-12  0.17120000000E+03  0.17120000000E+03 0.  0.
         13    1    1    2    0    0  0.18154017458E+02  0.51875053096E+01  0.94005332814E+02  0.95882700852E+02  0.10566000000E+00 0. -1.
        994    1    1    2    0    0 -0.15475743114E+02  0.25123311930E+02  0.48349433988E+01  0.17379153059E+03  0.17120000000E+03 0.  0.
        998    1    1    2    0    0 -0.26782743439E+01 -0.30310817240E+02  0.14011597201E+04  0.14015257686E+04  0.10000000000E+02 0. -1.
</event>
<event>
 5    1  0.1252945E-008  0.3770300E+03  0.7957747E-01  0.3464193E+00
         13   -1    0    0    0    0  0.00000000000E+00  0.00000000000E+00  0.14999999963E+04  0.15000000000E+04  0.10566000000E+00 0. -1.
        994   -1    0    0    0    0 -0.00000000000E+00 -0.00000000000E+00  0.11368683772E-12  0.17120000000E+03  0.17120000000E+03 0.  0.
         13    1    1    2    0    0  0.12208485496E+02 -0.13447545641E+02  0.27070060263E+02  0.32598817901E+02  0.10566000000E+00 0. -1.
        994    1    1    2    0    0 -0.22747717305E+02 -0.69798267636E+01  0.75537619008E+01  0.17301062379E+03  0.17120000000E+03 0.  0.
        998    1    1    2    0    0  0.10539231810E+02  0.20427372404E+02  0.14653761741E+04  0.14655905583E+04  0.10000000000E+02 0. -1.
</event>
<event>
 5    1  0.1252945E-008  0.3704016E+03  0.7957747E-01  0.3494047E+00
         13   -1    0    0    0    0  0.00000000000E+00  0.00000000000E+00  0.14999999963E+04  0.15000000000E+04  0.10566000000E+00 0.  1.
        994   -1    0    0    0    0 -0.00000000000E+00 -0.00000000000E+00  0.11368683772E-12  0.17120000000E+03  0.17120000000E+03 0.  0.
         13    1    1    2    0    0  0.12965455910E+02  0.60059303426E+02  0.26108865031E+03  0.26822102352E+03  0.10566000000E+00 0.  1.
        994    1    1    2    0    0 -0.16747254366E+02  0.55664908654E+01  0.10135421782E+02  0.17240540341E+03  0.17120000000E+03 0.  0.
        998    1    1    2    0    0  0.37817984567E+01 -0.65625794292E+02  0.12287759242E+04  0.12305735731E+04  0.10000000000E+02 0.  1.
</event>
<event>
 5    1  0.1252945E-008  0.3691975E+03  0.7957747E-01  0.3499587E+00
         13   -1    0    0    0    0  0.00000000000E+00  0.00000000000E+00  0.14999999963E+04  0.15000000000E+04  0.10566000000E+00 0. -1.
        994   -1    0    0    0    0 -0.00000000000E+00 -0.00000000000E+00  0.11368683772E-12  0.17120000000E+03  0.17120000000E+03 0.  0.
         13    1    1    2    0    0  0.15002596002E+03 -0.40023710657E+02  0.82817774436E+03  0.84260790022E+03  0.10566000000E+00 0. -1.
        994    1    1    2    0    0 -0.12632717499E+03  0.16873787778E+02  0.68320666729E+02  0.22409915965E+03  0.17120000000E+03 0.  0.
        998    1    1    2    0    0 -0.23698785031E+02  0.23149922879E+02  0.60350158519E+03  0.60449294013E+03  0.10000000000E+02 0. -1.
</event>
<event>
 5    1  0.1252945E-008  0.3784166E+03  0.7957747E-01  0.3458082E+00
         13   -1    0    0    0    0  0.00000000000E+00  0.00000000000E+00  0.14999999963E+04  0.15000000000E+04  0.10566000000E+00 0. -1.
        994   -1    0    0    0    0 -0.00000000000E+00 -0.00000000000E+00  0.11368683772E-12  0.17120000000E+03  0.17120000000E+03 0.  0.
         13    1    1    2    0    0  0.19758635523E+02 -0.10519326075E+02  0.53406567965E+02  0.57907966332E+02  0.10566000000E+00 0. -1.
        994    1    1    2    0    0  0.26046375672E+01 -0.16049941689E+02  0.58235616780E+01  0.17206899382E+03  0.17120000000E+03 0.  0.
        998    1    1    2    0    0 -0.22363273090E+02  0.26569267764E+02  0.14407698666E+04  0.14412230398E+04  0.10000000000E+02 0. -1.
</event>
<event>
 5    1  0.1252945E-008  0.3709336E+03  0.7957747E-01  0.3491611E+00
         13   -1    0    0    0    0  0.00000000000E+00  0.00000000000E+00  0.14999999963E+04  0.15000000000E+04  0.10566000000E+00 0. -1.
        994   -1    0    0    0    0 -0.00000000000E+00 -0.00000000000E+00  0.11368683772E-12  0.17120000000E+03  0.17120000000E+03 0.  0.
         13    1    1    2    0    0  0.14447182833E+02  0.17347027453E+02  0.24825350212E+02  0.33555172931E+02  0.10566000000E+00 0. -1.
        994    1    1    2    0    0 -0.17166922312E+02 -0.17274901516E+02  0.10828801896E+02  0.17326231095E+03  0.17120000000E+03 0.  0.
        998    1    1    2    0    0  0.27197394790E+01 -0.72125937597E-01  0.14643458442E+04  0.14643825161E+04  0.10000000000E+02 0. -1.
</event>
<event>
 5    1  0.1252945E-008  0.3764033E+03  0.7957747E-01  0.3466970E+00
         13   -1    0    0    0    0  0.00000000000E+00  0.00000000000E+00  0.14999999963E+04  0.15000000000E+04  0.10566000000E+00 0.  1.
        994   -1    0    0    0    0 -0.00000000000E+00 -0.00000000000E+00  0.11368683772E-12  0.17120000000E+03  0.17120000000E+03 0.  0.
         13    1    1    2    0    0 -0.27233869399E+02  0.25748249347E+02  0.12868319987E+03  0.13402997083E+03  0.10566000000E+00 0.  1.
        994    1    1    2    0    0  0.70716695658E+01  0.51935149755E+01  0.62203537976E+01  0.17153750001E+03  0.17120000000E+03 0.  0.
        998    1    1    2    0    0  0.20162199833E+02 -0.30941764323E+02  0.13650964426E+04  0.13656325292E+04  0.10000000000E+02 0.  1.
</event>
<event>
 5    1  0.1252945E-008  0.3831143E+03  0.7957747E-01  0.3437709E+00
         13   -1    0    0    0    0  0.00000000000E+00  0.00000000000E+00  0.14999999963E+04  0.15000000000E+04  0.10566000000E+00 0. -1.
        994   -1    0    0    0    0 -0.00000000000E+00 -0.00000000000E+00  0.11368683772E-12  0.17120000000E+03  0.17120000000E+03 0.  0.
         13    1    1    2    0    0  0.10610933280E+02  0.71351675003E+01  0.31737778049E+02  0.34216958366E+02  0.10566000000E+00 0. -1.
        994    1    1    2    0    0 -0.24764958225E+02  0.32121359655E+02  0.80317754878E+01  0.17612221416E+03  0.17120000000E+03 0.  0.
        998    1    1    2    0    0  0.14154024946E+02 -0.39256527155E+02  0.14602304427E+04  0.14608608275E+04  0.10000000000E+02 0. -1.
</event>
<event>
 5    1  0.1252945E-008  0.3788943E+03  0.7957747E-01  0.3455987E+00
         13   -1    0    0    0    0  0.00000000000E+00  0.00000000000E+00  0.14999999963E+04  0.15000000000E+04  0.10566000000E+00 0. -1.
        994   -1    0    0    0    0 -0.00000000000E+00 -0.00000000000E+00  0.11368683772E-12  0.17120000000E+03  0.17120000000E+03 0.  0.
         13    1    1    2    0    0  0.18001628085E+02 -0.64871216116E+01  0.38349658534E+02  0.42858474474E+02  0.10566000000E+00 0. -1.
        994    1    1    2    0    0 -0.29147446303E+01  0.10630162386E+01  0.47246172519E+01  0.17129327993E+03  0.17120000000E+03 0.  0.
        998    1    1    2    0    0 -0.15086883455E+02  0.54241053730E+01  0.14569257205E+04  0.14570482456E+04  0.10000000000E+02 0. -1.
</event>
<event>
 5    1  0.1252945E-008  0.3852799E+03  0.7957747E-01  0.3428486E+00
         13   -1    0    0    0    0  0.00000000000E+00  0.00000000000E+00  0.14999999963E+04  0.15000000000E+04  0.10566000000E+00 0. -1.
        994   -1    0    0    0    0 -0.00000000000E+00 -0.00000000000E+00  0.11368683772E-12  0.17120000000E+03  0.17120000000E+03 0.  0.
         13    1    1    2    0    0 -0.16262738304E+02 -0.39385549274E+01  0.10049925413E+03  0.10188277635E+03  0.10566000000E+00 0. -1.
        994    1    1    2    0    0  0.27866788695E+01  0.86106948616E+00  0.15192030531E+01  0.17123158294E+03  0.17120000000E+03 0.  0.
        998    1    1    2    0    0  0.13476059435E+02  0.30774854413E+01  0.13979815391E+04  0.13980856407E+04  0.10000000000E+02 0. -1.
</event>
<event>
 5    1  0.1252945E-008  0.4144571E+03  0.7957747E-01  0.3313605E+00
         13   -1    0    0    0    0  0.00000000000E+00  0.00000000000E+00  0.14999999963E+04  0.15000000000E+04  0.10566000000E+00 0. -1.
        994   -1    0    0    0    0 -0.00000000000E+00 -0.00000000000E+00  0.11368683772E-12  0.17120000000E+03  0.17120000000E+03 0.  0.
         13    1    1    2    0    0  0.11310386389E+03 -0.79062707262E+02  0.23234812821E+03  0.27023889349E+03  0.10566000000E+00 0. -1.
        994    1    1    2    0    0 -0.82318328820E+02  0.74948644915E+02  0.90518461548E+02  0.22337555487E+03  0.17120000000E+03 0.  0.
        998    1    1    2    0    0 -0.30785535073E+02  0.41140623464E+01  0.11771334065E+04  0.11775855516E+04  0.10000000000E+02 0. -1.
</event>
<event>
 5    1  0.1410872E-008  0.3857733E+03  0.7957747E-01  0.3426399E+00
         13   -1    0    0    0    0  0.00000000000E+00  0.00000000000E+00  0.14999999963E+04  0.15000000000E+04  0.10566000000E+00 0. -1.
        994   -1    0    0    0    0 -0.00000000000E+00 -0.00000000000E+00  0.11368683772E-12  0.17120000000E+03  0.17120000000E+03 0.  0.
         13    1    1    2    0    0  0.87199142585E+01 -0.83472983501E+01  0.61164833196E+02  0.62344705295E+02  0.10566000000E+00 0. -1.
        994    1    1    2    0    0 -0.44501899856E+01 -0.61410533608E+00  0.13128849873E+01  0.17126396289E+03  0.17120000000E+03 0.  0.
        998    1    1    2    0    0 -0.42697242729E+01  0.89614036862E+01  0.14375222781E+04  0.14375913318E+04  0.10000000000E+02 0. -1.
</event>
<event>
 5    1  0.1252945E-008  0.3848053E+03  0.7957747E-01  0.3430499E+00
         13   -1    0    0    0    0  0.00000000000E+00  0.00000000000E+00  0.14999999963E+04  0.15000000000E+04  0.10566000000E+00 0. -1.
        994   -1    0    0    0    0 -0.00000000000E+00 -0.00000000000E+00  0.11368683772E-12  0.17120000000E+03  0.17120000000E+03 0.  0.
         13    1    1    2    0    0 -0.87130181596E+01  0.53276907374E+01  0.29063433300E+02  0.30805767208E+02  0.10566000000E+00 0. -1.
        994    1    1    2    0    0  0.99375034173E+01 -0.97590337320E+01  0.23654931519E+01  0.17178192068E+03  0.17120000000E+03 0.  0.
        998    1    1    2    0    0 -0.12244852577E+01  0.44313429946E+01  0.14685710698E+04  0.14686123121E+04  0.10000000000E+02 0. -1.
</event>
<event>
 5    1  0.1252945E-008  0.3715242E+03  0.7957747E-01  0.3488915E+00
         13   -1    0    0    0    0  0.00000000000E+00  0.00000000000E+00  0.14999999963E+04  0.15000000000E+04  0.10566000000E+00 0. -1.
        994   -1    0    0    0    0 -0.00000000000E+00 -0.00000000000E+00  0.11368683772E-12  0.17120000000E+03  0.17120000000E+03 0.  0.
         13    1    1    2    0    0 -0.58076383977E+02  0.13256531662E+02  0.19029372408E+03  0.19939988615E+03  0.10566000000E+00 0. -1.
        994    1    1    2    0    0  0.51126784696E+02 -0.39445436837E+01  0.17573777286E+02  0.17957668330E+03  0.17120000000E+03 0.  0.
        998    1    1    2    0    0  0.69495992808E+01 -0.93119879786E+01  0.12921324949E+04  0.12922234305E+04  0.10000000000E+02 0. -1.
</event>
<event>
 5    1  0.1252945E-008  0.3775736E+03  0.7957747E-01  0.3461792E+00
         13   -1    0    0    0    0  0.00000000000E+00  0.00000000000E+00  0.14999999963E+04  0.15000000000E+04  0.10566000000E+00 0. -1.
        994   -1    0    0    0    0 -0.00000000000E+00 -0.00000000000E+00  0.11368683772E-12  0.17120000000E+03  0.17120000000E+03 0.  0.
         13    1    1    2    0    0 -0.19023209983E+02  0.22348953771E+02  0.97585662725E+02  0.10190353765E+03  0.10566000000E+00 0. -1.
        994    1    1    2    0    0  0.14719477960E+02  0.48721329193E+02  0.14142903886E+02  0.17916442917E+03  0.17120000000E+03 0.  0.
        998    1    1    2    0    0  0.43037320226E+01 -0.71070282964E+02  0.13882714297E+04  0.13901320332E+04  0.10000000000E+02 0. -1.
</event>
<event>
 5    1  0.1252945E-008  0.3812181E+03  0.7957747E-01  0.3445872E+00
         13   -1    0    0    0    0  0.00000000000E+00  0.00000000000E+00  0.14999999963E+04  0.15000000000E+04  0.10566000000E+00 0. -1.
        994   -1    0    0    0    0 -0.00000000000E+00 -0.00000000000E+00  0.11368683772E-12  0.17120000000E+03  0.17120000000E+03 0.  0.
         13    1    1    2    0    0 -0.11068229404E+02 -0.15724431937E+02  0.52010935334E+02  0.55451889239E+02  0.10566000000E+00 0. -1.
        994    1    1    2    0    0  0.10928743237E+01  0.10325691384E+02  0.38785532419E+01  0.17155843743E+03  0.17120000000E+03 0.  0.
        998    1    1    2    0    0  0.99753550799E+01  0.53987405523E+01  0.14441105077E+04  0.14441896733E+04  0.10000000000E+02 0. -1.
</event>
<event>
 5    1  0.1252945E-008  0.3831661E+03  0.7957747E-01  0.3437487E+00
         13   -1    0    0    0    0  0.00000000000E+00  0.00000000000E+00  0.14999999963E+04  0.15000000000E+04  0.10566000000E+00 0.  1.
        994   -1    0    0    0    0 -0.00000000000E+00 -0.00000000000E+00  0.11368683772E-12  0.17120000000E+03  0.17120000000E+03 0.  0.
         13    1    1    2    0    0 -0.13354570823E+02  0.64970104127E+01  0.41678188934E+02  0.44245206554E+02  0.10566000000E+00 0.  1.
        994    1    1    2    0    0  0.10594380643E+02 -0.12697924200E+02  0.34486385711E+01  0.17203142529E+03  0.17120000000E+03 0.  0.
        998    1    1    2    0    0  0.27601901793E+01  0.62009137869E+01  0.14548731688E+04  0.14549233682E+04  0.10000000000E+02 0.  1.
</event>
<event>
 5    1  0.1252945E-008  0.3853714E+03  0.7957747E-01  0.3428099E+00
         13   -1    0    0    0    0  0.00000000000E+00  0.00000000000E+00  0.14999999963E+04  0.15000000000E+04  0.10566000000E+00 0.  1.
        994   -1    0    0    0    0 -0.00000000000E+00 -0.00000000000E+00  0.11368683772E-12  0.17120000000E+03  0.17120000000E+03 0.  0.
         13    1    1    2    0    0 -0.73846195233E+01  0.80124960599E+01  0.41039676240E+02  0.42461734403E+02  0.10566000000E+00 0.  1.
        994    1    1    2    0    0  0.17464911163E+02  0.52675722248E+01  0.25396730401E+01  0.17218786362E+03  0.17120000000E+03 0.  0.
        998    1    1    2    0    0 -0.10080291640E+02 -0.13280068285E+02  0.14564206470E+04  0.14565504020E+04  0.10000000000E+02 0.  1.
</event>
<event>
 5    1  0.1252945E-008  0.3825416E+03  0.7957747E-01  0.3440166E+00
         13   -1    0    0    0    0  0.00000000000E+00  0.00000000000E+00  0.14999999963E+04  0.15000000000E+04  0.10566000000E+00 0. -1.
        994   -1    0    0    0    0 -0.00000000000E+00 -0.00000000000E+00  0.11368683772E-12  0.17120000000E+03  0.17120000000E+03 0.  0.
         13    1    1    2    0    0  0.27756164823E+01 -0.19322233648E+02  0.56269756487E+02  0.59559629105E+02  0.10566000000E+00 0. -1.
        994    1    1    2    0    0  0.56757912153E+01  0.48574648310E+02  0.10825180406E+02  0.17837694805E+03  0.17120000000E+03 0.  0.
        998    1    1    2    0    0 -0.84514076976E+01 -0.29252414661E+02  0.14329050594E+04  0.14332634228E+04  0.10000000000E+02 0. -1.
</event>
