<event>
 4    1  0.2451537E+000  0.5170660E+02  0.7957747E-01  0.1436348E+00
         13   -1    0    0    0    0  0.00000000000E+00  0.00000000000E+00  0.99999944172E+02  0.99999999992E+02  0.10566000000E+00 0. -1.
         22   -1    0    0    0    0 -0.00000000000E+00 -0.00000000000E+00 -0.22771919835E+02  0.22771919835E+02  0.00000000000E+00 0.  1.
         13    1    1    2    0    0  0.10038563225E+01 -0.13136395499E+02 -0.13171253631E+02  0.18629699420E+02  0.10566000000E+00 0.  1.
        996    1    1    2    0    0 -0.10038563225E+01  0.13136395499E+02  0.90399277968E+02  0.10414222041E+03  0.50000000000E+02 0.  0.
<mgrwt>
<rscale>  0 0.51706601E+02</rscale>
<asrwt>0</asrwt>
<pdfrwt beam="1">  1       13 0.10000000E+01 0.51706601E+02</pdfrwt>
<pdfrwt beam="2">  1       22 0.22771941E+00 0.51706601E+02</pdfrwt>
<totfact> 0.35366844E-01</totfact>
</mgrwt>
</event>
<event>
 4    1  0.2451537E+000  0.6176328E+02  0.7957747E-01  0.1390578E+00
         13   -1    0    0    0    0  0.00000000000E+00  0.00000000000E+00  0.99999944177E+02  0.99999999997E+02  0.10566000000E+00 0.  1.
         22   -1    0    0    0    0 -0.00000000000E+00 -0.00000000000E+00 -0.42936926159E+02  0.42936926159E+02  0.00000000000E+00 0. -1.
         13    1    1    2    0    0  0.33814617849E+02 -0.13087200164E+02 -0.22151250515E+02  0.42489907647E+02  0.10566000000E+00 0. -1.
        996    1    1    2    0    0 -0.33814617849E+02  0.13087200164E+02  0.79214268532E+02  0.10044701851E+03  0.50000000000E+02 0.  0.
<mgrwt>
<rscale>  0 0.61763283E+02</rscale>
<asrwt>0</asrwt>
<pdfrwt beam="1">  1       13 0.10000000E+01 0.61763283E+02</pdfrwt>
<pdfrwt beam="2">  1       22 0.42936942E+00 0.61763283E+02</pdfrwt>
<totfact> 0.10793594E-01</totfact>
</mgrwt>
</event>
<event>
 4    1  0.2451537E+000  0.5101522E+02  0.7957747E-01  0.1439941E+00
         13   -1    0    0    0    0  0.00000000000E+00  0.00000000000E+00  0.99999944184E+02  0.10000000000E+03  0.10566000000E+00 0. -1.
         22   -1    0    0    0    0 -0.00000000000E+00 -0.00000000000E+00 -0.10277280077E+02  0.10277280077E+02  0.00000000000E+00 0. -1.
         13    1    1    2    0    0 -0.46436301823E+01 -0.89994185122E+01  0.47947606780E+01  0.11205076029E+02  0.10566000000E+00 0.  1.
        996    1    1    2    0    0  0.46436301823E+01  0.89994185122E+01  0.84927903429E+02  0.99072204052E+02  0.50000000000E+02 0.  0.
<mgrwt>
<rscale>  0 0.51015222E+02</rscale>
<asrwt>0</asrwt>
<pdfrwt beam="1">  1       13 0.10000000E+01 0.51015222E+02</pdfrwt>
<pdfrwt beam="2">  1       22 0.10277305E+00 0.51015222E+02</pdfrwt>
<totfact> 0.13516260E+00</totfact>
</mgrwt>
</event>
<event>
 4    1  0.2451537E+000  0.6025380E+02  0.7957747E-01  0.1396770E+00
         13   -1    0    0    0    0  0.00000000000E+00  0.00000000000E+00  0.99999944172E+02  0.99999999992E+02  0.10566000000E+00 0.  1.
         22   -1    0    0    0    0 -0.00000000000E+00 -0.00000000000E+00 -0.22040546006E+02  0.22040546006E+02  0.00000000000E+00 0.  1.
         13    1    1    2    0    0  0.19431280666E+02  0.27439860051E+02  0.29058733804E+02  0.44440316856E+02  0.10566000000E+00 0. -1.
        996    1    1    2    0    0 -0.19431280666E+02 -0.27439860051E+02  0.48900664362E+02  0.77600229143E+02  0.50000000000E+02 0.  0.
<mgrwt>
<rscale>  0 0.60253801E+02</rscale>
<asrwt>0</asrwt>
<pdfrwt beam="1">  1       13 0.10000000E+01 0.60253801E+02</pdfrwt>
<pdfrwt beam="2">  1       22 0.22040568E+00 0.60253801E+02</pdfrwt>
<totfact> 0.38179591E-01</totfact>
</mgrwt>
</event>
<event>
 4    1  0.2451537E+000  0.5156708E+02  0.7957747E-01  0.1437068E+00
         13   -1    0    0    0    0  0.00000000000E+00  0.00000000000E+00  0.99999944180E+02  0.10000000000E+03  0.10566000000E+00 0.  1.
         22   -1    0    0    0    0 -0.00000000000E+00 -0.00000000000E+00 -0.19723662796E+02  0.19723662796E+02  0.00000000000E+00 0.  1.
         13    1    1    2    0    0  0.34632723996E+01  0.12131332250E+02 -0.97700424210E+01  0.15957079019E+02  0.10566000000E+00 0. -1.
        996    1    1    2    0    0 -0.34632723996E+01 -0.12131332250E+02  0.90046323805E+02  0.10376658378E+03  0.50000000000E+02 0.  0.
<mgrwt>
<rscale>  0 0.51567077E+02</rscale>
<asrwt>0</asrwt>
<pdfrwt beam="1">  1       13 0.10000000E+01 0.51567077E+02</pdfrwt>
<pdfrwt beam="2">  1       22 0.19723685E+00 0.51567077E+02</pdfrwt>
<totfact> 0.46459663E-01</totfact>
</mgrwt>
</event>
<event>
 4    1  0.2451537E+000  0.5205342E+02  0.7957747E-01  0.1434571E+00
         13   -1    0    0    0    0  0.00000000000E+00  0.00000000000E+00  0.99999944179E+02  0.10000000000E+03  0.10566000000E+00 0.  1.
         22   -1    0    0    0    0 -0.00000000000E+00 -0.00000000000E+00 -0.11601947545E+02  0.11601947545E+02  0.00000000000E+00 0.  1.
         13    1    1    2    0    0  0.20083761261E+00 -0.14474733708E+02  0.30396865984E+02  0.33668069106E+02  0.10566000000E+00 0. -1.
        996    1    1    2    0    0 -0.20083761261E+00  0.14474733708E+02  0.58001130650E+02  0.77933878438E+02  0.50000000000E+02 0.  0.
<mgrwt>
<rscale>  0 0.52053417E+02</rscale>
<asrwt>0</asrwt>
<pdfrwt beam="1">  1       13 0.10000000E+01 0.52053417E+02</pdfrwt>
<pdfrwt beam="2">  1       22 0.11601972E+00 0.52053417E+02</pdfrwt>
<totfact> 0.11317080E+00</totfact>
</mgrwt>
</event>
<event>
 4    1  0.2451537E+000  0.5180376E+02  0.7957747E-01  0.1435848E+00
         13   -1    0    0    0    0  0.00000000000E+00  0.00000000000E+00  0.99999944180E+02  0.10000000000E+03  0.10566000000E+00 0. -1.
         22   -1    0    0    0    0 -0.00000000000E+00 -0.00000000000E+00 -0.17967862820E+02  0.17967862820E+02  0.00000000000E+00 0.  1.
         13    1    1    2    0    0  0.25645199547E+01  0.13306124594E+02 -0.67789189939E+01  0.15152380046E+02  0.10566000000E+00 0.  1.
        996    1    1    2    0    0 -0.25645199547E+01 -0.13306124594E+02  0.88811000354E+02  0.10281548277E+03  0.50000000000E+02 0.  0.
<mgrwt>
<rscale>  0 0.51803762E+02</rscale>
<asrwt>0</asrwt>
<pdfrwt beam="1">  1       13 0.10000000E+01 0.51803762E+02</pdfrwt>
<pdfrwt beam="2">  1       22 0.17967886E+00 0.51803762E+02</pdfrwt>
<totfact> 0.55096133E-01</totfact>
</mgrwt>
</event>
<event>
 4    1  0.2451537E+000  0.5133759E+02  0.7957747E-01  0.1438258E+00
         13   -1    0    0    0    0  0.00000000000E+00  0.00000000000E+00  0.99999944178E+02  0.99999999998E+02  0.10566000000E+00 0. -1.
         22   -1    0    0    0    0 -0.00000000000E+00 -0.00000000000E+00 -0.10624317003E+02  0.10624317003E+02  0.00000000000E+00 0. -1.
         13    1    1    2    0    0  0.34452068973E+01 -0.11121108078E+02  0.70733374401E+01  0.13623206745E+02  0.10566000000E+00 0.  1.
        996    1    1    2    0    0 -0.34452068973E+01  0.11121108078E+02  0.82302289734E+02  0.97001110256E+02  0.50000000000E+02 0.  0.
<mgrwt>
<rscale>  0 0.51337593E+02</rscale>
<asrwt>0</asrwt>
<pdfrwt beam="1">  1       13 0.10000000E+01 0.51337593E+02</pdfrwt>
<pdfrwt beam="2">  1       22 0.10624342E+00 0.51337593E+02</pdfrwt>
<totfact> 0.12884178E+00</totfact>
</mgrwt>
</event>
<event>
 4    1  0.2451537E+000  0.5139456E+02  0.7957747E-01  0.1437962E+00
         13   -1    0    0    0    0  0.00000000000E+00  0.00000000000E+00  0.99999944191E+02  0.10000000001E+03  0.10566000000E+00 0.  1.
         22   -1    0    0    0    0 -0.00000000000E+00 -0.00000000000E+00 -0.24379445374E+02  0.24379445374E+02  0.00000000000E+00 0. -1.
         13    1    1    2    0    0  0.10516625529E+01  0.11844626894E+02 -0.15636887316E+02  0.19644963460E+02  0.10566000000E+00 0. -1.
        996    1    1    2    0    0 -0.10516625529E+01 -0.11844626894E+02  0.91257386133E+02  0.10473448193E+03  0.50000000000E+02 0.  0.
<mgrwt>
<rscale>  0 0.51394564E+02</rscale>
<asrwt>0</asrwt>
<pdfrwt beam="1">  1       13 0.10000000E+01 0.51394564E+02</pdfrwt>
<pdfrwt beam="2">  1       22 0.24379466E+00 0.51394564E+02</pdfrwt>
<totfact> 0.30941927E-01</totfact>
</mgrwt>
</event>
<event>
 4    1  0.2451537E+000  0.5508892E+02  0.7957747E-01  0.1419679E+00
         13   -1    0    0    0    0  0.00000000000E+00  0.00000000000E+00  0.99999944185E+02  0.10000000001E+03  0.10566000000E+00 0. -1.
         22   -1    0    0    0    0 -0.00000000000E+00 -0.00000000000E+00 -0.30417843432E+02  0.30417843432E+02  0.00000000000E+00 0.  1.
         13    1    1    2    0    0  0.80025472444E+01 -0.21696745320E+02 -0.16365496868E+02  0.28330728400E+02  0.10566000000E+00 0.  1.
        996    1    1    2    0    0 -0.80025472444E+01  0.21696745320E+02  0.85947597621E+02  0.10208711504E+03  0.50000000000E+02 0.  0.
<mgrwt>
<rscale>  0 0.55088924E+02</rscale>
<asrwt>0</asrwt>
<pdfrwt beam="1">  1       13 0.10000000E+01 0.55088924E+02</pdfrwt>
<pdfrwt beam="2">  1       22 0.30417863E+00 0.55088924E+02</pdfrwt>
<totfact> 0.20255757E-01</totfact>
</mgrwt>
</event>
<event>
 4    1  0.2451537E+000  0.5226844E+02  0.7957747E-01  0.1433477E+00
         13   -1    0    0    0    0  0.00000000000E+00  0.00000000000E+00  0.99999944181E+02  0.10000000000E+03  0.10566000000E+00 0.  1.
         22   -1    0    0    0    0 -0.00000000000E+00 -0.00000000000E+00 -0.29011849965E+02  0.29011849965E+02  0.00000000000E+00 0. -1.
         13    1    1    2    0    0 -0.11343126837E+02  0.10164787869E+02 -0.19360199102E+02  0.24633674353E+02  0.10566000000E+00 0. -1.
        996    1    1    2    0    0  0.11343126837E+02 -0.10164787869E+02  0.90348293318E+02  0.10437817561E+03  0.50000000000E+02 0.  0.
<mgrwt>
<rscale>  0 0.52268436E+02</rscale>
<asrwt>0</asrwt>
<pdfrwt beam="1">  1       13 0.10000000E+01 0.52268436E+02</pdfrwt>
<pdfrwt beam="2">  1       22 0.29011870E+00 0.52268436E+02</pdfrwt>
<totfact> 0.22062712E-01</totfact>
</mgrwt>
</event>
<event>
 4    1  0.2451537E+000  0.5190787E+02  0.7957747E-01  0.1435315E+00
         13   -1    0    0    0    0  0.00000000000E+00  0.00000000000E+00  0.99999944180E+02  0.10000000000E+03  0.10566000000E+00 0. -1.
         22   -1    0    0    0    0 -0.00000000000E+00 -0.00000000000E+00 -0.12024048748E+02  0.12024048748E+02  0.00000000000E+00 0. -1.
         13    1    1    2    0    0  0.13942466444E+02 -0.18549025096E+00  0.64214552363E+01  0.15351645794E+02  0.10566000000E+00 0.  1.
        996    1    1    2    0    0 -0.13942466444E+02  0.18549025096E+00  0.81554440196E+02  0.96672402954E+02  0.50000000000E+02 0.  0.
<mgrwt>
<rscale>  0 0.51907868E+02</rscale>
<asrwt>0</asrwt>
<pdfrwt beam="1">  1       13 0.10000000E+01 0.51907868E+02</pdfrwt>
<pdfrwt beam="2">  1       22 0.12024073E+00 0.51907868E+02</pdfrwt>
<totfact> 0.10714259E+00</totfact>
</mgrwt>
</event>
<event>
 4    1  0.2451537E+000  0.5121017E+02  0.7957747E-01  0.1438921E+00
         13   -1    0    0    0    0  0.00000000000E+00  0.00000000000E+00  0.99999944179E+02  0.99999999999E+02  0.10566000000E+00 0. -1.
         22   -1    0    0    0    0 -0.00000000000E+00 -0.00000000000E+00 -0.10100140391E+02  0.10100140391E+02  0.00000000000E+00 0. -1.
         13    1    1    2    0    0  0.10942551012E+02 -0.16558470229E+01  0.86001304963E+01  0.14016228473E+02  0.10566000000E+00 0.  1.
        996    1    1    2    0    0 -0.10942551012E+02  0.16558470229E+01  0.81299673292E+02  0.96083911917E+02  0.50000000000E+02 0.  0.
<mgrwt>
<rscale>  0 0.51210167E+02</rscale>
<asrwt>0</asrwt>
<pdfrwt beam="1">  1       13 0.10000000E+01 0.51210167E+02</pdfrwt>
<pdfrwt beam="2">  1       22 0.10100165E+00 0.51210167E+02</pdfrwt>
<totfact> 0.13869132E+00</totfact>
</mgrwt>
</event>
<event>
 4    1  0.2451537E+000  0.6121915E+02  0.7957747E-01  0.1392786E+00
         13   -1    0    0    0    0  0.00000000000E+00  0.00000000000E+00  0.99999944178E+02  0.99999999998E+02  0.10566000000E+00 0. -1.
         22   -1    0    0    0    0 -0.00000000000E+00 -0.00000000000E+00 -0.24375953313E+02  0.24375953313E+02  0.00000000000E+00 0.  1.
         13    1    1    2    0    0 -0.79644851925E+01  0.34414413092E+02  0.40716333389E+02  0.53903764447E+02  0.10566000000E+00 0.  1.
        996    1    1    2    0    0  0.79644851925E+01 -0.34414413092E+02  0.34907657476E+02  0.70472188864E+02  0.50000000000E+02 0.  0.
<mgrwt>
<rscale>  0 0.61219154E+02</rscale>
<asrwt>0</asrwt>
<pdfrwt beam="1">  1       13 0.10000000E+01 0.61219154E+02</pdfrwt>
<pdfrwt beam="2">  1       22 0.24375974E+00 0.61219154E+02</pdfrwt>
<totfact> 0.31401362E-01</totfact>
</mgrwt>
</event>
<event>
 4    1  0.2451537E+000  0.5148362E+02  0.7957747E-01  0.1437500E+00
         13   -1    0    0    0    0  0.00000000000E+00  0.00000000000E+00  0.99999944178E+02  0.99999999998E+02  0.10566000000E+00 0. -1.
         22   -1    0    0    0    0 -0.00000000000E+00 -0.00000000000E+00 -0.14343279519E+02  0.14343279519E+02  0.00000000000E+00 0.  1.
         13    1    1    2    0    0  0.15236769449E+01 -0.12175447972E+02 -0.22448727539E+01  0.12474523737E+02  0.10566000000E+00 0.  1.
        996    1    1    2    0    0 -0.15236769449E+01  0.12175447972E+02  0.87901537413E+02  0.10186875578E+03  0.50000000000E+02 0.  0.
<mgrwt>
<rscale>  0 0.51483620E+02</rscale>
<asrwt>0</asrwt>
<pdfrwt beam="1">  1       13 0.10000000E+01 0.51483620E+02</pdfrwt>
<pdfrwt beam="2">  1       22 0.14343303E+00 0.51483620E+02</pdfrwt>
<totfact> 0.80978652E-01</totfact>
</mgrwt>
</event>
<event>
 4    1  0.2451537E+000  0.5360802E+02  0.7957747E-01  0.1426799E+00
         13   -1    0    0    0    0  0.00000000000E+00  0.00000000000E+00  0.99999944186E+02  0.10000000001E+03  0.10566000000E+00 0.  1.
         22   -1    0    0    0    0 -0.00000000000E+00 -0.00000000000E+00 -0.15105226291E+02  0.15105226291E+02  0.00000000000E+00 0.  1.
         13    1    1    2    0    0 -0.87574319955E+01  0.17237376894E+02  0.70344828761E+01  0.20574617632E+02  0.10566000000E+00 0. -1.
        996    1    1    2    0    0  0.87574319955E+01 -0.17237376894E+02  0.77860235019E+02  0.94530608665E+02  0.50000000000E+02 0.  0.
<mgrwt>
<rscale>  0 0.53608020E+02</rscale>
<asrwt>0</asrwt>
<pdfrwt beam="1">  1       13 0.10000000E+01 0.53608020E+02</pdfrwt>
<pdfrwt beam="2">  1       22 0.15105250E+00 0.53608020E+02</pdfrwt>
<totfact> 0.74660187E-01</totfact>
</mgrwt>
</event>
<event>
 4    1  0.2451537E+000  0.5515693E+02  0.7957747E-01  0.1419358E+00
         13   -1    0    0    0    0  0.00000000000E+00  0.00000000000E+00  0.99999944179E+02  0.99999999999E+02  0.10566000000E+00 0.  1.
         22   -1    0    0    0    0 -0.00000000000E+00 -0.00000000000E+00 -0.49464928686E+02  0.49464928686E+02  0.00000000000E+00 0. -1.
         13    1    1    2    0    0 -0.29872183680E+00  0.23285139665E+02 -0.38344270035E+02  0.44861800817E+02  0.10566000000E+00 0. -1.
        996    1    1    2    0    0  0.29872183680E+00 -0.23285139665E+02  0.88879285528E+02  0.10460312787E+03  0.50000000000E+02 0.  0.
<mgrwt>
<rscale>  0 0.55156930E+02</rscale>
<asrwt>0</asrwt>
<pdfrwt beam="1">  1       13 0.10000000E+01 0.55156930E+02</pdfrwt>
<pdfrwt beam="2">  1       22 0.49464943E+00 0.55156930E+02</pdfrwt>
<totfact> 0.75933985E-02</totfact>
</mgrwt>
</event>
<event>
 4    1  0.2451537E+000  0.6993972E+02  0.7957747E-01  0.1360298E+00
         13   -1    0    0    0    0  0.00000000000E+00  0.00000000000E+00  0.99999944179E+02  0.99999999999E+02  0.10566000000E+00 0. -1.
         22   -1    0    0    0    0 -0.00000000000E+00 -0.00000000000E+00 -0.35978514615E+02  0.35978514615E+02  0.00000000000E+00 0. -1.
         13    1    1    2    0    0 -0.23743093900E+02  0.42753135599E+02  0.17321820970E+02  0.51880841910E+02  0.10566000000E+00 0.  1.
        996    1    1    2    0    0  0.23743093900E+02 -0.42753135599E+02  0.46699608593E+02  0.84097672704E+02  0.50000000000E+02 0.  0.
<mgrwt>
<rscale>  0 0.69939725E+02</rscale>
<asrwt>0</asrwt>
<pdfrwt beam="1">  1       13 0.10000000E+01 0.69939725E+02</pdfrwt>
<pdfrwt beam="2">  1       22 0.35978533E+00 0.69939725E+02</pdfrwt>
<totfact> 0.15203640E-01</totfact>
</mgrwt>
</event>
<event>
 4    1  0.2451537E+000  0.5107636E+02  0.7957747E-01  0.1439621E+00
         13   -1    0    0    0    0  0.00000000000E+00  0.00000000000E+00  0.99999944176E+02  0.99999999996E+02  0.10566000000E+00 0. -1.
         22   -1    0    0    0    0 -0.00000000000E+00 -0.00000000000E+00 -0.97061772873E+01  0.97061772873E+01  0.00000000000E+00 0. -1.
         13    1    1    2    0    0 -0.60509693700E+01 -0.84958775457E+01  0.94260827396E+01  0.14059031454E+02  0.10566000000E+00 0.  1.
        996    1    1    2    0    0  0.60509693700E+01  0.84958775457E+01  0.80867684149E+02  0.95647145829E+02  0.50000000000E+02 0.  0.
<mgrwt>
<rscale>  0 0.51076356E+02</rscale>
<asrwt>0</asrwt>
<pdfrwt beam="1">  1       13 0.10000000E+01 0.51076356E+02</pdfrwt>
<pdfrwt beam="2">  1       22 0.97062025E-01 0.51076356E+02</pdfrwt>
<totfact> 0.14684581E+00</totfact>
</mgrwt>
</event>
<event>
 4    1  0.2451537E+000  0.5194158E+02  0.7957747E-01  0.1435142E+00
         13   -1    0    0    0    0  0.00000000000E+00  0.00000000000E+00  0.99999944175E+02  0.99999999995E+02  0.10566000000E+00 0.  1.
         22   -1    0    0    0    0 -0.00000000000E+00 -0.00000000000E+00 -0.21955255807E+02  0.21955255807E+02  0.00000000000E+00 0. -1.
         13    1    1    2    0    0 -0.55338003956E+01 -0.12934620559E+02 -0.11676675654E+02  0.18283415277E+02  0.10566000000E+00 0. -1.
        996    1    1    2    0    0  0.55338003956E+01  0.12934620559E+02  0.89721364022E+02  0.10367184052E+03  0.50000000000E+02 0.  0.
<mgrwt>
<rscale>  0 0.51941576E+02</rscale>
<asrwt>0</asrwt>
<pdfrwt beam="1">  1       13 0.10000000E+01 0.51941576E+02</pdfrwt>
<pdfrwt beam="2">  1       22 0.21955278E+00 0.51941576E+02</pdfrwt>
<totfact> 0.37965519E-01</totfact>
</mgrwt>
</event>
<event>
 4    1  0.2451537E+000  0.5336347E+02  0.7957747E-01  0.1428000E+00
         13   -1    0    0    0    0  0.00000000000E+00  0.00000000000E+00  0.99999944182E+02  0.10000000000E+03  0.10566000000E+00 0. -1.
         22   -1    0    0    0    0 -0.00000000000E+00 -0.00000000000E+00 -0.13142562536E+02  0.13142562536E+02  0.00000000000E+00 0.  1.
         13    1    1    2    0    0 -0.13958082324E+02 -0.12362527241E+02  0.16976908306E+02  0.25216794436E+02  0.10566000000E+00 0.  1.
        996    1    1    2    0    0  0.13958082324E+02  0.12362527241E+02  0.69880473340E+02  0.87925768101E+02  0.50000000000E+02 0.  0.
<mgrwt>
<rscale>  0 0.53363472E+02</rscale>
<asrwt>0</asrwt>
<pdfrwt beam="1">  1       13 0.10000000E+01 0.53363472E+02</pdfrwt>
<pdfrwt beam="2">  1       22 0.13142587E+00 0.53363472E+02</pdfrwt>
<totfact> 0.93576960E-01</totfact>
</mgrwt>
</event>
<event>
 4    1  0.2451537E+000  0.5220022E+02  0.7957747E-01  0.1433823E+00
         13   -1    0    0    0    0  0.00000000000E+00  0.00000000000E+00  0.99999944168E+02  0.99999999988E+02  0.10566000000E+00 0.  1.
         22   -1    0    0    0    0 -0.00000000000E+00 -0.00000000000E+00 -0.67551881408E+02  0.67551881408E+02  0.00000000000E+00 0. -1.
         13    1    1    2    0    0  0.10283215778E+02  0.10914157723E+02 -0.59749503910E+02  0.61602579062E+02  0.10566000000E+00 0. -1.
        996    1    1    2    0    0 -0.10283215778E+02 -0.10914157723E+02  0.92197566670E+02  0.10594930234E+03  0.50000000000E+02 0.  0.
<mgrwt>
<rscale>  0 0.52200224E+02</rscale>
<asrwt>0</asrwt>
<pdfrwt beam="1">  1       13 0.10000000E+01 0.52200224E+02</pdfrwt>
<pdfrwt beam="2">  1       22 0.67551890E+00 0.52200224E+02</pdfrwt>
<totfact> 0.84906327E-02</totfact>
</mgrwt>
</event>
<event>
 4    1  0.2451537E+000  0.8038502E+02  0.7957747E-01  0.1327962E+00
         13   -1    0    0    0    0  0.00000000000E+00  0.00000000000E+00  0.99999944164E+02  0.99999999984E+02  0.10566000000E+00 0.  1.
         22   -1    0    0    0    0 -0.00000000000E+00 -0.00000000000E+00 -0.68487724012E+02  0.68487724012E+02  0.00000000000E+00 0. -1.
         13    1    1    2    0    0  0.53821680811E+02  0.32634008782E+02 -0.27579919157E+02  0.68719829447E+02  0.10566000000E+00 0. -1.
        996    1    1    2    0    0 -0.53821680811E+02 -0.32634008782E+02  0.59092139309E+02  0.99767894549E+02  0.50000000000E+02 0.  0.
<mgrwt>
<rscale>  0 0.80385023E+02</rscale>
<asrwt>0</asrwt>
<pdfrwt beam="1">  1       13 0.10000000E+01 0.80385023E+02</pdfrwt>
<pdfrwt beam="2">  1       22 0.68487733E+00 0.80385023E+02</pdfrwt>
<totfact> 0.81618163E-02</totfact>
</mgrwt>
</event>
<event>
 4    1  0.2451537E+000  0.5128047E+02  0.7957747E-01  0.1438555E+00
         13   -1    0    0    0    0  0.00000000000E+00  0.00000000000E+00  0.99999944173E+02  0.99999999993E+02  0.10566000000E+00 0.  1.
         22   -1    0    0    0    0 -0.00000000000E+00 -0.00000000000E+00 -0.17863930253E+02  0.17863930253E+02  0.00000000000E+00 0.  1.
         13    1    1    2    0    0 -0.59481055373E+01  0.97111832080E+01 -0.81684684364E+01  0.14015066158E+02  0.10566000000E+00 0. -1.
        996    1    1    2    0    0  0.59481055373E+01 -0.97111832080E+01  0.90304482356E+02  0.10384886409E+03  0.50000000000E+02 0.  0.
<mgrwt>
<rscale>  0 0.51280474E+02</rscale>
<asrwt>0</asrwt>
<pdfrwt beam="1">  1       13 0.10000000E+01 0.51280474E+02</pdfrwt>
<pdfrwt beam="2">  1       22 0.17863953E+00 0.51280474E+02</pdfrwt>
<totfact> 0.55615361E-01</totfact>
</mgrwt>
</event>
<event>
 4    1  0.2451537E+000  0.5312083E+02  0.7957747E-01  0.1429200E+00
         13   -1    0    0    0    0  0.00000000000E+00  0.00000000000E+00  0.99999944188E+02  0.10000000001E+03  0.10566000000E+00 0. -1.
         22   -1    0    0    0    0 -0.00000000000E+00 -0.00000000000E+00 -0.72141059562E+02  0.72141059562E+02  0.00000000000E+00 0.  1.
         13    1    1    2    0    0  0.16787033555E+02 -0.63259706061E+01 -0.63760252200E+02  0.66235967000E+02  0.10566000000E+00 0.  1.
        996    1    1    2    0    0 -0.16787033555E+02  0.63259706061E+01  0.91619136826E+02  0.10590509257E+03  0.50000000000E+02 0.  0.
<mgrwt>
<rscale>  0 0.53120828E+02</rscale>
<asrwt>0</asrwt>
<pdfrwt beam="1">  1       13 0.10000000E+01 0.53120828E+02</pdfrwt>
<pdfrwt beam="2">  1       22 0.72141067E+00 0.53120828E+02</pdfrwt>
<totfact> 0.63291892E-02</totfact>
</mgrwt>
</event>
<event>
 4    1  0.2451537E+000  0.5584852E+02  0.7957747E-01  0.1416128E+00
         13   -1    0    0    0    0  0.00000000000E+00  0.00000000000E+00  0.99999944178E+02  0.99999999998E+02  0.10566000000E+00 0. -1.
         22   -1    0    0    0    0 -0.00000000000E+00 -0.00000000000E+00 -0.26228862458E+02  0.26228862458E+02  0.00000000000E+00 0.  1.
         13    1    1    2    0    0 -0.12550583420E+02 -0.21483489130E+02 -0.89311700746E+01  0.26435476397E+02  0.10566000000E+00 0.  1.
        996    1    1    2    0    0  0.12550583420E+02  0.21483489130E+02  0.82702251794E+02  0.99793386059E+02  0.50000000000E+02 0.  0.
<mgrwt>
<rscale>  0 0.55848522E+02</rscale>
<asrwt>0</asrwt>
<pdfrwt beam="1">  1       13 0.10000000E+01 0.55848522E+02</pdfrwt>
<pdfrwt beam="2">  1       22 0.26228883E+00 0.55848522E+02</pdfrwt>
<totfact> 0.26974389E-01</totfact>
</mgrwt>
</event>
<event>
 4    1  0.2451537E+000  0.5221134E+02  0.7957747E-01  0.1433766E+00
         13   -1    0    0    0    0  0.00000000000E+00  0.00000000000E+00  0.99999944181E+02  0.10000000000E+03  0.10566000000E+00 0.  1.
         22   -1    0    0    0    0 -0.00000000000E+00 -0.00000000000E+00 -0.11434720879E+02  0.11434720879E+02  0.00000000000E+00 0.  1.
         13    1    1    2    0    0 -0.12112612052E+02  0.89055486541E+01  0.15120822809E+02  0.21323100478E+02  0.10566000000E+00 0. -1.
        996    1    1    2    0    0  0.12112612052E+02 -0.89055486541E+01  0.73444400493E+02  0.90111620402E+02  0.50000000000E+02 0.  0.
<mgrwt>
<rscale>  0 0.52211341E+02</rscale>
<asrwt>0</asrwt>
<pdfrwt beam="1">  1       13 0.10000000E+01 0.52211341E+02</pdfrwt>
<pdfrwt beam="2">  1       22 0.11434746E+00 0.52211341E+02</pdfrwt>
<totfact> 0.11571954E+00</totfact>
</mgrwt>
</event>
<event>
 4    1  0.2451537E+000  0.5182406E+02  0.7957747E-01  0.1435744E+00
         13   -1    0    0    0    0  0.00000000000E+00  0.00000000000E+00  0.99999944183E+02  0.10000000000E+03  0.10566000000E+00 0. -1.
         22   -1    0    0    0    0 -0.00000000000E+00 -0.00000000000E+00 -0.21628653318E+02  0.21628653318E+02  0.00000000000E+00 0.  1.
         13    1    1    2    0    0  0.13115472120E+02  0.37036860559E+01 -0.11535322935E+02  0.17855188002E+02  0.10566000000E+00 0.  1.
        996    1    1    2    0    0 -0.13115472120E+02 -0.37036860559E+01  0.89906613800E+02  0.10377346532E+03  0.50000000000E+02 0.  0.
<mgrwt>
<rscale>  0 0.51824057E+02</rscale>
<asrwt>0</asrwt>
<pdfrwt beam="1">  1       13 0.10000000E+01 0.51824057E+02</pdfrwt>
<pdfrwt beam="2">  1       22 0.21628675E+00 0.51824057E+02</pdfrwt>
<totfact> 0.39064425E-01</totfact>
</mgrwt>
</event>
<event>
 4    1  0.2451537E+000  0.5702868E+02  0.7957747E-01  0.1410742E+00
         13   -1    0    0    0    0  0.00000000000E+00  0.00000000000E+00  0.99999944180E+02  0.10000000000E+03  0.10566000000E+00 0. -1.
         22   -1    0    0    0    0 -0.00000000000E+00 -0.00000000000E+00 -0.43840879336E+02  0.43840879336E+02  0.00000000000E+00 0.  1.
         13    1    1    2    0    0 -0.23742238202E+02  0.13732299168E+02 -0.29916987964E+02  0.40587033005E+02  0.10566000000E+00 0.  1.
        996    1    1    2    0    0  0.23742238202E+02 -0.13732299168E+02  0.86076052808E+02  0.10325384633E+03  0.50000000000E+02 0.  0.
<mgrwt>
<rscale>  0 0.57028676E+02</rscale>
<asrwt>0</asrwt>
<pdfrwt beam="1">  1       13 0.10000000E+01 0.57028676E+02</pdfrwt>
<pdfrwt beam="2">  1       22 0.43840895E+00 0.57028676E+02</pdfrwt>
<totfact> 0.10285176E-01</totfact>
</mgrwt>
</event>
<event>
 4    1  0.2451537E+000  0.5151416E+02  0.7957747E-01  0.1437342E+00
         13   -1    0    0    0    0  0.00000000000E+00  0.00000000000E+00  0.99999944170E+02  0.99999999990E+02  0.10566000000E+00 0. -1.
         22   -1    0    0    0    0 -0.00000000000E+00 -0.00000000000E+00 -0.18723172596E+02  0.18723172596E+02  0.00000000000E+00 0.  1.
         13    1    1    2    0    0 -0.21251494531E+01 -0.12214451259E+02 -0.86284616713E+01  0.15105316766E+02  0.10566000000E+00 0.  1.
        996    1    1    2    0    0  0.21251494531E+01  0.12214451259E+02  0.89905233246E+02  0.10361785582E+03  0.50000000000E+02 0.  0.
<mgrwt>
<rscale>  0 0.51514164E+02</rscale>
<asrwt>0</asrwt>
<pdfrwt beam="1">  1       13 0.10000000E+01 0.51514164E+02</pdfrwt>
<pdfrwt beam="2">  1       22 0.18723195E+00 0.51514164E+02</pdfrwt>
<totfact> 0.51119906E-01</totfact>
</mgrwt>
</event>
<event>
 4    1  0.2451537E+000  0.5134709E+02  0.7957747E-01  0.1438208E+00
         13   -1    0    0    0    0  0.00000000000E+00  0.00000000000E+00  0.99999944179E+02  0.99999999999E+02  0.10566000000E+00 0.  1.
         22   -1    0    0    0    0 -0.00000000000E+00 -0.00000000000E+00 -0.11058842698E+02  0.11058842698E+02  0.00000000000E+00 0.  1.
         13    1    1    2    0    0  0.90906987295E+01  0.73404702358E+01  0.51122107231E+01  0.12754182419E+02  0.10566000000E+00 0. -1.
        996    1    1    2    0    0 -0.90906987295E+01 -0.73404702358E+01  0.83828890758E+02  0.98304660278E+02  0.50000000000E+02 0.  0.
<mgrwt>
<rscale>  0 0.51347087E+02</rscale>
<asrwt>0</asrwt>
<pdfrwt beam="1">  1       13 0.10000000E+01 0.51347087E+02</pdfrwt>
<pdfrwt beam="2">  1       22 0.11058868E+00 0.51347087E+02</pdfrwt>
<totfact> 0.12141834E+00</totfact>
</mgrwt>
</event>
<event>
 4    1  0.2451537E+000  0.5132079E+02  0.7957747E-01  0.1438345E+00
         13   -1    0    0    0    0  0.00000000000E+00  0.00000000000E+00  0.99999944174E+02  0.99999999995E+02  0.10566000000E+00 0. -1.
         22   -1    0    0    0    0 -0.00000000000E+00 -0.00000000000E+00 -0.13128001169E+02  0.13128001169E+02  0.00000000000E+00 0. -1.
         13    1    1    2    0    0  0.73436508484E+01 -0.89383502457E+01 -0.73902741076E+00  0.11592266321E+02  0.10566000000E+00 0.  1.
        996    1    1    2    0    0 -0.73436508484E+01  0.89383502457E+01  0.87610970416E+02  0.10153573484E+03  0.50000000000E+02 0.  0.
<mgrwt>
<rscale>  0 0.51320788E+02</rscale>
<asrwt>0</asrwt>
<pdfrwt beam="1">  1       13 0.10000000E+01 0.51320788E+02</pdfrwt>
<pdfrwt beam="2">  1       22 0.13128025E+00 0.51320788E+02</pdfrwt>
<totfact> 0.93332000E-01</totfact>
</mgrwt>
</event>
<event>
 4    1  0.2451537E+000  0.5753019E+02  0.7957747E-01  0.1408499E+00
         13   -1    0    0    0    0  0.00000000000E+00  0.00000000000E+00  0.99999944186E+02  0.10000000001E+03  0.10566000000E+00 0. -1.
         22   -1    0    0    0    0 -0.00000000000E+00 -0.00000000000E+00 -0.18661399408E+02  0.18661399408E+02  0.00000000000E+00 0. -1.
         13    1    1    2    0    0  0.15639888240E+02  0.23772193655E+02  0.32496374207E+02  0.43194314394E+02  0.10566000000E+00 0.  1.
        996    1    1    2    0    0 -0.15639888240E+02 -0.23772193655E+02  0.48842170570E+02  0.75467085020E+02  0.50000000000E+02 0.  0.
<mgrwt>
<rscale>  0 0.57530195E+02</rscale>
<asrwt>0</asrwt>
<pdfrwt beam="1">  1       13 0.10000000E+01 0.57530195E+02</pdfrwt>
<pdfrwt beam="2">  1       22 0.18661422E+00 0.57530195E+02</pdfrwt>
<totfact> 0.51977478E-01</totfact>
</mgrwt>
</event>
<event>
 4    1  0.2451537E+000  0.5226051E+02  0.7957747E-01  0.1433517E+00
         13   -1    0    0    0    0  0.00000000000E+00  0.00000000000E+00  0.99999944182E+02  0.10000000000E+03  0.10566000000E+00 0. -1.
         22   -1    0    0    0    0 -0.00000000000E+00 -0.00000000000E+00 -0.78560041118E+02  0.78560041118E+02  0.00000000000E+00 0.  1.
         13    1    1    2    0    0  0.14844288490E+02 -0.32874971878E+01 -0.70870364414E+02  0.72482965273E+02  0.10566000000E+00 0.  1.
        996    1    1    2    0    0 -0.14844288490E+02  0.32874971878E+01  0.92310267478E+02  0.10607707585E+03  0.50000000000E+02 0.  0.
<mgrwt>
<rscale>  0 0.52260506E+02</rscale>
<asrwt>0</asrwt>
<pdfrwt beam="1">  1       13 0.10000000E+01 0.52260506E+02</pdfrwt>
<pdfrwt beam="2">  1       22 0.78560047E+00 0.52260506E+02</pdfrwt>
<totfact> 0.35250636E-02</totfact>
</mgrwt>
</event>
<event>
 4    1  0.2451537E+000  0.5116710E+02  0.7957747E-01  0.1439146E+00
         13   -1    0    0    0    0  0.00000000000E+00  0.00000000000E+00  0.99999944171E+02  0.99999999991E+02  0.10566000000E+00 0. -1.
         22   -1    0    0    0    0 -0.00000000000E+00 -0.00000000000E+00 -0.10548951748E+02  0.10548951748E+02  0.00000000000E+00 0. -1.
         13    1    1    2    0    0  0.49146558667E+01 -0.96911370946E+01  0.53654925809E+01  0.12119061645E+02  0.10566000000E+00 0.  1.
        996    1    1    2    0    0 -0.49146558667E+01  0.96911370946E+01  0.84085499841E+02  0.98429890095E+02  0.50000000000E+02 0.  0.
<mgrwt>
<rscale>  0 0.51167099E+02</rscale>
<asrwt>0</asrwt>
<pdfrwt beam="1">  1       13 0.10000000E+01 0.51167099E+02</pdfrwt>
<pdfrwt beam="2">  1       22 0.10548977E+00 0.51167099E+02</pdfrwt>
<totfact> 0.13014511E+00</totfact>
</mgrwt>
</event>
<event>
 4    1  0.2451537E+000  0.5572262E+02  0.7957747E-01  0.1416712E+00
         13   -1    0    0    0    0  0.00000000000E+00  0.00000000000E+00  0.99999944185E+02  0.10000000001E+03  0.10566000000E+00 0. -1.
         22   -1    0    0    0    0 -0.00000000000E+00 -0.00000000000E+00 -0.18950414709E+02  0.18950414709E+02  0.00000000000E+00 0.  1.
         13    1    1    2    0    0  0.20566285753E+02 -0.13492150879E+02  0.57240524527E+01  0.25254429028E+02  0.10566000000E+00 0.  1.
        996    1    1    2    0    0 -0.20566285753E+02  0.13492150879E+02  0.75325477023E+02  0.93695985686E+02  0.50000000000E+02 0.  0.
<mgrwt>
<rscale>  0 0.55722619E+02</rscale>
<asrwt>0</asrwt>
<pdfrwt beam="1">  1       13 0.10000000E+01 0.55722619E+02</pdfrwt>
<pdfrwt beam="2">  1       22 0.18950437E+00 0.55722619E+02</pdfrwt>
<totfact> 0.50384095E-01</totfact>
</mgrwt>
</event>
<event>
 4    1  0.2451537E+000  0.5129320E+02  0.7957747E-01  0.1438489E+00
         13   -1    0    0    0    0  0.00000000000E+00  0.00000000000E+00  0.99999944177E+02  0.99999999997E+02  0.10566000000E+00 0. -1.
         22   -1    0    0    0    0 -0.00000000000E+00 -0.00000000000E+00 -0.28687878647E+02  0.28687878647E+02  0.00000000000E+00 0.  1.
         13    1    1    2    0    0  0.92235471693E+01 -0.67763194381E+01 -0.20523150712E+02  0.23499004377E+02  0.10566000000E+00 0.  1.
        996    1    1    2    0    0 -0.92235471693E+01  0.67763194381E+01  0.91835216242E+02  0.10518887427E+03  0.50000000000E+02 0.  0.
<mgrwt>
<rscale>  0 0.51293200E+02</rscale>
<asrwt>0</asrwt>
<pdfrwt beam="1">  1       13 0.10000000E+01 0.51293200E+02</pdfrwt>
<pdfrwt beam="2">  1       22 0.28687899E+00 0.51293200E+02</pdfrwt>
<totfact> 0.22510482E-01</totfact>
</mgrwt>
</event>
<event>
 4    1  0.2451537E+000  0.5166455E+02  0.7957747E-01  0.1436565E+00
         13   -1    0    0    0    0  0.00000000000E+00  0.00000000000E+00  0.99999944174E+02  0.99999999995E+02  0.10566000000E+00 0. -1.
         22   -1    0    0    0    0 -0.00000000000E+00 -0.00000000000E+00 -0.24616799321E+02  0.24616799321E+02  0.00000000000E+00 0.  1.
         13    1    1    2    0    0 -0.68034685499E+01 -0.11087743135E+02 -0.15401669639E+02  0.20160551179E+02  0.10566000000E+00 0.  1.
        996    1    1    2    0    0  0.68034685499E+01  0.11087743135E+02  0.90784814493E+02  0.10445624814E+03  0.50000000000E+02 0.  0.
<mgrwt>
<rscale>  0 0.51664545E+02</rscale>
<asrwt>0</asrwt>
<pdfrwt beam="1">  1       13 0.10000000E+01 0.51664545E+02</pdfrwt>
<pdfrwt beam="2">  1       22 0.24616820E+00 0.51664545E+02</pdfrwt>
<totfact> 0.30372113E-01</totfact>
</mgrwt>
</event>
<event>
 4    1  0.2451537E+000  0.5162196E+02  0.7957747E-01  0.1436784E+00
         13   -1    0    0    0    0  0.00000000000E+00  0.00000000000E+00  0.99999944177E+02  0.99999999997E+02  0.10566000000E+00 0.  1.
         22   -1    0    0    0    0 -0.00000000000E+00 -0.00000000000E+00 -0.12818618556E+02  0.12818618556E+02  0.00000000000E+00 0.  1.
         13    1    1    2    0    0  0.12761870932E+02 -0.14004582388E+01  0.16885239046E+01  0.12949475278E+02  0.10566000000E+00 0. -1.
        996    1    1    2    0    0 -0.12761870932E+02  0.14004582388E+01  0.85492801716E+02  0.99869143274E+02  0.50000000000E+02 0.  0.
<mgrwt>
<rscale>  0 0.51621959E+02</rscale>
<asrwt>0</asrwt>
<pdfrwt beam="1">  1       13 0.10000000E+01 0.51621959E+02</pdfrwt>
<pdfrwt beam="2">  1       22 0.12818643E+00 0.51621959E+02</pdfrwt>
<totfact> 0.96965631E-01</totfact>
</mgrwt>
</event>
<event>
 4    1  0.2451537E+000  0.5736517E+02  0.7957747E-01  0.1409234E+00
         13   -1    0    0    0    0  0.00000000000E+00  0.00000000000E+00  0.99999944177E+02  0.99999999997E+02  0.10566000000E+00 0.  1.
         22   -1    0    0    0    0 -0.00000000000E+00 -0.00000000000E+00 -0.18299545762E+02  0.18299545762E+02  0.00000000000E+00 0. -1.
         13    1    1    2    0    0  0.15349171112E+02  0.23561942925E+02  0.29148611491E+02  0.40502036049E+02  0.10566000000E+00 0. -1.
        996    1    1    2    0    0 -0.15349171112E+02 -0.23561942925E+02  0.52551786924E+02  0.77797509710E+02  0.50000000000E+02 0.  0.
<mgrwt>
<rscale>  0 0.57365165E+02</rscale>
<asrwt>0</asrwt>
<pdfrwt beam="1">  1       13 0.10000000E+01 0.57365165E+02</pdfrwt>
<pdfrwt beam="2">  1       22 0.18299569E+00 0.57365165E+02</pdfrwt>
<totfact> 0.53844027E-01</totfact>
</mgrwt>
</event>
<event>
 4    1  0.2451537E+000  0.5182626E+02  0.7957747E-01  0.1435733E+00
         13   -1    0    0    0    0  0.00000000000E+00  0.00000000000E+00  0.99999944174E+02  0.99999999994E+02  0.10566000000E+00 0. -1.
         22   -1    0    0    0    0 -0.00000000000E+00 -0.00000000000E+00 -0.11170685711E+02  0.11170685711E+02  0.00000000000E+00 0. -1.
         13    1    1    2    0    0 -0.88569291157E+01  0.10368977667E+02  0.10336702356E+02  0.17111968644E+02  0.10566000000E+00 0.  1.
        996    1    1    2    0    0  0.88569291157E+01 -0.10368977667E+02  0.78492556106E+02  0.94058717062E+02  0.50000000000E+02 0.  0.
<mgrwt>
<rscale>  0 0.51826257E+02</rscale>
<asrwt>0</asrwt>
<pdfrwt beam="1">  1       13 0.10000000E+01 0.51826257E+02</pdfrwt>
<pdfrwt beam="2">  1       22 0.11170711E+00 0.51826257E+02</pdfrwt>
<totfact> 0.11974181E+00</totfact>
</mgrwt>
</event>
<event>
 4    1  0.2451537E+000  0.5102523E+02  0.7957747E-01  0.1439889E+00
         13   -1    0    0    0    0  0.00000000000E+00  0.00000000000E+00  0.99999944181E+02  0.10000000000E+03  0.10566000000E+00 0.  1.
         22   -1    0    0    0    0 -0.00000000000E+00 -0.00000000000E+00 -0.17753228991E+02  0.17753228991E+02  0.00000000000E+00 0. -1.
         13    1    1    2    0    0 -0.32717819336E+01  0.96368752541E+01 -0.87532972627E+01  0.13424056715E+02  0.10566000000E+00 0. -1.
        996    1    1    2    0    0  0.32717819336E+01 -0.96368752541E+01  0.91000012452E+02  0.10432917228E+03  0.50000000000E+02 0.  0.
<mgrwt>
<rscale>  0 0.51025228E+02</rscale>
<asrwt>0</asrwt>
<pdfrwt beam="1">  1       13 0.10000000E+01 0.51025228E+02</pdfrwt>
<pdfrwt beam="2">  1       22 0.17753252E+00 0.51025228E+02</pdfrwt>
<totfact> 0.56208035E-01</totfact>
</mgrwt>
</event>
<event>
 4    1  0.2451537E+000  0.5108584E+02  0.7957747E-01  0.1439571E+00
         13   -1    0    0    0    0  0.00000000000E+00  0.00000000000E+00  0.99999944182E+02  0.10000000000E+03  0.10566000000E+00 0. -1.
         22   -1    0    0    0    0 -0.00000000000E+00 -0.00000000000E+00 -0.95518293426E+01  0.95518293426E+01  0.00000000000E+00 0. -1.
         13    1    1    2    0    0 -0.12630030169E+01 -0.10400361815E+02  0.19336124804E+02  0.21992262025E+02  0.10566000000E+00 0.  1.
        996    1    1    2    0    0  0.12630030169E+01  0.10400361815E+02  0.71111990036E+02  0.87559567320E+02  0.50000000000E+02 0.  0.
<mgrwt>
<rscale>  0 0.51085837E+02</rscale>
<asrwt>0</asrwt>
<pdfrwt beam="1">  1       13 0.10000000E+01 0.51085837E+02</pdfrwt>
<pdfrwt beam="2">  1       22 0.95518546E-01 0.51085837E+02</pdfrwt>
<totfact> 0.15026305E+00</totfact>
</mgrwt>
</event>
<event>
 4    1  0.2451537E+000  0.5566396E+02  0.7957747E-01  0.1416985E+00
         13   -1    0    0    0    0  0.00000000000E+00  0.00000000000E+00  0.99999944178E+02  0.99999999998E+02  0.10566000000E+00 0. -1.
         22   -1    0    0    0    0 -0.00000000000E+00 -0.00000000000E+00 -0.36830073454E+02  0.36830073454E+02  0.00000000000E+00 0. -1.
         13    1    1    2    0    0 -0.24351166406E+02  0.23446315196E+01 -0.23436096513E+02  0.33878287827E+02  0.10566000000E+00 0.  1.
        996    1    1    2    0    0  0.24351166406E+02 -0.23446315196E+01  0.86605967237E+02  0.10295178563E+03  0.50000000000E+02 0.  0.
<mgrwt>
<rscale>  0 0.55663961E+02</rscale>
<asrwt>0</asrwt>
<pdfrwt beam="1">  1       13 0.10000000E+01 0.55663961E+02</pdfrwt>
<pdfrwt beam="2">  1       22 0.36830091E+00 0.55663961E+02</pdfrwt>
<totfact> 0.14420859E-01</totfact>
</mgrwt>
</event>
<event>
 4    1  0.2451537E+000  0.5250611E+02  0.7957747E-01  0.1432275E+00
         13   -1    0    0    0    0  0.00000000000E+00  0.00000000000E+00  0.99999944177E+02  0.99999999997E+02  0.10566000000E+00 0.  1.
         22   -1    0    0    0    0 -0.00000000000E+00 -0.00000000000E+00 -0.12401363487E+02  0.12401363487E+02  0.00000000000E+00 0.  1.
         13    1    1    2    0    0  0.15574550245E+02 -0.37848766982E+01  0.32808043038E+02  0.36513980322E+02  0.10566000000E+00 0. -1.
        996    1    1    2    0    0 -0.15574550245E+02  0.37848766982E+01  0.54790537652E+02  0.75887383162E+02  0.50000000000E+02 0.  0.
<mgrwt>
<rscale>  0 0.52506113E+02</rscale>
<asrwt>0</asrwt>
<pdfrwt beam="1">  1       13 0.10000000E+01 0.52506113E+02</pdfrwt>
<pdfrwt beam="2">  1       22 0.12401388E+00 0.52506113E+02</pdfrwt>
<totfact> 0.10229526E+00</totfact>
</mgrwt>
</event>
<event>
 4    1  0.2451537E+000  0.5507822E+02  0.7957747E-01  0.1419729E+00
         13   -1    0    0    0    0  0.00000000000E+00  0.00000000000E+00  0.99999944176E+02  0.99999999996E+02  0.10566000000E+00 0.  1.
         22   -1    0    0    0    0 -0.00000000000E+00 -0.00000000000E+00 -0.15493442605E+02  0.15493442605E+02  0.00000000000E+00 0. -1.
         13    1    1    2    0    0  0.12443050818E+02  0.19462290429E+02  0.19010085573E+02  0.29916630491E+02  0.10566000000E+00 0. -1.
        996    1    1    2    0    0 -0.12443050818E+02 -0.19462290429E+02  0.65496415998E+02  0.85576812110E+02  0.50000000000E+02 0.  0.
<mgrwt>
<rscale>  0 0.55078219E+02</rscale>
<asrwt>0</asrwt>
<pdfrwt beam="1">  1       13 0.10000000E+01 0.55078219E+02</pdfrwt>
<pdfrwt beam="2">  1       22 0.15493466E+00 0.55078219E+02</pdfrwt>
<totfact> 0.71747304E-01</totfact>
</mgrwt>
</event>
<event>
 4    1  0.2451537E+000  0.5110714E+02  0.7957747E-01  0.1439460E+00
         13   -1    0    0    0    0  0.00000000000E+00  0.00000000000E+00  0.99999944188E+02  0.10000000001E+03  0.10566000000E+00 0. -1.
         22   -1    0    0    0    0 -0.00000000000E+00 -0.00000000000E+00 -0.23597235337E+02  0.23597235337E+02  0.00000000000E+00 0.  1.
         13    1    1    2    0    0  0.78201350927E+01  0.71263432882E+01 -0.15307410819E+02  0.18608258155E+02  0.10566000000E+00 0.  1.
        996    1    1    2    0    0 -0.78201350927E+01 -0.71263432882E+01  0.91710119670E+02  0.10498897719E+03  0.50000000000E+02 0.  0.
<mgrwt>
<rscale>  0 0.51107135E+02</rscale>
<asrwt>0</asrwt>
<pdfrwt beam="1">  1       13 0.10000000E+01 0.51107135E+02</pdfrwt>
<pdfrwt beam="2">  1       22 0.23597257E+00 0.51107135E+02</pdfrwt>
<totfact> 0.32966217E-01</totfact>
</mgrwt>
</event>
<event>
 4    1  0.2451537E+000  0.5227530E+02  0.7957747E-01  0.1433442E+00
         13   -1    0    0    0    0  0.00000000000E+00  0.00000000000E+00  0.99999944173E+02  0.99999999994E+02  0.10566000000E+00 0.  1.
         22   -1    0    0    0    0 -0.00000000000E+00 -0.00000000000E+00 -0.12902608838E+02  0.12902608838E+02  0.00000000000E+00 0.  1.
         13    1    1    2    0    0 -0.56999100098E+01  0.14149849438E+02  0.38958882300E+02  0.41839131054E+02  0.10566000000E+00 0. -1.
        996    1    1    2    0    0  0.56999100098E+01 -0.14149849438E+02  0.48138453035E+02  0.71063477778E+02  0.50000000000E+02 0.  0.
<mgrwt>
<rscale>  0 0.52275302E+02</rscale>
<asrwt>0</asrwt>
<pdfrwt beam="1">  1       13 0.10000000E+01 0.52275302E+02</pdfrwt>
<pdfrwt beam="2">  1       22 0.12902633E+00 0.52275302E+02</pdfrwt>
<totfact> 0.96113545E-01</totfact>
</mgrwt>
</event>
<event>
 4    1  0.2451537E+000  0.6438533E+02  0.7957747E-01  0.1380299E+00
         13   -1    0    0    0    0  0.00000000000E+00  0.00000000000E+00  0.99999944180E+02  0.10000000000E+03  0.10566000000E+00 0. -1.
         22   -1    0    0    0    0 -0.00000000000E+00 -0.00000000000E+00 -0.28179100202E+02  0.28179100202E+02  0.00000000000E+00 0.  1.
         13    1    1    2    0    0 -0.50685346223E+01 -0.40246493532E+02  0.18511786081E+02  0.44588873868E+02  0.10566000000E+00 0.  1.
        996    1    1    2    0    0  0.50685346223E+01  0.40246493532E+02  0.53309057896E+02  0.83590226334E+02  0.50000000000E+02 0.  0.
<mgrwt>
<rscale>  0 0.64385327E+02</rscale>
<asrwt>0</asrwt>
<pdfrwt beam="1">  1       13 0.10000000E+01 0.64385327E+02</pdfrwt>
<pdfrwt beam="2">  1       22 0.28179120E+00 0.64385327E+02</pdfrwt>
<totfact> 0.23688383E-01</totfact>
</mgrwt>
</event>
<event>
 4    1  0.2451537E+000  0.6983601E+02  0.7957747E-01  0.1360652E+00
         13   -1    0    0    0    0  0.00000000000E+00  0.00000000000E+00  0.99999944179E+02  0.99999999999E+02  0.10566000000E+00 0. -1.
         22   -1    0    0    0    0 -0.00000000000E+00 -0.00000000000E+00 -0.71284680592E+02  0.71284680592E+02  0.00000000000E+00 0.  1.
         13    1    1    2    0    0 -0.47823105070E+02 -0.94878029938E+01 -0.47391117013E+02  0.67992624012E+02  0.10566000000E+00 0.  1.
        996    1    1    2    0    0  0.47823105070E+02  0.94878029938E+01  0.76106380601E+02  0.10329205658E+03  0.50000000000E+02 0.  0.
<mgrwt>
<rscale>  0 0.69836006E+02</rscale>
<asrwt>0</asrwt>
<pdfrwt beam="1">  1       13 0.10000000E+01 0.69836006E+02</pdfrwt>
<pdfrwt beam="2">  1       22 0.71284689E+00 0.69836006E+02</pdfrwt>
<totfact> 0.67870097E-02</totfact>
</mgrwt>
</event>
<event>
 4    1  0.2451537E+000  0.5171290E+02  0.7957747E-01  0.1436316E+00
         13   -1    0    0    0    0  0.00000000000E+00  0.00000000000E+00  0.99999944173E+02  0.99999999993E+02  0.10566000000E+00 0. -1.
         22   -1    0    0    0    0 -0.00000000000E+00 -0.00000000000E+00 -0.10714693083E+02  0.10714693083E+02  0.00000000000E+00 0. -1.
         13    1    1    2    0    0 -0.22557605009E+01  0.13005197791E+02  0.12790973550E+02  0.18380527561E+02  0.10566000000E+00 0.  1.
        996    1    1    2    0    0  0.22557605009E+01 -0.13005197791E+02  0.76494277540E+02  0.92334165515E+02  0.50000000000E+02 0.  0.
<mgrwt>
<rscale>  0 0.51712896E+02</rscale>
<asrwt>0</asrwt>
<pdfrwt beam="1">  1       13 0.10000000E+01 0.51712896E+02</pdfrwt>
<pdfrwt beam="2">  1       22 0.10714718E+00 0.51712896E+02</pdfrwt>
<totfact> 0.12735546E+00</totfact>
</mgrwt>
</event>
<event>
 4    1  0.2451537E+000  0.6168602E+02  0.7957747E-01  0.1390889E+00
         13   -1    0    0    0    0  0.00000000000E+00  0.00000000000E+00  0.99999944177E+02  0.99999999997E+02  0.10566000000E+00 0.  1.
         22   -1    0    0    0    0 -0.00000000000E+00 -0.00000000000E+00 -0.54002481302E+02  0.54002481302E+02  0.00000000000E+00 0. -1.
         13    1    1    2    0    0  0.88598850541E+01 -0.35023821517E+02 -0.36259541398E+02  0.51185262950E+02  0.10566000000E+00 0. -1.
        996    1    1    2    0    0 -0.88598850541E+01  0.35023821517E+02  0.82257004273E+02  0.10281721835E+03  0.50000000000E+02 0.  0.
<mgrwt>
<rscale>  0 0.61686025E+02</rscale>
<asrwt>0</asrwt>
<pdfrwt beam="1">  1       13 0.10000000E+01 0.61686025E+02</pdfrwt>
<pdfrwt beam="2">  1       22 0.54002494E+00 0.61686025E+02</pdfrwt>
<totfact> 0.60784407E-02</totfact>
</mgrwt>
</event>
<event>
 4    1  0.2451537E+000  0.5170519E+02  0.7957747E-01  0.1436355E+00
         13   -1    0    0    0    0  0.00000000000E+00  0.00000000000E+00  0.99999944183E+02  0.10000000000E+03  0.10566000000E+00 0.  1.
         22   -1    0    0    0    0 -0.00000000000E+00 -0.00000000000E+00 -0.11663753173E+02  0.11663753173E+02  0.00000000000E+00 0. -1.
         13    1    1    2    0    0  0.29223329685E+01  0.12840819519E+02  0.60769432847E+01  0.14504036667E+02  0.10566000000E+00 0. -1.
        996    1    1    2    0    0 -0.29223329685E+01 -0.12840819519E+02  0.82259247725E+02  0.97159716510E+02  0.50000000000E+02 0.  0.
<mgrwt>
<rscale>  0 0.51705190E+02</rscale>
<asrwt>0</asrwt>
<pdfrwt beam="1">  1       13 0.10000000E+01 0.51705190E+02</pdfrwt>
<pdfrwt beam="2">  1       22 0.11663778E+00 0.51705190E+02</pdfrwt>
<totfact> 0.11217552E+00</totfact>
</mgrwt>
</event>
<event>
 4    1  0.2451537E+000  0.5176789E+02  0.7957747E-01  0.1436033E+00
         13   -1    0    0    0    0  0.00000000000E+00  0.00000000000E+00  0.99999944175E+02  0.99999999995E+02  0.10566000000E+00 0.  1.
         22   -1    0    0    0    0 -0.00000000000E+00 -0.00000000000E+00 -0.10687739102E+02  0.10687739102E+02  0.00000000000E+00 0.  1.
         13    1    1    2    0    0  0.20742351257E+01 -0.13251859280E+02  0.15014904912E+02  0.20133870947E+02  0.10566000000E+00 0. -1.
        996    1    1    2    0    0 -0.20742351257E+01  0.13251859280E+02  0.74297300161E+02  0.90553868150E+02  0.50000000000E+02 0.  0.
<mgrwt>
<rscale>  0 0.51767888E+02</rscale>
<asrwt>0</asrwt>
<pdfrwt beam="1">  1       13 0.10000000E+01 0.51767888E+02</pdfrwt>
<pdfrwt beam="2">  1       22 0.10687764E+00 0.51767888E+02</pdfrwt>
<totfact> 0.12784625E+00</totfact>
</mgrwt>
</event>
<event>
 4    1  0.2451537E+000  0.5160680E+02  0.7957747E-01  0.1436863E+00
         13   -1    0    0    0    0  0.00000000000E+00  0.00000000000E+00  0.99999944177E+02  0.99999999998E+02  0.10566000000E+00 0.  1.
         22   -1    0    0    0    0 -0.00000000000E+00 -0.00000000000E+00 -0.10504419433E+02  0.10504419433E+02  0.00000000000E+00 0.  1.
         13    1    1    2    0    0  0.55920991462E+00  0.12765149038E+02  0.12997890603E+02  0.18226850245E+02  0.10566000000E+00 0. -1.
        996    1    1    2    0    0 -0.55920991462E+00 -0.12765149038E+02  0.76497634141E+02  0.92277569186E+02  0.50000000000E+02 0.  0.
<mgrwt>
<rscale>  0 0.51606799E+02</rscale>
<asrwt>0</asrwt>
<pdfrwt beam="1">  1       13 0.10000000E+01 0.51606799E+02</pdfrwt>
<pdfrwt beam="2">  1       22 0.10504444E+00 0.51606799E+02</pdfrwt>
<totfact> 0.13109325E+00</totfact>
</mgrwt>
</event>
<event>
 4    1  0.2451537E+000  0.5115292E+02  0.7957747E-01  0.1439220E+00
         13   -1    0    0    0    0  0.00000000000E+00  0.00000000000E+00  0.99999944165E+02  0.99999999985E+02  0.10566000000E+00 0. -1.
         22   -1    0    0    0    0 -0.00000000000E+00 -0.00000000000E+00 -0.20170210488E+02  0.20170210488E+02  0.00000000000E+00 0.  1.
         13    1    1    2    0    0  0.76681320601E+01  0.76039973351E+01 -0.11321701141E+02  0.15646504578E+02  0.10566000000E+00 0.  1.
        996    1    1    2    0    0 -0.76681320601E+01 -0.76039973351E+01  0.91151434817E+02  0.10452370590E+03  0.50000000000E+02 0.  0.
<mgrwt>
<rscale>  0 0.51152918E+02</rscale>
<asrwt>0</asrwt>
<pdfrwt beam="1">  1       13 0.10000000E+01 0.51152918E+02</pdfrwt>
<pdfrwt beam="2">  1       22 0.20170233E+00 0.51152918E+02</pdfrwt>
<totfact> 0.44528142E-01</totfact>
</mgrwt>
</event>
<event>
 4    1  0.2451537E+000  0.5358953E+02  0.7957747E-01  0.1426889E+00
         13   -1    0    0    0    0  0.00000000000E+00  0.00000000000E+00  0.99999944189E+02  0.10000000001E+03  0.10566000000E+00 0. -1.
         22   -1    0    0    0    0 -0.00000000000E+00 -0.00000000000E+00 -0.20360045714E+02  0.20360045714E+02  0.00000000000E+00 0.  1.
         13    1    1    2    0    0 -0.31189797383E+01  0.19029178312E+02 -0.52363401737E+01  0.19981693729E+02  0.10566000000E+00 0.  1.
        996    1    1    2    0    0  0.31189797383E+01 -0.19029178312E+02  0.84876238649E+02  0.10037835199E+03  0.50000000000E+02 0.  0.
<mgrwt>
<rscale>  0 0.53589529E+02</rscale>
<asrwt>0</asrwt>
<pdfrwt beam="1">  1       13 0.10000000E+01 0.53589529E+02</pdfrwt>
<pdfrwt beam="2">  1       22 0.20360068E+00 0.53589529E+02</pdfrwt>
<totfact> 0.43942303E-01</totfact>
</mgrwt>
</event>
<event>
 4    1  0.2451537E+000  0.5374003E+02  0.7957747E-01  0.1426153E+00
         13   -1    0    0    0    0  0.00000000000E+00  0.00000000000E+00  0.99999944178E+02  0.99999999999E+02  0.10566000000E+00 0.  1.
         22   -1    0    0    0    0 -0.00000000000E+00 -0.00000000000E+00 -0.18565006736E+02  0.18565006736E+02  0.00000000000E+00 0.  1.
         13    1    1    2    0    0 -0.53542806780E+01 -0.18955796815E+02 -0.14848691907E+01  0.19753646626E+02  0.10566000000E+00 0. -1.
        996    1    1    2    0    0  0.53542806780E+01  0.18955796815E+02  0.82919806633E+02  0.98811360109E+02  0.50000000000E+02 0.  0.
<mgrwt>
<rscale>  0 0.53740027E+02</rscale>
<asrwt>0</asrwt>
<pdfrwt beam="1">  1       13 0.10000000E+01 0.53740027E+02</pdfrwt>
<pdfrwt beam="2">  1       22 0.18565029E+00 0.53740027E+02</pdfrwt>
<totfact> 0.52126966E-01</totfact>
</mgrwt>
</event>
<event>
 4    1  0.2451537E+000  0.5180046E+02  0.7957747E-01  0.1435865E+00
         13   -1    0    0    0    0  0.00000000000E+00  0.00000000000E+00  0.99999944181E+02  0.10000000000E+03  0.10566000000E+00 0.  1.
         22   -1    0    0    0    0 -0.00000000000E+00 -0.00000000000E+00 -0.11821070783E+02  0.11821070783E+02  0.00000000000E+00 0.  1.
         13    1    1    2    0    0  0.71896455423E+01  0.11471566469E+02  0.63012671454E+01  0.14933350995E+02  0.10566000000E+00 0. -1.
        996    1    1    2    0    0 -0.71896455423E+01 -0.11471566469E+02  0.81877606253E+02  0.96887719789E+02  0.50000000000E+02 0.  0.
<mgrwt>
<rscale>  0 0.51800462E+02</rscale>
<asrwt>0</asrwt>
<pdfrwt beam="1">  1       13 0.10000000E+01 0.51800462E+02</pdfrwt>
<pdfrwt beam="2">  1       22 0.11821095E+00 0.51800462E+02</pdfrwt>
<totfact> 0.10994019E+00</totfact>
</mgrwt>
</event>
<event>
 4    1  0.2451537E+000  0.5333101E+02  0.7957747E-01  0.1428161E+00
         13   -1    0    0    0    0  0.00000000000E+00  0.00000000000E+00  0.99999944183E+02  0.10000000000E+03  0.10566000000E+00 0.  1.
         22   -1    0    0    0    0 -0.00000000000E+00 -0.00000000000E+00 -0.12924787725E+02  0.12924787725E+02  0.00000000000E+00 0.  1.
         13    1    1    2    0    0  0.18360853156E+02 -0.26600641703E+01  0.23600251361E+02  0.30019658531E+02  0.10566000000E+00 0. -1.
        996    1    1    2    0    0 -0.18360853156E+02  0.26600641703E+01  0.63474905097E+02  0.82905129197E+02  0.50000000000E+02 0.  0.
<mgrwt>
<rscale>  0 0.53331012E+02</rscale>
<asrwt>0</asrwt>
<pdfrwt beam="1">  1       13 0.10000000E+01 0.53331012E+02</pdfrwt>
<pdfrwt beam="2">  1       22 0.12924812E+00 0.53331012E+02</pdfrwt>
<totfact> 0.96070699E-01</totfact>
</mgrwt>
</event>
<event>
 4    1  0.2451537E+000  0.5259045E+02  0.7957747E-01  0.1431850E+00
         13   -1    0    0    0    0  0.00000000000E+00  0.00000000000E+00  0.99999944179E+02  0.99999999999E+02  0.10566000000E+00 0. -1.
         22   -1    0    0    0    0 -0.00000000000E+00 -0.00000000000E+00 -0.12296981299E+02  0.12296981299E+02  0.00000000000E+00 0. -1.
         13    1    1    2    0    0 -0.16163531285E+02 -0.21204268889E+01  0.12563817180E+02  0.20581948886E+02  0.10566000000E+00 0.  1.
        996    1    1    2    0    0  0.16163531285E+02  0.21204268889E+01  0.75139145699E+02  0.91715032411E+02  0.50000000000E+02 0.  0.
<mgrwt>
<rscale>  0 0.52590455E+02</rscale>
<asrwt>0</asrwt>
<pdfrwt beam="1">  1       13 0.10000000E+01 0.52590455E+02</pdfrwt>
<pdfrwt beam="2">  1       22 0.12297006E+00 0.52590455E+02</pdfrwt>
<totfact> 0.10366120E+00</totfact>
</mgrwt>
</event>
<event>
 4    1  0.2451537E+000  0.5428461E+02  0.7957747E-01  0.1423513E+00
         13   -1    0    0    0    0  0.00000000000E+00  0.00000000000E+00  0.99999944178E+02  0.99999999998E+02  0.10566000000E+00 0.  1.
         22   -1    0    0    0    0 -0.00000000000E+00 -0.00000000000E+00 -0.14277857325E+02  0.14277857325E+02  0.00000000000E+00 0.  1.
         13    1    1    2    0    0 -0.19488470873E+02 -0.81865087221E+01  0.20874209458E+02  0.29707965372E+02  0.10566000000E+00 0. -1.
        996    1    1    2    0    0  0.19488470873E+02  0.81865087221E+01  0.64847877395E+02  0.84569891951E+02  0.50000000000E+02 0.  0.
<mgrwt>
<rscale>  0 0.54284615E+02</rscale>
<asrwt>0</asrwt>
<pdfrwt beam="1">  1       13 0.10000000E+01 0.54284615E+02</pdfrwt>
<pdfrwt beam="2">  1       22 0.14277881E+00 0.54284615E+02</pdfrwt>
<totfact> 0.82055206E-01</totfact>
</mgrwt>
</event>
<event>
 4    1  0.2451537E+000  0.5166995E+02  0.7957747E-01  0.1436537E+00
         13   -1    0    0    0    0  0.00000000000E+00  0.00000000000E+00  0.99999944176E+02  0.99999999996E+02  0.10566000000E+00 0.  1.
         22   -1    0    0    0    0 -0.00000000000E+00 -0.00000000000E+00 -0.34115628151E+02  0.34115628151E+02  0.00000000000E+00 0. -1.
         13    1    1    2    0    0  0.69441248716E+00 -0.13011578281E+02 -0.25783064281E+02  0.28888768506E+02  0.10566000000E+00 0. -1.
        996    1    1    2    0    0 -0.69441248716E+00  0.13011578281E+02  0.91667380305E+02  0.10522685964E+03  0.50000000000E+02 0.  0.
<mgrwt>
<rscale>  0 0.51669947E+02</rscale>
<asrwt>0</asrwt>
<pdfrwt beam="1">  1       13 0.10000000E+01 0.51669947E+02</pdfrwt>
<pdfrwt beam="2">  1       22 0.34115647E+00 0.51669947E+02</pdfrwt>
<totfact> 0.16425903E-01</totfact>
</mgrwt>
</event>
<event>
 4    1  0.2451537E+000  0.5351598E+02  0.7957747E-01  0.1427250E+00
         13   -1    0    0    0    0  0.00000000000E+00  0.00000000000E+00  0.99999944176E+02  0.99999999996E+02  0.10566000000E+00 0.  1.
         22   -1    0    0    0    0 -0.00000000000E+00 -0.00000000000E+00 -0.13188155685E+02  0.13188155685E+02  0.00000000000E+00 0.  1.
         13    1    1    2    0    0  0.17264473104E+02 -0.81177772022E+01  0.24426844451E+02  0.30994229013E+02  0.10566000000E+00 0. -1.
        996    1    1    2    0    0 -0.17264473104E+02  0.81177772022E+01  0.62384944040E+02  0.82193926668E+02  0.50000000000E+02 0.  0.
<mgrwt>
<rscale>  0 0.53515982E+02</rscale>
<asrwt>0</asrwt>
<pdfrwt beam="1">  1       13 0.10000000E+01 0.53515982E+02</pdfrwt>
<pdfrwt beam="2">  1       22 0.13188180E+00 0.53515982E+02</pdfrwt>
<totfact> 0.93094733E-01</totfact>
</mgrwt>
</event>
<event>
 4    1  0.2451537E+000  0.5994917E+02  0.7957747E-01  0.1398045E+00
         13   -1    0    0    0    0  0.00000000000E+00  0.00000000000E+00  0.99999944173E+02  0.99999999994E+02  0.10566000000E+00 0.  1.
         22   -1    0    0    0    0 -0.00000000000E+00 -0.00000000000E+00 -0.27159061448E+02  0.27159061448E+02  0.00000000000E+00 0.  1.
         13    1    1    2    0    0  0.26530611964E+02  0.19749170772E+02  0.33078787957E+00  0.33076029115E+02  0.10566000000E+00 0. -1.
        996    1    1    2    0    0 -0.26530611964E+02 -0.19749170772E+02  0.72510094845E+02  0.94083032327E+02  0.50000000000E+02 0.  0.
<mgrwt>
<rscale>  0 0.59949171E+02</rscale>
<asrwt>0</asrwt>
<pdfrwt beam="1">  1       13 0.10000000E+01 0.59949171E+02</pdfrwt>
<pdfrwt beam="2">  1       22 0.27159082E+00 0.59949171E+02</pdfrwt>
<totfact> 0.25325151E-01</totfact>
</mgrwt>
</event>
<event>
 4    1  0.2451537E+000  0.5718999E+02  0.7957747E-01  0.1410017E+00
         13   -1    0    0    0    0  0.00000000000E+00  0.00000000000E+00  0.99999944178E+02  0.99999999998E+02  0.10566000000E+00 0.  1.
         22   -1    0    0    0    0 -0.00000000000E+00 -0.00000000000E+00 -0.46018976628E+02  0.46018976628E+02  0.00000000000E+00 0. -1.
         13    1    1    2    0    0 -0.89718408478E+01  0.26271673902E+02 -0.32246076113E+02  0.42550151193E+02  0.10566000000E+00 0. -1.
        996    1    1    2    0    0  0.89718408478E+01 -0.26271673902E+02  0.86227043663E+02  0.10346882543E+03  0.50000000000E+02 0.  0.
<mgrwt>
<rscale>  0 0.57189988E+02</rscale>
<asrwt>0</asrwt>
<pdfrwt beam="1">  1       13 0.10000000E+01 0.57189988E+02</pdfrwt>
<pdfrwt beam="2">  1       22 0.46018992E+00 0.57189988E+02</pdfrwt>
<totfact> 0.91833028E-02</totfact>
</mgrwt>
</event>
<event>
 4    1  0.2451537E+000  0.6657826E+02  0.7957747E-01  0.1372131E+00
         13   -1    0    0    0    0  0.00000000000E+00  0.00000000000E+00  0.99999944180E+02  0.10000000000E+03  0.10566000000E+00 0.  1.
         22   -1    0    0    0    0 -0.00000000000E+00 -0.00000000000E+00 -0.34012902081E+02  0.34012902081E+02  0.00000000000E+00 0. -1.
         13    1    1    2    0    0 -0.29818899681E+02 -0.32303213775E+02  0.59501094895E+01  0.44363040533E+02  0.10566000000E+00 0. -1.
        996    1    1    2    0    0  0.29818899681E+02  0.32303213775E+02  0.60036932610E+02  0.89649861548E+02  0.50000000000E+02 0.  0.
<mgrwt>
<rscale>  0 0.66578258E+02</rscale>
<asrwt>0</asrwt>
<pdfrwt beam="1">  1       13 0.10000000E+01 0.66578258E+02</pdfrwt>
<pdfrwt beam="2">  1       22 0.34012921E+00 0.66578258E+02</pdfrwt>
<totfact> 0.16750870E-01</totfact>
</mgrwt>
</event>
<event>
 4    1  0.2451537E+000  0.5706278E+02  0.7957747E-01  0.1410588E+00
         13   -1    0    0    0    0  0.00000000000E+00  0.00000000000E+00  0.99999944181E+02  0.10000000000E+03  0.10566000000E+00 0.  1.
         22   -1    0    0    0    0 -0.00000000000E+00 -0.00000000000E+00 -0.24767720150E+02  0.24767720150E+02  0.00000000000E+00 0. -1.
         13    1    1    2    0    0  0.37112427045E+01  0.27246796636E+02 -0.32970498537E+01  0.27695540274E+02  0.10566000000E+00 0. -1.
        996    1    1    2    0    0 -0.37112427045E+01 -0.27246796636E+02  0.78529273884E+02  0.97072179877E+02  0.50000000000E+02 0.  0.
<mgrwt>
<rscale>  0 0.57062783E+02</rscale>
<asrwt>0</asrwt>
<pdfrwt beam="1">  1       13 0.10000000E+01 0.57062783E+02</pdfrwt>
<pdfrwt beam="2">  1       22 0.24767741E+00 0.57062783E+02</pdfrwt>
<totfact> 0.30254903E-01</totfact>
</mgrwt>
</event>
<event>
 4    1  0.2451537E+000  0.5359946E+02  0.7957747E-01  0.1426841E+00
         13   -1    0    0    0    0  0.00000000000E+00  0.00000000000E+00  0.99999944177E+02  0.99999999998E+02  0.10566000000E+00 0. -1.
         22   -1    0    0    0    0 -0.00000000000E+00 -0.00000000000E+00 -0.28743103240E+02  0.28743103240E+02  0.00000000000E+00 0.  1.
         13    1    1    2    0    0  0.15608009671E+01 -0.19247504721E+02 -0.16839858971E+02  0.25622149633E+02  0.10566000000E+00 0.  1.
        996    1    1    2    0    0 -0.15608009671E+01  0.19247504721E+02  0.88096699908E+02  0.10312095360E+03  0.50000000000E+02 0.  0.
<mgrwt>
<rscale>  0 0.53599464E+02</rscale>
<asrwt>0</asrwt>
<pdfrwt beam="1">  1       13 0.10000000E+01 0.53599464E+02</pdfrwt>
<pdfrwt beam="2">  1       22 0.28743123E+00 0.53599464E+02</pdfrwt>
<totfact> 0.22498977E-01</totfact>
</mgrwt>
</event>
<event>
 4    1  0.2451537E+000  0.5139551E+02  0.7957747E-01  0.1437957E+00
         13   -1    0    0    0    0  0.00000000000E+00  0.00000000000E+00  0.99999944180E+02  0.10000000000E+03  0.10566000000E+00 0. -1.
         22   -1    0    0    0    0 -0.00000000000E+00 -0.00000000000E+00 -0.10208371548E+02  0.10208371548E+02  0.00000000000E+00 0. -1.
         13    1    1    2    0    0  0.73287089790E+01 -0.93695666556E+01  0.23378958890E+02  0.26231386494E+02  0.10566000000E+00 0.  1.
        996    1    1    2    0    0 -0.73287089790E+01  0.93695666556E+01  0.66412613742E+02  0.83976985054E+02  0.50000000000E+02 0.  0.
<mgrwt>
<rscale>  0 0.51395513E+02</rscale>
<asrwt>0</asrwt>
<pdfrwt beam="1">  1       13 0.10000000E+01 0.51395513E+02</pdfrwt>
<pdfrwt beam="2">  1       22 0.10208397E+00 0.51395513E+02</pdfrwt>
<totfact> 0.13661961E+00</totfact>
</mgrwt>
</event>
<event>
 4    1  0.2451537E+000  0.5124318E+02  0.7957747E-01  0.1438749E+00
         13   -1    0    0    0    0  0.00000000000E+00  0.00000000000E+00  0.99999944181E+02  0.10000000000E+03  0.10566000000E+00 0.  1.
         22   -1    0    0    0    0 -0.00000000000E+00 -0.00000000000E+00 -0.15907350484E+02  0.15907350484E+02  0.00000000000E+00 0.  1.
         13    1    1    2    0    0  0.38550928583E+01  0.10535739590E+02 -0.56526400749E+01  0.12562923764E+02  0.10566000000E+00 0. -1.
        996    1    1    2    0    0 -0.38550928583E+01 -0.10535739590E+02  0.89745233772E+02  0.10334442672E+03  0.50000000000E+02 0.  0.
<mgrwt>
<rscale>  0 0.51243181E+02</rscale>
<asrwt>0</asrwt>
<pdfrwt beam="1">  1       13 0.10000000E+01 0.51243181E+02</pdfrwt>
<pdfrwt beam="2">  1       22 0.15907374E+00 0.51243181E+02</pdfrwt>
<totfact> 0.68094081E-01</totfact>
</mgrwt>
</event>
<event>
 4    1  0.2451537E+000  0.5119945E+02  0.7957747E-01  0.1438977E+00
         13   -1    0    0    0    0  0.00000000000E+00  0.00000000000E+00  0.99999944170E+02  0.99999999990E+02  0.10566000000E+00 0.  1.
         22   -1    0    0    0    0 -0.00000000000E+00 -0.00000000000E+00 -0.17216083543E+02  0.17216083543E+02  0.00000000000E+00 0. -1.
         13    1    1    2    0    0 -0.13178141826E+01 -0.10938314513E+02 -0.75674926888E+01  0.13366430647E+02  0.10566000000E+00 0. -1.
        996    1    1    2    0    0  0.13178141826E+01  0.10938314513E+02  0.90351353316E+02  0.10384965289E+03  0.50000000000E+02 0.  0.
<mgrwt>
<rscale>  0 0.51199447E+02</rscale>
<asrwt>0</asrwt>
<pdfrwt beam="1">  1       13 0.10000000E+01 0.51199447E+02</pdfrwt>
<pdfrwt beam="2">  1       22 0.17216107E+00 0.51199447E+02</pdfrwt>
<totfact> 0.59371927E-01</totfact>
</mgrwt>
</event>
<event>
 4    1  0.2451537E+000  0.5500983E+02  0.7957747E-01  0.1420052E+00
         13   -1    0    0    0    0  0.00000000000E+00  0.00000000000E+00  0.99999944183E+02  0.10000000000E+03  0.10566000000E+00 0.  1.
         22   -1    0    0    0    0 -0.00000000000E+00 -0.00000000000E+00 -0.19487592173E+02  0.19487592173E+02  0.00000000000E+00 0. -1.
         13    1    1    2    0    0 -0.19409296869E+02  0.12221319016E+02  0.12034608532E+01  0.22968259087E+02  0.10566000000E+00 0. -1.
        996    1    1    2    0    0  0.19409296869E+02 -0.12221319016E+02  0.79308891157E+02  0.96519333089E+02  0.50000000000E+02 0.  0.
<mgrwt>
<rscale>  0 0.55009830E+02</rscale>
<asrwt>0</asrwt>
<pdfrwt beam="1">  1       13 0.10000000E+01 0.55009830E+02</pdfrwt>
<pdfrwt beam="2">  1       22 0.19487615E+00 0.55009830E+02</pdfrwt>
<totfact> 0.47797989E-01</totfact>
</mgrwt>
</event>
<event>
 4    1  0.2451537E+000  0.5176703E+02  0.7957747E-01  0.1436037E+00
         13   -1    0    0    0    0  0.00000000000E+00  0.00000000000E+00  0.99999944180E+02  0.10000000000E+03  0.10566000000E+00 0. -1.
         22   -1    0    0    0    0 -0.00000000000E+00 -0.00000000000E+00 -0.11127072572E+02  0.11127072572E+02  0.00000000000E+00 0. -1.
         13    1    1    2    0    0  0.25514489938E+01  0.13164919511E+02  0.97738109851E+01  0.16594081563E+02  0.10566000000E+00 0.  1.
        996    1    1    2    0    0 -0.25514489938E+01 -0.13164919511E+02  0.79099060623E+02  0.94532991009E+02  0.50000000000E+02 0.  0.
<mgrwt>
<rscale>  0 0.51767026E+02</rscale>
<asrwt>0</asrwt>
<pdfrwt beam="1">  1       13 0.10000000E+01 0.51767026E+02</pdfrwt>
<pdfrwt beam="2">  1       22 0.11127097E+00 0.51767026E+02</pdfrwt>
<totfact> 0.12042712E+00</totfact>
</mgrwt>
</event>
<event>
 4    1  0.2451537E+000  0.5141847E+02  0.7957747E-01  0.1437837E+00
         13   -1    0    0    0    0  0.00000000000E+00  0.00000000000E+00  0.99999944177E+02  0.99999999997E+02  0.10566000000E+00 0.  1.
         22   -1    0    0    0    0 -0.00000000000E+00 -0.00000000000E+00 -0.11549775226E+02  0.11549775226E+02  0.00000000000E+00 0. -1.
         13    1    1    2    0    0  0.11880373125E+02 -0.16479696292E+01  0.39375927553E+01  0.12624376033E+02  0.10566000000E+00 0. -1.
        996    1    1    2    0    0 -0.11880373125E+02  0.16479696292E+01  0.84512576196E+02  0.98925399189E+02  0.50000000000E+02 0.  0.
<mgrwt>
<rscale>  0 0.51418470E+02</rscale>
<asrwt>0</asrwt>
<pdfrwt beam="1">  1       13 0.10000000E+01 0.51418470E+02</pdfrwt>
<pdfrwt beam="2">  1       22 0.11549800E+00 0.51418470E+02</pdfrwt>
<totfact> 0.11377964E+00</totfact>
</mgrwt>
</event>
<event>
 4    1  0.2451537E+000  0.6372603E+02  0.7957747E-01  0.1382829E+00
         13   -1    0    0    0    0  0.00000000000E+00  0.00000000000E+00  0.99999944175E+02  0.99999999996E+02  0.10566000000E+00 0. -1.
         22   -1    0    0    0    0 -0.00000000000E+00 -0.00000000000E+00 -0.26740394141E+02  0.26740394141E+02  0.00000000000E+00 0. -1.
         13    1    1    2    0    0  0.26362420830E+02  0.29428392678E+02  0.24370114807E+02  0.46421128674E+02  0.10566000000E+00 0.  1.
        996    1    1    2    0    0 -0.26362420830E+02 -0.29428392678E+02  0.48889435227E+02  0.80319265463E+02  0.50000000000E+02 0.  0.
<mgrwt>
<rscale>  0 0.63726035E+02</rscale>
<asrwt>0</asrwt>
<pdfrwt beam="1">  1       13 0.10000000E+01 0.63726035E+02</pdfrwt>
<pdfrwt beam="2">  1       22 0.26740415E+00 0.63726035E+02</pdfrwt>
<totfact> 0.26232510E-01</totfact>
</mgrwt>
</event>
<event>
 4    1  0.2451537E+000  0.5474969E+02  0.7957747E-01  0.1421286E+00
         13   -1    0    0    0    0  0.00000000000E+00  0.00000000000E+00  0.99999944179E+02  0.99999999999E+02  0.10566000000E+00 0.  1.
         22   -1    0    0    0    0 -0.00000000000E+00 -0.00000000000E+00 -0.69235604188E+02  0.69235604188E+02  0.00000000000E+00 0. -1.
         13    1    1    2    0    0 -0.16781270343E+02  0.14694118859E+02 -0.59567691561E+02  0.63606990224E+02  0.10566000000E+00 0. -1.
        996    1    1    2    0    0  0.16781270343E+02 -0.14694118859E+02  0.90332031553E+02  0.10562861396E+03  0.50000000000E+02 0.  0.
<mgrwt>
<rscale>  0 0.54749686E+02</rscale>
<asrwt>0</asrwt>
<pdfrwt beam="1">  1       13 0.10000000E+01 0.54749686E+02</pdfrwt>
<pdfrwt beam="2">  1       22 0.69235613E+00 0.54749686E+02</pdfrwt>
<totfact> 0.78381193E-02</totfact>
</mgrwt>
</event>
<event>
 4    1  0.2451537E+000  0.5169556E+02  0.7957747E-01  0.1436405E+00
         13   -1    0    0    0    0  0.00000000000E+00  0.00000000000E+00  0.99999944171E+02  0.99999999991E+02  0.10566000000E+00 0. -1.
         22   -1    0    0    0    0 -0.00000000000E+00 -0.00000000000E+00 -0.10915598514E+02  0.10915598514E+02  0.00000000000E+00 0. -1.
         13    1    1    2    0    0  0.80298520855E+01 -0.10389990180E+02  0.10319467401E+02  0.16701287134E+02  0.10566000000E+00 0.  1.
        996    1    1    2    0    0 -0.80298520855E+01  0.10389990180E+02  0.78764878256E+02  0.94214311371E+02  0.50000000000E+02 0.  0.
<mgrwt>
<rscale>  0 0.51695555E+02</rscale>
<asrwt>0</asrwt>
<pdfrwt beam="1">  1       13 0.10000000E+01 0.51695555E+02</pdfrwt>
<pdfrwt beam="2">  1       22 0.10915623E+00 0.51695555E+02</pdfrwt>
<totfact> 0.12389598E+00</totfact>
</mgrwt>
</event>
<event>
 4    1  0.2451537E+000  0.5548709E+02  0.7957747E-01  0.1417809E+00
         13   -1    0    0    0    0  0.00000000000E+00  0.00000000000E+00  0.99999944181E+02  0.10000000000E+03  0.10566000000E+00 0.  1.
         22   -1    0    0    0    0 -0.00000000000E+00 -0.00000000000E+00 -0.24107829068E+02  0.24107829068E+02  0.00000000000E+00 0. -1.
         13    1    1    2    0    0  0.15189661188E+02  0.18657198635E+02 -0.63641119400E+01  0.24886340686E+02  0.10566000000E+00 0. -1.
        996    1    1    2    0    0 -0.15189661188E+02 -0.18657198635E+02  0.82256227054E+02  0.99221488383E+02  0.50000000000E+02 0.  0.
<mgrwt>
<rscale>  0 0.55487087E+02</rscale>
<asrwt>0</asrwt>
<pdfrwt beam="1">  1       13 0.10000000E+01 0.55487087E+02</pdfrwt>
<pdfrwt beam="2">  1       22 0.24107850E+00 0.55487087E+02</pdfrwt>
<totfact> 0.31832477E-01</totfact>
</mgrwt>
</event>
<event>
 4    1  0.2451537E+000  0.5110471E+02  0.7957747E-01  0.1439473E+00
         13   -1    0    0    0    0  0.00000000000E+00  0.00000000000E+00  0.99999944178E+02  0.99999999998E+02  0.10566000000E+00 0. -1.
         22   -1    0    0    0    0 -0.00000000000E+00 -0.00000000000E+00 -0.15121033760E+02  0.15121033760E+02  0.00000000000E+00 0.  1.
         13    1    1    2    0    0  0.93998652450E+01 -0.48304878687E+01 -0.50285376365E+01  0.11704205845E+02  0.10566000000E+00 0.  1.
        996    1    1    2    0    0 -0.93998652450E+01  0.48304878687E+01  0.89907448055E+02  0.10341682791E+03  0.50000000000E+02 0.  0.
<mgrwt>
<rscale>  0 0.51104707E+02</rscale>
<asrwt>0</asrwt>
<pdfrwt beam="1">  1       13 0.10000000E+01 0.51104707E+02</pdfrwt>
<pdfrwt beam="2">  1       22 0.15121057E+00 0.51104707E+02</pdfrwt>
<totfact> 0.74153469E-01</totfact>
</mgrwt>
</event>
<event>
 4    1  0.2451537E+000  0.6141428E+02  0.7957747E-01  0.1391991E+00
         13   -1    0    0    0    0  0.00000000000E+00  0.00000000000E+00  0.99999944177E+02  0.99999999998E+02  0.10566000000E+00 0. -1.
         22   -1    0    0    0    0 -0.00000000000E+00 -0.00000000000E+00 -0.27908968208E+02  0.27908968208E+02  0.00000000000E+00 0.  1.
         13    1    1    2    0    0 -0.35629829658E+02 -0.14930721721E+01  0.34864003729E+01  0.35831273736E+02  0.10566000000E+00 0.  1.
        996    1    1    2    0    0  0.35629829658E+02  0.14930721721E+01  0.68604575597E+02  0.92077694469E+02  0.50000000000E+02 0.  0.
<mgrwt>
<rscale>  0 0.61414282E+02</rscale>
<asrwt>0</asrwt>
<pdfrwt beam="1">  1       13 0.10000000E+01 0.61414282E+02</pdfrwt>
<pdfrwt beam="2">  1       22 0.27908988E+00 0.61414282E+02</pdfrwt>
<totfact> 0.24054054E-01</totfact>
</mgrwt>
</event>
<event>
 4    1  0.2451537E+000  0.5234749E+02  0.7957747E-01  0.1433076E+00
         13   -1    0    0    0    0  0.00000000000E+00  0.00000000000E+00  0.99999944181E+02  0.10000000000E+03  0.10566000000E+00 0. -1.
         22   -1    0    0    0    0 -0.00000000000E+00 -0.00000000000E+00 -0.11795980678E+02  0.11795980678E+02  0.00000000000E+00 0. -1.
         13    1    1    2    0    0 -0.36464998597E+01  0.15065276561E+02  0.13369232253E+02  0.20469661798E+02  0.10566000000E+00 0.  1.
        996    1    1    2    0    0  0.36464998597E+01 -0.15065276561E+02  0.74834731250E+02  0.91326318881E+02  0.50000000000E+02 0.  0.
<mgrwt>
<rscale>  0 0.52347488E+02</rscale>
<asrwt>0</asrwt>
<pdfrwt beam="1">  1       13 0.10000000E+01 0.52347488E+02</pdfrwt>
<pdfrwt beam="2">  1       22 0.11796005E+00 0.52347488E+02</pdfrwt>
<totfact> 0.11043182E+00</totfact>
</mgrwt>
</event>
<event>
 4    1  0.2451537E+000  0.5262930E+02  0.7957747E-01  0.1431655E+00
         13   -1    0    0    0    0  0.00000000000E+00  0.00000000000E+00  0.99999944191E+02  0.10000000001E+03  0.10566000000E+00 0.  1.
         22   -1    0    0    0    0 -0.00000000000E+00 -0.00000000000E+00 -0.66924522203E+02  0.66924522203E+02  0.00000000000E+00 0. -1.
         13    1    1    2    0    0  0.14397536028E+02 -0.79091362610E+01 -0.58795214160E+02  0.61046964316E+02  0.10566000000E+00 0. -1.
        996    1    1    2    0    0 -0.14397536028E+02  0.79091362610E+01  0.91870636149E+02  0.10587755790E+03  0.50000000000E+02 0.  0.
<mgrwt>
<rscale>  0 0.52629302E+02</rscale>
<asrwt>0</asrwt>
<pdfrwt beam="1">  1       13 0.10000000E+01 0.52629302E+02</pdfrwt>
<pdfrwt beam="2">  1       22 0.66924531E+00 0.52629302E+02</pdfrwt>
<totfact> 0.86420086E-02</totfact>
</mgrwt>
</event>
<event>
 4    1  0.2451537E+000  0.5806042E+02  0.7957747E-01  0.1406156E+00
         13   -1    0    0    0    0  0.00000000000E+00  0.00000000000E+00  0.99999944177E+02  0.99999999997E+02  0.10566000000E+00 0. -1.
         22   -1    0    0    0    0 -0.00000000000E+00 -0.00000000000E+00 -0.20732001525E+02  0.20732001525E+02  0.00000000000E+00 0. -1.
         13    1    1    2    0    0 -0.23505723769E+02  0.17846390109E+02  0.11965383022E+02  0.31846416513E+02  0.10566000000E+00 0.  1.
        996    1    1    2    0    0  0.23505723769E+02 -0.17846390109E+02  0.67302559630E+02  0.88885585010E+02  0.50000000000E+02 0.  0.
<mgrwt>
<rscale>  0 0.58060423E+02</rscale>
<asrwt>0</asrwt>
<pdfrwt beam="1">  1       13 0.10000000E+01 0.58060423E+02</pdfrwt>
<pdfrwt beam="2">  1       22 0.20732024E+00 0.58060423E+02</pdfrwt>
<totfact> 0.42779865E-01</totfact>
</mgrwt>
</event>
<event>
 4    1  0.2451537E+000  0.5108390E+02  0.7957747E-01  0.1439581E+00
         13   -1    0    0    0    0  0.00000000000E+00  0.00000000000E+00  0.99999944183E+02  0.10000000000E+03  0.10566000000E+00 0.  1.
         22   -1    0    0    0    0 -0.00000000000E+00 -0.00000000000E+00 -0.95564982585E+01  0.95564982585E+01  0.00000000000E+00 0.  1.
         13    1    1    2    0    0 -0.51882713274E+01 -0.90910104782E+01  0.19541286630E+02  0.22168393674E+02  0.10566000000E+00 0. -1.
        996    1    1    2    0    0  0.51882713274E+01  0.90910104782E+01  0.70902159295E+02  0.87388104589E+02  0.50000000000E+02 0.  0.
<mgrwt>
<rscale>  0 0.51083898E+02</rscale>
<asrwt>0</asrwt>
<pdfrwt beam="1">  1       13 0.10000000E+01 0.51083898E+02</pdfrwt>
<pdfrwt beam="2">  1       22 0.95565235E-01 0.51083898E+02</pdfrwt>
<totfact> 0.15015730E+00</totfact>
</mgrwt>
</event>
<event>
 4    1  0.2451537E+000  0.5293899E+02  0.7957747E-01  0.1430105E+00
         13   -1    0    0    0    0  0.00000000000E+00  0.00000000000E+00  0.99999944173E+02  0.99999999993E+02  0.10566000000E+00 0.  1.
         22   -1    0    0    0    0 -0.00000000000E+00 -0.00000000000E+00 -0.19069891416E+02  0.19069891416E+02  0.00000000000E+00 0. -1.
         13    1    1    2    0    0  0.57336047381E+01 -0.16421410176E+02 -0.50384116212E+01  0.18108939537E+02  0.10566000000E+00 0. -1.
        996    1    1    2    0    0 -0.57336047381E+01  0.16421410176E+02  0.85968464378E+02  0.10096095187E+03  0.50000000000E+02 0.  0.
<mgrwt>
<rscale>  0 0.52938993E+02</rscale>
<asrwt>0</asrwt>
<pdfrwt beam="1">  1       13 0.10000000E+01 0.52938993E+02</pdfrwt>
<pdfrwt beam="2">  1       22 0.19069914E+00 0.52938993E+02</pdfrwt>
<totfact> 0.49564067E-01</totfact>
</mgrwt>
</event>
<event>
 4    1  0.2451537E+000  0.5366157E+02  0.7957747E-01  0.1426537E+00
         13   -1    0    0    0    0  0.00000000000E+00  0.00000000000E+00  0.99999944188E+02  0.10000000001E+03  0.10566000000E+00 0.  1.
         22   -1    0    0    0    0 -0.00000000000E+00 -0.00000000000E+00 -0.20072205305E+02  0.20072205305E+02  0.00000000000E+00 0.  1.
         13    1    1    2    0    0  0.19175878610E+02 -0.34423129822E+01 -0.45360340491E+01  0.20003764848E+02  0.10566000000E+00 0. -1.
        996    1    1    2    0    0 -0.19175878610E+02  0.34423129822E+01  0.84463772932E+02  0.10006844047E+03  0.50000000000E+02 0.  0.
<mgrwt>
<rscale>  0 0.53661568E+02</rscale>
<asrwt>0</asrwt>
<pdfrwt beam="1">  1       13 0.10000000E+01 0.53661568E+02</pdfrwt>
<pdfrwt beam="2">  1       22 0.20072228E+00 0.53661568E+02</pdfrwt>
<totfact> 0.45136120E-01</totfact>
</mgrwt>
</event>
<event>
 4    1  0.2451537E+000  0.5109904E+02  0.7957747E-01  0.1439502E+00
         13   -1    0    0    0    0  0.00000000000E+00  0.00000000000E+00  0.99999944177E+02  0.99999999997E+02  0.10566000000E+00 0.  1.
         22   -1    0    0    0    0 -0.00000000000E+00 -0.00000000000E+00 -0.22648714212E+02  0.22648714212E+02  0.00000000000E+00 0. -1.
         13    1    1    2    0    0  0.10538789642E+02  0.21439124309E+00 -0.14269970449E+02  0.17741343562E+02  0.10566000000E+00 0. -1.
        996    1    1    2    0    0 -0.10538789642E+02 -0.21439124309E+00  0.91621200414E+02  0.10490737065E+03  0.50000000000E+02 0.  0.
<mgrwt>
<rscale>  0 0.51099042E+02</rscale>
<asrwt>0</asrwt>
<pdfrwt beam="1">  1       13 0.10000000E+01 0.51099042E+02</pdfrwt>
<pdfrwt beam="2">  1       22 0.22648736E+00 0.51099042E+02</pdfrwt>
<totfact> 0.35703795E-01</totfact>
</mgrwt>
</event>
<event>
 4    1  0.2451537E+000  0.5183537E+02  0.7957747E-01  0.1435686E+00
         13   -1    0    0    0    0  0.00000000000E+00  0.00000000000E+00  0.99999944182E+02  0.10000000000E+03  0.10566000000E+00 0. -1.
         22   -1    0    0    0    0 -0.00000000000E+00 -0.00000000000E+00 -0.27585703281E+02  0.27585703281E+02  0.00000000000E+00 0.  1.
         13    1    1    2    0    0 -0.13491538300E+02  0.22100591414E+01 -0.18457435769E+02  0.22969415890E+02  0.10566000000E+00 0.  1.
        996    1    1    2    0    0  0.13491538300E+02 -0.22100591414E+01  0.90871676670E+02  0.10461628739E+03  0.50000000000E+02 0.  0.
<mgrwt>
<rscale>  0 0.51835374E+02</rscale>
<asrwt>0</asrwt>
<pdfrwt beam="1">  1       13 0.10000000E+01 0.51835374E+02</pdfrwt>
<pdfrwt beam="2">  1       22 0.27585724E+00 0.51835374E+02</pdfrwt>
<totfact> 0.24297887E-01</totfact>
</mgrwt>
</event>
<event>
 4    1  0.2451537E+000  0.6086423E+02  0.7957747E-01  0.1394240E+00
         13   -1    0    0    0    0  0.00000000000E+00  0.00000000000E+00  0.99999944183E+02  0.10000000000E+03  0.10566000000E+00 0.  1.
         22   -1    0    0    0    0 -0.00000000000E+00 -0.00000000000E+00 -0.57905218654E+02  0.57905218654E+02  0.00000000000E+00 0. -1.
         13    1    1    2    0    0 -0.12104781477E+02 -0.32525821974E+02 -0.41754535343E+02  0.54294633394E+02  0.10566000000E+00 0. -1.
        996    1    1    2    0    0  0.12104781477E+02  0.32525821974E+02  0.83849260872E+02  0.10361058526E+03  0.50000000000E+02 0.  0.
<mgrwt>
<rscale>  0 0.60864233E+02</rscale>
<asrwt>0</asrwt>
<pdfrwt beam="1">  1       13 0.10000000E+01 0.60864233E+02</pdfrwt>
<pdfrwt beam="2">  1       22 0.57905230E+00 0.60864233E+02</pdfrwt>
<totfact> 0.58266204E-02</totfact>
</mgrwt>
</event>
<event>
 4    1  0.2451537E+000  0.5765499E+02  0.7957747E-01  0.1407945E+00
         13   -1    0    0    0    0  0.00000000000E+00  0.00000000000E+00  0.99999944190E+02  0.10000000001E+03  0.10566000000E+00 0. -1.
         22   -1    0    0    0    0 -0.00000000000E+00 -0.00000000000E+00 -0.19560836582E+02  0.19560836582E+02  0.00000000000E+00 0.  1.
         13    1    1    2    0    0  0.19246404702E+02 -0.21299619480E+02  0.39584506122E+02  0.48898283946E+02  0.10566000000E+00 0.  1.
        996    1    1    2    0    0 -0.19246404702E+02  0.21299619480E+02  0.40854601485E+02  0.70662552646E+02  0.50000000000E+02 0.  0.
<mgrwt>
<rscale>  0 0.57654990E+02</rscale>
<asrwt>0</asrwt>
<pdfrwt beam="1">  1       13 0.10000000E+01 0.57654990E+02</pdfrwt>
<pdfrwt beam="2">  1       22 0.19560859E+00 0.57654990E+02</pdfrwt>
<totfact> 0.47676533E-01</totfact>
</mgrwt>
</event>
<event>
 4    1  0.2451537E+000  0.5120306E+02  0.7957747E-01  0.1438959E+00
         13   -1    0    0    0    0  0.00000000000E+00  0.00000000000E+00  0.99999944178E+02  0.99999999998E+02  0.10566000000E+00 0. -1.
         22   -1    0    0    0    0 -0.00000000000E+00 -0.00000000000E+00 -0.11450673461E+02  0.11450673461E+02  0.00000000000E+00 0.  1.
         13    1    1    2    0    0  0.70977753876E+01 -0.84483975029E+01  0.24918063062E+01  0.11312563747E+02  0.10566000000E+00 0.  1.
        996    1    1    2    0    0 -0.70977753876E+01  0.84483975029E+01  0.86057464411E+02  0.10013810971E+03  0.50000000000E+02 0.  0.
<mgrwt>
<rscale>  0 0.51203065E+02</rscale>
<asrwt>0</asrwt>
<pdfrwt beam="1">  1       13 0.10000000E+01 0.51203065E+02</pdfrwt>
<pdfrwt beam="2">  1       22 0.11450698E+00 0.51203065E+02</pdfrwt>
<totfact> 0.11521055E+00</totfact>
</mgrwt>
</event>
<event>
 4    1  0.2451537E+000  0.5164074E+02  0.7957747E-01  0.1436688E+00
         13   -1    0    0    0    0  0.00000000000E+00  0.00000000000E+00  0.99999944180E+02  0.10000000000E+03  0.10566000000E+00 0.  1.
         22   -1    0    0    0    0 -0.00000000000E+00 -0.00000000000E+00 -0.16361368486E+02  0.16361368486E+02  0.00000000000E+00 0.  1.
         13    1    1    2    0    0  0.11792167326E+02 -0.52640680476E+01 -0.49416296623E+01  0.13827381907E+02  0.10566000000E+00 0. -1.
        996    1    1    2    0    0 -0.11792167326E+02  0.52640680476E+01  0.88580205357E+02  0.10253398658E+03  0.50000000000E+02 0.  0.
<mgrwt>
<rscale>  0 0.51640736E+02</rscale>
<asrwt>0</asrwt>
<pdfrwt beam="1">  1       13 0.10000000E+01 0.51640736E+02</pdfrwt>
<pdfrwt beam="2">  1       22 0.16361392E+00 0.51640736E+02</pdfrwt>
<totfact> 0.64937671E-01</totfact>
</mgrwt>
</event>
<event>
 4    1  0.2451537E+000  0.6296843E+02  0.7957747E-01  0.1385781E+00
         13   -1    0    0    0    0  0.00000000000E+00  0.00000000000E+00  0.99999944181E+02  0.10000000000E+03  0.10566000000E+00 0. -1.
         22   -1    0    0    0    0 -0.00000000000E+00 -0.00000000000E+00 -0.33026488168E+02  0.33026488168E+02  0.00000000000E+00 0.  1.
         13    1    1    2    0    0  0.25230007218E+02  0.28783144884E+02 -0.36005160024E+01  0.38444734011E+02  0.10566000000E+00 0.  1.
        996    1    1    2    0    0 -0.25230007218E+02 -0.28783144884E+02  0.70573972015E+02  0.94581754158E+02  0.50000000000E+02 0.  0.
<mgrwt>
<rscale>  0 0.62968426E+02</rscale>
<asrwt>0</asrwt>
<pdfrwt beam="1">  1       13 0.10000000E+01 0.62968426E+02</pdfrwt>
<pdfrwt beam="2">  1       22 0.33026507E+00 0.62968426E+02</pdfrwt>
<totfact> 0.17593090E-01</totfact>
</mgrwt>
</event>
<event>
 4    1  0.2451537E+000  0.5118590E+02  0.7957747E-01  0.1439048E+00
         13   -1    0    0    0    0  0.00000000000E+00  0.00000000000E+00  0.99999944175E+02  0.99999999995E+02  0.10566000000E+00 0.  1.
         22   -1    0    0    0    0 -0.00000000000E+00 -0.00000000000E+00 -0.15448846367E+02  0.15448846367E+02  0.00000000000E+00 0. -1.
         13    1    1    2    0    0 -0.10296980218E+02  0.37374753786E+01 -0.52010738947E+01  0.12126782653E+02  0.10566000000E+00 0. -1.
        996    1    1    2    0    0  0.10296980218E+02 -0.37374753786E+01  0.89752171703E+02  0.10332206371E+03  0.50000000000E+02 0.  0.
<mgrwt>
<rscale>  0 0.51185902E+02</rscale>
<asrwt>0</asrwt>
<pdfrwt beam="1">  1       13 0.10000000E+01 0.51185902E+02</pdfrwt>
<pdfrwt beam="2">  1       22 0.15448870E+00 0.51185902E+02</pdfrwt>
<totfact> 0.71545855E-01</totfact>
</mgrwt>
</event>
<event>
 4    1  0.2451537E+000  0.5316434E+02  0.7957747E-01  0.1428985E+00
         13   -1    0    0    0    0  0.00000000000E+00  0.00000000000E+00  0.99999944185E+02  0.10000000001E+03  0.10566000000E+00 0.  1.
         22   -1    0    0    0    0 -0.00000000000E+00 -0.00000000000E+00 -0.15615849381E+02  0.15615849381E+02  0.00000000000E+00 0. -1.
         13    1    1    2    0    0 -0.18067815317E+02  0.24904763502E-01  0.28668349142E+01  0.18294165109E+02  0.10566000000E+00 0. -1.
        996    1    1    2    0    0  0.18067815317E+02 -0.24904763502E-01  0.81517259890E+02  0.97321684277E+02  0.50000000000E+02 0.  0.
<mgrwt>
<rscale>  0 0.53164336E+02</rscale>
<asrwt>0</asrwt>
<pdfrwt beam="1">  1       13 0.10000000E+01 0.53164336E+02</pdfrwt>
<pdfrwt beam="2">  1       22 0.15615873E+00 0.53164336E+02</pdfrwt>
<totfact> 0.70537801E-01</totfact>
</mgrwt>
</event>
<event>
 4    1  0.2451537E+000  0.5180272E+02  0.7957747E-01  0.1435854E+00
         13   -1    0    0    0    0  0.00000000000E+00  0.00000000000E+00  0.99999944178E+02  0.99999999999E+02  0.10566000000E+00 0. -1.
         22   -1    0    0    0    0 -0.00000000000E+00 -0.00000000000E+00 -0.29208886711E+02  0.29208886711E+02  0.00000000000E+00 0.  1.
         13    1    1    2    0    0 -0.11344269477E+02 -0.74046661737E+01 -0.20307494803E+02  0.24411616913E+02  0.10566000000E+00 0.  1.
        996    1    1    2    0    0  0.11344269477E+02  0.74046661737E+01  0.91098552270E+02  0.10479726980E+03  0.50000000000E+02 0.  0.
<mgrwt>
<rscale>  0 0.51802717E+02</rscale>
<asrwt>0</asrwt>
<pdfrwt beam="1">  1       13 0.10000000E+01 0.51802717E+02</pdfrwt>
<pdfrwt beam="2">  1       22 0.29208906E+00 0.51802717E+02</pdfrwt>
<totfact> 0.21766694E-01</totfact>
</mgrwt>
</event>
<event>
 4    1  0.2451537E+000  0.5102310E+02  0.7957747E-01  0.1439900E+00
         13   -1    0    0    0    0  0.00000000000E+00  0.00000000000E+00  0.99999944181E+02  0.10000000000E+03  0.10566000000E+00 0. -1.
         22   -1    0    0    0    0 -0.00000000000E+00 -0.00000000000E+00 -0.14828294789E+02  0.14828294789E+02  0.00000000000E+00 0.  1.
         13    1    1    2    0    0  0.10164801064E+02 -0.18229425314E+00 -0.49174455416E+01  0.11293752545E+02  0.10566000000E+00 0.  1.
        996    1    1    2    0    0 -0.10164801064E+02  0.18229425314E+00  0.90089094934E+02  0.10353454224E+03  0.50000000000E+02 0.  0.
<mgrwt>
<rscale>  0 0.51023097E+02</rscale>
<asrwt>0</asrwt>
<pdfrwt beam="1">  1       13 0.10000000E+01 0.51023097E+02</pdfrwt>
<pdfrwt beam="2">  1       22 0.14828319E+00 0.51023097E+02</pdfrwt>
<totfact> 0.76591045E-01</totfact>
</mgrwt>
</event>
<event>
 4    1  0.2451537E+000  0.5354585E+02  0.7957747E-01  0.1427103E+00
         13   -1    0    0    0    0  0.00000000000E+00  0.00000000000E+00  0.99999944176E+02  0.99999999997E+02  0.10566000000E+00 0.  1.
         22   -1    0    0    0    0 -0.00000000000E+00 -0.00000000000E+00 -0.14384523898E+02  0.14384523898E+02  0.00000000000E+00 0. -1.
         13    1    1    2    0    0  0.88303555617E+01  0.17005386365E+02  0.96778336805E+01  0.21466950728E+02  0.10566000000E+00 0. -1.
        996    1    1    2    0    0 -0.88303555617E+01 -0.17005386365E+02  0.75937586598E+02  0.92917573167E+02  0.50000000000E+02 0.  0.
<mgrwt>
<rscale>  0 0.53545853E+02</rscale>
<asrwt>0</asrwt>
<pdfrwt beam="1">  1       13 0.10000000E+01 0.53545853E+02</pdfrwt>
<pdfrwt beam="2">  1       22 0.14384548E+00 0.53545853E+02</pdfrwt>
<totfact> 0.80941742E-01</totfact>
</mgrwt>
</event>
<event>
 4    1  0.2451537E+000  0.5829093E+02  0.7957747E-01  0.1405147E+00
         13   -1    0    0    0    0  0.00000000000E+00  0.00000000000E+00  0.99999944183E+02  0.10000000000E+03  0.10566000000E+00 0.  1.
         22   -1    0    0    0    0 -0.00000000000E+00 -0.00000000000E+00 -0.41799775153E+02  0.41799775153E+02  0.00000000000E+00 0. -1.
         13    1    1    2    0    0  0.16521103922E+02 -0.24997709928E+02 -0.25810000414E+02  0.39547435591E+02  0.10566000000E+00 0. -1.
        996    1    1    2    0    0 -0.16521103922E+02  0.24997709928E+02  0.84010169444E+02  0.10225233956E+03  0.50000000000E+02 0.  0.
<mgrwt>
<rscale>  0 0.58290929E+02</rscale>
<asrwt>0</asrwt>
<pdfrwt beam="1">  1       13 0.10000000E+01 0.58290929E+02</pdfrwt>
<pdfrwt beam="2">  1       22 0.41799791E+00 0.58290929E+02</pdfrwt>
<totfact> 0.11393295E-01</totfact>
</mgrwt>
</event>
<event>
 4    1  0.2451537E+000  0.5328846E+02  0.7957747E-01  0.1428371E+00
         13   -1    0    0    0    0  0.00000000000E+00  0.00000000000E+00  0.99999944181E+02  0.10000000000E+03  0.10566000000E+00 0.  1.
         22   -1    0    0    0    0 -0.00000000000E+00 -0.00000000000E+00 -0.21124490253E+02  0.21124490253E+02  0.00000000000E+00 0. -1.
         13    1    1    2    0    0 -0.10256613912E+02  0.15312160234E+02 -0.72840830523E+01  0.19817401694E+02  0.10566000000E+00 0. -1.
        996    1    1    2    0    0  0.10256613912E+02 -0.15312160234E+02  0.86159536980E+02  0.10130708856E+03  0.50000000000E+02 0.  0.
<mgrwt>
<rscale>  0 0.53288464E+02</rscale>
<asrwt>0</asrwt>
<pdfrwt beam="1">  1       13 0.10000000E+01 0.53288464E+02</pdfrwt>
<pdfrwt beam="2">  1       22 0.21124512E+00 0.53288464E+02</pdfrwt>
<totfact> 0.40964457E-01</totfact>
</mgrwt>
</event>
<event>
 4    1  0.2451537E+000  0.5132053E+02  0.7957747E-01  0.1438346E+00
         13   -1    0    0    0    0  0.00000000000E+00  0.00000000000E+00  0.99999944178E+02  0.99999999998E+02  0.10566000000E+00 0.  1.
         22   -1    0    0    0    0 -0.00000000000E+00 -0.00000000000E+00 -0.10642845822E+02  0.10642845822E+02  0.00000000000E+00 0.  1.
         13    1    1    2    0    0 -0.11241368741E+02 -0.27255925056E+01  0.30129823317E+02  0.32274055258E+02  0.10566000000E+00 0. -1.
        996    1    1    2    0    0  0.11241368741E+02  0.27255925056E+01  0.59227275039E+02  0.78368790562E+02  0.50000000000E+02 0.  0.
<mgrwt>
<rscale>  0 0.51320534E+02</rscale>
<asrwt>0</asrwt>
<pdfrwt beam="1">  1       13 0.10000000E+01 0.51320534E+02</pdfrwt>
<pdfrwt beam="2">  1       22 0.10642871E+00 0.51320534E+02</pdfrwt>
<totfact> 0.12850636E+00</totfact>
</mgrwt>
</event>
<event>
 4    1  0.2451537E+000  0.5413390E+02  0.7957747E-01  0.1424240E+00
         13   -1    0    0    0    0  0.00000000000E+00  0.00000000000E+00  0.99999944181E+02  0.10000000000E+03  0.10566000000E+00 0. -1.
         22   -1    0    0    0    0 -0.00000000000E+00 -0.00000000000E+00 -0.31047844357E+02  0.31047844357E+02  0.00000000000E+00 0.  1.
         13    1    1    2    0    0 -0.17081368129E+02  0.11777364001E+02 -0.18762405783E+02  0.27973531682E+02  0.10566000000E+00 0.  1.
        996    1    1    2    0    0  0.17081368129E+02 -0.11777364001E+02  0.87714505606E+02  0.10307431268E+03  0.50000000000E+02 0.  0.
<mgrwt>
<rscale>  0 0.54133903E+02</rscale>
<asrwt>0</asrwt>
<pdfrwt beam="1">  1       13 0.10000000E+01 0.54133903E+02</pdfrwt>
<pdfrwt beam="2">  1       22 0.31047864E+00 0.54133903E+02</pdfrwt>
<totfact> 0.19482621E-01</totfact>
</mgrwt>
</event>
<event>
 4    1  0.2451537E+000  0.5252382E+02  0.7957747E-01  0.1432185E+00
         13   -1    0    0    0    0  0.00000000000E+00  0.00000000000E+00  0.99999944180E+02  0.10000000000E+03  0.10566000000E+00 0. -1.
         22   -1    0    0    0    0 -0.00000000000E+00 -0.00000000000E+00 -0.33405779547E+02  0.33405779547E+02  0.00000000000E+00 0.  1.
         13    1    1    2    0    0 -0.98107088836E+01 -0.12747594230E+02 -0.23878818261E+02  0.28791670550E+02  0.10566000000E+00 0.  1.
        996    1    1    2    0    0  0.98107088836E+01  0.12747594230E+02  0.90472982895E+02  0.10461410900E+03  0.50000000000E+02 0.  0.
<mgrwt>
<rscale>  0 0.52523815E+02</rscale>
<asrwt>0</asrwt>
<pdfrwt beam="1">  1       13 0.10000000E+01 0.52523815E+02</pdfrwt>
<pdfrwt beam="2">  1       22 0.33405798E+00 0.52523815E+02</pdfrwt>
<totfact> 0.17058121E-01</totfact>
</mgrwt>
</event>
<event>
 4    1  0.2451537E+000  0.5113121E+02  0.7957747E-01  0.1439334E+00
         13   -1    0    0    0    0  0.00000000000E+00  0.00000000000E+00  0.99999944177E+02  0.99999999997E+02  0.10566000000E+00 0. -1.
         22   -1    0    0    0    0 -0.00000000000E+00 -0.00000000000E+00 -0.10155086055E+02  0.10155086055E+02  0.00000000000E+00 0. -1.
         13    1    1    2    0    0 -0.62756028923E+01  0.86612546921E+01  0.69393799495E+01  0.12750164023E+02  0.10566000000E+00 0.  1.
        996    1    1    2    0    0  0.62756028923E+01 -0.86612546921E+01  0.82905478172E+02  0.97404922029E+02  0.50000000000E+02 0.  0.
<mgrwt>
<rscale>  0 0.51131209E+02</rscale>
<asrwt>0</asrwt>
<pdfrwt beam="1">  1       13 0.10000000E+01 0.51131209E+02</pdfrwt>
<pdfrwt beam="2">  1       22 0.10155111E+00 0.51131209E+02</pdfrwt>
<totfact> 0.13757607E+00</totfact>
</mgrwt>
</event>
<event>
 4    1  0.2451537E+000  0.5120038E+02  0.7957747E-01  0.1438972E+00
         13   -1    0    0    0    0  0.00000000000E+00  0.00000000000E+00  0.99999944181E+02  0.10000000000E+03  0.10566000000E+00 0. -1.
         22   -1    0    0    0    0 -0.00000000000E+00 -0.00000000000E+00 -0.10063960661E+02  0.10063960661E+02  0.00000000000E+00 0. -1.
         13    1    1    2    0    0  0.89148323124E+01  0.64811272753E+01  0.87130206798E+01  0.14050165099E+02  0.10566000000E+00 0.  1.
        996    1    1    2    0    0 -0.89148323124E+01 -0.64811272753E+01  0.81222962840E+02  0.96013795563E+02  0.50000000000E+02 0.  0.
<mgrwt>
<rscale>  0 0.51200383E+02</rscale>
<asrwt>0</asrwt>
<pdfrwt beam="1">  1       13 0.10000000E+01 0.51200383E+02</pdfrwt>
<pdfrwt beam="2">  1       22 0.10063986E+00 0.51200383E+02</pdfrwt>
<totfact> 0.13941211E+00</totfact>
</mgrwt>
</event>
<event>
 4    1  0.2451537E+000  0.5506665E+02  0.7957747E-01  0.1419784E+00
         13   -1    0    0    0    0  0.00000000000E+00  0.00000000000E+00  0.99999944175E+02  0.99999999996E+02  0.10566000000E+00 0.  1.
         22   -1    0    0    0    0 -0.00000000000E+00 -0.00000000000E+00 -0.15672548775E+02  0.15672548775E+02  0.00000000000E+00 0.  1.
         13    1    1    2    0    0 -0.22512770156E+02 -0.50508415852E+01  0.16811494644E+02  0.28547737862E+02  0.10566000000E+00 0. -1.
        996    1    1    2    0    0  0.22512770156E+02  0.50508415852E+01  0.67515900757E+02  0.87124810908E+02  0.50000000000E+02 0.  0.
<mgrwt>
<rscale>  0 0.55066649E+02</rscale>
<asrwt>0</asrwt>
<pdfrwt beam="1">  1       13 0.10000000E+01 0.55066649E+02</pdfrwt>
<pdfrwt beam="2">  1       22 0.15672572E+00 0.55066649E+02</pdfrwt>
<totfact> 0.70362496E-01</totfact>
</mgrwt>
</event>
<event>
 4    1  0.2451537E+000  0.5633213E+02  0.7957747E-01  0.1413902E+00
         13   -1    0    0    0    0  0.00000000000E+00  0.00000000000E+00  0.99999944176E+02  0.99999999996E+02  0.10566000000E+00 0. -1.
         22   -1    0    0    0    0 -0.00000000000E+00 -0.00000000000E+00 -0.16988963969E+02  0.16988963969E+02  0.00000000000E+00 0. -1.
         13    1    1    2    0    0  0.19928924181E+02  0.16617673782E+02  0.29567645989E+02  0.39339114813E+02  0.10566000000E+00 0.  1.
        996    1    1    2    0    0 -0.19928924181E+02 -0.16617673782E+02  0.53443334219E+02  0.77649849152E+02  0.50000000000E+02 0.  0.
<mgrwt>
<rscale>  0 0.56332132E+02</rscale>
<asrwt>0</asrwt>
<pdfrwt beam="1">  1       13 0.10000000E+01 0.56332132E+02</pdfrwt>
<pdfrwt beam="2">  1       22 0.16988987E+00 0.56332132E+02</pdfrwt>
<totfact> 0.61358789E-01</totfact>
</mgrwt>
</event>
<event>
 4    1  0.2451537E+000  0.5639379E+02  0.7957747E-01  0.1413620E+00
         13   -1    0    0    0    0  0.00000000000E+00  0.00000000000E+00  0.99999944178E+02  0.99999999998E+02  0.10566000000E+00 0. -1.
         22   -1    0    0    0    0 -0.00000000000E+00 -0.00000000000E+00 -0.23116045502E+02  0.23116045502E+02  0.00000000000E+00 0.  1.
         13    1    1    2    0    0 -0.11410811264E+02  0.23453211155E+02 -0.19873791428E+01  0.26157610117E+02  0.10566000000E+00 0.  1.
        996    1    1    2    0    0  0.11410811264E+02 -0.23453211155E+02  0.78871277818E+02  0.96958435382E+02  0.50000000000E+02 0.  0.
<mgrwt>
<rscale>  0 0.56393792E+02</rscale>
<asrwt>0</asrwt>
<pdfrwt beam="1">  1       13 0.10000000E+01 0.56393792E+02</pdfrwt>
<pdfrwt beam="2">  1       22 0.23116067E+00 0.56393792E+02</pdfrwt>
<totfact> 0.34608246E-01</totfact>
</mgrwt>
</event>
<event>
 4    1  0.2451537E+000  0.5123993E+02  0.7957747E-01  0.1438766E+00
         13   -1    0    0    0    0  0.00000000000E+00  0.00000000000E+00  0.99999944176E+02  0.99999999996E+02  0.10566000000E+00 0. -1.
         22   -1    0    0    0    0 -0.00000000000E+00 -0.00000000000E+00 -0.21057509675E+02  0.21057509675E+02  0.00000000000E+00 0.  1.
         13    1    1    2    0    0 -0.86747909021E+01 -0.70907391987E+01 -0.12159296905E+02  0.16534516771E+02  0.10566000000E+00 0.  1.
        996    1    1    2    0    0  0.86747909021E+01  0.70907391987E+01  0.91101731406E+02  0.10452299290E+03  0.50000000000E+02 0.  0.
<mgrwt>
<rscale>  0 0.51239931E+02</rscale>
<asrwt>0</asrwt>
<pdfrwt beam="1">  1       13 0.10000000E+01 0.51239931E+02</pdfrwt>
<pdfrwt beam="2">  1       22 0.21057532E+00 0.51239931E+02</pdfrwt>
<totfact> 0.41065835E-01</totfact>
</mgrwt>
</event>
<event>
 4    1  0.2451537E+000  0.7935190E+02  0.7957747E-01  0.1330901E+00
         13   -1    0    0    0    0  0.00000000000E+00  0.00000000000E+00  0.99999944173E+02  0.99999999993E+02  0.10566000000E+00 0.  1.
         22   -1    0    0    0    0 -0.00000000000E+00 -0.00000000000E+00 -0.49774222313E+02  0.49774222313E+02  0.00000000000E+00 0. -1.
         13    1    1    2    0    0  0.47758075554E+02  0.38934431286E+02  0.18744683526E+02  0.64405729906E+02  0.10566000000E+00 0. -1.
        996    1    1    2    0    0 -0.47758075554E+02 -0.38934431286E+02  0.31481038334E+02  0.85368492401E+02  0.50000000000E+02 0.  0.
<mgrwt>
<rscale>  0 0.79351898E+02</rscale>
<asrwt>0</asrwt>
<pdfrwt beam="1">  1       13 0.10000000E+01 0.79351898E+02</pdfrwt>
<pdfrwt beam="2">  1       22 0.49774236E+00 0.79351898E+02</pdfrwt>
<totfact> 0.75282720E-02</totfact>
</mgrwt>
</event>
<event>
 4    1  0.2451537E+000  0.6077407E+02  0.7957747E-01  0.1394612E+00
         13   -1    0    0    0    0  0.00000000000E+00  0.00000000000E+00  0.99999944183E+02  0.10000000000E+03  0.10566000000E+00 0. -1.
         22   -1    0    0    0    0 -0.00000000000E+00 -0.00000000000E+00 -0.27568445949E+02  0.27568445949E+02  0.00000000000E+00 0. -1.
         13    1    1    2    0    0 -0.21141648245E+02  0.27322496795E+02  0.20914127136E+01  0.34610306165E+02  0.10566000000E+00 0.  1.
        996    1    1    2    0    0  0.21141648245E+02 -0.27322496795E+02  0.70340085521E+02  0.92958139787E+02  0.50000000000E+02 0.  0.
<mgrwt>
<rscale>  0 0.60774074E+02</rscale>
<asrwt>0</asrwt>
<pdfrwt beam="1">  1       13 0.10000000E+01 0.60774074E+02</pdfrwt>
<pdfrwt beam="2">  1       22 0.27568466E+00 0.60774074E+02</pdfrwt>
<totfact> 0.24618692E-01</totfact>
</mgrwt>
</event>
<event>
 4    1  0.2451537E+000  0.5117890E+02  0.7957747E-01  0.1439085E+00
         13   -1    0    0    0    0  0.00000000000E+00  0.00000000000E+00  0.99999944178E+02  0.99999999998E+02  0.10566000000E+00 0.  1.
         22   -1    0    0    0    0 -0.00000000000E+00 -0.00000000000E+00 -0.24028790296E+02  0.24028790296E+02  0.00000000000E+00 0. -1.
         13    1    1    2    0    0 -0.46916300562E+01 -0.98624708845E+01 -0.15648915548E+02  0.19083486222E+02  0.10566000000E+00 0. -1.
        996    1    1    2    0    0  0.46916300562E+01  0.98624708845E+01  0.91620069429E+02  0.10494530407E+03  0.50000000000E+02 0.  0.
<mgrwt>
<rscale>  0 0.51178899E+02</rscale>
<asrwt>0</asrwt>
<pdfrwt beam="1">  1       13 0.10000000E+01 0.51178899E+02</pdfrwt>
<pdfrwt beam="2">  1       22 0.24028812E+00 0.51178899E+02</pdfrwt>
<totfact> 0.31822085E-01</totfact>
</mgrwt>
</event>
<event>
 4    1  0.2451537E+000  0.5292305E+02  0.7957747E-01  0.1430184E+00
         13   -1    0    0    0    0  0.00000000000E+00  0.00000000000E+00  0.99999944181E+02  0.10000000000E+03  0.10566000000E+00 0. -1.
         22   -1    0    0    0    0 -0.00000000000E+00 -0.00000000000E+00 -0.65429420754E+02  0.65429420754E+02  0.00000000000E+00 0.  1.
         13    1    1    2    0    0 -0.13674309222E+02 -0.10670617881E+02 -0.57046519937E+02  0.59625207921E+02  0.10566000000E+00 0.  1.
        996    1    1    2    0    0  0.13674309222E+02  0.10670617881E+02  0.91617043364E+02  0.10580421283E+03  0.50000000000E+02 0.  0.
<mgrwt>
<rscale>  0 0.52923046E+02</rscale>
<asrwt>0</asrwt>
<pdfrwt beam="1">  1       13 0.10000000E+01 0.52923046E+02</pdfrwt>
<pdfrwt beam="2">  1       22 0.65429430E+00 0.52923046E+02</pdfrwt>
<totfact> 0.87012828E-02</totfact>
</mgrwt>
</event>
<event>
 4    1  0.2451537E+000  0.5177032E+02  0.7957747E-01  0.1436020E+00
         13   -1    0    0    0    0  0.00000000000E+00  0.00000000000E+00  0.99999944177E+02  0.99999999997E+02  0.10566000000E+00 0.  1.
         22   -1    0    0    0    0 -0.00000000000E+00 -0.00000000000E+00 -0.16284502514E+02  0.16284502514E+02  0.00000000000E+00 0. -1.
         13    1    1    2    0    0 -0.10147294641E+02 -0.87862762348E+01 -0.43662349606E+01  0.14115289950E+02  0.10566000000E+00 0. -1.
        996    1    1    2    0    0  0.10147294641E+02  0.87862762348E+01  0.88081676624E+02  0.10216921256E+03  0.50000000000E+02 0.  0.
<mgrwt>
<rscale>  0 0.51770322E+02</rscale>
<asrwt>0</asrwt>
<pdfrwt beam="1">  1       13 0.10000000E+01 0.51770322E+02</pdfrwt>
<pdfrwt beam="2">  1       22 0.16284526E+00 0.51770322E+02</pdfrwt>
<totfact> 0.65483608E-01</totfact>
</mgrwt>
</event>
<event>
 4    1  0.2451537E+000  0.5119044E+02  0.7957747E-01  0.1439024E+00
         13   -1    0    0    0    0  0.00000000000E+00  0.00000000000E+00  0.99999944175E+02  0.99999999996E+02  0.10566000000E+00 0. -1.
         22   -1    0    0    0    0 -0.00000000000E+00 -0.00000000000E+00 -0.11277445828E+02  0.11277445828E+02  0.00000000000E+00 0. -1.
         13    1    1    2    0    0  0.10857655396E+02  0.16037799125E+01  0.29082225296E+01  0.11354722058E+02  0.10566000000E+00 0.  1.
        996    1    1    2    0    0 -0.10857655396E+02 -0.16037799125E+01  0.85814275817E+02  0.99922723766E+02  0.50000000000E+02 0.  0.
<mgrwt>
<rscale>  0 0.51190437E+02</rscale>
<asrwt>0</asrwt>
<pdfrwt beam="1">  1       13 0.10000000E+01 0.51190437E+02</pdfrwt>
<pdfrwt beam="2">  1       22 0.11277471E+00 0.51190437E+02</pdfrwt>
<totfact> 0.11787560E+00</totfact>
</mgrwt>
</event>
<event>
 4    1  0.2451537E+000  0.5134493E+02  0.7957747E-01  0.1438219E+00
         13   -1    0    0    0    0  0.00000000000E+00  0.00000000000E+00  0.99999944170E+02  0.99999999990E+02  0.10566000000E+00 0.  1.
         22   -1    0    0    0    0 -0.00000000000E+00 -0.00000000000E+00 -0.14874731856E+02  0.14874731856E+02  0.00000000000E+00 0.  1.
         13    1    1    2    0    0  0.12771636120E+01 -0.11604757403E+02  0.53083387942E+02  0.54352173652E+02  0.10566000000E+00 0. -1.
        996    1    1    2    0    0 -0.12771636120E+01  0.11604757403E+02  0.32041824372E+02  0.60522558194E+02  0.50000000000E+02 0.  0.
<mgrwt>
<rscale>  0 0.51344927E+02</rscale>
<asrwt>0</asrwt>
<pdfrwt beam="1">  1       13 0.10000000E+01 0.51344927E+02</pdfrwt>
<pdfrwt beam="2">  1       22 0.14874756E+00 0.51344927E+02</pdfrwt>
<totfact> 0.76246237E-01</totfact>
</mgrwt>
</event>
<event>
 4    1  0.2451537E+000  0.5170411E+02  0.7957747E-01  0.1436361E+00
         13   -1    0    0    0    0  0.00000000000E+00  0.00000000000E+00  0.99999944178E+02  0.99999999999E+02  0.10566000000E+00 0. -1.
         22   -1    0    0    0    0 -0.00000000000E+00 -0.00000000000E+00 -0.11839348393E+02  0.11839348393E+02  0.00000000000E+00 0. -1.
         13    1    1    2    0    0  0.12112192194E+01  0.13109069335E+02  0.53455167971E+01  0.14209168332E+02  0.10566000000E+00 0.  1.
        996    1    1    2    0    0 -0.12112192194E+01 -0.13109069335E+02  0.82815078988E+02  0.97630180060E+02  0.50000000000E+02 0.  0.
<mgrwt>
<rscale>  0 0.51704108E+02</rscale>
<asrwt>0</asrwt>
<pdfrwt beam="1">  1       13 0.10000000E+01 0.51704108E+02</pdfrwt>
<pdfrwt beam="2">  1       22 0.11839373E+00 0.51704108E+02</pdfrwt>
<totfact> 0.10965803E+00</totfact>
</mgrwt>
</event>
<event>
 4    1  0.2451537E+000  0.5206082E+02  0.7957747E-01  0.1434533E+00
         13   -1    0    0    0    0  0.00000000000E+00  0.00000000000E+00  0.99999944177E+02  0.99999999998E+02  0.10566000000E+00 0. -1.
         22   -1    0    0    0    0 -0.00000000000E+00 -0.00000000000E+00 -0.11078725162E+02  0.11078725162E+02  0.00000000000E+00 0. -1.
         13    1    1    2    0    0 -0.14408496037E+02 -0.16506690096E+01  0.19971387782E+02  0.24681915651E+02  0.10566000000E+00 0.  1.
        996    1    1    2    0    0  0.14408496037E+02  0.16506690096E+01  0.68949831233E+02  0.86396809509E+02  0.50000000000E+02 0.  0.
<mgrwt>
<rscale>  0 0.52060825E+02</rscale>
<asrwt>0</asrwt>
<pdfrwt beam="1">  1       13 0.10000000E+01 0.52060825E+02</pdfrwt>
<pdfrwt beam="2">  1       22 0.11078750E+00 0.52060825E+02</pdfrwt>
<totfact> 0.12129431E+00</totfact>
</mgrwt>
</event>
<event>
 4    1  0.2451537E+000  0.5185026E+02  0.7957747E-01  0.1435610E+00
         13   -1    0    0    0    0  0.00000000000E+00  0.00000000000E+00  0.99999944180E+02  0.10000000000E+03  0.10566000000E+00 0. -1.
         22   -1    0    0    0    0 -0.00000000000E+00 -0.00000000000E+00 -0.10813838134E+02  0.10813838134E+02  0.00000000000E+00 0. -1.
         13    1    1    2    0    0  0.33211509615E+01 -0.13319875790E+02  0.15385827719E+02  0.20619990140E+02  0.10566000000E+00 0.  1.
        996    1    1    2    0    0 -0.33211509615E+01  0.13319875790E+02  0.73800278327E+02  0.90193847994E+02  0.50000000000E+02 0.  0.
<mgrwt>
<rscale>  0 0.51850257E+02</rscale>
<asrwt>0</asrwt>
<pdfrwt beam="1">  1       13 0.10000000E+01 0.51850257E+02</pdfrwt>
<pdfrwt beam="2">  1       22 0.10813863E+00 0.51850257E+02</pdfrwt>
<totfact> 0.12567347E+00</totfact>
</mgrwt>
</event>
<event>
 4    1  0.2451537E+000  0.5264227E+02  0.7957747E-01  0.1431589E+00
         13   -1    0    0    0    0  0.00000000000E+00  0.00000000000E+00  0.99999944180E+02  0.10000000000E+03  0.10566000000E+00 0.  1.
         22   -1    0    0    0    0 -0.00000000000E+00 -0.00000000000E+00 -0.12292741951E+02  0.12292741951E+02  0.00000000000E+00 0.  1.
         13    1    1    2    0    0  0.54310849124E+01 -0.15547081575E+02  0.13418798037E+02  0.21243439778E+02  0.10566000000E+00 0. -1.
        996    1    1    2    0    0 -0.54310849124E+01  0.15547081575E+02  0.74288404193E+02  0.91049302174E+02  0.50000000000E+02 0.  0.
<mgrwt>
<rscale>  0 0.52642268E+02</rscale>
<asrwt>0</asrwt>
<pdfrwt beam="1">  1       13 0.10000000E+01 0.52642268E+02</pdfrwt>
<pdfrwt beam="2">  1       22 0.12292766E+00 0.52642268E+02</pdfrwt>
<totfact> 0.10372819E+00</totfact>
</mgrwt>
</event>
<event>
 4    1  0.2451537E+000  0.5302324E+02  0.7957747E-01  0.1429685E+00
         13   -1    0    0    0    0  0.00000000000E+00  0.00000000000E+00  0.99999944182E+02  0.10000000000E+03  0.10566000000E+00 0. -1.
         22   -1    0    0    0    0 -0.00000000000E+00 -0.00000000000E+00 -0.15793399035E+02  0.15793399035E+02  0.00000000000E+00 0.  1.
         13    1    1    2    0    0 -0.10743262206E+02 -0.14001663999E+02  0.17166556803E+01  0.17731958390E+02  0.10566000000E+00 0.  1.
        996    1    1    2    0    0  0.10743262206E+02  0.14001663999E+02  0.82489889466E+02  0.98061440647E+02  0.50000000000E+02 0.  0.
<mgrwt>
<rscale>  0 0.53023243E+02</rscale>
<asrwt>0</asrwt>
<pdfrwt beam="1">  1       13 0.10000000E+01 0.53023243E+02</pdfrwt>
<pdfrwt beam="2">  1       22 0.15793423E+00 0.53023243E+02</pdfrwt>
<totfact> 0.69177793E-01</totfact>
</mgrwt>
</event>
<event>
 4    1  0.2451537E+000  0.5668211E+02  0.7957747E-01  0.1412307E+00
         13   -1    0    0    0    0  0.00000000000E+00  0.00000000000E+00  0.99999944181E+02  0.10000000000E+03  0.10566000000E+00 0.  1.
         22   -1    0    0    0    0 -0.00000000000E+00 -0.00000000000E+00 -0.19909272029E+02  0.19909272029E+02  0.00000000000E+00 0. -1.
         13    1    1    2    0    0 -0.16115887237E+02 -0.21287073495E+02  0.73520894971E+01  0.27693423469E+02  0.10566000000E+00 0. -1.
        996    1    1    2    0    0  0.16115887237E+02  0.21287073495E+02  0.72738582655E+02  0.92215848562E+02  0.50000000000E+02 0.  0.
<mgrwt>
<rscale>  0 0.56682108E+02</rscale>
<asrwt>0</asrwt>
<pdfrwt beam="1">  1       13 0.10000000E+01 0.56682108E+02</pdfrwt>
<pdfrwt beam="2">  1       22 0.19909294E+00 0.56682108E+02</pdfrwt>
<totfact> 0.46062354E-01</totfact>
</mgrwt>
</event>
<event>
 4    1  0.2451537E+000  0.5130208E+02  0.7957747E-01  0.1438442E+00
         13   -1    0    0    0    0  0.00000000000E+00  0.00000000000E+00  0.99999944178E+02  0.99999999998E+02  0.10566000000E+00 0. -1.
         22   -1    0    0    0    0 -0.00000000000E+00 -0.00000000000E+00 -0.10949533270E+02  0.10949533270E+02  0.00000000000E+00 0. -1.
         13    1    1    2    0    0  0.68874144449E+01 -0.91905665684E+01  0.51046570214E+01  0.12568678488E+02  0.10566000000E+00 0.  1.
        996    1    1    2    0    0 -0.68874144449E+01  0.91905665684E+01  0.83945753887E+02  0.98380854780E+02  0.50000000000E+02 0.  0.
<mgrwt>
<rscale>  0 0.51302076E+02</rscale>
<asrwt>0</asrwt>
<pdfrwt beam="1">  1       13 0.10000000E+01 0.51302076E+02</pdfrwt>
<pdfrwt beam="2">  1       22 0.10949558E+00 0.51302076E+02</pdfrwt>
<totfact> 0.12321281E+00</totfact>
</mgrwt>
</event>
<event>
 4    1  0.2451537E+000  0.5277365E+02  0.7957747E-01  0.1430931E+00
         13   -1    0    0    0    0  0.00000000000E+00  0.00000000000E+00  0.99999944184E+02  0.10000000000E+03  0.10566000000E+00 0.  1.
         22   -1    0    0    0    0 -0.00000000000E+00 -0.00000000000E+00 -0.20159227514E+02  0.20159227514E+02  0.00000000000E+00 0. -1.
         13    1    1    2    0    0 -0.15469599980E+02  0.67638217511E+01 -0.72115750907E+01  0.18359623840E+02  0.10566000000E+00 0. -1.
        996    1    1    2    0    0  0.15469599980E+02 -0.67638217511E+01  0.87052291761E+02  0.10179960368E+03  0.50000000000E+02 0.  0.
<mgrwt>
<rscale>  0 0.52773647E+02</rscale>
<asrwt>0</asrwt>
<pdfrwt beam="1">  1       13 0.10000000E+01 0.52773647E+02</pdfrwt>
<pdfrwt beam="2">  1       22 0.20159250E+00 0.52773647E+02</pdfrwt>
<totfact> 0.44703014E-01</totfact>
</mgrwt>
</event>
<event>
 4    1  0.2451537E+000  0.5724404E+02  0.7957747E-01  0.1409775E+00
         13   -1    0    0    0    0  0.00000000000E+00  0.00000000000E+00  0.99999944176E+02  0.99999999997E+02  0.10566000000E+00 0.  1.
         22   -1    0    0    0    0 -0.00000000000E+00 -0.00000000000E+00 -0.19025930972E+02  0.19025930972E+02  0.00000000000E+00 0.  1.
         13    1    1    2    0    0 -0.21690497159E+02  0.17504345027E+02  0.14906130133E+02  0.31608284379E+02  0.10566000000E+00 0. -1.
        996    1    1    2    0    0  0.21690497159E+02 -0.17504345027E+02  0.66067883071E+02  0.87417646590E+02  0.50000000000E+02 0.  0.
<mgrwt>
<rscale>  0 0.57244037E+02</rscale>
<asrwt>0</asrwt>
<pdfrwt beam="1">  1       13 0.10000000E+01 0.57244037E+02</pdfrwt>
<pdfrwt beam="2">  1       22 0.19025954E+00 0.57244037E+02</pdfrwt>
<totfact> 0.50146185E-01</totfact>
</mgrwt>
</event>
<event>
 4    1  0.2451537E+000  0.5128590E+02  0.7957747E-01  0.1438527E+00
         13   -1    0    0    0    0  0.00000000000E+00  0.00000000000E+00  0.99999944180E+02  0.10000000000E+03  0.10566000000E+00 0.  1.
         22   -1    0    0    0    0 -0.00000000000E+00 -0.00000000000E+00 -0.98470893700E+01  0.98470893700E+01  0.00000000000E+00 0.  1.
         13    1    1    2    0    0 -0.45554614897E+01 -0.10463828113E+02  0.14590889486E+02  0.18524285362E+02  0.10566000000E+00 0. -1.
        996    1    1    2    0    0  0.45554614897E+01  0.10463828113E+02  0.75561965325E+02  0.91322804008E+02  0.50000000000E+02 0.  0.
<mgrwt>
<rscale>  0 0.51285904E+02</rscale>
<asrwt>0</asrwt>
<pdfrwt beam="1">  1       13 0.10000000E+01 0.51285904E+02</pdfrwt>
<pdfrwt beam="2">  1       22 0.98471145E-01 0.51285904E+02</pdfrwt>
<totfact> 0.14390468E+00</totfact>
</mgrwt>
</event>
<event>
 4    1  0.2451537E+000  0.5337757E+02  0.7957747E-01  0.1427931E+00
         13   -1    0    0    0    0  0.00000000000E+00  0.00000000000E+00  0.99999944176E+02  0.99999999996E+02  0.10566000000E+00 0. -1.
         22   -1    0    0    0    0 -0.00000000000E+00 -0.00000000000E+00 -0.13346801834E+02  0.13346801834E+02  0.00000000000E+00 0. -1.
         13    1    1    2    0    0  0.13624145529E+02  0.12788576133E+02  0.14802629501E+02  0.23838918287E+02  0.10566000000E+00 0.  1.
        996    1    1    2    0    0 -0.13624145529E+02 -0.12788576133E+02  0.71850512841E+02  0.89507883543E+02  0.50000000000E+02 0.  0.
<mgrwt>
<rscale>  0 0.53377570E+02</rscale>
<asrwt>0</asrwt>
<pdfrwt beam="1">  1       13 0.10000000E+01 0.53377570E+02</pdfrwt>
<pdfrwt beam="2">  1       22 0.13346826E+00 0.53377570E+02</pdfrwt>
<totfact> 0.91316769E-01</totfact>
</mgrwt>
</event>
<event>
 4    1  0.2451537E+000  0.5349064E+02  0.7957747E-01  0.1427375E+00
         13   -1    0    0    0    0  0.00000000000E+00  0.00000000000E+00  0.99999944174E+02  0.99999999994E+02  0.10566000000E+00 0. -1.
         22   -1    0    0    0    0 -0.00000000000E+00 -0.00000000000E+00 -0.13293471950E+02  0.13293471950E+02  0.00000000000E+00 0. -1.
         13    1    1    2    0    0  0.18898710267E+02 -0.20217894748E+01  0.28338980333E+02  0.34122688241E+02  0.10566000000E+00 0.  1.
        996    1    1    2    0    0 -0.18898710267E+02  0.20217894748E+01  0.58367491892E+02  0.79170783703E+02  0.50000000000E+02 0.  0.
<mgrwt>
<rscale>  0 0.53490643E+02</rscale>
<asrwt>0</asrwt>
<pdfrwt beam="1">  1       13 0.10000000E+01 0.53490643E+02</pdfrwt>
<pdfrwt beam="2">  1       22 0.13293496E+00 0.53490643E+02</pdfrwt>
<totfact> 0.91921871E-01</totfact>
</mgrwt>
</event>
<event>
 4    1  0.2451537E+000  0.5235411E+02  0.7957747E-01  0.1433042E+00
         13   -1    0    0    0    0  0.00000000000E+00  0.00000000000E+00  0.99999944185E+02  0.10000000000E+03  0.10566000000E+00 0.  1.
         22   -1    0    0    0    0 -0.00000000000E+00 -0.00000000000E+00 -0.15986051548E+02  0.15986051548E+02  0.00000000000E+00 0. -1.
         13    1    1    2    0    0 -0.13722385615E+02  0.72559840198E+01 -0.16292161222E+01  0.15608288832E+02  0.10566000000E+00 0. -1.
        996    1    1    2    0    0  0.13722385615E+02 -0.72559840198E+01  0.85643108759E+02  0.10037776272E+03  0.50000000000E+02 0.  0.
<mgrwt>
<rscale>  0 0.52354113E+02</rscale>
<asrwt>0</asrwt>
<pdfrwt beam="1">  1       13 0.10000000E+01 0.52354113E+02</pdfrwt>
<pdfrwt beam="2">  1       22 0.15986075E+00 0.52354113E+02</pdfrwt>
<totfact> 0.67673001E-01</totfact>
</mgrwt>
</event>
<event>
 4    1  0.2451537E+000  0.5289202E+02  0.7957747E-01  0.1430339E+00
         13   -1    0    0    0    0  0.00000000000E+00  0.00000000000E+00  0.99999944170E+02  0.99999999990E+02  0.10566000000E+00 0.  1.
         22   -1    0    0    0    0 -0.00000000000E+00 -0.00000000000E+00 -0.15741332214E+02  0.15741332214E+02  0.00000000000E+00 0. -1.
         13    1    1    2    0    0  0.16619416419E+02  0.46217624001E+01  0.12265841653E+01  0.17293968964E+02  0.10566000000E+00 0. -1.
        996    1    1    2    0    0 -0.16619416419E+02 -0.46217624001E+01  0.83032027791E+02  0.98447363239E+02  0.50000000000E+02 0.  0.
<mgrwt>
<rscale>  0 0.52892019E+02</rscale>
<asrwt>0</asrwt>
<pdfrwt beam="1">  1       13 0.10000000E+01 0.52892019E+02</pdfrwt>
<pdfrwt beam="2">  1       22 0.15741356E+00 0.52892019E+02</pdfrwt>
<totfact> 0.69549369E-01</totfact>
</mgrwt>
</event>
<event>
 4    1  0.2451537E+000  0.5169493E+02  0.7957747E-01  0.1436408E+00
         13   -1    0    0    0    0  0.00000000000E+00  0.00000000000E+00  0.99999944174E+02  0.99999999995E+02  0.10566000000E+00 0.  1.
         22   -1    0    0    0    0 -0.00000000000E+00 -0.00000000000E+00 -0.11094683590E+02  0.11094683590E+02  0.00000000000E+00 0.  1.
         13    1    1    2    0    0  0.10563254787E+02 -0.77963875154E+01  0.89729012879E+01  0.15902519660E+02  0.10566000000E+00 0. -1.
        996    1    1    2    0    0 -0.10563254787E+02  0.77963875154E+01  0.79932359296E+02  0.95192163925E+02  0.50000000000E+02 0.  0.
<mgrwt>
<rscale>  0 0.51694932E+02</rscale>
<asrwt>0</asrwt>
<pdfrwt beam="1">  1       13 0.10000000E+01 0.51694932E+02</pdfrwt>
<pdfrwt beam="2">  1       22 0.11094708E+00 0.51694932E+02</pdfrwt>
<totfact> 0.12093194E+00</totfact>
</mgrwt>
</event>
<event>
 4    1  0.2451537E+000  0.5364480E+02  0.7957747E-01  0.1426619E+00
         13   -1    0    0    0    0  0.00000000000E+00  0.00000000000E+00  0.99999944188E+02  0.10000000001E+03  0.10566000000E+00 0.  1.
         22   -1    0    0    0    0 -0.00000000000E+00 -0.00000000000E+00 -0.23151089641E+02  0.23151089641E+02  0.00000000000E+00 0. -1.
         13    1    1    2    0    0  0.11735415633E+02 -0.15493366339E+02 -0.93922982125E+01  0.21586820293E+02  0.10566000000E+00 0. -1.
        996    1    1    2    0    0 -0.11735415633E+02  0.15493366339E+02  0.86241152759E+02  0.10156426936E+03  0.50000000000E+02 0.  0.
<mgrwt>
<rscale>  0 0.53644798E+02</rscale>
<asrwt>0</asrwt>
<pdfrwt beam="1">  1       13 0.10000000E+01 0.53644798E+02</pdfrwt>
<pdfrwt beam="2">  1       22 0.23151111E+00 0.53644798E+02</pdfrwt>
<totfact> 0.34358742E-01</totfact>
</mgrwt>
</event>
<event>
 4    1  0.2451537E+000  0.6031795E+02  0.7957747E-01  0.1396502E+00
         13   -1    0    0    0    0  0.00000000000E+00  0.00000000000E+00  0.99999944170E+02  0.99999999990E+02  0.10566000000E+00 0.  1.
         22   -1    0    0    0    0 -0.00000000000E+00 -0.00000000000E+00 -0.23164746635E+02  0.23164746635E+02  0.00000000000E+00 0. -1.
         13    1    1    2    0    0  0.33606630103E+02 -0.29747356329E+01  0.15460796280E+02  0.37112019948E+02  0.10566000000E+00 0. -1.
        996    1    1    2    0    0 -0.33606630103E+02  0.29747356329E+01  0.61374401255E+02  0.86052726676E+02  0.50000000000E+02 0.  0.
<mgrwt>
<rscale>  0 0.60317946E+02</rscale>
<asrwt>0</asrwt>
<pdfrwt beam="1">  1       13 0.10000000E+01 0.60317946E+02</pdfrwt>
<pdfrwt beam="2">  1       22 0.23164768E+00 0.60317946E+02</pdfrwt>
<totfact> 0.34664557E-01</totfact>
</mgrwt>
</event>
<event>
 4    1  0.2451537E+000  0.5403663E+02  0.7957747E-01  0.1424710E+00
         13   -1    0    0    0    0  0.00000000000E+00  0.00000000000E+00  0.99999944180E+02  0.10000000000E+03  0.10566000000E+00 0.  1.
         22   -1    0    0    0    0 -0.00000000000E+00 -0.00000000000E+00 -0.14119641838E+02  0.14119641838E+02  0.00000000000E+00 0.  1.
         13    1    1    2    0    0 -0.17555513219E+02  0.10571705815E+02  0.17374378942E+02  0.26867028416E+02  0.10566000000E+00 0. -1.
        996    1    1    2    0    0  0.17555513219E+02 -0.10571705815E+02  0.68505923400E+02  0.87252613423E+02  0.50000000000E+02 0.  0.
<mgrwt>
<rscale>  0 0.54036627E+02</rscale>
<asrwt>0</asrwt>
<pdfrwt beam="1">  1       13 0.10000000E+01 0.54036627E+02</pdfrwt>
<pdfrwt beam="2">  1       22 0.14119666E+00 0.54036627E+02</pdfrwt>
<totfact> 0.83518978E-01</totfact>
</mgrwt>
</event>
<event>
 4    1  0.2451537E+000  0.5175368E+02  0.7957747E-01  0.1436106E+00
         13   -1    0    0    0    0  0.00000000000E+00  0.00000000000E+00  0.99999944183E+02  0.10000000000E+03  0.10566000000E+00 0. -1.
         22   -1    0    0    0    0 -0.00000000000E+00 -0.00000000000E+00 -0.10918406084E+02  0.10918406084E+02  0.00000000000E+00 0.  1.
         13    1    1    2    0    0  0.13270820424E+02 -0.15260716221E+01  0.11324440478E+02  0.17512786343E+02  0.10566000000E+00 0.  1.
        996    1    1    2    0    0 -0.13270820424E+02  0.15260716221E+01  0.77757097621E+02  0.93405619744E+02  0.50000000000E+02 0.  0.
<mgrwt>
<rscale>  0 0.51753682E+02</rscale>
<asrwt>0</asrwt>
<pdfrwt beam="1">  1       13 0.10000000E+01 0.51753682E+02</pdfrwt>
<pdfrwt beam="2">  1       22 0.10918431E+00 0.51753682E+02</pdfrwt>
<totfact> 0.12386546E+00</totfact>
</mgrwt>
</event>
<event>
 4    1  0.2451537E+000  0.5424456E+02  0.7957747E-01  0.1423706E+00
         13   -1    0    0    0    0  0.00000000000E+00  0.00000000000E+00  0.99999944178E+02  0.99999999998E+02  0.10566000000E+00 0. -1.
         22   -1    0    0    0    0 -0.00000000000E+00 -0.00000000000E+00 -0.20550020086E+02  0.20550020086E+02  0.00000000000E+00 0.  1.
         13    1    1    2    0    0 -0.98126562084E+01  0.18606020471E+02 -0.36132427869E+01  0.21343357446E+02  0.10566000000E+00 0.  1.
        996    1    1    2    0    0  0.98126562084E+01 -0.18606020471E+02  0.83063166879E+02  0.99206662637E+02  0.50000000000E+02 0.  0.
<mgrwt>
<rscale>  0 0.54244559E+02</rscale>
<asrwt>0</asrwt>
<pdfrwt beam="1">  1       13 0.10000000E+01 0.54244559E+02</pdfrwt>
<pdfrwt beam="2">  1       22 0.20550042E+00 0.54244559E+02</pdfrwt>
<totfact> 0.43229346E-01</totfact>
</mgrwt>
</event>
<event>
 4    1  0.2451537E+000  0.5328634E+02  0.7957747E-01  0.1428381E+00
         13   -1    0    0    0    0  0.00000000000E+00  0.00000000000E+00  0.99999944176E+02  0.99999999996E+02  0.10566000000E+00 0. -1.
         22   -1    0    0    0    0 -0.00000000000E+00 -0.00000000000E+00 -0.65754304289E+02  0.65754304289E+02  0.00000000000E+00 0.  1.
         13    1    1    2    0    0 -0.17984028114E+02 -0.40010701778E+01 -0.57102001924E+02  0.60000696809E+02  0.10566000000E+00 0.  1.
        996    1    1    2    0    0  0.17984028114E+02  0.40010701778E+01  0.91347641811E+02  0.10575360748E+03  0.50000000000E+02 0.  0.
<mgrwt>
<rscale>  0 0.53286338E+02</rscale>
<asrwt>0</asrwt>
<pdfrwt beam="1">  1       13 0.10000000E+01 0.53286338E+02</pdfrwt>
<pdfrwt beam="2">  1       22 0.65754314E+00 0.53286338E+02</pdfrwt>
<totfact> 0.87232195E-02</totfact>
</mgrwt>
</event>
<event>
 4    1  0.2451537E+000  0.5225594E+02  0.7957747E-01  0.1433540E+00
         13   -1    0    0    0    0  0.00000000000E+00  0.00000000000E+00  0.99999944180E+02  0.10000000000E+03  0.10566000000E+00 0.  1.
         22   -1    0    0    0    0 -0.00000000000E+00 -0.00000000000E+00 -0.31101541023E+02  0.31101541023E+02  0.00000000000E+00 0. -1.
         13    1    1    2    0    0 -0.10366513956E+02  0.11100412451E+02 -0.21715182685E+02  0.26499888515E+02  0.10566000000E+00 0. -1.
        996    1    1    2    0    0  0.10366513956E+02 -0.11100412451E+02  0.90613585843E+02  0.10460165251E+03  0.50000000000E+02 0.  0.
<mgrwt>
<rscale>  0 0.52255945E+02</rscale>
<asrwt>0</asrwt>
<pdfrwt beam="1">  1       13 0.10000000E+01 0.52255945E+02</pdfrwt>
<pdfrwt beam="2">  1       22 0.31101560E+00 0.52255945E+02</pdfrwt>
<totfact> 0.19376431E-01</totfact>
</mgrwt>
</event>
<event>
 4    1  0.2451537E+000  0.5324056E+02  0.7957747E-01  0.1428607E+00
         13   -1    0    0    0    0  0.00000000000E+00  0.00000000000E+00  0.99999944170E+02  0.99999999991E+02  0.10566000000E+00 0.  1.
         22   -1    0    0    0    0 -0.00000000000E+00 -0.00000000000E+00 -0.13498116196E+02  0.13498116196E+02  0.00000000000E+00 0.  1.
         13    1    1    2    0    0  0.99600193726E+01 -0.15341283270E+02  0.11806950037E+02  0.21770902404E+02  0.10566000000E+00 0. -1.
        996    1    1    2    0    0 -0.99600193726E+01  0.15341283270E+02  0.74694877937E+02  0.91727213783E+02  0.50000000000E+02 0.  0.
<mgrwt>
<rscale>  0 0.53240557E+02</rscale>
<asrwt>0</asrwt>
<pdfrwt beam="1">  1       13 0.10000000E+01 0.53240557E+02</pdfrwt>
<pdfrwt beam="2">  1       22 0.13498140E+00 0.53240557E+02</pdfrwt>
<totfact> 0.89663672E-01</totfact>
</mgrwt>
</event>
<event>
 4    1  0.2451537E+000  0.5166271E+02  0.7957747E-01  0.1436574E+00
         13   -1    0    0    0    0  0.00000000000E+00  0.00000000000E+00  0.99999944177E+02  0.99999999997E+02  0.10566000000E+00 0.  1.
         22   -1    0    0    0    0 -0.00000000000E+00 -0.00000000000E+00 -0.18590980691E+02  0.18590980691E+02  0.00000000000E+00 0. -1.
         13    1    1    2    0    0 -0.22027817481E+01  0.12813412897E+02 -0.80455122738E+01  0.15289775318E+02  0.10566000000E+00 0. -1.
        996    1    1    2    0    0  0.22027817481E+01 -0.12813412897E+02  0.89454475759E+02  0.10330120537E+03  0.50000000000E+02 0.  0.
<mgrwt>
<rscale>  0 0.51662712E+02</rscale>
<asrwt>0</asrwt>
<pdfrwt beam="1">  1       13 0.10000000E+01 0.51662712E+02</pdfrwt>
<pdfrwt beam="2">  1       22 0.18591003E+00 0.51662712E+02</pdfrwt>
<totfact> 0.51796975E-01</totfact>
</mgrwt>
</event>
<event>
 4    1  0.2451537E+000  0.5170762E+02  0.7957747E-01  0.1436343E+00
         13   -1    0    0    0    0  0.00000000000E+00  0.00000000000E+00  0.99999944185E+02  0.10000000000E+03  0.10566000000E+00 0. -1.
         22   -1    0    0    0    0 -0.00000000000E+00 -0.00000000000E+00 -0.10637640661E+02  0.10637640661E+02  0.00000000000E+00 0. -1.
         13    1    1    2    0    0 -0.12383893003E+02 -0.45074073646E+01  0.23008825777E+02  0.26515933979E+02  0.10566000000E+00 0.  1.
        996    1    1    2    0    0  0.12383893003E+02  0.45074073646E+01  0.66353477746E+02  0.84121706688E+02  0.50000000000E+02 0.  0.
<mgrwt>
<rscale>  0 0.51707616E+02</rscale>
<asrwt>0</asrwt>
<pdfrwt beam="1">  1       13 0.10000000E+01 0.51707616E+02</pdfrwt>
<pdfrwt beam="2">  1       22 0.10637666E+00 0.51707616E+02</pdfrwt>
<totfact> 0.12871667E+00</totfact>
</mgrwt>
</event>
<event>
 4    1  0.2451537E+000  0.5139953E+02  0.7957747E-01  0.1437936E+00
         13   -1    0    0    0    0  0.00000000000E+00  0.00000000000E+00  0.99999944189E+02  0.10000000001E+03  0.10566000000E+00 0.  1.
         22   -1    0    0    0    0 -0.00000000000E+00 -0.00000000000E+00 -0.21750169061E+02  0.21750169061E+02  0.00000000000E+00 0.  1.
         13    1    1    2    0    0 -0.91834196068E+01 -0.75879073963E+01 -0.12617534041E+02  0.17352949710E+02  0.10566000000E+00 0. -1.
        996    1    1    2    0    0  0.91834196068E+01  0.75879073963E+01  0.90867309169E+02  0.10439721936E+03  0.50000000000E+02 0.  0.
<mgrwt>
<rscale>  0 0.51399529E+02</rscale>
<asrwt>0</asrwt>
<pdfrwt beam="1">  1       13 0.10000000E+01 0.51399529E+02</pdfrwt>
<pdfrwt beam="2">  1       22 0.21750191E+00 0.51399529E+02</pdfrwt>
<totfact> 0.38619239E-01</totfact>
</mgrwt>
</event>
<event>
 4    1  0.2451537E+000  0.5338890E+02  0.7957747E-01  0.1427875E+00
         13   -1    0    0    0    0  0.00000000000E+00  0.00000000000E+00  0.99999944183E+02  0.10000000000E+03  0.10566000000E+00 0.  1.
         22   -1    0    0    0    0 -0.00000000000E+00 -0.00000000000E+00 -0.28485264576E+02  0.28485264576E+02  0.00000000000E+00 0. -1.
         13    1    1    2    0    0 -0.16021750393E+02  0.96787303994E+01 -0.16888584165E+02  0.25211301968E+02  0.10566000000E+00 0. -1.
        996    1    1    2    0    0  0.16021750393E+02 -0.96787303994E+01  0.88403263772E+02  0.10327396261E+03  0.50000000000E+02 0.  0.
<mgrwt>
<rscale>  0 0.53388897E+02</rscale>
<asrwt>0</asrwt>
<pdfrwt beam="1">  1       13 0.10000000E+01 0.53388897E+02</pdfrwt>
<pdfrwt beam="2">  1       22 0.28485285E+00 0.53388897E+02</pdfrwt>
<totfact> 0.22884949E-01</totfact>
</mgrwt>
</event>
<event>
 4    1  0.2451537E+000  0.5797124E+02  0.7957747E-01  0.1406548E+00
         13   -1    0    0    0    0  0.00000000000E+00  0.00000000000E+00  0.99999944183E+02  0.10000000000E+03  0.10566000000E+00 0. -1.
         22   -1    0    0    0    0 -0.00000000000E+00 -0.00000000000E+00 -0.26077706715E+02  0.26077706715E+02  0.00000000000E+00 0.  1.
         13    1    1    2    0    0 -0.74633393504E+01 -0.28371881061E+02 -0.32943605523E+01  0.29521670764E+02  0.10566000000E+00 0.  1.
        996    1    1    2    0    0  0.74633393504E+01  0.28371881061E+02  0.77216598020E+02  0.96556035954E+02  0.50000000000E+02 0.  0.
<mgrwt>
<rscale>  0 0.57971243E+02</rscale>
<asrwt>0</asrwt>
<pdfrwt beam="1">  1       13 0.10000000E+01 0.57971243E+02</pdfrwt>
<pdfrwt beam="2">  1       22 0.26077727E+00 0.57971243E+02</pdfrwt>
<totfact> 0.27363293E-01</totfact>
</mgrwt>
</event>
<event>
 4    1  0.2451537E+000  0.5272003E+02  0.7957747E-01  0.1431199E+00
         13   -1    0    0    0    0  0.00000000000E+00  0.00000000000E+00  0.99999944182E+02  0.10000000000E+03  0.10566000000E+00 0. -1.
         22   -1    0    0    0    0 -0.00000000000E+00 -0.00000000000E+00 -0.20165026493E+02  0.20165026493E+02  0.00000000000E+00 0.  1.
         13    1    1    2    0    0 -0.16063864413E+02  0.46210143694E+01 -0.73655199908E+01  0.18266460041E+02  0.10566000000E+00 0.  1.
        996    1    1    2    0    0  0.16063864413E+02 -0.46210143694E+01  0.87200437680E+02  0.10189856645E+03  0.50000000000E+02 0.  0.
<mgrwt>
<rscale>  0 0.52720030E+02</rscale>
<asrwt>0</asrwt>
<pdfrwt beam="1">  1       13 0.10000000E+01 0.52720030E+02</pdfrwt>
<pdfrwt beam="2">  1       22 0.20165049E+00 0.52720030E+02</pdfrwt>
<totfact> 0.44674740E-01</totfact>
</mgrwt>
</event>
<event>
 4    1  0.2451537E+000  0.5151252E+02  0.7957747E-01  0.1437350E+00
         13   -1    0    0    0    0  0.00000000000E+00  0.00000000000E+00  0.99999944179E+02  0.99999999999E+02  0.10566000000E+00 0. -1.
         22   -1    0    0    0    0 -0.00000000000E+00 -0.00000000000E+00 -0.10288548305E+02  0.10288548305E+02  0.00000000000E+00 0. -1.
         13    1    1    2    0    0  0.12390047285E+02  0.16338596599E+00  0.13771898578E+02  0.18526098379E+02  0.10566000000E+00 0.  1.
        996    1    1    2    0    0 -0.12390047285E+02 -0.16338596599E+00  0.75939497296E+02  0.91762449925E+02  0.50000000000E+02 0.  0.
<mgrwt>
<rscale>  0 0.51512522E+02</rscale>
<asrwt>0</asrwt>
<pdfrwt beam="1">  1       13 0.10000000E+01 0.51512522E+02</pdfrwt>
<pdfrwt beam="2">  1       22 0.10288573E+00 0.51512522E+02</pdfrwt>
<totfact> 0.13510827E+00</totfact>
</mgrwt>
</event>
<event>
 4    1  0.2451537E+000  0.5200756E+02  0.7957747E-01  0.1434805E+00
         13   -1    0    0    0    0  0.00000000000E+00  0.00000000000E+00  0.99999944179E+02  0.99999999999E+02  0.10566000000E+00 0. -1.
         22   -1    0    0    0    0 -0.00000000000E+00 -0.00000000000E+00 -0.17300940979E+02  0.17300940979E+02  0.00000000000E+00 0.  1.
         13    1    1    2    0    0 -0.14129433381E+02  0.22683987401E+01 -0.51519884540E+01  0.15209887231E+02  0.10566000000E+00 0.  1.
        996    1    1    2    0    0  0.14129433381E+02 -0.22683987401E+01  0.87850991655E+02  0.10209105375E+03  0.50000000000E+02 0.  0.
<mgrwt>
<rscale>  0 0.52007562E+02</rscale>
<asrwt>0</asrwt>
<pdfrwt beam="1">  1       13 0.10000000E+01 0.52007562E+02</pdfrwt>
<pdfrwt beam="2">  1       22 0.17300964E+00 0.52007562E+02</pdfrwt>
<totfact> 0.58951966E-01</totfact>
</mgrwt>
</event>
<event>
 4    1  0.2451537E+000  0.5116468E+02  0.7957747E-01  0.1439159E+00
         13   -1    0    0    0    0  0.00000000000E+00  0.00000000000E+00  0.99999944179E+02  0.99999999999E+02  0.10566000000E+00 0. -1.
         22   -1    0    0    0    0 -0.00000000000E+00 -0.00000000000E+00 -0.25484012461E+02  0.25484012461E+02  0.00000000000E+00 0.  1.
         13    1    1    2    0    0 -0.44126190658E+01  0.99173281314E+01 -0.17271480633E+02  0.20399505180E+02  0.10566000000E+00 0.  1.
        996    1    1    2    0    0  0.44126190658E+01 -0.99173281314E+01  0.91787412351E+02  0.10508450728E+03  0.50000000000E+02 0.  0.
<mgrwt>
<rscale>  0 0.51164681E+02</rscale>
<asrwt>0</asrwt>
<pdfrwt beam="1">  1       13 0.10000000E+01 0.51164681E+02</pdfrwt>
<pdfrwt beam="2">  1       22 0.25484033E+00 0.51164681E+02</pdfrwt>
<totfact> 0.28350710E-01</totfact>
</mgrwt>
</event>
<event>
 4    1  0.2451537E+000  0.6683631E+02  0.7957747E-01  0.1371194E+00
         13   -1    0    0    0    0  0.00000000000E+00  0.00000000000E+00  0.99999944185E+02  0.10000000001E+03  0.10566000000E+00 0.  1.
         22   -1    0    0    0    0 -0.00000000000E+00 -0.00000000000E+00 -0.54389065388E+02  0.54389065388E+02  0.00000000000E+00 0. -1.
         13    1    1    2    0    0  0.40884963746E+02  0.17190445576E+02 -0.29944574264E+02  0.53514300626E+02  0.10566000000E+00 0. -1.
        996    1    1    2    0    0 -0.40884963746E+02 -0.17190445576E+02  0.75555453061E+02  0.10087476477E+03  0.50000000000E+02 0.  0.
<mgrwt>
<rscale>  0 0.66836305E+02</rscale>
<asrwt>0</asrwt>
<pdfrwt beam="1">  1       13 0.10000000E+01 0.66836305E+02</pdfrwt>
<pdfrwt beam="2">  1       22 0.54389078E+00 0.66836305E+02</pdfrwt>
<totfact> 0.60208342E-02</totfact>
</mgrwt>
</event>
<event>
 4    1  0.2451537E+000  0.5124862E+02  0.7957747E-01  0.1438721E+00
         13   -1    0    0    0    0  0.00000000000E+00  0.00000000000E+00  0.99999944176E+02  0.99999999996E+02  0.10566000000E+00 0.  1.
         22   -1    0    0    0    0 -0.00000000000E+00 -0.00000000000E+00 -0.11368529268E+02  0.11368529268E+02  0.00000000000E+00 0.  1.
         13    1    1    2    0    0 -0.87075972618E+01  0.71132807609E+01  0.31084191169E+01  0.11665952456E+02  0.10566000000E+00 0. -1.
        996    1    1    2    0    0  0.87075972618E+01 -0.71132807609E+01  0.85522995791E+02  0.99702576809E+02  0.50000000000E+02 0.  0.
<mgrwt>
<rscale>  0 0.51248620E+02</rscale>
<asrwt>0</asrwt>
<pdfrwt beam="1">  1       13 0.10000000E+01 0.51248620E+02</pdfrwt>
<pdfrwt beam="2">  1       22 0.11368554E+00 0.51248620E+02</pdfrwt>
<totfact> 0.11647716E+00</totfact>
</mgrwt>
</event>
<event>
 4    1  0.2451537E+000  0.5178741E+02  0.7957747E-01  0.1435932E+00
         13   -1    0    0    0    0  0.00000000000E+00  0.00000000000E+00  0.99999944177E+02  0.99999999997E+02  0.10566000000E+00 0. -1.
         22   -1    0    0    0    0 -0.00000000000E+00 -0.00000000000E+00 -0.10678946992E+02  0.10678946992E+02  0.00000000000E+00 0. -1.
         13    1    1    2    0    0  0.13173741998E+02  0.28962712845E+01  0.16287783922E+02  0.21148024369E+02  0.10566000000E+00 0.  1.
        996    1    1    2    0    0 -0.13173741998E+02 -0.28962712845E+01  0.73033213264E+02  0.89530922620E+02  0.50000000000E+02 0.  0.
<mgrwt>
<rscale>  0 0.51787410E+02</rscale>
<asrwt>0</asrwt>
<pdfrwt beam="1">  1       13 0.10000000E+01 0.51787410E+02</pdfrwt>
<pdfrwt beam="2">  1       22 0.10678972E+00 0.51787410E+02</pdfrwt>
<totfact> 0.12800741E+00</totfact>
</mgrwt>
</event>
<event>
 4    1  0.2451537E+000  0.5393546E+02  0.7957747E-01  0.1425201E+00
         13   -1    0    0    0    0  0.00000000000E+00  0.00000000000E+00  0.99999944186E+02  0.10000000001E+03  0.10566000000E+00 0. -1.
         22   -1    0    0    0    0 -0.00000000000E+00 -0.00000000000E+00 -0.19773633115E+02  0.19773633115E+02  0.00000000000E+00 0.  1.
         13    1    1    2    0    0 -0.17318771744E+02  0.10444782666E+02 -0.31542081095E+01  0.20469331511E+02  0.10566000000E+00 0.  1.
        996    1    1    2    0    0  0.17318771744E+02 -0.10444782666E+02  0.83380519180E+02  0.99304301611E+02  0.50000000000E+02 0.  0.
<mgrwt>
<rscale>  0 0.53935455E+02</rscale>
<asrwt>0</asrwt>
<pdfrwt beam="1">  1       13 0.10000000E+01 0.53935455E+02</pdfrwt>
<pdfrwt beam="2">  1       22 0.19773656E+00 0.53935455E+02</pdfrwt>
<totfact> 0.46437140E-01</totfact>
</mgrwt>
</event>
<event>
 4    1  0.2451537E+000  0.5586852E+02  0.7957747E-01  0.1416036E+00
         13   -1    0    0    0    0  0.00000000000E+00  0.00000000000E+00  0.99999944179E+02  0.99999999999E+02  0.10566000000E+00 0. -1.
         22   -1    0    0    0    0 -0.00000000000E+00 -0.00000000000E+00 -0.34041687588E+02  0.34041687588E+02  0.00000000000E+00 0.  1.
         13    1    1    2    0    0  0.15542989094E+02  0.19486061805E+02 -0.19702277037E+02  0.31772346453E+02  0.10566000000E+00 0.  1.
        996    1    1    2    0    0 -0.15542989094E+02 -0.19486061805E+02  0.85660533628E+02  0.10226934113E+03  0.50000000000E+02 0.  0.
<mgrwt>
<rscale>  0 0.55868516E+02</rscale>
<asrwt>0</asrwt>
<pdfrwt beam="1">  1       13 0.10000000E+01 0.55868516E+02</pdfrwt>
<pdfrwt beam="2">  1       22 0.34041706E+00 0.55868516E+02</pdfrwt>
<totfact> 0.16561458E-01</totfact>
</mgrwt>
</event>
<event>
 4    1  0.2451537E+000  0.5267990E+02  0.7957747E-01  0.1431401E+00
         13   -1    0    0    0    0  0.00000000000E+00  0.00000000000E+00  0.99999944182E+02  0.10000000000E+03  0.10566000000E+00 0. -1.
         22   -1    0    0    0    0 -0.00000000000E+00 -0.00000000000E+00 -0.14400409827E+02  0.14400409827E+02  0.00000000000E+00 0. -1.
         13    1    1    2    0    0  0.15154660406E+02 -0.67459948749E+01  0.44788192850E+02  0.47761548987E+02  0.10566000000E+00 0.  1.
        996    1    1    2    0    0 -0.15154660406E+02  0.67459948749E+01  0.40811341504E+02  0.66638860842E+02  0.50000000000E+02 0.  0.
<mgrwt>
<rscale>  0 0.52679903E+02</rscale>
<asrwt>0</asrwt>
<pdfrwt beam="1">  1       13 0.10000000E+01 0.52679903E+02</pdfrwt>
<pdfrwt beam="2">  1       22 0.14400434E+00 0.52679903E+02</pdfrwt>
<totfact> 0.80653434E-01</totfact>
</mgrwt>
</event>
<event>
 4    1  0.2451537E+000  0.7065019E+02  0.7957747E-01  0.1357896E+00
         13   -1    0    0    0    0  0.00000000000E+00  0.00000000000E+00  0.99999944180E+02  0.10000000000E+03  0.10566000000E+00 0. -1.
         22   -1    0    0    0    0 -0.00000000000E+00 -0.00000000000E+00 -0.63562450810E+02  0.63562450810E+02  0.00000000000E+00 0.  1.
         13    1    1    2    0    0 -0.40851536752E+02  0.28681025668E+02 -0.36638657517E+02  0.61918104599E+02  0.10566000000E+00 0.  1.
        996    1    1    2    0    0  0.40851536752E+02 -0.28681025668E+02  0.73076150887E+02  0.10164434621E+03  0.50000000000E+02 0.  0.
<mgrwt>
<rscale>  0 0.70650190E+02</rscale>
<asrwt>0</asrwt>
<pdfrwt beam="1">  1       13 0.10000000E+01 0.70650190E+02</pdfrwt>
<pdfrwt beam="2">  1       22 0.63562461E+00 0.70650190E+02</pdfrwt>
<totfact> 0.81574783E-02</totfact>
</mgrwt>
</event>
<event>
 4    1  0.2451537E+000  0.5115950E+02  0.7957747E-01  0.1439186E+00
         13   -1    0    0    0    0  0.00000000000E+00  0.00000000000E+00  0.99999944173E+02  0.99999999993E+02  0.10566000000E+00 0. -1.
         22   -1    0    0    0    0 -0.00000000000E+00 -0.00000000000E+00 -0.16349736728E+02  0.16349736728E+02  0.00000000000E+00 0.  1.
         13    1    1    2    0    0  0.53699134799E+01  0.94052098155E+01 -0.65456449393E+01  0.12655061207E+02  0.10566000000E+00 0.  1.
        996    1    1    2    0    0 -0.53699134799E+01 -0.94052098155E+01  0.90195852385E+02  0.10369467551E+03  0.50000000000E+02 0.  0.
<mgrwt>
<rscale>  0 0.51159495E+02</rscale>
<asrwt>0</asrwt>
<pdfrwt beam="1">  1       13 0.10000000E+01 0.51159495E+02</pdfrwt>
<pdfrwt beam="2">  1       22 0.16349760E+00 0.51159495E+02</pdfrwt>
<totfact> 0.64954999E-01</totfact>
</mgrwt>
</event>
<event>
 4    1  0.2451537E+000  0.6270343E+02  0.7957747E-01  0.1386825E+00
         13   -1    0    0    0    0  0.00000000000E+00  0.00000000000E+00  0.99999944188E+02  0.10000000001E+03  0.10566000000E+00 0. -1.
         22   -1    0    0    0    0 -0.00000000000E+00 -0.00000000000E+00 -0.79887119201E+02  0.79887119201E+02  0.00000000000E+00 0.  1.
         13    1    1    2    0    0  0.10847638364E+02 -0.36249814520E+02 -0.64376022936E+02  0.74672644281E+02  0.10566000000E+00 0.  1.
        996    1    1    2    0    0 -0.10847638364E+02  0.36249814520E+02  0.84488847924E+02  0.10521447493E+03  0.50000000000E+02 0.  0.
<mgrwt>
<rscale>  0 0.62703431E+02</rscale>
<asrwt>0</asrwt>
<pdfrwt beam="1">  1       13 0.10000000E+01 0.62703431E+02</pdfrwt>
<pdfrwt beam="2">  1       22 0.79887125E+00 0.62703431E+02</pdfrwt>
<totfact> 0.31200028E-02</totfact>
</mgrwt>
</event>
<event>
 4    1  0.2451537E+000  0.5227677E+02  0.7957747E-01  0.1433434E+00
         13   -1    0    0    0    0  0.00000000000E+00  0.00000000000E+00  0.99999944175E+02  0.99999999995E+02  0.10566000000E+00 0.  1.
         22   -1    0    0    0    0 -0.00000000000E+00 -0.00000000000E+00 -0.11693345259E+02  0.11693345259E+02  0.00000000000E+00 0. -1.
         13    1    1    2    0    0 -0.11477550493E+02 -0.10056177824E+02  0.27952685914E+02  0.31846894536E+02  0.10566000000E+00 0. -1.
        996    1    1    2    0    0  0.11477550493E+02  0.10056177824E+02  0.60353913001E+02  0.79846450718E+02  0.50000000000E+02 0.  0.
<mgrwt>
<rscale>  0 0.52276772E+02</rscale>
<asrwt>0</asrwt>
<pdfrwt beam="1">  1       13 0.10000000E+01 0.52276772E+02</pdfrwt>
<pdfrwt beam="2">  1       22 0.11693370E+00 0.52276772E+02</pdfrwt>
<totfact> 0.11188985E+00</totfact>
</mgrwt>
</event>
<event>
 4    1  0.2451537E+000  0.5177430E+02  0.7957747E-01  0.1436000E+00
         13   -1    0    0    0    0  0.00000000000E+00  0.00000000000E+00  0.99999944177E+02  0.99999999997E+02  0.10566000000E+00 0. -1.
         22   -1    0    0    0    0 -0.00000000000E+00 -0.00000000000E+00 -0.29476212999E+02  0.29476212999E+02  0.00000000000E+00 0.  1.
         13    1    1    2    0    0 -0.23874411109E+01 -0.13224155666E+02 -0.20644149978E+02  0.24632707129E+02  0.10566000000E+00 0.  1.
        996    1    1    2    0    0  0.23874411109E+01  0.13224155666E+02  0.91167881155E+02  0.10484350587E+03  0.50000000000E+02 0.  0.
<mgrwt>
<rscale>  0 0.51774300E+02</rscale>
<asrwt>0</asrwt>
<pdfrwt beam="1">  1       13 0.10000000E+01 0.51774300E+02</pdfrwt>
<pdfrwt beam="2">  1       22 0.29476233E+00 0.51774300E+02</pdfrwt>
<totfact> 0.21393583E-01</totfact>
</mgrwt>
</event>
<event>
 4    1  0.2451537E+000  0.5114669E+02  0.7957747E-01  0.1439253E+00
         13   -1    0    0    0    0  0.00000000000E+00  0.00000000000E+00  0.99999944179E+02  0.99999999999E+02  0.10566000000E+00 0.  1.
         22   -1    0    0    0    0 -0.00000000000E+00 -0.00000000000E+00 -0.13174610548E+02  0.13174610548E+02  0.00000000000E+00 0. -1.
         13    1    1    2    0    0 -0.98314372816E+01 -0.43961898775E+01 -0.17319013178E+01  0.10908450425E+02  0.10566000000E+00 0. -1.
        996    1    1    2    0    0  0.98314372816E+01  0.43961898775E+01  0.88557234949E+02  0.10226616012E+03  0.50000000000E+02 0.  0.
<mgrwt>
<rscale>  0 0.51146688E+02</rscale>
<asrwt>0</asrwt>
<pdfrwt beam="1">  1       13 0.10000000E+01 0.51146688E+02</pdfrwt>
<pdfrwt beam="2">  1       22 0.13174635E+00 0.51146688E+02</pdfrwt>
<totfact> 0.92774972E-01</totfact>
</mgrwt>
</event>
<event>
 4    1  0.2451537E+000  0.5276237E+02  0.7957747E-01  0.1430987E+00
         13   -1    0    0    0    0  0.00000000000E+00  0.00000000000E+00  0.99999944180E+02  0.10000000000E+03  0.10566000000E+00 0.  1.
         22   -1    0    0    0    0 -0.00000000000E+00 -0.00000000000E+00 -0.14818157419E+02  0.14818157419E+02  0.00000000000E+00 0.  1.
         13    1    1    2    0    0 -0.11645953135E+02  0.12175375519E+02  0.46318738713E+02  0.49287977372E+02  0.10566000000E+00 0. -1.
        996    1    1    2    0    0  0.11645953135E+02 -0.12175375519E+02  0.38863048047E+02  0.65530180047E+02  0.50000000000E+02 0.  0.
<mgrwt>
<rscale>  0 0.52762373E+02</rscale>
<asrwt>0</asrwt>
<pdfrwt beam="1">  1       13 0.10000000E+01 0.52762373E+02</pdfrwt>
<pdfrwt beam="2">  1       22 0.14818181E+00 0.52762373E+02</pdfrwt>
<totfact> 0.76952880E-01</totfact>
</mgrwt>
</event>
<event>
 4    1  0.2451537E+000  0.5361402E+02  0.7957747E-01  0.1426769E+00
         13   -1    0    0    0    0  0.00000000000E+00  0.00000000000E+00  0.99999944173E+02  0.99999999993E+02  0.10566000000E+00 0.  1.
         22   -1    0    0    0    0 -0.00000000000E+00 -0.00000000000E+00 -0.19126537204E+02  0.19126537204E+02  0.00000000000E+00 0.  1.
         13    1    1    2    0    0  0.19335926830E+02  0.76458937020E+00 -0.29990250050E+01  0.19582338428E+02  0.10566000000E+00 0. -1.
        996    1    1    2    0    0 -0.19335926830E+02 -0.76458937020E+00  0.83872431974E+02  0.99544198769E+02  0.50000000000E+02 0.  0.
<mgrwt>
<rscale>  0 0.53614016E+02</rscale>
<asrwt>0</asrwt>
<pdfrwt beam="1">  1       13 0.10000000E+01 0.53614016E+02</pdfrwt>
<pdfrwt beam="2">  1       22 0.19126560E+00 0.53614016E+02</pdfrwt>
<totfact> 0.49354558E-01</totfact>
</mgrwt>
</event>
<event>
 4    1  0.2451537E+000  0.7785872E+02  0.7957747E-01  0.1335240E+00
         13   -1    0    0    0    0  0.00000000000E+00  0.00000000000E+00  0.99999944176E+02  0.99999999996E+02  0.10566000000E+00 0.  1.
         22   -1    0    0    0    0 -0.00000000000E+00 -0.00000000000E+00 -0.54072608928E+02  0.54072608928E+02  0.00000000000E+00 0. -1.
         13    1    1    2    0    0  0.28263589800E+02  0.52565664369E+02 -0.67574474617E+01  0.60063748128E+02  0.10566000000E+00 0. -1.
        996    1    1    2    0    0 -0.28263589800E+02 -0.52565664369E+02  0.52684782709E+02  0.94008860796E+02  0.50000000000E+02 0.  0.
<mgrwt>
<rscale>  0 0.77858715E+02</rscale>
<asrwt>0</asrwt>
<pdfrwt beam="1">  1       13 0.10000000E+01 0.77858715E+02</pdfrwt>
<pdfrwt beam="2">  1       22 0.54072622E+00 0.77858715E+02</pdfrwt>
<totfact> 0.60884107E-02</totfact>
</mgrwt>
</event>
<event>
 4    1  0.2451537E+000  0.5103699E+02  0.7957747E-01  0.1439827E+00
         13   -1    0    0    0    0  0.00000000000E+00  0.00000000000E+00  0.99999944184E+02  0.10000000000E+03  0.10566000000E+00 0.  1.
         22   -1    0    0    0    0 -0.00000000000E+00 -0.00000000000E+00 -0.99167413379E+01  0.99167413379E+01  0.00000000000E+00 0.  1.
         13    1    1    2    0    0 -0.62258968021E+01 -0.81248336959E+01  0.69694636613E+01  0.12383832256E+02  0.10566000000E+00 0. -1.
        996    1    1    2    0    0  0.62258968021E+01  0.81248336959E+01  0.83113739185E+02  0.97532909087E+02  0.50000000000E+02 0.  0.
<mgrwt>
<rscale>  0 0.51036994E+02</rscale>
<asrwt>0</asrwt>
<pdfrwt beam="1">  1       13 0.10000000E+01 0.51036994E+02</pdfrwt>
<pdfrwt beam="2">  1       22 0.99167665E-01 0.51036994E+02</pdfrwt>
<totfact> 0.14236122E+00</totfact>
</mgrwt>
</event>
<event>
 4    1  0.2451537E+000  0.6492975E+02  0.7957747E-01  0.1378236E+00
         13   -1    0    0    0    0  0.00000000000E+00  0.00000000000E+00  0.99999944181E+02  0.10000000000E+03  0.10566000000E+00 0. -1.
         22   -1    0    0    0    0 -0.00000000000E+00 -0.00000000000E+00 -0.33860205058E+02  0.33860205058E+02  0.00000000000E+00 0.  1.
         13    1    1    2    0    0  0.30160759066E+02  0.28393679357E+02  0.34877160563E+00  0.41424693367E+02  0.10566000000E+00 0.  1.
        996    1    1    2    0    0 -0.30160759066E+02 -0.28393679357E+02  0.65790967517E+02  0.92435511692E+02  0.50000000000E+02 0.  0.
<mgrwt>
<rscale>  0 0.64929750E+02</rscale>
<asrwt>0</asrwt>
<pdfrwt beam="1">  1       13 0.10000000E+01 0.64929750E+02</pdfrwt>
<pdfrwt beam="2">  1       22 0.33860224E+00 0.64929750E+02</pdfrwt>
<totfact> 0.16861134E-01</totfact>
</mgrwt>
</event>
<event>
 4    1  0.2451537E+000  0.8835781E+02  0.7957747E-01  0.1306878E+00
         13   -1    0    0    0    0  0.00000000000E+00  0.00000000000E+00  0.99999944179E+02  0.99999999999E+02  0.10566000000E+00 0. -1.
         22   -1    0    0    0    0 -0.00000000000E+00 -0.00000000000E+00 -0.64977875549E+02  0.64977875549E+02  0.00000000000E+00 0.  1.
         13    1    1    2    0    0  0.20531929164E+02 -0.69896655207E+02  0.16739997182E+02  0.74748519678E+02  0.10566000000E+00 0.  1.
        996    1    1    2    0    0 -0.20531929164E+02  0.69896655207E+02  0.18282071448E+02  0.90229355870E+02  0.50000000000E+02 0.  0.
<mgrwt>
<rscale>  0 0.88357810E+02</rscale>
<asrwt>0</asrwt>
<pdfrwt beam="1">  1       13 0.10000000E+01 0.88357810E+02</pdfrwt>
<pdfrwt beam="2">  1       22 0.64977885E+00 0.88357810E+02</pdfrwt>
<totfact> 0.86368184E-02</totfact>
</mgrwt>
</event>
<event>
 4    1  0.2451537E+000  0.5511983E+02  0.7957747E-01  0.1419533E+00
         13   -1    0    0    0    0  0.00000000000E+00  0.00000000000E+00  0.99999944179E+02  0.99999999999E+02  0.10566000000E+00 0. -1.
         22   -1    0    0    0    0 -0.00000000000E+00 -0.00000000000E+00 -0.37907996213E+02  0.37907996213E+02  0.00000000000E+00 0.  1.
         13    1    1    2    0    0 -0.80337947483E+01 -0.21763576294E+02 -0.25463577000E+02  0.34447061251E+02  0.10566000000E+00 0.  1.
        996    1    1    2    0    0  0.80337947483E+01  0.21763576294E+02  0.87555524966E+02  0.10346093496E+03  0.50000000000E+02 0.  0.
<mgrwt>
<rscale>  0 0.55119825E+02</rscale>
<asrwt>0</asrwt>
<pdfrwt beam="1">  1       13 0.10000000E+01 0.55119825E+02</pdfrwt>
<pdfrwt beam="2">  1       22 0.37908014E+00 0.55119825E+02</pdfrwt>
<totfact> 0.13690612E-01</totfact>
</mgrwt>
</event>
<event>
 4    1  0.2451537E+000  0.5278030E+02  0.7957747E-01  0.1430897E+00
         13   -1    0    0    0    0  0.00000000000E+00  0.00000000000E+00  0.99999944177E+02  0.99999999997E+02  0.10566000000E+00 0.  1.
         22   -1    0    0    0    0 -0.00000000000E+00 -0.00000000000E+00 -0.33234188766E+02  0.33234188766E+02  0.00000000000E+00 0.  1.
         13    1    1    2    0    0 -0.16872809785E+02 -0.10336712096E+01 -0.23333566546E+02  0.28813654368E+02  0.10566000000E+00 0. -1.
        996    1    1    2    0    0  0.16872809785E+02  0.10336712096E+01  0.90099321957E+02  0.10442053439E+03  0.50000000000E+02 0.  0.
<mgrwt>
<rscale>  0 0.52780301E+02</rscale>
<asrwt>0</asrwt>
<pdfrwt beam="1">  1       13 0.10000000E+01 0.52780301E+02</pdfrwt>
<pdfrwt beam="2">  1       22 0.33234207E+00 0.52780301E+02</pdfrwt>
<totfact> 0.17218270E-01</totfact>
</mgrwt>
</event>
<event>
 4    1  0.2451537E+000  0.5490356E+02  0.7957747E-01  0.1420556E+00
         13   -1    0    0    0    0  0.00000000000E+00  0.00000000000E+00  0.99999944177E+02  0.99999999997E+02  0.10566000000E+00 0.  1.
         22   -1    0    0    0    0 -0.00000000000E+00 -0.00000000000E+00 -0.15516581190E+02  0.15516581190E+02  0.00000000000E+00 0.  1.
         13    1    1    2    0    0  0.48047115322E+01  0.22165629318E+02  0.16070304208E+02  0.27796874237E+02  0.10566000000E+00 0. -1.
        996    1    1    2    0    0 -0.48047115322E+01 -0.22165629318E+02  0.68413058778E+02  0.87719706950E+02  0.50000000000E+02 0.  0.
<mgrwt>
<rscale>  0 0.54903555E+02</rscale>
<asrwt>0</asrwt>
<pdfrwt beam="1">  1       13 0.10000000E+01 0.54903555E+02</pdfrwt>
<pdfrwt beam="2">  1       22 0.15516605E+00 0.54903555E+02</pdfrwt>
<totfact> 0.71542893E-01</totfact>
</mgrwt>
</event>
<event>
 4    1  0.2451537E+000  0.5782163E+02  0.7957747E-01  0.1407208E+00
         13   -1    0    0    0    0  0.00000000000E+00  0.00000000000E+00  0.99999944173E+02  0.99999999993E+02  0.10566000000E+00 0.  1.
         22   -1    0    0    0    0 -0.00000000000E+00 -0.00000000000E+00 -0.22200991630E+02  0.22200991630E+02  0.00000000000E+00 0. -1.
         13    1    1    2    0    0 -0.77400932060E+01  0.27989848770E+02  0.53871739425E+01  0.29535969328E+02  0.10566000000E+00 0. -1.
        996    1    1    2    0    0  0.77400932060E+01 -0.27989848770E+02  0.72411778600E+02  0.92665022295E+02  0.50000000000E+02 0.  0.
<mgrwt>
<rscale>  0 0.57821628E+02</rscale>
<asrwt>0</asrwt>
<pdfrwt beam="1">  1       13 0.10000000E+01 0.57821628E+02</pdfrwt>
<pdfrwt beam="2">  1       22 0.22201013E+00 0.57821628E+02</pdfrwt>
<totfact> 0.37512877E-01</totfact>
</mgrwt>
</event>
<event>
 4    1  0.2451537E+000  0.5134499E+02  0.7957747E-01  0.1438219E+00
         13   -1    0    0    0    0  0.00000000000E+00  0.00000000000E+00  0.99999944176E+02  0.99999999996E+02  0.10566000000E+00 0.  1.
         22   -1    0    0    0    0 -0.00000000000E+00 -0.00000000000E+00 -0.10376823564E+02  0.10376823564E+02  0.00000000000E+00 0.  1.
         13    1    1    2    0    0 -0.10832961064E+02 -0.43537671984E+01  0.87873976425E+01  0.14612934531E+02  0.10566000000E+00 0. -1.
        996    1    1    2    0    0  0.10832961064E+02  0.43537671984E+01  0.80835722969E+02  0.95763889030E+02  0.50000000000E+02 0.  0.
<mgrwt>
<rscale>  0 0.51344993E+02</rscale>
<asrwt>0</asrwt>
<pdfrwt beam="1">  1       13 0.10000000E+01 0.51344993E+02</pdfrwt>
<pdfrwt beam="2">  1       22 0.10376849E+00 0.51344993E+02</pdfrwt>
<totfact> 0.13337880E+00</totfact>
</mgrwt>
</event>
<event>
 4    1  0.2451537E+000  0.5413293E+02  0.7957747E-01  0.1424244E+00
         13   -1    0    0    0    0  0.00000000000E+00  0.00000000000E+00  0.99999944169E+02  0.99999999989E+02  0.10566000000E+00 0.  1.
         22   -1    0    0    0    0 -0.00000000000E+00 -0.00000000000E+00 -0.49767003166E+02  0.49767003166E+02  0.00000000000E+00 0. -1.
         13    1    1    2    0    0 -0.10276057618E+02  0.18021567933E+02 -0.39702969114E+02  0.44796330111E+02  0.10566000000E+00 0. -1.
        996    1    1    2    0    0  0.10276057618E+02 -0.18021567933E+02  0.89935910116E+02  0.10497067304E+03  0.50000000000E+02 0.  0.
<mgrwt>
<rscale>  0 0.54132931E+02</rscale>
<asrwt>0</asrwt>
<pdfrwt beam="1">  1       13 0.10000000E+01 0.54132931E+02</pdfrwt>
<pdfrwt beam="2">  1       22 0.49767017E+00 0.54132931E+02</pdfrwt>
<totfact> 0.74636802E-02</totfact>
</mgrwt>
</event>
<event>
 4    1  0.2451537E+000  0.5243269E+02  0.7957747E-01  0.1432645E+00
         13   -1    0    0    0    0  0.00000000000E+00  0.00000000000E+00  0.99999944177E+02  0.99999999998E+02  0.10566000000E+00 0.  1.
         22   -1    0    0    0    0 -0.00000000000E+00 -0.00000000000E+00 -0.13459452324E+02  0.13459452324E+02  0.00000000000E+00 0. -1.
         13    1    1    2    0    0 -0.11519471642E+02  0.10792993179E+02  0.50800184314E+01  0.16583265058E+02  0.10566000000E+00 0. -1.
        996    1    1    2    0    0  0.11519471642E+02 -0.10792993179E+02  0.81460473422E+02  0.96876187264E+02  0.50000000000E+02 0.  0.
<mgrwt>
<rscale>  0 0.52432690E+02</rscale>
<asrwt>0</asrwt>
<pdfrwt beam="1">  1       13 0.10000000E+01 0.52432690E+02</pdfrwt>
<pdfrwt beam="2">  1       22 0.13459476E+00 0.52432690E+02</pdfrwt>
<totfact> 0.89922902E-01</totfact>
</mgrwt>
</event>
<event>
 4    1  0.2451537E+000  0.5209061E+02  0.7957747E-01  0.1434381E+00
         13   -1    0    0    0    0  0.00000000000E+00  0.00000000000E+00  0.99999944178E+02  0.99999999998E+02  0.10566000000E+00 0.  1.
         22   -1    0    0    0    0 -0.00000000000E+00 -0.00000000000E+00 -0.12379030499E+02  0.12379030499E+02  0.00000000000E+00 0.  1.
         13    1    1    2    0    0 -0.14606074660E+02  0.30635299795E+00  0.65390082007E+01  0.16006281936E+02  0.10566000000E+00 0. -1.
        996    1    1    2    0    0  0.14606074660E+02 -0.30635299795E+00  0.81081905478E+02  0.96372748561E+02  0.50000000000E+02 0.  0.
<mgrwt>
<rscale>  0 0.52090606E+02</rscale>
<asrwt>0</asrwt>
<pdfrwt beam="1">  1       13 0.10000000E+01 0.52090606E+02</pdfrwt>
<pdfrwt beam="2">  1       22 0.12379055E+00 0.52090606E+02</pdfrwt>
<totfact> 0.10248781E+00</totfact>
</mgrwt>
</event>
<event>
 4    1  0.2451537E+000  0.5145296E+02  0.7957747E-01  0.1437659E+00
         13   -1    0    0    0    0  0.00000000000E+00  0.00000000000E+00  0.99999944177E+02  0.99999999997E+02  0.10566000000E+00 0. -1.
         22   -1    0    0    0    0 -0.00000000000E+00 -0.00000000000E+00 -0.18164440057E+02  0.18164440057E+02  0.00000000000E+00 0.  1.
         13    1    1    2    0    0  0.69458840422E+01 -0.99579875552E+01 -0.80685324902E+01  0.14578038341E+02  0.10566000000E+00 0.  1.
        996    1    1    2    0    0 -0.69458840422E+01  0.99579875552E+01  0.89904036610E+02  0.10358640171E+03  0.50000000000E+02 0.  0.
<mgrwt>
<rscale>  0 0.51452957E+02</rscale>
<asrwt>0</asrwt>
<pdfrwt beam="1">  1       13 0.10000000E+01 0.51452957E+02</pdfrwt>
<pdfrwt beam="2">  1       22 0.18164463E+00 0.51452957E+02</pdfrwt>
<totfact> 0.53994405E-01</totfact>
</mgrwt>
</event>
<event>
 4    1  0.2451537E+000  0.5105170E+02  0.7957747E-01  0.1439750E+00
         13   -1    0    0    0    0  0.00000000000E+00  0.00000000000E+00  0.99999944185E+02  0.10000000000E+03  0.10566000000E+00 0. -1.
         22   -1    0    0    0    0 -0.00000000000E+00 -0.00000000000E+00 -0.94353440453E+01  0.94353440453E+01  0.00000000000E+00 0. -1.
         13    1    1    2    0    0 -0.27419043889E+01  0.99377230507E+01  0.17280602183E+02  0.20122294972E+02  0.10566000000E+00 0.  1.
        996    1    1    2    0    0  0.27419043889E+01 -0.99377230507E+01  0.73283997956E+02  0.89313049078E+02  0.50000000000E+02 0.  0.
<mgrwt>
<rscale>  0 0.51051703E+02</rscale>
<asrwt>0</asrwt>
<pdfrwt beam="1">  1       13 0.10000000E+01 0.51051703E+02</pdfrwt>
<pdfrwt beam="2">  1       22 0.94353693E-01 0.51051703E+02</pdfrwt>
<totfact> 0.15290689E+00</totfact>
</mgrwt>
</event>
<event>
 4    1  0.2451537E+000  0.5337328E+02  0.7957747E-01  0.1427952E+00
         13   -1    0    0    0    0  0.00000000000E+00  0.00000000000E+00  0.99999944178E+02  0.99999999999E+02  0.10566000000E+00 0.  1.
         22   -1    0    0    0    0 -0.00000000000E+00 -0.00000000000E+00 -0.14076196453E+02  0.14076196453E+02  0.00000000000E+00 0.  1.
         13    1    1    2    0    0  0.56046704821E+01  0.17812762207E+02  0.38018758252E+02  0.42357336693E+02  0.10566000000E+00 0. -1.
        996    1    1    2    0    0 -0.56046704821E+01 -0.17812762207E+02  0.47904989473E+02  0.71718859759E+02  0.50000000000E+02 0.  0.
<mgrwt>
<rscale>  0 0.53373278E+02</rscale>
<asrwt>0</asrwt>
<pdfrwt beam="1">  1       13 0.10000000E+01 0.53373278E+02</pdfrwt>
<pdfrwt beam="2">  1       22 0.14076220E+00 0.53373278E+02</pdfrwt>
<totfact> 0.83826036E-01</totfact>
</mgrwt>
</event>
<event>
 4    1  0.2451537E+000  0.5338896E+02  0.7957747E-01  0.1427875E+00
         13   -1    0    0    0    0  0.00000000000E+00  0.00000000000E+00  0.99999944178E+02  0.99999999999E+02  0.10566000000E+00 0.  1.
         22   -1    0    0    0    0 -0.00000000000E+00 -0.00000000000E+00 -0.16220684753E+02  0.16220684753E+02  0.00000000000E+00 0.  1.
         13    1    1    2    0    0  0.18647578963E+02  0.16275517758E+01  0.23724827969E+01  0.18868517817E+02  0.10566000000E+00 0. -1.
        996    1    1    2    0    0 -0.18647578963E+02 -0.16275517758E+01  0.81406776628E+02  0.97352166935E+02  0.50000000000E+02 0.  0.
<mgrwt>
<rscale>  0 0.53388961E+02</rscale>
<asrwt>0</asrwt>
<pdfrwt beam="1">  1       13 0.10000000E+01 0.53388961E+02</pdfrwt>
<pdfrwt beam="2">  1       22 0.16220708E+00 0.53388961E+02</pdfrwt>
<totfact> 0.66136340E-01</totfact>
</mgrwt>
</event>
<event>
 4    1  0.2451537E+000  0.5554041E+02  0.7957747E-01  0.1417560E+00
         13   -1    0    0    0    0  0.00000000000E+00  0.00000000000E+00  0.99999944184E+02  0.10000000000E+03  0.10566000000E+00 0.  1.
         22   -1    0    0    0    0 -0.00000000000E+00 -0.00000000000E+00 -0.20182802239E+02  0.20182802239E+02  0.00000000000E+00 0.  1.
         13    1    1    2    0    0  0.24156060444E+02 -0.11052860660E+01  0.15761609336E+01  0.24232877683E+02  0.10566000000E+00 0. -1.
        996    1    1    2    0    0 -0.24156060444E+02  0.11052860660E+01  0.78240981011E+02  0.95949924560E+02  0.50000000000E+02 0.  0.
<mgrwt>
<rscale>  0 0.55540408E+02</rscale>
<asrwt>0</asrwt>
<pdfrwt beam="1">  1       13 0.10000000E+01 0.55540408E+02</pdfrwt>
<pdfrwt beam="2">  1       22 0.20182825E+00 0.55540408E+02</pdfrwt>
<totfact> 0.44816995E-01</totfact>
</mgrwt>
</event>
<event>
 4    1  0.2451537E+000  0.5108594E+02  0.7957747E-01  0.1439571E+00
         13   -1    0    0    0    0  0.00000000000E+00  0.00000000000E+00  0.99999944174E+02  0.99999999995E+02  0.10566000000E+00 0. -1.
         22   -1    0    0    0    0 -0.00000000000E+00 -0.00000000000E+00 -0.21807904519E+02  0.21807904519E+02  0.00000000000E+00 0.  1.
         13    1    1    2    0    0  0.10100426588E+02  0.27846643228E+01 -0.13353187154E+02  0.16973265562E+02  0.10566000000E+00 0.  1.
        996    1    1    2    0    0 -0.10100426588E+02 -0.27846643228E+01  0.91545226809E+02  0.10483463895E+03  0.50000000000E+02 0.  0.
<mgrwt>
<rscale>  0 0.51085937E+02</rscale>
<asrwt>0</asrwt>
<pdfrwt beam="1">  1       13 0.10000000E+01 0.51085937E+02</pdfrwt>
<pdfrwt beam="2">  1       22 0.21807926E+00 0.51085937E+02</pdfrwt>
<totfact> 0.38402555E-01</totfact>
</mgrwt>
</event>
<event>
 4    1  0.2451537E+000  0.5168620E+02  0.7957747E-01  0.1436453E+00
         13   -1    0    0    0    0  0.00000000000E+00  0.00000000000E+00  0.99999944177E+02  0.99999999997E+02  0.10566000000E+00 0. -1.
         22   -1    0    0    0    0 -0.00000000000E+00 -0.00000000000E+00 -0.16215524093E+02  0.16215524093E+02  0.00000000000E+00 0. -1.
         13    1    1    2    0    0 -0.40446738689E+01 -0.12454053876E+02 -0.45567763131E+01  0.13864999785E+02  0.10566000000E+00 0.  1.
        996    1    1    2    0    0  0.40446738689E+01  0.12454053876E+02  0.88341196397E+02  0.10235052431E+03  0.50000000000E+02 0.  0.
<mgrwt>
<rscale>  0 0.51686196E+02</rscale>
<asrwt>0</asrwt>
<pdfrwt beam="1">  1       13 0.10000000E+01 0.51686196E+02</pdfrwt>
<pdfrwt beam="2">  1       22 0.16215547E+00 0.51686196E+02</pdfrwt>
<totfact> 0.65952487E-01</totfact>
</mgrwt>
</event>
<event>
 4    1  0.2451537E+000  0.6164782E+02  0.7957747E-01  0.1391044E+00
         13   -1    0    0    0    0  0.00000000000E+00  0.00000000000E+00  0.99999944179E+02  0.99999999999E+02  0.10566000000E+00 0. -1.
         22   -1    0    0    0    0 -0.00000000000E+00 -0.00000000000E+00 -0.38112174935E+02  0.38112174935E+02  0.00000000000E+00 0.  1.
         13    1    1    2    0    0 -0.18780386313E+02  0.30785554426E+02 -0.15431342101E+02  0.39224874180E+02  0.10566000000E+00 0.  1.
        996    1    1    2    0    0  0.18780386313E+02 -0.30785554426E+02  0.77319111345E+02  0.98887300754E+02  0.50000000000E+02 0.  0.
<mgrwt>
<rscale>  0 0.61647816E+02</rscale>
<asrwt>0</asrwt>
<pdfrwt beam="1">  1       13 0.10000000E+01 0.61647816E+02</pdfrwt>
<pdfrwt beam="2">  1       22 0.38112192E+00 0.61647816E+02</pdfrwt>
<totfact> 0.13627411E-01</totfact>
</mgrwt>
</event>
<event>
 4    1  0.2451537E+000  0.5733999E+02  0.7957747E-01  0.1409346E+00
         13   -1    0    0    0    0  0.00000000000E+00  0.00000000000E+00  0.99999944185E+02  0.10000000001E+03  0.10566000000E+00 0. -1.
         22   -1    0    0    0    0 -0.00000000000E+00 -0.00000000000E+00 -0.20841955072E+02  0.20841955072E+02  0.00000000000E+00 0.  1.
         13    1    1    2    0    0 -0.67877841798E+01 -0.27236006957E+02  0.74761910454E+01  0.29047868866E+02  0.10566000000E+00 0.  1.
        996    1    1    2    0    0  0.67877841798E+01  0.27236006957E+02  0.71681798068E+02  0.91794086211E+02  0.50000000000E+02 0.  0.
<mgrwt>
<rscale>  0 0.57339987E+02</rscale>
<asrwt>0</asrwt>
<pdfrwt beam="1">  1       13 0.10000000E+01 0.57339987E+02</pdfrwt>
<pdfrwt beam="2">  1       22 0.20841977E+00 0.57339987E+02</pdfrwt>
<totfact> 0.42305241E-01</totfact>
</mgrwt>
</event>
<event>
 4    1  0.2451537E+000  0.6096581E+02  0.7957747E-01  0.1393823E+00
         13   -1    0    0    0    0  0.00000000000E+00  0.00000000000E+00  0.99999944180E+02  0.10000000000E+03  0.10566000000E+00 0. -1.
         22   -1    0    0    0    0 -0.00000000000E+00 -0.00000000000E+00 -0.52564506851E+02  0.52564506851E+02  0.00000000000E+00 0.  1.
         13    1    1    2    0    0  0.32902167320E+02  0.11587804280E+02 -0.35408812613E+02  0.49705381973E+02  0.10566000000E+00 0.  1.
        996    1    1    2    0    0 -0.32902167320E+02 -0.11587804280E+02  0.82844249942E+02  0.10285912488E+03  0.50000000000E+02 0.  0.
<mgrwt>
<rscale>  0 0.60965809E+02</rscale>
<asrwt>0</asrwt>
<pdfrwt beam="1">  1       13 0.10000000E+01 0.60965809E+02</pdfrwt>
<pdfrwt beam="2">  1       22 0.52564520E+00 0.60965809E+02</pdfrwt>
<totfact> 0.64674689E-02</totfact>
</mgrwt>
</event>
<event>
 4    1  0.2451537E+000  0.5468449E+02  0.7957747E-01  0.1421597E+00
         13   -1    0    0    0    0  0.00000000000E+00  0.00000000000E+00  0.99999944179E+02  0.99999999999E+02  0.10566000000E+00 0.  1.
         22   -1    0    0    0    0 -0.00000000000E+00 -0.00000000000E+00 -0.28691282182E+02  0.28691282182E+02  0.00000000000E+00 0. -1.
         13    1    1    2    0    0  0.21890703525E+02 -0.33451873877E+01 -0.14836076518E+02  0.26655459290E+02  0.10566000000E+00 0. -1.
        996    1    1    2    0    0 -0.21890703525E+02  0.33451873877E+01  0.86144738514E+02  0.10203582289E+03  0.50000000000E+02 0.  0.
<mgrwt>
<rscale>  0 0.54684488E+02</rscale>
<asrwt>0</asrwt>
<pdfrwt beam="1">  1       13 0.10000000E+01 0.54684488E+02</pdfrwt>
<pdfrwt beam="2">  1       22 0.28691302E+00 0.54684488E+02</pdfrwt>
<totfact> 0.22609525E-01</totfact>
</mgrwt>
</event>
<event>
 4    1  0.2451537E+000  0.5297882E+02  0.7957747E-01  0.1429906E+00
         13   -1    0    0    0    0  0.00000000000E+00  0.00000000000E+00  0.99999944171E+02  0.99999999991E+02  0.10566000000E+00 0.  1.
         22   -1    0    0    0    0 -0.00000000000E+00 -0.00000000000E+00 -0.31469097929E+02  0.31469097929E+02  0.00000000000E+00 0. -1.
         13    1    1    2    0    0  0.83536101016E+01 -0.15393905797E+02 -0.21056722235E+02  0.27388900174E+02  0.10566000000E+00 0. -1.
        996    1    1    2    0    0 -0.83536101016E+01  0.15393905797E+02  0.89587568477E+02  0.10408019775E+03  0.50000000000E+02 0.  0.
<mgrwt>
<rscale>  0 0.52978818E+02</rscale>
<asrwt>0</asrwt>
<pdfrwt beam="1">  1       13 0.10000000E+01 0.52978818E+02</pdfrwt>
<pdfrwt beam="2">  1       22 0.31469117E+00 0.52978818E+02</pdfrwt>
<totfact> 0.18983840E-01</totfact>
</mgrwt>
</event>
<event>
 4    1  0.2451537E+000  0.5288843E+02  0.7957747E-01  0.1430357E+00
         13   -1    0    0    0    0  0.00000000000E+00  0.00000000000E+00  0.99999944182E+02  0.10000000000E+03  0.10566000000E+00 0. -1.
         22   -1    0    0    0    0 -0.00000000000E+00 -0.00000000000E+00 -0.17024215737E+02  0.17024215737E+02  0.00000000000E+00 0.  1.
         13    1    1    2    0    0 -0.15896879904E+02 -0.66689576701E+01 -0.15572282669E+01  0.17309590145E+02  0.10566000000E+00 0.  1.
        996    1    1    2    0    0  0.15896879904E+02  0.66689576701E+01  0.84532956711E+02  0.99714625594E+02  0.50000000000E+02 0.  0.
<mgrwt>
<rscale>  0 0.52888428E+02</rscale>
<asrwt>0</asrwt>
<pdfrwt beam="1">  1       13 0.10000000E+01 0.52888428E+02</pdfrwt>
<pdfrwt beam="2">  1       22 0.17024239E+00 0.52888428E+02</pdfrwt>
<totfact> 0.60750463E-01</totfact>
</mgrwt>
</event>
<event>
 4    1  0.2451537E+000  0.5407131E+02  0.7957747E-01  0.1424542E+00
         13   -1    0    0    0    0  0.00000000000E+00  0.00000000000E+00  0.99999944174E+02  0.99999999994E+02  0.10566000000E+00 0. -1.
         22   -1    0    0    0    0 -0.00000000000E+00 -0.00000000000E+00 -0.19437616259E+02  0.19437616259E+02  0.00000000000E+00 0.  1.
         13    1    1    2    0    0 -0.12211611557E+02  0.16570549983E+02 -0.20680223243E+01  0.20688027067E+02  0.10566000000E+00 0.  1.
        996    1    1    2    0    0  0.12211611557E+02 -0.16570549983E+02  0.82630350239E+02  0.98749589185E+02  0.50000000000E+02 0.  0.
<mgrwt>
<rscale>  0 0.54071310E+02</rscale>
<asrwt>0</asrwt>
<pdfrwt beam="1">  1       13 0.10000000E+01 0.54071310E+02</pdfrwt>
<pdfrwt beam="2">  1       22 0.19437639E+00 0.54071310E+02</pdfrwt>
<totfact> 0.47947671E-01</totfact>
</mgrwt>
</event>
<event>
 4    1  0.2451537E+000  0.5141000E+02  0.7957747E-01  0.1437881E+00
         13   -1    0    0    0    0  0.00000000000E+00  0.00000000000E+00  0.99999944169E+02  0.99999999989E+02  0.10566000000E+00 0.  1.
         22   -1    0    0    0    0 -0.00000000000E+00 -0.00000000000E+00 -0.53146934495E+02  0.53146934495E+02  0.00000000000E+00 0. -1.
         13    1    1    2    0    0  0.45750335557E+01 -0.11047947874E+02 -0.45719277734E+02  0.47257291552E+02  0.10566000000E+00 0. -1.
        996    1    1    2    0    0 -0.45750335557E+01  0.11047947874E+02  0.92572287408E+02  0.10588964293E+03  0.50000000000E+02 0.  0.
<mgrwt>
<rscale>  0 0.51410000E+02</rscale>
<asrwt>0</asrwt>
<pdfrwt beam="1">  1       13 0.10000000E+01 0.51410000E+02</pdfrwt>
<pdfrwt beam="2">  1       22 0.53146948E+00 0.51410000E+02</pdfrwt>
<totfact> 0.62712017E-02</totfact>
</mgrwt>
</event>
<event>
 4    1  0.2451537E+000  0.5223750E+02  0.7957747E-01  0.1433634E+00
         13   -1    0    0    0    0  0.00000000000E+00  0.00000000000E+00  0.99999944173E+02  0.99999999993E+02  0.10566000000E+00 0.  1.
         22   -1    0    0    0    0 -0.00000000000E+00 -0.00000000000E+00 -0.44018937097E+02  0.44018937097E+02  0.00000000000E+00 0. -1.
         13    1    1    2    0    0 -0.95710972531E+01 -0.11711123268E+02 -0.35548267916E+02  0.38632199351E+02  0.10566000000E+00 0. -1.
        996    1    1    2    0    0  0.95710972531E+01  0.11711123268E+02  0.91529274992E+02  0.10538673774E+03  0.50000000000E+02 0.  0.
<mgrwt>
<rscale>  0 0.52237499E+02</rscale>
<asrwt>0</asrwt>
<pdfrwt beam="1">  1       13 0.10000000E+01 0.52237499E+02</pdfrwt>
<pdfrwt beam="2">  1       22 0.44018953E+00 0.52237499E+02</pdfrwt>
<totfact> 0.10163242E-01</totfact>
</mgrwt>
</event>
<event>
 4    1  0.2451537E+000  0.5312968E+02  0.7957747E-01  0.1429157E+00
         13   -1    0    0    0    0  0.00000000000E+00  0.00000000000E+00  0.99999944184E+02  0.10000000000E+03  0.10566000000E+00 0.  1.
         22   -1    0    0    0    0 -0.00000000000E+00 -0.00000000000E+00 -0.49126385482E+02  0.49126385482E+02  0.00000000000E+00 0. -1.
         13    1    1    2    0    0  0.17819997673E+02 -0.22826657396E+01 -0.40006599757E+02  0.43855467938E+02  0.10566000000E+00 0. -1.
        996    1    1    2    0    0 -0.17819997673E+02  0.22826657396E+01  0.90880158459E+02  0.10527091755E+03  0.50000000000E+02 0.  0.
<mgrwt>
<rscale>  0 0.53129680E+02</rscale>
<asrwt>0</asrwt>
<pdfrwt beam="1">  1       13 0.10000000E+01 0.53129680E+02</pdfrwt>
<pdfrwt beam="2">  1       22 0.49126400E+00 0.53129680E+02</pdfrwt>
<totfact> 0.77311247E-02</totfact>
</mgrwt>
</event>
<event>
 4    1  0.2451537E+000  0.5147815E+02  0.7957747E-01  0.1437528E+00
         13   -1    0    0    0    0  0.00000000000E+00  0.00000000000E+00  0.99999944180E+02  0.10000000000E+03  0.10566000000E+00 0.  1.
         22   -1    0    0    0    0 -0.00000000000E+00 -0.00000000000E+00 -0.17980058914E+02  0.17980058914E+02  0.00000000000E+00 0. -1.
         13    1    1    2    0    0  0.41290837062E+01  0.11530430351E+02 -0.77525764631E+01  0.14495301383E+02  0.10566000000E+00 0. -1.
        996    1    1    2    0    0 -0.41290837062E+01 -0.11530430351E+02  0.89772461730E+02  0.10348475753E+03  0.50000000000E+02 0.  0.
<mgrwt>
<rscale>  0 0.51478152E+02</rscale>
<asrwt>0</asrwt>
<pdfrwt beam="1">  1       13 0.10000000E+01 0.51478152E+02</pdfrwt>
<pdfrwt beam="2">  1       22 0.17980082E+00 0.51478152E+02</pdfrwt>
<totfact> 0.54995116E-01</totfact>
</mgrwt>
</event>
<event>
 4    1  0.2451537E+000  0.5839899E+02  0.7957747E-01  0.1404676E+00
         13   -1    0    0    0    0  0.00000000000E+00  0.00000000000E+00  0.99999944177E+02  0.99999999997E+02  0.10566000000E+00 0.  1.
         22   -1    0    0    0    0 -0.00000000000E+00 -0.00000000000E+00 -0.72118141412E+02  0.72118141412E+02  0.00000000000E+00 0. -1.
         13    1    1    2    0    0  0.29478684933E+02 -0.64380842883E+01 -0.59676642237E+02  0.66871179049E+02  0.10566000000E+00 0. -1.
        996    1    1    2    0    0 -0.29478684933E+02  0.64380842883E+01  0.87558445003E+02  0.10524696236E+03  0.50000000000E+02 0.  0.
<mgrwt>
<rscale>  0 0.58398988E+02</rscale>
<asrwt>0</asrwt>
<pdfrwt beam="1">  1       13 0.10000000E+01 0.58398988E+02</pdfrwt>
<pdfrwt beam="2">  1       22 0.72118149E+00 0.58398988E+02</pdfrwt>
<totfact> 0.63407416E-02</totfact>
</mgrwt>
</event>
<event>
 4    1  0.2451537E+000  0.5111107E+02  0.7957747E-01  0.1439439E+00
         13   -1    0    0    0    0  0.00000000000E+00  0.00000000000E+00  0.99999944181E+02  0.10000000000E+03  0.10566000000E+00 0.  1.
         22   -1    0    0    0    0 -0.00000000000E+00 -0.00000000000E+00 -0.34338568621E+02  0.34338568621E+02  0.00000000000E+00 0.  1.
         13    1    1    2    0    0 -0.28739542594E+01  0.10202034964E+02 -0.26728426286E+02  0.28753453119E+02  0.10566000000E+00 0. -1.
        996    1    1    2    0    0  0.28739542594E+01 -0.10202034964E+02  0.92389801847E+02  0.10558511550E+03  0.50000000000E+02 0.  0.
<mgrwt>
<rscale>  0 0.51111067E+02</rscale>
<asrwt>0</asrwt>
<pdfrwt beam="1">  1       13 0.10000000E+01 0.51111067E+02</pdfrwt>
<pdfrwt beam="2">  1       22 0.34338587E+00 0.51111067E+02</pdfrwt>
<totfact> 0.16230289E-01</totfact>
</mgrwt>
</event>
<event>
 4    1  0.2451537E+000  0.5181946E+02  0.7957747E-01  0.1435768E+00
         13   -1    0    0    0    0  0.00000000000E+00  0.00000000000E+00  0.99999944182E+02  0.10000000000E+03  0.10566000000E+00 0. -1.
         22   -1    0    0    0    0 -0.00000000000E+00 -0.00000000000E+00 -0.13187152816E+02  0.13187152816E+02  0.00000000000E+00 0.  1.
         13    1    1    2    0    0 -0.92184814279E+01  0.10013792436E+02  0.19447544647E+01  0.13749533547E+02  0.10566000000E+00 0.  1.
        996    1    1    2    0    0  0.92184814279E+01 -0.10013792436E+02  0.84868036902E+02  0.99437619271E+02  0.50000000000E+02 0.  0.
<mgrwt>
<rscale>  0 0.51819460E+02</rscale>
<asrwt>0</asrwt>
<pdfrwt beam="1">  1       13 0.10000000E+01 0.51819460E+02</pdfrwt>
<pdfrwt beam="2">  1       22 0.13187177E+00 0.51819460E+02</pdfrwt>
<totfact> 0.92771030E-01</totfact>
</mgrwt>
</event>
<event>
 4    1  0.2451537E+000  0.5339309E+02  0.7957747E-01  0.1427855E+00
         13   -1    0    0    0    0  0.00000000000E+00  0.00000000000E+00  0.99999944180E+02  0.10000000000E+03  0.10566000000E+00 0. -1.
         22   -1    0    0    0    0 -0.00000000000E+00 -0.00000000000E+00 -0.26664898801E+02  0.26664898801E+02  0.00000000000E+00 0.  1.
         13    1    1    2    0    0  0.80748355528E+01 -0.16900266541E+02 -0.14627711379E+02  0.23765586098E+02  0.10566000000E+00 0.  1.
        996    1    1    2    0    0 -0.80748355528E+01  0.16900266541E+02  0.87962756758E+02  0.10289931270E+03  0.50000000000E+02 0.  0.
<mgrwt>
<rscale>  0 0.53393089E+02</rscale>
<asrwt>0</asrwt>
<pdfrwt beam="1">  1       13 0.10000000E+01 0.53393089E+02</pdfrwt>
<pdfrwt beam="2">  1       22 0.26664919E+00 0.53393089E+02</pdfrwt>
<totfact> 0.26022857E-01</totfact>
</mgrwt>
</event>
<event>
 4    1  0.2451537E+000  0.5755287E+02  0.7957747E-01  0.1408398E+00
         13   -1    0    0    0    0  0.00000000000E+00  0.00000000000E+00  0.99999944188E+02  0.10000000001E+03  0.10566000000E+00 0. -1.
         22   -1    0    0    0    0 -0.00000000000E+00 -0.00000000000E+00 -0.19540483433E+02  0.19540483433E+02  0.00000000000E+00 0. -1.
         13    1    1    2    0    0 -0.73070784554E+01  0.27548860936E+02  0.40304367297E+02  0.49363815915E+02  0.10566000000E+00 0.  1.
        996    1    1    2    0    0  0.73070784554E+01 -0.27548860936E+02  0.40155093457E+02  0.70176667526E+02  0.50000000000E+02 0.  0.
<mgrwt>
<rscale>  0 0.57552873E+02</rscale>
<asrwt>0</asrwt>
<pdfrwt beam="1">  1       13 0.10000000E+01 0.57552873E+02</pdfrwt>
<pdfrwt beam="2">  1       22 0.19540506E+00 0.57552873E+02</pdfrwt>
<totfact> 0.47760768E-01</totfact>
</mgrwt>
</event>
<event>
 4    1  0.2451537E+000  0.5100150E+02  0.7957747E-01  0.1440013E+00
         13   -1    0    0    0    0  0.00000000000E+00  0.00000000000E+00  0.99999944175E+02  0.99999999995E+02  0.10566000000E+00 0. -1.
         22   -1    0    0    0    0 -0.00000000000E+00 -0.00000000000E+00 -0.20762560045E+02  0.20762560045E+02  0.00000000000E+00 0.  1.
         13    1    1    2    0    0  0.97489404293E+01 -0.24721792720E+01 -0.12352819166E+02  0.15929746239E+02  0.10566000000E+00 0.  1.
        996    1    1    2    0    0 -0.97489404293E+01  0.24721792720E+01  0.91590203295E+02  0.10483281380E+03  0.50000000000E+02 0.  0.
<mgrwt>
<rscale>  0 0.51001505E+02</rscale>
<asrwt>0</asrwt>
<pdfrwt beam="1">  1       13 0.10000000E+01 0.51001505E+02</pdfrwt>
<pdfrwt beam="2">  1       22 0.20762582E+00 0.51001505E+02</pdfrwt>
<totfact> 0.42159089E-01</totfact>
</mgrwt>
</event>
<event>
 4    1  0.2451537E+000  0.5319525E+02  0.7957747E-01  0.1428832E+00
         13   -1    0    0    0    0  0.00000000000E+00  0.00000000000E+00  0.99999944176E+02  0.99999999996E+02  0.10566000000E+00 0. -1.
         22   -1    0    0    0    0 -0.00000000000E+00 -0.00000000000E+00 -0.18424675023E+02  0.18424675023E+02  0.00000000000E+00 0.  1.
         13    1    1    2    0    0  0.54624978907E+01 -0.17317492126E+02 -0.31048174232E+01  0.18422417648E+02  0.10566000000E+00 0.  1.
        996    1    1    2    0    0 -0.54624978907E+01  0.17317492126E+02  0.84680086576E+02  0.10000225737E+03  0.50000000000E+02 0.  0.
<mgrwt>
<rscale>  0 0.53195248E+02</rscale>
<asrwt>0</asrwt>
<pdfrwt beam="1">  1       13 0.10000000E+01 0.53195248E+02</pdfrwt>
<pdfrwt beam="2">  1       22 0.18424698E+00 0.53195248E+02</pdfrwt>
<totfact> 0.52797026E-01</totfact>
</mgrwt>
</event>
<event>
 4    1  0.2451537E+000  0.5776273E+02  0.7957747E-01  0.1407468E+00
         13   -1    0    0    0    0  0.00000000000E+00  0.00000000000E+00  0.99999944187E+02  0.10000000001E+03  0.10566000000E+00 0. -1.
         22   -1    0    0    0    0 -0.00000000000E+00 -0.00000000000E+00 -0.18921887099E+02  0.18921887099E+02  0.00000000000E+00 0.  1.
         13    1    1    2    0    0  0.10016248036E+02 -0.27133151675E+02  0.22395713107E+02  0.36580216977E+02  0.10566000000E+00 0.  1.
        996    1    1    2    0    0 -0.10016248036E+02  0.27133151675E+02  0.58682343981E+02  0.82341670129E+02  0.50000000000E+02 0.  0.
<mgrwt>
<rscale>  0 0.57762731E+02</rscale>
<asrwt>0</asrwt>
<pdfrwt beam="1">  1       13 0.10000000E+01 0.57762731E+02</pdfrwt>
<pdfrwt beam="2">  1       22 0.18921910E+00 0.57762731E+02</pdfrwt>
<totfact> 0.50696561E-01</totfact>
</mgrwt>
</event>
<event>
 4    1  0.2451537E+000  0.5653035E+02  0.7957747E-01  0.1412997E+00
         13   -1    0    0    0    0  0.00000000000E+00  0.00000000000E+00  0.99999944182E+02  0.10000000000E+03  0.10566000000E+00 0.  1.
         22   -1    0    0    0    0 -0.00000000000E+00 -0.00000000000E+00 -0.34260706541E+02  0.34260706541E+02  0.00000000000E+00 0. -1.
         13    1    1    2    0    0  0.53879538631E+01  0.25819583554E+02 -0.18921717854E+02  0.32461107688E+02  0.10566000000E+00 0. -1.
        996    1    1    2    0    0 -0.53879538631E+01 -0.25819583554E+02  0.84660955495E+02  0.10179959886E+03  0.50000000000E+02 0.  0.
<mgrwt>
<rscale>  0 0.56530354E+02</rscale>
<asrwt>0</asrwt>
<pdfrwt beam="1">  1       13 0.10000000E+01 0.56530354E+02</pdfrwt>
<pdfrwt beam="2">  1       22 0.34260725E+00 0.56530354E+02</pdfrwt>
<totfact> 0.16386943E-01</totfact>
</mgrwt>
</event>
<event>
 4    1  0.2451537E+000  0.5099419E+02  0.7957747E-01  0.1440052E+00
         13   -1    0    0    0    0  0.00000000000E+00  0.00000000000E+00  0.99999944175E+02  0.99999999995E+02  0.10566000000E+00 0.  1.
         22   -1    0    0    0    0 -0.00000000000E+00 -0.00000000000E+00 -0.98983708202E+01  0.98983708202E+01  0.00000000000E+00 0.  1.
         13    1    1    2    0    0  0.94570546411E+01  0.33123509960E+01  0.64125329563E+01  0.11897028812E+02  0.10566000000E+00 0. -1.
        996    1    1    2    0    0 -0.94570546411E+01 -0.33123509960E+01  0.83689040399E+02  0.98001342003E+02  0.50000000000E+02 0.  0.
<mgrwt>
<rscale>  0 0.50994191E+02</rscale>
<asrwt>0</asrwt>
<pdfrwt beam="1">  1       13 0.10000000E+01 0.50994191E+02</pdfrwt>
<pdfrwt beam="2">  1       22 0.98983960E-01 0.50994191E+02</pdfrwt>
<totfact> 0.14272799E+00</totfact>
</mgrwt>
</event>
<event>
 4    1  0.2451537E+000  0.5106086E+02  0.7957747E-01  0.1439702E+00
         13   -1    0    0    0    0  0.00000000000E+00  0.00000000000E+00  0.99999944187E+02  0.10000000001E+03  0.10566000000E+00 0. -1.
         22   -1    0    0    0    0 -0.00000000000E+00 -0.00000000000E+00 -0.10148871295E+02  0.10148871295E+02  0.00000000000E+00 0. -1.
         13    1    1    2    0    0  0.38737488092E+01  0.96023913699E+01  0.28537762931E+02  0.30358309027E+02  0.10566000000E+00 0.  1.
        996    1    1    2    0    0 -0.38737488092E+01 -0.96023913699E+01  0.61313309960E+02  0.79790562275E+02  0.50000000000E+02 0.  0.
<mgrwt>
<rscale>  0 0.51060864E+02</rscale>
<asrwt>0</asrwt>
<pdfrwt beam="1">  1       13 0.10000000E+01 0.51060864E+02</pdfrwt>
<pdfrwt beam="2">  1       22 0.10148896E+00 0.51060864E+02</pdfrwt>
<totfact> 0.13767505E+00</totfact>
</mgrwt>
</event>
<event>
 4    1  0.2451537E+000  0.5700647E+02  0.7957747E-01  0.1410842E+00
         13   -1    0    0    0    0  0.00000000000E+00  0.00000000000E+00  0.99999944182E+02  0.10000000000E+03  0.10566000000E+00 0. -1.
         22   -1    0    0    0    0 -0.00000000000E+00 -0.00000000000E+00 -0.18168116047E+02  0.18168116047E+02  0.00000000000E+00 0. -1.
         13    1    1    2    0    0 -0.26877201152E+02 -0.52300263216E+01  0.18990048373E+02  0.33322218088E+02  0.10566000000E+00 0.  1.
        996    1    1    2    0    0  0.26877201152E+02  0.52300263216E+01  0.62841779762E+02  0.84845897961E+02  0.50000000000E+02 0.  0.
<mgrwt>
<rscale>  0 0.57006466E+02</rscale>
<asrwt>0</asrwt>
<pdfrwt beam="1">  1       13 0.10000000E+01 0.57006466E+02</pdfrwt>
<pdfrwt beam="2">  1       22 0.18168139E+00 0.57006466E+02</pdfrwt>
<totfact> 0.54516529E-01</totfact>
</mgrwt>
</event>
<event>
 4    1  0.2451537E+000  0.9049554E+02  0.7957747E-01  0.1301656E+00
         13   -1    0    0    0    0  0.00000000000E+00  0.00000000000E+00  0.99999944176E+02  0.99999999996E+02  0.10566000000E+00 0.  1.
         22   -1    0    0    0    0 -0.00000000000E+00 -0.00000000000E+00 -0.83841167237E+02  0.83841167237E+02  0.00000000000E+00 0. -1.
         13    1    1    2    0    0  0.74191855054E+02  0.13601917223E+02 -0.31289750696E+02  0.81660903565E+02  0.10566000000E+00 0. -1.
        996    1    1    2    0    0 -0.74191855054E+02 -0.13601917223E+02  0.47448527635E+02  0.10218026367E+03  0.50000000000E+02 0.  0.
<mgrwt>
<rscale>  0 0.90495544E+02</rscale>
<asrwt>0</asrwt>
<pdfrwt beam="1">  1       13 0.10000000E+01 0.90495544E+02</pdfrwt>
<pdfrwt beam="2">  1       22 0.83841172E+00 0.90495544E+02</pdfrwt>
<totfact> 0.21371951E-02</totfact>
</mgrwt>
</event>
<event>
 4    1  0.2451537E+000  0.5436175E+02  0.7957747E-01  0.1423142E+00
         13   -1    0    0    0    0  0.00000000000E+00  0.00000000000E+00  0.99999944182E+02  0.10000000000E+03  0.10566000000E+00 0. -1.
         22   -1    0    0    0    0 -0.00000000000E+00 -0.00000000000E+00 -0.16670074042E+02  0.16670074042E+02  0.00000000000E+00 0.  1.
         13    1    1    2    0    0 -0.20374596961E+02  0.63304912534E+01  0.60345706852E+01  0.22172652711E+02  0.10566000000E+00 0.  1.
        996    1    1    2    0    0  0.20374596961E+02 -0.63304912534E+01  0.77295299454E+02  0.94497421333E+02  0.50000000000E+02 0.  0.
<mgrwt>
<rscale>  0 0.54361745E+02</rscale>
<asrwt>0</asrwt>
<pdfrwt beam="1">  1       13 0.10000000E+01 0.54361745E+02</pdfrwt>
<pdfrwt beam="2">  1       22 0.16670097E+00 0.54361745E+02</pdfrwt>
<totfact> 0.63198079E-01</totfact>
</mgrwt>
</event>
<event>
 4    1  0.2451537E+000  0.5103802E+02  0.7957747E-01  0.1439822E+00
         13   -1    0    0    0    0  0.00000000000E+00  0.00000000000E+00  0.99999944175E+02  0.99999999995E+02  0.10566000000E+00 0. -1.
         22   -1    0    0    0    0 -0.00000000000E+00 -0.00000000000E+00 -0.43910596364E+02  0.43910596364E+02  0.00000000000E+00 0.  1.
         13    1    1    2    0    0  0.69288109844E+01  0.75412670846E+01 -0.36650351522E+02  0.38054415797E+02  0.10566000000E+00 0.  1.
        996    1    1    2    0    0 -0.69288109844E+01 -0.75412670846E+01  0.92739699333E+02  0.10585618056E+03  0.50000000000E+02 0.  0.
<mgrwt>
<rscale>  0 0.51038017E+02</rscale>
<asrwt>0</asrwt>
<pdfrwt beam="1">  1       13 0.10000000E+01 0.51038017E+02</pdfrwt>
<pdfrwt beam="2">  1       22 0.43910612E+00 0.51038017E+02</pdfrwt>
<totfact> 0.10211533E-01</totfact>
</mgrwt>
</event>
<event>
 4    1  0.2451537E+000  0.5182032E+02  0.7957747E-01  0.1435763E+00
         13   -1    0    0    0    0  0.00000000000E+00  0.00000000000E+00  0.99999944170E+02  0.99999999990E+02  0.10566000000E+00 0.  1.
         22   -1    0    0    0    0 -0.00000000000E+00 -0.00000000000E+00 -0.19739239356E+02  0.19739239356E+02  0.00000000000E+00 0. -1.
         13    1    1    2    0    0 -0.13236860128E+02  0.31828899476E+01 -0.91453406163E+01  0.16401026598E+02  0.10566000000E+00 0. -1.
        996    1    1    2    0    0  0.13236860128E+02 -0.31828899476E+01  0.89406045430E+02  0.10333821275E+03  0.50000000000E+02 0.  0.
<mgrwt>
<rscale>  0 0.51820317E+02</rscale>
<asrwt>0</asrwt>
<pdfrwt beam="1">  1       13 0.10000000E+01 0.51820317E+02</pdfrwt>
<pdfrwt beam="2">  1       22 0.19739262E+00 0.51820317E+02</pdfrwt>
<totfact> 0.46413001E-01</totfact>
</mgrwt>
</event>
<event>
 4    1  0.2451537E+000  0.5180228E+02  0.7957747E-01  0.1435856E+00
         13   -1    0    0    0    0  0.00000000000E+00  0.00000000000E+00  0.99999944179E+02  0.99999999999E+02  0.10566000000E+00 0. -1.
         22   -1    0    0    0    0 -0.00000000000E+00 -0.00000000000E+00 -0.13652821630E+02  0.13652821630E+02  0.00000000000E+00 0. -1.
         13    1    1    2    0    0  0.40372045739E+01  0.12929699790E+02  0.70682577762E+00  0.13564177975E+02  0.10566000000E+00 0.  1.
        996    1    1    2    0    0 -0.40372045739E+01 -0.12929699790E+02  0.85640296771E+02  0.10008864365E+03  0.50000000000E+02 0.  0.
<mgrwt>
<rscale>  0 0.51802279E+02</rscale>
<asrwt>0</asrwt>
<pdfrwt beam="1">  1       13 0.10000000E+01 0.51802279E+02</pdfrwt>
<pdfrwt beam="2">  1       22 0.13652846E+00 0.51802279E+02</pdfrwt>
<totfact> 0.87775907E-01</totfact>
</mgrwt>
</event>
<event>
 4    1  0.2451537E+000  0.5305038E+02  0.7957747E-01  0.1429550E+00
         13   -1    0    0    0    0  0.00000000000E+00  0.00000000000E+00  0.99999944177E+02  0.99999999997E+02  0.10566000000E+00 0.  1.
         22   -1    0    0    0    0 -0.00000000000E+00 -0.00000000000E+00 -0.17565824366E+02  0.17565824366E+02  0.00000000000E+00 0. -1.
         13    1    1    2    0    0  0.17689385550E+02  0.11949619693E+01 -0.20067238868E+01  0.17843217200E+02  0.10566000000E+00 0. -1.
        996    1    1    2    0    0 -0.17689385550E+02 -0.11949619693E+01  0.84440843697E+02  0.99722607164E+02  0.50000000000E+02 0.  0.
<mgrwt>
<rscale>  0 0.53050375E+02</rscale>
<asrwt>0</asrwt>
<pdfrwt beam="1">  1       13 0.10000000E+01 0.53050375E+02</pdfrwt>
<pdfrwt beam="2">  1       22 0.17565847E+00 0.53050375E+02</pdfrwt>
<totfact> 0.57500728E-01</totfact>
</mgrwt>
</event>
<event>
 4    1  0.2451537E+000  0.5316849E+02  0.7957747E-01  0.1428964E+00
         13   -1    0    0    0    0  0.00000000000E+00  0.00000000000E+00  0.99999944176E+02  0.99999999996E+02  0.10566000000E+00 0.  1.
         22   -1    0    0    0    0 -0.00000000000E+00 -0.00000000000E+00 -0.12859108438E+02  0.12859108438E+02  0.00000000000E+00 0.  1.
         13    1    1    2    0    0 -0.16269685646E+02  0.78858089515E+01  0.16766233045E+02  0.24657785554E+02  0.10566000000E+00 0. -1.
        996    1    1    2    0    0  0.16269685646E+02 -0.78858089515E+01  0.70374602692E+02  0.88201322881E+02  0.50000000000E+02 0.  0.
<mgrwt>
<rscale>  0 0.53168493E+02</rscale>
<asrwt>0</asrwt>
<pdfrwt beam="1">  1       13 0.10000000E+01 0.53168493E+02</pdfrwt>
<pdfrwt beam="2">  1       22 0.12859133E+00 0.53168493E+02</pdfrwt>
<totfact> 0.96809779E-01</totfact>
</mgrwt>
</event>
<event>
 4    1  0.2451537E+000  0.5105238E+02  0.7957747E-01  0.1439747E+00
         13   -1    0    0    0    0  0.00000000000E+00  0.00000000000E+00  0.99999944177E+02  0.99999999997E+02  0.10566000000E+00 0.  1.
         22   -1    0    0    0    0 -0.00000000000E+00 -0.00000000000E+00 -0.10140660078E+02  0.10140660078E+02  0.00000000000E+00 0.  1.
         13    1    1    2    0    0 -0.99730224204E+01 -0.26238295486E+01  0.59087927279E+01  0.11885733180E+02  0.10566000000E+00 0. -1.
        996    1    1    2    0    0  0.99730224204E+01  0.26238295486E+01  0.83950491370E+02  0.98254926895E+02  0.50000000000E+02 0.  0.
<mgrwt>
<rscale>  0 0.51052382E+02</rscale>
<asrwt>0</asrwt>
<pdfrwt beam="1">  1       13 0.10000000E+01 0.51052382E+02</pdfrwt>
<pdfrwt beam="2">  1       22 0.10140685E+00 0.51052382E+02</pdfrwt>
<totfact> 0.13783426E+00</totfact>
</mgrwt>
</event>
<event>
 4    1  0.2451537E+000  0.6241558E+02  0.7957747E-01  0.1387965E+00
         13   -1    0    0    0    0  0.00000000000E+00  0.00000000000E+00  0.99999944175E+02  0.99999999995E+02  0.10566000000E+00 0.  1.
         22   -1    0    0    0    0 -0.00000000000E+00 -0.00000000000E+00 -0.32799696045E+02  0.32799696045E+02  0.00000000000E+00 0. -1.
         13    1    1    2    0    0 -0.32833928087E+02 -0.17822390244E+02 -0.46246773396E+01  0.37644431622E+02  0.10566000000E+00 0. -1.
        996    1    1    2    0    0  0.32833928087E+02  0.17822390244E+02  0.71824925469E+02  0.95155264417E+02  0.50000000000E+02 0.  0.
<mgrwt>
<rscale>  0 0.62415578E+02</rscale>
<asrwt>0</asrwt>
<pdfrwt beam="1">  1       13 0.10000000E+01 0.62415578E+02</pdfrwt>
<pdfrwt beam="2">  1       22 0.32799715E+00 0.62415578E+02</pdfrwt>
<totfact> 0.17801412E-01</totfact>
</mgrwt>
</event>
<event>
 4    1  0.2451537E+000  0.5622015E+02  0.7957747E-01  0.1414415E+00
         13   -1    0    0    0    0  0.00000000000E+00  0.00000000000E+00  0.99999944177E+02  0.99999999998E+02  0.10566000000E+00 0. -1.
         22   -1    0    0    0    0 -0.00000000000E+00 -0.00000000000E+00 -0.54167338393E+02  0.54167338393E+02  0.00000000000E+00 0.  1.
         13    1    1    2    0    0 -0.25616550150E+02 -0.21207845123E+01 -0.42377991739E+02  0.49564208017E+02  0.10566000000E+00 0.  1.
        996    1    1    2    0    0  0.25616550150E+02  0.21207845123E+01  0.88210597523E+02  0.10460313037E+03  0.50000000000E+02 0.  0.
<mgrwt>
<rscale>  0 0.56220151E+02</rscale>
<asrwt>0</asrwt>
<pdfrwt beam="1">  1       13 0.10000000E+01 0.56220151E+02</pdfrwt>
<pdfrwt beam="2">  1       22 0.54167351E+00 0.56220151E+02</pdfrwt>
<totfact> 0.60374890E-02</totfact>
</mgrwt>
</event>
<event>
 4    1  0.2451537E+000  0.5527700E+02  0.7957747E-01  0.1418793E+00
         13   -1    0    0    0    0  0.00000000000E+00  0.00000000000E+00  0.99999944178E+02  0.99999999998E+02  0.10566000000E+00 0.  1.
         22   -1    0    0    0    0 -0.00000000000E+00 -0.00000000000E+00 -0.16130965425E+02  0.16130965425E+02  0.00000000000E+00 0. -1.
         13    1    1    2    0    0 -0.20737800109E+02 -0.11202268260E+02  0.15494554986E+02  0.28207083610E+02  0.10566000000E+00 0. -1.
        996    1    1    2    0    0  0.20737800109E+02  0.11202268260E+02  0.68374423767E+02  0.87923881813E+02  0.50000000000E+02 0.  0.
<mgrwt>
<rscale>  0 0.55277004E+02</rscale>
<asrwt>0</asrwt>
<pdfrwt beam="1">  1       13 0.10000000E+01 0.55277004E+02</pdfrwt>
<pdfrwt beam="2">  1       22 0.16130989E+00 0.55277004E+02</pdfrwt>
<totfact> 0.67008320E-01</totfact>
</mgrwt>
</event>
<event>
 4    1  0.2451537E+000  0.5201561E+02  0.7957747E-01  0.1434763E+00
         13   -1    0    0    0    0  0.00000000000E+00  0.00000000000E+00  0.99999944185E+02  0.10000000000E+03  0.10566000000E+00 0. -1.
         22   -1    0    0    0    0 -0.00000000000E+00 -0.00000000000E+00 -0.16546195964E+02  0.16546195964E+02  0.00000000000E+00 0. -1.
         13    1    1    2    0    0  0.14311907417E+02  0.89067727313E+00 -0.39158031789E+01  0.14865015253E+02  0.10566000000E+00 0.  1.
        996    1    1    2    0    0 -0.14311907417E+02 -0.89067727313E+00  0.87369551400E+02  0.10168118072E+03  0.50000000000E+02 0.  0.
<mgrwt>
<rscale>  0 0.52015613E+02</rscale>
<asrwt>0</asrwt>
<pdfrwt beam="1">  1       13 0.10000000E+01 0.52015613E+02</pdfrwt>
<pdfrwt beam="2">  1       22 0.16546219E+00 0.52015613E+02</pdfrwt>
<totfact> 0.63735729E-01</totfact>
</mgrwt>
</event>
<event>
 4    1  0.2451537E+000  0.5166369E+02  0.7957747E-01  0.1436569E+00
         13   -1    0    0    0    0  0.00000000000E+00  0.00000000000E+00  0.99999944175E+02  0.99999999995E+02  0.10566000000E+00 0. -1.
         22   -1    0    0    0    0 -0.00000000000E+00 -0.00000000000E+00 -0.13201062036E+02  0.13201062036E+02  0.00000000000E+00 0.  1.
         13    1    1    2    0    0  0.11838954141E+02 -0.53829505573E+01  0.99465815637E+00  0.13043676657E+02  0.10566000000E+00 0.  1.
        996    1    1    2    0    0 -0.11838954141E+02  0.53829505573E+01  0.85804223982E+02  0.10015738537E+03  0.50000000000E+02 0.  0.
<mgrwt>
<rscale>  0 0.51663691E+02</rscale>
<asrwt>0</asrwt>
<pdfrwt beam="1">  1       13 0.10000000E+01 0.51663691E+02</pdfrwt>
<pdfrwt beam="2">  1       22 0.13201086E+00 0.51663691E+02</pdfrwt>
<totfact> 0.92585061E-01</totfact>
</mgrwt>
</event>
<event>
 4    1  0.2451537E+000  0.5276939E+02  0.7957747E-01  0.1430952E+00
         13   -1    0    0    0    0  0.00000000000E+00  0.00000000000E+00  0.99999944182E+02  0.10000000000E+03  0.10566000000E+00 0.  1.
         22   -1    0    0    0    0 -0.00000000000E+00 -0.00000000000E+00 -0.12126179882E+02  0.12126179882E+02  0.00000000000E+00 0.  1.
         13    1    1    2    0    0  0.58754584773E+01  0.15814168436E+02  0.20697640276E+02  0.26702292274E+02  0.10566000000E+00 0. -1.
        996    1    1    2    0    0 -0.58754584773E+01 -0.15814168436E+02  0.67176124024E+02  0.85423887611E+02  0.50000000000E+02 0.  0.
<mgrwt>
<rscale>  0 0.52769394E+02</rscale>
<asrwt>0</asrwt>
<pdfrwt beam="1">  1       13 0.10000000E+01 0.52769394E+02</pdfrwt>
<pdfrwt beam="2">  1       22 0.12126204E+00 0.52769394E+02</pdfrwt>
<totfact> 0.10596216E+00</totfact>
</mgrwt>
</event>
<event>
 4    1  0.2451537E+000  0.5809859E+02  0.7957747E-01  0.1405989E+00
         13   -1    0    0    0    0  0.00000000000E+00  0.00000000000E+00  0.99999944179E+02  0.10000000000E+03  0.10566000000E+00 0. -1.
         22   -1    0    0    0    0 -0.00000000000E+00 -0.00000000000E+00 -0.19507107821E+02  0.19507107821E+02  0.00000000000E+00 0. -1.
         13    1    1    2    0    0 -0.26403651907E+02 -0.13352641220E+02  0.34184478590E+02  0.45211011956E+02  0.10566000000E+00 0.  1.
        996    1    1    2    0    0  0.26403651907E+02  0.13352641220E+02  0.46308357769E+02  0.74296095865E+02  0.50000000000E+02 0.  0.
<mgrwt>
<rscale>  0 0.58098587E+02</rscale>
<asrwt>0</asrwt>
<pdfrwt beam="1">  1       13 0.10000000E+01 0.58098587E+02</pdfrwt>
<pdfrwt beam="2">  1       22 0.19507130E+00 0.58098587E+02</pdfrwt>
<totfact> 0.47954746E-01</totfact>
</mgrwt>
</event>
<event>
 4    1  0.2451537E+000  0.5178874E+02  0.7957747E-01  0.1435926E+00
         13   -1    0    0    0    0  0.00000000000E+00  0.00000000000E+00  0.99999944180E+02  0.10000000000E+03  0.10566000000E+00 0. -1.
         22   -1    0    0    0    0 -0.00000000000E+00 -0.00000000000E+00 -0.10685575166E+02  0.10685575166E+02  0.00000000000E+00 0. -1.
         13    1    1    2    0    0 -0.71913382253E+01  0.11417461926E+02  0.20955127742E+02  0.24923930770E+02  0.10566000000E+00 0.  1.
        996    1    1    2    0    0  0.71913382253E+01 -0.11417461926E+02  0.68359241271E+02  0.85761644396E+02  0.50000000000E+02 0.  0.
<mgrwt>
<rscale>  0 0.51788742E+02</rscale>
<asrwt>0</asrwt>
<pdfrwt beam="1">  1       13 0.10000000E+01 0.51788742E+02</pdfrwt>
<pdfrwt beam="2">  1       22 0.10685600E+00 0.51788742E+02</pdfrwt>
<totfact> 0.12789070E+00</totfact>
</mgrwt>
</event>
<event>
 4    1  0.2451537E+000  0.5604049E+02  0.7957747E-01  0.1415241E+00
         13   -1    0    0    0    0  0.00000000000E+00  0.00000000000E+00  0.99999944177E+02  0.99999999998E+02  0.10566000000E+00 0.  1.
         22   -1    0    0    0    0 -0.00000000000E+00 -0.00000000000E+00 -0.45778905181E+02  0.45778905181E+02  0.00000000000E+00 0. -1.
         13    1    1    2    0    0  0.52088875192E+01 -0.24767000142E+02 -0.33316672787E+02  0.41839558493E+02  0.10566000000E+00 0. -1.
        996    1    1    2    0    0 -0.52088875192E+01  0.24767000142E+02  0.87537711783E+02  0.10393934669E+03  0.50000000000E+02 0.  0.
<mgrwt>
<rscale>  0 0.56040493E+02</rscale>
<asrwt>0</asrwt>
<pdfrwt beam="1">  1       13 0.10000000E+01 0.56040493E+02</pdfrwt>
<pdfrwt beam="2">  1       22 0.45778920E+00 0.56040493E+02</pdfrwt>
<totfact> 0.92957190E-02</totfact>
</mgrwt>
</event>
<event>
 4    1  0.2451537E+000  0.5205190E+02  0.7957747E-01  0.1434578E+00
         13   -1    0    0    0    0  0.00000000000E+00  0.00000000000E+00  0.99999944177E+02  0.99999999997E+02  0.10566000000E+00 0.  1.
         22   -1    0    0    0    0 -0.00000000000E+00 -0.00000000000E+00 -0.11494696080E+02  0.11494696080E+02  0.00000000000E+00 0.  1.
         13    1    1    2    0    0 -0.14391704907E+02 -0.15097047706E+01  0.29181347662E+02  0.32572420758E+02  0.10566000000E+00 0. -1.
        996    1    1    2    0    0  0.14391704907E+02  0.15097047706E+01  0.59323900436E+02  0.78922275319E+02  0.50000000000E+02 0.  0.
<mgrwt>
<rscale>  0 0.52051901E+02</rscale>
<asrwt>0</asrwt>
<pdfrwt beam="1">  1       13 0.10000000E+01 0.52051901E+02</pdfrwt>
<pdfrwt beam="2">  1       22 0.11494721E+00 0.52051901E+02</pdfrwt>
<totfact> 0.11476924E+00</totfact>
</mgrwt>
</event>
<event>
 4    1  0.2451537E+000  0.5732457E+02  0.7957747E-01  0.1409415E+00
         13   -1    0    0    0    0  0.00000000000E+00  0.00000000000E+00  0.99999944178E+02  0.99999999999E+02  0.10566000000E+00 0.  1.
         22   -1    0    0    0    0 -0.00000000000E+00 -0.00000000000E+00 -0.24523442926E+02  0.24523442926E+02  0.00000000000E+00 0. -1.
         13    1    1    2    0    0 -0.72923859338E+01  0.27072636124E+02 -0.20415966310E+01  0.28112022342E+02  0.10566000000E+00 0. -1.
        996    1    1    2    0    0  0.72923859338E+01 -0.27072636124E+02  0.77518097884E+02  0.96411420583E+02  0.50000000000E+02 0.  0.
<mgrwt>
<rscale>  0 0.57324572E+02</rscale>
<asrwt>0</asrwt>
<pdfrwt beam="1">  1       13 0.10000000E+01 0.57324572E+02</pdfrwt>
<pdfrwt beam="2">  1       22 0.24523464E+00 0.57324572E+02</pdfrwt>
<totfact> 0.30863206E-01</totfact>
</mgrwt>
</event>
<event>
 4    1  0.2451537E+000  0.5896778E+02  0.7957747E-01  0.1402215E+00
         13   -1    0    0    0    0  0.00000000000E+00  0.00000000000E+00  0.99999944178E+02  0.99999999999E+02  0.10566000000E+00 0. -1.
         22   -1    0    0    0    0 -0.00000000000E+00 -0.00000000000E+00 -0.71837512649E+02  0.71837512649E+02  0.00000000000E+00 0.  1.
         13    1    1    2    0    0  0.29687495694E+02 -0.97903936509E+01 -0.58902011884E+02  0.66683261591E+02  0.10566000000E+00 0.  1.
        996    1    1    2    0    0 -0.29687495694E+02  0.97903936509E+01  0.87064443413E+02  0.10515425106E+03  0.50000000000E+02 0.  0.
<mgrwt>
<rscale>  0 0.58967781E+02</rscale>
<asrwt>0</asrwt>
<pdfrwt beam="1">  1       13 0.10000000E+01 0.58967781E+02</pdfrwt>
<pdfrwt beam="2">  1       22 0.71837521E+00 0.58967781E+02</pdfrwt>
<totfact> 0.64913210E-02</totfact>
</mgrwt>
</event>
<event>
 4    1  0.2451537E+000  0.5146541E+02  0.7957747E-01  0.1437594E+00
         13   -1    0    0    0    0  0.00000000000E+00  0.00000000000E+00  0.99999944181E+02  0.10000000000E+03  0.10566000000E+00 0.  1.
         22   -1    0    0    0    0 -0.00000000000E+00 -0.00000000000E+00 -0.22175731953E+02  0.22175731953E+02  0.00000000000E+00 0.  1.
         13    1    1    2    0    0  0.11260200290E+02  0.46792959648E+01 -0.12974637691E+02  0.17805625755E+02  0.10566000000E+00 0. -1.
        996    1    1    2    0    0 -0.11260200290E+02 -0.46792959648E+01  0.90798849919E+02  0.10437010620E+03  0.50000000000E+02 0.  0.
<mgrwt>
<rscale>  0 0.51465405E+02</rscale>
<asrwt>0</asrwt>
<pdfrwt beam="1">  1       13 0.10000000E+01 0.51465405E+02</pdfrwt>
<pdfrwt beam="2">  1       22 0.22175754E+00 0.51465405E+02</pdfrwt>
<totfact> 0.37212332E-01</totfact>
</mgrwt>
</event>
<event>
 4    1  0.2451537E+000  0.5124230E+02  0.7957747E-01  0.1438754E+00
         13   -1    0    0    0    0  0.00000000000E+00  0.00000000000E+00  0.99999944180E+02  0.10000000000E+03  0.10566000000E+00 0.  1.
         22   -1    0    0    0    0 -0.00000000000E+00 -0.00000000000E+00 -0.13361192832E+02  0.13361192832E+02  0.00000000000E+00 0.  1.
         13    1    1    2    0    0  0.11207854350E+02 -0.39645806211E+00 -0.15938366891E+01  0.11328047385E+02  0.10566000000E+00 0. -1.
        996    1    1    2    0    0 -0.11207854350E+02  0.39645806211E+00  0.88232588037E+02  0.10203314545E+03  0.50000000000E+02 0.  0.
<mgrwt>
<rscale>  0 0.51242299E+02</rscale>
<asrwt>0</asrwt>
<pdfrwt beam="1">  1       13 0.10000000E+01 0.51242299E+02</pdfrwt>
<pdfrwt beam="2">  1       22 0.13361217E+00 0.51242299E+02</pdfrwt>
<totfact> 0.90746829E-01</totfact>
</mgrwt>
</event>
<event>
 4    1  0.2451537E+000  0.5348532E+02  0.7957747E-01  0.1427401E+00
         13   -1    0    0    0    0  0.00000000000E+00  0.00000000000E+00  0.99999944186E+02  0.10000000001E+03  0.10566000000E+00 0.  1.
         22   -1    0    0    0    0 -0.00000000000E+00 -0.00000000000E+00 -0.16442029588E+02  0.16442029588E+02  0.00000000000E+00 0. -1.
         13    1    1    2    0    0  0.83674341642E+01 -0.17048899570E+02  0.49538729226E+02  0.53054460589E+02  0.10566000000E+00 0. -1.
        996    1    1    2    0    0 -0.83674341642E+01  0.17048899570E+02  0.34019185372E+02  0.63387569005E+02  0.50000000000E+02 0.  0.
<mgrwt>
<rscale>  0 0.53485315E+02</rscale>
<asrwt>0</asrwt>
<pdfrwt beam="1">  1       13 0.10000000E+01 0.53485315E+02</pdfrwt>
<pdfrwt beam="2">  1       22 0.16442053E+00 0.53485315E+02</pdfrwt>
<totfact> 0.64619870E-01</totfact>
</mgrwt>
</event>
<event>
 4    1  0.2451537E+000  0.5339702E+02  0.7957747E-01  0.1427835E+00
         13   -1    0    0    0    0  0.00000000000E+00  0.00000000000E+00  0.99999944180E+02  0.10000000000E+03  0.10566000000E+00 0. -1.
         22   -1    0    0    0    0 -0.00000000000E+00 -0.00000000000E+00 -0.14254253686E+02  0.14254253686E+02  0.00000000000E+00 0. -1.
         13    1    1    2    0    0 -0.33126357886E+01  0.18446348943E+02  0.90789706977E+01  0.20824990232E+02  0.10566000000E+00 0.  1.
        996    1    1    2    0    0  0.33126357886E+01 -0.18446348943E+02  0.76666719797E+02  0.93429263454E+02  0.50000000000E+02 0.  0.
<mgrwt>
<rscale>  0 0.53397016E+02</rscale>
<asrwt>0</asrwt>
<pdfrwt beam="1">  1       13 0.10000000E+01 0.53397016E+02</pdfrwt>
<pdfrwt beam="2">  1       22 0.14254278E+00 0.53397016E+02</pdfrwt>
<totfact> 0.82130813E-01</totfact>
</mgrwt>
</event>
<event>
 4    1  0.2451537E+000  0.5166727E+02  0.7957747E-01  0.1436551E+00
         13   -1    0    0    0    0  0.00000000000E+00  0.00000000000E+00  0.99999944173E+02  0.99999999993E+02  0.10566000000E+00 0. -1.
         22   -1    0    0    0    0 -0.00000000000E+00 -0.00000000000E+00 -0.32243093391E+02  0.32243093391E+02  0.00000000000E+00 0.  1.
         13    1    1    2    0    0  0.11834372659E+02 -0.54271834707E+01 -0.23791579188E+02  0.27121155966E+02  0.10566000000E+00 0.  1.
        996    1    1    2    0    0 -0.11834372659E+02  0.54271834707E+01  0.91548429970E+02  0.10512193742E+03  0.50000000000E+02 0.  0.
<mgrwt>
<rscale>  0 0.51667269E+02</rscale>
<asrwt>0</asrwt>
<pdfrwt beam="1">  1       13 0.10000000E+01 0.51667269E+02</pdfrwt>
<pdfrwt beam="2">  1       22 0.32243112E+00 0.51667269E+02</pdfrwt>
<totfact> 0.18143589E-01</totfact>
</mgrwt>
</event>
<event>
 4    1  0.2451537E+000  0.5206267E+02  0.7957747E-01  0.1434523E+00
         13   -1    0    0    0    0  0.00000000000E+00  0.00000000000E+00  0.99999944175E+02  0.99999999995E+02  0.10566000000E+00 0.  1.
         22   -1    0    0    0    0 -0.00000000000E+00 -0.00000000000E+00 -0.18189798705E+02  0.18189798705E+02  0.00000000000E+00 0. -1.
         13    1    1    2    0    0  0.12283624045E+02 -0.77223052881E+01 -0.63231822835E+01  0.15827672503E+02  0.10566000000E+00 0. -1.
        996    1    1    2    0    0 -0.12283624045E+02  0.77223052881E+01  0.88133327754E+02  0.10236212620E+03  0.50000000000E+02 0.  0.
<mgrwt>
<rscale>  0 0.52062668E+02</rscale>
<asrwt>0</asrwt>
<pdfrwt beam="1">  1       13 0.10000000E+01 0.52062668E+02</pdfrwt>
<pdfrwt beam="2">  1       22 0.18189822E+00 0.52062668E+02</pdfrwt>
<totfact> 0.53921094E-01</totfact>
</mgrwt>
</event>
<event>
 4    1  0.2451537E+000  0.5284552E+02  0.7957747E-01  0.1430571E+00
         13   -1    0    0    0    0  0.00000000000E+00  0.00000000000E+00  0.99999944174E+02  0.99999999994E+02  0.10566000000E+00 0. -1.
         22   -1    0    0    0    0 -0.00000000000E+00 -0.00000000000E+00 -0.13185486986E+02  0.13185486986E+02  0.00000000000E+00 0.  1.
         13    1    1    2    0    0 -0.92166194336E+01  0.14411912290E+02  0.95941182900E+01  0.19613963379E+02  0.10566000000E+00 0.  1.
        996    1    1    2    0    0  0.92166194336E+01 -0.14411912290E+02  0.77220338898E+02  0.93571523601E+02  0.50000000000E+02 0.  0.
<mgrwt>
<rscale>  0 0.52845523E+02</rscale>
<asrwt>0</asrwt>
<pdfrwt beam="1">  1       13 0.10000000E+01 0.52845523E+02</pdfrwt>
<pdfrwt beam="2">  1       22 0.13185511E+00 0.52845523E+02</pdfrwt>
<totfact> 0.92993492E-01</totfact>
</mgrwt>
</event>
<event>
 4    1  0.2451537E+000  0.6182521E+02  0.7957747E-01  0.1390328E+00
         13   -1    0    0    0    0  0.00000000000E+00  0.00000000000E+00  0.99999944174E+02  0.99999999995E+02  0.10566000000E+00 0. -1.
         22   -1    0    0    0    0 -0.00000000000E+00 -0.00000000000E+00 -0.31714104478E+02  0.31714104478E+02  0.00000000000E+00 0.  1.
         13    1    1    2    0    0  0.29454332543E+02  0.21326014205E+02 -0.40132568383E+01  0.36585160679E+02  0.10566000000E+00 0.  1.
        996    1    1    2    0    0 -0.29454332543E+02 -0.21326014205E+02  0.72299096535E+02  0.95128943793E+02  0.50000000000E+02 0.  0.
<mgrwt>
<rscale>  0 0.61825210E+02</rscale>
<asrwt>0</asrwt>
<pdfrwt beam="1">  1       13 0.10000000E+01 0.61825210E+02</pdfrwt>
<pdfrwt beam="2">  1       22 0.31714124E+00 0.61825210E+02</pdfrwt>
<totfact> 0.18903205E-01</totfact>
</mgrwt>
</event>
<event>
 4    1  0.2451537E+000  0.5772836E+02  0.7957747E-01  0.1407620E+00
         13   -1    0    0    0    0  0.00000000000E+00  0.00000000000E+00  0.99999944179E+02  0.99999999999E+02  0.10566000000E+00 0. -1.
         22   -1    0    0    0    0 -0.00000000000E+00 -0.00000000000E+00 -0.80132156659E+02  0.80132156659E+02  0.00000000000E+00 0.  1.
         13    1    1    2    0    0 -0.18351780229E+02  0.22266028062E+02 -0.68642128056E+02  0.74460168891E+02  0.10566000000E+00 0.  1.
        996    1    1    2    0    0  0.18351780229E+02 -0.22266028062E+02  0.88509915577E+02  0.10567198777E+03  0.50000000000E+02 0.  0.
<mgrwt>
<rscale>  0 0.57728363E+02</rscale>
<asrwt>0</asrwt>
<pdfrwt beam="1">  1       13 0.10000000E+01 0.57728363E+02</pdfrwt>
<pdfrwt beam="2">  1       22 0.80132162E+00 0.57728363E+02</pdfrwt>
<totfact> 0.30506376E-02</totfact>
</mgrwt>
</event>
<event>
 4    1  0.2451537E+000  0.5219639E+02  0.7957747E-01  0.1433842E+00
         13   -1    0    0    0    0  0.00000000000E+00  0.00000000000E+00  0.99999944175E+02  0.99999999996E+02  0.10566000000E+00 0.  1.
         22   -1    0    0    0    0 -0.00000000000E+00 -0.00000000000E+00 -0.11474903029E+02  0.11474903029E+02  0.00000000000E+00 0.  1.
         13    1    1    2    0    0  0.13029517823E+02 -0.73956201787E+01  0.14122944159E+02  0.20589615059E+02  0.10566000000E+00 0. -1.
        996    1    1    2    0    0 -0.13029517823E+02  0.73956201787E+01  0.74402096988E+02  0.90885287966E+02  0.50000000000E+02 0.  0.
<mgrwt>
<rscale>  0 0.52196394E+02</rscale>
<asrwt>0</asrwt>
<pdfrwt beam="1">  1       13 0.10000000E+01 0.52196394E+02</pdfrwt>
<pdfrwt beam="2">  1       22 0.11474928E+00 0.52196394E+02</pdfrwt>
<totfact> 0.11510561E+00</totfact>
</mgrwt>
</event>
<event>
 4    1  0.2451537E+000  0.5254629E+02  0.7957747E-01  0.1432072E+00
         13   -1    0    0    0    0  0.00000000000E+00  0.00000000000E+00  0.99999944177E+02  0.99999999997E+02  0.10566000000E+00 0. -1.
         22   -1    0    0    0    0 -0.00000000000E+00 -0.00000000000E+00 -0.13506094071E+02  0.13506094071E+02  0.00000000000E+00 0. -1.
         13    1    1    2    0    0 -0.95090876981E+01  0.13064832185E+02  0.57143973571E+01  0.17139955953E+02  0.10566000000E+00 0.  1.
        996    1    1    2    0    0  0.95090876981E+01 -0.13064832185E+02  0.80779452749E+02  0.96366138115E+02  0.50000000000E+02 0.  0.
<mgrwt>
<rscale>  0 0.52546290E+02</rscale>
<asrwt>0</asrwt>
<pdfrwt beam="1">  1       13 0.10000000E+01 0.52546290E+02</pdfrwt>
<pdfrwt beam="2">  1       22 0.13506118E+00 0.52546290E+02</pdfrwt>
<totfact> 0.89448883E-01</totfact>
</mgrwt>
</event>
<event>
 4    1  0.2451537E+000  0.5316964E+02  0.7957747E-01  0.1428959E+00
         13   -1    0    0    0    0  0.00000000000E+00  0.00000000000E+00  0.99999944160E+02  0.99999999980E+02  0.10566000000E+00 0. -1.
         22   -1    0    0    0    0 -0.00000000000E+00 -0.00000000000E+00 -0.78929341014E+02  0.78929341014E+02  0.00000000000E+00 0.  1.
         13    1    1    2    0    0 -0.43762479464E+01 -0.17545899819E+02 -0.70641453338E+02  0.72919381788E+02  0.10566000000E+00 0.  1.
        996    1    1    2    0    0  0.43762479464E+01  0.17545899819E+02  0.91712056484E+02  0.10600995921E+03  0.50000000000E+02 0.  0.
<mgrwt>
<rscale>  0 0.53169636E+02</rscale>
<asrwt>0</asrwt>
<pdfrwt beam="1">  1       13 0.10000000E+01 0.53169636E+02</pdfrwt>
<pdfrwt beam="2">  1       22 0.78929347E+00 0.53169636E+02</pdfrwt>
<totfact> 0.34076836E-02</totfact>
</mgrwt>
</event>
<event>
 4    1  0.2451537E+000  0.5577642E+02  0.7957747E-01  0.1416462E+00
         13   -1    0    0    0    0  0.00000000000E+00  0.00000000000E+00  0.99999944183E+02  0.10000000000E+03  0.10566000000E+00 0. -1.
         22   -1    0    0    0    0 -0.00000000000E+00 -0.00000000000E+00 -0.21870790375E+02  0.21870790375E+02  0.00000000000E+00 0.  1.
         13    1    1    2    0    0 -0.20357581473E+02 -0.14020609249E+02 -0.13700752458E+01  0.24756754177E+02  0.10566000000E+00 0.  1.
        996    1    1    2    0    0  0.20357581473E+02  0.14020609249E+02  0.79499229054E+02  0.97114036201E+02  0.50000000000E+02 0.  0.
<mgrwt>
<rscale>  0 0.55776416E+02</rscale>
<asrwt>0</asrwt>
<pdfrwt beam="1">  1       13 0.10000000E+01 0.55776416E+02</pdfrwt>
<pdfrwt beam="2">  1       22 0.21870812E+00 0.55776416E+02</pdfrwt>
<totfact> 0.38490238E-01</totfact>
</mgrwt>
</event>
<event>
 4    1  0.2451537E+000  0.5457676E+02  0.7957747E-01  0.1422111E+00
         13   -1    0    0    0    0  0.00000000000E+00  0.00000000000E+00  0.99999944178E+02  0.99999999999E+02  0.10566000000E+00 0.  1.
         22   -1    0    0    0    0 -0.00000000000E+00 -0.00000000000E+00 -0.16351034039E+02  0.16351034039E+02  0.00000000000E+00 0. -1.
         13    1    1    2    0    0 -0.12702604834E+02  0.17811980838E+02  0.84911583005E+01  0.23467717492E+02  0.10566000000E+00 0. -1.
        996    1    1    2    0    0  0.12702604834E+02 -0.17811980838E+02  0.75157751839E+02  0.92883316545E+02  0.50000000000E+02 0.  0.
<mgrwt>
<rscale>  0 0.54576761E+02</rscale>
<asrwt>0</asrwt>
<pdfrwt beam="1">  1       13 0.10000000E+01 0.54576761E+02</pdfrwt>
<pdfrwt beam="2">  1       22 0.16351057E+00 0.54576761E+02</pdfrwt>
<totfact> 0.65377247E-01</totfact>
</mgrwt>
</event>
<event>
 4    1  0.2451537E+000  0.5358128E+02  0.7957747E-01  0.1426930E+00
         13   -1    0    0    0    0  0.00000000000E+00  0.00000000000E+00  0.99999944181E+02  0.10000000000E+03  0.10566000000E+00 0. -1.
         22   -1    0    0    0    0 -0.00000000000E+00 -0.00000000000E+00 -0.15982309994E+02  0.15982309994E+02  0.00000000000E+00 0.  1.
         13    1    1    2    0    0 -0.11871419206E+02  0.15166510562E+02  0.39833671074E+01  0.19668045509E+02  0.10566000000E+00 0.  1.
        996    1    1    2    0    0  0.11871419206E+02 -0.15166510562E+02  0.80034267079E+02  0.96314264486E+02  0.50000000000E+02 0.  0.
<mgrwt>
<rscale>  0 0.53581281E+02</rscale>
<asrwt>0</asrwt>
<pdfrwt beam="1">  1       13 0.10000000E+01 0.53581281E+02</pdfrwt>
<pdfrwt beam="2">  1       22 0.15982333E+00 0.53581281E+02</pdfrwt>
<totfact> 0.67862355E-01</totfact>
</mgrwt>
</event>
<event>
 4    1  0.2451537E+000  0.5217856E+02  0.7957747E-01  0.1433933E+00
         13   -1    0    0    0    0  0.00000000000E+00  0.00000000000E+00  0.99999944185E+02  0.10000000001E+03  0.10566000000E+00 0. -1.
         22   -1    0    0    0    0 -0.00000000000E+00 -0.00000000000E+00 -0.11439637089E+02  0.11439637089E+02  0.00000000000E+00 0. -1.
         13    1    1    2    0    0  0.14340000375E+02  0.41189803759E+01  0.25986938300E+02  0.29965542483E+02  0.10566000000E+00 0.  1.
        996    1    1    2    0    0 -0.14340000375E+02 -0.41189803759E+01  0.62573368797E+02  0.81474094611E+02  0.50000000000E+02 0.  0.
<mgrwt>
<rscale>  0 0.52178555E+02</rscale>
<asrwt>0</asrwt>
<pdfrwt beam="1">  1       13 0.10000000E+01 0.52178555E+02</pdfrwt>
<pdfrwt beam="2">  1       22 0.11439662E+00 0.52178555E+02</pdfrwt>
<totfact> 0.11563605E+00</totfact>
</mgrwt>
</event>
<event>
 4    1  0.2451537E+000  0.5142368E+02  0.7957747E-01  0.1437810E+00
         13   -1    0    0    0    0  0.00000000000E+00  0.00000000000E+00  0.99999944176E+02  0.99999999996E+02  0.10566000000E+00 0. -1.
         22   -1    0    0    0    0 -0.00000000000E+00 -0.00000000000E+00 -0.14457199304E+02  0.14457199304E+02  0.00000000000E+00 0. -1.
         13    1    1    2    0    0 -0.10741555490E+02 -0.53864043610E+01 -0.27070093971E+01  0.12318012429E+02  0.10566000000E+00 0.  1.
        996    1    1    2    0    0  0.10741555490E+02  0.53864043610E+01  0.88249754269E+02  0.10213918687E+03  0.50000000000E+02 0.  0.
<mgrwt>
<rscale>  0 0.51423675E+02</rscale>
<asrwt>0</asrwt>
<pdfrwt beam="1">  1       13 0.10000000E+01 0.51423675E+02</pdfrwt>
<pdfrwt beam="2">  1       22 0.14457223E+00 0.51423675E+02</pdfrwt>
<totfact> 0.79926027E-01</totfact>
</mgrwt>
</event>
<event>
 4    1  0.2451537E+000  0.5268989E+02  0.7957747E-01  0.1431350E+00
         13   -1    0    0    0    0  0.00000000000E+00  0.00000000000E+00  0.99999944178E+02  0.99999999999E+02  0.10566000000E+00 0.  1.
         22   -1    0    0    0    0 -0.00000000000E+00 -0.00000000000E+00 -0.12067398077E+02  0.12067398077E+02  0.00000000000E+00 0.  1.
         13    1    1    2    0    0 -0.17127338189E+01  0.16531530648E+02  0.24505235419E+02  0.29609841095E+02  0.10566000000E+00 0. -1.
        996    1    1    2    0    0  0.17127338189E+01 -0.16531530648E+02  0.63427310683E+02  0.82457556980E+02  0.50000000000E+02 0.  0.
<mgrwt>
<rscale>  0 0.52689894E+02</rscale>
<asrwt>0</asrwt>
<pdfrwt beam="1">  1       13 0.10000000E+01 0.52689894E+02</pdfrwt>
<pdfrwt beam="2">  1       22 0.12067423E+00 0.52689894E+02</pdfrwt>
<totfact> 0.10673773E+00</totfact>
</mgrwt>
</event>
<event>
 4    1  0.2451537E+000  0.5250994E+02  0.7957747E-01  0.1432255E+00
         13   -1    0    0    0    0  0.00000000000E+00  0.00000000000E+00  0.99999944183E+02  0.10000000000E+03  0.10566000000E+00 0. -1.
         22   -1    0    0    0    0 -0.00000000000E+00 -0.00000000000E+00 -0.12256100493E+02  0.12256100493E+02  0.00000000000E+00 0. -1.
         13    1    1    2    0    0 -0.16309230941E+01 -0.15957241759E+02  0.11743544714E+02  0.19880027192E+02  0.10566000000E+00 0.  1.
        996    1    1    2    0    0  0.16309230941E+01  0.15957241759E+02  0.76000298976E+02  0.92376073304E+02  0.50000000000E+02 0.  0.
<mgrwt>
<rscale>  0 0.52509937E+02</rscale>
<asrwt>0</asrwt>
<pdfrwt beam="1">  1       13 0.10000000E+01 0.52509937E+02</pdfrwt>
<pdfrwt beam="2">  1       22 0.12256125E+00 0.52509937E+02</pdfrwt>
<totfact> 0.10417729E+00</totfact>
</mgrwt>
</event>
<event>
 4    1  0.2451537E+000  0.6176366E+02  0.7957747E-01  0.1390576E+00
         13   -1    0    0    0    0  0.00000000000E+00  0.00000000000E+00  0.99999944174E+02  0.99999999994E+02  0.10566000000E+00 0. -1.
         22   -1    0    0    0    0 -0.00000000000E+00 -0.00000000000E+00 -0.78361833388E+02  0.78361833388E+02  0.00000000000E+00 0.  1.
         13    1    1    2    0    0 -0.35971829504E+02 -0.45581876103E+01 -0.63533733422E+02  0.73152553193E+02  0.10566000000E+00 0.  1.
        996    1    1    2    0    0  0.35971829504E+02  0.45581876103E+01  0.85171844207E+02  0.10520928019E+03  0.50000000000E+02 0.  0.
<mgrwt>
<rscale>  0 0.61763659E+02</rscale>
<asrwt>0</asrwt>
<pdfrwt beam="1">  1       13 0.10000000E+01 0.61763659E+02</pdfrwt>
<pdfrwt beam="2">  1       22 0.78361839E+00 0.61763659E+02</pdfrwt>
<totfact> 0.35885326E-02</totfact>
</mgrwt>
</event>
<event>
 4    1  0.2451537E+000  0.5317106E+02  0.7957747E-01  0.1428951E+00
         13   -1    0    0    0    0  0.00000000000E+00  0.00000000000E+00  0.99999944174E+02  0.99999999994E+02  0.10566000000E+00 0. -1.
         22   -1    0    0    0    0 -0.00000000000E+00 -0.00000000000E+00 -0.16421868790E+02  0.16421868790E+02  0.00000000000E+00 0.  1.
         13    1    1    2    0    0 -0.31610430977E+01 -0.17809255698E+02  0.88497741240E+00  0.18109559107E+02  0.10566000000E+00 0.  1.
        996    1    1    2    0    0  0.31610430977E+01  0.17809255698E+02  0.82693097972E+02  0.98312309678E+02  0.50000000000E+02 0.  0.
<mgrwt>
<rscale>  0 0.53171062E+02</rscale>
<asrwt>0</asrwt>
<pdfrwt beam="1">  1       13 0.10000000E+01 0.53171062E+02</pdfrwt>
<pdfrwt beam="2">  1       22 0.16421892E+00 0.53171062E+02</pdfrwt>
<totfact> 0.64718195E-01</totfact>
</mgrwt>
</event>
<event>
 4    1  0.2451537E+000  0.6598195E+02  0.7957747E-01  0.1374315E+00
         13   -1    0    0    0    0  0.00000000000E+00  0.00000000000E+00  0.99999944175E+02  0.99999999995E+02  0.10566000000E+00 0.  1.
         22   -1    0    0    0    0 -0.00000000000E+00 -0.00000000000E+00 -0.38287394822E+02  0.38287394822E+02  0.00000000000E+00 0. -1.
         13    1    1    2    0    0  0.57002433241E+01 -0.42674633760E+02 -0.63183384798E+01  0.43514936582E+02  0.10566000000E+00 0. -1.
        996    1    1    2    0    0 -0.57002433241E+01  0.42674633760E+02  0.68030887833E+02  0.94772458235E+02  0.50000000000E+02 0.  0.
<mgrwt>
<rscale>  0 0.65981946E+02</rscale>
<asrwt>0</asrwt>
<pdfrwt beam="1">  1       13 0.10000000E+01 0.65981946E+02</pdfrwt>
<pdfrwt beam="2">  1       22 0.38287412E+00 0.65981946E+02</pdfrwt>
<totfact> 0.13555047E-01</totfact>
</mgrwt>
</event>
<event>
 4    1  0.2451537E+000  0.5289311E+02  0.7957747E-01  0.1430334E+00
         13   -1    0    0    0    0  0.00000000000E+00  0.00000000000E+00  0.99999944179E+02  0.99999999999E+02  0.10566000000E+00 0. -1.
         22   -1    0    0    0    0 -0.00000000000E+00 -0.00000000000E+00 -0.64973441239E+02  0.64973441239E+02  0.00000000000E+00 0.  1.
         13    1    1    2    0    0  0.18364608412E+00 -0.17252460785E+02 -0.56602538091E+02  0.59173808492E+02  0.10566000000E+00 0.  1.
        996    1    1    2    0    0 -0.18364608412E+00  0.17252460785E+02  0.91629041031E+02  0.10579963275E+03  0.50000000000E+02 0.  0.
<mgrwt>
<rscale>  0 0.52893110E+02</rscale>
<asrwt>0</asrwt>
<pdfrwt beam="1">  1       13 0.10000000E+01 0.52893110E+02</pdfrwt>
<pdfrwt beam="2">  1       22 0.64973451E+00 0.52893110E+02</pdfrwt>
<totfact> 0.86323921E-02</totfact>
</mgrwt>
</event>
<event>
 4    1  0.2451537E+000  0.5210405E+02  0.7957747E-01  0.1434312E+00
         13   -1    0    0    0    0  0.00000000000E+00  0.00000000000E+00  0.99999944181E+02  0.10000000000E+03  0.10566000000E+00 0.  1.
         22   -1    0    0    0    0 -0.00000000000E+00 -0.00000000000E+00 -0.11242763448E+02  0.11242763448E+02  0.00000000000E+00 0. -1.
         13    1    1    2    0    0 -0.53642486942E+01  0.13640266884E+02  0.15356051843E+02  0.21228554755E+02  0.10566000000E+00 0. -1.
        996    1    1    2    0    0  0.53642486942E+01 -0.13640266884E+02  0.73401128889E+02  0.90014208695E+02  0.50000000000E+02 0.  0.
<mgrwt>
<rscale>  0 0.52104050E+02</rscale>
<asrwt>0</asrwt>
<pdfrwt beam="1">  1       13 0.10000000E+01 0.52104050E+02</pdfrwt>
<pdfrwt beam="2">  1       22 0.11242788E+00 0.52104050E+02</pdfrwt>
<totfact> 0.11867066E+00</totfact>
</mgrwt>
</event>
<event>
 4    1  0.2451537E+000  0.5162693E+02  0.7957747E-01  0.1436759E+00
         13   -1    0    0    0    0  0.00000000000E+00  0.00000000000E+00  0.99999944182E+02  0.10000000000E+03  0.10566000000E+00 0. -1.
         22   -1    0    0    0    0 -0.00000000000E+00 -0.00000000000E+00 -0.20274900200E+02  0.20274900200E+02  0.00000000000E+00 0.  1.
         13    1    1    2    0    0 -0.81255641951E+00  0.12832754757E+02 -0.10314436905E+02  0.16484496210E+02  0.10566000000E+00 0.  1.
        996    1    1    2    0    0  0.81255641951E+00 -0.12832754757E+02  0.90039480886E+02  0.10379040399E+03  0.50000000000E+02 0.  0.
<mgrwt>
<rscale>  0 0.51626929E+02</rscale>
<asrwt>0</asrwt>
<pdfrwt beam="1">  1       13 0.10000000E+01 0.51626929E+02</pdfrwt>
<pdfrwt beam="2">  1       22 0.20274922E+00 0.51626929E+02</pdfrwt>
<totfact> 0.44136474E-01</totfact>
</mgrwt>
</event>
<event>
 4    1  0.2451537E+000  0.5702607E+02  0.7957747E-01  0.1410753E+00
         13   -1    0    0    0    0  0.00000000000E+00  0.00000000000E+00  0.99999944181E+02  0.10000000000E+03  0.10566000000E+00 0. -1.
         22   -1    0    0    0    0 -0.00000000000E+00 -0.00000000000E+00 -0.27396599302E+02  0.27396599302E+02  0.00000000000E+00 0. -1.
         13    1    1    2    0    0 -0.23230194222E+02  0.14571567495E+02 -0.80863400845E+01  0.28589728275E+02  0.10566000000E+00 0.  1.
        996    1    1    2    0    0  0.23230194222E+02 -0.14571567495E+02  0.80689684964E+02  0.98806871028E+02  0.50000000000E+02 0.  0.
<mgrwt>
<rscale>  0 0.57026069E+02</rscale>
<asrwt>0</asrwt>
<pdfrwt beam="1">  1       13 0.10000000E+01 0.57026069E+02</pdfrwt>
<pdfrwt beam="2">  1       22 0.27396620E+00 0.57026069E+02</pdfrwt>
<totfact> 0.24803282E-01</totfact>
</mgrwt>
</event>
<event>
 4    1  0.2451537E+000  0.5754996E+02  0.7957747E-01  0.1408411E+00
         13   -1    0    0    0    0  0.00000000000E+00  0.00000000000E+00  0.99999944178E+02  0.99999999998E+02  0.10566000000E+00 0.  1.
         22   -1    0    0    0    0 -0.00000000000E+00 -0.00000000000E+00 -0.24384818355E+02  0.24384818355E+02  0.00000000000E+00 0. -1.
         13    1    1    2    0    0 -0.19737024602E+02  0.20553520030E+02 -0.10591244971E+01  0.28515438529E+02  0.10566000000E+00 0. -1.
        996    1    1    2    0    0  0.19737024602E+02 -0.20553520030E+02  0.76674250320E+02  0.95869379824E+02  0.50000000000E+02 0.  0.
<mgrwt>
<rscale>  0 0.57549955E+02</rscale>
<asrwt>0</asrwt>
<pdfrwt beam="1">  1       13 0.10000000E+01 0.57549955E+02</pdfrwt>
<pdfrwt beam="2">  1       22 0.24384839E+00 0.57549955E+02</pdfrwt>
<totfact> 0.31219739E-01</totfact>
</mgrwt>
</event>
<event>
 4    1  0.2451537E+000  0.5208024E+02  0.7957747E-01  0.1434434E+00
         13   -1    0    0    0    0  0.00000000000E+00  0.00000000000E+00  0.99999944182E+02  0.10000000000E+03  0.10566000000E+00 0.  1.
         22   -1    0    0    0    0 -0.00000000000E+00 -0.00000000000E+00 -0.14518700200E+02  0.14518700200E+02  0.00000000000E+00 0. -1.
         13    1    1    2    0    0  0.14116810939E+02 -0.36147952836E+01  0.17799868423E+00  0.14573741578E+02  0.10566000000E+00 0. -1.
        996    1    1    2    0    0 -0.14116810939E+02  0.36147952836E+01  0.85303245298E+02  0.99944958624E+02  0.50000000000E+02 0.  0.
<mgrwt>
<rscale>  0 0.52080237E+02</rscale>
<asrwt>0</asrwt>
<pdfrwt beam="1">  1       13 0.10000000E+01 0.52080237E+02</pdfrwt>
<pdfrwt beam="2">  1       22 0.14518724E+00 0.52080237E+02</pdfrwt>
<totfact> 0.79479455E-01</totfact>
</mgrwt>
</event>
<event>
 4    1  0.2451537E+000  0.5154163E+02  0.7957747E-01  0.1437199E+00
         13   -1    0    0    0    0  0.00000000000E+00  0.00000000000E+00  0.99999944179E+02  0.99999999999E+02  0.10566000000E+00 0. -1.
         22   -1    0    0    0    0 -0.00000000000E+00 -0.00000000000E+00 -0.17904925737E+02  0.17904925737E+02  0.00000000000E+00 0.  1.
         13    1    1    2    0    0  0.43581411906E+01 -0.11727998089E+02 -0.74672055539E+01  0.14570849551E+02  0.10566000000E+00 0.  1.
        996    1    1    2    0    0 -0.43581411906E+01  0.11727998089E+02  0.89562223996E+02  0.10333407618E+03  0.50000000000E+02 0.  0.
<mgrwt>
<rscale>  0 0.51541627E+02</rscale>
<asrwt>0</asrwt>
<pdfrwt beam="1">  1       13 0.10000000E+01 0.51541627E+02</pdfrwt>
<pdfrwt beam="2">  1       22 0.17904949E+00 0.51541627E+02</pdfrwt>
<totfact> 0.55415639E-01</totfact>
</mgrwt>
</event>
<event>
 4    1  0.2451537E+000  0.5132923E+02  0.7957747E-01  0.1438301E+00
         13   -1    0    0    0    0  0.00000000000E+00  0.00000000000E+00  0.99999944181E+02  0.10000000000E+03  0.10566000000E+00 0. -1.
         22   -1    0    0    0    0 -0.00000000000E+00 -0.00000000000E+00 -0.11690417418E+02  0.11690417418E+02  0.00000000000E+00 0. -1.
         13    1    1    2    0    0 -0.11483963386E+02 -0.16758710812E+01  0.38327513273E+02  0.40046215760E+02  0.10566000000E+00 0.  1.
        996    1    1    2    0    0  0.11483963386E+02  0.16758710812E+01  0.49982013489E+02  0.71644201659E+02  0.50000000000E+02 0.  0.
<mgrwt>
<rscale>  0 0.51329231E+02</rscale>
<asrwt>0</asrwt>
<pdfrwt beam="1">  1       13 0.10000000E+01 0.51329231E+02</pdfrwt>
<pdfrwt beam="2">  1       22 0.11690442E+00 0.51329231E+02</pdfrwt>
<totfact> 0.11169221E+00</totfact>
</mgrwt>
</event>
<event>
 4    1  0.2451537E+000  0.7212511E+02  0.7957747E-01  0.1353012E+00
         13   -1    0    0    0    0  0.00000000000E+00  0.00000000000E+00  0.99999944180E+02  0.10000000000E+03  0.10566000000E+00 0.  1.
         22   -1    0    0    0    0 -0.00000000000E+00 -0.00000000000E+00 -0.39370264869E+02  0.39370264869E+02  0.00000000000E+00 0. -1.
         13    1    1    2    0    0  0.16843527240E+02  0.49176485961E+02  0.15310989281E+02  0.54189193924E+02  0.10566000000E+00 0. -1.
        996    1    1    2    0    0 -0.16843527240E+02 -0.49176485961E+02  0.45318690030E+02  0.85181070945E+02  0.50000000000E+02 0.  0.
<mgrwt>
<rscale>  0 0.72125108E+02</rscale>
<asrwt>0</asrwt>
<pdfrwt beam="1">  1       13 0.10000000E+01 0.72125108E+02</pdfrwt>
<pdfrwt beam="2">  1       22 0.39370282E+00 0.72125108E+02</pdfrwt>
<totfact> 0.12919200E-01</totfact>
</mgrwt>
</event>
<event>
 4    1  0.2451537E+000  0.5114148E+02  0.7957747E-01  0.1439280E+00
         13   -1    0    0    0    0  0.00000000000E+00  0.00000000000E+00  0.99999944181E+02  0.10000000000E+03  0.10566000000E+00 0. -1.
         22   -1    0    0    0    0 -0.00000000000E+00 -0.00000000000E+00 -0.12540665374E+02  0.12540665374E+02  0.00000000000E+00 0. -1.
         13    1    1    2    0    0 -0.53239506900E+01  0.93331135377E+01 -0.54107638017E+00  0.10758967745E+02  0.10566000000E+00 0.  1.
        996    1    1    2    0    0  0.53239506900E+01 -0.93331135377E+01  0.88000355187E+02  0.10178169763E+03  0.50000000000E+02 0.  0.
<mgrwt>
<rscale>  0 0.51141485E+02</rscale>
<asrwt>0</asrwt>
<pdfrwt beam="1">  1       13 0.10000000E+01 0.51141485E+02</pdfrwt>
<pdfrwt beam="2">  1       22 0.12540690E+00 0.51141485E+02</pdfrwt>
<totfact> 0.10023430E+00</totfact>
</mgrwt>
</event>
<event>
 4    1  0.2451537E+000  0.5283299E+02  0.7957747E-01  0.1430634E+00
         13   -1    0    0    0    0  0.00000000000E+00  0.00000000000E+00  0.99999944180E+02  0.10000000000E+03  0.10566000000E+00 0.  1.
         22   -1    0    0    0    0 -0.00000000000E+00 -0.00000000000E+00 -0.12335970596E+02  0.12335970596E+02  0.00000000000E+00 0.  1.
         13    1    1    2    0    0 -0.71985463785E+00 -0.17053054143E+02  0.16848268176E+02  0.23983330688E+02  0.10566000000E+00 0. -1.
        996    1    1    2    0    0  0.71985463785E+00  0.17053054143E+02  0.70815705408E+02  0.88352639908E+02  0.50000000000E+02 0.  0.
<mgrwt>
<rscale>  0 0.52832990E+02</rscale>
<asrwt>0</asrwt>
<pdfrwt beam="1">  1       13 0.10000000E+01 0.52832990E+02</pdfrwt>
<pdfrwt beam="2">  1       22 0.12335995E+00 0.52832990E+02</pdfrwt>
<totfact> 0.10320961E+00</totfact>
</mgrwt>
</event>
<event>
 4    1  0.2451537E+000  0.5409449E+02  0.7957747E-01  0.1424430E+00
         13   -1    0    0    0    0  0.00000000000E+00  0.00000000000E+00  0.99999944180E+02  0.10000000000E+03  0.10566000000E+00 0. -1.
         22   -1    0    0    0    0 -0.00000000000E+00 -0.00000000000E+00 -0.14122480888E+02  0.14122480888E+02  0.00000000000E+00 0. -1.
         13    1    1    2    0    0 -0.11024546623E+02 -0.17454890352E+02  0.29331383721E+02  0.35868580408E+02  0.10566000000E+00 0.  1.
        996    1    1    2    0    0  0.11024546623E+02  0.17454890352E+02  0.56546079572E+02  0.78253900480E+02  0.50000000000E+02 0.  0.
<mgrwt>
<rscale>  0 0.54094490E+02</rscale>
<asrwt>0</asrwt>
<pdfrwt beam="1">  1       13 0.10000000E+01 0.54094490E+02</pdfrwt>
<pdfrwt beam="2">  1       22 0.14122505E+00 0.54094490E+02</pdfrwt>
<totfact> 0.83501348E-01</totfact>
</mgrwt>
</event>
<event>
 4    1  0.2451537E+000  0.5410656E+02  0.7957747E-01  0.1424372E+00
         13   -1    0    0    0    0  0.00000000000E+00  0.00000000000E+00  0.99999944184E+02  0.10000000000E+03  0.10566000000E+00 0. -1.
         22   -1    0    0    0    0 -0.00000000000E+00 -0.00000000000E+00 -0.14033054315E+02  0.14033054315E+02  0.00000000000E+00 0. -1.
         13    1    1    2    0    0 -0.10449468513E+02  0.17841748024E+02  0.20742632941E+02  0.29288006933E+02  0.10566000000E+00 0.  1.
        996    1    1    2    0    0  0.10449468513E+02 -0.17841748024E+02  0.65224256928E+02  0.84745047387E+02  0.50000000000E+02 0.  0.
<mgrwt>
<rscale>  0 0.54106556E+02</rscale>
<asrwt>0</asrwt>
<pdfrwt beam="1">  1       13 0.10000000E+01 0.54106556E+02</pdfrwt>
<pdfrwt beam="2">  1       22 0.14033078E+00 0.54106556E+02</pdfrwt>
<totfact> 0.84370255E-01</totfact>
</mgrwt>
</event>
<event>
 4    1  0.2451537E+000  0.5105073E+02  0.7957747E-01  0.1439755E+00
         13   -1    0    0    0    0  0.00000000000E+00  0.00000000000E+00  0.99999944176E+02  0.99999999996E+02  0.10566000000E+00 0.  1.
         22   -1    0    0    0    0 -0.00000000000E+00 -0.00000000000E+00 -0.50356409554E+02  0.50356409554E+02  0.00000000000E+00 0. -1.
         13    1    1    2    0    0 -0.40784216141E+01  0.94627620212E+01 -0.43195180885E+02  0.44407344029E+02  0.10566000000E+00 0. -1.
        996    1    1    2    0    0  0.40784216141E+01 -0.94627620212E+01  0.92838715507E+02  0.10594906552E+03  0.50000000000E+02 0.  0.
<mgrwt>
<rscale>  0 0.51050733E+02</rscale>
<asrwt>0</asrwt>
<pdfrwt beam="1">  1       13 0.10000000E+01 0.51050733E+02</pdfrwt>
<pdfrwt beam="2">  1       22 0.50356423E+00 0.51050733E+02</pdfrwt>
<totfact> 0.72161169E-02</totfact>
</mgrwt>
</event>
<event>
 4    1  0.2451537E+000  0.5654919E+02  0.7957747E-01  0.1412912E+00
         13   -1    0    0    0    0  0.00000000000E+00  0.00000000000E+00  0.99999944169E+02  0.99999999989E+02  0.10566000000E+00 0. -1.
         22   -1    0    0    0    0 -0.00000000000E+00 -0.00000000000E+00 -0.20850790957E+02  0.20850790957E+02  0.00000000000E+00 0. -1.
         13    1    1    2    0    0  0.20406742372E+02  0.16774263380E+02  0.38705679494E+01  0.26698380222E+02  0.10566000000E+00 0.  1.
        996    1    1    2    0    0 -0.20406742372E+02 -0.16774263380E+02  0.75278585262E+02  0.94152410725E+02  0.50000000000E+02 0.  0.
<mgrwt>
<rscale>  0 0.56549191E+02</rscale>
<asrwt>0</asrwt>
<pdfrwt beam="1">  1       13 0.10000000E+01 0.56549191E+02</pdfrwt>
<pdfrwt beam="2">  1       22 0.20850813E+00 0.56549191E+02</pdfrwt>
<totfact> 0.42218052E-01</totfact>
</mgrwt>
</event>
<event>
 4    1  0.2451537E+000  0.5425614E+02  0.7957747E-01  0.1423650E+00
         13   -1    0    0    0    0  0.00000000000E+00  0.00000000000E+00  0.99999944175E+02  0.99999999995E+02  0.10566000000E+00 0.  1.
         22   -1    0    0    0    0 -0.00000000000E+00 -0.00000000000E+00 -0.15906221792E+02  0.15906221792E+02  0.00000000000E+00 0. -1.
         13    1    1    2    0    0 -0.20997155571E+02 -0.16875666719E+01  0.81814795099E+01  0.22598145816E+02  0.10566000000E+00 0. -1.
        996    1    1    2    0    0  0.20997155571E+02  0.16875666719E+01  0.75912242873E+02  0.93308075970E+02  0.50000000000E+02 0.  0.
<mgrwt>
<rscale>  0 0.54256137E+02</rscale>
<asrwt>0</asrwt>
<pdfrwt beam="1">  1       13 0.10000000E+01 0.54256137E+02</pdfrwt>
<pdfrwt beam="2">  1       22 0.15906245E+00 0.54256137E+02</pdfrwt>
<totfact> 0.68506460E-01</totfact>
</mgrwt>
</event>
<event>
 4    1  0.2451537E+000  0.5247026E+02  0.7957747E-01  0.1432455E+00
         13   -1    0    0    0    0  0.00000000000E+00  0.00000000000E+00  0.99999944175E+02  0.99999999996E+02  0.10566000000E+00 0. -1.
         22   -1    0    0    0    0 -0.00000000000E+00 -0.00000000000E+00 -0.14565940248E+02  0.14565940248E+02  0.00000000000E+00 0. -1.
         13    1    1    2    0    0  0.20531297651E+01 -0.15776974496E+02  0.20431516300E+01  0.16041006786E+02  0.10566000000E+00 0.  1.
        996    1    1    2    0    0 -0.20531297651E+01  0.15776974496E+02  0.83390852297E+02  0.98524933458E+02  0.50000000000E+02 0.  0.
<mgrwt>
<rscale>  0 0.52470261E+02</rscale>
<asrwt>0</asrwt>
<pdfrwt beam="1">  1       13 0.10000000E+01 0.52470261E+02</pdfrwt>
<pdfrwt beam="2">  1       22 0.14565964E+00 0.52470261E+02</pdfrwt>
<totfact> 0.79119377E-01</totfact>
</mgrwt>
</event>
<event>
 4    1  0.2451537E+000  0.6081416E+02  0.7957747E-01  0.1394446E+00
         13   -1    0    0    0    0  0.00000000000E+00  0.00000000000E+00  0.99999944182E+02  0.10000000000E+03  0.10566000000E+00 0.  1.
         22   -1    0    0    0    0 -0.00000000000E+00 -0.00000000000E+00 -0.24566328685E+02  0.24566328685E+02  0.00000000000E+00 0.  1.
         13    1    1    2    0    0 -0.19445665213E+02 -0.28639627603E+02  0.11868913743E+02  0.36595688848E+02  0.10566000000E+00 0. -1.
        996    1    1    2    0    0  0.19445665213E+02  0.28639627603E+02  0.63564701754E+02  0.87970639840E+02  0.50000000000E+02 0.  0.
<mgrwt>
<rscale>  0 0.60814161E+02</rscale>
<asrwt>0</asrwt>
<pdfrwt beam="1">  1       13 0.10000000E+01 0.60814161E+02</pdfrwt>
<pdfrwt beam="2">  1       22 0.24566350E+00 0.60814161E+02</pdfrwt>
<totfact> 0.30906310E-01</totfact>
</mgrwt>
</event>
<event>
 4    1  0.2451537E+000  0.5268045E+02  0.7957747E-01  0.1431398E+00
         13   -1    0    0    0    0  0.00000000000E+00  0.00000000000E+00  0.99999944177E+02  0.99999999997E+02  0.10566000000E+00 0.  1.
         22   -1    0    0    0    0 -0.00000000000E+00 -0.00000000000E+00 -0.26848107072E+02  0.26848107072E+02  0.00000000000E+00 0. -1.
         13    1    1    2    0    0 -0.15215134242E+02  0.66128484892E+01 -0.16158093745E+02  0.23158696696E+02  0.10566000000E+00 0. -1.
        996    1    1    2    0    0  0.15215134242E+02 -0.66128484892E+01  0.89309930850E+02  0.10368941037E+03  0.50000000000E+02 0.  0.
<mgrwt>
<rscale>  0 0.52680452E+02</rscale>
<asrwt>0</asrwt>
<pdfrwt beam="1">  1       13 0.10000000E+01 0.52680452E+02</pdfrwt>
<pdfrwt beam="2">  1       22 0.26848128E+00 0.52680452E+02</pdfrwt>
<totfact> 0.25649353E-01</totfact>
</mgrwt>
</event>
<event>
 4    1  0.2451537E+000  0.5198241E+02  0.7957747E-01  0.1434933E+00
         13   -1    0    0    0    0  0.00000000000E+00  0.00000000000E+00  0.99999944178E+02  0.99999999998E+02  0.10566000000E+00 0.  1.
         22   -1    0    0    0    0 -0.00000000000E+00 -0.00000000000E+00 -0.11657406143E+02  0.11657406143E+02  0.00000000000E+00 0.  1.
         13    1    1    2    0    0 -0.13977673253E+02  0.26068883117E+01  0.31894504834E+02  0.34920507139E+02  0.10566000000E+00 0. -1.
        996    1    1    2    0    0  0.13977673253E+02 -0.26068883117E+01  0.56448033201E+02  0.76736899002E+02  0.50000000000E+02 0.  0.
<mgrwt>
<rscale>  0 0.51982413E+02</rscale>
<asrwt>0</asrwt>
<pdfrwt beam="1">  1       13 0.10000000E+01 0.51982413E+02</pdfrwt>
<pdfrwt beam="2">  1       22 0.11657431E+00 0.51982413E+02</pdfrwt>
<totfact> 0.11233866E+00</totfact>
</mgrwt>
</event>
<event>
 4    1  0.2451537E+000  0.5174697E+02  0.7957747E-01  0.1436140E+00
         13   -1    0    0    0    0  0.00000000000E+00  0.00000000000E+00  0.99999944173E+02  0.99999999994E+02  0.10566000000E+00 0. -1.
         22   -1    0    0    0    0 -0.00000000000E+00 -0.00000000000E+00 -0.34760363480E+02  0.34760363480E+02  0.00000000000E+00 0.  1.
         13    1    1    2    0    0  0.41991040011E+00  0.13325652001E+02 -0.26368349895E+02  0.29547425712E+02  0.10566000000E+00 0.  1.
        996    1    1    2    0    0 -0.41991040011E+00 -0.13325652001E+02  0.91607930588E+02  0.10521293776E+03  0.50000000000E+02 0.  0.
<mgrwt>
<rscale>  0 0.51746974E+02</rscale>
<asrwt>0</asrwt>
<pdfrwt beam="1">  1       13 0.10000000E+01 0.51746974E+02</pdfrwt>
<pdfrwt beam="2">  1       22 0.34760382E+00 0.51746974E+02</pdfrwt>
<totfact> 0.15899393E-01</totfact>
</mgrwt>
</event>
<event>
 4    1  0.2451537E+000  0.5198564E+02  0.7957747E-01  0.1434917E+00
         13   -1    0    0    0    0  0.00000000000E+00  0.00000000000E+00  0.99999944195E+02  0.10000000002E+03  0.10566000000E+00 0.  1.
         22   -1    0    0    0    0 -0.00000000000E+00 -0.00000000000E+00 -0.72572773569E+02  0.72572773569E+02  0.00000000000E+00 0. -1.
         13    1    1    2    0    0  0.59508452818E+01  0.12926503980E+02 -0.64994248122E+02  0.66533980173E+02  0.10566000000E+00 0. -1.
        996    1    1    2    0    0 -0.59508452818E+01 -0.12926503980E+02  0.92421418748E+02  0.10603879341E+03  0.50000000000E+02 0.  0.
<mgrwt>
<rscale>  0 0.51985643E+02</rscale>
<asrwt>0</asrwt>
<pdfrwt beam="1">  1       13 0.10000000E+01 0.51985643E+02</pdfrwt>
<pdfrwt beam="2">  1       22 0.72572781E+00 0.51985643E+02</pdfrwt>
<totfact> 0.60998862E-02</totfact>
</mgrwt>
</event>
<event>
 4    1  0.2451537E+000  0.5494603E+02  0.7957747E-01  0.1420354E+00
         13   -1    0    0    0    0  0.00000000000E+00  0.00000000000E+00  0.99999944178E+02  0.99999999998E+02  0.10566000000E+00 0. -1.
         22   -1    0    0    0    0 -0.00000000000E+00 -0.00000000000E+00 -0.22425647698E+02  0.22425647698E+02  0.00000000000E+00 0.  1.
         13    1    1    2    0    0  0.16853573173E+02  0.15330460064E+02 -0.49192527685E+01  0.23308284928E+02  0.10566000000E+00 0.  1.
        996    1    1    2    0    0 -0.16853573173E+02 -0.15330460064E+02  0.82493549248E+02  0.99117362768E+02  0.50000000000E+02 0.  0.
<mgrwt>
<rscale>  0 0.54946027E+02</rscale>
<asrwt>0</asrwt>
<pdfrwt beam="1">  1       13 0.10000000E+01 0.54946027E+02</pdfrwt>
<pdfrwt beam="2">  1       22 0.22425669E+00 0.54946027E+02</pdfrwt>
<totfact> 0.36625855E-01</totfact>
</mgrwt>
</event>
<event>
 4    1  0.2451537E+000  0.5218161E+02  0.7957747E-01  0.1433918E+00
         13   -1    0    0    0    0  0.00000000000E+00  0.00000000000E+00  0.99999944179E+02  0.10000000000E+03  0.10566000000E+00 0. -1.
         22   -1    0    0    0    0 -0.00000000000E+00 -0.00000000000E+00 -0.11260318767E+02  0.11260318767E+02  0.00000000000E+00 0. -1.
         13    1    1    2    0    0 -0.64797114270E+01 -0.13451167751E+02  0.19591003472E+02  0.24632075737E+02  0.10566000000E+00 0.  1.
        996    1    1    2    0    0  0.64797114270E+01  0.13451167751E+02  0.69148621940E+02  0.86628243029E+02  0.50000000000E+02 0.  0.
<mgrwt>
<rscale>  0 0.52181611E+02</rscale>
<asrwt>0</asrwt>
<pdfrwt beam="1">  1       13 0.10000000E+01 0.52181611E+02</pdfrwt>
<pdfrwt beam="2">  1       22 0.11260344E+00 0.52181611E+02</pdfrwt>
<totfact> 0.11841455E+00</totfact>
</mgrwt>
</event>
<event>
 4    1  0.2451537E+000  0.5115885E+02  0.7957747E-01  0.1439189E+00
         13   -1    0    0    0    0  0.00000000000E+00  0.00000000000E+00  0.99999944178E+02  0.99999999998E+02  0.10566000000E+00 0. -1.
         22   -1    0    0    0    0 -0.00000000000E+00 -0.00000000000E+00 -0.99496792997E+01  0.99496792997E+01  0.00000000000E+00 0.  1.
         13    1    1    2    0    0 -0.49659471753E+01 -0.96211941096E+01  0.88834489243E+01  0.14005528775E+02  0.10566000000E+00 0.  1.
        996    1    1    2    0    0  0.49659471753E+01  0.96211941096E+01  0.81166815954E+02  0.95944150523E+02  0.50000000000E+02 0.  0.
<mgrwt>
<rscale>  0 0.51158851E+02</rscale>
<asrwt>0</asrwt>
<pdfrwt beam="1">  1       13 0.10000000E+01 0.51158851E+02</pdfrwt>
<pdfrwt beam="2">  1       22 0.99497044E-01 0.51158851E+02</pdfrwt>
<totfact> 0.14172278E+00</totfact>
</mgrwt>
</event>
<event>
 4    1  0.2451537E+000  0.5118217E+02  0.7957747E-01  0.1439068E+00
         13   -1    0    0    0    0  0.00000000000E+00  0.00000000000E+00  0.99999944179E+02  0.99999999999E+02  0.10566000000E+00 0. -1.
         22   -1    0    0    0    0 -0.00000000000E+00 -0.00000000000E+00 -0.16198260928E+02  0.16198260928E+02  0.00000000000E+00 0. -1.
         13    1    1    2    0    0 -0.50623147952E+01  0.96947095794E+01 -0.62650910337E+01  0.12604640202E+02  0.10566000000E+00 0.  1.
        996    1    1    2    0    0  0.50623147952E+01 -0.96947095794E+01  0.90066774285E+02  0.10359362073E+03  0.50000000000E+02 0.  0.
<mgrwt>
<rscale>  0 0.51182169E+02</rscale>
<asrwt>0</asrwt>
<pdfrwt beam="1">  1       13 0.10000000E+01 0.51182169E+02</pdfrwt>
<pdfrwt beam="2">  1       22 0.16198284E+00 0.51182169E+02</pdfrwt>
<totfact> 0.66006710E-01</totfact>
</mgrwt>
</event>
<event>
 4    1  0.2451537E+000  0.5215796E+02  0.7957747E-01  0.1434038E+00
         13   -1    0    0    0    0  0.00000000000E+00  0.00000000000E+00  0.99999944168E+02  0.99999999988E+02  0.10566000000E+00 0.  1.
         22   -1    0    0    0    0 -0.00000000000E+00 -0.00000000000E+00 -0.19831065248E+02  0.19831065248E+02  0.00000000000E+00 0.  1.
         13    1    1    2    0    0  0.66261503957E+01 -0.13287111505E+02 -0.83896087588E+01  0.17054322044E+02  0.10566000000E+00 0. -1.
        996    1    1    2    0    0 -0.66261503957E+01  0.13287111505E+02  0.88558487679E+02  0.10277674319E+03  0.50000000000E+02 0.  0.
<mgrwt>
<rscale>  0 0.52157964E+02</rscale>
<asrwt>0</asrwt>
<pdfrwt beam="1">  1       13 0.10000000E+01 0.52157964E+02</pdfrwt>
<pdfrwt beam="2">  1       22 0.19831088E+00 0.52157964E+02</pdfrwt>
<totfact> 0.46042515E-01</totfact>
</mgrwt>
</event>
<event>
 4    1  0.2451537E+000  0.5407154E+02  0.7957747E-01  0.1424541E+00
         13   -1    0    0    0    0  0.00000000000E+00  0.00000000000E+00  0.99999944176E+02  0.99999999997E+02  0.10566000000E+00 0. -1.
         22   -1    0    0    0    0 -0.00000000000E+00 -0.00000000000E+00 -0.15611489440E+02  0.15611489440E+02  0.00000000000E+00 0.  1.
         13    1    1    2    0    0 -0.82718923526E+01 -0.18849595432E+02  0.81386865289E+01  0.22135510690E+02  0.10566000000E+00 0.  1.
        996    1    1    2    0    0  0.82718923526E+01  0.18849595432E+02  0.76249768207E+02  0.93475978747E+02  0.50000000000E+02 0.  0.
<mgrwt>
<rscale>  0 0.54071540E+02</rscale>
<asrwt>0</asrwt>
<pdfrwt beam="1">  1       13 0.10000000E+01 0.54071540E+02</pdfrwt>
<pdfrwt beam="2">  1       22 0.15611513E+00 0.54071540E+02</pdfrwt>
<totfact> 0.70695735E-01</totfact>
</mgrwt>
</event>
<event>
 4    1  0.2451537E+000  0.5310350E+02  0.7957747E-01  0.1429286E+00
         13   -1    0    0    0    0  0.00000000000E+00  0.00000000000E+00  0.99999944180E+02  0.10000000000E+03  0.10566000000E+00 0. -1.
         22   -1    0    0    0    0 -0.00000000000E+00 -0.00000000000E+00 -0.15588442343E+02  0.15588442343E+02  0.00000000000E+00 0. -1.
         13    1    1    2    0    0  0.95751881392E+01  0.15109505688E+02  0.26331324690E+01  0.18081093459E+02  0.10566000000E+00 0.  1.
        996    1    1    2    0    0 -0.95751881392E+01 -0.15109505688E+02  0.81778369368E+02  0.97507348885E+02  0.50000000000E+02 0.  0.
<mgrwt>
<rscale>  0 0.53103497E+02</rscale>
<asrwt>0</asrwt>
<pdfrwt beam="1">  1       13 0.10000000E+01 0.53103497E+02</pdfrwt>
<pdfrwt beam="2">  1       22 0.15588466E+00 0.53103497E+02</pdfrwt>
<totfact> 0.70739452E-01</totfact>
</mgrwt>
</event>
<event>
 4    1  0.2451537E+000  0.5186551E+02  0.7957747E-01  0.1435532E+00
         13   -1    0    0    0    0  0.00000000000E+00  0.00000000000E+00  0.99999944180E+02  0.10000000000E+03  0.10566000000E+00 0. -1.
         22   -1    0    0    0    0 -0.00000000000E+00 -0.00000000000E+00 -0.10809565402E+02  0.10809565402E+02  0.00000000000E+00 0. -1.
         13    1    1    2    0    0 -0.60502090786E+01 -0.12386529252E+02  0.21359807724E+02  0.25422110197E+02  0.10566000000E+00 0.  1.
        996    1    1    2    0    0  0.60502090786E+01  0.12386529252E+02  0.67830571054E+02  0.85387455204E+02  0.50000000000E+02 0.  0.
<mgrwt>
<rscale>  0 0.51865510E+02</rscale>
<asrwt>0</asrwt>
<pdfrwt beam="1">  1       13 0.10000000E+01 0.51865510E+02</pdfrwt>
<pdfrwt beam="2">  1       22 0.10809590E+00 0.51865510E+02</pdfrwt>
<totfact> 0.12575149E+00</totfact>
</mgrwt>
</event>
<event>
 4    1  0.2451537E+000  0.5145857E+02  0.7957747E-01  0.1437630E+00
         13   -1    0    0    0    0  0.00000000000E+00  0.00000000000E+00  0.99999944173E+02  0.99999999993E+02  0.10566000000E+00 0.  1.
         22   -1    0    0    0    0 -0.00000000000E+00 -0.00000000000E+00 -0.26607798638E+02  0.26607798638E+02  0.00000000000E+00 0. -1.
         13    1    1    2    0    0 -0.75618571176E+01  0.95290573559E+01 -0.17999425815E+02  0.21724988167E+02  0.10566000000E+00 0. -1.
        996    1    1    2    0    0  0.75618571176E+01 -0.95290573559E+01  0.91391571350E+02  0.10488281046E+03  0.50000000000E+02 0.  0.
<mgrwt>
<rscale>  0 0.51458572E+02</rscale>
<asrwt>0</asrwt>
<pdfrwt beam="1">  1       13 0.10000000E+01 0.51458572E+02</pdfrwt>
<pdfrwt beam="2">  1       22 0.26607819E+00 0.51458572E+02</pdfrwt>
<totfact> 0.26057760E-01</totfact>
</mgrwt>
</event>
<event>
 4    1  0.2451537E+000  0.5107106E+02  0.7957747E-01  0.1439649E+00
         13   -1    0    0    0    0  0.00000000000E+00  0.00000000000E+00  0.99999944177E+02  0.99999999997E+02  0.10566000000E+00 0.  1.
         22   -1    0    0    0    0 -0.00000000000E+00 -0.00000000000E+00 -0.10700783365E+02  0.10700783365E+02  0.00000000000E+00 0.  1.
         13    1    1    2    0    0 -0.10163666741E+02  0.22254775164E+01  0.33405609636E+02  0.34988552285E+02  0.10566000000E+00 0. -1.
        996    1    1    2    0    0  0.10163666741E+02 -0.22254775164E+01  0.55893551176E+02  0.75712231078E+02  0.50000000000E+02 0.  0.
<mgrwt>
<rscale>  0 0.51071057E+02</rscale>
<asrwt>0</asrwt>
<pdfrwt beam="1">  1       13 0.10000000E+01 0.51071057E+02</pdfrwt>
<pdfrwt beam="2">  1       22 0.10700808E+00 0.51071057E+02</pdfrwt>
<totfact> 0.12740644E+00</totfact>
</mgrwt>
</event>
<event>
 4    1  0.2451537E+000  0.6661230E+02  0.7957747E-01  0.1372007E+00
         13   -1    0    0    0    0  0.00000000000E+00  0.00000000000E+00  0.99999944183E+02  0.10000000000E+03  0.10566000000E+00 0. -1.
         22   -1    0    0    0    0 -0.00000000000E+00 -0.00000000000E+00 -0.79089050505E+02  0.79089050505E+02  0.00000000000E+00 0.  1.
         13    1    1    2    0    0 -0.18355711301E+02 -0.40003333035E+02 -0.59919600059E+02  0.74347618836E+02  0.10566000000E+00 0.  1.
        996    1    1    2    0    0  0.18355711301E+02  0.40003333035E+02  0.80830493737E+02  0.10474143167E+03  0.50000000000E+02 0.  0.
<mgrwt>
<rscale>  0 0.66612302E+02</rscale>
<asrwt>0</asrwt>
<pdfrwt beam="1">  1       13 0.10000000E+01 0.66612302E+02</pdfrwt>
<pdfrwt beam="2">  1       22 0.79089056E+00 0.66612302E+02</pdfrwt>
<totfact> 0.33566480E-02</totfact>
</mgrwt>
</event>
<event>
 4    1  0.2451537E+000  0.6012396E+02  0.7957747E-01  0.1397312E+00
         13   -1    0    0    0    0  0.00000000000E+00  0.00000000000E+00  0.99999944174E+02  0.99999999994E+02  0.10566000000E+00 0. -1.
         22   -1    0    0    0    0 -0.00000000000E+00 -0.00000000000E+00 -0.22063767645E+02  0.22063767645E+02  0.00000000000E+00 0. -1.
         13    1    1    2    0    0 -0.15725350795E+02 -0.29455119499E+02  0.22337365750E+02  0.40172873871E+02  0.10566000000E+00 0.  1.
        996    1    1    2    0    0  0.15725350795E+02  0.29455119499E+02  0.55598810778E+02  0.81890893769E+02  0.50000000000E+02 0.  0.
<mgrwt>
<rscale>  0 0.60123961E+02</rscale>
<asrwt>0</asrwt>
<pdfrwt beam="1">  1       13 0.10000000E+01 0.60123961E+02</pdfrwt>
<pdfrwt beam="2">  1       22 0.22063789E+00 0.60123961E+02</pdfrwt>
<totfact> 0.38094836E-01</totfact>
</mgrwt>
</event>
<event>
 4    1  0.2451537E+000  0.5194216E+02  0.7957747E-01  0.1435139E+00
         13   -1    0    0    0    0  0.00000000000E+00  0.00000000000E+00  0.99999944184E+02  0.10000000000E+03  0.10566000000E+00 0.  1.
         22   -1    0    0    0    0 -0.00000000000E+00 -0.00000000000E+00 -0.11332981586E+02  0.11332981586E+02  0.00000000000E+00 0.  1.
         13    1    1    2    0    0  0.88885877761E+01 -0.10907824613E+02  0.10829830704E+02  0.17756239116E+02  0.10566000000E+00 0. -1.
        996    1    1    2    0    0 -0.88885877761E+01  0.10907824613E+02  0.77837131895E+02  0.93576742474E+02  0.50000000000E+02 0.  0.
<mgrwt>
<rscale>  0 0.51942157E+02</rscale>
<asrwt>0</asrwt>
<pdfrwt beam="1">  1       13 0.10000000E+01 0.51942157E+02</pdfrwt>
<pdfrwt beam="2">  1       22 0.11333006E+00 0.51942157E+02</pdfrwt>
<totfact> 0.11721329E+00</totfact>
</mgrwt>
</event>
<event>
 4    1  0.2451537E+000  0.5109436E+02  0.7957747E-01  0.1439527E+00
         13   -1    0    0    0    0  0.00000000000E+00  0.00000000000E+00  0.99999944179E+02  0.99999999999E+02  0.10566000000E+00 0. -1.
         22   -1    0    0    0    0 -0.00000000000E+00 -0.00000000000E+00 -0.11703344795E+02  0.11703344795E+02  0.00000000000E+00 0. -1.
         13    1    1    2    0    0 -0.70473723086E+01 -0.78081883773E+01  0.10167830825E+01  0.10567794191E+02  0.10566000000E+00 0.  1.
        996    1    1    2    0    0  0.70473723086E+01  0.78081883773E+01  0.87279816301E+02  0.10113555060E+03  0.50000000000E+02 0.  0.
<mgrwt>
<rscale>  0 0.51094356E+02</rscale>
<asrwt>0</asrwt>
<pdfrwt beam="1">  1       13 0.10000000E+01 0.51094356E+02</pdfrwt>
<pdfrwt beam="2">  1       22 0.11703369E+00 0.51094356E+02</pdfrwt>
<totfact> 0.11144516E+00</totfact>
</mgrwt>
</event>
<event>
 4    1  0.2451537E+000  0.5449758E+02  0.7957747E-01  0.1422490E+00
         13   -1    0    0    0    0  0.00000000000E+00  0.00000000000E+00  0.99999944190E+02  0.10000000001E+03  0.10566000000E+00 0. -1.
         22   -1    0    0    0    0 -0.00000000000E+00 -0.00000000000E+00 -0.67328095442E+02  0.67328095442E+02  0.00000000000E+00 0.  1.
         13    1    1    2    0    0 -0.69210618088E+01 -0.20544715793E+02 -0.57787845431E+02  0.61720601805E+02  0.10566000000E+00 0.  1.
        996    1    1    2    0    0  0.69210618088E+01  0.20544715793E+02  0.90459694179E+02  0.10560749365E+03  0.50000000000E+02 0.  0.
<mgrwt>
<rscale>  0 0.54497582E+02</rscale>
<asrwt>0</asrwt>
<pdfrwt beam="1">  1       13 0.10000000E+01 0.54497582E+02</pdfrwt>
<pdfrwt beam="2">  1       22 0.67328105E+00 0.54497582E+02</pdfrwt>
<totfact> 0.85516327E-02</totfact>
</mgrwt>
</event>
<event>
 4    1  0.2451537E+000  0.5134958E+02  0.7957747E-01  0.1438195E+00
         13   -1    0    0    0    0  0.00000000000E+00  0.00000000000E+00  0.99999944188E+02  0.10000000001E+03  0.10566000000E+00 0. -1.
         22   -1    0    0    0    0 -0.00000000000E+00 -0.00000000000E+00 -0.20377552735E+02  0.20377552735E+02  0.00000000000E+00 0.  1.
         13    1    1    2    0    0 -0.76094911466E+01 -0.88811475990E+01 -0.11104191975E+02  0.16127410878E+02  0.10566000000E+00 0.  1.
        996    1    1    2    0    0  0.76094911466E+01  0.88811475990E+01  0.90726583428E+02  0.10425014186E+03  0.50000000000E+02 0.  0.
<mgrwt>
<rscale>  0 0.51349578E+02</rscale>
<asrwt>0</asrwt>
<pdfrwt beam="1">  1       13 0.10000000E+01 0.51349578E+02</pdfrwt>
<pdfrwt beam="2">  1       22 0.20377575E+00 0.51349578E+02</pdfrwt>
<totfact> 0.43698600E-01</totfact>
</mgrwt>
</event>
<event>
 4    1  0.2451537E+000  0.6034552E+02  0.7957747E-01  0.1396387E+00
         13   -1    0    0    0    0  0.00000000000E+00  0.00000000000E+00  0.99999944181E+02  0.10000000000E+03  0.10566000000E+00 0.  1.
         22   -1    0    0    0    0 -0.00000000000E+00 -0.00000000000E+00 -0.81499628842E+02  0.81499628842E+02  0.00000000000E+00 0. -1.
         13    1    1    2    0    0 -0.69984729095E+01  0.33054549309E+02 -0.68057283687E+02  0.75982806476E+02  0.10566000000E+00 0. -1.
        996    1    1    2    0    0  0.69984729095E+01 -0.33054549309E+02  0.86557599026E+02  0.10551682237E+03  0.50000000000E+02 0.  0.
<mgrwt>
<rscale>  0 0.60345521E+02</rscale>
<asrwt>0</asrwt>
<pdfrwt beam="1">  1       13 0.10000000E+01 0.60345521E+02</pdfrwt>
<pdfrwt beam="2">  1       22 0.81499634E+00 0.60345521E+02</pdfrwt>
<totfact> 0.26846479E-02</totfact>
</mgrwt>
</event>
<event>
 4    1  0.2451537E+000  0.5223359E+02  0.7957747E-01  0.1433653E+00
         13   -1    0    0    0    0  0.00000000000E+00  0.00000000000E+00  0.99999944180E+02  0.10000000000E+03  0.10566000000E+00 0. -1.
         22   -1    0    0    0    0 -0.00000000000E+00 -0.00000000000E+00 -0.11555557213E+02  0.11555557213E+02  0.00000000000E+00 0. -1.
         13    1    1    2    0    0  0.14935269568E+02  0.22990430244E+01  0.13898151182E+02  0.20530894920E+02  0.10566000000E+00 0.  1.
        996    1    1    2    0    0 -0.14935269568E+02 -0.22990430244E+01  0.74546235785E+02  0.91024662293E+02  0.50000000000E+02 0.  0.
<mgrwt>
<rscale>  0 0.52233590E+02</rscale>
<asrwt>0</asrwt>
<pdfrwt beam="1">  1       13 0.10000000E+01 0.52233590E+02</pdfrwt>
<pdfrwt beam="2">  1       22 0.11555582E+00 0.52233590E+02</pdfrwt>
<totfact> 0.11390478E+00</totfact>
</mgrwt>
</event>
<event>
 4    1  0.2451537E+000  0.5890217E+02  0.7957747E-01  0.1402497E+00
         13   -1    0    0    0    0  0.00000000000E+00  0.00000000000E+00  0.99999944179E+02  0.99999999999E+02  0.10566000000E+00 0.  1.
         22   -1    0    0    0    0 -0.00000000000E+00 -0.00000000000E+00 -0.25843983922E+02  0.25843983922E+02  0.00000000000E+00 0. -1.
         13    1    1    2    0    0 -0.18482097229E+01 -0.31081334129E+02 -0.64167796930E-02  0.31136416229E+02  0.10566000000E+00 0. -1.
        996    1    1    2    0    0  0.18482097229E+01  0.31081334129E+02  0.74162377036E+02  0.94707567692E+02  0.50000000000E+02 0.  0.
<mgrwt>
<rscale>  0 0.58902166E+02</rscale>
<asrwt>0</asrwt>
<pdfrwt beam="1">  1       13 0.10000000E+01 0.58902166E+02</pdfrwt>
<pdfrwt beam="2">  1       22 0.25844005E+00 0.58902166E+02</pdfrwt>
<totfact> 0.27888878E-01</totfact>
</mgrwt>
</event>
<event>
 4    1  0.2451537E+000  0.5241139E+02  0.7957747E-01  0.1432753E+00
         13   -1    0    0    0    0  0.00000000000E+00  0.00000000000E+00  0.99999944182E+02  0.10000000000E+03  0.10566000000E+00 0. -1.
         22   -1    0    0    0    0 -0.00000000000E+00 -0.00000000000E+00 -0.26236448199E+02  0.26236448199E+02  0.00000000000E+00 0.  1.
         13    1    1    2    0    0 -0.15666760419E+02  0.12275157235E+01 -0.15914435597E+02  0.22365925004E+02  0.10566000000E+00 0.  1.
        996    1    1    2    0    0  0.15666760419E+02 -0.12275157235E+01  0.89677931580E+02  0.10387052320E+03  0.50000000000E+02 0.  0.
<mgrwt>
<rscale>  0 0.52411394E+02</rscale>
<asrwt>0</asrwt>
<pdfrwt beam="1">  1       13 0.10000000E+01 0.52411394E+02</pdfrwt>
<pdfrwt beam="2">  1       22 0.26236469E+00 0.52411394E+02</pdfrwt>
<totfact> 0.26825122E-01</totfact>
</mgrwt>
</event>
<event>
 4    1  0.2451537E+000  0.5677468E+02  0.7957747E-01  0.1411888E+00
         13   -1    0    0    0    0  0.00000000000E+00  0.00000000000E+00  0.99999944172E+02  0.99999999992E+02  0.10566000000E+00 0. -1.
         22   -1    0    0    0    0 -0.00000000000E+00 -0.00000000000E+00 -0.28631869701E+02  0.28631869701E+02  0.00000000000E+00 0.  1.
         13    1    1    2    0    0  0.10778683802E+02  0.24641109451E+02 -0.10610557817E+02  0.28912962503E+02  0.10566000000E+00 0.  1.
        996    1    1    2    0    0 -0.10778683802E+02 -0.24641109451E+02  0.81978632287E+02  0.99718907190E+02  0.50000000000E+02 0.  0.
<mgrwt>
<rscale>  0 0.56774680E+02</rscale>
<asrwt>0</asrwt>
<pdfrwt beam="1">  1       13 0.10000000E+01 0.56774680E+02</pdfrwt>
<pdfrwt beam="2">  1       22 0.28631890E+00 0.56774680E+02</pdfrwt>
<totfact> 0.22761084E-01</totfact>
</mgrwt>
</event>
<event>
 4    1  0.2451537E+000  0.5386635E+02  0.7957747E-01  0.1425537E+00
         13   -1    0    0    0    0  0.00000000000E+00  0.00000000000E+00  0.99999944169E+02  0.99999999989E+02  0.10566000000E+00 0.  1.
         22   -1    0    0    0    0 -0.00000000000E+00 -0.00000000000E+00 -0.73589466877E+02  0.73589466877E+02  0.00000000000E+00 0. -1.
         13    1    1    2    0    0 -0.13263066481E+02  0.15022461293E+02 -0.64707819338E+02  0.67739916765E+02  0.10566000000E+00 0. -1.
        996    1    1    2    0    0  0.13263066481E+02 -0.15022461293E+02  0.91118296630E+02  0.10584955010E+03  0.50000000000E+02 0.  0.
<mgrwt>
<rscale>  0 0.53866346E+02</rscale>
<asrwt>0</asrwt>
<pdfrwt beam="1">  1       13 0.10000000E+01 0.53866346E+02</pdfrwt>
<pdfrwt beam="2">  1       22 0.73589474E+00 0.53866346E+02</pdfrwt>
<totfact> 0.55768063E-02</totfact>
</mgrwt>
</event>
<event>
 4    1  0.2451537E+000  0.5261678E+02  0.7957747E-01  0.1431718E+00
         13   -1    0    0    0    0  0.00000000000E+00  0.00000000000E+00  0.99999944183E+02  0.10000000000E+03  0.10566000000E+00 0.  1.
         22   -1    0    0    0    0 -0.00000000000E+00 -0.00000000000E+00 -0.38843655566E+02  0.38843655566E+02  0.00000000000E+00 0. -1.
         13    1    1    2    0    0  0.87161640650E+01 -0.13876371958E+02 -0.29660038042E+02  0.33885900245E+02  0.10566000000E+00 0. -1.
        996    1    1    2    0    0 -0.87161640650E+01  0.13876371958E+02  0.90816326659E+02  0.10495775532E+03  0.50000000000E+02 0.  0.
<mgrwt>
<rscale>  0 0.52616777E+02</rscale>
<asrwt>0</asrwt>
<pdfrwt beam="1">  1       13 0.10000000E+01 0.52616777E+02</pdfrwt>
<pdfrwt beam="2">  1       22 0.38843673E+00 0.52616777E+02</pdfrwt>
<totfact> 0.13069803E-01</totfact>
</mgrwt>
</event>
<event>
 4    1  0.2451537E+000  0.5908627E+02  0.7957747E-01  0.1401707E+00
         13   -1    0    0    0    0  0.00000000000E+00  0.00000000000E+00  0.99999944184E+02  0.10000000000E+03  0.10566000000E+00 0. -1.
         22   -1    0    0    0    0 -0.00000000000E+00 -0.00000000000E+00 -0.30181918121E+02  0.30181918121E+02  0.00000000000E+00 0.  1.
         13    1    1    2    0    0 -0.16971853738E+01  0.31437347431E+02 -0.79906067399E+01  0.32481505688E+02  0.10566000000E+00 0.  1.
        996    1    1    2    0    0  0.16971853738E+01 -0.31437347431E+02  0.77808632803E+02  0.97700412437E+02  0.50000000000E+02 0.  0.
<mgrwt>
<rscale>  0 0.59086270E+02</rscale>
<asrwt>0</asrwt>
<pdfrwt beam="1">  1       13 0.10000000E+01 0.59086270E+02</pdfrwt>
<pdfrwt beam="2">  1       22 0.30181938E+00 0.59086270E+02</pdfrwt>
<totfact> 0.20648794E-01</totfact>
</mgrwt>
</event>
<event>
 4    1  0.2451537E+000  0.5336900E+02  0.7957747E-01  0.1427973E+00
         13   -1    0    0    0    0  0.00000000000E+00  0.00000000000E+00  0.99999944181E+02  0.10000000000E+03  0.10566000000E+00 0.  1.
         22   -1    0    0    0    0 -0.00000000000E+00 -0.00000000000E+00 -0.35198717540E+02  0.35198717540E+02  0.00000000000E+00 0. -1.
         13    1    1    2    0    0 -0.17158799356E+02  0.73366221442E+01 -0.24721896734E+02  0.30974727795E+02  0.10566000000E+00 0. -1.
        996    1    1    2    0    0  0.17158799356E+02 -0.73366221442E+01  0.89523123375E+02  0.10422398975E+03  0.50000000000E+02 0.  0.
<mgrwt>
<rscale>  0 0.53369002E+02</rscale>
<asrwt>0</asrwt>
<pdfrwt beam="1">  1       13 0.10000000E+01 0.53369002E+02</pdfrwt>
<pdfrwt beam="2">  1       22 0.35198736E+00 0.53369002E+02</pdfrwt>
<totfact> 0.15581648E-01</totfact>
</mgrwt>
</event>
<event>
 4    1  0.2451537E+000  0.5102695E+02  0.7957747E-01  0.1439880E+00
         13   -1    0    0    0    0  0.00000000000E+00  0.00000000000E+00  0.99999944178E+02  0.99999999998E+02  0.10566000000E+00 0. -1.
         22   -1    0    0    0    0 -0.00000000000E+00 -0.00000000000E+00 -0.15256731358E+02  0.15256731358E+02  0.00000000000E+00 0. -1.
         13    1    1    2    0    0 -0.53812326097E+01 -0.86482205717E+01 -0.55073337221E+01  0.11579778591E+02  0.10566000000E+00 0.  1.
        996    1    1    2    0    0  0.53812326097E+01  0.86482205717E+01  0.90250546542E+02  0.10367695276E+03  0.50000000000E+02 0.  0.
<mgrwt>
<rscale>  0 0.51026948E+02</rscale>
<asrwt>0</asrwt>
<pdfrwt beam="1">  1       13 0.10000000E+01 0.51026948E+02</pdfrwt>
<pdfrwt beam="2">  1       22 0.15256755E+00 0.51026948E+02</pdfrwt>
<totfact> 0.73041835E-01</totfact>
</mgrwt>
</event>
<event>
 4    1  0.2451537E+000  0.5788409E+02  0.7957747E-01  0.1406932E+00
         13   -1    0    0    0    0  0.00000000000E+00  0.00000000000E+00  0.99999944182E+02  0.10000000000E+03  0.10566000000E+00 0.  1.
         22   -1    0    0    0    0 -0.00000000000E+00 -0.00000000000E+00 -0.35566010996E+02  0.35566010996E+02  0.00000000000E+00 0. -1.
         13    1    1    2    0    0 -0.28479312515E+02  0.62846136002E+01 -0.18420346705E+02  0.34494752444E+02  0.10566000000E+00 0. -1.
        996    1    1    2    0    0  0.28479312515E+02 -0.62846136002E+01  0.82854279891E+02  0.10107125855E+03  0.50000000000E+02 0.  0.
<mgrwt>
<rscale>  0 0.57884088E+02</rscale>
<asrwt>0</asrwt>
<pdfrwt beam="1">  1       13 0.10000000E+01 0.57884088E+02</pdfrwt>
<pdfrwt beam="2">  1       22 0.35566029E+00 0.57884088E+02</pdfrwt>
<totfact> 0.15366781E-01</totfact>
</mgrwt>
</event>
<event>
 4    1  0.2451537E+000  0.5121727E+02  0.7957747E-01  0.1438884E+00
         13   -1    0    0    0    0  0.00000000000E+00  0.00000000000E+00  0.99999944180E+02  0.10000000000E+03  0.10566000000E+00 0.  1.
         22   -1    0    0    0    0 -0.00000000000E+00 -0.00000000000E+00 -0.11354114210E+02  0.11354114210E+02  0.00000000000E+00 0.  1.
         13    1    1    2    0    0 -0.39450153276E+00 -0.11092944664E+02  0.28944128571E+01  0.11471610288E+02  0.10566000000E+00 0. -1.
        996    1    1    2    0    0  0.39450153276E+00  0.11092944664E+02  0.85751417113E+02  0.99882503921E+02  0.50000000000E+02 0.  0.
<mgrwt>
<rscale>  0 0.51217273E+02</rscale>
<asrwt>0</asrwt>
<pdfrwt beam="1">  1       13 0.10000000E+01 0.51217273E+02</pdfrwt>
<pdfrwt beam="2">  1       22 0.11354139E+00 0.51217273E+02</pdfrwt>
<totfact> 0.11669086E+00</totfact>
</mgrwt>
</event>
<event>
 4    1  0.2451537E+000  0.5154151E+02  0.7957747E-01  0.1437200E+00
         13   -1    0    0    0    0  0.00000000000E+00  0.00000000000E+00  0.99999944176E+02  0.99999999996E+02  0.10566000000E+00 0.  1.
         22   -1    0    0    0    0 -0.00000000000E+00 -0.00000000000E+00 -0.14722023859E+02  0.14722023859E+02  0.00000000000E+00 0. -1.
         13    1    1    2    0    0 -0.10528262324E+02 -0.67589528387E+01 -0.26613263666E+01  0.12791464854E+02  0.10566000000E+00 0. -1.
        996    1    1    2    0    0  0.10528262324E+02  0.67589528387E+01  0.87939246683E+02  0.10193055900E+03  0.50000000000E+02 0.  0.
<mgrwt>
<rscale>  0 0.51541515E+02</rscale>
<asrwt>0</asrwt>
<pdfrwt beam="1">  1       13 0.10000000E+01 0.51541515E+02</pdfrwt>
<pdfrwt beam="2">  1       22 0.14722048E+00 0.51541515E+02</pdfrwt>
<totfact> 0.77591804E-01</totfact>
</mgrwt>
</event>
<event>
 4    1  0.2451537E+000  0.5542272E+02  0.7957747E-01  0.1418110E+00
         13   -1    0    0    0    0  0.00000000000E+00  0.00000000000E+00  0.99999944186E+02  0.10000000001E+03  0.10566000000E+00 0. -1.
         22   -1    0    0    0    0 -0.00000000000E+00 -0.00000000000E+00 -0.27026216030E+02  0.27026216030E+02  0.00000000000E+00 0. -1.
         13    1    1    2    0    0 -0.14719644465E+02  0.18841696890E+02 -0.11074015289E+02  0.26349999118E+02  0.10566000000E+00 0.  1.
        996    1    1    2    0    0  0.14719644465E+02 -0.18841696890E+02  0.84047743444E+02  0.10067621692E+03  0.50000000000E+02 0.  0.
<mgrwt>
<rscale>  0 0.55422716E+02</rscale>
<asrwt>0</asrwt>
<pdfrwt beam="1">  1       13 0.10000000E+01 0.55422716E+02</pdfrwt>
<pdfrwt beam="2">  1       22 0.27026236E+00 0.55422716E+02</pdfrwt>
<totfact> 0.25417973E-01</totfact>
</mgrwt>
</event>
<event>
 4    1  0.2451537E+000  0.5206025E+02  0.7957747E-01  0.1434536E+00
         13   -1    0    0    0    0  0.00000000000E+00  0.00000000000E+00  0.99999944172E+02  0.99999999992E+02  0.10566000000E+00 0. -1.
         22   -1    0    0    0    0 -0.00000000000E+00 -0.00000000000E+00 -0.14397299398E+02  0.14397299398E+02  0.00000000000E+00 0.  1.
         13    1    1    2    0    0  0.24471549487E+01  0.14292697550E+02  0.34921328585E+00  0.14505270924E+02  0.10566000000E+00 0.  1.
        996    1    1    2    0    0 -0.24471549487E+01 -0.14292697550E+02  0.85253431488E+02  0.99892028466E+02  0.50000000000E+02 0.  0.
<mgrwt>
<rscale>  0 0.52060251E+02</rscale>
<asrwt>0</asrwt>
<pdfrwt beam="1">  1       13 0.10000000E+01 0.52060251E+02</pdfrwt>
<pdfrwt beam="2">  1       22 0.14397323E+00 0.52060251E+02</pdfrwt>
<totfact> 0.80578915E-01</totfact>
</mgrwt>
</event>
<event>
 4    1  0.2451537E+000  0.6015004E+02  0.7957747E-01  0.1397203E+00
         13   -1    0    0    0    0  0.00000000000E+00  0.00000000000E+00  0.99999944182E+02  0.10000000000E+03  0.10566000000E+00 0. -1.
         22   -1    0    0    0    0 -0.00000000000E+00 -0.00000000000E+00 -0.22922455125E+02  0.22922455125E+02  0.00000000000E+00 0. -1.
         13    1    1    2    0    0  0.21774326065E+02 -0.25375295306E+02  0.15543448078E+02  0.36873253581E+02  0.10566000000E+00 0.  1.
        996    1    1    2    0    0 -0.21774326065E+02  0.25375295306E+02  0.61534040979E+02  0.86049201546E+02  0.50000000000E+02 0.  0.
<mgrwt>
<rscale>  0 0.60150036E+02</rscale>
<asrwt>0</asrwt>
<pdfrwt beam="1">  1       13 0.10000000E+01 0.60150036E+02</pdfrwt>
<pdfrwt beam="2">  1       22 0.22922477E+00 0.60150036E+02</pdfrwt>
<totfact> 0.35375136E-01</totfact>
</mgrwt>
</event>
<event>
 4    1  0.2451537E+000  0.5289447E+02  0.7957747E-01  0.1430327E+00
         13   -1    0    0    0    0  0.00000000000E+00  0.00000000000E+00  0.99999944173E+02  0.99999999994E+02  0.10566000000E+00 0. -1.
         22   -1    0    0    0    0 -0.00000000000E+00 -0.00000000000E+00 -0.12348940551E+02  0.12348940551E+02  0.00000000000E+00 0.  1.
         13    1    1    2    0    0 -0.10983912473E+02  0.13310827518E+02  0.18703491342E+02  0.25449090649E+02  0.10566000000E+00 0.  1.
        996    1    1    2    0    0  0.10983912473E+02 -0.13310827518E+02  0.68947512280E+02  0.86899849897E+02  0.50000000000E+02 0.  0.
<mgrwt>
<rscale>  0 0.52894465E+02</rscale>
<asrwt>0</asrwt>
<pdfrwt beam="1">  1       13 0.10000000E+01 0.52894465E+02</pdfrwt>
<pdfrwt beam="2">  1       22 0.12348965E+00 0.52894465E+02</pdfrwt>
<totfact> 0.10305566E+00</totfact>
</mgrwt>
</event>
<event>
 4    1  0.2451537E+000  0.5451329E+02  0.7957747E-01  0.1422415E+00
         13   -1    0    0    0    0  0.00000000000E+00  0.00000000000E+00  0.99999944178E+02  0.99999999998E+02  0.10566000000E+00 0. -1.
         22   -1    0    0    0    0 -0.00000000000E+00 -0.00000000000E+00 -0.39974074166E+02  0.39974074166E+02  0.00000000000E+00 0.  1.
         13    1    1    2    0    0  0.80677374634E+01 -0.20164595427E+02 -0.28607798190E+02  0.35918192853E+02  0.10566000000E+00 0.  1.
        996    1    1    2    0    0 -0.80677374634E+01  0.20164595427E+02  0.88633668202E+02  0.10405588131E+03  0.50000000000E+02 0.  0.
<mgrwt>
<rscale>  0 0.54513295E+02</rscale>
<asrwt>0</asrwt>
<pdfrwt beam="1">  1       13 0.10000000E+01 0.54513295E+02</pdfrwt>
<pdfrwt beam="2">  1       22 0.39974091E+00 0.54513295E+02</pdfrwt>
<totfact> 0.12406863E-01</totfact>
</mgrwt>
</event>
<event>
 4    1  0.2451537E+000  0.5307673E+02  0.7957747E-01  0.1429419E+00
         13   -1    0    0    0    0  0.00000000000E+00  0.00000000000E+00  0.99999944173E+02  0.99999999993E+02  0.10566000000E+00 0.  1.
         22   -1    0    0    0    0 -0.00000000000E+00 -0.00000000000E+00 -0.15246664915E+02  0.15246664915E+02  0.00000000000E+00 0. -1.
         13    1    1    2    0    0 -0.14269188249E+02  0.10655019627E+02  0.34310934517E+01  0.18136227360E+02  0.10566000000E+00 0. -1.
        996    1    1    2    0    0  0.14269188249E+02 -0.10655019627E+02  0.81322185806E+02  0.97110437548E+02  0.50000000000E+02 0.  0.
<mgrwt>
<rscale>  0 0.53076729E+02</rscale>
<asrwt>0</asrwt>
<pdfrwt beam="1">  1       13 0.10000000E+01 0.53076729E+02</pdfrwt>
<pdfrwt beam="2">  1       22 0.15246689E+00 0.53076729E+02</pdfrwt>
<totfact> 0.73427213E-01</totfact>
</mgrwt>
</event>
<event>
 4    1  0.2451537E+000  0.6167070E+02  0.7957747E-01  0.1390951E+00
         13   -1    0    0    0    0  0.00000000000E+00  0.00000000000E+00  0.99999944180E+02  0.10000000000E+03  0.10566000000E+00 0.  1.
         22   -1    0    0    0    0 -0.00000000000E+00 -0.00000000000E+00 -0.34967124673E+02  0.34967124673E+02  0.00000000000E+00 0. -1.
         13    1    1    2    0    0  0.25935280196E+02 -0.25112485144E+02 -0.10365626075E+02  0.37559726263E+02  0.10566000000E+00 0. -1.
        996    1    1    2    0    0 -0.25935280196E+02  0.25112485144E+02  0.75398445582E+02  0.97407398411E+02  0.50000000000E+02 0.  0.
<mgrwt>
<rscale>  0 0.61670703E+02</rscale>
<asrwt>0</asrwt>
<pdfrwt beam="1">  1       13 0.10000000E+01 0.61670703E+02</pdfrwt>
<pdfrwt beam="2">  1       22 0.34967143E+00 0.61670703E+02</pdfrwt>
<totfact> 0.15885343E-01</totfact>
</mgrwt>
</event>
<event>
 4    1  0.2451537E+000  0.5172139E+02  0.7957747E-01  0.1436272E+00
         13   -1    0    0    0    0  0.00000000000E+00  0.00000000000E+00  0.99999944181E+02  0.10000000000E+03  0.10566000000E+00 0.  1.
         22   -1    0    0    0    0 -0.00000000000E+00 -0.00000000000E+00 -0.11692280420E+02  0.11692280420E+02  0.00000000000E+00 0.  1.
         13    1    1    2    0    0  0.11235639170E+02 -0.69902027145E+01  0.34995217551E+02  0.37413619673E+02  0.10566000000E+00 0. -1.
        996    1    1    2    0    0 -0.11235639170E+02  0.69902027145E+01  0.53312446210E+02  0.74278660747E+02  0.50000000000E+02 0.  0.
<mgrwt>
<rscale>  0 0.51721393E+02</rscale>
<asrwt>0</asrwt>
<pdfrwt beam="1">  1       13 0.10000000E+01 0.51721393E+02</pdfrwt>
<pdfrwt beam="2">  1       22 0.11692305E+00 0.51721393E+02</pdfrwt>
<totfact> 0.11176505E+00</totfact>
</mgrwt>
</event>
<event>
 4    1  0.2451537E+000  0.5108066E+02  0.7957747E-01  0.1439598E+00
         13   -1    0    0    0    0  0.00000000000E+00  0.00000000000E+00  0.99999944186E+02  0.10000000001E+03  0.10566000000E+00 0.  1.
         22   -1    0    0    0    0 -0.00000000000E+00 -0.00000000000E+00 -0.23532275774E+02  0.23532275774E+02  0.00000000000E+00 0. -1.
         13    1    1    2    0    0  0.10101554420E+02  0.26819498915E+01 -0.15286223713E+02  0.18517938773E+02  0.10566000000E+00 0. -1.
        996    1    1    2    0    0 -0.10101554420E+02 -0.26819498915E+01  0.91753892125E+02  0.10501433701E+03  0.50000000000E+02 0.  0.
<mgrwt>
<rscale>  0 0.51080664E+02</rscale>
<asrwt>0</asrwt>
<pdfrwt beam="1">  1       13 0.10000000E+01 0.51080664E+02</pdfrwt>
<pdfrwt beam="2">  1       22 0.23532297E+00 0.51080664E+02</pdfrwt>
<totfact> 0.33142640E-01</totfact>
</mgrwt>
</event>
<event>
 4    1  0.2451537E+000  0.5129140E+02  0.7957747E-01  0.1438498E+00
         13   -1    0    0    0    0  0.00000000000E+00  0.00000000000E+00  0.99999944184E+02  0.10000000000E+03  0.10566000000E+00 0. -1.
         22   -1    0    0    0    0 -0.00000000000E+00 -0.00000000000E+00 -0.11414571815E+02  0.11414571815E+02  0.00000000000E+00 0. -1.
         13    1    1    2    0    0 -0.92176977025E+01 -0.67706475141E+01  0.33180337221E+01  0.11909161621E+02  0.10566000000E+00 0.  1.
        996    1    1    2    0    0  0.92176977025E+01  0.67706475141E+01  0.85267338648E+02  0.99505410198E+02  0.50000000000E+02 0.  0.
<mgrwt>
<rscale>  0 0.51291399E+02</rscale>
<asrwt>0</asrwt>
<pdfrwt beam="1">  1       13 0.10000000E+01 0.51291399E+02</pdfrwt>
<pdfrwt beam="2">  1       22 0.11414597E+00 0.51291399E+02</pdfrwt>
<totfact> 0.11578303E+00</totfact>
</mgrwt>
</event>
<event>
 4    1  0.2451537E+000  0.6542033E+02  0.7957747E-01  0.1376397E+00
         13   -1    0    0    0    0  0.00000000000E+00  0.00000000000E+00  0.99999944184E+02  0.10000000000E+03  0.10566000000E+00 0.  1.
         22   -1    0    0    0    0 -0.00000000000E+00 -0.00000000000E+00 -0.55188260458E+02  0.55188260458E+02  0.00000000000E+00 0. -1.
         13    1    1    2    0    0 -0.32138238945E+02 -0.27330433428E+02 -0.32976956436E+02  0.53547267098E+02  0.10566000000E+00 0. -1.
        996    1    1    2    0    0  0.32138238945E+02  0.27330433428E+02  0.77788640162E+02  0.10164099336E+03  0.50000000000E+02 0.  0.
<mgrwt>
<rscale>  0 0.65420326E+02</rscale>
<asrwt>0</asrwt>
<pdfrwt beam="1">  1       13 0.10000000E+01 0.65420326E+02</pdfrwt>
<pdfrwt beam="2">  1       22 0.55188273E+00 0.65420326E+02</pdfrwt>
<totfact> 0.59252940E-02</totfact>
</mgrwt>
</event>
<event>
 4    1  0.2451537E+000  0.7023793E+02  0.7957747E-01  0.1359286E+00
         13   -1    0    0    0    0  0.00000000000E+00  0.00000000000E+00  0.99999944174E+02  0.99999999995E+02  0.10566000000E+00 0. -1.
         22   -1    0    0    0    0 -0.00000000000E+00 -0.00000000000E+00 -0.39624264783E+02  0.39624264783E+02  0.00000000000E+00 0. -1.
         13    1    1    2    0    0 -0.67778793413E+01  0.48861307840E+02  0.38742944966E+01  0.49481192125E+02  0.10566000000E+00 0.  1.
        996    1    1    2    0    0  0.67778793413E+01 -0.48861307840E+02  0.56501384895E+02  0.90143072653E+02  0.50000000000E+02 0.  0.
<mgrwt>
<rscale>  0 0.70237932E+02</rscale>
<asrwt>0</asrwt>
<pdfrwt beam="1">  1       13 0.10000000E+01 0.70237932E+02</pdfrwt>
<pdfrwt beam="2">  1       22 0.39624282E+00 0.70237932E+02</pdfrwt>
<totfact> 0.12748356E-01</totfact>
</mgrwt>
</event>
<event>
 4    1  0.2451537E+000  0.5225747E+02  0.7957747E-01  0.1433532E+00
         13   -1    0    0    0    0  0.00000000000E+00  0.00000000000E+00  0.99999944182E+02  0.10000000000E+03  0.10566000000E+00 0. -1.
         22   -1    0    0    0    0 -0.00000000000E+00 -0.00000000000E+00 -0.15760835536E+02  0.15760835536E+02  0.00000000000E+00 0.  1.
         13    1    1    2    0    0  0.13269318240E+02  0.74005919876E+01 -0.15876494016E+01  0.15276627997E+02  0.10566000000E+00 0.  1.
        996    1    1    2    0    0 -0.13269318240E+02 -0.74005919876E+01  0.85826758047E+02  0.10048420754E+03  0.50000000000E+02 0.  0.
<mgrwt>
<rscale>  0 0.52257474E+02</rscale>
<asrwt>0</asrwt>
<pdfrwt beam="1">  1       13 0.10000000E+01 0.52257474E+02</pdfrwt>
<pdfrwt beam="2">  1       22 0.15760859E+00 0.52257474E+02</pdfrwt>
<totfact> 0.69316088E-01</totfact>
</mgrwt>
</event>
<event>
 4    1  0.2451537E+000  0.5388368E+02  0.7957747E-01  0.1425453E+00
         13   -1    0    0    0    0  0.00000000000E+00  0.00000000000E+00  0.99999944187E+02  0.10000000001E+03  0.10566000000E+00 0. -1.
         22   -1    0    0    0    0 -0.00000000000E+00 -0.00000000000E+00 -0.27975500819E+02  0.27975500819E+02  0.00000000000E+00 0.  1.
         13    1    1    2    0    0 -0.51146077668E+01  0.19424008887E+02 -0.15378690748E+02  0.25297561681E+02  0.10566000000E+00 0.  1.
        996    1    1    2    0    0  0.51146077668E+01 -0.19424008887E+02  0.87403134115E+02  0.10267793914E+03  0.50000000000E+02 0.  0.
<mgrwt>
<rscale>  0 0.53883683E+02</rscale>
<asrwt>0</asrwt>
<pdfrwt beam="1">  1       13 0.10000000E+01 0.53883683E+02</pdfrwt>
<pdfrwt beam="2">  1       22 0.27975521E+00 0.53883683E+02</pdfrwt>
<totfact> 0.23713257E-01</totfact>
</mgrwt>
</event>
<event>
 4    1  0.2451537E+000  0.5777029E+02  0.7957747E-01  0.1407434E+00
         13   -1    0    0    0    0  0.00000000000E+00  0.00000000000E+00  0.99999944180E+02  0.10000000000E+03  0.10566000000E+00 0. -1.
         22   -1    0    0    0    0 -0.00000000000E+00 -0.00000000000E+00 -0.21449404614E+02  0.21449404614E+02  0.00000000000E+00 0. -1.
         13    1    1    2    0    0  0.24315026669E+02  0.15690316995E+02  0.75337816366E+01  0.29902769087E+02  0.10566000000E+00 0.  1.
        996    1    1    2    0    0 -0.24315026669E+02 -0.15690316995E+02  0.71016757930E+02  0.91546635526E+02  0.50000000000E+02 0.  0.
<mgrwt>
<rscale>  0 0.57770291E+02</rscale>
<asrwt>0</asrwt>
<pdfrwt beam="1">  1       13 0.10000000E+01 0.57770291E+02</pdfrwt>
<pdfrwt beam="2">  1       22 0.21449427E+00 0.57770291E+02</pdfrwt>
<totfact> 0.40078863E-01</totfact>
</mgrwt>
</event>
<event>
 4    1  0.2451537E+000  0.5109608E+02  0.7957747E-01  0.1439518E+00
         13   -1    0    0    0    0  0.00000000000E+00  0.00000000000E+00  0.99999944180E+02  0.10000000000E+03  0.10566000000E+00 0. -1.
         22   -1    0    0    0    0 -0.00000000000E+00 -0.00000000000E+00 -0.98879731985E+01  0.98879731985E+01  0.00000000000E+00 0. -1.
         13    1    1    2    0    0  0.80694682025E+01  0.67596326193E+01  0.24962597400E+02  0.27091537114E+02  0.10566000000E+00 0.  1.
        996    1    1    2    0    0 -0.80694682025E+01 -0.67596326193E+01  0.65149373581E+02  0.82796436084E+02  0.50000000000E+02 0.  0.
<mgrwt>
<rscale>  0 0.51096076E+02</rscale>
<asrwt>0</asrwt>
<pdfrwt beam="1">  1       13 0.10000000E+01 0.51096076E+02</pdfrwt>
<pdfrwt beam="2">  1       22 0.98879984E-01 0.51096076E+02</pdfrwt>
<totfact> 0.14298046E+00</totfact>
</mgrwt>
</event>
<event>
 4    1  0.2451537E+000  0.5323205E+02  0.7957747E-01  0.1428650E+00
         13   -1    0    0    0    0  0.00000000000E+00  0.00000000000E+00  0.99999944184E+02  0.10000000000E+03  0.10566000000E+00 0.  1.
         22   -1    0    0    0    0 -0.00000000000E+00 -0.00000000000E+00 -0.28866833567E+02  0.28866833567E+02  0.00000000000E+00 0. -1.
         13    1    1    2    0    0  0.14106503074E+02  0.11604198327E+02 -0.17616365324E+02  0.25377122356E+02  0.10566000000E+00 0. -1.
        996    1    1    2    0    0 -0.14106503074E+02 -0.11604198327E+02  0.88749475941E+02  0.10348971122E+03  0.50000000000E+02 0.  0.
<mgrwt>
<rscale>  0 0.53232047E+02</rscale>
<asrwt>0</asrwt>
<pdfrwt beam="1">  1       13 0.10000000E+01 0.53232047E+02</pdfrwt>
<pdfrwt beam="2">  1       22 0.28866853E+00 0.53232047E+02</pdfrwt>
<totfact> 0.22303800E-01</totfact>
</mgrwt>
</event>
<event>
 4    1  0.2451537E+000  0.5209461E+02  0.7957747E-01  0.1434360E+00
         13   -1    0    0    0    0  0.00000000000E+00  0.00000000000E+00  0.99999944177E+02  0.99999999997E+02  0.10566000000E+00 0.  1.
         22   -1    0    0    0    0 -0.00000000000E+00 -0.00000000000E+00 -0.14795261605E+02  0.14795261605E+02  0.00000000000E+00 0.  1.
         13    1    1    2    0    0  0.10220078944E+02 -0.10459373462E+02 -0.35001221737E+00  0.14628129731E+02  0.10566000000E+00 0. -1.
        996    1    1    2    0    0 -0.10220078944E+02  0.10459373462E+02  0.85554694789E+02  0.10016713187E+03  0.50000000000E+02 0.  0.
<mgrwt>
<rscale>  0 0.52094611E+02</rscale>
<asrwt>0</asrwt>
<pdfrwt beam="1">  1       13 0.10000000E+01 0.52094611E+02</pdfrwt>
<pdfrwt beam="2">  1       22 0.14795285E+00 0.52094611E+02</pdfrwt>
<totfact> 0.77045418E-01</totfact>
</mgrwt>
</event>
<event>
 4    1  0.2451537E+000  0.5194301E+02  0.7957747E-01  0.1435135E+00
         13   -1    0    0    0    0  0.00000000000E+00  0.00000000000E+00  0.99999944178E+02  0.99999999998E+02  0.10566000000E+00 0.  1.
         22   -1    0    0    0    0 -0.00000000000E+00 -0.00000000000E+00 -0.12603483433E+02  0.12603483433E+02  0.00000000000E+00 0. -1.
         13    1    1    2    0    0  0.14037321596E+02 -0.10150114918E+01  0.44974947272E+01  0.14775495551E+02  0.10566000000E+00 0. -1.
        996    1    1    2    0    0 -0.14037321596E+02  0.10150114918E+01  0.82898966018E+02  0.97827987880E+02  0.50000000000E+02 0.  0.
<mgrwt>
<rscale>  0 0.51943013E+02</rscale>
<asrwt>0</asrwt>
<pdfrwt beam="1">  1       13 0.10000000E+01 0.51943013E+02</pdfrwt>
<pdfrwt beam="2">  1       22 0.12603508E+00 0.51943013E+02</pdfrwt>
<totfact> 0.99634557E-01</totfact>
</mgrwt>
</event>
<event>
 4    1  0.2451537E+000  0.5224869E+02  0.7957747E-01  0.1433577E+00
         13   -1    0    0    0    0  0.00000000000E+00  0.00000000000E+00  0.99999944178E+02  0.99999999998E+02  0.10566000000E+00 0.  1.
         22   -1    0    0    0    0 -0.00000000000E+00 -0.00000000000E+00 -0.12443131689E+02  0.12443131689E+02  0.00000000000E+00 0. -1.
         13    1    1    2    0    0 -0.13849706146E+02  0.61734459687E+01  0.76852643714E+01  0.17000007293E+02  0.10566000000E+00 0. -1.
        996    1    1    2    0    0  0.13849706146E+02 -0.61734459687E+01  0.79871548118E+02  0.95443124394E+02  0.50000000000E+02 0.  0.
<mgrwt>
<rscale>  0 0.52248692E+02</rscale>
<asrwt>0</asrwt>
<pdfrwt beam="1">  1       13 0.10000000E+01 0.52248692E+02</pdfrwt>
<pdfrwt beam="2">  1       22 0.12443156E+00 0.52248692E+02</pdfrwt>
<totfact> 0.10170603E+00</totfact>
</mgrwt>
</event>
<event>
 4    1  0.2451537E+000  0.5115574E+02  0.7957747E-01  0.1439206E+00
         13   -1    0    0    0    0  0.00000000000E+00  0.00000000000E+00  0.99999944184E+02  0.10000000000E+03  0.10566000000E+00 0.  1.
         22   -1    0    0    0    0 -0.00000000000E+00 -0.00000000000E+00 -0.10108868884E+02  0.10108868884E+02  0.00000000000E+00 0. -1.
         13    1    1    2    0    0 -0.80968990970E+01 -0.71659071675E+01  0.76120324963E+01  0.13223622926E+02  0.10566000000E+00 0. -1.
        996    1    1    2    0    0  0.80968990970E+01  0.71659071675E+01  0.82279042804E+02  0.96885245963E+02  0.50000000000E+02 0.  0.
<mgrwt>
<rscale>  0 0.51155743E+02</rscale>
<asrwt>0</asrwt>
<pdfrwt beam="1">  1       13 0.10000000E+01 0.51155743E+02</pdfrwt>
<pdfrwt beam="2">  1       22 0.10108894E+00 0.51155743E+02</pdfrwt>
<totfact> 0.13849918E+00</totfact>
</mgrwt>
</event>
<event>
 4    1  0.2451537E+000  0.6065789E+02  0.7957747E-01  0.1395091E+00
         13   -1    0    0    0    0  0.00000000000E+00  0.00000000000E+00  0.99999944181E+02  0.10000000000E+03  0.10566000000E+00 0. -1.
         22   -1    0    0    0    0 -0.00000000000E+00 -0.00000000000E+00 -0.22574311110E+02  0.22574311110E+02  0.00000000000E+00 0.  1.
         13    1    1    2    0    0  0.10519766975E+02 -0.32691193297E+02  0.29338937083E+02  0.45168174743E+02  0.10566000000E+00 0.  1.
        996    1    1    2    0    0 -0.10519766975E+02  0.32691193297E+02  0.48086695988E+02  0.77406136368E+02  0.50000000000E+02 0.  0.
<mgrwt>
<rscale>  0 0.60657890E+02</rscale>
<asrwt>0</asrwt>
<pdfrwt beam="1">  1       13 0.10000000E+01 0.60657890E+02</pdfrwt>
<pdfrwt beam="2">  1       22 0.22574333E+00 0.60657890E+02</pdfrwt>
<totfact> 0.36471284E-01</totfact>
</mgrwt>
</event>
<event>
 4    1  0.2451537E+000  0.5616570E+02  0.7957747E-01  0.1414665E+00
         13   -1    0    0    0    0  0.00000000000E+00  0.00000000000E+00  0.99999944175E+02  0.99999999996E+02  0.10566000000E+00 0. -1.
         22   -1    0    0    0    0 -0.00000000000E+00 -0.00000000000E+00 -0.23078014486E+02  0.23078014486E+02  0.00000000000E+00 0.  1.
         13    1    1    2    0    0  0.23393466041E+02  0.10360111010E+02 -0.26048632413E+01  0.25717360480E+02  0.10566000000E+00 0.  1.
        996    1    1    2    0    0 -0.23393466041E+02 -0.10360111010E+02  0.79526792931E+02  0.97360654001E+02  0.50000000000E+02 0.  0.
<mgrwt>
<rscale>  0 0.56165703E+02</rscale>
<asrwt>0</asrwt>
<pdfrwt beam="1">  1       13 0.10000000E+01 0.56165703E+02</pdfrwt>
<pdfrwt beam="2">  1       22 0.23078036E+00 0.56165703E+02</pdfrwt>
<totfact> 0.34707491E-01</totfact>
</mgrwt>
</event>
<event>
 4    1  0.2451537E+000  0.5182903E+02  0.7957747E-01  0.1435719E+00
         13   -1    0    0    0    0  0.00000000000E+00  0.00000000000E+00  0.99999944176E+02  0.99999999996E+02  0.10566000000E+00 0.  1.
         22   -1    0    0    0    0 -0.00000000000E+00 -0.00000000000E+00 -0.12658090899E+02  0.12658090899E+02  0.00000000000E+00 0. -1.
         13    1    1    2    0    0 -0.26449826490E+01  0.13388537422E+02  0.34992442797E+01  0.14089171093E+02  0.10566000000E+00 0. -1.
        996    1    1    2    0    0  0.26449826490E+01 -0.13388537422E+02  0.83842608997E+02  0.98568919802E+02  0.50000000000E+02 0.  0.
<mgrwt>
<rscale>  0 0.51829035E+02</rscale>
<asrwt>0</asrwt>
<pdfrwt beam="1">  1       13 0.10000000E+01 0.51829035E+02</pdfrwt>
<pdfrwt beam="2">  1       22 0.12658115E+00 0.51829035E+02</pdfrwt>
<totfact> 0.98940402E-01</totfact>
</mgrwt>
</event>
<event>
 4    1  0.2451537E+000  0.5119557E+02  0.7957747E-01  0.1438998E+00
         13   -1    0    0    0    0  0.00000000000E+00  0.00000000000E+00  0.99999944178E+02  0.99999999998E+02  0.10566000000E+00 0. -1.
         22   -1    0    0    0    0 -0.00000000000E+00 -0.00000000000E+00 -0.11539340826E+02  0.11539340826E+02  0.00000000000E+00 0.  1.
         13    1    1    2    0    0  0.33658243713E+01  0.10471762509E+02  0.21809169036E+01  0.11214015620E+02  0.10566000000E+00 0.  1.
        996    1    1    2    0    0 -0.33658243713E+01 -0.10471762509E+02  0.86279686448E+02  0.10032532520E+03  0.50000000000E+02 0.  0.
<mgrwt>
<rscale>  0 0.51195572E+02</rscale>
<asrwt>0</asrwt>
<pdfrwt beam="1">  1       13 0.10000000E+01 0.51195572E+02</pdfrwt>
<pdfrwt beam="2">  1       22 0.11539366E+00 0.51195572E+02</pdfrwt>
<totfact> 0.11387659E+00</totfact>
</mgrwt>
</event>
<event>
 4    1  0.2451537E+000  0.5385547E+02  0.7957747E-01  0.1425590E+00
         13   -1    0    0    0    0  0.00000000000E+00  0.00000000000E+00  0.99999944176E+02  0.99999999996E+02  0.10566000000E+00 0. -1.
         22   -1    0    0    0    0 -0.00000000000E+00 -0.00000000000E+00 -0.13693954388E+02  0.13693954388E+02  0.00000000000E+00 0. -1.
         13    1    1    2    0    0  0.20001818218E+02  0.58184055975E+00  0.20297798884E+02  0.28503036225E+02  0.10566000000E+00 0.  1.
        996    1    1    2    0    0 -0.20001818218E+02 -0.58184055975E+00  0.66008190903E+02  0.85190918159E+02  0.50000000000E+02 0.  0.
<mgrwt>
<rscale>  0 0.53855466E+02</rscale>
<asrwt>0</asrwt>
<pdfrwt beam="1">  1       13 0.10000000E+01 0.53855466E+02</pdfrwt>
<pdfrwt beam="2">  1       22 0.13693978E+00 0.53855466E+02</pdfrwt>
<totfact> 0.87727836E-01</totfact>
</mgrwt>
</event>
<event>
 4    1  0.2451537E+000  0.5742675E+02  0.7957747E-01  0.1408959E+00
         13   -1    0    0    0    0  0.00000000000E+00  0.00000000000E+00  0.99999944186E+02  0.10000000001E+03  0.10566000000E+00 0. -1.
         22   -1    0    0    0    0 -0.00000000000E+00 -0.00000000000E+00 -0.19029276465E+02  0.19029276465E+02  0.00000000000E+00 0.  1.
         13    1    1    2    0    0 -0.26663511266E+02 -0.93214107235E+01  0.16588241618E+02  0.32756868821E+02  0.10566000000E+00 0.  1.
        996    1    1    2    0    0  0.26663511266E+02  0.93214107235E+01  0.64382426103E+02  0.86272407651E+02  0.50000000000E+02 0.  0.
<mgrwt>
<rscale>  0 0.57426749E+02</rscale>
<asrwt>0</asrwt>
<pdfrwt beam="1">  1       13 0.10000000E+01 0.57426749E+02</pdfrwt>
<pdfrwt beam="2">  1       22 0.19029299E+00 0.57426749E+02</pdfrwt>
<totfact> 0.50145152E-01</totfact>
</mgrwt>
</event>
<event>
 4    1  0.2451537E+000  0.5104983E+02  0.7957747E-01  0.1439760E+00
         13   -1    0    0    0    0  0.00000000000E+00  0.00000000000E+00  0.99999944180E+02  0.10000000000E+03  0.10566000000E+00 0. -1.
         22   -1    0    0    0    0 -0.00000000000E+00 -0.00000000000E+00 -0.14656380250E+02  0.14656380250E+02  0.00000000000E+00 0.  1.
         13    1    1    2    0    0  0.16969712130E+00  0.10298382927E+02 -0.45642980163E+01  0.11266297903E+02  0.10566000000E+00 0.  1.
        996    1    1    2    0    0 -0.16969712130E+00 -0.10298382927E+02  0.89907861946E+02  0.10339008235E+03  0.50000000000E+02 0.  0.
<mgrwt>
<rscale>  0 0.51049833E+02</rscale>
<asrwt>0</asrwt>
<pdfrwt beam="1">  1       13 0.10000000E+01 0.51049833E+02</pdfrwt>
<pdfrwt beam="2">  1       22 0.14656404E+00 0.51049833E+02</pdfrwt>
<totfact> 0.78085978E-01</totfact>
</mgrwt>
</event>
<event>
 4    1  0.2451537E+000  0.5246639E+02  0.7957747E-01  0.1432475E+00
         13   -1    0    0    0    0  0.00000000000E+00  0.00000000000E+00  0.99999944185E+02  0.10000000001E+03  0.10566000000E+00 0.  1.
         22   -1    0    0    0    0 -0.00000000000E+00 -0.00000000000E+00 -0.18347209767E+02  0.18347209767E+02  0.00000000000E+00 0. -1.
         13    1    1    2    0    0 -0.87583160281E+01 -0.13267033107E+02 -0.53289931461E+01  0.16766979427E+02  0.10566000000E+00 0. -1.
        996    1    1    2    0    0  0.87583160281E+01  0.13267033107E+02  0.86981727564E+02  0.10158023035E+03  0.50000000000E+02 0.  0.
<mgrwt>
<rscale>  0 0.52466392E+02</rscale>
<asrwt>0</asrwt>
<pdfrwt beam="1">  1       13 0.10000000E+01 0.52466392E+02</pdfrwt>
<pdfrwt beam="2">  1       22 0.18347233E+00 0.52466392E+02</pdfrwt>
<totfact> 0.53129622E-01</totfact>
</mgrwt>
</event>
<event>
 4    1  0.2451537E+000  0.6405320E+02  0.7957747E-01  0.1381569E+00
         13   -1    0    0    0    0  0.00000000000E+00  0.00000000000E+00  0.99999944177E+02  0.99999999997E+02  0.10566000000E+00 0. -1.
         22   -1    0    0    0    0 -0.00000000000E+00 -0.00000000000E+00 -0.30807548444E+02  0.30807548444E+02  0.00000000000E+00 0.  1.
         13    1    1    2    0    0  0.37630707839E+02  0.13665347514E+02  0.53841575096E+01  0.40395695455E+02  0.10566000000E+00 0.  1.
        996    1    1    2    0    0 -0.37630707839E+02 -0.13665347514E+02  0.63808238224E+02  0.90411852986E+02  0.50000000000E+02 0.  0.
<mgrwt>
<rscale>  0 0.64053196E+02</rscale>
<asrwt>0</asrwt>
<pdfrwt beam="1">  1       13 0.10000000E+01 0.64053196E+02</pdfrwt>
<pdfrwt beam="2">  1       22 0.30807568E+00 0.64053196E+02</pdfrwt>
<totfact> 0.19981983E-01</totfact>
</mgrwt>
</event>
<event>
 4    1  0.2451537E+000  0.5347958E+02  0.7957747E-01  0.1427429E+00
         13   -1    0    0    0    0  0.00000000000E+00  0.00000000000E+00  0.99999944172E+02  0.99999999992E+02  0.10566000000E+00 0.  1.
         22   -1    0    0    0    0 -0.00000000000E+00 -0.00000000000E+00 -0.17894980207E+02  0.17894980207E+02  0.00000000000E+00 0.  1.
         13    1    1    2    0    0  0.17906900198E+02  0.62776098851E+01 -0.10752062285E+01  0.19006122515E+02  0.10566000000E+00 0. -1.
        996    1    1    2    0    0 -0.17906900198E+02 -0.62776098851E+01  0.83180170194E+02  0.98888857684E+02  0.50000000000E+02 0.  0.
<mgrwt>
<rscale>  0 0.53479580E+02</rscale>
<asrwt>0</asrwt>
<pdfrwt beam="1">  1       13 0.10000000E+01 0.53479580E+02</pdfrwt>
<pdfrwt beam="2">  1       22 0.17895003E+00 0.53479580E+02</pdfrwt>
<totfact> 0.55672584E-01</totfact>
</mgrwt>
</event>
<event>
 4    1  0.2451537E+000  0.5154136E+02  0.7957747E-01  0.1437201E+00
         13   -1    0    0    0    0  0.00000000000E+00  0.00000000000E+00  0.99999944175E+02  0.99999999996E+02  0.10566000000E+00 0. -1.
         22   -1    0    0    0    0 -0.00000000000E+00 -0.00000000000E+00 -0.10295398447E+02  0.10295398447E+02  0.00000000000E+00 0. -1.
         13    1    1    2    0    0  0.48100248160E+01 -0.11548825711E+02  0.14940583816E+02  0.19487019342E+02  0.10566000000E+00 0.  1.
        996    1    1    2    0    0 -0.48100248160E+01  0.11548825711E+02  0.74763961913E+02  0.90808379101E+02  0.50000000000E+02 0.  0.
<mgrwt>
<rscale>  0 0.51541359E+02</rscale>
<asrwt>0</asrwt>
<pdfrwt beam="1">  1       13 0.10000000E+01 0.51541359E+02</pdfrwt>
<pdfrwt beam="2">  1       22 0.10295423E+00 0.51541359E+02</pdfrwt>
<totfact> 0.13498639E+00</totfact>
</mgrwt>
</event>
<event>
 4    1  0.2451537E+000  0.5190499E+02  0.7957747E-01  0.1435329E+00
         13   -1    0    0    0    0  0.00000000000E+00  0.00000000000E+00  0.99999944181E+02  0.10000000000E+03  0.10566000000E+00 0.  1.
         22   -1    0    0    0    0 -0.00000000000E+00 -0.00000000000E+00 -0.11550126202E+02  0.11550126202E+02  0.00000000000E+00 0.  1.
         13    1    1    2    0    0 -0.82749671102E+01 -0.11209521763E+02  0.31791128058E+02  0.34710451540E+02  0.10566000000E+00 0. -1.
        996    1    1    2    0    0  0.82749671102E+01  0.11209521763E+02  0.56658689921E+02  0.76839674664E+02  0.50000000000E+02 0.  0.
<mgrwt>
<rscale>  0 0.51904995E+02</rscale>
<asrwt>0</asrwt>
<pdfrwt beam="1">  1       13 0.10000000E+01 0.51904995E+02</pdfrwt>
<pdfrwt beam="2">  1       22 0.11550151E+00 0.51904995E+02</pdfrwt>
<totfact> 0.11390087E+00</totfact>
</mgrwt>
</event>
<event>
 4    1  0.2451537E+000  0.5130626E+02  0.7957747E-01  0.1438421E+00
         13   -1    0    0    0    0  0.00000000000E+00  0.00000000000E+00  0.99999944167E+02  0.99999999987E+02  0.10566000000E+00 0. -1.
         22   -1    0    0    0    0 -0.00000000000E+00 -0.00000000000E+00 -0.75293884231E+02  0.75293884231E+02  0.00000000000E+00 0.  1.
         13    1    1    2    0    0  0.10625043746E+02 -0.44091682172E+01 -0.68199493192E+02  0.69162955075E+02  0.10566000000E+00 0.  1.
        996    1    1    2    0    0 -0.10625043746E+02  0.44091682172E+01  0.92905553128E+02  0.10613092914E+03  0.50000000000E+02 0.  0.
<mgrwt>
<rscale>  0 0.51306260E+02</rscale>
<asrwt>0</asrwt>
<pdfrwt beam="1">  1       13 0.10000000E+01 0.51306260E+02</pdfrwt>
<pdfrwt beam="2">  1       22 0.75293891E+00 0.51306260E+02</pdfrwt>
<totfact> 0.47720815E-02</totfact>
</mgrwt>
</event>
<event>
 4    1  0.2451537E+000  0.5542667E+02  0.7957747E-01  0.1418092E+00
         13   -1    0    0    0    0  0.00000000000E+00  0.00000000000E+00  0.99999944180E+02  0.10000000000E+03  0.10566000000E+00 0. -1.
         22   -1    0    0    0    0 -0.00000000000E+00 -0.00000000000E+00 -0.44021961133E+02  0.44021961133E+02  0.00000000000E+00 0.  1.
         13    1    1    2    0    0  0.23909172139E+02  0.68357983156E+00 -0.32053707176E+02  0.39994588403E+02  0.10566000000E+00 0.  1.
        996    1    1    2    0    0 -0.23909172139E+02 -0.68357983156E+00  0.88031690223E+02  0.10402737273E+03  0.50000000000E+02 0.  0.
<mgrwt>
<rscale>  0 0.55426670E+02</rscale>
<asrwt>0</asrwt>
<pdfrwt beam="1">  1       13 0.10000000E+01 0.55426670E+02</pdfrwt>
<pdfrwt beam="2">  1       22 0.44021977E+00 0.55426670E+02</pdfrwt>
<totfact> 0.10181332E-01</totfact>
</mgrwt>
</event>
<event>
 4    1  0.2451537E+000  0.5145826E+02  0.7957747E-01  0.1437631E+00
         13   -1    0    0    0    0  0.00000000000E+00  0.00000000000E+00  0.99999944173E+02  0.99999999994E+02  0.10566000000E+00 0. -1.
         22   -1    0    0    0    0 -0.00000000000E+00 -0.00000000000E+00 -0.12472861738E+02  0.12472861738E+02  0.00000000000E+00 0. -1.
         13    1    1    2    0    0  0.66395570808E+01  0.10191594265E+02  0.15354888624E+01  0.12260554717E+02  0.10566000000E+00 0.  1.
        996    1    1    2    0    0 -0.66395570808E+01 -0.10191594265E+02  0.85991593573E+02  0.10021230701E+03  0.50000000000E+02 0.  0.
<mgrwt>
<rscale>  0 0.51458258E+02</rscale>
<asrwt>0</asrwt>
<pdfrwt beam="1">  1       13 0.10000000E+01 0.51458258E+02</pdfrwt>
<pdfrwt beam="2">  1       22 0.12472886E+00 0.51458258E+02</pdfrwt>
<totfact> 0.10115336E+00</totfact>
</mgrwt>
</event>
<event>
 4    1  0.2451537E+000  0.5185106E+02  0.7957747E-01  0.1435606E+00
         13   -1    0    0    0    0  0.00000000000E+00  0.00000000000E+00  0.99999944179E+02  0.99999999999E+02  0.10566000000E+00 0.  1.
         22   -1    0    0    0    0 -0.00000000000E+00 -0.00000000000E+00 -0.13312552856E+02  0.13312552856E+02  0.00000000000E+00 0. -1.
         13    1    1    2    0    0  0.85131521112E+01 -0.10773067196E+02  0.18092134147E+01  0.13849806962E+02  0.10566000000E+00 0. -1.
        996    1    1    2    0    0 -0.85131521112E+01  0.10773067196E+02  0.84878177908E+02  0.99462745893E+02  0.50000000000E+02 0.  0.
<mgrwt>
<rscale>  0 0.51851063E+02</rscale>
<asrwt>0</asrwt>
<pdfrwt beam="1">  1       13 0.10000000E+01 0.51851063E+02</pdfrwt>
<pdfrwt beam="2">  1       22 0.13312577E+00 0.51851063E+02</pdfrwt>
<totfact> 0.91394821E-01</totfact>
</mgrwt>
</event>
<event>
 4    1  0.2451537E+000  0.5115764E+02  0.7957747E-01  0.1439196E+00
         13   -1    0    0    0    0  0.00000000000E+00  0.00000000000E+00  0.99999944177E+02  0.99999999997E+02  0.10566000000E+00 0.  1.
         22   -1    0    0    0    0 -0.00000000000E+00 -0.00000000000E+00 -0.28556950688E+02  0.28556950688E+02  0.00000000000E+00 0. -1.
         13    1    1    2    0    0  0.77607169904E+01  0.75415615589E+01 -0.20590300033E+02  0.23261029609E+02  0.10566000000E+00 0. -1.
        996    1    1    2    0    0 -0.77607169904E+01 -0.75415615589E+01  0.92033293522E+02  0.10529592108E+03  0.50000000000E+02 0.  0.
<mgrwt>
<rscale>  0 0.51157638E+02</rscale>
<asrwt>0</asrwt>
<pdfrwt beam="1">  1       13 0.10000000E+01 0.51157638E+02</pdfrwt>
<pdfrwt beam="2">  1       22 0.28556971E+00 0.51157638E+02</pdfrwt>
<totfact> 0.22704253E-01</totfact>
</mgrwt>
</event>
<event>
 4    1  0.2451537E+000  0.5132649E+02  0.7957747E-01  0.1438315E+00
         13   -1    0    0    0    0  0.00000000000E+00  0.00000000000E+00  0.99999944175E+02  0.99999999995E+02  0.10566000000E+00 0.  1.
         22   -1    0    0    0    0 -0.00000000000E+00 -0.00000000000E+00 -0.13023422659E+02  0.13023422659E+02  0.00000000000E+00 0. -1.
         13    1    1    2    0    0 -0.46088431954E+01  0.10638013961E+02 -0.49563862473E+00  0.11604550759E+02  0.10566000000E+00 0. -1.
        996    1    1    2    0    0  0.46088431954E+01 -0.10638013961E+02  0.87472160141E+02  0.10141887189E+03  0.50000000000E+02 0.  0.
<mgrwt>
<rscale>  0 0.51326492E+02</rscale>
<asrwt>0</asrwt>
<pdfrwt beam="1">  1       13 0.10000000E+01 0.51326492E+02</pdfrwt>
<pdfrwt beam="2">  1       22 0.13023447E+00 0.51326492E+02</pdfrwt>
<totfact> 0.94518745E-01</totfact>
</mgrwt>
</event>
<event>
 4    1  0.2451537E+000  0.5161086E+02  0.7957747E-01  0.1436842E+00
         13   -1    0    0    0    0  0.00000000000E+00  0.00000000000E+00  0.99999944176E+02  0.99999999996E+02  0.10566000000E+00 0. -1.
         22   -1    0    0    0    0 -0.00000000000E+00 -0.00000000000E+00 -0.11554662683E+02  0.11554662683E+02  0.00000000000E+00 0.  1.
         13    1    1    2    0    0 -0.12670891233E+02  0.17690844728E+01  0.56401180351E+01  0.13982247315E+02  0.10566000000E+00 0.  1.
        996    1    1    2    0    0  0.12670891233E+02 -0.17690844728E+01  0.82805163458E+02  0.97572415363E+02  0.50000000000E+02 0.  0.
<mgrwt>
<rscale>  0 0.51610863E+02</rscale>
<asrwt>0</asrwt>
<pdfrwt beam="1">  1       13 0.10000000E+01 0.51610863E+02</pdfrwt>
<pdfrwt beam="2">  1       22 0.11554687E+00 0.51610863E+02</pdfrwt>
<totfact> 0.11375706E+00</totfact>
</mgrwt>
</event>
<event>
 4    1  0.2451537E+000  0.5129035E+02  0.7957747E-01  0.1438503E+00
         13   -1    0    0    0    0  0.00000000000E+00  0.00000000000E+00  0.99999944178E+02  0.99999999998E+02  0.10566000000E+00 0.  1.
         22   -1    0    0    0    0 -0.00000000000E+00 -0.00000000000E+00 -0.12549085833E+02  0.12549085833E+02  0.00000000000E+00 0.  1.
         13    1    1    2    0    0  0.72576959170E+01  0.88332355216E+01  0.31354069691E+00  0.11437205586E+02  0.10566000000E+00 0. -1.
        996    1    1    2    0    0 -0.72576959170E+01 -0.88332355216E+01  0.87137317648E+02  0.10111188024E+03  0.50000000000E+02 0.  0.
<mgrwt>
<rscale>  0 0.51290352E+02</rscale>
<asrwt>0</asrwt>
<pdfrwt beam="1">  1       13 0.10000000E+01 0.51290352E+02</pdfrwt>
<pdfrwt beam="2">  1       22 0.12549110E+00 0.51290352E+02</pdfrwt>
<totfact> 0.10016301E+00</totfact>
</mgrwt>
</event>
<event>
 4    1  0.2451537E+000  0.7163024E+02  0.7957747E-01  0.1354635E+00
         13   -1    0    0    0    0  0.00000000000E+00  0.00000000000E+00  0.99999944183E+02  0.10000000000E+03  0.10566000000E+00 0. -1.
         22   -1    0    0    0    0 -0.00000000000E+00 -0.00000000000E+00 -0.41316167675E+02  0.41316167675E+02  0.00000000000E+00 0.  1.
         13    1    1    2    0    0 -0.32129786218E+02 -0.39982100524E+02  0.44775165126E+01  0.51487385279E+02  0.10566000000E+00 0.  1.
        996    1    1    2    0    0  0.32129786218E+02  0.39982100524E+02  0.54206259995E+02  0.89828782399E+02  0.50000000000E+02 0.  0.
<mgrwt>
<rscale>  0 0.71630242E+02</rscale>
<asrwt>0</asrwt>
<pdfrwt beam="1">  1       13 0.10000000E+01 0.71630242E+02</pdfrwt>
<pdfrwt beam="2">  1       22 0.41316184E+00 0.71630242E+02</pdfrwt>
<totfact> 0.11755520E-01</totfact>
</mgrwt>
</event>
<event>
 4    1  0.2451537E+000  0.5847808E+02  0.7957747E-01  0.1404332E+00
         13   -1    0    0    0    0  0.00000000000E+00  0.00000000000E+00  0.99999944182E+02  0.10000000000E+03  0.10566000000E+00 0.  1.
         22   -1    0    0    0    0 -0.00000000000E+00 -0.00000000000E+00 -0.31589718311E+02  0.31589718311E+02  0.00000000000E+00 0. -1.
         13    1    1    2    0    0  0.98765211167E+01 -0.28672980680E+02 -0.11615296325E+02  0.32474786576E+02  0.10566000000E+00 0. -1.
        996    1    1    2    0    0 -0.98765211167E+01  0.28672980680E+02  0.80025522196E+02  0.99114931737E+02  0.50000000000E+02 0.  0.
<mgrwt>
<rscale>  0 0.58478077E+02</rscale>
<asrwt>0</asrwt>
<pdfrwt beam="1">  1       13 0.10000000E+01 0.58478077E+02</pdfrwt>
<pdfrwt beam="2">  1       22 0.31589737E+00 0.58478077E+02</pdfrwt>
<totfact> 0.18971832E-01</totfact>
</mgrwt>
</event>
<event>
 4    1  0.2451537E+000  0.5988593E+02  0.7957747E-01  0.1398311E+00
         13   -1    0    0    0    0  0.00000000000E+00  0.00000000000E+00  0.99999944176E+02  0.99999999996E+02  0.10566000000E+00 0. -1.
         22   -1    0    0    0    0 -0.00000000000E+00 -0.00000000000E+00 -0.31051311788E+02  0.31051311788E+02  0.00000000000E+00 0.  1.
         13    1    1    2    0    0 -0.30310944778E+02 -0.12944943799E+02 -0.76357345392E+01  0.33832536844E+02  0.10566000000E+00 0.  1.
        996    1    1    2    0    0  0.30310944778E+02  0.12944943799E+02  0.76584366927E+02  0.97218774940E+02  0.50000000000E+02 0.  0.
<mgrwt>
<rscale>  0 0.59885933E+02</rscale>
<asrwt>0</asrwt>
<pdfrwt beam="1">  1       13 0.10000000E+01 0.59885933E+02</pdfrwt>
<pdfrwt beam="2">  1       22 0.31051331E+00 0.59885933E+02</pdfrwt>
<totfact> 0.19607262E-01</totfact>
</mgrwt>
</event>
<event>
 4    1  0.2451537E+000  0.5574227E+02  0.7957747E-01  0.1416621E+00
         13   -1    0    0    0    0  0.00000000000E+00  0.00000000000E+00  0.99999944176E+02  0.99999999996E+02  0.10566000000E+00 0.  1.
         22   -1    0    0    0    0 -0.00000000000E+00 -0.00000000000E+00 -0.17016246036E+02  0.17016246036E+02  0.00000000000E+00 0. -1.
         13    1    1    2    0    0 -0.14681474826E+02  0.19790282597E+02  0.14052833382E+02  0.28367133772E+02  0.10566000000E+00 0. -1.
        996    1    1    2    0    0  0.14681474826E+02 -0.19790282597E+02  0.68930864758E+02  0.88649112261E+02  0.50000000000E+02 0.  0.
<mgrwt>
<rscale>  0 0.55742273E+02</rscale>
<asrwt>0</asrwt>
<pdfrwt beam="1">  1       13 0.10000000E+01 0.55742273E+02</pdfrwt>
<pdfrwt beam="2">  1       22 0.17016269E+00 0.55742273E+02</pdfrwt>
<totfact> 0.61121786E-01</totfact>
</mgrwt>
</event>
<event>
 4    1  0.2451537E+000  0.5186504E+02  0.7957747E-01  0.1435534E+00
         13   -1    0    0    0    0  0.00000000000E+00  0.00000000000E+00  0.99999944181E+02  0.10000000000E+03  0.10566000000E+00 0.  1.
         22   -1    0    0    0    0 -0.00000000000E+00 -0.00000000000E+00 -0.24465397816E+02  0.24465397816E+02  0.00000000000E+00 0. -1.
         13    1    1    2    0    0 -0.82902428852E+01  0.11011566641E+02 -0.14847496456E+02  0.20259369241E+02  0.10566000000E+00 0. -1.
        996    1    1    2    0    0  0.82902428852E+01 -0.11011566641E+02  0.90382042822E+02  0.10420602858E+03  0.50000000000E+02 0.  0.
<mgrwt>
<rscale>  0 0.51865043E+02</rscale>
<asrwt>0</asrwt>
<pdfrwt beam="1">  1       13 0.10000000E+01 0.51865043E+02</pdfrwt>
<pdfrwt beam="2">  1       22 0.24465419E+00 0.51865043E+02</pdfrwt>
<totfact> 0.30752183E-01</totfact>
</mgrwt>
</event>
<event>
 4    1  0.2451537E+000  0.5233357E+02  0.7957747E-01  0.1433146E+00
         13   -1    0    0    0    0  0.00000000000E+00  0.00000000000E+00  0.99999944174E+02  0.99999999994E+02  0.10566000000E+00 0. -1.
         22   -1    0    0    0    0 -0.00000000000E+00 -0.00000000000E+00 -0.15979514631E+02  0.15979514631E+02  0.00000000000E+00 0.  1.
         13    1    1    2    0    0  0.11187885853E+01 -0.15412685186E+02 -0.16996426161E+01  0.15546784285E+02  0.10566000000E+00 0.  1.
        996    1    1    2    0    0 -0.11187885853E+01  0.15412685186E+02  0.85720072159E+02  0.10043273034E+03  0.50000000000E+02 0.  0.
<mgrwt>
<rscale>  0 0.52333570E+02</rscale>
<asrwt>0</asrwt>
<pdfrwt beam="1">  1       13 0.10000000E+01 0.52333570E+02</pdfrwt>
<pdfrwt beam="2">  1       22 0.15979538E+00 0.52333570E+02</pdfrwt>
<totfact> 0.67717573E-01</totfact>
</mgrwt>
</event>
<event>
 4    1  0.2451537E+000  0.5769307E+02  0.7957747E-01  0.1407776E+00
         13   -1    0    0    0    0  0.00000000000E+00  0.00000000000E+00  0.99999944178E+02  0.99999999999E+02  0.10566000000E+00 0. -1.
         22   -1    0    0    0    0 -0.00000000000E+00 -0.00000000000E+00 -0.25674061633E+02  0.25674061633E+02  0.00000000000E+00 0. -1.
         13    1    1    2    0    0  0.22047711481E+02 -0.18503735974E+02 -0.32829230821E+01  0.28970305047E+02  0.10566000000E+00 0.  1.
        996    1    1    2    0    0 -0.22047711481E+02  0.18503735974E+02  0.77608805628E+02  0.96703756584E+02  0.50000000000E+02 0.  0.
<mgrwt>
<rscale>  0 0.57693066E+02</rscale>
<asrwt>0</asrwt>
<pdfrwt beam="1">  1       13 0.10000000E+01 0.57693066E+02</pdfrwt>
<pdfrwt beam="2">  1       22 0.25674082E+00 0.57693066E+02</pdfrwt>
<totfact> 0.28208237E-01</totfact>
</mgrwt>
</event>
<event>
 4    1  0.2451537E+000  0.5148378E+02  0.7957747E-01  0.1437499E+00
         13   -1    0    0    0    0  0.00000000000E+00  0.00000000000E+00  0.99999944180E+02  0.10000000000E+03  0.10566000000E+00 0.  1.
         22   -1    0    0    0    0 -0.00000000000E+00 -0.00000000000E+00 -0.18407439369E+02  0.18407439369E+02  0.00000000000E+00 0. -1.
         13    1    1    2    0    0 -0.10977270271E+02 -0.54844480567E+01 -0.83005928737E+01  0.14815216474E+02  0.10566000000E+00 0. -1.
        996    1    1    2    0    0  0.10977270271E+02  0.54844480567E+01  0.89893097685E+02  0.10359222290E+03  0.50000000000E+02 0.  0.
<mgrwt>
<rscale>  0 0.51483780E+02</rscale>
<asrwt>0</asrwt>
<pdfrwt beam="1">  1       13 0.10000000E+01 0.51483780E+02</pdfrwt>
<pdfrwt beam="2">  1       22 0.18407462E+00 0.51483780E+02</pdfrwt>
<totfact> 0.52718764E-01</totfact>
</mgrwt>
</event>
<event>
 4    1  0.2451537E+000  0.5113800E+02  0.7957747E-01  0.1439298E+00
         13   -1    0    0    0    0  0.00000000000E+00  0.00000000000E+00  0.99999944181E+02  0.10000000000E+03  0.10566000000E+00 0.  1.
         22   -1    0    0    0    0 -0.00000000000E+00 -0.00000000000E+00 -0.11198319433E+02  0.11198319433E+02  0.00000000000E+00 0.  1.
         13    1    1    2    0    0  0.10508223277E+02  0.21616541046E+01  0.36527348994E+02  0.38070380789E+02  0.10566000000E+00 0. -1.
        996    1    1    2    0    0 -0.10508223277E+02 -0.21616541046E+01  0.52274275754E+02  0.73127938645E+02  0.50000000000E+02 0.  0.
<mgrwt>
<rscale>  0 0.51138005E+02</rscale>
<asrwt>0</asrwt>
<pdfrwt beam="1">  1       13 0.10000000E+01 0.51138005E+02</pdfrwt>
<pdfrwt beam="2">  1       22 0.11198344E+00 0.51138005E+02</pdfrwt>
<totfact> 0.11910999E+00</totfact>
</mgrwt>
</event>
<event>
 4    1  0.2451537E+000  0.5397574E+02  0.7957747E-01  0.1425006E+00
         13   -1    0    0    0    0  0.00000000000E+00  0.00000000000E+00  0.99999944176E+02  0.99999999996E+02  0.10566000000E+00 0.  1.
         22   -1    0    0    0    0 -0.00000000000E+00 -0.00000000000E+00 -0.14186402430E+02  0.14186402430E+02  0.00000000000E+00 0. -1.
         13    1    1    2    0    0  0.19153306237E+02  0.68213522083E+01  0.32389671243E+02  0.38242410398E+02  0.10566000000E+00 0. -1.
        996    1    1    2    0    0 -0.19153306237E+02 -0.68213522083E+01  0.53423870502E+02  0.75943992028E+02  0.50000000000E+02 0.  0.
<mgrwt>
<rscale>  0 0.53975735E+02</rscale>
<asrwt>0</asrwt>
<pdfrwt beam="1">  1       13 0.10000000E+01 0.53975735E+02</pdfrwt>
<pdfrwt beam="2">  1       22 0.14186426E+00 0.53975735E+02</pdfrwt>
<totfact> 0.82869491E-01</totfact>
</mgrwt>
</event>
<event>
 4    1  0.2451537E+000  0.5436903E+02  0.7957747E-01  0.1423107E+00
         13   -1    0    0    0    0  0.00000000000E+00  0.00000000000E+00  0.99999944181E+02  0.10000000000E+03  0.10566000000E+00 0. -1.
         22   -1    0    0    0    0 -0.00000000000E+00 -0.00000000000E+00 -0.14471129204E+02  0.14471129204E+02  0.00000000000E+00 0. -1.
         13    1    1    2    0    0 -0.17375325483E+02  0.12413259589E+02  0.19293380614E+02  0.28779100904E+02  0.10566000000E+00 0.  1.
        996    1    1    2    0    0  0.17375325483E+02 -0.12413259589E+02  0.66235434363E+02  0.85692028302E+02  0.50000000000E+02 0.  0.
<mgrwt>
<rscale>  0 0.54369026E+02</rscale>
<asrwt>0</asrwt>
<pdfrwt beam="1">  1       13 0.10000000E+01 0.54369026E+02</pdfrwt>
<pdfrwt beam="2">  1       22 0.14471153E+00 0.54369026E+02</pdfrwt>
<totfact> 0.80279884E-01</totfact>
</mgrwt>
</event>
<event>
 4    1  0.2451537E+000  0.5197502E+02  0.7957747E-01  0.1434971E+00
         13   -1    0    0    0    0  0.00000000000E+00  0.00000000000E+00  0.99999944177E+02  0.99999999997E+02  0.10566000000E+00 0. -1.
         22   -1    0    0    0    0 -0.00000000000E+00 -0.00000000000E+00 -0.31549824516E+02  0.31549824516E+02  0.00000000000E+00 0.  1.
         13    1    1    2    0    0 -0.80090611054E+01 -0.11715722721E+02 -0.22613257967E+02  0.26697824229E+02  0.10566000000E+00 0.  1.
        996    1    1    2    0    0  0.80090611054E+01  0.11715722721E+02  0.91063377627E+02  0.10485200028E+03  0.50000000000E+02 0.  0.
<mgrwt>
<rscale>  0 0.51975025E+02</rscale>
<asrwt>0</asrwt>
<pdfrwt beam="1">  1       13 0.10000000E+01 0.51975025E+02</pdfrwt>
<pdfrwt beam="2">  1       22 0.31549844E+00 0.51975025E+02</pdfrwt>
<totfact> 0.18872830E-01</totfact>
</mgrwt>
</event>
<event>
 4    1  0.2451537E+000  0.5192459E+02  0.7957747E-01  0.1435229E+00
         13   -1    0    0    0    0  0.00000000000E+00  0.00000000000E+00  0.99999944185E+02  0.10000000001E+03  0.10566000000E+00 0.  1.
         22   -1    0    0    0    0 -0.00000000000E+00 -0.00000000000E+00 -0.13974346556E+02  0.13974346556E+02  0.00000000000E+00 0. -1.
         13    1    1    2    0    0 -0.52169410646E+01  0.12997955337E+02  0.61627901877E+00  0.14019781770E+02  0.10566000000E+00 0. -1.
        996    1    1    2    0    0  0.52169410646E+01 -0.12997955337E+02  0.85409318611E+02  0.99954564791E+02  0.50000000000E+02 0.  0.
<mgrwt>
<rscale>  0 0.51924593E+02</rscale>
<asrwt>0</asrwt>
<pdfrwt beam="1">  1       13 0.10000000E+01 0.51924593E+02</pdfrwt>
<pdfrwt beam="2">  1       22 0.13974371E+00 0.51924593E+02</pdfrwt>
<totfact> 0.84565072E-01</totfact>
</mgrwt>
</event>
<event>
 4    1  0.2451537E+000  0.6325686E+02  0.7957747E-01  0.1384651E+00
         13   -1    0    0    0    0  0.00000000000E+00  0.00000000000E+00  0.99999944160E+02  0.99999999981E+02  0.10566000000E+00 0. -1.
         22   -1    0    0    0    0 -0.00000000000E+00 -0.00000000000E+00 -0.67672552361E+02  0.67672552361E+02  0.00000000000E+00 0.  1.
         13    1    1    2    0    0 -0.67229237791E+01 -0.38160614432E+02 -0.50373803269E+02  0.63552823838E+02  0.10566000000E+00 0.  1.
        996    1    1    2    0    0  0.67229237791E+01  0.38160614432E+02  0.82701195068E+02  0.10411972850E+03  0.50000000000E+02 0.  0.
<mgrwt>
<rscale>  0 0.63256859E+02</rscale>
<asrwt>0</asrwt>
<pdfrwt beam="1">  1       13 0.10000000E+01 0.63256859E+02</pdfrwt>
<pdfrwt beam="2">  1       22 0.67672561E+00 0.63256859E+02</pdfrwt>
<totfact> 0.84541369E-02</totfact>
</mgrwt>
</event>
<event>
 4    1  0.2451537E+000  0.7283230E+02  0.7957747E-01  0.1350718E+00
         13   -1    0    0    0    0  0.00000000000E+00  0.00000000000E+00  0.99999944179E+02  0.10000000000E+03  0.10566000000E+00 0.  1.
         22   -1    0    0    0    0 -0.00000000000E+00 -0.00000000000E+00 -0.57543898600E+02  0.57543898600E+02  0.00000000000E+00 0. -1.
         13    1    1    2    0    0 -0.50994219595E+02  0.14287540744E+02 -0.24737132422E+02  0.58450672683E+02  0.10566000000E+00 0. -1.
        996    1    1    2    0    0  0.50994219595E+02 -0.14287540744E+02  0.67193178001E+02  0.99093225916E+02  0.50000000000E+02 0.  0.
<mgrwt>
<rscale>  0 0.72832302E+02</rscale>
<asrwt>0</asrwt>
<pdfrwt beam="1">  1       13 0.10000000E+01 0.72832302E+02</pdfrwt>
<pdfrwt beam="2">  1       22 0.57543910E+00 0.72832302E+02</pdfrwt>
<totfact> 0.58086344E-02</totfact>
</mgrwt>
</event>
<event>
 4    1  0.2451537E+000  0.5419164E+02  0.7957747E-01  0.1423961E+00
         13   -1    0    0    0    0  0.00000000000E+00  0.00000000000E+00  0.99999944176E+02  0.99999999996E+02  0.10566000000E+00 0.  1.
         22   -1    0    0    0    0 -0.00000000000E+00 -0.00000000000E+00 -0.14099430969E+02  0.14099430969E+02  0.00000000000E+00 0. -1.
         13    1    1    2    0    0 -0.16493389847E+02 -0.12833632059E+02  0.23146958647E+02  0.31185363219E+02  0.10566000000E+00 0. -1.
        996    1    1    2    0    0  0.16493389847E+02  0.12833632059E+02  0.62753554559E+02  0.82914067746E+02  0.50000000000E+02 0.  0.
<mgrwt>
<rscale>  0 0.54191642E+02</rscale>
<asrwt>0</asrwt>
<pdfrwt beam="1">  1       13 0.10000000E+01 0.54191642E+02</pdfrwt>
<pdfrwt beam="2">  1       22 0.14099455E+00 0.54191642E+02</pdfrwt>
<totfact> 0.83739918E-01</totfact>
</mgrwt>
</event>
<event>
 4    1  0.2451537E+000  0.5151233E+02  0.7957747E-01  0.1437351E+00
         13   -1    0    0    0    0  0.00000000000E+00  0.00000000000E+00  0.99999944182E+02  0.10000000000E+03  0.10566000000E+00 0.  1.
         22   -1    0    0    0    0 -0.00000000000E+00 -0.00000000000E+00 -0.33854056667E+02  0.33854056667E+02  0.00000000000E+00 0. -1.
         13    1    1    2    0    0 -0.44339122596E+00  0.12382404265E+02 -0.25710027980E+02  0.28540098702E+02  0.10566000000E+00 0. -1.
        996    1    1    2    0    0  0.44339122596E+00 -0.12382404265E+02  0.91855915495E+02  0.10531395797E+03  0.50000000000E+02 0.  0.
<mgrwt>
<rscale>  0 0.51512334E+02</rscale>
<asrwt>0</asrwt>
<pdfrwt beam="1">  1       13 0.10000000E+01 0.51512334E+02</pdfrwt>
<pdfrwt beam="2">  1       22 0.33854075E+00 0.51512334E+02</pdfrwt>
<totfact> 0.16645521E-01</totfact>
</mgrwt>
</event>
<event>
 4    1  0.2451537E+000  0.5177370E+02  0.7957747E-01  0.1436003E+00
         13   -1    0    0    0    0  0.00000000000E+00  0.00000000000E+00  0.99999944179E+02  0.99999999999E+02  0.10566000000E+00 0. -1.
         22   -1    0    0    0    0 -0.00000000000E+00 -0.00000000000E+00 -0.69911204598E+02  0.69911204598E+02  0.00000000000E+00 0.  1.
         13    1    1    2    0    0 -0.43900125006E+01  0.12698200251E+02 -0.62447165482E+02  0.63876256466E+02  0.10566000000E+00 0.  1.
        996    1    1    2    0    0  0.43900125006E+01 -0.12698200251E+02  0.92535905062E+02  0.10603494813E+03  0.50000000000E+02 0.  0.
<mgrwt>
<rscale>  0 0.51773705E+02</rscale>
<asrwt>0</asrwt>
<pdfrwt beam="1">  1       13 0.10000000E+01 0.51773705E+02</pdfrwt>
<pdfrwt beam="2">  1       22 0.69911213E+00 0.51773705E+02</pdfrwt>
<totfact> 0.75100350E-02</totfact>
</mgrwt>
</event>
<event>
 4    1  0.2451537E+000  0.5180107E+02  0.7957747E-01  0.1435862E+00
         13   -1    0    0    0    0  0.00000000000E+00  0.00000000000E+00  0.99999944178E+02  0.99999999998E+02  0.10566000000E+00 0. -1.
         22   -1    0    0    0    0 -0.00000000000E+00 -0.00000000000E+00 -0.12354637964E+02  0.12354637964E+02  0.00000000000E+00 0. -1.
         13    1    1    2    0    0  0.13325269751E+02 -0.24058309979E+01  0.42713723986E+01  0.14198824703E+02  0.10566000000E+00 0.  1.
        996    1    1    2    0    0 -0.13325269751E+02  0.24058309979E+01  0.83373933815E+02  0.98155813259E+02  0.50000000000E+02 0.  0.
<mgrwt>
<rscale>  0 0.51801070E+02</rscale>
<asrwt>0</asrwt>
<pdfrwt beam="1">  1       13 0.10000000E+01 0.51801070E+02</pdfrwt>
<pdfrwt beam="2">  1       22 0.12354662E+00 0.51801070E+02</pdfrwt>
<totfact> 0.10273533E+00</totfact>
</mgrwt>
</event>
<event>
 4    1  0.2451537E+000  0.5671744E+02  0.7957747E-01  0.1412147E+00
         13   -1    0    0    0    0  0.00000000000E+00  0.00000000000E+00  0.99999944173E+02  0.99999999993E+02  0.10566000000E+00 0.  1.
         22   -1    0    0    0    0 -0.00000000000E+00 -0.00000000000E+00 -0.20008267396E+02  0.20008267396E+02  0.00000000000E+00 0. -1.
         13    1    1    2    0    0 -0.13322584517E+02 -0.23224482619E+02  0.71942570416E+01  0.27724291687E+02  0.10566000000E+00 0. -1.
        996    1    1    2    0    0  0.13322584517E+02  0.23224482619E+02  0.72797419736E+02  0.92283975702E+02  0.50000000000E+02 0.  0.
<mgrwt>
<rscale>  0 0.56717439E+02</rscale>
<asrwt>0</asrwt>
<pdfrwt beam="1">  1       13 0.10000000E+01 0.56717439E+02</pdfrwt>
<pdfrwt beam="2">  1       22 0.20008290E+00 0.56717439E+02</pdfrwt>
<totfact> 0.45640159E-01</totfact>
</mgrwt>
</event>
<event>
 4    1  0.2451537E+000  0.5469212E+02  0.7957747E-01  0.1421561E+00
         13   -1    0    0    0    0  0.00000000000E+00  0.00000000000E+00  0.99999944182E+02  0.10000000000E+03  0.10566000000E+00 0. -1.
         22   -1    0    0    0    0 -0.00000000000E+00 -0.00000000000E+00 -0.18239926513E+02  0.18239926513E+02  0.00000000000E+00 0.  1.
         13    1    1    2    0    0  0.27573722102E+01 -0.21991464950E+02  0.30194520923E+01  0.22368636237E+02  0.10566000000E+00 0.  1.
        996    1    1    2    0    0 -0.27573722102E+01  0.21991464950E+02  0.78740565578E+02  0.95871290278E+02  0.50000000000E+02 0.  0.
<mgrwt>
<rscale>  0 0.54692117E+02</rscale>
<asrwt>0</asrwt>
<pdfrwt beam="1">  1       13 0.10000000E+01 0.54692117E+02</pdfrwt>
<pdfrwt beam="2">  1       22 0.18239949E+00 0.54692117E+02</pdfrwt>
<totfact> 0.53912600E-01</totfact>
</mgrwt>
</event>
<event>
 4    1  0.2451537E+000  0.6781351E+02  0.7957747E-01  0.1367690E+00
         13   -1    0    0    0    0  0.00000000000E+00  0.00000000000E+00  0.99999944184E+02  0.10000000000E+03  0.10566000000E+00 0. -1.
         22   -1    0    0    0    0 -0.00000000000E+00 -0.00000000000E+00 -0.38832214263E+02  0.38832214263E+02  0.00000000000E+00 0.  1.
         13    1    1    2    0    0  0.23453192448E+02 -0.39352506234E+02 -0.24121424077E+01  0.45874846898E+02  0.10566000000E+00 0.  1.
        996    1    1    2    0    0 -0.23453192448E+02  0.39352506234E+02  0.63579872329E+02  0.92957367370E+02  0.50000000000E+02 0.  0.
<mgrwt>
<rscale>  0 0.67813509E+02</rscale>
<asrwt>0</asrwt>
<pdfrwt beam="1">  1       13 0.10000000E+01 0.67813509E+02</pdfrwt>
<pdfrwt beam="2">  1       22 0.38832231E+00 0.67813509E+02</pdfrwt>
<totfact> 0.13222022E-01</totfact>
</mgrwt>
</event>
<event>
 4    1  0.2451537E+000  0.6645281E+02  0.7957747E-01  0.1372588E+00
         13   -1    0    0    0    0  0.00000000000E+00  0.00000000000E+00  0.99999944176E+02  0.99999999996E+02  0.10566000000E+00 0.  1.
         22   -1    0    0    0    0 -0.00000000000E+00 -0.00000000000E+00 -0.35667325527E+02  0.35667325527E+02  0.00000000000E+00 0. -1.
         13    1    1    2    0    0  0.29271854996E+01 -0.43673870452E+02  0.87254951252E+00  0.43780679322E+02  0.10566000000E+00 0. -1.
        996    1    1    2    0    0 -0.29271854996E+01  0.43673870452E+02  0.63460069137E+02  0.91886646201E+02  0.50000000000E+02 0.  0.
<mgrwt>
<rscale>  0 0.66452806E+02</rscale>
<asrwt>0</asrwt>
<pdfrwt beam="1">  1       13 0.10000000E+01 0.66452806E+02</pdfrwt>
<pdfrwt beam="2">  1       22 0.35667343E+00 0.66452806E+02</pdfrwt>
<totfact> 0.15399696E-01</totfact>
</mgrwt>
</event>
<event>
 4    1  0.2451537E+000  0.5166928E+02  0.7957747E-01  0.1436540E+00
         13   -1    0    0    0    0  0.00000000000E+00  0.00000000000E+00  0.99999944188E+02  0.10000000001E+03  0.10566000000E+00 0. -1.
         22   -1    0    0    0    0 -0.00000000000E+00 -0.00000000000E+00 -0.18287913476E+02  0.18287913476E+02  0.00000000000E+00 0.  1.
         13    1    1    2    0    0  0.12796481712E+02 -0.24422401031E+01 -0.76176058385E+01  0.15091506342E+02  0.10566000000E+00 0.  1.
        996    1    1    2    0    0 -0.12796481712E+02  0.24422401031E+01  0.89329636551E+02  0.10319640714E+03  0.50000000000E+02 0.  0.
<mgrwt>
<rscale>  0 0.51669280E+02</rscale>
<asrwt>0</asrwt>
<pdfrwt beam="1">  1       13 0.10000000E+01 0.51669280E+02</pdfrwt>
<pdfrwt beam="2">  1       22 0.18287936E+00 0.51669280E+02</pdfrwt>
<totfact> 0.53361362E-01</totfact>
</mgrwt>
</event>
<event>
 4    1  0.2451537E+000  0.5481201E+02  0.7957747E-01  0.1420990E+00
         13   -1    0    0    0    0  0.00000000000E+00  0.00000000000E+00  0.99999944176E+02  0.99999999996E+02  0.10566000000E+00 0.  1.
         22   -1    0    0    0    0 -0.00000000000E+00 -0.00000000000E+00 -0.14940165486E+02  0.14940165486E+02  0.00000000000E+00 0. -1.
         13    1    1    2    0    0  0.16424900681E+02  0.15315990673E+02  0.23169446347E+02  0.32267496660E+02  0.10566000000E+00 0. -1.
        996    1    1    2    0    0 -0.16424900681E+02 -0.15315990673E+02  0.61890332343E+02  0.82672668822E+02  0.50000000000E+02 0.  0.
<mgrwt>
<rscale>  0 0.54812014E+02</rscale>
<asrwt>0</asrwt>
<pdfrwt beam="1">  1       13 0.10000000E+01 0.54812014E+02</pdfrwt>
<pdfrwt beam="2">  1       22 0.14940189E+00 0.54812014E+02</pdfrwt>
<totfact> 0.76219897E-01</totfact>
</mgrwt>
</event>
<event>
 4    1  0.2451537E+000  0.5692933E+02  0.7957747E-01  0.1411189E+00
         13   -1    0    0    0    0  0.00000000000E+00  0.00000000000E+00  0.99999944182E+02  0.10000000000E+03  0.10566000000E+00 0. -1.
         22   -1    0    0    0    0 -0.00000000000E+00 -0.00000000000E+00 -0.50418524820E+02  0.50418524820E+02  0.00000000000E+00 0.  1.
         13    1    1    2    0    0 -0.18891487549E+02 -0.19597466828E+02 -0.37525195415E+02  0.46358391505E+02  0.10566000000E+00 0.  1.
        996    1    1    2    0    0  0.18891487549E+02  0.19597466828E+02  0.87106614778E+02  0.10406013332E+03  0.50000000000E+02 0.  0.
<mgrwt>
<rscale>  0 0.56929333E+02</rscale>
<asrwt>0</asrwt>
<pdfrwt beam="1">  1       13 0.10000000E+01 0.56929333E+02</pdfrwt>
<pdfrwt beam="2">  1       22 0.50418539E+00 0.56929333E+02</pdfrwt>
<totfact> 0.72097322E-02</totfact>
</mgrwt>
</event>
<event>
 4    1  0.2451537E+000  0.5117087E+02  0.7957747E-01  0.1439127E+00
         13   -1    0    0    0    0  0.00000000000E+00  0.00000000000E+00  0.99999944183E+02  0.10000000000E+03  0.10566000000E+00 0. -1.
         22   -1    0    0    0    0 -0.00000000000E+00 -0.00000000000E+00 -0.12920320022E+02  0.12920320022E+02  0.00000000000E+00 0. -1.
         13    1    1    2    0    0  0.40166697659E+01  0.10115563950E+02 -0.11300248087E+01  0.10942869374E+02  0.10566000000E+00 0.  1.
        996    1    1    2    0    0 -0.40166697659E+01 -0.10115563950E+02  0.88209648969E+02  0.10197745065E+03  0.50000000000E+02 0.  0.
<mgrwt>
<rscale>  0 0.51170873E+02</rscale>
<asrwt>0</asrwt>
<pdfrwt beam="1">  1       13 0.10000000E+01 0.51170873E+02</pdfrwt>
<pdfrwt beam="2">  1       22 0.12920344E+00 0.51170873E+02</pdfrwt>
<totfact> 0.95675572E-01</totfact>
</mgrwt>
</event>
<event>
 4    1  0.2451537E+000  0.7057470E+02  0.7957747E-01  0.1358150E+00
         13   -1    0    0    0    0  0.00000000000E+00  0.00000000000E+00  0.99999944178E+02  0.99999999998E+02  0.10566000000E+00 0.  1.
         22   -1    0    0    0    0 -0.00000000000E+00 -0.00000000000E+00 -0.59851586669E+02  0.59851586669E+02  0.00000000000E+00 0. -1.
         13    1    1    2    0    0 -0.12825415074E+02  0.48127925364E+02 -0.31779552076E+02  0.59082481040E+02  0.10566000000E+00 0. -1.
        996    1    1    2    0    0  0.12825415074E+02 -0.48127925364E+02  0.71927909585E+02  0.10076910563E+03  0.50000000000E+02 0.  0.
<mgrwt>
<rscale>  0 0.70574701E+02</rscale>
<asrwt>0</asrwt>
<pdfrwt beam="1">  1       13 0.10000000E+01 0.70574701E+02</pdfrwt>
<pdfrwt beam="2">  1       22 0.59851598E+00 0.70574701E+02</pdfrwt>
<totfact> 0.63188643E-02</totfact>
</mgrwt>
</event>
<event>
 4    1  0.2451537E+000  0.5118180E+02  0.7957747E-01  0.1439070E+00
         13   -1    0    0    0    0  0.00000000000E+00  0.00000000000E+00  0.99999944181E+02  0.10000000000E+03  0.10566000000E+00 0.  1.
         22   -1    0    0    0    0 -0.00000000000E+00 -0.00000000000E+00 -0.13123699638E+02  0.13123699638E+02  0.00000000000E+00 0.  1.
         13    1    1    2    0    0 -0.83544300584E+01  0.70555225557E+01  0.46961345787E+02  0.48217798190E+02  0.10566000000E+00 0. -1.
        996    1    1    2    0    0  0.83544300584E+01 -0.70555225557E+01  0.39914898756E+02  0.64905901449E+02  0.50000000000E+02 0.  0.
<mgrwt>
<rscale>  0 0.51181802E+02</rscale>
<asrwt>0</asrwt>
<pdfrwt beam="1">  1       13 0.10000000E+01 0.51181802E+02</pdfrwt>
<pdfrwt beam="2">  1       22 0.13123724E+00 0.51181802E+02</pdfrwt>
<totfact> 0.93351928E-01</totfact>
</mgrwt>
</event>
<event>
 4    1  0.2451537E+000  0.5297902E+02  0.7957747E-01  0.1429905E+00
         13   -1    0    0    0    0  0.00000000000E+00  0.00000000000E+00  0.99999944176E+02  0.99999999996E+02  0.10566000000E+00 0. -1.
         22   -1    0    0    0    0 -0.00000000000E+00 -0.00000000000E+00 -0.16367196817E+02  0.16367196817E+02  0.00000000000E+00 0.  1.
         13    1    1    2    0    0 -0.17505833429E+02  0.56782890523E+00  0.17778438059E+00  0.17516261160E+02  0.10566000000E+00 0.  1.
        996    1    1    2    0    0  0.17505833429E+02 -0.56782890523E+00  0.83454962978E+02  0.98850935653E+02  0.50000000000E+02 0.  0.
<mgrwt>
<rscale>  0 0.52979021E+02</rscale>
<asrwt>0</asrwt>
<pdfrwt beam="1">  1       13 0.10000000E+01 0.52979021E+02</pdfrwt>
<pdfrwt beam="2">  1       22 0.16367220E+00 0.52979021E+02</pdfrwt>
<totfact> 0.65068035E-01</totfact>
</mgrwt>
</event>
<event>
 4    1  0.2451537E+000  0.5242914E+02  0.7957747E-01  0.1432663E+00
         13   -1    0    0    0    0  0.00000000000E+00  0.00000000000E+00  0.99999944177E+02  0.99999999997E+02  0.10566000000E+00 0. -1.
         22   -1    0    0    0    0 -0.00000000000E+00 -0.00000000000E+00 -0.13055789822E+02  0.13055789822E+02  0.00000000000E+00 0. -1.
         13    1    1    2    0    0 -0.10743895289E+02 -0.11549186428E+02  0.65579821203E+01  0.17083128714E+02  0.10566000000E+00 0.  1.
        996    1    1    2    0    0  0.10743895289E+02  0.11549186428E+02  0.80386172235E+02  0.95972661106E+02  0.50000000000E+02 0.  0.
<mgrwt>
<rscale>  0 0.52429143E+02</rscale>
<asrwt>0</asrwt>
<pdfrwt beam="1">  1       13 0.10000000E+01 0.52429143E+02</pdfrwt>
<pdfrwt beam="2">  1       22 0.13055814E+00 0.52429143E+02</pdfrwt>
<totfact> 0.94374828E-01</totfact>
</mgrwt>
</event>
<event>
 4    1  0.2451537E+000  0.5114996E+02  0.7957747E-01  0.1439236E+00
         13   -1    0    0    0    0  0.00000000000E+00  0.00000000000E+00  0.99999944177E+02  0.99999999997E+02  0.10566000000E+00 0. -1.
         22   -1    0    0    0    0 -0.00000000000E+00 -0.00000000000E+00 -0.10020570485E+02  0.10020570485E+02  0.00000000000E+00 0. -1.
         13    1    1    2    0    0  0.74709021608E+01 -0.77784319707E+01  0.81443148108E+01  0.13515154856E+02  0.10566000000E+00 0.  1.
        996    1    1    2    0    0 -0.74709021608E+01  0.77784319707E+01  0.81835058881E+02  0.96505415626E+02  0.50000000000E+02 0.  0.
<mgrwt>
<rscale>  0 0.51149960E+02</rscale>
<asrwt>0</asrwt>
<pdfrwt beam="1">  1       13 0.10000000E+01 0.51149960E+02</pdfrwt>
<pdfrwt beam="2">  1       22 0.10020596E+00 0.51149960E+02</pdfrwt>
<totfact> 0.14027081E+00</totfact>
</mgrwt>
</event>
<event>
 4    1  0.2451537E+000  0.5136374E+02  0.7957747E-01  0.1438122E+00
         13   -1    0    0    0    0  0.00000000000E+00  0.00000000000E+00  0.99999944179E+02  0.10000000000E+03  0.10566000000E+00 0. -1.
         22   -1    0    0    0    0 -0.00000000000E+00 -0.00000000000E+00 -0.10700075509E+02  0.10700075509E+02  0.00000000000E+00 0. -1.
         13    1    1    2    0    0 -0.15719843621E+01  0.11651722051E+02  0.69898183979E+01  0.13678541109E+02  0.10566000000E+00 0.  1.
        996    1    1    2    0    0  0.15719843621E+01 -0.11651722051E+02  0.82310050272E+02  0.97021534400E+02  0.50000000000E+02 0.  0.
<mgrwt>
<rscale>  0 0.51363740E+02</rscale>
<asrwt>0</asrwt>
<pdfrwt beam="1">  1       13 0.10000000E+01 0.51363740E+02</pdfrwt>
<pdfrwt beam="2">  1       22 0.10700100E+00 0.51363740E+02</pdfrwt>
<totfact> 0.12750740E+00</totfact>
</mgrwt>
</event>
<event>
 4    1  0.2451537E+000  0.5157466E+02  0.7957747E-01  0.1437029E+00
         13   -1    0    0    0    0  0.00000000000E+00  0.00000000000E+00  0.99999944180E+02  0.10000000000E+03  0.10566000000E+00 0. -1.
         22   -1    0    0    0    0 -0.00000000000E+00 -0.00000000000E+00 -0.10424422809E+02  0.10424422809E+02  0.00000000000E+00 0. -1.
         13    1    1    2    0    0 -0.12399878270E+02  0.24875934754E+01  0.22527278534E+02  0.25834754587E+02  0.10566000000E+00 0.  1.
        996    1    1    2    0    0  0.12399878270E+02 -0.24875934754E+01  0.67048242838E+02  0.84589668223E+02  0.50000000000E+02 0.  0.
<mgrwt>
<rscale>  0 0.51574656E+02</rscale>
<asrwt>0</asrwt>
<pdfrwt beam="1">  1       13 0.10000000E+01 0.51574656E+02</pdfrwt>
<pdfrwt beam="2">  1       22 0.10424448E+00 0.51574656E+02</pdfrwt>
<totfact> 0.13256091E+00</totfact>
</mgrwt>
</event>
<event>
 4    1  0.2451537E+000  0.5201240E+02  0.7957747E-01  0.1434780E+00
         13   -1    0    0    0    0  0.00000000000E+00  0.00000000000E+00  0.99999944179E+02  0.99999999999E+02  0.10566000000E+00 0. -1.
         22   -1    0    0    0    0 -0.00000000000E+00 -0.00000000000E+00 -0.11162367517E+02  0.11162367517E+02  0.00000000000E+00 0. -1.
         13    1    1    2    0    0 -0.11143342404E+02  0.90064185533E+01  0.14058674474E+02  0.20073543461E+02  0.10566000000E+00 0.  1.
        996    1    1    2    0    0  0.11143342404E+02 -0.90064185533E+01  0.74778902188E+02  0.91088824054E+02  0.50000000000E+02 0.  0.
<mgrwt>
<rscale>  0 0.52012399E+02</rscale>
<asrwt>0</asrwt>
<pdfrwt beam="1">  1       13 0.10000000E+01 0.52012399E+02</pdfrwt>
<pdfrwt beam="2">  1       22 0.11162392E+00 0.52012399E+02</pdfrwt>
<totfact> 0.11992660E+00</totfact>
</mgrwt>
</event>
<event>
 4    1  0.2451537E+000  0.5099799E+02  0.7957747E-01  0.1440032E+00
         13   -1    0    0    0    0  0.00000000000E+00  0.00000000000E+00  0.99999944173E+02  0.99999999993E+02  0.10566000000E+00 0.  1.
         22   -1    0    0    0    0 -0.00000000000E+00 -0.00000000000E+00 -0.10150304459E+02  0.10150304459E+02  0.00000000000E+00 0.  1.
         13    1    1    2    0    0  0.60801678993E+01 -0.79891276143E+01  0.29372087442E+02  0.31040703705E+02  0.10566000000E+00 0. -1.
        996    1    1    2    0    0 -0.60801678993E+01  0.79891276143E+01  0.60477552271E+02  0.79109600748E+02  0.50000000000E+02 0.  0.
<mgrwt>
<rscale>  0 0.50997986E+02</rscale>
<asrwt>0</asrwt>
<pdfrwt beam="1">  1       13 0.10000000E+01 0.50997986E+02</pdfrwt>
<pdfrwt beam="2">  1       22 0.10150330E+00 0.50997986E+02</pdfrwt>
<totfact> 0.13762576E+00</totfact>
</mgrwt>
</event>
<event>
 4    1  0.2451537E+000  0.5167431E+02  0.7957747E-01  0.1436514E+00
         13   -1    0    0    0    0  0.00000000000E+00  0.00000000000E+00  0.99999944176E+02  0.99999999996E+02  0.10566000000E+00 0. -1.
         22   -1    0    0    0    0 -0.00000000000E+00 -0.00000000000E+00 -0.20686737133E+02  0.20686737133E+02  0.00000000000E+00 0. -1.
         13    1    1    2    0    0  0.11367075115E+02 -0.64050294298E+01 -0.10714264933E+02  0.16883170192E+02  0.10566000000E+00 0.  1.
        996    1    1    2    0    0 -0.11367075115E+02  0.64050294298E+01  0.90027471975E+02  0.10380356694E+03  0.50000000000E+02 0.  0.
<mgrwt>
<rscale>  0 0.51674315E+02</rscale>
<asrwt>0</asrwt>
<pdfrwt beam="1">  1       13 0.10000000E+01 0.51674315E+02</pdfrwt>
<pdfrwt beam="2">  1       22 0.20686759E+00 0.51674315E+02</pdfrwt>
<totfact> 0.42502292E-01</totfact>
</mgrwt>
</event>
<event>
 4    1  0.2451537E+000  0.5246034E+02  0.7957747E-01  0.1432506E+00
         13   -1    0    0    0    0  0.00000000000E+00  0.00000000000E+00  0.99999944169E+02  0.99999999990E+02  0.10566000000E+00 0.  1.
         22   -1    0    0    0    0 -0.00000000000E+00 -0.00000000000E+00 -0.24692303479E+02  0.24692303479E+02  0.00000000000E+00 0. -1.
         13    1    1    2    0    0  0.14869070112E+02 -0.55675659023E+01 -0.13965987910E+02  0.21145851092E+02  0.10566000000E+00 0. -1.
        996    1    1    2    0    0 -0.14869070112E+02  0.55675659023E+01  0.89273628601E+02  0.10354645238E+03  0.50000000000E+02 0.  0.
<mgrwt>
<rscale>  0 0.52460338E+02</rscale>
<asrwt>0</asrwt>
<pdfrwt beam="1">  1       13 0.10000000E+01 0.52460338E+02</pdfrwt>
<pdfrwt beam="2">  1       22 0.24692325E+00 0.52460338E+02</pdfrwt>
<totfact> 0.30227976E-01</totfact>
</mgrwt>
</event>
<event>
 4    1  0.2451537E+000  0.5543455E+02  0.7957747E-01  0.1418055E+00
         13   -1    0    0    0    0  0.00000000000E+00  0.00000000000E+00  0.99999944175E+02  0.99999999995E+02  0.10566000000E+00 0. -1.
         22   -1    0    0    0    0 -0.00000000000E+00 -0.00000000000E+00 -0.69759325407E+02  0.69759325407E+02  0.00000000000E+00 0.  1.
         13    1    1    2    0    0 -0.18169100960E+02 -0.15584381948E+02 -0.59580451526E+02  0.64209271592E+02  0.10566000000E+00 0.  1.
        996    1    1    2    0    0  0.18169100960E+02  0.15584381948E+02  0.89821070294E+02  0.10555005381E+03  0.50000000000E+02 0.  0.
<mgrwt>
<rscale>  0 0.55434549E+02</rscale>
<asrwt>0</asrwt>
<pdfrwt beam="1">  1       13 0.10000000E+01 0.55434549E+02</pdfrwt>
<pdfrwt beam="2">  1       22 0.69759334E+00 0.55434549E+02</pdfrwt>
<totfact> 0.75857297E-02</totfact>
</mgrwt>
</event>
<event>
 4    1  0.2451537E+000  0.5128083E+02  0.7957747E-01  0.1438553E+00
         13   -1    0    0    0    0  0.00000000000E+00  0.00000000000E+00  0.99999944181E+02  0.10000000000E+03  0.10566000000E+00 0.  1.
         22   -1    0    0    0    0 -0.00000000000E+00 -0.00000000000E+00 -0.15199855597E+02  0.15199855597E+02  0.00000000000E+00 0. -1.
         13    1    1    2    0    0  0.75971397309E+01 -0.84857211176E+01 -0.44806889090E+01  0.12239760296E+02  0.10566000000E+00 0. -1.
        996    1    1    2    0    0 -0.75971397309E+01  0.84857211176E+01  0.89280777492E+02  0.10296009530E+03  0.50000000000E+02 0.  0.
<mgrwt>
<rscale>  0 0.51280835E+02</rscale>
<asrwt>0</asrwt>
<pdfrwt beam="1">  1       13 0.10000000E+01 0.51280835E+02</pdfrwt>
<pdfrwt beam="2">  1       22 0.15199879E+00 0.51280835E+02</pdfrwt>
<totfact> 0.73538624E-01</totfact>
</mgrwt>
</event>
<event>
 4    1  0.2451537E+000  0.7138163E+02  0.7957747E-01  0.1355457E+00
         13   -1    0    0    0    0  0.00000000000E+00  0.00000000000E+00  0.99999944183E+02  0.10000000000E+03  0.10566000000E+00 0.  1.
         22   -1    0    0    0    0 -0.00000000000E+00 -0.00000000000E+00 -0.56957236238E+02  0.56957236238E+02  0.00000000000E+00 0. -1.
         13    1    1    2    0    0  0.46872584196E+02  0.19957399314E+02 -0.26392497243E+02  0.57375186373E+02  0.10566000000E+00 0. -1.
        996    1    1    2    0    0 -0.46872584196E+02 -0.19957399314E+02  0.69435205187E+02  0.99582049868E+02  0.50000000000E+02 0.  0.
<mgrwt>
<rscale>  0 0.71381629E+02</rscale>
<asrwt>0</asrwt>
<pdfrwt beam="1">  1       13 0.10000000E+01 0.71381629E+02</pdfrwt>
<pdfrwt beam="2">  1       22 0.56957248E+00 0.71381629E+02</pdfrwt>
<totfact> 0.58060444E-02</totfact>
</mgrwt>
</event>
<event>
 4    1  0.2451537E+000  0.5222209E+02  0.7957747E-01  0.1433712E+00
         13   -1    0    0    0    0  0.00000000000E+00  0.00000000000E+00  0.99999944178E+02  0.99999999999E+02  0.10566000000E+00 0. -1.
         22   -1    0    0    0    0 -0.00000000000E+00 -0.00000000000E+00 -0.11322693316E+02  0.11322693316E+02  0.00000000000E+00 0. -1.
         13    1    1    2    0    0 -0.48924113663E+01  0.14255224351E+02  0.20408692745E+02  0.25370711734E+02  0.10566000000E+00 0.  1.
        996    1    1    2    0    0  0.48924113663E+01 -0.14255224351E+02  0.68268558117E+02  0.85951981581E+02  0.50000000000E+02 0.  0.
<mgrwt>
<rscale>  0 0.52222094E+02</rscale>
<asrwt>0</asrwt>
<pdfrwt beam="1">  1       13 0.10000000E+01 0.52222094E+02</pdfrwt>
<pdfrwt beam="2">  1       22 0.11322718E+00 0.52222094E+02</pdfrwt>
<totfact> 0.11744824E+00</totfact>
</mgrwt>
</event>
<event>
 4    1  0.2451537E+000  0.6906066E+02  0.7957747E-01  0.1363317E+00
         13   -1    0    0    0    0  0.00000000000E+00  0.00000000000E+00  0.99999944178E+02  0.99999999998E+02  0.10566000000E+00 0. -1.
         22   -1    0    0    0    0 -0.00000000000E+00 -0.00000000000E+00 -0.42263288738E+02  0.42263288738E+02  0.00000000000E+00 0.  1.
         13    1    1    2    0    0 -0.37583296695E+02 -0.29272340263E+02 -0.63362479695E+01  0.48057603949E+02  0.10566000000E+00 0.  1.
        996    1    1    2    0    0  0.37583296695E+02  0.29272340263E+02  0.64072903410E+02  0.94205684787E+02  0.50000000000E+02 0.  0.
<mgrwt>
<rscale>  0 0.69060655E+02</rscale>
<asrwt>0</asrwt>
<pdfrwt beam="1">  1       13 0.10000000E+01 0.69060655E+02</pdfrwt>
<pdfrwt beam="2">  1       22 0.42263305E+00 0.69060655E+02</pdfrwt>
<totfact> 0.11205190E-01</totfact>
</mgrwt>
</event>
<event>
 4    1  0.2451537E+000  0.5382091E+02  0.7957747E-01  0.1425759E+00
         13   -1    0    0    0    0  0.00000000000E+00  0.00000000000E+00  0.99999944176E+02  0.99999999997E+02  0.10566000000E+00 0. -1.
         22   -1    0    0    0    0 -0.00000000000E+00 -0.00000000000E+00 -0.23538118688E+02  0.23538118688E+02  0.00000000000E+00 0. -1.
         13    1    1    2    0    0 -0.15392527871E+02 -0.12639647844E+02 -0.95395616842E+01  0.22084044309E+02  0.10566000000E+00 0.  1.
        996    1    1    2    0    0  0.15392527871E+02  0.12639647844E+02  0.86001387172E+02  0.10145407438E+03  0.50000000000E+02 0.  0.
<mgrwt>
<rscale>  0 0.53820912E+02</rscale>
<asrwt>0</asrwt>
<pdfrwt beam="1">  1       13 0.10000000E+01 0.53820912E+02</pdfrwt>
<pdfrwt beam="2">  1       22 0.23538140E+00 0.53820912E+02</pdfrwt>
<totfact> 0.33274176E-01</totfact>
</mgrwt>
</event>
<event>
 4    1  0.2451537E+000  0.5200340E+02  0.7957747E-01  0.1434826E+00
         13   -1    0    0    0    0  0.00000000000E+00  0.00000000000E+00  0.99999944178E+02  0.99999999998E+02  0.10566000000E+00 0.  1.
         22   -1    0    0    0    0 -0.00000000000E+00 -0.00000000000E+00 -0.13090194255E+02  0.13090194255E+02  0.00000000000E+00 0.  1.
         13    1    1    2    0    0  0.13392699793E+02  0.49989536507E+01  0.42043152285E+02  0.44407113884E+02  0.10566000000E+00 0. -1.
        996    1    1    2    0    0 -0.13392699793E+02 -0.49989536507E+01  0.44866597638E+02  0.68683080369E+02  0.50000000000E+02 0.  0.
<mgrwt>
<rscale>  0 0.52003403E+02</rscale>
<asrwt>0</asrwt>
<pdfrwt beam="1">  1       13 0.10000000E+01 0.52003403E+02</pdfrwt>
<pdfrwt beam="2">  1       22 0.13090219E+00 0.52003403E+02</pdfrwt>
<totfact> 0.93897437E-01</totfact>
</mgrwt>
</event>
<event>
 4    1  0.2451537E+000  0.5163903E+02  0.7957747E-01  0.1436696E+00
         13   -1    0    0    0    0  0.00000000000E+00  0.00000000000E+00  0.99999944177E+02  0.99999999997E+02  0.10566000000E+00 0.  1.
         22   -1    0    0    0    0 -0.00000000000E+00 -0.00000000000E+00 -0.24085030112E+02  0.24085030112E+02  0.00000000000E+00 0. -1.
         13    1    1    2    0    0 -0.46721062071E+01  0.12031657380E+02 -0.14839687931E+02  0.19667660198E+02  0.10566000000E+00 0. -1.
        996    1    1    2    0    0  0.46721062071E+01 -0.12031657380E+02  0.90754601996E+02  0.10441736991E+03  0.50000000000E+02 0.  0.
<mgrwt>
<rscale>  0 0.51639029E+02</rscale>
<asrwt>0</asrwt>
<pdfrwt beam="1">  1       13 0.10000000E+01 0.51639029E+02</pdfrwt>
<pdfrwt beam="2">  1       22 0.24085051E+00 0.51639029E+02</pdfrwt>
<totfact> 0.31700489E-01</totfact>
</mgrwt>
</event>
<event>
 4    1  0.2451537E+000  0.7211451E+02  0.7957747E-01  0.1353047E+00
         13   -1    0    0    0    0  0.00000000000E+00  0.00000000000E+00  0.99999944176E+02  0.99999999996E+02  0.10566000000E+00 0.  1.
         22   -1    0    0    0    0 -0.00000000000E+00 -0.00000000000E+00 -0.50002021515E+02  0.50002021515E+02  0.00000000000E+00 0. -1.
         13    1    1    2    0    0  0.13016708889E+02 -0.50309717113E+02 -0.13745655106E+02  0.53753665406E+02  0.10566000000E+00 0. -1.
        996    1    1    2    0    0 -0.13016708889E+02  0.50309717113E+02  0.63743577767E+02  0.96248356104E+02  0.50000000000E+02 0.  0.
<mgrwt>
<rscale>  0 0.72114509E+02</rscale>
<asrwt>0</asrwt>
<pdfrwt beam="1">  1       13 0.10000000E+01 0.72114509E+02</pdfrwt>
<pdfrwt beam="2">  1       22 0.50002035E+00 0.72114509E+02</pdfrwt>
<totfact> 0.74167880E-02</totfact>
</mgrwt>
</event>
<event>
 4    1  0.2451537E+000  0.5173991E+02  0.7957747E-01  0.1436177E+00
         13   -1    0    0    0    0  0.00000000000E+00  0.00000000000E+00  0.99999944173E+02  0.99999999993E+02  0.10566000000E+00 0.  1.
         22   -1    0    0    0    0 -0.00000000000E+00 -0.00000000000E+00 -0.17107763954E+02  0.17107763954E+02  0.00000000000E+00 0.  1.
         13    1    1    2    0    0 -0.12220270637E+02  0.52614911065E+01 -0.57307297175E+01  0.14486915829E+02  0.10566000000E+00 0. -1.
        996    1    1    2    0    0  0.12220270637E+02 -0.52614911065E+01  0.88622909936E+02  0.10262084812E+03  0.50000000000E+02 0.  0.
<mgrwt>
<rscale>  0 0.51739910E+02</rscale>
<asrwt>0</asrwt>
<pdfrwt beam="1">  1       13 0.10000000E+01 0.51739910E+02</pdfrwt>
<pdfrwt beam="2">  1       22 0.17107787E+00 0.51739910E+02</pdfrwt>
<totfact> 0.60097847E-01</totfact>
</mgrwt>
</event>
<event>
 4    1  0.2451537E+000  0.5104109E+02  0.7957747E-01  0.1439806E+00
         13   -1    0    0    0    0  0.00000000000E+00  0.00000000000E+00  0.99999944183E+02  0.10000000000E+03  0.10566000000E+00 0.  1.
         22   -1    0    0    0    0 -0.00000000000E+00 -0.00000000000E+00 -0.23254986168E+02  0.23254986168E+02  0.00000000000E+00 0. -1.
         13    1    1    2    0    0  0.73874402844E+01  0.71146809288E+01 -0.15056580226E+02  0.18218252683E+02  0.10566000000E+00 0. -1.
        996    1    1    2    0    0 -0.73874402844E+01 -0.71146809288E+01  0.91801538241E+02  0.10503673349E+03  0.50000000000E+02 0.  0.
<mgrwt>
<rscale>  0 0.51041091E+02</rscale>
<asrwt>0</asrwt>
<pdfrwt beam="1">  1       13 0.10000000E+01 0.51041091E+02</pdfrwt>
<pdfrwt beam="2">  1       22 0.23255008E+00 0.51041091E+02</pdfrwt>
<totfact> 0.33915182E-01</totfact>
</mgrwt>
</event>
<event>
 4    1  0.2451537E+000  0.5191478E+02  0.7957747E-01  0.1435279E+00
         13   -1    0    0    0    0  0.00000000000E+00  0.00000000000E+00  0.99999944179E+02  0.99999999999E+02  0.10566000000E+00 0. -1.
         22   -1    0    0    0    0 -0.00000000000E+00 -0.00000000000E+00 -0.31750926393E+02  0.31750926393E+02  0.00000000000E+00 0.  1.
         13    1    1    2    0    0 -0.12385030334E+02 -0.64618710693E+01 -0.22917205746E+02  0.26839415741E+02  0.10566000000E+00 0.  1.
        996    1    1    2    0    0  0.12385030334E+02  0.64618710693E+01  0.91166223532E+02  0.10491151065E+03  0.50000000000E+02 0.  0.
<mgrwt>
<rscale>  0 0.51914784E+02</rscale>
<asrwt>0</asrwt>
<pdfrwt beam="1">  1       13 0.10000000E+01 0.51914784E+02</pdfrwt>
<pdfrwt beam="2">  1       22 0.31750945E+00 0.51914784E+02</pdfrwt>
<totfact> 0.18656339E-01</totfact>
</mgrwt>
</event>
<event>
 4    1  0.2451537E+000  0.5102608E+02  0.7957747E-01  0.1439884E+00
         13   -1    0    0    0    0  0.00000000000E+00  0.00000000000E+00  0.99999944185E+02  0.10000000000E+03  0.10566000000E+00 0. -1.
         22   -1    0    0    0    0 -0.00000000000E+00 -0.00000000000E+00 -0.94386008193E+01  0.94386008193E+01  0.00000000000E+00 0. -1.
         13    1    1    2    0    0  0.96872194603E+01 -0.31334365551E+01  0.11712546298E+02  0.15519521589E+02  0.10566000000E+00 0.  1.
        996    1    1    2    0    0 -0.96872194603E+01  0.31334365551E+01  0.78848797067E+02  0.93919079235E+02  0.50000000000E+02 0.  0.
<mgrwt>
<rscale>  0 0.51026078E+02</rscale>
<asrwt>0</asrwt>
<pdfrwt beam="1">  1       13 0.10000000E+01 0.51026078E+02</pdfrwt>
<pdfrwt beam="2">  1       22 0.94386261E-01 0.51026078E+02</pdfrwt>
<totfact> 0.15282187E+00</totfact>
</mgrwt>
</event>
<event>
 4    1  0.2451537E+000  0.6398024E+02  0.7957747E-01  0.1381849E+00
         13   -1    0    0    0    0  0.00000000000E+00  0.00000000000E+00  0.99999944179E+02  0.99999999999E+02  0.10566000000E+00 0.  1.
         22   -1    0    0    0    0 -0.00000000000E+00 -0.00000000000E+00 -0.27121932420E+02  0.27121932420E+02  0.00000000000E+00 0.  1.
         13    1    1    2    0    0  0.11134038180E+02  0.38334119725E+02  0.23685359513E+02  0.46416365224E+02  0.10566000000E+00 0. -1.
        996    1    1    2    0    0 -0.11134038180E+02 -0.38334119725E+02  0.49192652246E+02  0.80705567195E+02  0.50000000000E+02 0.  0.
<mgrwt>
<rscale>  0 0.63980243E+02</rscale>
<asrwt>0</asrwt>
<pdfrwt beam="1">  1       13 0.10000000E+01 0.63980243E+02</pdfrwt>
<pdfrwt beam="2">  1       22 0.27121953E+00 0.63980243E+02</pdfrwt>
<totfact> 0.25518176E-01</totfact>
</mgrwt>
</event>
<event>
 4    1  0.2451537E+000  0.5200068E+02  0.7957747E-01  0.1434840E+00
         13   -1    0    0    0    0  0.00000000000E+00  0.00000000000E+00  0.99999944184E+02  0.10000000000E+03  0.10566000000E+00 0.  1.
         22   -1    0    0    0    0 -0.00000000000E+00 -0.00000000000E+00 -0.63411158223E+02  0.63411158223E+02  0.00000000000E+00 0. -1.
         13    1    1    2    0    0  0.14181635164E+02 -0.17181490964E+01 -0.55687914281E+02  0.57491092991E+02  0.10566000000E+00 0. -1.
        996    1    1    2    0    0 -0.14181635164E+02  0.17181490964E+01  0.92276700242E+02  0.10592006524E+03  0.50000000000E+02 0.  0.
<mgrwt>
<rscale>  0 0.52000681E+02</rscale>
<asrwt>0</asrwt>
<pdfrwt beam="1">  1       13 0.10000000E+01 0.52000681E+02</pdfrwt>
<pdfrwt beam="2">  1       22 0.63411168E+00 0.52000681E+02</pdfrwt>
<totfact> 0.80835007E-02</totfact>
</mgrwt>
</event>
<event>
 4    1  0.2451537E+000  0.5703310E+02  0.7957747E-01  0.1410722E+00
         13   -1    0    0    0    0  0.00000000000E+00  0.00000000000E+00  0.99999944169E+02  0.99999999989E+02  0.10566000000E+00 0.  1.
         22   -1    0    0    0    0 -0.00000000000E+00 -0.00000000000E+00 -0.18073799506E+02  0.18073799506E+02  0.00000000000E+00 0.  1.
         13    1    1    2    0    0 -0.26987540552E+02  0.49443618234E+01  0.20475585441E+02  0.34234994115E+02  0.10566000000E+00 0. -1.
        996    1    1    2    0    0  0.26987540552E+02 -0.49443618234E+01  0.61450559221E+02  0.83838805380E+02  0.50000000000E+02 0.  0.
<mgrwt>
<rscale>  0 0.57033096E+02</rscale>
<asrwt>0</asrwt>
<pdfrwt beam="1">  1       13 0.10000000E+01 0.57033096E+02</pdfrwt>
<pdfrwt beam="2">  1       22 0.18073822E+00 0.57033096E+02</pdfrwt>
<totfact> 0.55032668E-01</totfact>
</mgrwt>
</event>
<event>
 4    1  0.2451537E+000  0.5125569E+02  0.7957747E-01  0.1438684E+00
         13   -1    0    0    0    0  0.00000000000E+00  0.00000000000E+00  0.99999944183E+02  0.10000000000E+03  0.10566000000E+00 0.  1.
         22   -1    0    0    0    0 -0.00000000000E+00 -0.00000000000E+00 -0.11291816663E+02  0.11291816663E+02  0.00000000000E+00 0. -1.
         13    1    1    2    0    0  0.30787144789E+01 -0.10847455883E+02  0.34140308492E+01  0.11781873903E+02  0.10566000000E+00 0. -1.
        996    1    1    2    0    0 -0.30787144789E+01  0.10847455883E+02  0.85294096670E+02  0.99509942763E+02  0.50000000000E+02 0.  0.
<mgrwt>
<rscale>  0 0.51255690E+02</rscale>
<asrwt>0</asrwt>
<pdfrwt beam="1">  1       13 0.10000000E+01 0.51255690E+02</pdfrwt>
<pdfrwt beam="2">  1       22 0.11291841E+00 0.51255690E+02</pdfrwt>
<totfact> 0.11766867E+00</totfact>
</mgrwt>
</event>
<event>
 4    1  0.2451537E+000  0.5291289E+02  0.7957747E-01  0.1430235E+00
         13   -1    0    0    0    0  0.00000000000E+00  0.00000000000E+00  0.99999944174E+02  0.99999999995E+02  0.10566000000E+00 0. -1.
         22   -1    0    0    0    0 -0.00000000000E+00 -0.00000000000E+00 -0.18207297186E+02  0.18207297186E+02  0.00000000000E+00 0. -1.
         13    1    1    2    0    0 -0.85592790547E+01  0.15050321436E+02  0.57377869657E+02  0.59933333995E+02  0.10566000000E+00 0.  1.
        996    1    1    2    0    0  0.85592790547E+01 -0.15050321436E+02  0.24414777331E+02  0.58273963186E+02  0.50000000000E+02 0.  0.
<mgrwt>
<rscale>  0 0.52912885E+02</rscale>
<asrwt>0</asrwt>
<pdfrwt beam="1">  1       13 0.10000000E+01 0.52912885E+02</pdfrwt>
<pdfrwt beam="2">  1       22 0.18207320E+00 0.52912885E+02</pdfrwt>
<totfact> 0.53913029E-01</totfact>
</mgrwt>
</event>
<event>
 4    1  0.2451537E+000  0.5268027E+02  0.7957747E-01  0.1431399E+00
         13   -1    0    0    0    0  0.00000000000E+00  0.00000000000E+00  0.99999944184E+02  0.10000000000E+03  0.10566000000E+00 0. -1.
         22   -1    0    0    0    0 -0.00000000000E+00 -0.00000000000E+00 -0.12045139065E+02  0.12045139065E+02  0.00000000000E+00 0. -1.
         13    1    1    2    0    0 -0.13103379921E+02  0.10174096502E+02  0.18096886980E+02  0.24550341900E+02  0.10566000000E+00 0.  1.
        996    1    1    2    0    0  0.13103379921E+02 -0.10174096502E+02  0.69857918139E+02  0.87494797169E+02  0.50000000000E+02 0.  0.
<mgrwt>
<rscale>  0 0.52680270E+02</rscale>
<asrwt>0</asrwt>
<pdfrwt beam="1">  1       13 0.10000000E+01 0.52680270E+02</pdfrwt>
<pdfrwt beam="2">  1       22 0.12045164E+00 0.52680270E+02</pdfrwt>
<totfact> 0.10703836E+00</totfact>
</mgrwt>
</event>
<event>
 4    1  0.2451537E+000  0.5167908E+02  0.7957747E-01  0.1436490E+00
         13   -1    0    0    0    0  0.00000000000E+00  0.00000000000E+00  0.99999944175E+02  0.99999999995E+02  0.10566000000E+00 0.  1.
         22   -1    0    0    0    0 -0.00000000000E+00 -0.00000000000E+00 -0.44321752301E+02  0.44321752301E+02  0.00000000000E+00 0. -1.
         13    1    1    2    0    0  0.91417855917E+01  0.93356800201E+01 -0.36432038979E+02  0.38704415684E+02  0.10566000000E+00 0. -1.
        996    1    1    2    0    0 -0.91417855917E+01 -0.93356800201E+01  0.92110230853E+02  0.10561733661E+03  0.50000000000E+02 0.  0.
<mgrwt>
<rscale>  0 0.51679079E+02</rscale>
<asrwt>0</asrwt>
<pdfrwt beam="1">  1       13 0.10000000E+01 0.51679079E+02</pdfrwt>
<pdfrwt beam="2">  1       22 0.44321768E+00 0.51679079E+02</pdfrwt>
<totfact> 0.10003984E-01</totfact>
</mgrwt>
</event>
<event>
 4    1  0.2451537E+000  0.5168720E+02  0.7957747E-01  0.1436448E+00
         13   -1    0    0    0    0  0.00000000000E+00  0.00000000000E+00  0.99999944179E+02  0.99999999999E+02  0.10566000000E+00 0.  1.
         22   -1    0    0    0    0 -0.00000000000E+00 -0.00000000000E+00 -0.12337584835E+02  0.12337584835E+02  0.00000000000E+00 0. -1.
         13    1    1    2    0    0  0.10578725083E+02  0.77237890535E+01  0.34789087912E+01  0.13552870992E+02  0.10566000000E+00 0. -1.
        996    1    1    2    0    0 -0.10578725083E+02 -0.77237890535E+01  0.84183450553E+02  0.98784713841E+02  0.50000000000E+02 0.  0.
<mgrwt>
<rscale>  0 0.51687197E+02</rscale>
<asrwt>0</asrwt>
<pdfrwt beam="1">  1       13 0.10000000E+01 0.51687197E+02</pdfrwt>
<pdfrwt beam="2">  1       22 0.12337609E+00 0.51687197E+02</pdfrwt>
<totfact> 0.10292901E+00</totfact>
</mgrwt>
</event>
<event>
 4    1  0.2451537E+000  0.5229033E+02  0.7957747E-01  0.1433366E+00
         13   -1    0    0    0    0  0.00000000000E+00  0.00000000000E+00  0.99999944181E+02  0.10000000000E+03  0.10566000000E+00 0. -1.
         22   -1    0    0    0    0 -0.00000000000E+00 -0.00000000000E+00 -0.14281215795E+02  0.14281215795E+02  0.00000000000E+00 0. -1.
         13    1    1    2    0    0 -0.21451602102E+01 -0.15155083454E+02  0.18104197951E+01  0.15413210266E+02  0.10566000000E+00 0.  1.
        996    1    1    2    0    0  0.21451602102E+01  0.15155083454E+02  0.83908308591E+02  0.98868005530E+02  0.50000000000E+02 0.  0.
<mgrwt>
<rscale>  0 0.52290327E+02</rscale>
<asrwt>0</asrwt>
<pdfrwt beam="1">  1       13 0.10000000E+01 0.52290327E+02</pdfrwt>
<pdfrwt beam="2">  1       22 0.14281240E+00 0.52290327E+02</pdfrwt>
<totfact> 0.81692145E-01</totfact>
</mgrwt>
</event>
<event>
 4    1  0.2451537E+000  0.5394322E+02  0.7957747E-01  0.1425164E+00
         13   -1    0    0    0    0  0.00000000000E+00  0.00000000000E+00  0.99999944178E+02  0.99999999998E+02  0.10566000000E+00 0. -1.
         22   -1    0    0    0    0 -0.00000000000E+00 -0.00000000000E+00 -0.18475959280E+02  0.18475959280E+02  0.00000000000E+00 0.  1.
         13    1    1    2    0    0  0.69032811043E+01  0.19031960950E+02 -0.56024853628E+00  0.20253292820E+02  0.10566000000E+00 0.  1.
        996    1    1    2    0    0 -0.69032811043E+01 -0.19031960950E+02  0.82084233434E+02  0.98222666458E+02  0.50000000000E+02 0.  0.
<mgrwt>
<rscale>  0 0.53943219E+02</rscale>
<asrwt>0</asrwt>
<pdfrwt beam="1">  1       13 0.10000000E+01 0.53943219E+02</pdfrwt>
<pdfrwt beam="2">  1       22 0.18475982E+00 0.53943219E+02</pdfrwt>
<totfact> 0.52602922E-01</totfact>
</mgrwt>
</event>
<event>
 4    1  0.2451537E+000  0.5250288E+02  0.7957747E-01  0.1432291E+00
         13   -1    0    0    0    0  0.00000000000E+00  0.00000000000E+00  0.99999944179E+02  0.10000000000E+03  0.10566000000E+00 0.  1.
         22   -1    0    0    0    0 -0.00000000000E+00 -0.00000000000E+00 -0.18410927505E+02  0.18410927505E+02  0.00000000000E+00 0. -1.
         13    1    1    2    0    0  0.29612516474E+01 -0.15741125019E+02 -0.53166944718E+01  0.16876920108E+02  0.10566000000E+00 0. -1.
        996    1    1    2    0    0 -0.29612516474E+01  0.15741125019E+02  0.86905711146E+02  0.10153400740E+03  0.50000000000E+02 0.  0.
<mgrwt>
<rscale>  0 0.52502876E+02</rscale>
<asrwt>0</asrwt>
<pdfrwt beam="1">  1       13 0.10000000E+01 0.52502876E+02</pdfrwt>
<pdfrwt beam="2">  1       22 0.18410950E+00 0.52502876E+02</pdfrwt>
<totfact> 0.52801206E-01</totfact>
</mgrwt>
</event>
<event>
 4    1  0.2451537E+000  0.5111259E+02  0.7957747E-01  0.1439431E+00
         13   -1    0    0    0    0  0.00000000000E+00  0.00000000000E+00  0.99999944175E+02  0.99999999995E+02  0.10566000000E+00 0. -1.
         22   -1    0    0    0    0 -0.00000000000E+00 -0.00000000000E+00 -0.10709040525E+02  0.10709040525E+02  0.00000000000E+00 0. -1.
         13    1    1    2    0    0  0.96660628189E+01 -0.43662794461E+01  0.41213471025E+01  0.11379535693E+02  0.10566000000E+00 0.  1.
        996    1    1    2    0    0 -0.96660628189E+01  0.43662794461E+01  0.85169556547E+02  0.99329504827E+02  0.50000000000E+02 0.  0.
<mgrwt>
<rscale>  0 0.51112593E+02</rscale>
<asrwt>0</asrwt>
<pdfrwt beam="1">  1       13 0.10000000E+01 0.51112593E+02</pdfrwt>
<pdfrwt beam="2">  1       22 0.10709065E+00 0.51112593E+02</pdfrwt>
<totfact> 0.12727411E+00</totfact>
</mgrwt>
</event>
<event>
 4    1  0.2451537E+000  0.5195076E+02  0.7957747E-01  0.1435095E+00
         13   -1    0    0    0    0  0.00000000000E+00  0.00000000000E+00  0.99999944180E+02  0.10000000000E+03  0.10566000000E+00 0. -1.
         22   -1    0    0    0    0 -0.00000000000E+00 -0.00000000000E+00 -0.15004258772E+02  0.15004258772E+02  0.00000000000E+00 0. -1.
         13    1    1    2    0    0 -0.14098169256E+02 -0.35041706716E+00 -0.14207423392E+01  0.14174302146E+02  0.10566000000E+00 0.  1.
        996    1    1    2    0    0  0.14098169256E+02  0.35041706716E+00  0.86416427748E+02  0.10082995663E+03  0.50000000000E+02 0.  0.
<mgrwt>
<rscale>  0 0.51950757E+02</rscale>
<asrwt>0</asrwt>
<pdfrwt beam="1">  1       13 0.10000000E+01 0.51950757E+02</pdfrwt>
<pdfrwt beam="2">  1       22 0.15004283E+00 0.51950757E+02</pdfrwt>
<totfact> 0.75249278E-01</totfact>
</mgrwt>
</event>
<event>
 4    1  0.2451537E+000  0.5143914E+02  0.7957747E-01  0.1437730E+00
         13   -1    0    0    0    0  0.00000000000E+00  0.00000000000E+00  0.99999944174E+02  0.99999999995E+02  0.10566000000E+00 0. -1.
         22   -1    0    0    0    0 -0.00000000000E+00 -0.00000000000E+00 -0.12822508089E+02  0.12822508089E+02  0.00000000000E+00 0.  1.
         13    1    1    2    0    0 -0.29136085052E+01  0.11725856963E+02  0.57652186141E+00  0.12096626701E+02  0.10566000000E+00 0.  1.
        996    1    1    2    0    0  0.29136085052E+01 -0.11725856963E+02  0.86600914224E+02  0.10072588138E+03  0.50000000000E+02 0.  0.
<mgrwt>
<rscale>  0 0.51439137E+02</rscale>
<asrwt>0</asrwt>
<pdfrwt beam="1">  1       13 0.10000000E+01 0.51439137E+02</pdfrwt>
<pdfrwt beam="2">  1       22 0.12822532E+00 0.51439137E+02</pdfrwt>
<totfact> 0.96880610E-01</totfact>
</mgrwt>
</event>
<event>
 4    1  0.2451537E+000  0.5157964E+02  0.7957747E-01  0.1437003E+00
         13   -1    0    0    0    0  0.00000000000E+00  0.00000000000E+00  0.99999944185E+02  0.10000000001E+03  0.10566000000E+00 0.  1.
         22   -1    0    0    0    0 -0.00000000000E+00 -0.00000000000E+00 -0.10320222955E+02  0.10320222955E+02  0.00000000000E+00 0.  1.
         13    1    1    2    0    0  0.74300132781E+01 -0.10259322083E+02  0.17262198373E+02  0.21411525953E+02  0.10566000000E+00 0. -1.
        996    1    1    2    0    0 -0.74300132781E+01  0.10259322083E+02  0.72417522857E+02  0.88908697008E+02  0.50000000000E+02 0.  0.
<mgrwt>
<rscale>  0 0.51579635E+02</rscale>
<asrwt>0</asrwt>
<pdfrwt beam="1">  1       13 0.10000000E+01 0.51579635E+02</pdfrwt>
<pdfrwt beam="2">  1       22 0.10320248E+00 0.51579635E+02</pdfrwt>
<totfact> 0.13452483E+00</totfact>
</mgrwt>
</event>
<event>
 4    1  0.2451537E+000  0.5197593E+02  0.7957747E-01  0.1434966E+00
         13   -1    0    0    0    0  0.00000000000E+00  0.00000000000E+00  0.99999944186E+02  0.10000000001E+03  0.10566000000E+00 0. -1.
         22   -1    0    0    0    0 -0.00000000000E+00 -0.00000000000E+00 -0.14724204859E+02  0.14724204859E+02  0.00000000000E+00 0.  1.
         13    1    1    2    0    0  0.13775997461E+02  0.34233679144E+01 -0.75076413016E+00  0.14215215958E+02  0.10566000000E+00 0.  1.
        996    1    1    2    0    0 -0.13775997461E+02 -0.34233679144E+01  0.86026503458E+02  0.10050898891E+03  0.50000000000E+02 0.  0.
<mgrwt>
<rscale>  0 0.51975932E+02</rscale>
<asrwt>0</asrwt>
<pdfrwt beam="1">  1       13 0.10000000E+01 0.51975932E+02</pdfrwt>
<pdfrwt beam="2">  1       22 0.14724229E+00 0.51975932E+02</pdfrwt>
<totfact> 0.77642576E-01</totfact>
</mgrwt>
</event>
<event>
 4    1  0.2451537E+000  0.5636854E+02  0.7957747E-01  0.1413736E+00
         13   -1    0    0    0    0  0.00000000000E+00  0.00000000000E+00  0.99999944173E+02  0.99999999993E+02  0.10566000000E+00 0. -1.
         22   -1    0    0    0    0 -0.00000000000E+00 -0.00000000000E+00 -0.58585434983E+02  0.58585434983E+02  0.00000000000E+00 0.  1.
         13    1    1    2    0    0 -0.18056390483E+01  0.25964430216E+02 -0.47002999445E+02  0.53728066126E+02  0.10566000000E+00 0.  1.
        996    1    1    2    0    0  0.18056390483E+01 -0.25964430216E+02  0.88417508635E+02  0.10485736885E+03  0.50000000000E+02 0.  0.
<mgrwt>
<rscale>  0 0.56368537E+02</rscale>
<asrwt>0</asrwt>
<pdfrwt beam="1">  1       13 0.10000000E+01 0.56368537E+02</pdfrwt>
<pdfrwt beam="2">  1       22 0.58585447E+00 0.56368537E+02</pdfrwt>
<totfact> 0.59437643E-02</totfact>
</mgrwt>
</event>
<event>
 4    1  0.2451537E+000  0.5369895E+02  0.7957747E-01  0.1426354E+00
         13   -1    0    0    0    0  0.00000000000E+00  0.00000000000E+00  0.99999944172E+02  0.99999999992E+02  0.10566000000E+00 0. -1.
         22   -1    0    0    0    0 -0.00000000000E+00 -0.00000000000E+00 -0.24834746698E+02  0.24834746698E+02  0.00000000000E+00 0.  1.
         13    1    1    2    0    0 -0.12944298386E+02  0.14697683448E+02 -0.11624825854E+02  0.22775524134E+02  0.10566000000E+00 0.  1.
        996    1    1    2    0    0  0.12944298386E+02 -0.14697683448E+02  0.86790023327E+02  0.10205922256E+03  0.50000000000E+02 0.  0.
<mgrwt>
<rscale>  0 0.53698946E+02</rscale>
<asrwt>0</asrwt>
<pdfrwt beam="1">  1       13 0.10000000E+01 0.53698946E+02</pdfrwt>
<pdfrwt beam="2">  1       22 0.24834768E+00 0.53698946E+02</pdfrwt>
<totfact> 0.29945172E-01</totfact>
</mgrwt>
</event>
<event>
 4    1  0.2451537E+000  0.5149851E+02  0.7957747E-01  0.1437423E+00
         13   -1    0    0    0    0  0.00000000000E+00  0.00000000000E+00  0.99999944185E+02  0.10000000001E+03  0.10566000000E+00 0.  1.
         22   -1    0    0    0    0 -0.00000000000E+00 -0.00000000000E+00 -0.30651923100E+02  0.30651923100E+02  0.00000000000E+00 0. -1.
         13    1    1    2    0    0  0.55590914559E+01  0.11008772025E+02 -0.22324460480E+02  0.25504690923E+02  0.10566000000E+00 0. -1.
        996    1    1    2    0    0 -0.55590914559E+01 -0.11008772025E+02  0.91672481565E+02  0.10514723218E+03  0.50000000000E+02 0.  0.
<mgrwt>
<rscale>  0 0.51498510E+02</rscale>
<asrwt>0</asrwt>
<pdfrwt beam="1">  1       13 0.10000000E+01 0.51498510E+02</pdfrwt>
<pdfrwt beam="2">  1       22 0.30651942E+00 0.51498510E+02</pdfrwt>
<totfact> 0.19881059E-01</totfact>
</mgrwt>
</event>
<event>
 4    1  0.2451537E+000  0.5176376E+02  0.7957747E-01  0.1436054E+00
         13   -1    0    0    0    0  0.00000000000E+00  0.00000000000E+00  0.99999944178E+02  0.99999999998E+02  0.10566000000E+00 0.  1.
         22   -1    0    0    0    0 -0.00000000000E+00 -0.00000000000E+00 -0.11241343330E+02  0.11241343330E+02  0.00000000000E+00 0.  1.
         13    1    1    2    0    0 -0.48079453241E+01 -0.12504805799E+02  0.30473056570E+02  0.33288208829E+02  0.10566000000E+00 0. -1.
        996    1    1    2    0    0  0.48079453241E+01  0.12504805799E+02  0.58285544278E+02  0.77953134498E+02  0.50000000000E+02 0.  0.
<mgrwt>
<rscale>  0 0.51763757E+02</rscale>
<asrwt>0</asrwt>
<pdfrwt beam="1">  1       13 0.10000000E+01 0.51763757E+02</pdfrwt>
<pdfrwt beam="2">  1       22 0.11241368E+00 0.51763757E+02</pdfrwt>
<totfact> 0.11860042E+00</totfact>
</mgrwt>
</event>
<event>
 4    1  0.2451537E+000  0.5797773E+02  0.7957747E-01  0.1406520E+00
         13   -1    0    0    0    0  0.00000000000E+00  0.00000000000E+00  0.99999944175E+02  0.99999999996E+02  0.10566000000E+00 0.  1.
         22   -1    0    0    0    0 -0.00000000000E+00 -0.00000000000E+00 -0.73260219844E+02  0.73260219844E+02  0.00000000000E+00 0. -1.
         13    1    1    2    0    0 -0.29349819348E+02 -0.75634206472E-01 -0.61231315960E+02  0.67902156332E+02  0.10566000000E+00 0. -1.
        996    1    1    2    0    0  0.29349819348E+02  0.75634206472E-01  0.87971040291E+02  0.10535806351E+03  0.50000000000E+02 0.  0.
<mgrwt>
<rscale>  0 0.57977734E+02</rscale>
<asrwt>0</asrwt>
<pdfrwt beam="1">  1       13 0.10000000E+01 0.57977734E+02</pdfrwt>
<pdfrwt beam="2">  1       22 0.73260227E+00 0.57977734E+02</pdfrwt>
<totfact> 0.57429852E-02</totfact>
</mgrwt>
</event>
<event>
 4    1  0.2451537E+000  0.5111859E+02  0.7957747E-01  0.1439400E+00
         13   -1    0    0    0    0  0.00000000000E+00  0.00000000000E+00  0.99999944173E+02  0.99999999993E+02  0.10566000000E+00 0. -1.
         22   -1    0    0    0    0 -0.00000000000E+00 -0.00000000000E+00 -0.12843626939E+02  0.12843626939E+02  0.00000000000E+00 0. -1.
         13    1    1    2    0    0 -0.10271616836E+02  0.27575739389E+01 -0.12633583170E+01  0.10710628587E+02  0.10566000000E+00 0.  1.
        996    1    1    2    0    0  0.10271616836E+02 -0.27575739389E+01  0.88419675551E+02  0.10213299834E+03  0.50000000000E+02 0.  0.
<mgrwt>
<rscale>  0 0.51118591E+02</rscale>
<asrwt>0</asrwt>
<pdfrwt beam="1">  1       13 0.10000000E+01 0.51118591E+02</pdfrwt>
<pdfrwt beam="2">  1       22 0.12843651E+00 0.51118591E+02</pdfrwt>
<totfact> 0.96562629E-01</totfact>
</mgrwt>
</event>
<event>
 4    1  0.2451537E+000  0.5354274E+02  0.7957747E-01  0.1427119E+00
         13   -1    0    0    0    0  0.00000000000E+00  0.00000000000E+00  0.99999944182E+02  0.10000000000E+03  0.10566000000E+00 0. -1.
         22   -1    0    0    0    0 -0.00000000000E+00 -0.00000000000E+00 -0.78987652526E+02  0.78987652526E+02  0.00000000000E+00 0.  1.
         13    1    1    2    0    0  0.18324429629E+02 -0.55713416852E+01 -0.70449225347E+02  0.73006363321E+02  0.10566000000E+00 0.  1.
        996    1    1    2    0    0 -0.18324429629E+02  0.55713416852E+01  0.91461517004E+02  0.10598128921E+03  0.50000000000E+02 0.  0.
<mgrwt>
<rscale>  0 0.53542736E+02</rscale>
<asrwt>0</asrwt>
<pdfrwt beam="1">  1       13 0.10000000E+01 0.53542736E+02</pdfrwt>
<pdfrwt beam="2">  1       22 0.78987658E+00 0.53542736E+02</pdfrwt>
<totfact> 0.33894871E-02</totfact>
</mgrwt>
</event>
<event>
 4    1  0.2451537E+000  0.5552323E+02  0.7957747E-01  0.1417641E+00
         13   -1    0    0    0    0  0.00000000000E+00  0.00000000000E+00  0.99999944185E+02  0.10000000001E+03  0.10566000000E+00 0.  1.
         22   -1    0    0    0    0 -0.00000000000E+00 -0.00000000000E+00 -0.22144620889E+02  0.22144620889E+02  0.00000000000E+00 0. -1.
         13    1    1    2    0    0 -0.35520322533E+00  0.24139241355E+02 -0.27165579000E+01  0.24294443673E+02  0.10566000000E+00 0. -1.
        996    1    1    2    0    0  0.35520322533E+00 -0.24139241355E+02  0.80571881196E+02  0.97850177220E+02  0.50000000000E+02 0.  0.
<mgrwt>
<rscale>  0 0.55523231E+02</rscale>
<asrwt>0</asrwt>
<pdfrwt beam="1">  1       13 0.10000000E+01 0.55523231E+02</pdfrwt>
<pdfrwt beam="2">  1       22 0.22144643E+00 0.55523231E+02</pdfrwt>
<totfact> 0.37563650E-01</totfact>
</mgrwt>
</event>
<event>
 4    1  0.2451537E+000  0.6100470E+02  0.7957747E-01  0.1393663E+00
         13   -1    0    0    0    0  0.00000000000E+00  0.00000000000E+00  0.99999944182E+02  0.10000000000E+03  0.10566000000E+00 0. -1.
         22   -1    0    0    0    0 -0.00000000000E+00 -0.00000000000E+00 -0.28665747314E+02  0.28665747314E+02  0.00000000000E+00 0.  1.
         13    1    1    2    0    0 -0.29469304224E+02  0.18791840513E+02  0.19527299896E+00  0.34951716079E+02  0.10566000000E+00 0.  1.
        996    1    1    2    0    0  0.29469304224E+02 -0.18791840513E+02  0.71138923869E+02  0.93714031236E+02  0.50000000000E+02 0.  0.
<mgrwt>
<rscale>  0 0.61004698E+02</rscale>
<asrwt>0</asrwt>
<pdfrwt beam="1">  1       13 0.10000000E+01 0.61004698E+02</pdfrwt>
<pdfrwt beam="2">  1       22 0.28665767E+00 0.61004698E+02</pdfrwt>
<totfact> 0.22826629E-01</totfact>
</mgrwt>
</event>
<event>
 4    1  0.2451537E+000  0.5235824E+02  0.7957747E-01  0.1433022E+00
         13   -1    0    0    0    0  0.00000000000E+00  0.00000000000E+00  0.99999944182E+02  0.10000000000E+03  0.10566000000E+00 0. -1.
         22   -1    0    0    0    0 -0.00000000000E+00 -0.00000000000E+00 -0.12297671522E+02  0.12297671522E+02  0.00000000000E+00 0. -1.
         13    1    1    2    0    0  0.92709796861E+01 -0.12467341002E+02  0.95814106098E+01  0.18253773564E+02  0.10566000000E+00 0.  1.
        996    1    1    2    0    0 -0.92709796861E+01  0.12467341002E+02  0.78120862050E+02  0.94043897960E+02  0.50000000000E+02 0.  0.
<mgrwt>
<rscale>  0 0.52358243E+02</rscale>
<asrwt>0</asrwt>
<pdfrwt beam="1">  1       13 0.10000000E+01 0.52358243E+02</pdfrwt>
<pdfrwt beam="2">  1       22 0.12297696E+00 0.52358243E+02</pdfrwt>
<totfact> 0.10359946E+00</totfact>
</mgrwt>
</event>
<event>
 4    1  0.2451537E+000  0.5180288E+02  0.7957747E-01  0.1435853E+00
         13   -1    0    0    0    0  0.00000000000E+00  0.00000000000E+00  0.99999944185E+02  0.10000000000E+03  0.10566000000E+00 0.  1.
         22   -1    0    0    0    0 -0.00000000000E+00 -0.00000000000E+00 -0.10685284767E+02  0.10685284767E+02  0.00000000000E+00 0.  1.
         13    1    1    2    0    0  0.13506304851E+02 -0.10573449651E+01  0.17274423600E+02  0.21953476351E+02  0.10566000000E+00 0. -1.
        996    1    1    2    0    0 -0.13506304851E+02  0.10573449651E+01  0.72040235817E+02  0.88731808421E+02  0.50000000000E+02 0.  0.
<mgrwt>
<rscale>  0 0.51802879E+02</rscale>
<asrwt>0</asrwt>
<pdfrwt beam="1">  1       13 0.10000000E+01 0.51802879E+02</pdfrwt>
<pdfrwt beam="2">  1       22 0.10685310E+00 0.51802879E+02</pdfrwt>
<totfact> 0.12790007E+00</totfact>
</mgrwt>
</event>
<event>
 4    1  0.2451537E+000  0.5108042E+02  0.7957747E-01  0.1439600E+00
         13   -1    0    0    0    0  0.00000000000E+00  0.00000000000E+00  0.99999944174E+02  0.99999999994E+02  0.10566000000E+00 0.  1.
         22   -1    0    0    0    0 -0.00000000000E+00 -0.00000000000E+00 -0.94676432723E+01  0.94676432723E+01  0.00000000000E+00 0. -1.
         13    1    1    2    0    0 -0.38724451884E+01 -0.97063370848E+01  0.16042998532E+02  0.19146743255E+02  0.10566000000E+00 0. -1.
        996    1    1    2    0    0  0.38724451884E+01  0.97063370848E+01  0.74489302369E+02  0.90320900011E+02  0.50000000000E+02 0.  0.
<mgrwt>
<rscale>  0 0.51080415E+02</rscale>
<asrwt>0</asrwt>
<pdfrwt beam="1">  1       13 0.10000000E+01 0.51080415E+02</pdfrwt>
<pdfrwt beam="2">  1       22 0.94676685E-01 0.51080415E+02</pdfrwt>
<totfact> 0.15217404E+00</totfact>
</mgrwt>
</event>
<event>
 4    1  0.2451537E+000  0.5428805E+02  0.7957747E-01  0.1423496E+00
         13   -1    0    0    0    0  0.00000000000E+00  0.00000000000E+00  0.99999944179E+02  0.99999999999E+02  0.10566000000E+00 0.  1.
         22   -1    0    0    0    0 -0.00000000000E+00 -0.00000000000E+00 -0.17925029229E+02  0.17925029229E+02  0.00000000000E+00 0. -1.
         13    1    1    2    0    0  0.19308410037E+02  0.86242594719E+01  0.20812076617E+01  0.21249356201E+02  0.10566000000E+00 0. -1.
        996    1    1    2    0    0 -0.19308410037E+02 -0.86242594719E+01  0.79993707288E+02  0.96675673027E+02  0.50000000000E+02 0.  0.
<mgrwt>
<rscale>  0 0.54288052E+02</rscale>
<asrwt>0</asrwt>
<pdfrwt beam="1">  1       13 0.10000000E+01 0.54288052E+02</pdfrwt>
<pdfrwt beam="2">  1       22 0.17925052E+00 0.54288052E+02</pdfrwt>
<totfact> 0.55587344E-01</totfact>
</mgrwt>
</event>
<event>
 4    1  0.2451537E+000  0.5122570E+02  0.7957747E-01  0.1438840E+00
         13   -1    0    0    0    0  0.00000000000E+00  0.00000000000E+00  0.99999944183E+02  0.10000000000E+03  0.10566000000E+00 0.  1.
         22   -1    0    0    0    0 -0.00000000000E+00 -0.00000000000E+00 -0.10594163464E+02  0.10594163464E+02  0.00000000000E+00 0.  1.
         13    1    1    2    0    0 -0.11124795440E+02  0.55748000295E+00  0.58400943540E+01  0.12577349627E+02  0.10566000000E+00 0. -1.
        996    1    1    2    0    0  0.11124795440E+02 -0.55748000295E+00  0.83565686365E+02  0.98016813840E+02  0.50000000000E+02 0.  0.
<mgrwt>
<rscale>  0 0.51225695E+02</rscale>
<asrwt>0</asrwt>
<pdfrwt beam="1">  1       13 0.10000000E+01 0.51225695E+02</pdfrwt>
<pdfrwt beam="2">  1       22 0.10594188E+00 0.51225695E+02</pdfrwt>
<totfact> 0.12934744E+00</totfact>
</mgrwt>
</event>
<event>
 4    1  0.2451537E+000  0.5528955E+02  0.7957747E-01  0.1418735E+00
         13   -1    0    0    0    0  0.00000000000E+00  0.00000000000E+00  0.99999944176E+02  0.99999999996E+02  0.10566000000E+00 0. -1.
         22   -1    0    0    0    0 -0.00000000000E+00 -0.00000000000E+00 -0.19614778715E+02  0.19614778715E+02  0.00000000000E+00 0.  1.
         13    1    1    2    0    0 -0.21828270191E+02  0.89700024323E+01  0.19893999160E+01  0.23683395011E+02  0.10566000000E+00 0.  1.
        996    1    1    2    0    0  0.21828270191E+02 -0.89700024323E+01  0.78395765545E+02  0.95931383700E+02  0.50000000000E+02 0.  0.
<mgrwt>
<rscale>  0 0.55289550E+02</rscale>
<asrwt>0</asrwt>
<pdfrwt beam="1">  1       13 0.10000000E+01 0.55289550E+02</pdfrwt>
<pdfrwt beam="2">  1       22 0.19614801E+00 0.55289550E+02</pdfrwt>
<totfact> 0.47247783E-01</totfact>
</mgrwt>
</event>
<event>
 4    1  0.2451537E+000  0.5169021E+02  0.7957747E-01  0.1436433E+00
         13   -1    0    0    0    0  0.00000000000E+00  0.00000000000E+00  0.99999944178E+02  0.99999999998E+02  0.10566000000E+00 0. -1.
         22   -1    0    0    0    0 -0.00000000000E+00 -0.00000000000E+00 -0.37593038766E+02  0.37593038766E+02  0.00000000000E+00 0.  1.
         13    1    1    2    0    0  0.10108806558E+02  0.83480697459E+01 -0.29424563851E+02  0.32213263734E+02  0.10566000000E+00 0.  1.
        996    1    1    2    0    0 -0.10108806558E+02 -0.83480697459E+01  0.91831469263E+02  0.10537977503E+03  0.50000000000E+02 0.  0.
<mgrwt>
<rscale>  0 0.51690214E+02</rscale>
<asrwt>0</asrwt>
<pdfrwt beam="1">  1       13 0.10000000E+01 0.51690214E+02</pdfrwt>
<pdfrwt beam="2">  1       22 0.37593056E+00 0.51690214E+02</pdfrwt>
<totfact> 0.13855652E-01</totfact>
</mgrwt>
</event>
<event>
 4    1  0.2451537E+000  0.5106311E+02  0.7957747E-01  0.1439690E+00
         13   -1    0    0    0    0  0.00000000000E+00  0.00000000000E+00  0.99999944177E+02  0.99999999997E+02  0.10566000000E+00 0. -1.
         22   -1    0    0    0    0 -0.00000000000E+00 -0.00000000000E+00 -0.44720101475E+02  0.44720101475E+02  0.00000000000E+00 0.  1.
         13    1    1    2    0    0  0.80574274394E+01  0.65206855728E+01 -0.37451256490E+02  0.38859352208E+02  0.10566000000E+00 0.  1.
        996    1    1    2    0    0 -0.80574274394E+01 -0.65206855728E+01  0.92731099192E+02  0.10586074926E+03  0.50000000000E+02 0.  0.
<mgrwt>
<rscale>  0 0.51063113E+02</rscale>
<asrwt>0</asrwt>
<pdfrwt beam="1">  1       13 0.10000000E+01 0.51063113E+02</pdfrwt>
<pdfrwt beam="2">  1       22 0.44720117E+00 0.51063113E+02</pdfrwt>
<totfact> 0.97975827E-02</totfact>
</mgrwt>
</event>
<event>
 4    1  0.2451537E+000  0.5159127E+02  0.7957747E-01  0.1436943E+00
         13   -1    0    0    0    0  0.00000000000E+00  0.00000000000E+00  0.99999944181E+02  0.10000000000E+03  0.10566000000E+00 0.  1.
         22   -1    0    0    0    0 -0.00000000000E+00 -0.00000000000E+00 -0.17324292397E+02  0.17324292397E+02  0.00000000000E+00 0. -1.
         13    1    1    2    0    0  0.89600142753E+01 -0.90209580235E+01 -0.65152545218E+01  0.14287030657E+02  0.10566000000E+00 0. -1.
        996    1    1    2    0    0 -0.89600142753E+01  0.90209580235E+01  0.89190906306E+02  0.10303726174E+03  0.50000000000E+02 0.  0.
<mgrwt>
<rscale>  0 0.51591274E+02</rscale>
<asrwt>0</asrwt>
<pdfrwt beam="1">  1       13 0.10000000E+01 0.51591274E+02</pdfrwt>
<pdfrwt beam="2">  1       22 0.17324315E+00 0.51591274E+02</pdfrwt>
<totfact> 0.58764562E-01</totfact>
</mgrwt>
</event>
<event>
 4    1  0.2451537E+000  0.5494468E+02  0.7957747E-01  0.1420361E+00
         13   -1    0    0    0    0  0.00000000000E+00  0.00000000000E+00  0.99999944177E+02  0.99999999998E+02  0.10566000000E+00 0. -1.
         22   -1    0    0    0    0 -0.00000000000E+00 -0.00000000000E+00 -0.39398838528E+02  0.39398838528E+02  0.00000000000E+00 0.  1.
         13    1    1    2    0    0 -0.20576470087E+02 -0.97737985411E+01 -0.27412807632E+02  0.35642551052E+02  0.10566000000E+00 0.  1.
        996    1    1    2    0    0  0.20576470087E+02  0.97737985411E+01  0.88013913282E+02  0.10375628747E+03  0.50000000000E+02 0.  0.
<mgrwt>
<rscale>  0 0.54944684E+02</rscale>
<asrwt>0</asrwt>
<pdfrwt beam="1">  1       13 0.10000000E+01 0.54944684E+02</pdfrwt>
<pdfrwt beam="2">  1       22 0.39398855E+00 0.54944684E+02</pdfrwt>
<totfact> 0.12754675E-01</totfact>
</mgrwt>
</event>
<event>
 4    1  0.2451537E+000  0.5168611E+02  0.7957747E-01  0.1436454E+00
         13   -1    0    0    0    0  0.00000000000E+00  0.00000000000E+00  0.99999944179E+02  0.10000000000E+03  0.10566000000E+00 0. -1.
         22   -1    0    0    0    0 -0.00000000000E+00 -0.00000000000E+00 -0.10573859352E+02  0.10573859352E+02  0.00000000000E+00 0. -1.
         13    1    1    2    0    0 -0.66187734136E+01 -0.11298033692E+02  0.14351551418E+02  0.19427607134E+02  0.10566000000E+00 0.  1.
        996    1    1    2    0    0  0.66187734136E+01  0.11298033692E+02  0.75074533409E+02  0.91146252218E+02  0.50000000000E+02 0.  0.
<mgrwt>
<rscale>  0 0.51686108E+02</rscale>
<asrwt>0</asrwt>
<pdfrwt beam="1">  1       13 0.10000000E+01 0.51686108E+02</pdfrwt>
<pdfrwt beam="2">  1       22 0.10573884E+00 0.51686108E+02</pdfrwt>
<totfact> 0.12985459E+00</totfact>
</mgrwt>
</event>
<event>
 4    1  0.2451537E+000  0.5360996E+02  0.7957747E-01  0.1426789E+00
         13   -1    0    0    0    0  0.00000000000E+00  0.00000000000E+00  0.99999944180E+02  0.10000000000E+03  0.10566000000E+00 0. -1.
         22   -1    0    0    0    0 -0.00000000000E+00 -0.00000000000E+00 -0.14145975825E+02  0.14145975825E+02  0.00000000000E+00 0. -1.
         13    1    1    2    0    0  0.10729128227E+02 -0.16090782560E+02  0.11567777301E+02  0.22535574358E+02  0.10566000000E+00 0.  1.
        996    1    1    2    0    0 -0.10729128227E+02  0.16090782560E+02  0.74286191053E+02  0.91610401468E+02  0.50000000000E+02 0.  0.
<mgrwt>
<rscale>  0 0.53609957E+02</rscale>
<asrwt>0</asrwt>
<pdfrwt beam="1">  1       13 0.10000000E+01 0.53609957E+02</pdfrwt>
<pdfrwt beam="2">  1       22 0.14146000E+00 0.53609957E+02</pdfrwt>
<totfact> 0.83194384E-01</totfact>
</mgrwt>
</event>
<event>
 4    1  0.2451537E+000  0.5158410E+02  0.7957747E-01  0.1436980E+00
         13   -1    0    0    0    0  0.00000000000E+00  0.00000000000E+00  0.99999944183E+02  0.10000000000E+03  0.10566000000E+00 0. -1.
         22   -1    0    0    0    0 -0.00000000000E+00 -0.00000000000E+00 -0.23701984321E+02  0.23701984321E+02  0.00000000000E+00 0.  1.
         13    1    1    2    0    0 -0.49646227667E+01 -0.11673560519E+02 -0.14504945239E+02  0.19269771530E+02  0.10566000000E+00 0.  1.
        996    1    1    2    0    0  0.49646227667E+01  0.11673560519E+02  0.90802905101E+02  0.10443221279E+03  0.50000000000E+02 0.  0.
<mgrwt>
<rscale>  0 0.51584101E+02</rscale>
<asrwt>0</asrwt>
<pdfrwt beam="1">  1       13 0.10000000E+01 0.51584101E+02</pdfrwt>
<pdfrwt beam="2">  1       22 0.23702006E+00 0.51584101E+02</pdfrwt>
<totfact> 0.32707964E-01</totfact>
</mgrwt>
</event>
<event>
 4    1  0.2451537E+000  0.6591684E+02  0.7957747E-01  0.1374556E+00
         13   -1    0    0    0    0  0.00000000000E+00  0.00000000000E+00  0.99999944181E+02  0.10000000000E+03  0.10566000000E+00 0. -1.
         22   -1    0    0    0    0 -0.00000000000E+00 -0.00000000000E+00 -0.31603783954E+02  0.31603783954E+02  0.00000000000E+00 0.  1.
         13    1    1    2    0    0 -0.42346846633E+02  0.71954298670E+01  0.11345807113E+02  0.44427110348E+02  0.10566000000E+00 0.  1.
        996    1    1    2    0    0  0.42346846633E+02 -0.71954298670E+01  0.57050353113E+02  0.87176673607E+02  0.50000000000E+02 0.  0.
<mgrwt>
<rscale>  0 0.65916839E+02</rscale>
<asrwt>0</asrwt>
<pdfrwt beam="1">  1       13 0.10000000E+01 0.65916839E+02</pdfrwt>
<pdfrwt beam="2">  1       22 0.31603803E+00 0.65916839E+02</pdfrwt>
<totfact> 0.19100644E-01</totfact>
</mgrwt>
</event>
<event>
 4    1  0.2451537E+000  0.5173205E+02  0.7957747E-01  0.1436217E+00
         13   -1    0    0    0    0  0.00000000000E+00  0.00000000000E+00  0.99999944192E+02  0.10000000001E+03  0.10566000000E+00 0.  1.
         22   -1    0    0    0    0 -0.00000000000E+00 -0.00000000000E+00 -0.71267655843E+02  0.71267655843E+02  0.00000000000E+00 0. -1.
         13    1    1    2    0    0 -0.11065279225E+02 -0.73324494884E+01 -0.63848500890E+02  0.65213859338E+02  0.10566000000E+00 0. -1.
        996    1    1    2    0    0  0.11065279225E+02  0.73324494884E+01  0.92580789239E+02  0.10605379652E+03  0.50000000000E+02 0.  0.
<mgrwt>
<rscale>  0 0.51732052E+02</rscale>
<asrwt>0</asrwt>
<pdfrwt beam="1">  1       13 0.10000000E+01 0.51732052E+02</pdfrwt>
<pdfrwt beam="2">  1       22 0.71267664E+00 0.51732052E+02</pdfrwt>
<totfact> 0.67983482E-02</totfact>
</mgrwt>
</event>
<event>
 4    1  0.2451537E+000  0.6779644E+02  0.7957747E-01  0.1367751E+00
         13   -1    0    0    0    0  0.00000000000E+00  0.00000000000E+00  0.99999944183E+02  0.10000000000E+03  0.10566000000E+00 0.  1.
         22   -1    0    0    0    0 -0.00000000000E+00 -0.00000000000E+00 -0.56434188014E+02  0.56434188014E+02  0.00000000000E+00 0. -1.
         13    1    1    2    0    0 -0.37391110753E+02  0.26424658713E+02 -0.31277611595E+02  0.55449597858E+02  0.10566000000E+00 0. -1.
        996    1    1    2    0    0  0.37391110753E+02 -0.26424658713E+02  0.74843367764E+02  0.10098459016E+03  0.50000000000E+02 0.  0.
<mgrwt>
<rscale>  0 0.67796444E+02</rscale>
<asrwt>0</asrwt>
<pdfrwt beam="1">  1       13 0.10000000E+01 0.67796444E+02</pdfrwt>
<pdfrwt beam="2">  1       22 0.56434200E+00 0.67796444E+02</pdfrwt>
<totfact> 0.58302992E-02</totfact>
</mgrwt>
</event>
<event>
 4    1  0.2451537E+000  0.5153182E+02  0.7957747E-01  0.1437250E+00
         13   -1    0    0    0    0  0.00000000000E+00  0.00000000000E+00  0.99999944175E+02  0.99999999995E+02  0.10566000000E+00 0.  1.
         22   -1    0    0    0    0 -0.00000000000E+00 -0.00000000000E+00 -0.13710867277E+02  0.13710867277E+02  0.00000000000E+00 0.  1.
         13    1    1    2    0    0  0.11139675277E+02 -0.56068200346E+01 -0.82226304582E+00  0.12498642996E+02  0.10566000000E+00 0. -1.
        996    1    1    2    0    0 -0.11139675277E+02  0.56068200346E+01  0.87111339943E+02  0.10121222428E+03  0.50000000000E+02 0.  0.
<mgrwt>
<rscale>  0 0.51531823E+02</rscale>
<asrwt>0</asrwt>
<pdfrwt beam="1">  1       13 0.10000000E+01 0.51531823E+02</pdfrwt>
<pdfrwt beam="2">  1       22 0.13710891E+00 0.51531823E+02</pdfrwt>
<totfact> 0.87129600E-01</totfact>
</mgrwt>
</event>
<event>
 4    1  0.2451537E+000  0.5167917E+02  0.7957747E-01  0.1436489E+00
         13   -1    0    0    0    0  0.00000000000E+00  0.00000000000E+00  0.99999944181E+02  0.10000000000E+03  0.10566000000E+00 0. -1.
         22   -1    0    0    0    0 -0.00000000000E+00 -0.00000000000E+00 -0.12915368876E+02  0.12915368876E+02  0.00000000000E+00 0. -1.
         13    1    1    2    0    0  0.76949250986E+01  0.10560510400E+02  0.17939429000E+01  0.13189603760E+02  0.10566000000E+00 0.  1.
        996    1    1    2    0    0 -0.76949250986E+01 -0.10560510400E+02  0.85290632405E+02  0.99725765117E+02  0.50000000000E+02 0.  0.
<mgrwt>
<rscale>  0 0.51679167E+02</rscale>
<asrwt>0</asrwt>
<pdfrwt beam="1">  1       13 0.10000000E+01 0.51679167E+02</pdfrwt>
<pdfrwt beam="2">  1       22 0.12915393E+00 0.51679167E+02</pdfrwt>
<totfact> 0.95840126E-01</totfact>
</mgrwt>
</event>
<event>
 4    1  0.2451537E+000  0.5302677E+02  0.7957747E-01  0.1429668E+00
         13   -1    0    0    0    0  0.00000000000E+00  0.00000000000E+00  0.99999944174E+02  0.99999999994E+02  0.10566000000E+00 0. -1.
         22   -1    0    0    0    0 -0.00000000000E+00 -0.00000000000E+00 -0.12518100825E+02  0.12518100825E+02  0.00000000000E+00 0. -1.
         13    1    1    2    0    0 -0.16491925129E+02  0.63130879325E+01  0.24158257436E+02  0.29924425477E+02  0.10566000000E+00 0.  1.
        996    1    1    2    0    0  0.16491925129E+02 -0.63130879325E+01  0.63323585912E+02  0.82593675342E+02  0.50000000000E+02 0.  0.
<mgrwt>
<rscale>  0 0.53026773E+02</rscale>
<asrwt>0</asrwt>
<pdfrwt beam="1">  1       13 0.10000000E+01 0.53026773E+02</pdfrwt>
<pdfrwt beam="2">  1       22 0.12518125E+00 0.53026773E+02</pdfrwt>
<totfact> 0.10093193E+00</totfact>
</mgrwt>
</event>
<event>
 4    1  0.2451537E+000  0.5556828E+02  0.7957747E-01  0.1417430E+00
         13   -1    0    0    0    0  0.00000000000E+00  0.00000000000E+00  0.99999944175E+02  0.99999999995E+02  0.10566000000E+00 0. -1.
         22   -1    0    0    0    0 -0.00000000000E+00 -0.00000000000E+00 -0.24648048113E+02  0.24648048113E+02  0.00000000000E+00 0. -1.
         13    1    1    2    0    0  0.22431647715E+02 -0.92008149531E+01 -0.70596427104E+01  0.25252396604E+02  0.10566000000E+00 0.  1.
        996    1    1    2    0    0 -0.22431647715E+02  0.92008149531E+01  0.82411538773E+02  0.99395651504E+02  0.50000000000E+02 0.  0.
<mgrwt>
<rscale>  0 0.55568281E+02</rscale>
<asrwt>0</asrwt>
<pdfrwt beam="1">  1       13 0.10000000E+01 0.55568281E+02</pdfrwt>
<pdfrwt beam="2">  1       22 0.24648069E+00 0.55568281E+02</pdfrwt>
<totfact> 0.30478726E-01</totfact>
</mgrwt>
</event>
<event>
 4    1  0.2451537E+000  0.5256215E+02  0.7957747E-01  0.1431992E+00
         13   -1    0    0    0    0  0.00000000000E+00  0.00000000000E+00  0.99999944181E+02  0.10000000000E+03  0.10566000000E+00 0.  1.
         22   -1    0    0    0    0 -0.00000000000E+00 -0.00000000000E+00 -0.11844348468E+02  0.11844348468E+02  0.00000000000E+00 0.  1.
         13    1    1    2    0    0  0.15592504712E+02 -0.44332241146E+01  0.18864417465E+02  0.24872818288E+02  0.10566000000E+00 0. -1.
        996    1    1    2    0    0 -0.15592504712E+02  0.44332241146E+01  0.69291178247E+02  0.86971530182E+02  0.50000000000E+02 0.  0.
<mgrwt>
<rscale>  0 0.52562151E+02</rscale>
<asrwt>0</asrwt>
<pdfrwt beam="1">  1       13 0.10000000E+01 0.52562151E+02</pdfrwt>
<pdfrwt beam="2">  1       22 0.11844373E+00 0.52562151E+02</pdfrwt>
<totfact> 0.10979834E+00</totfact>
</mgrwt>
</event>
<event>
 4    1  0.2451537E+000  0.5180783E+02  0.7957747E-01  0.1435828E+00
         13   -1    0    0    0    0  0.00000000000E+00  0.00000000000E+00  0.99999944179E+02  0.99999999999E+02  0.10566000000E+00 0. -1.
         22   -1    0    0    0    0 -0.00000000000E+00 -0.00000000000E+00 -0.14203006266E+02  0.14203006266E+02  0.00000000000E+00 0.  1.
         13    1    1    2    0    0 -0.11917903031E+02  0.64818876430E+01 -0.46966368628E+00  0.13575088511E+02  0.10566000000E+00 0.  1.
        996    1    1    2    0    0  0.11917903031E+02 -0.64818876430E+01  0.86266601599E+02  0.10062791775E+03  0.50000000000E+02 0.  0.
<mgrwt>
<rscale>  0 0.51807830E+02</rscale>
<asrwt>0</asrwt>
<pdfrwt beam="1">  1       13 0.10000000E+01 0.51807830E+02</pdfrwt>
<pdfrwt beam="2">  1       22 0.14203030E+00 0.51807830E+02</pdfrwt>
<totfact> 0.82344379E-01</totfact>
</mgrwt>
</event>
<event>
 4    1  0.2451537E+000  0.5175340E+02  0.7957747E-01  0.1436107E+00
         13   -1    0    0    0    0  0.00000000000E+00  0.00000000000E+00  0.99999944169E+02  0.99999999989E+02  0.10566000000E+00 0.  1.
         22   -1    0    0    0    0 -0.00000000000E+00 -0.00000000000E+00 -0.22920667168E+02  0.22920667168E+02  0.00000000000E+00 0. -1.
         13    1    1    2    0    0  0.25002624332E+01  0.13121111083E+02 -0.13250866542E+02  0.18815193234E+02  0.10566000000E+00 0. -1.
        996    1    1    2    0    0 -0.25002624332E+01 -0.13121111083E+02  0.90330143543E+02  0.10410547392E+03  0.50000000000E+02 0.  0.
<mgrwt>
<rscale>  0 0.51753404E+02</rscale>
<asrwt>0</asrwt>
<pdfrwt beam="1">  1       13 0.10000000E+01 0.51753404E+02</pdfrwt>
<pdfrwt beam="2">  1       22 0.22920689E+00 0.51753404E+02</pdfrwt>
<totfact> 0.34925539E-01</totfact>
</mgrwt>
</event>
<event>
 4    1  0.2451537E+000  0.5354318E+02  0.7957747E-01  0.1427117E+00
         13   -1    0    0    0    0  0.00000000000E+00  0.00000000000E+00  0.99999944183E+02  0.10000000000E+03  0.10566000000E+00 0. -1.
         22   -1    0    0    0    0 -0.00000000000E+00 -0.00000000000E+00 -0.20800809725E+02  0.20800809725E+02  0.00000000000E+00 0.  1.
         13    1    1    2    0    0 -0.16424663055E+02  0.98540579363E+01 -0.60888713585E+01  0.20098694802E+02  0.10566000000E+00 0.  1.
        996    1    1    2    0    0  0.16424663055E+02 -0.98540579363E+01  0.85288005817E+02  0.10070211493E+03  0.50000000000E+02 0.  0.
<mgrwt>
<rscale>  0 0.53543179E+02</rscale>
<asrwt>0</asrwt>
<pdfrwt beam="1">  1       13 0.10000000E+01 0.53543179E+02</pdfrwt>
<pdfrwt beam="2">  1       22 0.20800832E+00 0.53543179E+02</pdfrwt>
<totfact> 0.42200065E-01</totfact>
</mgrwt>
</event>
<event>
 4    1  0.2451537E+000  0.5108457E+02  0.7957747E-01  0.1439578E+00
         13   -1    0    0    0    0  0.00000000000E+00  0.00000000000E+00  0.99999944179E+02  0.99999999999E+02  0.10566000000E+00 0. -1.
         22   -1    0    0    0    0 -0.00000000000E+00 -0.00000000000E+00 -0.15302294253E+02  0.15302294253E+02  0.00000000000E+00 0.  1.
         13    1    1    2    0    0  0.45705407355E+01  0.94203992919E+01 -0.53611490575E+01  0.11763793975E+02  0.10566000000E+00 0.  1.
        996    1    1    2    0    0 -0.45705407355E+01 -0.94203992919E+01  0.90058798983E+02  0.10353850028E+03  0.50000000000E+02 0.  0.
<mgrwt>
<rscale>  0 0.51084575E+02</rscale>
<asrwt>0</asrwt>
<pdfrwt beam="1">  1       13 0.10000000E+01 0.51084575E+02</pdfrwt>
<pdfrwt beam="2">  1       22 0.15302318E+00 0.51084575E+02</pdfrwt>
<totfact> 0.72686224E-01</totfact>
</mgrwt>
</event>
<event>
 4    1  0.2451537E+000  0.5127287E+02  0.7957747E-01  0.1438595E+00
         13   -1    0    0    0    0  0.00000000000E+00  0.00000000000E+00  0.99999944181E+02  0.10000000000E+03  0.10566000000E+00 0.  1.
         22   -1    0    0    0    0 -0.00000000000E+00 -0.00000000000E+00 -0.24284557520E+02  0.24284557520E+02  0.00000000000E+00 0. -1.
         13    1    1    2    0    0 -0.40172432087E+01  0.10619264831E+02 -0.15757341998E+02  0.19421946850E+02  0.10566000000E+00 0. -1.
        996    1    1    2    0    0  0.40172432087E+01 -0.10619264831E+02  0.91472728659E+02  0.10486261067E+03  0.50000000000E+02 0.  0.
<mgrwt>
<rscale>  0 0.51272868E+02</rscale>
<asrwt>0</asrwt>
<pdfrwt beam="1">  1       13 0.10000000E+01 0.51272868E+02</pdfrwt>
<pdfrwt beam="2">  1       22 0.24284579E+00 0.51272868E+02</pdfrwt>
<totfact> 0.31173378E-01</totfact>
</mgrwt>
</event>
<event>
 4    1  0.2451537E+000  0.5401469E+02  0.7957747E-01  0.1424817E+00
         13   -1    0    0    0    0  0.00000000000E+00  0.00000000000E+00  0.99999944177E+02  0.99999999998E+02  0.10566000000E+00 0.  1.
         22   -1    0    0    0    0 -0.00000000000E+00 -0.00000000000E+00 -0.14526613909E+02  0.14526613909E+02  0.00000000000E+00 0.  1.
         13    1    1    2    0    0 -0.17734091658E+02 -0.10153259507E+02  0.13311896052E+02  0.24388612631E+02  0.10566000000E+00 0. -1.
        996    1    1    2    0    0  0.17734091658E+02  0.10153259507E+02  0.72161434217E+02  0.90138001275E+02  0.50000000000E+02 0.  0.
<mgrwt>
<rscale>  0 0.54014690E+02</rscale>
<asrwt>0</asrwt>
<pdfrwt beam="1">  1       13 0.10000000E+01 0.54014690E+02</pdfrwt>
<pdfrwt beam="2">  1       22 0.14526638E+00 0.54014690E+02</pdfrwt>
<totfact> 0.79720233E-01</totfact>
</mgrwt>
</event>
<event>
 4    1  0.2451537E+000  0.5149112E+02  0.7957747E-01  0.1437461E+00
         13   -1    0    0    0    0  0.00000000000E+00  0.00000000000E+00  0.99999944182E+02  0.10000000000E+03  0.10566000000E+00 0.  1.
         22   -1    0    0    0    0 -0.00000000000E+00 -0.00000000000E+00 -0.12347500986E+02  0.12347500986E+02  0.00000000000E+00 0. -1.
         13    1    1    2    0    0  0.10408460262E+02  0.65574104479E+01  0.20788642403E+01  0.12476719015E+02  0.10566000000E+00 0. -1.
        996    1    1    2    0    0 -0.10408460262E+02 -0.65574104479E+01  0.85573578955E+02  0.99870781973E+02  0.50000000000E+02 0.  0.
<mgrwt>
<rscale>  0 0.51491122E+02</rscale>
<asrwt>0</asrwt>
<pdfrwt beam="1">  1       13 0.10000000E+01 0.51491122E+02</pdfrwt>
<pdfrwt beam="2">  1       22 0.12347525E+00 0.51491122E+02</pdfrwt>
<totfact> 0.10275632E+00</totfact>
</mgrwt>
</event>
<event>
 4    1  0.2451537E+000  0.5291849E+02  0.7957747E-01  0.1430207E+00
         13   -1    0    0    0    0  0.00000000000E+00  0.00000000000E+00  0.99999944182E+02  0.10000000000E+03  0.10566000000E+00 0.  1.
         22   -1    0    0    0    0 -0.00000000000E+00 -0.00000000000E+00 -0.15966016488E+02  0.15966016488E+02  0.00000000000E+00 0.  1.
         13    1    1    2    0    0 -0.18242275396E+01 -0.17234802093E+02  0.50318753441E+02  0.53219867729E+02  0.10566000000E+00 0. -1.
        996    1    1    2    0    0  0.18242275396E+01  0.17234802093E+02  0.33715174254E+02  0.62746148760E+02  0.50000000000E+02 0.  0.
<mgrwt>
<rscale>  0 0.52918486E+02</rscale>
<asrwt>0</asrwt>
<pdfrwt beam="1">  1       13 0.10000000E+01 0.52918486E+02</pdfrwt>
<pdfrwt beam="2">  1       22 0.15966040E+00 0.52918486E+02</pdfrwt>
<totfact> 0.67893440E-01</totfact>
</mgrwt>
</event>
<event>
 4    1  0.2451537E+000  0.5866226E+02  0.7957747E-01  0.1403533E+00
         13   -1    0    0    0    0  0.00000000000E+00  0.00000000000E+00  0.99999944184E+02  0.10000000000E+03  0.10566000000E+00 0. -1.
         22   -1    0    0    0    0 -0.00000000000E+00 -0.00000000000E+00 -0.27674493119E+02  0.27674493119E+02  0.00000000000E+00 0.  1.
         13    1    1    2    0    0  0.30103017630E+02 -0.59219584729E+01 -0.45050488372E+01  0.31009158190E+02  0.10566000000E+00 0.  1.
        996    1    1    2    0    0 -0.30103017630E+02  0.59219584729E+01  0.76830499901E+02  0.96665334933E+02  0.50000000000E+02 0.  0.
<mgrwt>
<rscale>  0 0.58662264E+02</rscale>
<asrwt>0</asrwt>
<pdfrwt beam="1">  1       13 0.10000000E+01 0.58662264E+02</pdfrwt>
<pdfrwt beam="2">  1       22 0.27674513E+00 0.58662264E+02</pdfrwt>
<totfact> 0.24370564E-01</totfact>
</mgrwt>
</event>
<event>
 4    1  0.2451537E+000  0.5135543E+02  0.7957747E-01  0.1438165E+00
         13   -1    0    0    0    0  0.00000000000E+00  0.00000000000E+00  0.99999944179E+02  0.99999999999E+02  0.10566000000E+00 0. -1.
         22   -1    0    0    0    0 -0.00000000000E+00 -0.00000000000E+00 -0.10775273503E+02  0.10775273503E+02  0.00000000000E+00 0. -1.
         13    1    1    2    0    0 -0.68518624987E+00 -0.11700891265E+02  0.64915528671E+01  0.13398946199E+02  0.10566000000E+00 0.  1.
        996    1    1    2    0    0  0.68518624987E+00  0.11700891265E+02  0.82733117809E+02  0.97376327303E+02  0.50000000000E+02 0.  0.
<mgrwt>
<rscale>  0 0.51355431E+02</rscale>
<asrwt>0</asrwt>
<pdfrwt beam="1">  1       13 0.10000000E+01 0.51355431E+02</pdfrwt>
<pdfrwt beam="2">  1       22 0.10775298E+00 0.51355431E+02</pdfrwt>
<totfact> 0.12619289E+00</totfact>
</mgrwt>
</event>
<event>
 4    1  0.2451537E+000  0.5396138E+02  0.7957747E-01  0.1425075E+00
         13   -1    0    0    0    0  0.00000000000E+00  0.00000000000E+00  0.99999944182E+02  0.10000000000E+03  0.10566000000E+00 0.  1.
         22   -1    0    0    0    0 -0.00000000000E+00 -0.00000000000E+00 -0.16247967273E+02  0.16247967273E+02  0.00000000000E+00 0. -1.
         13    1    1    2    0    0 -0.14324366133E+02 -0.14375100972E+02  0.52040899183E+01  0.20950530040E+02  0.10566000000E+00 0. -1.
        996    1    1    2    0    0  0.14324366133E+02  0.14375100972E+02  0.78547886991E+02  0.95297437236E+02  0.50000000000E+02 0.  0.
<mgrwt>
<rscale>  0 0.53961384E+02</rscale>
<asrwt>0</asrwt>
<pdfrwt beam="1">  1       13 0.10000000E+01 0.53961384E+02</pdfrwt>
<pdfrwt beam="2">  1       22 0.16247991E+00 0.53961384E+02</pdfrwt>
<totfact> 0.66017452E-01</totfact>
</mgrwt>
</event>
<event>
 4    1  0.2451537E+000  0.5241264E+02  0.7957747E-01  0.1432746E+00
         13   -1    0    0    0    0  0.00000000000E+00  0.00000000000E+00  0.99999944181E+02  0.10000000000E+03  0.10566000000E+00 0.  1.
         22   -1    0    0    0    0 -0.00000000000E+00 -0.00000000000E+00 -0.24777140450E+02  0.24777140450E+02  0.00000000000E+00 0.  1.
         13    1    1    2    0    0  0.11112002884E+02 -0.11117921870E+02 -0.14162667297E+02  0.21158381408E+02  0.10566000000E+00 0. -1.
        996    1    1    2    0    0 -0.11112002884E+02  0.11117921870E+02  0.89385471027E+02  0.10361875904E+03  0.50000000000E+02 0.  0.
<mgrwt>
<rscale>  0 0.52412640E+02</rscale>
<asrwt>0</asrwt>
<pdfrwt beam="1">  1       13 0.10000000E+01 0.52412640E+02</pdfrwt>
<pdfrwt beam="2">  1       22 0.24777161E+00 0.52412640E+02</pdfrwt>
<totfact> 0.30022549E-01</totfact>
</mgrwt>
</event>
<event>
 4    1  0.2451537E+000  0.5127552E+02  0.7957747E-01  0.1438581E+00
         13   -1    0    0    0    0  0.00000000000E+00  0.00000000000E+00  0.99999944178E+02  0.99999999998E+02  0.10566000000E+00 0. -1.
         22   -1    0    0    0    0 -0.00000000000E+00 -0.00000000000E+00 -0.16735833285E+02  0.16735833285E+02  0.00000000000E+00 0.  1.
         13    1    1    2    0    0  0.72957847135E+01  0.87149388868E+01 -0.66937054969E+01  0.13190735071E+02  0.10566000000E+00 0.  1.
        996    1    1    2    0    0 -0.72957847135E+01 -0.87149388868E+01  0.89957816389E+02  0.10354509821E+03  0.50000000000E+02 0.  0.
<mgrwt>
<rscale>  0 0.51275517E+02</rscale>
<asrwt>0</asrwt>
<pdfrwt beam="1">  1       13 0.10000000E+01 0.51275517E+02</pdfrwt>
<pdfrwt beam="2">  1       22 0.16735857E+00 0.51275517E+02</pdfrwt>
<totfact> 0.62395642E-01</totfact>
</mgrwt>
</event>
<event>
 4    1  0.2451537E+000  0.5495136E+02  0.7957747E-01  0.1420329E+00
         13   -1    0    0    0    0  0.00000000000E+00  0.00000000000E+00  0.99999944181E+02  0.10000000000E+03  0.10566000000E+00 0.  1.
         22   -1    0    0    0    0 -0.00000000000E+00 -0.00000000000E+00 -0.15537890220E+02  0.15537890220E+02  0.00000000000E+00 0.  1.
         13    1    1    2    0    0 -0.10558331997E+02 -0.20203312699E+02  0.16508044863E+02  0.28145673341E+02  0.10566000000E+00 0. -1.
        996    1    1    2    0    0  0.10558331997E+02  0.20203312699E+02  0.67954009098E+02  0.87392216879E+02  0.50000000000E+02 0.  0.
<mgrwt>
<rscale>  0 0.54951362E+02</rscale>
<asrwt>0</asrwt>
<pdfrwt beam="1">  1       13 0.10000000E+01 0.54951362E+02</pdfrwt>
<pdfrwt beam="2">  1       22 0.15537914E+00 0.54951362E+02</pdfrwt>
<totfact> 0.71383505E-01</totfact>
</mgrwt>
</event>
<event>
 4    1  0.2451537E+000  0.5473155E+02  0.7957747E-01  0.1421373E+00
         13   -1    0    0    0    0  0.00000000000E+00  0.00000000000E+00  0.99999944169E+02  0.99999999990E+02  0.10566000000E+00 0.  1.
         22   -1    0    0    0    0 -0.00000000000E+00 -0.00000000000E+00 -0.34353221062E+02  0.34353221062E+02  0.00000000000E+00 0. -1.
         13    1    1    2    0    0  0.20151124018E+02 -0.94591192568E+01 -0.21821516331E+02  0.31172623812E+02  0.10566000000E+00 0. -1.
        996    1    1    2    0    0 -0.20151124018E+02  0.94591192568E+01  0.87468239438E+02  0.10318059724E+03  0.50000000000E+02 0.  0.
<mgrwt>
<rscale>  0 0.54731552E+02</rscale>
<asrwt>0</asrwt>
<pdfrwt beam="1">  1       13 0.10000000E+01 0.54731552E+02</pdfrwt>
<pdfrwt beam="2">  1       22 0.34353239E+00 0.54731552E+02</pdfrwt>
<totfact> 0.16280279E-01</totfact>
</mgrwt>
</event>
<event>
 4    1  0.2451537E+000  0.5110292E+02  0.7957747E-01  0.1439482E+00
         13   -1    0    0    0    0  0.00000000000E+00  0.00000000000E+00  0.99999944180E+02  0.10000000000E+03  0.10566000000E+00 0.  1.
         22   -1    0    0    0    0 -0.00000000000E+00 -0.00000000000E+00 -0.40735303518E+02  0.40735303518E+02  0.00000000000E+00 0. -1.
         13    1    1    2    0    0  0.10385706012E+02 -0.19093993827E+01 -0.33336493143E+02  0.34969152613E+02  0.10566000000E+00 0. -1.
        996    1    1    2    0    0 -0.10385706012E+02  0.19093993827E+01  0.92601133805E+02  0.10576615091E+03  0.50000000000E+02 0.  0.
<mgrwt>
<rscale>  0 0.51102923E+02</rscale>
<asrwt>0</asrwt>
<pdfrwt beam="1">  1       13 0.10000000E+01 0.51102923E+02</pdfrwt>
<pdfrwt beam="2">  1       22 0.40735320E+00 0.51102923E+02</pdfrwt>
<totfact> 0.11934050E-01</totfact>
</mgrwt>
</event>
<event>
 4    1  0.2451537E+000  0.5112211E+02  0.7957747E-01  0.1439381E+00
         13   -1    0    0    0    0  0.00000000000E+00  0.00000000000E+00  0.99999944173E+02  0.99999999993E+02  0.10566000000E+00 0.  1.
         22   -1    0    0    0    0 -0.00000000000E+00 -0.00000000000E+00 -0.10647377929E+02  0.10647377929E+02  0.00000000000E+00 0.  1.
         13    1    1    2    0    0 -0.91680449422E+01 -0.54237729355E+01  0.44565241780E+01  0.11547386401E+02  0.10566000000E+00 0. -1.
        996    1    1    2    0    0  0.91680449422E+01  0.54237729355E+01  0.84896042066E+02  0.99099991520E+02  0.50000000000E+02 0.  0.
<mgrwt>
<rscale>  0 0.51122112E+02</rscale>
<asrwt>0</asrwt>
<pdfrwt beam="1">  1       13 0.10000000E+01 0.51122112E+02</pdfrwt>
<pdfrwt beam="2">  1       22 0.10647403E+00 0.51122112E+02</pdfrwt>
<totfact> 0.12836522E+00</totfact>
</mgrwt>
</event>
<event>
 4    1  0.2451537E+000  0.5450229E+02  0.7957747E-01  0.1422467E+00
         13   -1    0    0    0    0  0.00000000000E+00  0.00000000000E+00  0.99999944178E+02  0.99999999998E+02  0.10566000000E+00 0. -1.
         22   -1    0    0    0    0 -0.00000000000E+00 -0.00000000000E+00 -0.14556246271E+02  0.14556246271E+02  0.00000000000E+00 0. -1.
         13    1    1    2    0    0 -0.11974671775E+02 -0.18086082264E+02  0.21579906432E+02  0.30597429001E+02  0.10566000000E+00 0.  1.
        996    1    1    2    0    0  0.11974671775E+02  0.18086082264E+02  0.63863791474E+02  0.83958817269E+02  0.50000000000E+02 0.  0.
<mgrwt>
<rscale>  0 0.54502286E+02</rscale>
<asrwt>0</asrwt>
<pdfrwt beam="1">  1       13 0.10000000E+01 0.54502286E+02</pdfrwt>
<pdfrwt beam="2">  1       22 0.14556270E+00 0.54502286E+02</pdfrwt>
<totfact> 0.79529762E-01</totfact>
</mgrwt>
</event>
<event>
 4    1  0.2451537E+000  0.5161215E+02  0.7957747E-01  0.1436835E+00
         13   -1    0    0    0    0  0.00000000000E+00  0.00000000000E+00  0.99999944177E+02  0.99999999997E+02  0.10566000000E+00 0.  1.
         22   -1    0    0    0    0 -0.00000000000E+00 -0.00000000000E+00 -0.12144018589E+02  0.12144018589E+02  0.00000000000E+00 0.  1.
         13    1    1    2    0    0  0.73486656530E+01  0.10479063185E+02  0.35303449698E+01  0.13277354848E+02  0.10566000000E+00 0. -1.
        996    1    1    2    0    0 -0.73486656530E+01 -0.10479063185E+02  0.84325580619E+02  0.98866663738E+02  0.50000000000E+02 0.  0.
<mgrwt>
<rscale>  0 0.51612146E+02</rscale>
<asrwt>0</asrwt>
<pdfrwt beam="1">  1       13 0.10000000E+01 0.51612146E+02</pdfrwt>
<pdfrwt beam="2">  1       22 0.12144043E+00 0.51612146E+02</pdfrwt>
<totfact> 0.10545203E+00</totfact>
</mgrwt>
</event>
<event>
 4    1  0.2451537E+000  0.6926561E+02  0.7957747E-01  0.1362608E+00
         13   -1    0    0    0    0  0.00000000000E+00  0.00000000000E+00  0.99999944175E+02  0.99999999995E+02  0.10566000000E+00 0. -1.
         22   -1    0    0    0    0 -0.00000000000E+00 -0.00000000000E+00 -0.43561690108E+02  0.43561690108E+02  0.00000000000E+00 0.  1.
         13    1    1    2    0    0 -0.25652823839E+02 -0.40492674942E+02 -0.84223574389E+01  0.48668997973E+02  0.10566000000E+00 0.  1.
        996    1    1    2    0    0  0.25652823839E+02  0.40492674942E+02  0.64860611506E+02  0.94892692130E+02  0.50000000000E+02 0.  0.
<mgrwt>
<rscale>  0 0.69265605E+02</rscale>
<asrwt>0</asrwt>
<pdfrwt beam="1">  1       13 0.10000000E+01 0.69265605E+02</pdfrwt>
<pdfrwt beam="2">  1       22 0.43561706E+00 0.69265605E+02</pdfrwt>
<totfact> 0.10499454E-01</totfact>
</mgrwt>
</event>
<event>
 4    1  0.2451537E+000  0.5386119E+02  0.7957747E-01  0.1425562E+00
         13   -1    0    0    0    0  0.00000000000E+00  0.00000000000E+00  0.99999944177E+02  0.99999999997E+02  0.10566000000E+00 0. -1.
         22   -1    0    0    0    0 -0.00000000000E+00 -0.00000000000E+00 -0.66509952438E+02  0.66509952438E+02  0.00000000000E+00 0.  1.
         13    1    1    2    0    0  0.15460504064E+02  0.12727940724E+02 -0.57436805322E+02  0.60827834342E+02  0.10566000000E+00 0.  1.
        996    1    1    2    0    0 -0.15460504064E+02 -0.12727940724E+02  0.90926797061E+02  0.10568211809E+03  0.50000000000E+02 0.  0.
<mgrwt>
<rscale>  0 0.53861189E+02</rscale>
<asrwt>0</asrwt>
<pdfrwt beam="1">  1       13 0.10000000E+01 0.53861189E+02</pdfrwt>
<pdfrwt beam="2">  1       22 0.66509962E+00 0.53861189E+02</pdfrwt>
<totfact> 0.86986586E-02</totfact>
</mgrwt>
</event>
<event>
 4    1  0.2451537E+000  0.5219409E+02  0.7957747E-01  0.1433854E+00
         13   -1    0    0    0    0  0.00000000000E+00  0.00000000000E+00  0.99999944174E+02  0.99999999994E+02  0.10566000000E+00 0.  1.
         22   -1    0    0    0    0 -0.00000000000E+00 -0.00000000000E+00 -0.11873478870E+02  0.11873478870E+02  0.00000000000E+00 0. -1.
         13    1    1    2    0    0 -0.13568326863E+02  0.63342740689E+01  0.10335301522E+02  0.18194838373E+02  0.10566000000E+00 0. -1.
        996    1    1    2    0    0  0.13568326863E+02 -0.63342740689E+01  0.77791163782E+02  0.93678640492E+02  0.50000000000E+02 0.  0.
<mgrwt>
<rscale>  0 0.52194085E+02</rscale>
<asrwt>0</asrwt>
<pdfrwt beam="1">  1       13 0.10000000E+01 0.52194085E+02</pdfrwt>
<pdfrwt beam="2">  1       22 0.11873503E+00 0.52194085E+02</pdfrwt>
<totfact> 0.10929785E+00</totfact>
</mgrwt>
</event>
<event>
 4    1  0.2451537E+000  0.5149680E+02  0.7957747E-01  0.1437431E+00
         13   -1    0    0    0    0  0.00000000000E+00  0.00000000000E+00  0.99999944173E+02  0.99999999993E+02  0.10566000000E+00 0.  1.
         22   -1    0    0    0    0 -0.00000000000E+00 -0.00000000000E+00 -0.38763698333E+02  0.38763698333E+02  0.00000000000E+00 0. -1.
         13    1    1    2    0    0 -0.11551773483E+02 -0.42985317528E+01 -0.30869466425E+02  0.33239373749E+02  0.10566000000E+00 0. -1.
        996    1    1    2    0    0  0.11551773483E+02  0.42985317528E+01  0.92105712264E+02  0.10552432458E+03  0.50000000000E+02 0.  0.
<mgrwt>
<rscale>  0 0.51496804E+02</rscale>
<asrwt>0</asrwt>
<pdfrwt beam="1">  1       13 0.10000000E+01 0.51496804E+02</pdfrwt>
<pdfrwt beam="2">  1       22 0.38763715E+00 0.51496804E+02</pdfrwt>
<totfact> 0.13106888E-01</totfact>
</mgrwt>
</event>
<event>
 4    1  0.2451537E+000  0.5232394E+02  0.7957747E-01  0.1433195E+00
         13   -1    0    0    0    0  0.00000000000E+00  0.00000000000E+00  0.99999944180E+02  0.10000000000E+03  0.10566000000E+00 0. -1.
         22   -1    0    0    0    0 -0.00000000000E+00 -0.00000000000E+00 -0.13853314100E+02  0.13853314100E+02  0.00000000000E+00 0.  1.
         13    1    1    2    0    0  0.13669291992E+02 -0.71375943417E+01  0.31491611221E+01  0.15739224134E+02  0.10566000000E+00 0.  1.
        996    1    1    2    0    0 -0.13669291992E+02  0.71375943417E+01  0.82997468957E+02  0.98114089966E+02  0.50000000000E+02 0.  0.
<mgrwt>
<rscale>  0 0.52323941E+02</rscale>
<asrwt>0</asrwt>
<pdfrwt beam="1">  1       13 0.10000000E+01 0.52323941E+02</pdfrwt>
<pdfrwt beam="2">  1       22 0.13853338E+00 0.52323941E+02</pdfrwt>
<totfact> 0.85834927E-01</totfact>
</mgrwt>
</event>
<event>
 4    1  0.2451537E+000  0.5207885E+02  0.7957747E-01  0.1434441E+00
         13   -1    0    0    0    0  0.00000000000E+00  0.00000000000E+00  0.99999944180E+02  0.10000000000E+03  0.10566000000E+00 0.  1.
         22   -1    0    0    0    0 -0.00000000000E+00 -0.00000000000E+00 -0.21927209643E+02  0.21927209643E+02  0.00000000000E+00 0. -1.
         13    1    1    2    0    0  0.72736607191E+01  0.12621431309E+02 -0.11334721550E+02  0.18457891136E+02  0.10566000000E+00 0. -1.
        996    1    1    2    0    0 -0.72736607191E+01 -0.12621431309E+02  0.89407456087E+02  0.10346931851E+03  0.50000000000E+02 0.  0.
<mgrwt>
<rscale>  0 0.52078850E+02</rscale>
<asrwt>0</asrwt>
<pdfrwt beam="1">  1       13 0.10000000E+01 0.52078850E+02</pdfrwt>
<pdfrwt beam="2">  1       22 0.21927231E+00 0.52078850E+02</pdfrwt>
<totfact> 0.38067795E-01</totfact>
</mgrwt>
</event>
<event>
 4    1  0.2451537E+000  0.5865063E+02  0.7957747E-01  0.1403583E+00
         13   -1    0    0    0    0  0.00000000000E+00  0.00000000000E+00  0.99999944184E+02  0.10000000000E+03  0.10566000000E+00 0. -1.
         22   -1    0    0    0    0 -0.00000000000E+00 -0.00000000000E+00 -0.29113665482E+02  0.29113665482E+02  0.00000000000E+00 0.  1.
         13    1    1    2    0    0  0.14236952044E+02 -0.27151539325E+02 -0.71632207646E+01  0.31483643166E+02  0.10566000000E+00 0.  1.
        996    1    1    2    0    0 -0.14236952044E+02  0.27151539325E+02  0.78049499467E+02  0.97630022320E+02  0.50000000000E+02 0.  0.
<mgrwt>
<rscale>  0 0.58650634E+02</rscale>
<asrwt>0</asrwt>
<pdfrwt beam="1">  1       13 0.10000000E+01 0.58650634E+02</pdfrwt>
<pdfrwt beam="2">  1       22 0.29113685E+00 0.58650634E+02</pdfrwt>
<totfact> 0.22095445E-01</totfact>
</mgrwt>
</event>
<event>
 4    1  0.2451537E+000  0.5117419E+02  0.7957747E-01  0.1439109E+00
         13   -1    0    0    0    0  0.00000000000E+00  0.00000000000E+00  0.99999944179E+02  0.99999999999E+02  0.10566000000E+00 0.  1.
         22   -1    0    0    0    0 -0.00000000000E+00 -0.00000000000E+00 -0.18380746061E+02  0.18380746061E+02  0.00000000000E+00 0. -1.
         13    1    1    2    0    0  0.10873301964E+02 -0.75445017002E+00 -0.91159044496E+01  0.14209460533E+02  0.10566000000E+00 0. -1.
        996    1    1    2    0    0 -0.10873301964E+02  0.75445017002E+00  0.90735102567E+02  0.10417128553E+03  0.50000000000E+02 0.  0.
<mgrwt>
<rscale>  0 0.51174192E+02</rscale>
<asrwt>0</asrwt>
<pdfrwt beam="1">  1       13 0.10000000E+01 0.51174192E+02</pdfrwt>
<pdfrwt beam="2">  1       22 0.18380769E+00 0.51174192E+02</pdfrwt>
<totfact> 0.52826234E-01</totfact>
</mgrwt>
</event>
<event>
 4    1  0.2451537E+000  0.5122097E+02  0.7957747E-01  0.1438865E+00
         13   -1    0    0    0    0  0.00000000000E+00  0.00000000000E+00  0.99999944176E+02  0.99999999996E+02  0.10566000000E+00 0. -1.
         22   -1    0    0    0    0 -0.00000000000E+00 -0.00000000000E+00 -0.10570874883E+02  0.10570874883E+02  0.00000000000E+00 0.  1.
         13    1    1    2    0    0  0.65773820441E+00 -0.11097510760E+02  0.58955584783E+01  0.12583963541E+02  0.10566000000E+00 0.  1.
        996    1    1    2    0    0 -0.65773820441E+00  0.11097510760E+02  0.83533510814E+02  0.97986911338E+02  0.50000000000E+02 0.  0.
<mgrwt>
<rscale>  0 0.51220966E+02</rscale>
<asrwt>0</asrwt>
<pdfrwt beam="1">  1       13 0.10000000E+01 0.51220966E+02</pdfrwt>
<pdfrwt beam="2">  1       22 0.10570900E+00 0.51220966E+02</pdfrwt>
<totfact> 0.12976528E+00</totfact>
</mgrwt>
</event>
<event>
 4    1  0.2451537E+000  0.6715590E+02  0.7957747E-01  0.1370041E+00
         13   -1    0    0    0    0  0.00000000000E+00  0.00000000000E+00  0.99999944189E+02  0.10000000001E+03  0.10566000000E+00 0. -1.
         22   -1    0    0    0    0 -0.00000000000E+00 -0.00000000000E+00 -0.43208449892E+02  0.43208449892E+02  0.00000000000E+00 0.  1.
         13    1    1    2    0    0  0.29008051085E+01  0.44738136616E+02 -0.12673487825E+02  0.46589097392E+02  0.10566000000E+00 0.  1.
        996    1    1    2    0    0 -0.29008051085E+01 -0.44738136616E+02  0.69464982121E+02  0.96619352509E+02  0.50000000000E+02 0.  0.
<mgrwt>
<rscale>  0 0.67155905E+02</rscale>
<asrwt>0</asrwt>
<pdfrwt beam="1">  1       13 0.10000000E+01 0.67155905E+02</pdfrwt>
<pdfrwt beam="2">  1       22 0.43208466E+00 0.67155905E+02</pdfrwt>
<totfact> 0.10677984E-01</totfact>
</mgrwt>
</event>
<event>
 4    1  0.2451537E+000  0.5242507E+02  0.7957747E-01  0.1432684E+00
         13   -1    0    0    0    0  0.00000000000E+00  0.00000000000E+00  0.99999944178E+02  0.99999999998E+02  0.10566000000E+00 0.  1.
         22   -1    0    0    0    0 -0.00000000000E+00 -0.00000000000E+00 -0.11818666816E+02  0.11818666816E+02  0.00000000000E+00 0.  1.
         13    1    1    2    0    0  0.10987456967E+02 -0.11298858704E+02  0.14692413501E+02  0.21546846571E+02  0.10566000000E+00 0. -1.
        996    1    1    2    0    0 -0.10987456967E+02  0.11298858704E+02  0.73488863860E+02  0.90271820243E+02  0.50000000000E+02 0.  0.
<mgrwt>
<rscale>  0 0.52425074E+02</rscale>
<asrwt>0</asrwt>
<pdfrwt beam="1">  1       13 0.10000000E+01 0.52425074E+02</pdfrwt>
<pdfrwt beam="2">  1       22 0.11818691E+00 0.52425074E+02</pdfrwt>
<totfact> 0.11012846E+00</totfact>
</mgrwt>
</event>
<event>
 4    1  0.2451537E+000  0.6032031E+02  0.7957747E-01  0.1396492E+00
         13   -1    0    0    0    0  0.00000000000E+00  0.00000000000E+00  0.99999944181E+02  0.10000000000E+03  0.10566000000E+00 0.  1.
         22   -1    0    0    0    0 -0.00000000000E+00 -0.00000000000E+00 -0.31051900786E+02  0.31051900786E+02  0.00000000000E+00 0. -1.
         13    1    1    2    0    0 -0.15320361078E+02  0.30063707644E+02 -0.65949688673E+01  0.34380877814E+02  0.10566000000E+00 0. -1.
        996    1    1    2    0    0  0.15320361078E+02 -0.30063707644E+02  0.75543012262E+02  0.96671022973E+02  0.50000000000E+02 0.  0.
<mgrwt>
<rscale>  0 0.60320312E+02</rscale>
<asrwt>0</asrwt>
<pdfrwt beam="1">  1       13 0.10000000E+01 0.60320312E+02</pdfrwt>
<pdfrwt beam="2">  1       22 0.31051920E+00 0.60320312E+02</pdfrwt>
<totfact> 0.19615783E-01</totfact>
</mgrwt>
</event>
<event>
 4    1  0.2451537E+000  0.6282716E+02  0.7957747E-01  0.1386336E+00
         13   -1    0    0    0    0  0.00000000000E+00  0.00000000000E+00  0.99999944173E+02  0.99999999993E+02  0.10566000000E+00 0.  1.
         22   -1    0    0    0    0 -0.00000000000E+00 -0.00000000000E+00 -0.61797766360E+02  0.61797766360E+02  0.00000000000E+00 0. -1.
         13    1    1    2    0    0 -0.29838171878E+02  0.23599472929E+02 -0.44109331084E+02  0.58248569735E+02  0.10566000000E+00 0. -1.
        996    1    1    2    0    0  0.29838171878E+02 -0.23599472929E+02  0.82311508896E+02  0.10354919662E+03  0.50000000000E+02 0.  0.
<mgrwt>
<rscale>  0 0.62827157E+02</rscale>
<asrwt>0</asrwt>
<pdfrwt beam="1">  1       13 0.10000000E+01 0.62827157E+02</pdfrwt>
<pdfrwt beam="2">  1       22 0.61797777E+00 0.62827157E+02</pdfrwt>
<totfact> 0.71779298E-02</totfact>
</mgrwt>
</event>
<event>
 4    1  0.2451537E+000  0.5179913E+02  0.7957747E-01  0.1435872E+00
         13   -1    0    0    0    0  0.00000000000E+00  0.00000000000E+00  0.99999944168E+02  0.99999999988E+02  0.10566000000E+00 0. -1.
         22   -1    0    0    0    0 -0.00000000000E+00 -0.00000000000E+00 -0.18404949216E+02  0.18404949216E+02  0.00000000000E+00 0. -1.
         13    1    1    2    0    0 -0.81503939335E+01  0.10803742784E+02 -0.74060529412E+01  0.15427590986E+02  0.10566000000E+00 0.  1.
        996    1    1    2    0    0  0.81503939335E+01 -0.10803742784E+02  0.89001047894E+02  0.10297735822E+03  0.50000000000E+02 0.  0.
<mgrwt>
<rscale>  0 0.51799129E+02</rscale>
<asrwt>0</asrwt>
<pdfrwt beam="1">  1       13 0.10000000E+01 0.51799129E+02</pdfrwt>
<pdfrwt beam="2">  1       22 0.18404972E+00 0.51799129E+02</pdfrwt>
<totfact> 0.52762966E-01</totfact>
</mgrwt>
</event>
<event>
 4    1  0.2451537E+000  0.5099436E+02  0.7957747E-01  0.1440051E+00
         13   -1    0    0    0    0  0.00000000000E+00  0.00000000000E+00  0.99999944181E+02  0.10000000000E+03  0.10566000000E+00 0.  1.
         22   -1    0    0    0    0 -0.00000000000E+00 -0.00000000000E+00 -0.45130732193E+02  0.45130732193E+02  0.00000000000E+00 0. -1.
         13    1    1    2    0    0 -0.94806741094E+01 -0.32468050587E+01 -0.37936405816E+02  0.39237825818E+02  0.10566000000E+00 0. -1.
        996    1    1    2    0    0  0.94806741094E+01  0.32468050587E+01  0.92805617804E+02  0.10589290638E+03  0.50000000000E+02 0.  0.
<mgrwt>
<rscale>  0 0.50994362E+02</rscale>
<asrwt>0</asrwt>
<pdfrwt beam="1">  1       13 0.10000000E+01 0.50994362E+02</pdfrwt>
<pdfrwt beam="2">  1       22 0.45130748E+00 0.50994362E+02</pdfrwt>
<totfact> 0.95907004E-02</totfact>
</mgrwt>
</event>
<event>
 4    1  0.2451537E+000  0.5826007E+02  0.7957747E-01  0.1405282E+00
         13   -1    0    0    0    0  0.00000000000E+00  0.00000000000E+00  0.99999944168E+02  0.99999999988E+02  0.10566000000E+00 0.  1.
         22   -1    0    0    0    0 -0.00000000000E+00 -0.00000000000E+00 -0.19568509451E+02  0.19568509451E+02  0.00000000000E+00 0.  1.
         13    1    1    2    0    0  0.17145972137E+02  0.24500021867E+02  0.32097434372E+02  0.43869031096E+02  0.10566000000E+00 0. -1.
        996    1    1    2    0    0 -0.17145972137E+02 -0.24500021867E+02  0.48334000345E+02  0.75699478343E+02  0.50000000000E+02 0.  0.
<mgrwt>
<rscale>  0 0.58260067E+02</rscale>
<asrwt>0</asrwt>
<pdfrwt beam="1">  1       13 0.10000000E+01 0.58260067E+02</pdfrwt>
<pdfrwt beam="2">  1       22 0.19568532E+00 0.58260067E+02</pdfrwt>
<totfact> 0.47688374E-01</totfact>
</mgrwt>
</event>
<event>
 4    1  0.2451537E+000  0.5836446E+02  0.7957747E-01  0.1404826E+00
         13   -1    0    0    0    0  0.00000000000E+00  0.00000000000E+00  0.99999944177E+02  0.99999999998E+02  0.10566000000E+00 0. -1.
         22   -1    0    0    0    0 -0.00000000000E+00 -0.00000000000E+00 -0.27950211289E+02  0.27950211289E+02  0.00000000000E+00 0.  1.
         13    1    1    2    0    0  0.29823479231E+02  0.41194807106E+01 -0.57912353100E+01  0.30658760660E+02  0.10566000000E+00 0.  1.
        996    1    1    2    0    0 -0.29823479231E+02 -0.41194807106E+01  0.77840968199E+02  0.97291450626E+02  0.50000000000E+02 0.  0.
<mgrwt>
<rscale>  0 0.58364459E+02</rscale>
<asrwt>0</asrwt>
<pdfrwt beam="1">  1       13 0.10000000E+01 0.58364459E+02</pdfrwt>
<pdfrwt beam="2">  1       22 0.27950231E+00 0.58364459E+02</pdfrwt>
<totfact> 0.23895344E-01</totfact>
</mgrwt>
</event>
<event>
 4    1  0.2451537E+000  0.5157508E+02  0.7957747E-01  0.1437027E+00
         13   -1    0    0    0    0  0.00000000000E+00  0.00000000000E+00  0.99999944168E+02  0.99999999988E+02  0.10566000000E+00 0. -1.
         22   -1    0    0    0    0 -0.00000000000E+00 -0.00000000000E+00 -0.33349424195E+02  0.33349424195E+02  0.00000000000E+00 0.  1.
         13    1    1    2    0    0 -0.12604715907E+02 -0.10535897816E+01 -0.25094067191E+02  0.28101819990E+02  0.10566000000E+00 0.  1.
        996    1    1    2    0    0  0.12604715907E+02  0.10535897816E+01  0.91744587164E+02  0.10524760419E+03  0.50000000000E+02 0.  0.
<mgrwt>
<rscale>  0 0.51575080E+02</rscale>
<asrwt>0</asrwt>
<pdfrwt beam="1">  1       13 0.10000000E+01 0.51575080E+02</pdfrwt>
<pdfrwt beam="2">  1       22 0.33349443E+00 0.51575080E+02</pdfrwt>
<totfact> 0.17090494E-01</totfact>
</mgrwt>
</event>
<event>
 4    1  0.2451537E+000  0.5168352E+02  0.7957747E-01  0.1436467E+00
         13   -1    0    0    0    0  0.00000000000E+00  0.00000000000E+00  0.99999944178E+02  0.99999999998E+02  0.10566000000E+00 0.  1.
         22   -1    0    0    0    0 -0.00000000000E+00 -0.00000000000E+00 -0.10632026178E+02  0.10632026178E+02  0.00000000000E+00 0.  1.
         13    1    1    2    0    0  0.41800897454E+00 -0.13077124462E+02  0.13211840884E+02  0.18594349122E+02  0.10566000000E+00 0. -1.
        996    1    1    2    0    0 -0.41800897454E+00  0.13077124462E+02  0.76156077116E+02  0.92037677054E+02  0.50000000000E+02 0.  0.
<mgrwt>
<rscale>  0 0.51683517E+02</rscale>
<asrwt>0</asrwt>
<pdfrwt beam="1">  1       13 0.10000000E+01 0.51683517E+02</pdfrwt>
<pdfrwt beam="2">  1       22 0.10632051E+00 0.51683517E+02</pdfrwt>
<totfact> 0.12880951E+00</totfact>
</mgrwt>
</event>
<event>
 4    1  0.2451537E+000  0.5637388E+02  0.7957747E-01  0.1413711E+00
         13   -1    0    0    0    0  0.00000000000E+00  0.00000000000E+00  0.99999944173E+02  0.99999999993E+02  0.10566000000E+00 0.  1.
         22   -1    0    0    0    0 -0.00000000000E+00 -0.00000000000E+00 -0.18579267218E+02  0.18579267218E+02  0.00000000000E+00 0.  1.
         13    1    1    2    0    0 -0.40960716693E+01  0.25714517612E+02  0.10731332437E+02  0.28163573620E+02  0.10566000000E+00 0. -1.
        996    1    1    2    0    0  0.40960716693E+01 -0.25714517612E+02  0.70689344518E+02  0.90415693591E+02  0.50000000000E+02 0.  0.
<mgrwt>
<rscale>  0 0.56373879E+02</rscale>
<asrwt>0</asrwt>
<pdfrwt beam="1">  1       13 0.10000000E+01 0.56373879E+02</pdfrwt>
<pdfrwt beam="2">  1       22 0.18579290E+00 0.56373879E+02</pdfrwt>
<totfact> 0.52294713E-01</totfact>
</mgrwt>
</event>
<event>
 4    1  0.2451537E+000  0.5280435E+02  0.7957747E-01  0.1430777E+00
         13   -1    0    0    0    0  0.00000000000E+00  0.00000000000E+00  0.99999944173E+02  0.99999999993E+02  0.10566000000E+00 0. -1.
         22   -1    0    0    0    0 -0.00000000000E+00 -0.00000000000E+00 -0.17674642572E+02  0.17674642572E+02  0.00000000000E+00 0.  1.
         13    1    1    2    0    0  0.27932261793E+01 -0.16748055144E+02 -0.30866704961E+01  0.17257988364E+02  0.10566000000E+00 0.  1.
        996    1    1    2    0    0 -0.27932261793E+01  0.16748055144E+02  0.85411972097E+02  0.10041665420E+03  0.50000000000E+02 0.  0.
<mgrwt>
<rscale>  0 0.52804351E+02</rscale>
<asrwt>0</asrwt>
<pdfrwt beam="1">  1       13 0.10000000E+01 0.52804351E+02</pdfrwt>
<pdfrwt beam="2">  1       22 0.17674666E+00 0.52804351E+02</pdfrwt>
<totfact> 0.56846439E-01</totfact>
</mgrwt>
</event>
<event>
 4    1  0.2451537E+000  0.6245791E+02  0.7957747E-01  0.1387797E+00
         13   -1    0    0    0    0  0.00000000000E+00  0.00000000000E+00  0.99999944182E+02  0.10000000000E+03  0.10566000000E+00 0. -1.
         22   -1    0    0    0    0 -0.00000000000E+00 -0.00000000000E+00 -0.24985353785E+02  0.24985353785E+02  0.00000000000E+00 0.  1.
         13    1    1    2    0    0  0.29408297861E+02 -0.23154760754E+02  0.25662052344E+02  0.45382188391E+02  0.10566000000E+00 0.  1.
        996    1    1    2    0    0 -0.29408297861E+02  0.23154760754E+02  0.49352538054E+02  0.79603165396E+02  0.50000000000E+02 0.  0.
<mgrwt>
<rscale>  0 0.62457913E+02</rscale>
<asrwt>0</asrwt>
<pdfrwt beam="1">  1       13 0.10000000E+01 0.62457913E+02</pdfrwt>
<pdfrwt beam="2">  1       22 0.24985375E+00 0.62457913E+02</pdfrwt>
<totfact> 0.29955239E-01</totfact>
</mgrwt>
</event>
<event>
 4    1  0.2451537E+000  0.5493651E+02  0.7957747E-01  0.1420399E+00
         13   -1    0    0    0    0  0.00000000000E+00  0.00000000000E+00  0.99999944186E+02  0.10000000001E+03  0.10566000000E+00 0. -1.
         22   -1    0    0    0    0 -0.00000000000E+00 -0.00000000000E+00 -0.18808223272E+02  0.18808223272E+02  0.00000000000E+00 0.  1.
         13    1    1    2    0    0 -0.11766096229E+02 -0.19482799738E+02  0.25844269537E+01  0.22906569643E+02  0.10566000000E+00 0.  1.
        996    1    1    2    0    0  0.11766096229E+02  0.19482799738E+02  0.78607293960E+02  0.95901653634E+02  0.50000000000E+02 0.  0.
<mgrwt>
<rscale>  0 0.54936513E+02</rscale>
<asrwt>0</asrwt>
<pdfrwt beam="1">  1       13 0.10000000E+01 0.54936513E+02</pdfrwt>
<pdfrwt beam="2">  1       22 0.18808246E+00 0.54936513E+02</pdfrwt>
<totfact> 0.51013752E-01</totfact>
</mgrwt>
</event>
<event>
 4    1  0.2451537E+000  0.5113916E+02  0.7957747E-01  0.1439292E+00
         13   -1    0    0    0    0  0.00000000000E+00  0.00000000000E+00  0.99999944176E+02  0.99999999996E+02  0.10566000000E+00 0.  1.
         22   -1    0    0    0    0 -0.00000000000E+00 -0.00000000000E+00 -0.11422083341E+02  0.11422083341E+02  0.00000000000E+00 0. -1.
         13    1    1    2    0    0  0.56223539026E+01  0.91434541885E+01  0.20742728211E+01  0.10932858257E+02  0.10566000000E+00 0. -1.
        996    1    1    2    0    0 -0.56223539026E+01 -0.91434541885E+01  0.86503588014E+02  0.10048922508E+03  0.50000000000E+02 0.  0.
<mgrwt>
<rscale>  0 0.51139159E+02</rscale>
<asrwt>0</asrwt>
<pdfrwt beam="1">  1       13 0.10000000E+01 0.51139159E+02</pdfrwt>
<pdfrwt beam="2">  1       22 0.11422108E+00 0.51139159E+02</pdfrwt>
<totfact> 0.11562775E+00</totfact>
</mgrwt>
</event>
<event>
 4    1  0.2451537E+000  0.5112761E+02  0.7957747E-01  0.1439353E+00
         13   -1    0    0    0    0  0.00000000000E+00  0.00000000000E+00  0.99999944179E+02  0.99999999999E+02  0.10566000000E+00 0.  1.
         22   -1    0    0    0    0 -0.00000000000E+00 -0.00000000000E+00 -0.21927315053E+02  0.21927315053E+02  0.00000000000E+00 0. -1.
         13    1    1    2    0    0  0.61834668323E+01 -0.87061557966E+01 -0.13400528885E+02  0.17135277916E+02  0.10566000000E+00 0. -1.
        996    1    1    2    0    0 -0.61834668323E+01  0.87061557966E+01  0.91473158011E+02  0.10479203714E+03  0.50000000000E+02 0.  0.
<mgrwt>
<rscale>  0 0.51127609E+02</rscale>
<asrwt>0</asrwt>
<pdfrwt beam="1">  1       13 0.10000000E+01 0.51127609E+02</pdfrwt>
<pdfrwt beam="2">  1       22 0.21927337E+00 0.51127609E+02</pdfrwt>
<totfact> 0.38005111E-01</totfact>
</mgrwt>
</event>
<event>
 4    1  0.2451537E+000  0.5153179E+02  0.7957747E-01  0.1437250E+00
         13   -1    0    0    0    0  0.00000000000E+00  0.00000000000E+00  0.99999944185E+02  0.10000000001E+03  0.10566000000E+00 0. -1.
         22   -1    0    0    0    0 -0.00000000000E+00 -0.00000000000E+00 -0.10241976251E+02  0.10241976251E+02  0.00000000000E+00 0. -1.
         13    1    1    2    0    0 -0.69291844631E+01  0.10368788283E+02  0.17917756701E+02  0.21830770418E+02  0.10566000000E+00 0.  1.
        996    1    1    2    0    0  0.69291844631E+01 -0.10368788283E+02  0.71840211233E+02  0.88411205838E+02  0.50000000000E+02 0.  0.
<mgrwt>
<rscale>  0 0.51531790E+02</rscale>
<asrwt>0</asrwt>
<pdfrwt beam="1">  1       13 0.10000000E+01 0.51531790E+02</pdfrwt>
<pdfrwt beam="2">  1       22 0.10242001E+00 0.51531790E+02</pdfrwt>
<totfact> 0.13601153E+00</totfact>
</mgrwt>
</event>
<event>
 4    1  0.2451537E+000  0.5147516E+02  0.7957747E-01  0.1437544E+00
         13   -1    0    0    0    0  0.00000000000E+00  0.00000000000E+00  0.99999944184E+02  0.10000000000E+03  0.10566000000E+00 0. -1.
         22   -1    0    0    0    0 -0.00000000000E+00 -0.00000000000E+00 -0.10319439549E+02  0.10319439549E+02  0.00000000000E+00 0. -1.
         13    1    1    2    0    0 -0.10422224979E+02  0.64085745409E+01  0.12045843089E+02  0.17169918490E+02  0.10566000000E+00 0.  1.
        996    1    1    2    0    0  0.10422224979E+02 -0.64085745409E+01  0.77634661545E+02  0.93149521064E+02  0.50000000000E+02 0.  0.
<mgrwt>
<rscale>  0 0.51475165E+02</rscale>
<asrwt>0</asrwt>
<pdfrwt beam="1">  1       13 0.10000000E+01 0.51475165E+02</pdfrwt>
<pdfrwt beam="2">  1       22 0.10319465E+00 0.51475165E+02</pdfrwt>
<totfact> 0.13450616E+00</totfact>
</mgrwt>
</event>
<event>
 4    1  0.2451537E+000  0.5270182E+02  0.7957747E-01  0.1431291E+00
         13   -1    0    0    0    0  0.00000000000E+00  0.00000000000E+00  0.99999944179E+02  0.99999999999E+02  0.10566000000E+00 0.  1.
         22   -1    0    0    0    0 -0.00000000000E+00 -0.00000000000E+00 -0.22309044178E+02  0.22309044178E+02  0.00000000000E+00 0.  1.
         13    1    1    2    0    0  0.16508998301E+02 -0.22214825329E+01 -0.10413486551E+02  0.19645199814E+02  0.10566000000E+00 0. -1.
        996    1    1    2    0    0 -0.16508998301E+02  0.22214825329E+01  0.88104386552E+02  0.10266384436E+03  0.50000000000E+02 0.  0.
<mgrwt>
<rscale>  0 0.52701822E+02</rscale>
<asrwt>0</asrwt>
<pdfrwt beam="1">  1       13 0.10000000E+01 0.52701822E+02</pdfrwt>
<pdfrwt beam="2">  1       22 0.22309066E+00 0.52701822E+02</pdfrwt>
<totfact> 0.36861791E-01</totfact>
</mgrwt>
</event>
<event>
 4    1  0.2451537E+000  0.5770302E+02  0.7957747E-01  0.1407732E+00
         13   -1    0    0    0    0  0.00000000000E+00  0.00000000000E+00  0.99999944178E+02  0.99999999998E+02  0.10566000000E+00 0.  1.
         22   -1    0    0    0    0 -0.00000000000E+00 -0.00000000000E+00 -0.19356661729E+02  0.19356661729E+02  0.00000000000E+00 0. -1.
         13    1    1    2    0    0 -0.20833769997E+01  0.28728008269E+02  0.16987582813E+02  0.33439917056E+02  0.10566000000E+00 0. -1.
        996    1    1    2    0    0  0.20833769997E+01 -0.28728008269E+02  0.63655699636E+02  0.85916744672E+02  0.50000000000E+02 0.  0.
<mgrwt>
<rscale>  0 0.57703023E+02</rscale>
<asrwt>0</asrwt>
<pdfrwt beam="1">  1       13 0.10000000E+01 0.57703023E+02</pdfrwt>
<pdfrwt beam="2">  1       22 0.19356684E+00 0.57703023E+02</pdfrwt>
<totfact> 0.48615790E-01</totfact>
</mgrwt>
</event>
<event>
 4    1  0.2451537E+000  0.5181861E+02  0.7957747E-01  0.1435772E+00
         13   -1    0    0    0    0  0.00000000000E+00  0.00000000000E+00  0.99999944178E+02  0.99999999998E+02  0.10566000000E+00 0.  1.
         22   -1    0    0    0    0 -0.00000000000E+00 -0.00000000000E+00 -0.30753192832E+02  0.30753192832E+02  0.00000000000E+00 0.  1.
         13    1    1    2    0    0 -0.13239034118E+02  0.31457938130E+01 -0.21971349711E+02  0.25844136961E+02  0.10566000000E+00 0. -1.
        996    1    1    2    0    0  0.13239034118E+02 -0.31457938130E+01  0.91218101057E+02  0.10490905587E+03  0.50000000000E+02 0.  0.
<mgrwt>
<rscale>  0 0.51818607E+02</rscale>
<asrwt>0</asrwt>
<pdfrwt beam="1">  1       13 0.10000000E+01 0.51818607E+02</pdfrwt>
<pdfrwt beam="2">  1       22 0.30753212E+00 0.51818607E+02</pdfrwt>
<totfact> 0.19769045E-01</totfact>
</mgrwt>
</event>
<event>
 4    1  0.2451537E+000  0.5308044E+02  0.7957747E-01  0.1429401E+00
         13   -1    0    0    0    0  0.00000000000E+00  0.00000000000E+00  0.99999944178E+02  0.99999999998E+02  0.10566000000E+00 0.  1.
         22   -1    0    0    0    0 -0.00000000000E+00 -0.00000000000E+00 -0.28592957094E+02  0.28592957094E+02  0.00000000000E+00 0. -1.
         13    1    1    2    0    0 -0.30392450527E+01  0.17558377594E+02 -0.17544909273E+02  0.25007371707E+02  0.10566000000E+00 0. -1.
        996    1    1    2    0    0  0.30392450527E+01 -0.17558377594E+02  0.88951896357E+02  0.10358558539E+03  0.50000000000E+02 0.  0.
<mgrwt>
<rscale>  0 0.53080445E+02</rscale>
<asrwt>0</asrwt>
<pdfrwt beam="1">  1       13 0.10000000E+01 0.53080445E+02</pdfrwt>
<pdfrwt beam="2">  1       22 0.28592977E+00 0.53080445E+02</pdfrwt>
<totfact> 0.22710108E-01</totfact>
</mgrwt>
</event>
<event>
 4    1  0.2451537E+000  0.5235488E+02  0.7957747E-01  0.1433039E+00
         13   -1    0    0    0    0  0.00000000000E+00  0.00000000000E+00  0.99999944180E+02  0.10000000000E+03  0.10566000000E+00 0. -1.
         22   -1    0    0    0    0 -0.00000000000E+00 -0.00000000000E+00 -0.14719491158E+02  0.14719491158E+02  0.00000000000E+00 0. -1.
         13    1    1    2    0    0  0.30467865273E+01 -0.15223366125E+02  0.47997952467E+02  0.50446490358E+02  0.10566000000E+00 0.  1.
        996    1    1    2    0    0 -0.30467865273E+01  0.15223366125E+02  0.37282500555E+02  0.64273000801E+02  0.50000000000E+02 0.  0.
<mgrwt>
<rscale>  0 0.52354883E+02</rscale>
<asrwt>0</asrwt>
<pdfrwt beam="1">  1       13 0.10000000E+01 0.52354883E+02</pdfrwt>
<pdfrwt beam="2">  1       22 0.14719515E+00 0.52354883E+02</pdfrwt>
<totfact> 0.77744143E-01</totfact>
</mgrwt>
</event>
<event>
 4    1  0.2451537E+000  0.5310339E+02  0.7957747E-01  0.1429287E+00
         13   -1    0    0    0    0  0.00000000000E+00  0.00000000000E+00  0.99999944181E+02  0.10000000000E+03  0.10566000000E+00 0. -1.
         22   -1    0    0    0    0 -0.00000000000E+00 -0.00000000000E+00 -0.36313930554E+02  0.36313930554E+02  0.00000000000E+00 0.  1.
         13    1    1    2    0    0  0.12987593873E+02 -0.12300079570E+02 -0.26312170897E+02  0.31816836005E+02  0.10566000000E+00 0.  1.
        996    1    1    2    0    0 -0.12987593873E+02  0.12300079570E+02  0.89998184523E+02  0.10449709455E+03  0.50000000000E+02 0.  0.
<mgrwt>
<rscale>  0 0.53103386E+02</rscale>
<asrwt>0</asrwt>
<pdfrwt beam="1">  1       13 0.10000000E+01 0.53103386E+02</pdfrwt>
<pdfrwt beam="2">  1       22 0.36313948E+00 0.53103386E+02</pdfrwt>
<totfact> 0.14749978E-01</totfact>
</mgrwt>
</event>
<event>
 4    1  0.2451537E+000  0.5113863E+02  0.7957747E-01  0.1439295E+00
         13   -1    0    0    0    0  0.00000000000E+00  0.00000000000E+00  0.99999944177E+02  0.99999999997E+02  0.10566000000E+00 0.  1.
         22   -1    0    0    0    0 -0.00000000000E+00 -0.00000000000E+00 -0.19899246655E+02  0.19899246655E+02  0.00000000000E+00 0. -1.
         13    1    1    2    0    0  0.77519034020E+01 -0.74207474010E+01 -0.11037102022E+02  0.15394423777E+02  0.10566000000E+00 0. -1.
        996    1    1    2    0    0 -0.77519034020E+01  0.74207474010E+01  0.91137799544E+02  0.10450482287E+03  0.50000000000E+02 0.  0.
<mgrwt>
<rscale>  0 0.51138630E+02</rscale>
<asrwt>0</asrwt>
<pdfrwt beam="1">  1       13 0.10000000E+01 0.51138630E+02</pdfrwt>
<pdfrwt beam="2">  1       22 0.19899269E+00 0.51138630E+02</pdfrwt>
<totfact> 0.45664878E-01</totfact>
</mgrwt>
</event>
<event>
 4    1  0.2451537E+000  0.5821320E+02  0.7957747E-01  0.1405487E+00
         13   -1    0    0    0    0  0.00000000000E+00  0.00000000000E+00  0.99999944169E+02  0.99999999989E+02  0.10566000000E+00 0.  1.
         22   -1    0    0    0    0 -0.00000000000E+00 -0.00000000000E+00 -0.19950436008E+02  0.19950436008E+02  0.00000000000E+00 0.  1.
         13    1    1    2    0    0  0.26243310870E+02  0.14144446458E+02  0.17797784058E+02  0.34721016869E+02  0.10566000000E+00 0. -1.
        996    1    1    2    0    0 -0.26243310870E+02 -0.14144446458E+02  0.62251724103E+02  0.85229419128E+02  0.50000000000E+02 0.  0.
<mgrwt>
<rscale>  0 0.58213201E+02</rscale>
<asrwt>0</asrwt>
<pdfrwt beam="1">  1       13 0.10000000E+01 0.58213201E+02</pdfrwt>
<pdfrwt beam="2">  1       22 0.19950458E+00 0.58213201E+02</pdfrwt>
<totfact> 0.45998542E-01</totfact>
</mgrwt>
</event>
<event>
 4    1  0.2451537E+000  0.5158236E+02  0.7957747E-01  0.1436989E+00
         13   -1    0    0    0    0  0.00000000000E+00  0.00000000000E+00  0.99999944175E+02  0.99999999995E+02  0.10566000000E+00 0. -1.
         22   -1    0    0    0    0 -0.00000000000E+00 -0.00000000000E+00 -0.15207720177E+02  0.15207720177E+02  0.00000000000E+00 0.  1.
         13    1    1    2    0    0  0.65398891067E+01  0.10861400484E+02 -0.33209056533E+01  0.13106477345E+02  0.10566000000E+00 0.  1.
        996    1    1    2    0    0 -0.65398891067E+01 -0.10861400484E+02  0.88113129651E+02  0.10210124283E+03  0.50000000000E+02 0.  0.
<mgrwt>
<rscale>  0 0.51582363E+02</rscale>
<asrwt>0</asrwt>
<pdfrwt beam="1">  1       13 0.10000000E+01 0.51582363E+02</pdfrwt>
<pdfrwt beam="2">  1       22 0.15207744E+00 0.51582363E+02</pdfrwt>
<totfact> 0.73520533E-01</totfact>
</mgrwt>
</event>
<event>
 4    1  0.2451537E+000  0.9258345E+02  0.7957747E-01  0.1296713E+00
         13   -1    0    0    0    0  0.00000000000E+00  0.00000000000E+00  0.99999944172E+02  0.99999999992E+02  0.10566000000E+00 0.  1.
         22   -1    0    0    0    0 -0.00000000000E+00 -0.00000000000E+00 -0.72847028635E+02  0.72847028635E+02  0.00000000000E+00 0.  1.
         13    1    1    2    0    0  0.46558473568E+02 -0.62482025483E+02  0.16540320208E+02  0.79657318095E+02  0.10566000000E+00 0. -1.
        996    1    1    2    0    0 -0.46558473568E+02  0.62482025483E+02  0.10612595329E+02  0.93189710532E+02  0.50000000000E+02 0.  0.
<mgrwt>
<rscale>  0 0.92583449E+02</rscale>
<asrwt>0</asrwt>
<pdfrwt beam="1">  1       13 0.10000000E+01 0.92583449E+02</pdfrwt>
<pdfrwt beam="2">  1       22 0.72847036E+00 0.92583449E+02</pdfrwt>
<totfact> 0.59521949E-02</totfact>
</mgrwt>
</event>
<event>
 4    1  0.2451537E+000  0.5170141E+02  0.7957747E-01  0.1436375E+00
         13   -1    0    0    0    0  0.00000000000E+00  0.00000000000E+00  0.99999944182E+02  0.10000000000E+03  0.10566000000E+00 0. -1.
         22   -1    0    0    0    0 -0.00000000000E+00 -0.00000000000E+00 -0.14567316589E+02  0.14567316589E+02  0.00000000000E+00 0.  1.
         13    1    1    2    0    0  0.13152535927E+02 -0.21590447319E+00 -0.16860392553E+01  0.13262341741E+02  0.10566000000E+00 0.  1.
        996    1    1    2    0    0 -0.13152535927E+02  0.21590447319E+00  0.87118666848E+02  0.10130497485E+03  0.50000000000E+02 0.  0.
<mgrwt>
<rscale>  0 0.51701410E+02</rscale>
<asrwt>0</asrwt>
<pdfrwt beam="1">  1       13 0.10000000E+01 0.51701410E+02</pdfrwt>
<pdfrwt beam="2">  1       22 0.14567340E+00 0.51701410E+02</pdfrwt>
<totfact> 0.78981557E-01</totfact>
</mgrwt>
</event>
<event>
 4    1  0.2451537E+000  0.5260803E+02  0.7957747E-01  0.1431762E+00
         13   -1    0    0    0    0  0.00000000000E+00  0.00000000000E+00  0.99999944172E+02  0.99999999992E+02  0.10566000000E+00 0.  1.
         22   -1    0    0    0    0 -0.00000000000E+00 -0.00000000000E+00 -0.18546745609E+02  0.18546745609E+02  0.00000000000E+00 0. -1.
         13    1    1    2    0    0  0.16179969812E+02  0.24110018092E+01 -0.52075353696E+01  0.17167817028E+02  0.10566000000E+00 0. -1.
        996    1    1    2    0    0 -0.16179969812E+02 -0.24110018092E+01  0.86660733933E+02  0.10137892857E+03  0.50000000000E+02 0.  0.
<mgrwt>
<rscale>  0 0.52608026E+02</rscale>
<asrwt>0</asrwt>
<pdfrwt beam="1">  1       13 0.10000000E+01 0.52608026E+02</pdfrwt>
<pdfrwt beam="2">  1       22 0.18546768E+00 0.52608026E+02</pdfrwt>
<totfact> 0.52112807E-01</totfact>
</mgrwt>
</event>
<event>
 4    1  0.2451537E+000  0.5659667E+02  0.7957747E-01  0.1412696E+00
         13   -1    0    0    0    0  0.00000000000E+00  0.00000000000E+00  0.99999944174E+02  0.99999999994E+02  0.10566000000E+00 0.  1.
         22   -1    0    0    0    0 -0.00000000000E+00 -0.00000000000E+00 -0.17523447725E+02  0.17523447725E+02  0.00000000000E+00 0. -1.
         13    1    1    2    0    0 -0.21572043863E+02  0.15421726850E+02  0.19935226614E+02  0.33175399917E+02  0.10566000000E+00 0. -1.
        996    1    1    2    0    0  0.21572043863E+02 -0.15421726850E+02  0.62541269835E+02  0.84348047802E+02  0.50000000000E+02 0.  0.
<mgrwt>
<rscale>  0 0.56596667E+02</rscale>
<asrwt>0</asrwt>
<pdfrwt beam="1">  1       13 0.10000000E+01 0.56596667E+02</pdfrwt>
<pdfrwt beam="2">  1       22 0.17523471E+00 0.56596667E+02</pdfrwt>
<totfact> 0.58118767E-01</totfact>
</mgrwt>
</event>
<event>
 4    1  0.2451537E+000  0.5952376E+02  0.7957747E-01  0.1399841E+00
         13   -1    0    0    0    0  0.00000000000E+00  0.00000000000E+00  0.99999944184E+02  0.10000000000E+03  0.10566000000E+00 0. -1.
         22   -1    0    0    0    0 -0.00000000000E+00 -0.00000000000E+00 -0.30883401524E+02  0.30883401524E+02  0.00000000000E+00 0.  1.
         13    1    1    2    0    0  0.29776739754E+02 -0.12506933628E+02 -0.81870704678E+01  0.33318416920E+02  0.10566000000E+00 0.  1.
        996    1    1    2    0    0 -0.29776739754E+02  0.12506933628E+02  0.77303613127E+02  0.97564984609E+02  0.50000000000E+02 0.  0.
<mgrwt>
<rscale>  0 0.59523757E+02</rscale>
<asrwt>0</asrwt>
<pdfrwt beam="1">  1       13 0.10000000E+01 0.59523757E+02</pdfrwt>
<pdfrwt beam="2">  1       22 0.30883421E+00 0.59523757E+02</pdfrwt>
<totfact> 0.19796123E-01</totfact>
</mgrwt>
</event>
<event>
 4    1  0.2451537E+000  0.5185139E+02  0.7957747E-01  0.1435604E+00
         13   -1    0    0    0    0  0.00000000000E+00  0.00000000000E+00  0.99999944169E+02  0.99999999989E+02  0.10566000000E+00 0.  1.
         22   -1    0    0    0    0 -0.00000000000E+00 -0.00000000000E+00 -0.51074983306E+02  0.51074983306E+02  0.00000000000E+00 0.  1.
         13    1    1    2    0    0 -0.11856980211E+02 -0.69266570288E+01 -0.43216604021E+02  0.45345921365E+02  0.10566000000E+00 0. -1.
        996    1    1    2    0    0  0.11856980211E+02  0.69266570288E+01  0.92141564884E+02  0.10572906193E+03  0.50000000000E+02 0.  0.
<mgrwt>
<rscale>  0 0.51851389E+02</rscale>
<asrwt>0</asrwt>
<pdfrwt beam="1">  1       13 0.10000000E+01 0.51851389E+02</pdfrwt>
<pdfrwt beam="2">  1       22 0.51074997E+00 0.51851389E+02</pdfrwt>
<totfact> 0.69479551E-02</totfact>
</mgrwt>
</event>
<event>
 4    1  0.2451537E+000  0.6025579E+02  0.7957747E-01  0.1396761E+00
         13   -1    0    0    0    0  0.00000000000E+00  0.00000000000E+00  0.99999944178E+02  0.99999999998E+02  0.10566000000E+00 0. -1.
         22   -1    0    0    0    0 -0.00000000000E+00 -0.00000000000E+00 -0.40347289013E+02  0.40347289013E+02  0.00000000000E+00 0.  1.
         13    1    1    2    0    0 -0.32998294390E+02 -0.64709305336E+01 -0.21019490756E+02  0.39655901583E+02  0.10566000000E+00 0.  1.
        996    1    1    2    0    0  0.32998294390E+02  0.64709305336E+01  0.80672145921E+02  0.10069138743E+03  0.50000000000E+02 0.  0.
<mgrwt>
<rscale>  0 0.60255791E+02</rscale>
<asrwt>0</asrwt>
<pdfrwt beam="1">  1       13 0.10000000E+01 0.60255791E+02</pdfrwt>
<pdfrwt beam="2">  1       22 0.40347306E+00 0.60255791E+02</pdfrwt>
<totfact> 0.12237207E-01</totfact>
</mgrwt>
</event>
<event>
 4    1  0.2451537E+000  0.5131019E+02  0.7957747E-01  0.1438400E+00
         13   -1    0    0    0    0  0.00000000000E+00  0.00000000000E+00  0.99999944189E+02  0.10000000001E+03  0.10566000000E+00 0. -1.
         22   -1    0    0    0    0 -0.00000000000E+00 -0.00000000000E+00 -0.17939560516E+02  0.17939560516E+02  0.00000000000E+00 0.  1.
         13    1    1    2    0    0  0.92276146175E+01 -0.68983250005E+01 -0.81811455655E+01  0.14130748959E+02  0.10566000000E+00 0.  1.
        996    1    1    2    0    0 -0.92276146175E+01  0.68983250005E+01  0.90241529239E+02  0.10380881157E+03  0.50000000000E+02 0.  0.
<mgrwt>
<rscale>  0 0.51310192E+02</rscale>
<asrwt>0</asrwt>
<pdfrwt beam="1">  1       13 0.10000000E+01 0.51310192E+02</pdfrwt>
<pdfrwt beam="2">  1       22 0.17939583E+00 0.51310192E+02</pdfrwt>
<totfact> 0.55199896E-01</totfact>
</mgrwt>
</event>
<event>
 4    1  0.2451537E+000  0.5453690E+02  0.7957747E-01  0.1422302E+00
         13   -1    0    0    0    0  0.00000000000E+00  0.00000000000E+00  0.99999944190E+02  0.10000000001E+03  0.10566000000E+00 0. -1.
         22   -1    0    0    0    0 -0.00000000000E+00 -0.00000000000E+00 -0.20623402101E+02  0.20623402101E+02  0.00000000000E+00 0.  1.
         13    1    1    2    0    0 -0.20861521851E+02  0.62506042303E+01 -0.28407758817E+01  0.21962566308E+02  0.10566000000E+00 0.  1.
        996    1    1    2    0    0  0.20861521851E+02 -0.62506042303E+01  0.82217317970E+02  0.98660835803E+02  0.50000000000E+02 0.  0.
<mgrwt>
<rscale>  0 0.54536897E+02</rscale>
<asrwt>0</asrwt>
<pdfrwt beam="1">  1       13 0.10000000E+01 0.54536897E+02</pdfrwt>
<pdfrwt beam="2">  1       22 0.20623424E+00 0.54536897E+02</pdfrwt>
<totfact> 0.42960835E-01</totfact>
</mgrwt>
</event>
<event>
 4    1  0.2451537E+000  0.5159573E+02  0.7957747E-01  0.1436920E+00
         13   -1    0    0    0    0  0.00000000000E+00  0.00000000000E+00  0.99999944173E+02  0.99999999993E+02  0.10566000000E+00 0.  1.
         22   -1    0    0    0    0 -0.00000000000E+00 -0.00000000000E+00 -0.10385987943E+02  0.10385987943E+02  0.00000000000E+00 0.  1.
         13    1    1    2    0    0 -0.24003251959E+01 -0.12504330399E+02  0.15093069366E+02  0.19746689512E+02  0.10566000000E+00 0. -1.
        996    1    1    2    0    0  0.24003251959E+01  0.12504330399E+02  0.74520886864E+02  0.90639298424E+02  0.50000000000E+02 0.  0.
<mgrwt>
<rscale>  0 0.51595735E+02</rscale>
<asrwt>0</asrwt>
<pdfrwt beam="1">  1       13 0.10000000E+01 0.51595735E+02</pdfrwt>
<pdfrwt beam="2">  1       22 0.10386013E+00 0.51595735E+02</pdfrwt>
<totfact> 0.13328641E+00</totfact>
</mgrwt>
</event>
<event>
 4    1  0.2451537E+000  0.6683410E+02  0.7957747E-01  0.1371202E+00
         13   -1    0    0    0    0  0.00000000000E+00  0.00000000000E+00  0.99999944171E+02  0.99999999991E+02  0.10566000000E+00 0. -1.
         22   -1    0    0    0    0 -0.00000000000E+00 -0.00000000000E+00 -0.49174582419E+02  0.49174582419E+02  0.00000000000E+00 0.  1.
         13    1    1    2    0    0  0.33580216082E+02  0.28968350834E+02 -0.22693384289E+02  0.49817638610E+02  0.10566000000E+00 0.  1.
        996    1    1    2    0    0 -0.33580216082E+02 -0.28968350834E+02  0.73518746041E+02  0.99356943801E+02  0.50000000000E+02 0.  0.
<mgrwt>
<rscale>  0 0.66834095E+02</rscale>
<asrwt>0</asrwt>
<pdfrwt beam="1">  1       13 0.10000000E+01 0.66834095E+02</pdfrwt>
<pdfrwt beam="2">  1       22 0.49174597E+00 0.66834095E+02</pdfrwt>
<totfact> 0.77537122E-02</totfact>
</mgrwt>
</event>
<event>
 4    1  0.2451537E+000  0.5146847E+02  0.7957747E-01  0.1437578E+00
         13   -1    0    0    0    0  0.00000000000E+00  0.00000000000E+00  0.99999944181E+02  0.10000000000E+03  0.10566000000E+00 0. -1.
         22   -1    0    0    0    0 -0.00000000000E+00 -0.00000000000E+00 -0.10675841493E+02  0.10675841493E+02  0.00000000000E+00 0. -1.
         13    1    1    2    0    0 -0.81598834830E+01 -0.90785468812E+01  0.28459028048E+02  0.30966613528E+02  0.10566000000E+00 0.  1.
        996    1    1    2    0    0  0.81598834830E+01  0.90785468812E+01  0.60865074640E+02  0.79709227966E+02  0.50000000000E+02 0.  0.
<mgrwt>
<rscale>  0 0.51468473E+02</rscale>
<asrwt>0</asrwt>
<pdfrwt beam="1">  1       13 0.10000000E+01 0.51468473E+02</pdfrwt>
<pdfrwt beam="2">  1       22 0.10675866E+00 0.51468473E+02</pdfrwt>
<totfact> 0.12796623E+00</totfact>
</mgrwt>
</event>
<event>
 4    1  0.2451537E+000  0.7755744E+02  0.7957747E-01  0.1336130E+00
         13   -1    0    0    0    0  0.00000000000E+00  0.00000000000E+00  0.99999944192E+02  0.10000000001E+03  0.10566000000E+00 0. -1.
         22   -1    0    0    0    0 -0.00000000000E+00 -0.00000000000E+00 -0.57388451160E+02  0.57388451160E+02  0.00000000000E+00 0.  1.
         13    1    1    2    0    0  0.57996495685E+02  0.12311120596E+02 -0.14542942712E+02  0.61046421261E+02  0.10566000000E+00 0.  1.
        996    1    1    2    0    0 -0.57996495685E+02 -0.12311120596E+02  0.57154435744E+02  0.96342029911E+02  0.50000000000E+02 0.  0.
<mgrwt>
<rscale>  0 0.77557445E+02</rscale>
<asrwt>0</asrwt>
<pdfrwt beam="1">  1       13 0.10000000E+01 0.77557445E+02</pdfrwt>
<pdfrwt beam="2">  1       22 0.57388463E+00 0.77557445E+02</pdfrwt>
<totfact> 0.58086165E-02</totfact>
</mgrwt>
</event>
<event>
 4    1  0.2451537E+000  0.5250526E+02  0.7957747E-01  0.1432279E+00
         13   -1    0    0    0    0  0.00000000000E+00  0.00000000000E+00  0.99999944179E+02  0.99999999999E+02  0.10566000000E+00 0. -1.
         22   -1    0    0    0    0 -0.00000000000E+00 -0.00000000000E+00 -0.73382054469E+02  0.73382054469E+02  0.00000000000E+00 0.  1.
         13    1    1    2    0    0 -0.10153193576E+02  0.12398174926E+02 -0.65456222583E+02  0.67389393232E+02  0.10566000000E+00 0.  1.
        996    1    1    2    0    0  0.10153193576E+02 -0.12398174926E+02  0.92074112293E+02  0.10599266124E+03  0.50000000000E+02 0.  0.
<mgrwt>
<rscale>  0 0.52505258E+02</rscale>
<asrwt>0</asrwt>
<pdfrwt beam="1">  1       13 0.10000000E+01 0.52505258E+02</pdfrwt>
<pdfrwt beam="2">  1       22 0.73382062E+00 0.52505258E+02</pdfrwt>
<totfact> 0.56817361E-02</totfact>
</mgrwt>
</event>
<event>
 4    1  0.2451537E+000  0.5289842E+02  0.7957747E-01  0.1430307E+00
         13   -1    0    0    0    0  0.00000000000E+00  0.00000000000E+00  0.99999944179E+02  0.99999999999E+02  0.10566000000E+00 0. -1.
         22   -1    0    0    0    0 -0.00000000000E+00 -0.00000000000E+00 -0.13687862447E+02  0.13687862447E+02  0.00000000000E+00 0. -1.
         13    1    1    2    0    0 -0.20314929360E+01 -0.17149796699E+02  0.76382137972E+01  0.18883748685E+02  0.10566000000E+00 0.  1.
        996    1    1    2    0    0  0.20314929360E+01  0.17149796699E+02  0.78673867934E+02  0.94804113761E+02  0.50000000000E+02 0.  0.
<mgrwt>
<rscale>  0 0.52898417E+02</rscale>
<asrwt>0</asrwt>
<pdfrwt beam="1">  1       13 0.10000000E+01 0.52898417E+02</pdfrwt>
<pdfrwt beam="2">  1       22 0.13687887E+00 0.52898417E+02</pdfrwt>
<totfact> 0.87617575E-01</totfact>
</mgrwt>
</event>
<event>
 4    1  0.2451537E+000  0.5122435E+02  0.7957747E-01  0.1438847E+00
         13   -1    0    0    0    0  0.00000000000E+00  0.00000000000E+00  0.99999944180E+02  0.10000000000E+03  0.10566000000E+00 0.  1.
         22   -1    0    0    0    0 -0.00000000000E+00 -0.00000000000E+00 -0.10244642793E+02  0.10244642793E+02  0.00000000000E+00 0.  1.
         13    1    1    2    0    0  0.60840590203E+01 -0.93229966475E+01  0.77844760447E+01  0.13584670477E+02  0.10566000000E+00 0. -1.
        996    1    1    2    0    0 -0.60840590203E+01  0.93229966475E+01  0.81970825342E+02  0.96659972315E+02  0.50000000000E+02 0.  0.
<mgrwt>
<rscale>  0 0.51224350E+02</rscale>
<asrwt>0</asrwt>
<pdfrwt beam="1">  1       13 0.10000000E+01 0.51224350E+02</pdfrwt>
<pdfrwt beam="2">  1       22 0.10244668E+00 0.51224350E+02</pdfrwt>
<totfact> 0.13585949E+00</totfact>
</mgrwt>
</event>
<event>
 4    1  0.2451537E+000  0.5118542E+02  0.7957747E-01  0.1439051E+00
         13   -1    0    0    0    0  0.00000000000E+00  0.00000000000E+00  0.99999944175E+02  0.99999999995E+02  0.10566000000E+00 0.  1.
         22   -1    0    0    0    0 -0.00000000000E+00 -0.00000000000E+00 -0.42423322946E+02  0.42423322946E+02  0.00000000000E+00 0. -1.
         13    1    1    2    0    0  0.34898046237E+00  0.10946498699E+02 -0.34980900514E+02  0.36655452336E+02  0.10566000000E+00 0. -1.
        996    1    1    2    0    0 -0.34898046237E+00 -0.10946498699E+02  0.92557521743E+02  0.10576787061E+03  0.50000000000E+02 0.  0.
<mgrwt>
<rscale>  0 0.51185424E+02</rscale>
<asrwt>0</asrwt>
<pdfrwt beam="1">  1       13 0.10000000E+01 0.51185424E+02</pdfrwt>
<pdfrwt beam="2">  1       22 0.42423339E+00 0.51185424E+02</pdfrwt>
<totfact> 0.10998837E-01</totfact>
</mgrwt>
</event>
<event>
 4    1  0.2451537E+000  0.5256897E+02  0.7957747E-01  0.1431958E+00
         13   -1    0    0    0    0  0.00000000000E+00  0.00000000000E+00  0.99999944175E+02  0.99999999995E+02  0.10566000000E+00 0. -1.
         22   -1    0    0    0    0 -0.00000000000E+00 -0.00000000000E+00 -0.12269525606E+02  0.12269525606E+02  0.00000000000E+00 0. -1.
         13    1    1    2    0    0 -0.15575169623E+02  0.45728686271E+01  0.12480917938E+02  0.20476364738E+02  0.10566000000E+00 0.  1.
        996    1    1    2    0    0  0.15575169623E+02 -0.45728686271E+01  0.75249500631E+02  0.91793160864E+02  0.50000000000E+02 0.  0.
<mgrwt>
<rscale>  0 0.52568974E+02</rscale>
<asrwt>0</asrwt>
<pdfrwt beam="1">  1       13 0.10000000E+01 0.52568974E+02</pdfrwt>
<pdfrwt beam="2">  1       22 0.12269550E+00 0.52568974E+02</pdfrwt>
<totfact> 0.10401483E+00</totfact>
</mgrwt>
</event>
<event>
 4    1  0.2451537E+000  0.5786191E+02  0.7957747E-01  0.1407030E+00
         13   -1    0    0    0    0  0.00000000000E+00  0.00000000000E+00  0.99999944182E+02  0.10000000000E+03  0.10566000000E+00 0. -1.
         22   -1    0    0    0    0 -0.00000000000E+00 -0.00000000000E+00 -0.19371150682E+02  0.19371150682E+02  0.00000000000E+00 0.  1.
         13    1    1    2    0    0  0.37094186561E+01  0.28883218813E+02  0.18649151429E+02  0.34580372017E+02  0.10566000000E+00 0.  1.
        996    1    1    2    0    0 -0.37094186561E+01 -0.28883218813E+02  0.61979642070E+02  0.84790778667E+02  0.50000000000E+02 0.  0.
<mgrwt>
<rscale>  0 0.57861906E+02</rscale>
<asrwt>0</asrwt>
<pdfrwt beam="1">  1       13 0.10000000E+01 0.57861906E+02</pdfrwt>
<pdfrwt beam="2">  1       22 0.19371173E+00 0.57861906E+02</pdfrwt>
<totfact> 0.48561139E-01</totfact>
</mgrwt>
</event>
<event>
 4    1  0.2451537E+000  0.5170739E+02  0.7957747E-01  0.1436344E+00
         13   -1    0    0    0    0  0.00000000000E+00  0.00000000000E+00  0.99999944183E+02  0.10000000000E+03  0.10566000000E+00 0. -1.
         22   -1    0    0    0    0 -0.00000000000E+00 -0.00000000000E+00 -0.10637338749E+02  0.10637338749E+02  0.00000000000E+00 0. -1.
         13    1    1    2    0    0  0.46546556065E+01 -0.12328370726E+02  0.23009204994E+02  0.26515829651E+02  0.10566000000E+00 0.  1.
        996    1    1    2    0    0 -0.46546556065E+01  0.12328370726E+02  0.66353400440E+02  0.84121509101E+02  0.50000000000E+02 0.  0.
<mgrwt>
<rscale>  0 0.51707394E+02</rscale>
<asrwt>0</asrwt>
<pdfrwt beam="1">  1       13 0.10000000E+01 0.51707394E+02</pdfrwt>
<pdfrwt beam="2">  1       22 0.10637364E+00 0.51707394E+02</pdfrwt>
<totfact> 0.12872198E+00</totfact>
</mgrwt>
</event>
<event>
 4    1  0.2451537E+000  0.5309127E+02  0.7957747E-01  0.1429347E+00
         13   -1    0    0    0    0  0.00000000000E+00  0.00000000000E+00  0.99999944185E+02  0.10000000001E+03  0.10566000000E+00 0. -1.
         22   -1    0    0    0    0 -0.00000000000E+00 -0.00000000000E+00 -0.13510213799E+02  0.13510213799E+02  0.00000000000E+00 0. -1.
         13    1    1    2    0    0  0.16382553969E+02  0.70919246151E+01  0.10186083770E+02  0.20553611262E+02  0.10566000000E+00 0.  1.
        996    1    1    2    0    0 -0.16382553969E+02 -0.70919246151E+01  0.76303646617E+02  0.92956602543E+02  0.50000000000E+02 0.  0.
<mgrwt>
<rscale>  0 0.53091275E+02</rscale>
<asrwt>0</asrwt>
<pdfrwt beam="1">  1       13 0.10000000E+01 0.53091275E+02</pdfrwt>
<pdfrwt beam="2">  1       22 0.13510238E+00 0.53091275E+02</pdfrwt>
<totfact> 0.89507520E-01</totfact>
</mgrwt>
</event>
<event>
 4    1  0.2451537E+000  0.6155985E+02  0.7957747E-01  0.1391400E+00
         13   -1    0    0    0    0  0.00000000000E+00  0.00000000000E+00  0.99999944182E+02  0.10000000000E+03  0.10566000000E+00 0. -1.
         22   -1    0    0    0    0 -0.00000000000E+00 -0.00000000000E+00 -0.45447161045E+02  0.45447161045E+02  0.00000000000E+00 0.  1.
         13    1    1    2    0    0  0.18879583372E+02 -0.30547938100E+02 -0.25803867289E+02  0.44220650397E+02  0.10566000000E+00 0.  1.
        996    1    1    2    0    0 -0.18879583372E+02  0.30547938100E+02  0.80356650427E+02  0.10122651065E+03  0.50000000000E+02 0.  0.
<mgrwt>
<rscale>  0 0.61559850E+02</rscale>
<asrwt>0</asrwt>
<pdfrwt beam="1">  1       13 0.10000000E+01 0.61559850E+02</pdfrwt>
<pdfrwt beam="2">  1       22 0.45447176E+00 0.61559850E+02</pdfrwt>
<totfact> 0.94868218E-02</totfact>
</mgrwt>
</event>
<event>
 4    1  0.2451537E+000  0.5384034E+02  0.7957747E-01  0.1425664E+00
         13   -1    0    0    0    0  0.00000000000E+00  0.00000000000E+00  0.99999944174E+02  0.99999999994E+02  0.10566000000E+00 0.  1.
         22   -1    0    0    0    0 -0.00000000000E+00 -0.00000000000E+00 -0.19849114888E+02  0.19849114888E+02  0.00000000000E+00 0. -1.
         13    1    1    2    0    0  0.12587217331E+02 -0.15503051064E+02 -0.35935467682E+01  0.20290573546E+02  0.10566000000E+00 0. -1.
        996    1    1    2    0    0 -0.12587217331E+02  0.15503051064E+02  0.83744376054E+02  0.99558541337E+02  0.50000000000E+02 0.  0.
<mgrwt>
<rscale>  0 0.53840344E+02</rscale>
<asrwt>0</asrwt>
<pdfrwt beam="1">  1       13 0.10000000E+01 0.53840344E+02</pdfrwt>
<pdfrwt beam="2">  1       22 0.19849137E+00 0.53840344E+02</pdfrwt>
<totfact> 0.46101464E-01</totfact>
</mgrwt>
</event>
<event>
 4    1  0.2451537E+000  0.5152420E+02  0.7957747E-01  0.1437290E+00
         13   -1    0    0    0    0  0.00000000000E+00  0.00000000000E+00  0.99999944179E+02  0.99999999999E+02  0.10566000000E+00 0.  1.
         22   -1    0    0    0    0 -0.00000000000E+00 -0.00000000000E+00 -0.10360438009E+02  0.10360438009E+02  0.00000000000E+00 0.  1.
         13    1    1    2    0    0  0.20602867539E+01 -0.12267785313E+02  0.22729488201E+02  0.25911081335E+02  0.10566000000E+00 0. -1.
        996    1    1    2    0    0 -0.20602867539E+01  0.12267785313E+02  0.66910017969E+02  0.84449356673E+02  0.50000000000E+02 0.  0.
<mgrwt>
<rscale>  0 0.51524201E+02</rscale>
<asrwt>0</asrwt>
<pdfrwt beam="1">  1       13 0.10000000E+01 0.51524201E+02</pdfrwt>
<pdfrwt beam="2">  1       22 0.10360463E+00 0.51524201E+02</pdfrwt>
<totfact> 0.13374468E+00</totfact>
</mgrwt>
</event>
<event>
 4    1  0.2451537E+000  0.6287946E+02  0.7957747E-01  0.1386130E+00
         13   -1    0    0    0    0  0.00000000000E+00  0.00000000000E+00  0.99999944176E+02  0.99999999996E+02  0.10566000000E+00 0.  1.
         22   -1    0    0    0    0 -0.00000000000E+00 -0.00000000000E+00 -0.29410592818E+02  0.29410592818E+02  0.00000000000E+00 0.  1.
         13    1    1    2    0    0 -0.71275234450E+01 -0.37456969271E+02  0.48425532433E+01  0.38435499521E+02  0.10566000000E+00 0. -1.
        996    1    1    2    0    0  0.71275234450E+01  0.37456969271E+02  0.65746798115E+02  0.90975093294E+02  0.50000000000E+02 0.  0.
<mgrwt>
<rscale>  0 0.62879457E+02</rscale>
<asrwt>0</asrwt>
<pdfrwt beam="1">  1       13 0.10000000E+01 0.62879457E+02</pdfrwt>
<pdfrwt beam="2">  1       22 0.29410613E+00 0.62879457E+02</pdfrwt>
<totfact> 0.21777260E-01</totfact>
</mgrwt>
</event>
<event>
 4    1  0.2451537E+000  0.5347601E+02  0.7957747E-01  0.1427447E+00
         13   -1    0    0    0    0  0.00000000000E+00  0.00000000000E+00  0.99999944186E+02  0.10000000001E+03  0.10566000000E+00 0.  1.
         22   -1    0    0    0    0 -0.00000000000E+00 -0.00000000000E+00 -0.31756097164E+02  0.31756097164E+02  0.00000000000E+00 0. -1.
         13    1    1    2    0    0  0.73919320700E+01  0.17465474519E+02 -0.20636959917E+02  0.28028177581E+02  0.10566000000E+00 0. -1.
        996    1    1    2    0    0 -0.73919320700E+01 -0.17465474519E+02  0.88880806940E+02  0.10372791959E+03  0.50000000000E+02 0.  0.
<mgrwt>
<rscale>  0 0.53476008E+02</rscale>
<asrwt>0</asrwt>
<pdfrwt beam="1">  1       13 0.10000000E+01 0.53476008E+02</pdfrwt>
<pdfrwt beam="2">  1       22 0.31756116E+00 0.53476008E+02</pdfrwt>
<totfact> 0.18685964E-01</totfact>
</mgrwt>
</event>
<event>
 4    1  0.2451537E+000  0.5268311E+02  0.7957747E-01  0.1431384E+00
         13   -1    0    0    0    0  0.00000000000E+00  0.00000000000E+00  0.99999944185E+02  0.10000000001E+03  0.10566000000E+00 0.  1.
         22   -1    0    0    0    0 -0.00000000000E+00 -0.00000000000E+00 -0.54598520089E+02  0.54598520089E+02  0.00000000000E+00 0. -1.
         13    1    1    2    0    0 -0.16929253022E+01  0.16511932871E+02 -0.46109447919E+02  0.49006145275E+02  0.10566000000E+00 0. -1.
        996    1    1    2    0    0  0.16929253022E+01 -0.16511932871E+02  0.91510872015E+02  0.10559237482E+03  0.50000000000E+02 0.  0.
<mgrwt>
<rscale>  0 0.52683109E+02</rscale>
<asrwt>0</asrwt>
<pdfrwt beam="1">  1       13 0.10000000E+01 0.52683109E+02</pdfrwt>
<pdfrwt beam="2">  1       22 0.54598533E+00 0.52683109E+02</pdfrwt>
<totfact> 0.59681072E-02</totfact>
</mgrwt>
</event>
<event>
 4    1  0.2451537E+000  0.5117991E+02  0.7957747E-01  0.1439079E+00
         13   -1    0    0    0    0  0.00000000000E+00  0.00000000000E+00  0.99999944174E+02  0.99999999995E+02  0.10566000000E+00 0.  1.
         22   -1    0    0    0    0 -0.00000000000E+00 -0.00000000000E+00 -0.67882634741E+02  0.67882634741E+02  0.00000000000E+00 0. -1.
         13    1    1    2    0    0 -0.10734110958E+02 -0.20400119837E+01 -0.60815255315E+02  0.61789070474E+02  0.10566000000E+00 0. -1.
        996    1    1    2    0    0  0.10734110958E+02  0.20400119837E+01  0.92932564749E+02  0.10609356426E+03  0.50000000000E+02 0.  0.
<mgrwt>
<rscale>  0 0.51179906E+02</rscale>
<asrwt>0</asrwt>
<pdfrwt beam="1">  1       13 0.10000000E+01 0.51179906E+02</pdfrwt>
<pdfrwt beam="2">  1       22 0.67882644E+00 0.51179906E+02</pdfrwt>
<totfact> 0.83875299E-02</totfact>
</mgrwt>
</event>
<event>
 4    1  0.2451537E+000  0.5112717E+02  0.7957747E-01  0.1439355E+00
         13   -1    0    0    0    0  0.00000000000E+00  0.00000000000E+00  0.99999944183E+02  0.10000000000E+03  0.10566000000E+00 0. -1.
         22   -1    0    0    0    0 -0.00000000000E+00 -0.00000000000E+00 -0.17311577767E+02  0.17311577767E+02  0.00000000000E+00 0.  1.
         13    1    1    2    0    0  0.34778217346E+01 -0.10094175489E+02 -0.79063441163E+01  0.13285671384E+02  0.10566000000E+00 0.  1.
        996    1    1    2    0    0 -0.34778217346E+01  0.10094175489E+02  0.90594710532E+02  0.10402590639E+03  0.50000000000E+02 0.  0.
<mgrwt>
<rscale>  0 0.51127171E+02</rscale>
<asrwt>0</asrwt>
<pdfrwt beam="1">  1       13 0.10000000E+01 0.51127171E+02</pdfrwt>
<pdfrwt beam="2">  1       22 0.17311601E+00 0.51127171E+02</pdfrwt>
<totfact> 0.58787622E-01</totfact>
</mgrwt>
</event>
<event>
 4    1  0.2451537E+000  0.5154832E+02  0.7957747E-01  0.1437165E+00
         13   -1    0    0    0    0  0.00000000000E+00  0.00000000000E+00  0.99999944181E+02  0.10000000000E+03  0.10566000000E+00 0.  1.
         22   -1    0    0    0    0 -0.00000000000E+00 -0.00000000000E+00 -0.11880101184E+02  0.11880101184E+02  0.00000000000E+00 0.  1.
         13    1    1    2    0    0 -0.11984608633E+01  0.12481704773E+02  0.38911817272E+01  0.13129421988E+02  0.10566000000E+00 0. -1.
        996    1    1    2    0    0  0.11984608633E+01 -0.12481704773E+02  0.84228661270E+02  0.98750679197E+02  0.50000000000E+02 0.  0.
<mgrwt>
<rscale>  0 0.51548320E+02</rscale>
<asrwt>0</asrwt>
<pdfrwt beam="1">  1       13 0.10000000E+01 0.51548320E+02</pdfrwt>
<pdfrwt beam="2">  1       22 0.11880126E+00 0.51548320E+02</pdfrwt>
<totfact> 0.10904632E+00</totfact>
</mgrwt>
</event>
<event>
 4    1  0.2451537E+000  0.5414684E+02  0.7957747E-01  0.1424177E+00
         13   -1    0    0    0    0  0.00000000000E+00  0.00000000000E+00  0.99999944177E+02  0.99999999998E+02  0.10566000000E+00 0.  1.
         22   -1    0    0    0    0 -0.00000000000E+00 -0.00000000000E+00 -0.27498067739E+02  0.27498067739E+02  0.00000000000E+00 0. -1.
         13    1    1    2    0    0 -0.17187748401E+02 -0.11681695217E+02 -0.14275833542E+02  0.25212919022E+02  0.10566000000E+00 0. -1.
        996    1    1    2    0    0  0.17187748401E+02  0.11681695217E+02  0.86777709980E+02  0.10228514872E+03  0.50000000000E+02 0.  0.
<mgrwt>
<rscale>  0 0.54146844E+02</rscale>
<asrwt>0</asrwt>
<pdfrwt beam="1">  1       13 0.10000000E+01 0.54146844E+02</pdfrwt>
<pdfrwt beam="2">  1       22 0.27498088E+00 0.54146844E+02</pdfrwt>
<totfact> 0.24529213E-01</totfact>
</mgrwt>
</event>
<event>
 4    1  0.2451537E+000  0.5150226E+02  0.7957747E-01  0.1437403E+00
         13   -1    0    0    0    0  0.00000000000E+00  0.00000000000E+00  0.99999944180E+02  0.10000000000E+03  0.10566000000E+00 0.  1.
         22   -1    0    0    0    0 -0.00000000000E+00 -0.00000000000E+00 -0.15132356210E+02  0.15132356210E+02  0.00000000000E+00 0. -1.
         13    1    1    2    0    0  0.12345543574E+02 -0.26536225964E+00 -0.35145345643E+01  0.12839235978E+02  0.10566000000E+00 0. -1.
        996    1    1    2    0    0 -0.12345543574E+02  0.26536225964E+00  0.88382122534E+02  0.10229312023E+03  0.50000000000E+02 0.  0.
<mgrwt>
<rscale>  0 0.51502261E+02</rscale>
<asrwt>0</asrwt>
<pdfrwt beam="1">  1       13 0.10000000E+01 0.51502261E+02</pdfrwt>
<pdfrwt beam="2">  1       22 0.15132380E+00 0.51502261E+02</pdfrwt>
<totfact> 0.74121659E-01</totfact>
</mgrwt>
</event>
<event>
 4    1  0.2451537E+000  0.5162279E+02  0.7957747E-01  0.1436780E+00
         13   -1    0    0    0    0  0.00000000000E+00  0.00000000000E+00  0.99999944170E+02  0.99999999990E+02  0.10566000000E+00 0.  1.
         22   -1    0    0    0    0 -0.00000000000E+00 -0.00000000000E+00 -0.11438339195E+02  0.11438339195E+02  0.00000000000E+00 0.  1.
         13    1    1    2    0    0 -0.69862630478E+00 -0.12822815460E+02  0.62604659671E+01  0.14286961650E+02  0.10566000000E+00 0. -1.
        996    1    1    2    0    0  0.69862630478E+00  0.12822815460E+02  0.82301139007E+02  0.97151377535E+02  0.50000000000E+02 0.  0.
<mgrwt>
<rscale>  0 0.51622792E+02</rscale>
<asrwt>0</asrwt>
<pdfrwt beam="1">  1       13 0.10000000E+01 0.51622792E+02</pdfrwt>
<pdfrwt beam="2">  1       22 0.11438364E+00 0.51622792E+02</pdfrwt>
<totfact> 0.11550925E+00</totfact>
</mgrwt>
</event>
<event>
 4    1  0.2451537E+000  0.5294551E+02  0.7957747E-01  0.1430072E+00
         13   -1    0    0    0    0  0.00000000000E+00  0.00000000000E+00  0.99999944178E+02  0.99999999998E+02  0.10566000000E+00 0.  1.
         22   -1    0    0    0    0 -0.00000000000E+00 -0.00000000000E+00 -0.33565355389E+02  0.33565355389E+02  0.00000000000E+00 0. -1.
         13    1    1    2    0    0  0.38351775335E+01  0.16985831463E+02 -0.23472660867E+02  0.29226769055E+02  0.10566000000E+00 0. -1.
        996    1    1    2    0    0 -0.38351775335E+01 -0.16985831463E+02  0.89907249655E+02  0.10433858633E+03  0.50000000000E+02 0.  0.
<mgrwt>
<rscale>  0 0.52945510E+02</rscale>
<asrwt>0</asrwt>
<pdfrwt beam="1">  1       13 0.10000000E+01 0.52945510E+02</pdfrwt>
<pdfrwt beam="2">  1       22 0.33565374E+00 0.52945510E+02</pdfrwt>
<totfact> 0.16923867E-01</totfact>
</mgrwt>
</event>
<event>
 4    1  0.2451537E+000  0.5143845E+02  0.7957747E-01  0.1437734E+00
         13   -1    0    0    0    0  0.00000000000E+00  0.00000000000E+00  0.99999944180E+02  0.10000000000E+03  0.10566000000E+00 0.  1.
         22   -1    0    0    0    0 -0.00000000000E+00 -0.00000000000E+00 -0.10100917815E+02  0.10100917815E+02  0.00000000000E+00 0.  1.
         13    1    1    2    0    0  0.30600672195E+01 -0.11685467982E+02  0.18773232746E+02  0.22323969296E+02  0.10566000000E+00 0. -1.
        996    1    1    2    0    0 -0.30600672195E+01  0.11685467982E+02  0.71125793619E+02  0.87776948519E+02  0.50000000000E+02 0.  0.
<mgrwt>
<rscale>  0 0.51438450E+02</rscale>
<asrwt>0</asrwt>
<pdfrwt beam="1">  1       13 0.10000000E+01 0.51438450E+02</pdfrwt>
<pdfrwt beam="2">  1       22 0.10100943E+00 0.51438450E+02</pdfrwt>
<totfact> 0.13875243E+00</totfact>
</mgrwt>
</event>
<event>
 4    1  0.2451537E+000  0.5863899E+02  0.7957747E-01  0.1403634E+00
         13   -1    0    0    0    0  0.00000000000E+00  0.00000000000E+00  0.99999944178E+02  0.99999999998E+02  0.10566000000E+00 0. -1.
         22   -1    0    0    0    0 -0.00000000000E+00 -0.00000000000E+00 -0.21739400896E+02  0.21739400896E+02  0.00000000000E+00 0.  1.
         13    1    1    2    0    0  0.22060047811E+02  0.21257598395E+02  0.11106537290E+02  0.32586769302E+02  0.10566000000E+00 0.  1.
        996    1    1    2    0    0 -0.22060047811E+02 -0.21257598395E+02  0.67154005991E+02  0.89152631591E+02  0.50000000000E+02 0.  0.
<mgrwt>
<rscale>  0 0.58638990E+02</rscale>
<asrwt>0</asrwt>
<pdfrwt beam="1">  1       13 0.10000000E+01 0.58638990E+02</pdfrwt>
<pdfrwt beam="2">  1       22 0.21739423E+00 0.58638990E+02</pdfrwt>
<totfact> 0.39111497E-01</totfact>
</mgrwt>
</event>
<event>
 4    1  0.2451537E+000  0.5515431E+02  0.7957747E-01  0.1419371E+00
         13   -1    0    0    0    0  0.00000000000E+00  0.00000000000E+00  0.99999944189E+02  0.10000000001E+03  0.10566000000E+00 0. -1.
         22   -1    0    0    0    0 -0.00000000000E+00 -0.00000000000E+00 -0.17986577662E+02  0.17986577662E+02  0.00000000000E+00 0.  1.
         13    1    1    2    0    0 -0.20578142464E+02  0.10887514221E+02  0.47568441317E+02  0.52960038582E+02  0.10566000000E+00 0.  1.
        996    1    1    2    0    0  0.20578142464E+02 -0.10887514221E+02  0.34444925209E+02  0.65026539089E+02  0.50000000000E+02 0.  0.
<mgrwt>
<rscale>  0 0.55154310E+02</rscale>
<asrwt>0</asrwt>
<pdfrwt beam="1">  1       13 0.10000000E+01 0.55154310E+02</pdfrwt>
<pdfrwt beam="2">  1       22 0.17986601E+00 0.55154310E+02</pdfrwt>
<totfact> 0.55332344E-01</totfact>
</mgrwt>
</event>
<event>
 4    1  0.2451537E+000  0.5607539E+02  0.7957747E-01  0.1415081E+00
         13   -1    0    0    0    0  0.00000000000E+00  0.00000000000E+00  0.99999944182E+02  0.10000000000E+03  0.10566000000E+00 0. -1.
         22   -1    0    0    0    0 -0.00000000000E+00 -0.00000000000E+00 -0.17429504641E+02  0.17429504641E+02  0.00000000000E+00 0. -1.
         13    1    1    2    0    0  0.18868780617E+02 -0.16982883752E+02  0.38465198965E+02  0.46087220766E+02  0.10566000000E+00 0.  1.
        996    1    1    2    0    0 -0.18868780617E+02  0.16982883752E+02  0.44105240576E+02  0.71342283877E+02  0.50000000000E+02 0.  0.
<mgrwt>
<rscale>  0 0.56075389E+02</rscale>
<asrwt>0</asrwt>
<pdfrwt beam="1">  1       13 0.10000000E+01 0.56075389E+02</pdfrwt>
<pdfrwt beam="2">  1       22 0.17429528E+00 0.56075389E+02</pdfrwt>
<totfact> 0.58622480E-01</totfact>
</mgrwt>
</event>
<event>
 4    1  0.2451537E+000  0.5123404E+02  0.7957747E-01  0.1438797E+00
         13   -1    0    0    0    0  0.00000000000E+00  0.00000000000E+00  0.99999944177E+02  0.99999999998E+02  0.10566000000E+00 0.  1.
         22   -1    0    0    0    0 -0.00000000000E+00 -0.00000000000E+00 -0.22481365839E+02  0.22481365839E+02  0.00000000000E+00 0. -1.
         13    1    1    2    0    0  0.69433296642E+01  0.87588191628E+01 -0.13808074512E+02  0.17765157632E+02  0.10566000000E+00 0. -1.
        996    1    1    2    0    0 -0.69433296642E+01 -0.87588191628E+01  0.91326652850E+02  0.10471620820E+03  0.50000000000E+02 0.  0.
<mgrwt>
<rscale>  0 0.51234039E+02</rscale>
<asrwt>0</asrwt>
<pdfrwt beam="1">  1       13 0.10000000E+01 0.51234039E+02</pdfrwt>
<pdfrwt beam="2">  1       22 0.22481387E+00 0.51234039E+02</pdfrwt>
<totfact> 0.36228038E-01</totfact>
</mgrwt>
</event>
<event>
 4    1  0.2451537E+000  0.5158752E+02  0.7957747E-01  0.1436962E+00
         13   -1    0    0    0    0  0.00000000000E+00  0.00000000000E+00  0.99999944187E+02  0.10000000001E+03  0.10566000000E+00 0. -1.
         22   -1    0    0    0    0 -0.00000000000E+00 -0.00000000000E+00 -0.14006433512E+02  0.14006433512E+02  0.00000000000E+00 0. -1.
         13    1    1    2    0    0 -0.12653248713E+02 -0.10805965824E+01 -0.11357377328E+01  0.12750429647E+02  0.10566000000E+00 0.  1.
        996    1    1    2    0    0  0.12653248713E+02  0.10805965824E+01  0.87129248407E+02  0.10125600387E+03  0.50000000000E+02 0.  0.
<mgrwt>
<rscale>  0 0.51587522E+02</rscale>
<asrwt>0</asrwt>
<pdfrwt beam="1">  1       13 0.10000000E+01 0.51587522E+02</pdfrwt>
<pdfrwt beam="2">  1       22 0.14006458E+00 0.51587522E+02</pdfrwt>
<totfact> 0.84191475E-01</totfact>
</mgrwt>
</event>
<event>
 4    1  0.2451537E+000  0.5110940E+02  0.7957747E-01  0.1439448E+00
         13   -1    0    0    0    0  0.00000000000E+00  0.00000000000E+00  0.99999944178E+02  0.99999999998E+02  0.10566000000E+00 0.  1.
         22   -1    0    0    0    0 -0.00000000000E+00 -0.00000000000E+00 -0.12633747006E+02  0.12633747006E+02  0.00000000000E+00 0. -1.
         13    1    1    2    0    0 -0.96908114513E+01  0.42730851860E+01 -0.90885205875E+00  0.10630534309E+02  0.10566000000E+00 0. -1.
        996    1    1    2    0    0  0.96908114513E+01 -0.42730851860E+01  0.88275049230E+02  0.10200321270E+03  0.50000000000E+02 0.  0.
<mgrwt>
<rscale>  0 0.51109403E+02</rscale>
<asrwt>0</asrwt>
<pdfrwt beam="1">  1       13 0.10000000E+01 0.51109403E+02</pdfrwt>
<pdfrwt beam="2">  1       22 0.12633771E+00 0.51109403E+02</pdfrwt>
<totfact> 0.99079996E-01</totfact>
</mgrwt>
</event>
<event>
 4    1  0.2451537E+000  0.5548330E+02  0.7957747E-01  0.1417827E+00
         13   -1    0    0    0    0  0.00000000000E+00  0.00000000000E+00  0.99999944175E+02  0.99999999996E+02  0.10566000000E+00 0. -1.
         22   -1    0    0    0    0 -0.00000000000E+00 -0.00000000000E+00 -0.26616318591E+02  0.26616318591E+02  0.00000000000E+00 0.  1.
         13    1    1    2    0    0  0.18645497886E+01  0.23977500921E+02 -0.10338680890E+02  0.26178169969E+02  0.10566000000E+00 0.  1.
        996    1    1    2    0    0 -0.18645497886E+01 -0.23977500921E+02  0.83722306474E+02  0.10043814862E+03  0.50000000000E+02 0.  0.
<mgrwt>
<rscale>  0 0.55483305E+02</rscale>
<asrwt>0</asrwt>
<pdfrwt beam="1">  1       13 0.10000000E+01 0.55483305E+02</pdfrwt>
<pdfrwt beam="2">  1       22 0.26616339E+00 0.55483305E+02</pdfrwt>
<totfact> 0.26193860E-01</totfact>
</mgrwt>
</event>
<event>
 4    1  0.2451537E+000  0.5512928E+02  0.7957747E-01  0.1419489E+00
         13   -1    0    0    0    0  0.00000000000E+00  0.00000000000E+00  0.99999944178E+02  0.99999999998E+02  0.10566000000E+00 0. -1.
         22   -1    0    0    0    0 -0.00000000000E+00 -0.00000000000E+00 -0.56146589225E+02  0.56146589225E+02  0.00000000000E+00 0.  1.
         13    1    1    2    0    0 -0.12447959608E+01 -0.23188103698E+02 -0.45541117769E+02  0.51119881081E+02  0.10566000000E+00 0.  1.
        996    1    1    2    0    0  0.12447959608E+01  0.23188103698E+02  0.89394472721E+02  0.10502670814E+03  0.50000000000E+02 0.  0.
<mgrwt>
<rscale>  0 0.55129281E+02</rscale>
<asrwt>0</asrwt>
<pdfrwt beam="1">  1       13 0.10000000E+01 0.55129281E+02</pdfrwt>
<pdfrwt beam="2">  1       22 0.56146601E+00 0.55129281E+02</pdfrwt>
<totfact> 0.58377312E-02</totfact>
</mgrwt>
</event>
<event>
 4    1  0.2451537E+000  0.5135749E+02  0.7957747E-01  0.1438154E+00
         13   -1    0    0    0    0  0.00000000000E+00  0.00000000000E+00  0.99999944174E+02  0.99999999995E+02  0.10566000000E+00 0.  1.
         22   -1    0    0    0    0 -0.00000000000E+00 -0.00000000000E+00 -0.11212242066E+02  0.11212242066E+02  0.00000000000E+00 0. -1.
         13    1    1    2    0    0 -0.11473546104E+02  0.24391099191E+01  0.46083834512E+01  0.12603169421E+02  0.10566000000E+00 0. -1.
        996    1    1    2    0    0  0.11473546104E+02 -0.24391099191E+01  0.84179318657E+02  0.98609072640E+02  0.50000000000E+02 0.  0.
<mgrwt>
<rscale>  0 0.51357487E+02</rscale>
<asrwt>0</asrwt>
<pdfrwt beam="1">  1       13 0.10000000E+01 0.51357487E+02</pdfrwt>
<pdfrwt beam="2">  1       22 0.11212267E+00 0.51357487E+02</pdfrwt>
<totfact> 0.11894966E+00</totfact>
</mgrwt>
</event>
<event>
 4    1  0.2451537E+000  0.5644850E+02  0.7957747E-01  0.1413370E+00
         13   -1    0    0    0    0  0.00000000000E+00  0.00000000000E+00  0.99999944173E+02  0.99999999994E+02  0.10566000000E+00 0. -1.
         22   -1    0    0    0    0 -0.00000000000E+00 -0.00000000000E+00 -0.46528388736E+02  0.46528388736E+02  0.00000000000E+00 0.  1.
         13    1    1    2    0    0 -0.24451985187E+02 -0.94092215948E+01 -0.33693592183E+02  0.42681405189E+02  0.10566000000E+00 0.  1.
        996    1    1    2    0    0  0.24451985187E+02  0.94092215948E+01  0.87165147621E+02  0.10384698354E+03  0.50000000000E+02 0.  0.
<mgrwt>
<rscale>  0 0.56448499E+02</rscale>
<asrwt>0</asrwt>
<pdfrwt beam="1">  1       13 0.10000000E+01 0.56448499E+02</pdfrwt>
<pdfrwt beam="2">  1       22 0.46528404E+00 0.56448499E+02</pdfrwt>
<totfact> 0.89327655E-02</totfact>
</mgrwt>
</event>
<event>
 4    1  0.2451537E+000  0.5281671E+02  0.7957747E-01  0.1430715E+00
         13   -1    0    0    0    0  0.00000000000E+00  0.00000000000E+00  0.99999944180E+02  0.10000000000E+03  0.10566000000E+00 0. -1.
         22   -1    0    0    0    0 -0.00000000000E+00 -0.00000000000E+00 -0.30139159896E+02  0.30139159896E+02  0.00000000000E+00 0.  1.
         13    1    1    2    0    0 -0.59191330724E+01 -0.15955208924E+02 -0.19781334100E+02  0.26094389645E+02  0.10566000000E+00 0.  1.
        996    1    1    2    0    0  0.59191330724E+01  0.15955208924E+02  0.89642118384E+02  0.10404477025E+03  0.50000000000E+02 0.  0.
<mgrwt>
<rscale>  0 0.52816710E+02</rscale>
<asrwt>0</asrwt>
<pdfrwt beam="1">  1       13 0.10000000E+01 0.52816710E+02</pdfrwt>
<pdfrwt beam="2">  1       22 0.30139179E+00 0.52816710E+02</pdfrwt>
<totfact> 0.20546747E-01</totfact>
</mgrwt>
</event>
<event>
 4    1  0.2451537E+000  0.5394297E+02  0.7957747E-01  0.1425165E+00
         13   -1    0    0    0    0  0.00000000000E+00  0.00000000000E+00  0.99999944172E+02  0.99999999992E+02  0.10566000000E+00 0.  1.
         22   -1    0    0    0    0 -0.00000000000E+00 -0.00000000000E+00 -0.19954339050E+02  0.19954339050E+02  0.00000000000E+00 0. -1.
         13    1    1    2    0    0  0.19963524168E+02 -0.33618612863E+01 -0.34624543909E+01  0.20538845220E+02  0.10566000000E+00 0. -1.
        996    1    1    2    0    0 -0.19963524168E+02  0.33618612863E+01  0.83508059512E+02  0.99415493823E+02  0.50000000000E+02 0.  0.
<mgrwt>
<rscale>  0 0.53942974E+02</rscale>
<asrwt>0</asrwt>
<pdfrwt beam="1">  1       13 0.10000000E+01 0.53942974E+02</pdfrwt>
<pdfrwt beam="2">  1       22 0.19954361E+00 0.53942974E+02</pdfrwt>
<totfact> 0.45657503E-01</totfact>
</mgrwt>
</event>
<event>
 4    1  0.2451537E+000  0.5120272E+02  0.7957747E-01  0.1438960E+00
         13   -1    0    0    0    0  0.00000000000E+00  0.00000000000E+00  0.99999944178E+02  0.99999999998E+02  0.10566000000E+00 0. -1.
         22   -1    0    0    0    0 -0.00000000000E+00 -0.00000000000E+00 -0.97187734644E+01  0.97187734644E+01  0.00000000000E+00 0. -1.
         13    1    1    2    0    0  0.54709383128E+01 -0.95805525724E+01  0.13573763194E+02  0.17492180107E+02  0.10566000000E+00 0.  1.
        996    1    1    2    0    0 -0.54709383128E+01  0.95805525724E+01  0.76707407520E+02  0.92226593356E+02  0.50000000000E+02 0.  0.
<mgrwt>
<rscale>  0 0.51202716E+02</rscale>
<asrwt>0</asrwt>
<pdfrwt beam="1">  1       13 0.10000000E+01 0.51202716E+02</pdfrwt>
<pdfrwt beam="2">  1       22 0.97187987E-01 0.51202716E+02</pdfrwt>
<totfact> 0.14661807E+00</totfact>
</mgrwt>
</event>
<event>
 4    1  0.2451537E+000  0.7332172E+02  0.7957747E-01  0.1349148E+00
         13   -1    0    0    0    0  0.00000000000E+00  0.00000000000E+00  0.99999944179E+02  0.99999999999E+02  0.10566000000E+00 0. -1.
         22   -1    0    0    0    0 -0.00000000000E+00 -0.00000000000E+00 -0.54863298275E+02  0.54863298275E+02  0.00000000000E+00 0.  1.
         13    1    1    2    0    0 -0.31490895503E+02  0.43409655228E+02 -0.19554375569E+02  0.57082917186E+02  0.10566000000E+00 0.  1.
        996    1    1    2    0    0  0.31490895503E+02 -0.43409655228E+02  0.64691021473E+02  0.97780381088E+02  0.50000000000E+02 0.  0.
<mgrwt>
<rscale>  0 0.73321720E+02</rscale>
<asrwt>0</asrwt>
<pdfrwt beam="1">  1       13 0.10000000E+01 0.73321720E+02</pdfrwt>
<pdfrwt beam="2">  1       22 0.54863311E+00 0.73321720E+02</pdfrwt>
<totfact> 0.59687248E-02</totfact>
</mgrwt>
</event>
<event>
 4    1  0.2451537E+000  0.5142054E+02  0.7957747E-01  0.1437827E+00
         13   -1    0    0    0    0  0.00000000000E+00  0.00000000000E+00  0.99999944184E+02  0.10000000000E+03  0.10566000000E+00 0. -1.
         22   -1    0    0    0    0 -0.00000000000E+00 -0.00000000000E+00 -0.11528371228E+02  0.11528371228E+02  0.00000000000E+00 0. -1.
         13    1    1    2    0    0 -0.93622438625E+01  0.75113308079E+01  0.40287941000E+01  0.12661518336E+02  0.10566000000E+00 0.  1.
        996    1    1    2    0    0  0.93622438625E+01 -0.75113308079E+01  0.84442778856E+02  0.98866852896E+02  0.50000000000E+02 0.  0.
<mgrwt>
<rscale>  0 0.51420538E+02</rscale>
<asrwt>0</asrwt>
<pdfrwt beam="1">  1       13 0.10000000E+01 0.51420538E+02</pdfrwt>
<pdfrwt beam="2">  1       22 0.11528396E+00 0.51420538E+02</pdfrwt>
<totfact> 0.11409923E+00</totfact>
</mgrwt>
</event>
<event>
 4    1  0.2451537E+000  0.5650892E+02  0.7957747E-01  0.1413095E+00
         13   -1    0    0    0    0  0.00000000000E+00  0.00000000000E+00  0.99999944180E+02  0.10000000000E+03  0.10566000000E+00 0. -1.
         22   -1    0    0    0    0 -0.00000000000E+00 -0.00000000000E+00 -0.46652169123E+02  0.46652169123E+02  0.00000000000E+00 0.  1.
         13    1    1    2    0    0  0.26279727387E+02 -0.16229551522E+01 -0.33764201139E+02  0.42816941712E+02  0.10566000000E+00 0.  1.
        996    1    1    2    0    0 -0.26279727387E+02  0.16229551522E+01  0.87111976195E+02  0.10383522741E+03  0.50000000000E+02 0.  0.
<mgrwt>
<rscale>  0 0.56508920E+02</rscale>
<asrwt>0</asrwt>
<pdfrwt beam="1">  1       13 0.10000000E+01 0.56508920E+02</pdfrwt>
<pdfrwt beam="2">  1       22 0.46652184E+00 0.56508920E+02</pdfrwt>
<totfact> 0.88736557E-02</totfact>
</mgrwt>
</event>
<event>
 4    1  0.2451537E+000  0.6018124E+02  0.7957747E-01  0.1397073E+00
         13   -1    0    0    0    0  0.00000000000E+00  0.00000000000E+00  0.99999944183E+02  0.10000000000E+03  0.10566000000E+00 0. -1.
         22   -1    0    0    0    0 -0.00000000000E+00 -0.00000000000E+00 -0.36226708034E+02  0.36226708034E+02  0.00000000000E+00 0.  1.
         13    1    1    2    0    0 -0.28802730987E+02  0.17093407431E+02 -0.15328543049E+02  0.36834186376E+02  0.10566000000E+00 0.  1.
        996    1    1    2    0    0  0.28802730987E+02 -0.17093407431E+02  0.79101779198E+02  0.99392521662E+02  0.50000000000E+02 0.  0.
<mgrwt>
<rscale>  0 0.60181242E+02</rscale>
<asrwt>0</asrwt>
<pdfrwt beam="1">  1       13 0.10000000E+01 0.60181242E+02</pdfrwt>
<pdfrwt beam="2">  1       22 0.36226726E+00 0.60181242E+02</pdfrwt>
<totfact> 0.14906040E-01</totfact>
</mgrwt>
</event>
<event>
 4    1  0.2451537E+000  0.5268208E+02  0.7957747E-01  0.1431390E+00
         13   -1    0    0    0    0  0.00000000000E+00  0.00000000000E+00  0.99999944183E+02  0.10000000000E+03  0.10566000000E+00 0.  1.
         22   -1    0    0    0    0 -0.00000000000E+00 -0.00000000000E+00 -0.12328410235E+02  0.12328410235E+02  0.00000000000E+00 0.  1.
         13    1    1    2    0    0 -0.10581392969E+02 -0.12784180667E+02  0.13730642783E+02  0.21539333039E+02  0.10566000000E+00 0. -1.
        996    1    1    2    0    0  0.10581392969E+02  0.12784180667E+02  0.73940891165E+02  0.90789077200E+02  0.50000000000E+02 0.  0.
<mgrwt>
<rscale>  0 0.52682076E+02</rscale>
<asrwt>0</asrwt>
<pdfrwt beam="1">  1       13 0.10000000E+01 0.52682076E+02</pdfrwt>
<pdfrwt beam="2">  1       22 0.12328435E+00 0.52682076E+02</pdfrwt>
<totfact> 0.10327360E+00</totfact>
</mgrwt>
</event>
<event>
 4    1  0.2451537E+000  0.5264074E+02  0.7957747E-01  0.1431597E+00
         13   -1    0    0    0    0  0.00000000000E+00  0.00000000000E+00  0.99999944171E+02  0.99999999991E+02  0.10566000000E+00 0.  1.
         22   -1    0    0    0    0 -0.00000000000E+00 -0.00000000000E+00 -0.12507245051E+02  0.12507245051E+02  0.00000000000E+00 0.  1.
         13    1    1    2    0    0  0.16349604114E+02  0.19334134629E+01  0.32193134875E+02  0.36158771265E+02  0.10566000000E+00 0. -1.
        996    1    1    2    0    0 -0.16349604114E+02 -0.19334134629E+01  0.55299564245E+02  0.76348473776E+02  0.50000000000E+02 0.  0.
<mgrwt>
<rscale>  0 0.52640741E+02</rscale>
<asrwt>0</asrwt>
<pdfrwt beam="1">  1       13 0.10000000E+01 0.52640741E+02</pdfrwt>
<pdfrwt beam="2">  1       22 0.12507269E+00 0.52640741E+02</pdfrwt>
<totfact> 0.10098390E+00</totfact>
</mgrwt>
</event>
<event>
 4    1  0.2451537E+000  0.5192820E+02  0.7957747E-01  0.1435210E+00
         13   -1    0    0    0    0  0.00000000000E+00  0.00000000000E+00  0.99999944179E+02  0.99999999999E+02  0.10566000000E+00 0. -1.
         22   -1    0    0    0    0 -0.00000000000E+00 -0.00000000000E+00 -0.17949621201E+02  0.17949621201E+02  0.00000000000E+00 0.  1.
         13    1    1    2    0    0 -0.66544644907E+01 -0.12339227928E+02 -0.63774728749E+01  0.15402005318E+02  0.10566000000E+00 0.  1.
        996    1    1    2    0    0  0.66544644907E+01  0.12339227928E+02  0.88427795853E+02  0.10254761588E+03  0.50000000000E+02 0.  0.
<mgrwt>
<rscale>  0 0.51928205E+02</rscale>
<asrwt>0</asrwt>
<pdfrwt beam="1">  1       13 0.10000000E+01 0.51928205E+02</pdfrwt>
<pdfrwt beam="2">  1       22 0.17949644E+00 0.51928205E+02</pdfrwt>
<totfact> 0.55209494E-01</totfact>
</mgrwt>
</event>
<event>
 4    1  0.2451537E+000  0.5296016E+02  0.7957747E-01  0.1429999E+00
         13   -1    0    0    0    0  0.00000000000E+00  0.00000000000E+00  0.99999944188E+02  0.10000000001E+03  0.10566000000E+00 0. -1.
         22   -1    0    0    0    0 -0.00000000000E+00 -0.00000000000E+00 -0.12397277255E+02  0.12397277255E+02  0.00000000000E+00 0. -1.
         13    1    1    2    0    0 -0.14919377434E+02 -0.90659321243E+01  0.21435826590E+02  0.27645700822E+02  0.10566000000E+00 0.  1.
        996    1    1    2    0    0  0.14919377434E+02  0.90659321243E+01  0.66166840343E+02  0.84751576441E+02  0.50000000000E+02 0.  0.
<mgrwt>
<rscale>  0 0.52960164E+02</rscale>
<asrwt>0</asrwt>
<pdfrwt beam="1">  1       13 0.10000000E+01 0.52960164E+02</pdfrwt>
<pdfrwt beam="2">  1       22 0.12397302E+00 0.52960164E+02</pdfrwt>
<totfact> 0.10244856E+00</totfact>
</mgrwt>
</event>
<event>
 4    1  0.2451537E+000  0.7212423E+02  0.7957747E-01  0.1353015E+00
         13   -1    0    0    0    0  0.00000000000E+00  0.00000000000E+00  0.99999944168E+02  0.99999999988E+02  0.10566000000E+00 0.  1.
         22   -1    0    0    0    0 -0.00000000000E+00 -0.00000000000E+00 -0.55773294560E+02  0.55773294560E+02  0.00000000000E+00 0. -1.
         13    1    1    2    0    0  0.80535450141E+01 -0.51352167288E+02 -0.23307791655E+02  0.56966384722E+02  0.10566000000E+00 0. -1.
        996    1    1    2    0    0 -0.80535450141E+01  0.51352167288E+02  0.67534441264E+02  0.98806909825E+02  0.50000000000E+02 0.  0.
<mgrwt>
<rscale>  0 0.72124231E+02</rscale>
<asrwt>0</asrwt>
<pdfrwt beam="1">  1       13 0.10000000E+01 0.72124231E+02</pdfrwt>
<pdfrwt beam="2">  1       22 0.55773307E+00 0.72124231E+02</pdfrwt>
<totfact> 0.58903889E-02</totfact>
</mgrwt>
</event>
<event>
 4    1  0.2451537E+000  0.5140817E+02  0.7957747E-01  0.1437891E+00
         13   -1    0    0    0    0  0.00000000000E+00  0.00000000000E+00  0.99999944181E+02  0.10000000000E+03  0.10566000000E+00 0.  1.
         22   -1    0    0    0    0 -0.00000000000E+00 -0.00000000000E+00 -0.10352097705E+02  0.10352097705E+02  0.00000000000E+00 0.  1.
         13    1    1    2    0    0  0.11156120988E+02  0.42826693081E+01  0.10142594412E+02  0.15674299900E+02  0.10566000000E+00 0. -1.
        996    1    1    2    0    0 -0.11156120988E+02 -0.42826693081E+01  0.79505252063E+02  0.94677797807E+02  0.50000000000E+02 0.  0.
<mgrwt>
<rscale>  0 0.51408173E+02</rscale>
<asrwt>0</asrwt>
<pdfrwt beam="1">  1       13 0.10000000E+01 0.51408173E+02</pdfrwt>
<pdfrwt beam="2">  1       22 0.10352123E+00 0.51408173E+02</pdfrwt>
<totfact> 0.13386513E+00</totfact>
</mgrwt>
</event>
<event>
 4    1  0.2451537E+000  0.5761790E+02  0.7957747E-01  0.1408109E+00
         13   -1    0    0    0    0  0.00000000000E+00  0.00000000000E+00  0.99999944171E+02  0.99999999991E+02  0.10566000000E+00 0. -1.
         22   -1    0    0    0    0 -0.00000000000E+00 -0.00000000000E+00 -0.21362144988E+02  0.21362144988E+02  0.00000000000E+00 0. -1.
         13    1    1    2    0    0 -0.68059273817E+01 -0.27811897886E+02  0.70879178234E+01  0.29496983823E+02  0.10566000000E+00 0.  1.
        996    1    1    2    0    0  0.68059273817E+01  0.27811897886E+02  0.71549881360E+02  0.91865161156E+02  0.50000000000E+02 0.  0.
<mgrwt>
<rscale>  0 0.57617899E+02</rscale>
<asrwt>0</asrwt>
<pdfrwt beam="1">  1       13 0.10000000E+01 0.57617899E+02</pdfrwt>
<pdfrwt beam="2">  1       22 0.21362167E+00 0.57617899E+02</pdfrwt>
<totfact> 0.40383038E-01</totfact>
</mgrwt>
</event>
<event>
 4    1  0.2451537E+000  0.5311394E+02  0.7957747E-01  0.1429235E+00
         13   -1    0    0    0    0  0.00000000000E+00  0.00000000000E+00  0.99999944179E+02  0.10000000000E+03  0.10566000000E+00 0.  1.
         22   -1    0    0    0    0 -0.00000000000E+00 -0.00000000000E+00 -0.12747416115E+02  0.12747416115E+02  0.00000000000E+00 0. -1.
         13    1    1    2    0    0  0.14229155971E+02  0.10891355900E+02  0.17223848070E+02  0.24854830906E+02  0.10566000000E+00 0. -1.
        996    1    1    2    0    0 -0.14229155971E+02 -0.10891355900E+02  0.70028679994E+02  0.87892585209E+02  0.50000000000E+02 0.  0.
<mgrwt>
<rscale>  0 0.53113939E+02</rscale>
<asrwt>0</asrwt>
<pdfrwt beam="1">  1       13 0.10000000E+01 0.53113939E+02</pdfrwt>
<pdfrwt beam="2">  1       22 0.12747440E+00 0.53113939E+02</pdfrwt>
<totfact> 0.98131583E-01</totfact>
</mgrwt>
</event>
<event>
 4    1  0.2451537E+000  0.5285233E+02  0.7957747E-01  0.1430537E+00
         13   -1    0    0    0    0  0.00000000000E+00  0.00000000000E+00  0.99999944168E+02  0.99999999989E+02  0.10566000000E+00 0.  1.
         22   -1    0    0    0    0 -0.00000000000E+00 -0.00000000000E+00 -0.41908460564E+02  0.41908460564E+02  0.00000000000E+00 0. -1.
         13    1    1    2    0    0 -0.16128864717E+02 -0.57643999544E+01 -0.32665447898E+02  0.36883752986E+02  0.10566000000E+00 0. -1.
        996    1    1    2    0    0  0.16128864717E+02  0.57643999544E+01  0.90756931502E+02  0.10502470757E+03  0.50000000000E+02 0.  0.
<mgrwt>
<rscale>  0 0.52852328E+02</rscale>
<asrwt>0</asrwt>
<pdfrwt beam="1">  1       13 0.10000000E+01 0.52852328E+02</pdfrwt>
<pdfrwt beam="2">  1       22 0.41908477E+00 0.52852328E+02</pdfrwt>
<totfact> 0.11292313E-01</totfact>
</mgrwt>
</event>
<event>
 4    1  0.2451537E+000  0.5165820E+02  0.7957747E-01  0.1436598E+00
         13   -1    0    0    0    0  0.00000000000E+00  0.00000000000E+00  0.99999944183E+02  0.10000000000E+03  0.10566000000E+00 0. -1.
         22   -1    0    0    0    0 -0.00000000000E+00 -0.00000000000E+00 -0.20301455596E+02  0.20301455596E+02  0.00000000000E+00 0. -1.
         13    1    1    2    0    0 -0.35643132711E+01 -0.12484601618E+02 -0.10271679671E+02  0.16555608535E+02  0.10566000000E+00 0.  1.
        996    1    1    2    0    0  0.35643132711E+01  0.12484601618E+02  0.89970168258E+02  0.10374584706E+03  0.50000000000E+02 0.  0.
<mgrwt>
<rscale>  0 0.51658200E+02</rscale>
<asrwt>0</asrwt>
<pdfrwt beam="1">  1       13 0.10000000E+01 0.51658200E+02</pdfrwt>
<pdfrwt beam="2">  1       22 0.20301478E+00 0.51658200E+02</pdfrwt>
<totfact> 0.44030792E-01</totfact>
</mgrwt>
</event>
<event>
 4    1  0.2451537E+000  0.5541726E+02  0.7957747E-01  0.1418136E+00
         13   -1    0    0    0    0  0.00000000000E+00  0.00000000000E+00  0.99999944178E+02  0.99999999998E+02  0.10566000000E+00 0. -1.
         22   -1    0    0    0    0 -0.00000000000E+00 -0.00000000000E+00 -0.30312006983E+02  0.30312006983E+02  0.00000000000E+00 0. -1.
         13    1    1    2    0    0 -0.10019848797E+02 -0.21695042966E+02 -0.15645219885E+02  0.28563198849E+02  0.10566000000E+00 0.  1.
        996    1    1    2    0    0  0.10019848797E+02  0.21695042966E+02  0.85333157080E+02  0.10174880813E+03  0.50000000000E+02 0.  0.
<mgrwt>
<rscale>  0 0.55417256E+02</rscale>
<asrwt>0</asrwt>
<pdfrwt beam="1">  1       13 0.10000000E+01 0.55417256E+02</pdfrwt>
<pdfrwt beam="2">  1       22 0.30312026E+00 0.55417256E+02</pdfrwt>
<totfact> 0.20395430E-01</totfact>
</mgrwt>
</event>
<event>
 4    1  0.2451537E+000  0.5146083E+02  0.7957747E-01  0.1437618E+00
         13   -1    0    0    0    0  0.00000000000E+00  0.00000000000E+00  0.99999944180E+02  0.10000000000E+03  0.10566000000E+00 0. -1.
         22   -1    0    0    0    0 -0.00000000000E+00 -0.00000000000E+00 -0.24258768906E+02  0.24258768906E+02  0.00000000000E+00 0.  1.
         13    1    1    2    0    0  0.35718578998E+01 -0.11638699905E+02 -0.15376823108E+02  0.19613142463E+02  0.10566000000E+00 0.  1.
        996    1    1    2    0    0 -0.35718578998E+01  0.11638699905E+02  0.91117998383E+02  0.10464562644E+03  0.50000000000E+02 0.  0.
<mgrwt>
<rscale>  0 0.51460835E+02</rscale>
<asrwt>0</asrwt>
<pdfrwt beam="1">  1       13 0.10000000E+01 0.51460835E+02</pdfrwt>
<pdfrwt beam="2">  1       22 0.24258790E+00 0.51460835E+02</pdfrwt>
<totfact> 0.31247935E-01</totfact>
</mgrwt>
</event>
<event>
 4    1  0.2451537E+000  0.5150805E+02  0.7957747E-01  0.1437373E+00
         13   -1    0    0    0    0  0.00000000000E+00  0.00000000000E+00  0.99999944181E+02  0.10000000000E+03  0.10566000000E+00 0. -1.
         22   -1    0    0    0    0 -0.00000000000E+00 -0.00000000000E+00 -0.10624388010E+02  0.10624388010E+02  0.00000000000E+00 0.  1.
         13    1    1    2    0    0 -0.12371477714E+02  0.16146095141E+00  0.95786070993E+01  0.15647377047E+02  0.10566000000E+00 0.  1.
        996    1    1    2    0    0  0.12371477714E+02 -0.16146095141E+00  0.79796949072E+02  0.94977010964E+02  0.50000000000E+02 0.  0.
<mgrwt>
<rscale>  0 0.51508053E+02</rscale>
<asrwt>0</asrwt>
<pdfrwt beam="1">  1       13 0.10000000E+01 0.51508053E+02</pdfrwt>
<pdfrwt beam="2">  1       22 0.10624413E+00 0.51508053E+02</pdfrwt>
<totfact> 0.12889254E+00</totfact>
</mgrwt>
</event>
<event>
 4    1  0.2451537E+000  0.5568556E+02  0.7957747E-01  0.1416884E+00
         13   -1    0    0    0    0  0.00000000000E+00  0.00000000000E+00  0.99999944169E+02  0.99999999989E+02  0.10566000000E+00 0. -1.
         22   -1    0    0    0    0 -0.00000000000E+00 -0.00000000000E+00 -0.19179527490E+02  0.19179527490E+02  0.00000000000E+00 0. -1.
         13    1    1    2    0    0 -0.96281888919E+01  0.22542834143E+02  0.48534497244E+01  0.24988968182E+02  0.10566000000E+00 0.  1.
        996    1    1    2    0    0  0.96281888919E+01 -0.22542834143E+02  0.75966966954E+02  0.94190559297E+02  0.50000000000E+02 0.  0.
<mgrwt>
<rscale>  0 0.55685558E+02</rscale>
<asrwt>0</asrwt>
<pdfrwt beam="1">  1       13 0.10000000E+01 0.55685558E+02</pdfrwt>
<pdfrwt beam="2">  1       22 0.19179550E+00 0.55685558E+02</pdfrwt>
<totfact> 0.49281285E-01</totfact>
</mgrwt>
</event>
<event>
 4    1  0.2451537E+000  0.5331276E+02  0.7957747E-01  0.1428251E+00
         13   -1    0    0    0    0  0.00000000000E+00  0.00000000000E+00  0.99999944180E+02  0.10000000000E+03  0.10566000000E+00 0. -1.
         22   -1    0    0    0    0 -0.00000000000E+00 -0.00000000000E+00 -0.16059221132E+02  0.16059221132E+02  0.00000000000E+00 0.  1.
         13    1    1    2    0    0  0.13296116990E+02 -0.12863275601E+02  0.24262895918E+01  0.18658741421E+02  0.10566000000E+00 0.  1.
        996    1    1    2    0    0 -0.13296116990E+02  0.12863275601E+02  0.81514433456E+02  0.97400479711E+02  0.50000000000E+02 0.  0.
<mgrwt>
<rscale>  0 0.53312762E+02</rscale>
<asrwt>0</asrwt>
<pdfrwt beam="1">  1       13 0.10000000E+01 0.53312762E+02</pdfrwt>
<pdfrwt beam="2">  1       22 0.16059245E+00 0.53312762E+02</pdfrwt>
<totfact> 0.67272131E-01</totfact>
</mgrwt>
</event>
<event>
 4    1  0.2451537E+000  0.5496227E+02  0.7957747E-01  0.1420277E+00
         13   -1    0    0    0    0  0.00000000000E+00  0.00000000000E+00  0.99999944190E+02  0.10000000001E+03  0.10566000000E+00 0.  1.
         22   -1    0    0    0    0 -0.00000000000E+00 -0.00000000000E+00 -0.21408908352E+02  0.21408908352E+02  0.00000000000E+00 0. -1.
         13    1    1    2    0    0 -0.17261512888E+02  0.14929550367E+02 -0.30141686594E+01  0.23020592479E+02  0.10566000000E+00 0. -1.
        996    1    1    2    0    0  0.17261512888E+02 -0.14929550367E+02  0.81605204497E+02  0.98388315884E+02  0.50000000000E+02 0.  0.
<mgrwt>
<rscale>  0 0.54962272E+02</rscale>
<asrwt>0</asrwt>
<pdfrwt beam="1">  1       13 0.10000000E+01 0.54962272E+02</pdfrwt>
<pdfrwt beam="2">  1       22 0.21408930E+00 0.54962272E+02</pdfrwt>
<totfact> 0.40045096E-01</totfact>
</mgrwt>
</event>
<event>
 4    1  0.2451537E+000  0.5161098E+02  0.7957747E-01  0.1436841E+00
         13   -1    0    0    0    0  0.00000000000E+00  0.00000000000E+00  0.99999944181E+02  0.10000000000E+03  0.10566000000E+00 0. -1.
         22   -1    0    0    0    0 -0.00000000000E+00 -0.00000000000E+00 -0.38399603682E+02  0.38399603682E+02  0.00000000000E+00 0.  1.
         13    1    1    2    0    0  0.28885492095E+01 -0.12463942933E+02 -0.30360209682E+02  0.32946123990E+02  0.10566000000E+00 0.  1.
        996    1    1    2    0    0 -0.28885492095E+01  0.12463942933E+02  0.91960550181E+02  0.10545347969E+03  0.50000000000E+02 0.  0.
<mgrwt>
<rscale>  0 0.51610983E+02</rscale>
<asrwt>0</asrwt>
<pdfrwt beam="1">  1       13 0.10000000E+01 0.51610983E+02</pdfrwt>
<pdfrwt beam="2">  1       22 0.38399621E+00 0.51610983E+02</pdfrwt>
<totfact> 0.13335484E-01</totfact>
</mgrwt>
</event>
<event>
 4    1  0.2451537E+000  0.5186653E+02  0.7957747E-01  0.1435526E+00
         13   -1    0    0    0    0  0.00000000000E+00  0.00000000000E+00  0.99999944179E+02  0.99999999999E+02  0.10566000000E+00 0. -1.
         22   -1    0    0    0    0 -0.00000000000E+00 -0.00000000000E+00 -0.19366175951E+02  0.19366175951E+02  0.00000000000E+00 0.  1.
         13    1    1    2    0    0  0.82233595129E+01 -0.11068582437E+02 -0.85298554579E+01  0.16214399681E+02  0.10566000000E+00 0.  1.
        996    1    1    2    0    0 -0.82233595129E+01  0.11068582437E+02  0.89163623685E+02  0.10315177627E+03  0.50000000000E+02 0.  0.
<mgrwt>
<rscale>  0 0.51866532E+02</rscale>
<asrwt>0</asrwt>
<pdfrwt beam="1">  1       13 0.10000000E+01 0.51866532E+02</pdfrwt>
<pdfrwt beam="2">  1       22 0.19366198E+00 0.51866532E+02</pdfrwt>
<totfact> 0.48084780E-01</totfact>
</mgrwt>
</event>
<event>
 4    1  0.2451537E+000  0.5396022E+02  0.7957747E-01  0.1425081E+00
         13   -1    0    0    0    0  0.00000000000E+00  0.00000000000E+00  0.99999944177E+02  0.99999999997E+02  0.10566000000E+00 0.  1.
         22   -1    0    0    0    0 -0.00000000000E+00 -0.00000000000E+00 -0.13798904585E+02  0.13798904585E+02  0.00000000000E+00 0. -1.
         13    1    1    2    0    0 -0.15602939049E+02 -0.12971244028E+02  0.25300653785E+02  0.32432069386E+02  0.10566000000E+00 0. -1.
        996    1    1    2    0    0  0.15602939049E+02  0.12971244028E+02  0.60900385806E+02  0.81366835197E+02  0.50000000000E+02 0.  0.
<mgrwt>
<rscale>  0 0.53960216E+02</rscale>
<asrwt>0</asrwt>
<pdfrwt beam="1">  1       13 0.10000000E+01 0.53960216E+02</pdfrwt>
<pdfrwt beam="2">  1       22 0.13798929E+00 0.53960216E+02</pdfrwt>
<totfact> 0.86673975E-01</totfact>
</mgrwt>
</event>
<event>
 4    1  0.2451537E+000  0.5259378E+02  0.7957747E-01  0.1431833E+00
         13   -1    0    0    0    0  0.00000000000E+00  0.00000000000E+00  0.99999944184E+02  0.10000000000E+03  0.10566000000E+00 0.  1.
         22   -1    0    0    0    0 -0.00000000000E+00 -0.00000000000E+00 -0.11893973620E+02  0.11893973620E+02  0.00000000000E+00 0.  1.
         13    1    1    2    0    0  0.29824689634E+00 -0.16310032769E+02  0.18784780658E+02  0.24879414554E+02  0.10566000000E+00 0. -1.
        996    1    1    2    0    0 -0.29824689634E+00  0.16310032769E+02  0.69321189906E+02  0.87014559070E+02  0.50000000000E+02 0.  0.
<mgrwt>
<rscale>  0 0.52593784E+02</rscale>
<asrwt>0</asrwt>
<pdfrwt beam="1">  1       13 0.10000000E+01 0.52593784E+02</pdfrwt>
<pdfrwt beam="2">  1       22 0.11893998E+00 0.52593784E+02</pdfrwt>
<totfact> 0.10910739E+00</totfact>
</mgrwt>
</event>
<event>
 4    1  0.2451537E+000  0.5885689E+02  0.7957747E-01  0.1402692E+00
         13   -1    0    0    0    0  0.00000000000E+00  0.00000000000E+00  0.99999944175E+02  0.99999999996E+02  0.10566000000E+00 0. -1.
         22   -1    0    0    0    0 -0.00000000000E+00 -0.00000000000E+00 -0.20208458486E+02  0.20208458486E+02  0.00000000000E+00 0.  1.
         13    1    1    2    0    0  0.19198454627E+02  0.24403940277E+02  0.27654929393E+02  0.41580515207E+02  0.10566000000E+00 0.  1.
        996    1    1    2    0    0 -0.19198454627E+02 -0.24403940277E+02  0.52136556297E+02  0.78627943274E+02  0.50000000000E+02 0.  0.
<mgrwt>
<rscale>  0 0.58856885E+02</rscale>
<asrwt>0</asrwt>
<pdfrwt beam="1">  1       13 0.10000000E+01 0.58856885E+02</pdfrwt>
<pdfrwt beam="2">  1       22 0.20208481E+00 0.58856885E+02</pdfrwt>
<totfact> 0.44949891E-01</totfact>
</mgrwt>
</event>
<event>
 4    1  0.2451537E+000  0.5611261E+02  0.7957747E-01  0.1414909E+00
         13   -1    0    0    0    0  0.00000000000E+00  0.00000000000E+00  0.99999944177E+02  0.99999999997E+02  0.10566000000E+00 0. -1.
         22   -1    0    0    0    0 -0.00000000000E+00 -0.00000000000E+00 -0.36339773165E+02  0.36339773165E+02  0.00000000000E+00 0.  1.
         13    1    1    2    0    0  0.13148343786E+02  0.21811595027E+02 -0.22189354444E+02  0.33778739417E+02  0.10566000000E+00 0.  1.
        996    1    1    2    0    0 -0.13148343786E+02 -0.21811595027E+02  0.85849525456E+02  0.10256103375E+03  0.50000000000E+02 0.  0.
<mgrwt>
<rscale>  0 0.56112607E+02</rscale>
<asrwt>0</asrwt>
<pdfrwt beam="1">  1       13 0.10000000E+01 0.56112607E+02</pdfrwt>
<pdfrwt beam="2">  1       22 0.36339791E+00 0.56112607E+02</pdfrwt>
<totfact> 0.14772314E-01</totfact>
</mgrwt>
</event>
<event>
 4    1  0.2451537E+000  0.5111727E+02  0.7957747E-01  0.1439407E+00
         13   -1    0    0    0    0  0.00000000000E+00  0.00000000000E+00  0.99999944181E+02  0.10000000000E+03  0.10566000000E+00 0. -1.
         22   -1    0    0    0    0 -0.00000000000E+00 -0.00000000000E+00 -0.17112381137E+02  0.17112381137E+02  0.00000000000E+00 0.  1.
         13    1    1    2    0    0 -0.32636929718E+01 -0.10115512355E+02 -0.76808884344E+01  0.13114209591E+02  0.10566000000E+00 0.  1.
        996    1    1    2    0    0  0.32636929718E+01  0.10115512355E+02  0.90568451479E+02  0.10399817155E+03  0.50000000000E+02 0.  0.
<mgrwt>
<rscale>  0 0.51117270E+02</rscale>
<asrwt>0</asrwt>
<pdfrwt beam="1">  1       13 0.10000000E+01 0.51117270E+02</pdfrwt>
<pdfrwt beam="2">  1       22 0.17112404E+00 0.51117270E+02</pdfrwt>
<totfact> 0.59996333E-01</totfact>
</mgrwt>
</event>
<event>
 4    1  0.2451537E+000  0.5221872E+02  0.7957747E-01  0.1433729E+00
         13   -1    0    0    0    0  0.00000000000E+00  0.00000000000E+00  0.99999944180E+02  0.10000000000E+03  0.10566000000E+00 0.  1.
         22   -1    0    0    0    0 -0.00000000000E+00 -0.00000000000E+00 -0.16259031464E+02  0.16259031464E+02  0.00000000000E+00 0.  1.
         13    1    1    2    0    0  0.13088603424E+02  0.74487311391E+01 -0.26705129390E+01  0.15295029865E+02  0.10566000000E+00 0. -1.
        996    1    1    2    0    0 -0.13088603424E+02 -0.74487311391E+01  0.86411425654E+02  0.10096400160E+03  0.50000000000E+02 0.  0.
<mgrwt>
<rscale>  0 0.52218724E+02</rscale>
<asrwt>0</asrwt>
<pdfrwt beam="1">  1       13 0.10000000E+01 0.52218724E+02</pdfrwt>
<pdfrwt beam="2">  1       22 0.16259055E+00 0.52218724E+02</pdfrwt>
<totfact> 0.65718486E-01</totfact>
</mgrwt>
</event>
<event>
 4    1  0.2451537E+000  0.5647231E+02  0.7957747E-01  0.1413262E+00
         13   -1    0    0    0    0  0.00000000000E+00  0.00000000000E+00  0.99999944174E+02  0.99999999994E+02  0.10566000000E+00 0. -1.
         22   -1    0    0    0    0 -0.00000000000E+00 -0.00000000000E+00 -0.35625836562E+02  0.35625836562E+02  0.00000000000E+00 0.  1.
         13    1    1    2    0    0 -0.93974191117E+01 -0.24511439625E+02 -0.20757552953E+02  0.33466540411E+02  0.10566000000E+00 0.  1.
        996    1    1    2    0    0  0.93974191117E+01  0.24511439625E+02  0.85131660564E+02  0.10215929615E+03  0.50000000000E+02 0.  0.
<mgrwt>
<rscale>  0 0.56472313E+02</rscale>
<asrwt>0</asrwt>
<pdfrwt beam="1">  1       13 0.10000000E+01 0.56472313E+02</pdfrwt>
<pdfrwt beam="2">  1       22 0.35625855E+00 0.56472313E+02</pdfrwt>
<totfact> 0.15301858E-01</totfact>
</mgrwt>
</event>
<event>
 4    1  0.2451537E+000  0.5117654E+02  0.7957747E-01  0.1439097E+00
         13   -1    0    0    0    0  0.00000000000E+00  0.00000000000E+00  0.99999944178E+02  0.99999999998E+02  0.10566000000E+00 0. -1.
         22   -1    0    0    0    0 -0.00000000000E+00 -0.00000000000E+00 -0.16737736174E+02  0.16737736174E+02  0.00000000000E+00 0.  1.
         13    1    1    2    0    0  0.88402865264E+01 -0.63943490727E+01 -0.70096015279E+01  0.12968579087E+02  0.10566000000E+00 0.  1.
        996    1    1    2    0    0 -0.88402865264E+01  0.63943490727E+01  0.90271809532E+02  0.10376915708E+03  0.50000000000E+02 0.  0.
<mgrwt>
<rscale>  0 0.51176541E+02</rscale>
<asrwt>0</asrwt>
<pdfrwt beam="1">  1       13 0.10000000E+01 0.51176541E+02</pdfrwt>
<pdfrwt beam="2">  1       22 0.16737759E+00 0.51176541E+02</pdfrwt>
<totfact> 0.62371063E-01</totfact>
</mgrwt>
</event>
<event>
 4    1  0.2451537E+000  0.6707600E+02  0.7957747E-01  0.1370328E+00
         13   -1    0    0    0    0  0.00000000000E+00  0.00000000000E+00  0.99999944178E+02  0.99999999998E+02  0.10566000000E+00 0.  1.
         22   -1    0    0    0    0 -0.00000000000E+00 -0.00000000000E+00 -0.56580146974E+02  0.56580146974E+02  0.00000000000E+00 0. -1.
         13    1    1    2    0    0  0.42135818523E+02  0.14958683680E+02 -0.32498150141E+02  0.55275042711E+02  0.10566000000E+00 0. -1.
        996    1    1    2    0    0 -0.42135818523E+02 -0.14958683680E+02  0.75917947346E+02  0.10130510426E+03  0.50000000000E+02 0.  0.
<mgrwt>
<rscale>  0 0.67075997E+02</rscale>
<asrwt>0</asrwt>
<pdfrwt beam="1">  1       13 0.10000000E+01 0.67075997E+02</pdfrwt>
<pdfrwt beam="2">  1       22 0.56580159E+00 0.67075997E+02</pdfrwt>
<totfact> 0.58193857E-02</totfact>
</mgrwt>
</event>
<event>
 4    1  0.2451537E+000  0.5977082E+02  0.7957747E-01  0.1398796E+00
         13   -1    0    0    0    0  0.00000000000E+00  0.00000000000E+00  0.99999944176E+02  0.99999999996E+02  0.10566000000E+00 0.  1.
         22   -1    0    0    0    0 -0.00000000000E+00 -0.00000000000E+00 -0.21745730862E+02  0.21745730862E+02  0.00000000000E+00 0.  1.
         13    1    1    2    0    0 -0.76867408739E+01 -0.31834969075E+02  0.20537740302E+02  0.38656968091E+02  0.10566000000E+00 0. -1.
        996    1    1    2    0    0  0.76867408739E+01  0.31834969075E+02  0.57716473011E+02  0.83088762767E+02  0.50000000000E+02 0.  0.
<mgrwt>
<rscale>  0 0.59770823E+02</rscale>
<asrwt>0</asrwt>
<pdfrwt beam="1">  1       13 0.10000000E+01 0.59770823E+02</pdfrwt>
<pdfrwt beam="2">  1       22 0.21745753E+00 0.59770823E+02</pdfrwt>
<totfact> 0.39155673E-01</totfact>
</mgrwt>
</event>
<event>
 4    1  0.2451537E+000  0.5711211E+02  0.7957747E-01  0.1410367E+00
         13   -1    0    0    0    0  0.00000000000E+00  0.00000000000E+00  0.99999944179E+02  0.10000000000E+03  0.10566000000E+00 0. -1.
         22   -1    0    0    0    0 -0.00000000000E+00 -0.00000000000E+00 -0.26456295411E+02  0.26456295411E+02  0.00000000000E+00 0.  1.
         13    1    1    2    0    0 -0.55713893734E+01  0.27032441209E+02 -0.62791466789E+01  0.28306043600E+02  0.10566000000E+00 0.  1.
        996    1    1    2    0    0  0.55713893734E+01 -0.27032441209E+02  0.79822795448E+02  0.98150251810E+02  0.50000000000E+02 0.  0.
<mgrwt>
<rscale>  0 0.57112111E+02</rscale>
<asrwt>0</asrwt>
<pdfrwt beam="1">  1       13 0.10000000E+01 0.57112111E+02</pdfrwt>
<pdfrwt beam="2">  1       22 0.26456316E+00 0.57112111E+02</pdfrwt>
<totfact> 0.26565830E-01</totfact>
</mgrwt>
</event>
<event>
 4    1  0.2451537E+000  0.5110236E+02  0.7957747E-01  0.1439485E+00
         13   -1    0    0    0    0  0.00000000000E+00  0.00000000000E+00  0.99999944181E+02  0.10000000000E+03  0.10566000000E+00 0. -1.
         22   -1    0    0    0    0 -0.00000000000E+00 -0.00000000000E+00 -0.10299729740E+02  0.10299729740E+02  0.00000000000E+00 0. -1.
         13    1    1    2    0    0  0.90153338910E+01  0.54932151076E+01  0.29511941826E+02  0.31343540511E+02  0.10566000000E+00 0.  1.
        996    1    1    2    0    0 -0.90153338910E+01 -0.54932151076E+01  0.60188272616E+02  0.78956189231E+02  0.50000000000E+02 0.  0.
<mgrwt>
<rscale>  0 0.51102364E+02</rscale>
<asrwt>0</asrwt>
<pdfrwt beam="1">  1       13 0.10000000E+01 0.51102364E+02</pdfrwt>
<pdfrwt beam="2">  1       22 0.10299755E+00 0.51102364E+02</pdfrwt>
<totfact> 0.13476136E+00</totfact>
</mgrwt>
</event>
<event>
 4    1  0.2451537E+000  0.5405202E+02  0.7957747E-01  0.1424636E+00
         13   -1    0    0    0    0  0.00000000000E+00  0.00000000000E+00  0.99999944188E+02  0.10000000001E+03  0.10566000000E+00 0.  1.
         22   -1    0    0    0    0 -0.00000000000E+00 -0.00000000000E+00 -0.22620601636E+02  0.22620601636E+02  0.00000000000E+00 0. -1.
         13    1    1    2    0    0 -0.23018062260E+01 -0.20403986733E+02 -0.76105527969E+01  0.21898690929E+02  0.10566000000E+00 0. -1.
        996    1    1    2    0    0  0.23018062260E+01  0.20403986733E+02  0.84989895350E+02  0.10072191072E+03  0.50000000000E+02 0.  0.
<mgrwt>
<rscale>  0 0.54052021E+02</rscale>
<asrwt>0</asrwt>
<pdfrwt beam="1">  1       13 0.10000000E+01 0.54052021E+02</pdfrwt>
<pdfrwt beam="2">  1       22 0.22620623E+00 0.54052021E+02</pdfrwt>
<totfact> 0.35965501E-01</totfact>
</mgrwt>
</event>
<event>
 4    1  0.2451537E+000  0.5717254E+02  0.7957747E-01  0.1410095E+00
         13   -1    0    0    0    0  0.00000000000E+00  0.00000000000E+00  0.99999944160E+02  0.99999999980E+02  0.10566000000E+00 0.  1.
         22   -1    0    0    0    0 -0.00000000000E+00 -0.00000000000E+00 -0.73810464970E+02  0.73810464970E+02  0.00000000000E+00 0. -1.
         13    1    1    2    0    0  0.40970787349E+01 -0.27421040798E+02 -0.62452424487E+02  0.68330198455E+02  0.10566000000E+00 0. -1.
        996    1    1    2    0    0 -0.40970787349E+01  0.27421040798E+02  0.88641903677E+02  0.10548026650E+03  0.50000000000E+02 0.  0.
<mgrwt>
<rscale>  0 0.57172542E+02</rscale>
<asrwt>0</asrwt>
<pdfrwt beam="1">  1       13 0.10000000E+01 0.57172542E+02</pdfrwt>
<pdfrwt beam="2">  1       22 0.73810472E+00 0.57172542E+02</pdfrwt>
<totfact> 0.54660368E-02</totfact>
</mgrwt>
</event>
<event>
 4    1  0.2451537E+000  0.5149675E+02  0.7957747E-01  0.1437432E+00
         13   -1    0    0    0    0  0.00000000000E+00  0.00000000000E+00  0.99999944174E+02  0.99999999994E+02  0.10566000000E+00 0.  1.
         22   -1    0    0    0    0 -0.00000000000E+00 -0.00000000000E+00 -0.17415718034E+02  0.17415718034E+02  0.00000000000E+00 0.  1.
         13    1    1    2    0    0  0.12175434479E+02  0.19166680326E+01 -0.69338533181E+01  0.14142287897E+02  0.10566000000E+00 0. -1.
        996    1    1    2    0    0 -0.12175434479E+02 -0.19166680326E+01  0.89518079458E+02  0.10327343013E+03  0.50000000000E+02 0.  0.
<mgrwt>
<rscale>  0 0.51496746E+02</rscale>
<asrwt>0</asrwt>
<pdfrwt beam="1">  1       13 0.10000000E+01 0.51496746E+02</pdfrwt>
<pdfrwt beam="2">  1       22 0.17415741E+00 0.51496746E+02</pdfrwt>
<totfact> 0.58209858E-01</totfact>
</mgrwt>
</event>
<event>
 4    1  0.2451537E+000  0.5199819E+02  0.7957747E-01  0.1434852E+00
         13   -1    0    0    0    0  0.00000000000E+00  0.00000000000E+00  0.99999944176E+02  0.99999999997E+02  0.10566000000E+00 0.  1.
         22   -1    0    0    0    0 -0.00000000000E+00 -0.00000000000E+00 -0.19015405087E+02  0.19015405087E+02  0.00000000000E+00 0. -1.
         13    1    1    2    0    0 -0.15754901822E+01  0.14189054791E+02 -0.76926632105E+01  0.16217264765E+02  0.10566000000E+00 0. -1.
        996    1    1    2    0    0  0.15754901822E+01 -0.14189054791E+02  0.88677202300E+02  0.10279814032E+03  0.50000000000E+02 0.  0.
<mgrwt>
<rscale>  0 0.51998187E+02</rscale>
<asrwt>0</asrwt>
<pdfrwt beam="1">  1       13 0.10000000E+01 0.51998187E+02</pdfrwt>
<pdfrwt beam="2">  1       22 0.19015428E+00 0.51998187E+02</pdfrwt>
<totfact> 0.49739310E-01</totfact>
</mgrwt>
</event>
<event>
 4    1  0.2451537E+000  0.7337904E+02  0.7957747E-01  0.1348965E+00
         13   -1    0    0    0    0  0.00000000000E+00  0.00000000000E+00  0.99999944175E+02  0.99999999995E+02  0.10566000000E+00 0. -1.
         22   -1    0    0    0    0 -0.00000000000E+00 -0.00000000000E+00 -0.64686599643E+02  0.64686599643E+02  0.00000000000E+00 0.  1.
         13    1    1    2    0    0 -0.35613855032E+02 -0.40201211920E+02 -0.34148844213E+02  0.63644629272E+02  0.10566000000E+00 0.  1.
        996    1    1    2    0    0  0.35613855032E+02  0.40201211920E+02  0.69462188745E+02  0.10104197037E+03  0.50000000000E+02 0.  0.
<mgrwt>
<rscale>  0 0.73379044E+02</rscale>
<asrwt>0</asrwt>
<pdfrwt beam="1">  1       13 0.10000000E+01 0.73379044E+02</pdfrwt>
<pdfrwt beam="2">  1       22 0.64686610E+00 0.73379044E+02</pdfrwt>
<totfact> 0.85650235E-02</totfact>
</mgrwt>
</event>
<event>
 4    1  0.2451537E+000  0.5450696E+02  0.7957747E-01  0.1422445E+00
         13   -1    0    0    0    0  0.00000000000E+00  0.00000000000E+00  0.99999944182E+02  0.10000000000E+03  0.10566000000E+00 0.  1.
         22   -1    0    0    0    0 -0.00000000000E+00 -0.00000000000E+00 -0.24996490131E+02  0.24996490131E+02  0.00000000000E+00 0. -1.
         13    1    1    2    0    0  0.18512772589E+02  0.11326353316E+02 -0.10096874770E+02  0.23936730615E+02  0.10566000000E+00 0. -1.
        996    1    1    2    0    0 -0.18512772589E+02 -0.11326353316E+02  0.85100328822E+02  0.10105975952E+03  0.50000000000E+02 0.  0.
<mgrwt>
<rscale>  0 0.54506963E+02</rscale>
<asrwt>0</asrwt>
<pdfrwt beam="1">  1       13 0.10000000E+01 0.54506963E+02</pdfrwt>
<pdfrwt beam="2">  1       22 0.24996511E+00 0.54506963E+02</pdfrwt>
<totfact> 0.29600867E-01</totfact>
</mgrwt>
</event>
<event>
 4    1  0.2451537E+000  0.5529054E+02  0.7957747E-01  0.1418730E+00
         13   -1    0    0    0    0  0.00000000000E+00  0.00000000000E+00  0.99999944184E+02  0.10000000000E+03  0.10566000000E+00 0.  1.
         22   -1    0    0    0    0 -0.00000000000E+00 -0.00000000000E+00 -0.15665885359E+02  0.15665885359E+02  0.00000000000E+00 0. -1.
         13    1    1    2    0    0  0.21795772079E+02 -0.90547048042E+01  0.20988493333E+02  0.31584353342E+02  0.10566000000E+00 0. -1.
        996    1    1    2    0    0 -0.21795772079E+02  0.90547048042E+01  0.63345565491E+02  0.84081532021E+02  0.50000000000E+02 0.  0.
<mgrwt>
<rscale>  0 0.55290536E+02</rscale>
<asrwt>0</asrwt>
<pdfrwt beam="1">  1       13 0.10000000E+01 0.55290536E+02</pdfrwt>
<pdfrwt beam="2">  1       22 0.15665909E+00 0.55290536E+02</pdfrwt>
<totfact> 0.70442963E-01</totfact>
</mgrwt>
</event>
<event>
 4    1  0.2451537E+000  0.5793080E+02  0.7957747E-01  0.1406726E+00
         13   -1    0    0    0    0  0.00000000000E+00  0.00000000000E+00  0.99999944175E+02  0.99999999995E+02  0.10566000000E+00 0. -1.
         22   -1    0    0    0    0 -0.00000000000E+00 -0.00000000000E+00 -0.23421347016E+02  0.23421347016E+02  0.00000000000E+00 0.  1.
         13    1    1    2    0    0  0.13330247831E+02  0.26043854741E+02  0.24759110687E+01  0.29361866028E+02  0.10566000000E+00 0.  1.
        996    1    1    2    0    0 -0.13330247831E+02 -0.26043854741E+02  0.74102686090E+02  0.94059480983E+02  0.50000000000E+02 0.  0.
<mgrwt>
<rscale>  0 0.57930802E+02</rscale>
<asrwt>0</asrwt>
<pdfrwt beam="1">  1       13 0.10000000E+01 0.57930802E+02</pdfrwt>
<pdfrwt beam="2">  1       22 0.23421368E+00 0.57930802E+02</pdfrwt>
<totfact> 0.33809683E-01</totfact>
</mgrwt>
</event>
<event>
 4    1  0.2451537E+000  0.6778365E+02  0.7957747E-01  0.1367796E+00
         13   -1    0    0    0    0  0.00000000000E+00  0.00000000000E+00  0.99999944175E+02  0.99999999995E+02  0.10566000000E+00 0. -1.
         22   -1    0    0    0    0 -0.00000000000E+00 -0.00000000000E+00 -0.52272015874E+02  0.52272015874E+02  0.00000000000E+00 0.  1.
         13    1    1    2    0    0  0.18160500511E+02 -0.42009749855E+02 -0.25578476199E+02  0.52429881465E+02  0.10566000000E+00 0.  1.
        996    1    1    2    0    0 -0.18160500511E+02  0.42009749855E+02  0.73306404500E+02  0.99842134404E+02  0.50000000000E+02 0.  0.
<mgrwt>
<rscale>  0 0.67783647E+02</rscale>
<asrwt>0</asrwt>
<pdfrwt beam="1">  1       13 0.10000000E+01 0.67783647E+02</pdfrwt>
<pdfrwt beam="2">  1       22 0.52272029E+00 0.67783647E+02</pdfrwt>
<totfact> 0.65769208E-02</totfact>
</mgrwt>
</event>
<event>
 4    1  0.2451537E+000  0.5164180E+02  0.7957747E-01  0.1436682E+00
         13   -1    0    0    0    0  0.00000000000E+00  0.00000000000E+00  0.99999944177E+02  0.99999999997E+02  0.10566000000E+00 0.  1.
         22   -1    0    0    0    0 -0.00000000000E+00 -0.00000000000E+00 -0.36998047810E+02  0.36998047810E+02  0.00000000000E+00 0. -1.
         13    1    1    2    0    0 -0.11097884332E+02 -0.66115245372E+01 -0.28857812861E+02  0.31617397434E+02  0.10566000000E+00 0. -1.
        996    1    1    2    0    0  0.11097884332E+02  0.66115245372E+01  0.91859709229E+02  0.10538065037E+03  0.50000000000E+02 0.  0.
<mgrwt>
<rscale>  0 0.51641798E+02</rscale>
<asrwt>0</asrwt>
<pdfrwt beam="1">  1       13 0.10000000E+01 0.51641798E+02</pdfrwt>
<pdfrwt beam="2">  1       22 0.36998065E+00 0.51641798E+02</pdfrwt>
<totfact> 0.14253129E-01</totfact>
</mgrwt>
</event>
<event>
 4    1  0.2451537E+000  0.5523160E+02  0.7957747E-01  0.1419007E+00
         13   -1    0    0    0    0  0.00000000000E+00  0.00000000000E+00  0.99999944175E+02  0.99999999995E+02  0.10566000000E+00 0. -1.
         22   -1    0    0    0    0 -0.00000000000E+00 -0.00000000000E+00 -0.21710630144E+02  0.21710630144E+02  0.00000000000E+00 0.  1.
         13    1    1    2    0    0  0.15184856763E+02  0.17887152105E+02 -0.27664512022E+01  0.23626140219E+02  0.10566000000E+00 0.  1.
        996    1    1    2    0    0 -0.15184856763E+02 -0.17887152105E+02  0.81055765233E+02  0.98084489920E+02  0.50000000000E+02 0.  0.
<mgrwt>
<rscale>  0 0.55231604E+02</rscale>
<asrwt>0</asrwt>
<pdfrwt beam="1">  1       13 0.10000000E+01 0.55231604E+02</pdfrwt>
<pdfrwt beam="2">  1       22 0.21710652E+00 0.55231604E+02</pdfrwt>
<totfact> 0.39003483E-01</totfact>
</mgrwt>
</event>
<event>
 4    1  0.2451537E+000  0.5139480E+02  0.7957747E-01  0.1437960E+00
         13   -1    0    0    0    0  0.00000000000E+00  0.00000000000E+00  0.99999944181E+02  0.10000000000E+03  0.10566000000E+00 0. -1.
         22   -1    0    0    0    0 -0.00000000000E+00 -0.00000000000E+00 -0.10055282245E+02  0.10055282245E+02  0.00000000000E+00 0. -1.
         13    1    1    2    0    0  0.90133789898E+01 -0.77578685111E+01  0.19802709135E+02  0.23099436741E+02  0.10566000000E+00 0.  1.
        996    1    1    2    0    0 -0.90133789898E+01  0.77578685111E+01  0.70141952801E+02  0.86955845505E+02  0.50000000000E+02 0.  0.
<mgrwt>
<rscale>  0 0.51394801E+02</rscale>
<asrwt>0</asrwt>
<pdfrwt beam="1">  1       13 0.10000000E+01 0.51394801E+02</pdfrwt>
<pdfrwt beam="2">  1       22 0.10055307E+00 0.51394801E+02</pdfrwt>
<totfact> 0.13965247E+00</totfact>
</mgrwt>
</event>
<event>
 4    1  0.2451537E+000  0.5156153E+02  0.7957747E-01  0.1437097E+00
         13   -1    0    0    0    0  0.00000000000E+00  0.00000000000E+00  0.99999944176E+02  0.99999999996E+02  0.10566000000E+00 0. -1.
         22   -1    0    0    0    0 -0.00000000000E+00 -0.00000000000E+00 -0.12900944392E+02  0.12900944392E+02  0.00000000000E+00 0. -1.
         13    1    1    2    0    0 -0.10808465426E+02  0.64628609908E+01  0.11162171183E+01  0.12643124683E+02  0.10566000000E+00 0.  1.
        996    1    1    2    0    0  0.10808465426E+02 -0.64628609908E+01  0.85982782665E+02  0.10025781970E+03  0.50000000000E+02 0.  0.
<mgrwt>
<rscale>  0 0.51561531E+02</rscale>
<asrwt>0</asrwt>
<pdfrwt beam="1">  1       13 0.10000000E+01 0.51561531E+02</pdfrwt>
<pdfrwt beam="2">  1       22 0.12900969E+00 0.51561531E+02</pdfrwt>
<totfact> 0.95983839E-01</totfact>
</mgrwt>
</event>
<event>
 4    1  0.2451537E+000  0.5200442E+02  0.7957747E-01  0.1434821E+00
         13   -1    0    0    0    0  0.00000000000E+00  0.00000000000E+00  0.99999944166E+02  0.99999999986E+02  0.10566000000E+00 0.  1.
         22   -1    0    0    0    0 -0.00000000000E+00 -0.00000000000E+00 -0.71813419936E+02  0.71813419936E+02  0.00000000000E+00 0. -1.
         13    1    1    2    0    0 -0.13643651416E+02 -0.42790724837E+01 -0.64212260670E+02  0.65785144749E+02  0.10566000000E+00 0. -1.
        996    1    1    2    0    0  0.13643651416E+02  0.42790724837E+01  0.92398784900E+02  0.10602827517E+03  0.50000000000E+02 0.  0.
<mgrwt>
<rscale>  0 0.52004420E+02</rscale>
<asrwt>0</asrwt>
<pdfrwt beam="1">  1       13 0.10000000E+01 0.52004420E+02</pdfrwt>
<pdfrwt beam="2">  1       22 0.71813428E+00 0.52004420E+02</pdfrwt>
<totfact> 0.65052255E-02</totfact>
</mgrwt>
</event>
<event>
 4    1  0.2451537E+000  0.5242314E+02  0.7957747E-01  0.1432693E+00
         13   -1    0    0    0    0  0.00000000000E+00  0.00000000000E+00  0.99999944182E+02  0.10000000000E+03  0.10566000000E+00 0.  1.
         22   -1    0    0    0    0 -0.00000000000E+00 -0.00000000000E+00 -0.14689711865E+02  0.14689711865E+02  0.00000000000E+00 0. -1.
         13    1    1    2    0    0 -0.34489737696E+01 -0.15371735316E+02  0.14879884548E+01  0.15824378040E+02  0.10566000000E+00 0. -1.
        996    1    1    2    0    0  0.34489737696E+01  0.15371735316E+02  0.83822243862E+02  0.98865333827E+02  0.50000000000E+02 0.  0.
<mgrwt>
<rscale>  0 0.52423141E+02</rscale>
<asrwt>0</asrwt>
<pdfrwt beam="1">  1       13 0.10000000E+01 0.52423141E+02</pdfrwt>
<pdfrwt beam="2">  1       22 0.14689736E+00 0.52423141E+02</pdfrwt>
<totfact> 0.78015613E-01</totfact>
</mgrwt>
</event>
<event>
 4    1  0.2451537E+000  0.5187780E+02  0.7957747E-01  0.1435469E+00
         13   -1    0    0    0    0  0.00000000000E+00  0.00000000000E+00  0.99999944172E+02  0.99999999992E+02  0.10566000000E+00 0.  1.
         22   -1    0    0    0    0 -0.00000000000E+00 -0.00000000000E+00 -0.17876915910E+02  0.17876915910E+02  0.00000000000E+00 0. -1.
         13    1    1    2    0    0 -0.74829640159E+00 -0.13811087091E+02 -0.64249488295E+01  0.15251137848E+02  0.10566000000E+00 0. -1.
        996    1    1    2    0    0  0.74829640159E+00  0.13811087091E+02  0.88547977092E+02  0.10262577805E+03  0.50000000000E+02 0.  0.
<mgrwt>
<rscale>  0 0.51877799E+02</rscale>
<asrwt>0</asrwt>
<pdfrwt beam="1">  1       13 0.10000000E+01 0.51877799E+02</pdfrwt>
<pdfrwt beam="2">  1       22 0.17876939E+00 0.51877799E+02</pdfrwt>
<totfact> 0.55606597E-01</totfact>
</mgrwt>
</event>
<event>
 4    1  0.2451537E+000  0.5223098E+02  0.7957747E-01  0.1433667E+00
         13   -1    0    0    0    0  0.00000000000E+00  0.00000000000E+00  0.99999944178E+02  0.99999999999E+02  0.10566000000E+00 0.  1.
         22   -1    0    0    0    0 -0.00000000000E+00 -0.00000000000E+00 -0.11423586109E+02  0.11423586109E+02  0.00000000000E+00 0.  1.
         13    1    1    2    0    0 -0.24374795120E+01  0.14904159605E+02  0.24169421442E+02  0.28499953978E+02  0.10566000000E+00 0. -1.
        996    1    1    2    0    0  0.24374795120E+01 -0.14904159605E+02  0.64406936627E+02  0.82923632130E+02  0.50000000000E+02 0.  0.
<mgrwt>
<rscale>  0 0.52230980E+02</rscale>
<asrwt>0</asrwt>
<pdfrwt beam="1">  1       13 0.10000000E+01 0.52230980E+02</pdfrwt>
<pdfrwt beam="2">  1       22 0.11423611E+00 0.52230980E+02</pdfrwt>
<totfact> 0.11589458E+00</totfact>
</mgrwt>
</event>
<event>
 4    1  0.2451537E+000  0.7220760E+02  0.7957747E-01  0.1352743E+00
         13   -1    0    0    0    0  0.00000000000E+00  0.00000000000E+00  0.99999944174E+02  0.99999999995E+02  0.10566000000E+00 0.  1.
         22   -1    0    0    0    0 -0.00000000000E+00 -0.00000000000E+00 -0.44415361043E+02  0.44415361043E+02  0.00000000000E+00 0. -1.
         13    1    1    2    0    0  0.22269529202E+02  0.47095712893E+02 -0.18846520401E+01  0.52129657404E+02  0.10566000000E+00 0. -1.
        996    1    1    2    0    0 -0.22269529202E+02 -0.47095712893E+02  0.57469235172E+02  0.92285703633E+02  0.50000000000E+02 0.  0.
<mgrwt>
<rscale>  0 0.72207604E+02</rscale>
<asrwt>0</asrwt>
<pdfrwt beam="1">  1       13 0.10000000E+01 0.72207604E+02</pdfrwt>
<pdfrwt beam="2">  1       22 0.44415377E+00 0.72207604E+02</pdfrwt>
<totfact> 0.10062545E-01</totfact>
</mgrwt>
</event>
<event>
 4    1  0.2451537E+000  0.5164344E+02  0.7957747E-01  0.1436674E+00
         13   -1    0    0    0    0  0.00000000000E+00  0.00000000000E+00  0.99999944175E+02  0.99999999996E+02  0.10566000000E+00 0. -1.
         22   -1    0    0    0    0 -0.00000000000E+00 -0.00000000000E+00 -0.13324441431E+02  0.13324441431E+02  0.00000000000E+00 0. -1.
         13    1    1    2    0    0  0.11714036090E+01 -0.12871401943E+02  0.59257098622E+00  0.12938604206E+02  0.10566000000E+00 0.  1.
        996    1    1    2    0    0 -0.11714036090E+01  0.12871401943E+02  0.86082931758E+02  0.10038583722E+03  0.50000000000E+02 0.  0.
<mgrwt>
<rscale>  0 0.51643443E+02</rscale>
<asrwt>0</asrwt>
<pdfrwt beam="1">  1       13 0.10000000E+01 0.51643443E+02</pdfrwt>
<pdfrwt beam="2">  1       22 0.13324466E+00 0.51643443E+02</pdfrwt>
<totfact> 0.91224423E-01</totfact>
</mgrwt>
</event>
<event>
 4    1  0.2451537E+000  0.5272142E+02  0.7957747E-01  0.1431192E+00
         13   -1    0    0    0    0  0.00000000000E+00  0.00000000000E+00  0.99999944173E+02  0.99999999994E+02  0.10566000000E+00 0.  1.
         22   -1    0    0    0    0 -0.00000000000E+00 -0.00000000000E+00 -0.12063769449E+02  0.12063769449E+02  0.00000000000E+00 0.  1.
         13    1    1    2    0    0 -0.20848087277E+01  0.16589208175E+02  0.22461671642E+02  0.28001537677E+02  0.10566000000E+00 0. -1.
        996    1    1    2    0    0  0.20848087277E+01 -0.16589208175E+02  0.65474503083E+02  0.84062231765E+02  0.50000000000E+02 0.  0.
<mgrwt>
<rscale>  0 0.52721421E+02</rscale>
<asrwt>0</asrwt>
<pdfrwt beam="1">  1       13 0.10000000E+01 0.52721421E+02</pdfrwt>
<pdfrwt beam="2">  1       22 0.12063794E+00 0.52721421E+02</pdfrwt>
<totfact> 0.10679443E+00</totfact>
</mgrwt>
</event>
<event>
 4    1  0.2451537E+000  0.5659379E+02  0.7957747E-01  0.1412709E+00
         13   -1    0    0    0    0  0.00000000000E+00  0.00000000000E+00  0.99999944173E+02  0.99999999993E+02  0.10566000000E+00 0. -1.
         22   -1    0    0    0    0 -0.00000000000E+00 -0.00000000000E+00 -0.17306686991E+02  0.17306686991E+02  0.00000000000E+00 0. -1.
         13    1    1    2    0    0  0.23873884529E+02  0.11528008328E+02  0.29057801204E+02  0.39334772319E+02  0.10566000000E+00 0.  1.
        996    1    1    2    0    0 -0.23873884529E+02 -0.11528008328E+02  0.53635455978E+02  0.77971914665E+02  0.50000000000E+02 0.  0.
<mgrwt>
<rscale>  0 0.56593792E+02</rscale>
<asrwt>0</asrwt>
<pdfrwt beam="1">  1       13 0.10000000E+01 0.56593792E+02</pdfrwt>
<pdfrwt beam="2">  1       22 0.17306710E+00 0.56593792E+02</pdfrwt>
<totfact> 0.59415392E-01</totfact>
</mgrwt>
</event>
<event>
 4    1  0.2451537E+000  0.5196406E+02  0.7957747E-01  0.1435027E+00
         13   -1    0    0    0    0  0.00000000000E+00  0.00000000000E+00  0.99999944182E+02  0.10000000000E+03  0.10566000000E+00 0.  1.
         22   -1    0    0    0    0 -0.00000000000E+00 -0.00000000000E+00 -0.21395410199E+02  0.21395410199E+02  0.00000000000E+00 0. -1.
         13    1    1    2    0    0 -0.13847491561E+02  0.29173492876E+01 -0.10925023993E+02  0.17878234328E+02  0.10566000000E+00 0. -1.
        996    1    1    2    0    0  0.13847491561E+02 -0.29173492876E+01  0.89529557976E+02  0.10351717587E+03  0.50000000000E+02 0.  0.
<mgrwt>
<rscale>  0 0.51964064E+02</rscale>
<asrwt>0</asrwt>
<pdfrwt beam="1">  1       13 0.10000000E+01 0.51964064E+02</pdfrwt>
<pdfrwt beam="2">  1       22 0.21395432E+00 0.51964064E+02</pdfrwt>
<totfact> 0.39891606E-01</totfact>
</mgrwt>
</event>
<event>
 4    1  0.2451537E+000  0.5303820E+02  0.7957747E-01  0.1429611E+00
         13   -1    0    0    0    0  0.00000000000E+00  0.00000000000E+00  0.99999944172E+02  0.99999999992E+02  0.10566000000E+00 0.  1.
         22   -1    0    0    0    0 -0.00000000000E+00 -0.00000000000E+00 -0.35012580832E+02  0.35012580832E+02  0.00000000000E+00 0. -1.
         13    1    1    2    0    0 -0.73052346680E-01 -0.17693072967E+02 -0.24958351092E+02  0.30593800367E+02  0.10566000000E+00 0. -1.
        996    1    1    2    0    0  0.73052346680E-01  0.17693072967E+02  0.89945714432E+02  0.10441878046E+03  0.50000000000E+02 0.  0.
<mgrwt>
<rscale>  0 0.53038195E+02</rscale>
<asrwt>0</asrwt>
<pdfrwt beam="1">  1       13 0.10000000E+01 0.53038195E+02</pdfrwt>
<pdfrwt beam="2">  1       22 0.35012599E+00 0.53038195E+02</pdfrwt>
<totfact> 0.15721248E-01</totfact>
</mgrwt>
</event>
<event>
 4    1  0.2451537E+000  0.5120689E+02  0.7957747E-01  0.1438939E+00
         13   -1    0    0    0    0  0.00000000000E+00  0.00000000000E+00  0.99999944176E+02  0.99999999996E+02  0.10566000000E+00 0.  1.
         22   -1    0    0    0    0 -0.00000000000E+00 -0.00000000000E+00 -0.10551968374E+02  0.10551968374E+02  0.00000000000E+00 0.  1.
         13    1    1    2    0    0 -0.82250756304E+01  0.73819914943E+01  0.30649519968E+02  0.32581434988E+02  0.10566000000E+00 0. -1.
        996    1    1    2    0    0  0.82250756304E+01 -0.73819914943E+01  0.58798455833E+02  0.77970533382E+02  0.50000000000E+02 0.  0.
<mgrwt>
<rscale>  0 0.51206891E+02</rscale>
<asrwt>0</asrwt>
<pdfrwt beam="1">  1       13 0.10000000E+01 0.51206891E+02</pdfrwt>
<pdfrwt beam="2">  1       22 0.10551993E+00 0.51206891E+02</pdfrwt>
<totfact> 0.13010280E+00</totfact>
</mgrwt>
</event>
<event>
 4    1  0.2451537E+000  0.6855563E+02  0.7957747E-01  0.1365075E+00
         13   -1    0    0    0    0  0.00000000000E+00  0.00000000000E+00  0.99999944176E+02  0.99999999996E+02  0.10566000000E+00 0. -1.
         22   -1    0    0    0    0 -0.00000000000E+00 -0.00000000000E+00 -0.52664520001E+02  0.52664520001E+02  0.00000000000E+00 0.  1.
         13    1    1    2    0    0 -0.53833096393E+01  0.46592863387E+02 -0.24877819816E+02  0.53092297220E+02  0.10566000000E+00 0.  1.
        996    1    1    2    0    0  0.53833096393E+01 -0.46592863387E+02  0.72213243991E+02  0.99572222778E+02  0.50000000000E+02 0.  0.
<mgrwt>
<rscale>  0 0.68555634E+02</rscale>
<asrwt>0</asrwt>
<pdfrwt beam="1">  1       13 0.10000000E+01 0.68555634E+02</pdfrwt>
<pdfrwt beam="2">  1       22 0.52664533E+00 0.68555634E+02</pdfrwt>
<totfact> 0.64506454E-02</totfact>
</mgrwt>
</event>
<event>
 4    1  0.2451537E+000  0.5340163E+02  0.7957747E-01  0.1427812E+00
         13   -1    0    0    0    0  0.00000000000E+00  0.00000000000E+00  0.99999944179E+02  0.99999999999E+02  0.10566000000E+00 0. -1.
         22   -1    0    0    0    0 -0.00000000000E+00 -0.00000000000E+00 -0.13189258719E+02  0.13189258719E+02  0.00000000000E+00 0. -1.
         13    1    1    2    0    0  0.16457287078E+02 -0.89939629756E+01  0.17142080541E+02  0.25408576451E+02  0.10566000000E+00 0.  1.
        996    1    1    2    0    0 -0.16457287078E+02  0.89939629756E+01  0.69668604919E+02  0.87780682268E+02  0.50000000000E+02 0.  0.
<mgrwt>
<rscale>  0 0.53401626E+02</rscale>
<asrwt>0</asrwt>
<pdfrwt beam="1">  1       13 0.10000000E+01 0.53401626E+02</pdfrwt>
<pdfrwt beam="2">  1       22 0.13189283E+00 0.53401626E+02</pdfrwt>
<totfact> 0.93060160E-01</totfact>
</mgrwt>
</event>
<event>
 4    1  0.2451537E+000  0.5437761E+02  0.7957747E-01  0.1423065E+00
         13   -1    0    0    0    0  0.00000000000E+00  0.00000000000E+00  0.99999944177E+02  0.99999999997E+02  0.10566000000E+00 0. -1.
         22   -1    0    0    0    0 -0.00000000000E+00 -0.00000000000E+00 -0.14464552132E+02  0.14464552132E+02  0.00000000000E+00 0. -1.
         13    1    1    2    0    0 -0.10975405858E+02 -0.18342979859E+02  0.19630229517E+02  0.29022086740E+02  0.10566000000E+00 0.  1.
        996    1    1    2    0    0  0.10975405858E+02  0.18342979859E+02  0.65905162528E+02  0.85442465389E+02  0.50000000000E+02 0.  0.
<mgrwt>
<rscale>  0 0.54377610E+02</rscale>
<asrwt>0</asrwt>
<pdfrwt beam="1">  1       13 0.10000000E+01 0.54377610E+02</pdfrwt>
<pdfrwt beam="2">  1       22 0.14464576E+00 0.54377610E+02</pdfrwt>
<totfact> 0.80341245E-01</totfact>
</mgrwt>
</event>
<event>
 4    1  0.2451537E+000  0.5210674E+02  0.7957747E-01  0.1434299E+00
         13   -1    0    0    0    0  0.00000000000E+00  0.00000000000E+00  0.99999944175E+02  0.99999999995E+02  0.10566000000E+00 0.  1.
         22   -1    0    0    0    0 -0.00000000000E+00 -0.00000000000E+00 -0.12723064270E+02  0.12723064270E+02  0.00000000000E+00 0. -1.
         13    1    1    2    0    0 -0.61197106766E+01  0.13328976427E+02  0.53155389941E+01  0.15600595828E+02  0.10566000000E+00 0. -1.
        996    1    1    2    0    0  0.61197106766E+01 -0.13328976427E+02  0.81961340911E+02  0.97122468437E+02  0.50000000000E+02 0.  0.
<mgrwt>
<rscale>  0 0.52106741E+02</rscale>
<asrwt>0</asrwt>
<pdfrwt beam="1">  1       13 0.10000000E+01 0.52106741E+02</pdfrwt>
<pdfrwt beam="2">  1       22 0.12723089E+00 0.52106741E+02</pdfrwt>
<totfact> 0.98212052E-01</totfact>
</mgrwt>
</event>
<event>
 4    1  0.2451537E+000  0.5141736E+02  0.7957747E-01  0.1437843E+00
         13   -1    0    0    0    0  0.00000000000E+00  0.00000000000E+00  0.99999944177E+02  0.99999999997E+02  0.10566000000E+00 0. -1.
         22   -1    0    0    0    0 -0.00000000000E+00 -0.00000000000E+00 -0.13284718313E+02  0.13284718313E+02  0.00000000000E+00 0. -1.
         13    1    1    2    0    0 -0.80451085963E+01 -0.88893893673E+01 -0.54528906603E+00  0.12002229787E+02  0.10566000000E+00 0.  1.
        996    1    1    2    0    0  0.80451085963E+01  0.88893893673E+01  0.87260514930E+02  0.10128248852E+03  0.50000000000E+02 0.  0.
<mgrwt>
<rscale>  0 0.51417361E+02</rscale>
<asrwt>0</asrwt>
<pdfrwt beam="1">  1       13 0.10000000E+01 0.51417361E+02</pdfrwt>
<pdfrwt beam="2">  1       22 0.13284743E+00 0.51417361E+02</pdfrwt>
<totfact> 0.91613249E-01</totfact>
</mgrwt>
</event>
<event>
 4    1  0.2451537E+000  0.5156765E+02  0.7957747E-01  0.1437065E+00
         13   -1    0    0    0    0  0.00000000000E+00  0.00000000000E+00  0.99999944183E+02  0.10000000000E+03  0.10566000000E+00 0.  1.
         22   -1    0    0    0    0 -0.00000000000E+00 -0.00000000000E+00 -0.13344346749E+02  0.13344346749E+02  0.00000000000E+00 0.  1.
         13    1    1    2    0    0 -0.10378013536E+02 -0.71776844854E+01  0.13231306078E+00  0.12619468701E+02  0.10566000000E+00 0. -1.
        996    1    1    2    0    0  0.10378013536E+02  0.71776844854E+01  0.86523284373E+02  0.10072487805E+03  0.50000000000E+02 0.  0.
<mgrwt>
<rscale>  0 0.51567648E+02</rscale>
<asrwt>0</asrwt>
<pdfrwt beam="1">  1       13 0.10000000E+01 0.51567648E+02</pdfrwt>
<pdfrwt beam="2">  1       22 0.13344371E+00 0.51567648E+02</pdfrwt>
<totfact> 0.90993273E-01</totfact>
</mgrwt>
</event>
<event>
 4    1  0.2451537E+000  0.5405306E+02  0.7957747E-01  0.1424631E+00
         13   -1    0    0    0    0  0.00000000000E+00  0.00000000000E+00  0.99999944177E+02  0.99999999997E+02  0.10566000000E+00 0. -1.
         22   -1    0    0    0    0 -0.00000000000E+00 -0.00000000000E+00 -0.14053007325E+02  0.14053007325E+02  0.00000000000E+00 0.  1.
         13    1    1    2    0    0  0.19914231284E+02  0.50156789431E+01  0.18696751394E+02  0.27772528145E+02  0.10566000000E+00 0.  1.
        996    1    1    2    0    0 -0.19914231284E+02 -0.50156789431E+01  0.67250185458E+02  0.86280479177E+02  0.50000000000E+02 0.  0.
<mgrwt>
<rscale>  0 0.54053063E+02</rscale>
<asrwt>0</asrwt>
<pdfrwt beam="1">  1       13 0.10000000E+01 0.54053063E+02</pdfrwt>
<pdfrwt beam="2">  1       22 0.14053031E+00 0.54053063E+02</pdfrwt>
<totfact> 0.84166710E-01</totfact>
</mgrwt>
</event>
<event>
 4    1  0.2451537E+000  0.5199360E+02  0.7957747E-01  0.1434876E+00
         13   -1    0    0    0    0  0.00000000000E+00  0.00000000000E+00  0.99999944183E+02  0.10000000000E+03  0.10566000000E+00 0.  1.
         22   -1    0    0    0    0 -0.00000000000E+00 -0.00000000000E+00 -0.12936479213E+02  0.12936479213E+02  0.00000000000E+00 0.  1.
         13    1    1    2    0    0 -0.92476239917E+01 -0.10854305444E+02  0.41226257384E+02  0.43622814651E+02  0.10566000000E+00 0. -1.
        996    1    1    2    0    0  0.92476239917E+01  0.10854305444E+02  0.45837207586E+02  0.69313664565E+02  0.50000000000E+02 0.  0.
<mgrwt>
<rscale>  0 0.51993601E+02</rscale>
<asrwt>0</asrwt>
<pdfrwt beam="1">  1       13 0.10000000E+01 0.51993601E+02</pdfrwt>
<pdfrwt beam="2">  1       22 0.12936504E+00 0.51993601E+02</pdfrwt>
<totfact> 0.95659860E-01</totfact>
</mgrwt>
</event>
<event>
 4    1  0.2451537E+000  0.5111798E+02  0.7957747E-01  0.1439403E+00
         13   -1    0    0    0    0  0.00000000000E+00  0.00000000000E+00  0.99999944182E+02  0.10000000000E+03  0.10566000000E+00 0. -1.
         22   -1    0    0    0    0 -0.00000000000E+00 -0.00000000000E+00 -0.11449661931E+02  0.11449661931E+02  0.00000000000E+00 0. -1.
         13    1    1    2    0    0  0.71578892030E+00 -0.10608267830E+02  0.18367164725E+01  0.10790384218E+02  0.10566000000E+00 0.  1.
        996    1    1    2    0    0 -0.71578892030E+00  0.10608267830E+02  0.86713565779E+02  0.10065927772E+03  0.50000000000E+02 0.  0.
<mgrwt>
<rscale>  0 0.51117978E+02</rscale>
<asrwt>0</asrwt>
<pdfrwt beam="1">  1       13 0.10000000E+01 0.51117978E+02</pdfrwt>
<pdfrwt beam="2">  1       22 0.11449687E+00 0.51117978E+02</pdfrwt>
<totfact> 0.11520318E+00</totfact>
</mgrwt>
</event>
<event>
 4    1  0.2451537E+000  0.5132659E+02  0.7957747E-01  0.1438315E+00
         13   -1    0    0    0    0  0.00000000000E+00  0.00000000000E+00  0.99999944175E+02  0.99999999995E+02  0.10566000000E+00 0. -1.
         22   -1    0    0    0    0 -0.00000000000E+00 -0.00000000000E+00 -0.17339043209E+02  0.17339043209E+02  0.00000000000E+00 0.  1.
         13    1    1    2    0    0 -0.11514108600E+02 -0.13580789678E+01 -0.73462415572E+01  0.13725797040E+02  0.10566000000E+00 0.  1.
        996    1    1    2    0    0  0.11514108600E+02  0.13580789678E+01  0.90007142523E+02  0.10361324616E+03  0.50000000000E+02 0.  0.
<mgrwt>
<rscale>  0 0.51326592E+02</rscale>
<asrwt>0</asrwt>
<pdfrwt beam="1">  1       13 0.10000000E+01 0.51326592E+02</pdfrwt>
<pdfrwt beam="2">  1       22 0.17339066E+00 0.51326592E+02</pdfrwt>
<totfact> 0.58646184E-01</totfact>
</mgrwt>
</event>
<event>
 4    1  0.2451537E+000  0.5264772E+02  0.7957747E-01  0.1431562E+00
         13   -1    0    0    0    0  0.00000000000E+00  0.00000000000E+00  0.99999944169E+02  0.99999999989E+02  0.10566000000E+00 0. -1.
         22   -1    0    0    0    0 -0.00000000000E+00 -0.00000000000E+00 -0.68851975758E+02  0.68851975758E+02  0.00000000000E+00 0.  1.
         13    1    1    2    0    0  0.85635739917E+01  0.14087126424E+02 -0.60746892324E+02  0.62944245340E+02  0.10566000000E+00 0.  1.
        996    1    1    2    0    0 -0.85635739917E+01 -0.14087126424E+02  0.91894860735E+02  0.10590773041E+03  0.50000000000E+02 0.  0.
<mgrwt>
<rscale>  0 0.52647715E+02</rscale>
<asrwt>0</asrwt>
<pdfrwt beam="1">  1       13 0.10000000E+01 0.52647715E+02</pdfrwt>
<pdfrwt beam="2">  1       22 0.68851984E+00 0.52647715E+02</pdfrwt>
<totfact> 0.80108889E-02</totfact>
</mgrwt>
</event>
<event>
 4    1  0.2451537E+000  0.5640096E+02  0.7957747E-01  0.1413587E+00
         13   -1    0    0    0    0  0.00000000000E+00  0.00000000000E+00  0.99999944180E+02  0.10000000000E+03  0.10566000000E+00 0. -1.
         22   -1    0    0    0    0 -0.00000000000E+00 -0.00000000000E+00 -0.18324710085E+02  0.18324710085E+02  0.00000000000E+00 0.  1.
         13    1    1    2    0    0  0.45855499180E+01  0.25691265543E+02  0.12116316459E+02  0.28772985278E+02  0.10566000000E+00 0.  1.
        996    1    1    2    0    0 -0.45855499180E+01 -0.25691265543E+02  0.69558917636E+02  0.89551724807E+02  0.50000000000E+02 0.  0.
<mgrwt>
<rscale>  0 0.56400961E+02</rscale>
<asrwt>0</asrwt>
<pdfrwt beam="1">  1       13 0.10000000E+01 0.56400961E+02</pdfrwt>
<pdfrwt beam="2">  1       22 0.18324733E+00 0.56400961E+02</pdfrwt>
<totfact> 0.53622427E-01</totfact>
</mgrwt>
</event>
<event>
 4    1  0.2451537E+000  0.5160646E+02  0.7957747E-01  0.1436864E+00
         13   -1    0    0    0    0  0.00000000000E+00  0.00000000000E+00  0.99999944179E+02  0.10000000000E+03  0.10566000000E+00 0. -1.
         22   -1    0    0    0    0 -0.00000000000E+00 -0.00000000000E+00 -0.10404598949E+02  0.10404598949E+02  0.00000000000E+00 0. -1.
         13    1    1    2    0    0 -0.11475947973E+02 -0.56150947326E+01  0.20679674218E+02  0.24308162426E+02  0.10566000000E+00 0.  1.
        996    1    1    2    0    0  0.11475947973E+02  0.56150947326E+01  0.68915671013E+02  0.86096436522E+02  0.50000000000E+02 0.  0.
<mgrwt>
<rscale>  0 0.51606460E+02</rscale>
<asrwt>0</asrwt>
<pdfrwt beam="1">  1       13 0.10000000E+01 0.51606460E+02</pdfrwt>
<pdfrwt beam="2">  1       22 0.10404624E+00 0.51606460E+02</pdfrwt>
<totfact> 0.13294099E+00</totfact>
</mgrwt>
</event>
<event>
 4    1  0.2451537E+000  0.5486580E+02  0.7957747E-01  0.1420735E+00
         13   -1    0    0    0    0  0.00000000000E+00  0.00000000000E+00  0.99999944182E+02  0.10000000000E+03  0.10566000000E+00 0. -1.
         22   -1    0    0    0    0 -0.00000000000E+00 -0.00000000000E+00 -0.15248468144E+02  0.15248468144E+02  0.00000000000E+00 0. -1.
         13    1    1    2    0    0  0.11415337871E+01  0.22559978076E+02  0.31730399863E+02  0.38949777274E+02  0.10566000000E+00 0.  1.
        996    1    1    2    0    0 -0.11415337871E+01 -0.22559978076E+02  0.53021076175E+02  0.76298690873E+02  0.50000000000E+02 0.  0.
<mgrwt>
<rscale>  0 0.54865797E+02</rscale>
<asrwt>0</asrwt>
<pdfrwt beam="1">  1       13 0.10000000E+01 0.54865797E+02</pdfrwt>
<pdfrwt beam="2">  1       22 0.15248492E+00 0.54865797E+02</pdfrwt>
<totfact> 0.73669091E-01</totfact>
</mgrwt>
</event>
<event>
 4    1  0.2451537E+000  0.7419495E+02  0.7957747E-01  0.1346382E+00
         13   -1    0    0    0    0  0.00000000000E+00  0.00000000000E+00  0.99999944180E+02  0.10000000000E+03  0.10566000000E+00 0. -1.
         22   -1    0    0    0    0 -0.00000000000E+00 -0.00000000000E+00 -0.67580783779E+02  0.67580783779E+02  0.00000000000E+00 0.  1.
         13    1    1    2    0    0 -0.32263207890E+02  0.44316772626E+02 -0.36870055592E+02  0.66062872196E+02  0.10566000000E+00 0.  1.
        996    1    1    2    0    0  0.32263207890E+02 -0.44316772626E+02  0.69289215993E+02  0.10151791158E+03  0.50000000000E+02 0.  0.
<mgrwt>
<rscale>  0 0.74194952E+02</rscale>
<asrwt>0</asrwt>
<pdfrwt beam="1">  1       13 0.10000000E+01 0.74194952E+02</pdfrwt>
<pdfrwt beam="2">  1       22 0.67580793E+00 0.74194952E+02</pdfrwt>
<totfact> 0.84812420E-02</totfact>
</mgrwt>
</event>
<event>
 4    1  0.2451537E+000  0.5118589E+02  0.7957747E-01  0.1439048E+00
         13   -1    0    0    0    0  0.00000000000E+00  0.00000000000E+00  0.99999944179E+02  0.10000000000E+03  0.10566000000E+00 0.  1.
         22   -1    0    0    0    0 -0.00000000000E+00 -0.00000000000E+00 -0.20463771103E+02  0.20463771103E+02  0.00000000000E+00 0.  1.
         13    1    1    2    0    0  0.10217810178E+02  0.39485772412E+01 -0.11588808325E+02  0.15946991863E+02  0.10566000000E+00 0. -1.
        996    1    1    2    0    0 -0.10217810178E+02 -0.39485772412E+01  0.91124981402E+02  0.10451677924E+03  0.50000000000E+02 0.  0.
<mgrwt>
<rscale>  0 0.51185886E+02</rscale>
<asrwt>0</asrwt>
<pdfrwt beam="1">  1       13 0.10000000E+01 0.51185886E+02</pdfrwt>
<pdfrwt beam="2">  1       22 0.20463793E+00 0.51185886E+02</pdfrwt>
<totfact> 0.43340645E-01</totfact>
</mgrwt>
</event>
<event>
 4    1  0.2451537E+000  0.5965925E+02  0.7957747E-01  0.1399267E+00
         13   -1    0    0    0    0  0.00000000000E+00  0.00000000000E+00  0.99999944176E+02  0.99999999996E+02  0.10566000000E+00 0. -1.
         22   -1    0    0    0    0 -0.00000000000E+00 -0.00000000000E+00 -0.23396629206E+02  0.23396629206E+02  0.00000000000E+00 0.  1.
         13    1    1    2    0    0 -0.24298701191E+02  0.21651760659E+02  0.10149226435E+02  0.34091693717E+02  0.10566000000E+00 0.  1.
        996    1    1    2    0    0  0.24298701191E+02 -0.21651760659E+02  0.66454088535E+02  0.89304935486E+02  0.50000000000E+02 0.  0.
<mgrwt>
<rscale>  0 0.59659246E+02</rscale>
<asrwt>0</asrwt>
<pdfrwt beam="1">  1       13 0.10000000E+01 0.59659246E+02</pdfrwt>
<pdfrwt beam="2">  1       22 0.23396651E+00 0.59659246E+02</pdfrwt>
<totfact> 0.33963986E-01</totfact>
</mgrwt>
</event>
<event>
 4    1  0.2451537E+000  0.5984011E+02  0.7957747E-01  0.1398504E+00
         13   -1    0    0    0    0  0.00000000000E+00  0.00000000000E+00  0.99999944171E+02  0.99999999991E+02  0.10566000000E+00 0. -1.
         22   -1    0    0    0    0 -0.00000000000E+00 -0.00000000000E+00 -0.41995335826E+02  0.41995335826E+02  0.00000000000E+00 0.  1.
         13    1    1    2    0    0  0.10847393176E+02  0.31035016240E+02 -0.23838412641E+02  0.40609349330E+02  0.10566000000E+00 0.  1.
        996    1    1    2    0    0 -0.10847393176E+02 -0.31035016240E+02  0.81843020987E+02  0.10138598649E+03  0.50000000000E+02 0.  0.
<mgrwt>
<rscale>  0 0.59840105E+02</rscale>
<asrwt>0</asrwt>
<pdfrwt beam="1">  1       13 0.10000000E+01 0.59840105E+02</pdfrwt>
<pdfrwt beam="2">  1       22 0.41995352E+00 0.59840105E+02</pdfrwt>
<totfact> 0.11295643E-01</totfact>
</mgrwt>
</event>
<event>
 4    1  0.2451537E+000  0.6934901E+02  0.7957747E-01  0.1362321E+00
         13   -1    0    0    0    0  0.00000000000E+00  0.00000000000E+00  0.99999944182E+02  0.10000000000E+03  0.10566000000E+00 0.  1.
         22   -1    0    0    0    0 -0.00000000000E+00 -0.00000000000E+00 -0.58226604737E+02  0.58226604737E+02  0.00000000000E+00 0. -1.
         13    1    1    2    0    0  0.48029382081E+02 -0.15695042822E+01 -0.31405885046E+02  0.57407540153E+02  0.10566000000E+00 0. -1.
        996    1    1    2    0    0 -0.48029382081E+02  0.15695042822E+01  0.73179224492E+02  0.10081906459E+03  0.50000000000E+02 0.  0.
<mgrwt>
<rscale>  0 0.69349008E+02</rscale>
<asrwt>0</asrwt>
<pdfrwt beam="1">  1       13 0.10000000E+01 0.69349008E+02</pdfrwt>
<pdfrwt beam="2">  1       22 0.58226616E+00 0.69349008E+02</pdfrwt>
<totfact> 0.58843463E-02</totfact>
</mgrwt>
</event>
<event>
 4    1  0.2451537E+000  0.5917188E+02  0.7957747E-01  0.1401340E+00
         13   -1    0    0    0    0  0.00000000000E+00  0.00000000000E+00  0.99999944178E+02  0.99999999998E+02  0.10566000000E+00 0.  1.
         22   -1    0    0    0    0 -0.00000000000E+00 -0.00000000000E+00 -0.51858365701E+02  0.51858365701E+02  0.00000000000E+00 0. -1.
         13    1    1    2    0    0 -0.26665806331E+02 -0.17036626270E+02 -0.36675955847E+02  0.48440156516E+02  0.10566000000E+00 0. -1.
        996    1    1    2    0    0  0.26665806331E+02  0.17036626270E+02  0.84817534324E+02  0.10341820918E+03  0.50000000000E+02 0.  0.
<mgrwt>
<rscale>  0 0.59171884E+02</rscale>
<asrwt>0</asrwt>
<pdfrwt beam="1">  1       13 0.10000000E+01 0.59171884E+02</pdfrwt>
<pdfrwt beam="2">  1       22 0.51858379E+00 0.59171884E+02</pdfrwt>
<totfact> 0.66940108E-02</totfact>
</mgrwt>
</event>
<event>
 4    1  0.2451537E+000  0.5111153E+02  0.7957747E-01  0.1439437E+00
         13   -1    0    0    0    0  0.00000000000E+00  0.00000000000E+00  0.99999944176E+02  0.99999999996E+02  0.10566000000E+00 0. -1.
         22   -1    0    0    0    0 -0.00000000000E+00 -0.00000000000E+00 -0.15886487484E+02  0.15886487484E+02  0.00000000000E+00 0.  1.
         13    1    1    2    0    0  0.78040242422E+01 -0.71753719136E+01 -0.60770744125E+01  0.12220096314E+02  0.10566000000E+00 0.  1.
        996    1    1    2    0    0 -0.78040242422E+01  0.71753719136E+01  0.90190531105E+02  0.10366639117E+03  0.50000000000E+02 0.  0.
<mgrwt>
<rscale>  0 0.51111533E+02</rscale>
<asrwt>0</asrwt>
<pdfrwt beam="1">  1       13 0.10000000E+01 0.51111533E+02</pdfrwt>
<pdfrwt beam="2">  1       22 0.15886511E+00 0.51111533E+02</pdfrwt>
<totfact> 0.68228348E-01</totfact>
</mgrwt>
</event>
<event>
 4    1  0.2451537E+000  0.5114557E+02  0.7957747E-01  0.1439259E+00
         13   -1    0    0    0    0  0.00000000000E+00  0.00000000000E+00  0.99999944181E+02  0.10000000000E+03  0.10566000000E+00 0.  1.
         22   -1    0    0    0    0 -0.00000000000E+00 -0.00000000000E+00 -0.10977331499E+02  0.10977331499E+02  0.00000000000E+00 0.  1.
         13    1    1    2    0    0 -0.80608099220E+01  0.71339111414E+01  0.34844662793E+01  0.11314681350E+02  0.10566000000E+00 0. -1.
        996    1    1    2    0    0  0.80608099220E+01 -0.71339111414E+01  0.85538146403E+02  0.99662650150E+02  0.50000000000E+02 0.  0.
<mgrwt>
<rscale>  0 0.51145570E+02</rscale>
<asrwt>0</asrwt>
<pdfrwt beam="1">  1       13 0.10000000E+01 0.51145570E+02</pdfrwt>
<pdfrwt beam="2">  1       22 0.10977356E+00 0.51145570E+02</pdfrwt>
<totfact> 0.12270435E+00</totfact>
</mgrwt>
</event>
<event>
 4    1  0.2451537E+000  0.5198610E+02  0.7957747E-01  0.1434914E+00
         13   -1    0    0    0    0  0.00000000000E+00  0.00000000000E+00  0.99999944176E+02  0.99999999996E+02  0.10566000000E+00 0. -1.
         22   -1    0    0    0    0 -0.00000000000E+00 -0.00000000000E+00 -0.11234623046E+02  0.11234623046E+02  0.00000000000E+00 0. -1.
         13    1    1    2    0    0  0.10758172942E+02 -0.93175091588E+01  0.26848031689E+02  0.30387205064E+02  0.10566000000E+00 0.  1.
        996    1    1    2    0    0 -0.10758172942E+02  0.93175091588E+01  0.61917289441E+02  0.80847417978E+02  0.50000000000E+02 0.  0.
<mgrwt>
<rscale>  0 0.51986097E+02</rscale>
<asrwt>0</asrwt>
<pdfrwt beam="1">  1       13 0.10000000E+01 0.51986097E+02</pdfrwt>
<pdfrwt beam="2">  1       22 0.11234648E+00 0.51986097E+02</pdfrwt>
<totfact> 0.11876737E+00</totfact>
</mgrwt>
</event>
<event>
 4    1  0.2451537E+000  0.5236382E+02  0.7957747E-01  0.1432993E+00
         13   -1    0    0    0    0  0.00000000000E+00  0.00000000000E+00  0.99999944184E+02  0.10000000000E+03  0.10566000000E+00 0.  1.
         22   -1    0    0    0    0 -0.00000000000E+00 -0.00000000000E+00 -0.11699084614E+02  0.11699084614E+02  0.00000000000E+00 0.  1.
         13    1    1    2    0    0 -0.77736626114E+01 -0.13473676966E+02  0.14949066166E+02  0.21574418756E+02  0.10566000000E+00 0. -1.
        996    1    1    2    0    0  0.77736626114E+01  0.13473676966E+02  0.73351793404E+02  0.90124665863E+02  0.50000000000E+02 0.  0.
<mgrwt>
<rscale>  0 0.52363821E+02</rscale>
<asrwt>0</asrwt>
<pdfrwt beam="1">  1       13 0.10000000E+01 0.52363821E+02</pdfrwt>
<pdfrwt beam="2">  1       22 0.11699109E+00 0.52363821E+02</pdfrwt>
<totfact> 0.11182842E+00</totfact>
</mgrwt>
</event>
<event>
 4    1  0.2451537E+000  0.5915400E+02  0.7957747E-01  0.1401417E+00
         13   -1    0    0    0    0  0.00000000000E+00  0.00000000000E+00  0.99999944174E+02  0.99999999994E+02  0.10566000000E+00 0. -1.
         22   -1    0    0    0    0 -0.00000000000E+00 -0.00000000000E+00 -0.34295114149E+02  0.34295114149E+02  0.00000000000E+00 0.  1.
         13    1    1    2    0    0  0.15586477209E+02  0.27500141757E+02 -0.14383938233E+02  0.34729021172E+02  0.10566000000E+00 0.  1.
        996    1    1    2    0    0 -0.15586477209E+02 -0.27500141757E+02  0.80088768258E+02  0.99566092971E+02  0.50000000000E+02 0.  0.
<mgrwt>
<rscale>  0 0.59154003E+02</rscale>
<asrwt>0</asrwt>
<pdfrwt beam="1">  1       13 0.10000000E+01 0.59154003E+02</pdfrwt>
<pdfrwt beam="2">  1       22 0.34295133E+00 0.59154003E+02</pdfrwt>
<totfact> 0.16399504E-01</totfact>
</mgrwt>
</event>
<event>
 4    1  0.2451537E+000  0.7363059E+02  0.7957747E-01  0.1348165E+00
         13   -1    0    0    0    0  0.00000000000E+00  0.00000000000E+00  0.99999944183E+02  0.10000000000E+03  0.10566000000E+00 0.  1.
         22   -1    0    0    0    0 -0.00000000000E+00 -0.00000000000E+00 -0.60614492332E+02  0.60614492332E+02  0.00000000000E+00 0. -1.
         13    1    1    2    0    0 -0.41282977221E+02 -0.34888106826E+02 -0.27938951811E+02  0.60844559317E+02  0.10566000000E+00 0. -1.
        996    1    1    2    0    0  0.41282977221E+02  0.34888106826E+02  0.67324403662E+02  0.99769933019E+02  0.50000000000E+02 0.  0.
<mgrwt>
<rscale>  0 0.73630593E+02</rscale>
<asrwt>0</asrwt>
<pdfrwt beam="1">  1       13 0.10000000E+01 0.73630593E+02</pdfrwt>
<pdfrwt beam="2">  1       22 0.60614503E+00 0.73630593E+02</pdfrwt>
<totfact> 0.66070888E-02</totfact>
</mgrwt>
</event>
<event>
 4    1  0.2451537E+000  0.5480155E+02  0.7957747E-01  0.1421040E+00
         13   -1    0    0    0    0  0.00000000000E+00  0.00000000000E+00  0.99999944188E+02  0.10000000001E+03  0.10566000000E+00 0.  1.
         22   -1    0    0    0    0 -0.00000000000E+00 -0.00000000000E+00 -0.15035351839E+02  0.15035351839E+02  0.00000000000E+00 0.  1.
         13    1    1    2    0    0  0.50239741628E+01  0.21862516844E+02  0.20103384137E+02  0.30122536031E+02  0.10566000000E+00 0. -1.
        996    1    1    2    0    0 -0.50239741628E+01 -0.21862516844E+02  0.64861208211E+02  0.84912815816E+02  0.50000000000E+02 0.  0.
<mgrwt>
<rscale>  0 0.54801551E+02</rscale>
<asrwt>0</asrwt>
<pdfrwt beam="1">  1       13 0.10000000E+01 0.54801551E+02</pdfrwt>
<pdfrwt beam="2">  1       22 0.15035376E+00 0.54801551E+02</pdfrwt>
<totfact> 0.75415769E-01</totfact>
</mgrwt>
</event>
<event>
 4    1  0.2451537E+000  0.5446739E+02  0.7957747E-01  0.1422635E+00
         13   -1    0    0    0    0  0.00000000000E+00  0.00000000000E+00  0.99999944176E+02  0.99999999996E+02  0.10566000000E+00 0.  1.
         22   -1    0    0    0    0 -0.00000000000E+00 -0.00000000000E+00 -0.15897505202E+02  0.15897505202E+02  0.00000000000E+00 0.  1.
         13    1    1    2    0    0 -0.80506118352E+01  0.20047041120E+02  0.96804326724E+01  0.23673152501E+02  0.10566000000E+00 0. -1.
        996    1    1    2    0    0  0.80506118352E+01 -0.20047041120E+02  0.74422006301E+02  0.92224352697E+02  0.50000000000E+02 0.  0.
<mgrwt>
<rscale>  0 0.54467387E+02</rscale>
<asrwt>0</asrwt>
<pdfrwt beam="1">  1       13 0.10000000E+01 0.54467387E+02</pdfrwt>
<pdfrwt beam="2">  1       22 0.15897529E+00 0.54467387E+02</pdfrwt>
<totfact> 0.68598124E-01</totfact>
</mgrwt>
</event>
<event>
 4    1  0.2451537E+000  0.5297321E+02  0.7957747E-01  0.1429934E+00
         13   -1    0    0    0    0  0.00000000000E+00  0.00000000000E+00  0.99999944171E+02  0.99999999992E+02  0.10566000000E+00 0. -1.
         22   -1    0    0    0    0 -0.00000000000E+00 -0.00000000000E+00 -0.13765550156E+02  0.13765550156E+02  0.00000000000E+00 0.  1.
         13    1    1    2    0    0 -0.16249783056E+02  0.64888772496E+01  0.78937874929E+01  0.19195937652E+02  0.10566000000E+00 0.  1.
        996    1    1    2    0    0  0.16249783056E+02 -0.64888772496E+01  0.78340606522E+02  0.94569612496E+02  0.50000000000E+02 0.  0.
<mgrwt>
<rscale>  0 0.52973210E+02</rscale>
<asrwt>0</asrwt>
<pdfrwt beam="1">  1       13 0.10000000E+01 0.52973210E+02</pdfrwt>
<pdfrwt beam="2">  1       22 0.13765574E+00 0.52973210E+02</pdfrwt>
<totfact> 0.86836716E-01</totfact>
</mgrwt>
</event>
<event>
 4    1  0.2451537E+000  0.7271808E+02  0.7957747E-01  0.1351087E+00
         13   -1    0    0    0    0  0.00000000000E+00  0.00000000000E+00  0.99999944181E+02  0.10000000000E+03  0.10566000000E+00 0.  1.
         22   -1    0    0    0    0 -0.00000000000E+00 -0.00000000000E+00 -0.39493257562E+02  0.39493257562E+02  0.00000000000E+00 0. -1.
         13    1    1    2    0    0 -0.43637704357E+02 -0.29726586779E+02  0.29029421469E+02  0.60254773072E+02  0.10566000000E+00 0. -1.
        996    1    1    2    0    0  0.43637704357E+02  0.29726586779E+02  0.31477265150E+02  0.79238484491E+02  0.50000000000E+02 0.  0.
<mgrwt>
<rscale>  0 0.72718080E+02</rscale>
<asrwt>0</asrwt>
<pdfrwt beam="1">  1       13 0.10000000E+01 0.72718080E+02</pdfrwt>
<pdfrwt beam="2">  1       22 0.39493274E+00 0.72718080E+02</pdfrwt>
<totfact> 0.12847403E-01</totfact>
</mgrwt>
</event>
<event>
 4    1  0.2451537E+000  0.5321142E+02  0.7957747E-01  0.1428752E+00
         13   -1    0    0    0    0  0.00000000000E+00  0.00000000000E+00  0.99999944178E+02  0.99999999998E+02  0.10566000000E+00 0.  1.
         22   -1    0    0    0    0 -0.00000000000E+00 -0.00000000000E+00 -0.65349981566E+02  0.65349981566E+02  0.00000000000E+00 0. -1.
         13    1    1    2    0    0 -0.18926145267E+01 -0.18107280933E+02 -0.56744486519E+02  0.59593653411E+02  0.10566000000E+00 0. -1.
        996    1    1    2    0    0  0.18926145267E+01  0.18107280933E+02  0.91394449131E+02  0.10575632815E+03  0.50000000000E+02 0.  0.
<mgrwt>
<rscale>  0 0.53211424E+02</rscale>
<asrwt>0</asrwt>
<pdfrwt beam="1">  1       13 0.10000000E+01 0.53211424E+02</pdfrwt>
<pdfrwt beam="2">  1       22 0.65349991E+00 0.53211424E+02</pdfrwt>
<totfact> 0.86928920E-02</totfact>
</mgrwt>
</event>
<event>
 4    1  0.2451537E+000  0.5707064E+02  0.7957747E-01  0.1410553E+00
         13   -1    0    0    0    0  0.00000000000E+00  0.00000000000E+00  0.99999944182E+02  0.10000000000E+03  0.10566000000E+00 0. -1.
         22   -1    0    0    0    0 -0.00000000000E+00 -0.00000000000E+00 -0.38888796764E+02  0.38888796764E+02  0.00000000000E+00 0.  1.
         13    1    1    2    0    0  0.27057326511E+02  0.49958897881E+01 -0.23935024001E+02  0.36468539464E+02  0.10566000000E+00 0.  1.
        996    1    1    2    0    0 -0.27057326511E+02 -0.49958897881E+01  0.85046171418E+02  0.10242025730E+03  0.50000000000E+02 0.  0.
<mgrwt>
<rscale>  0 0.57070639E+02</rscale>
<asrwt>0</asrwt>
<pdfrwt beam="1">  1       13 0.10000000E+01 0.57070639E+02</pdfrwt>
<pdfrwt beam="2">  1       22 0.38888814E+00 0.57070639E+02</pdfrwt>
<totfact> 0.13088152E-01</totfact>
</mgrwt>
</event>
<event>
 4    1  0.2451537E+000  0.7203483E+02  0.7957747E-01  0.1353307E+00
         13   -1    0    0    0    0  0.00000000000E+00  0.00000000000E+00  0.99999944187E+02  0.10000000001E+03  0.10566000000E+00 0. -1.
         22   -1    0    0    0    0 -0.00000000000E+00 -0.00000000000E+00 -0.89198754214E+02  0.89198754214E+02  0.00000000000E+00 0.  1.
         13    1    1    2    0    0  0.28825682415E+02  0.43105639642E+02 -0.65978348551E+02  0.83917636866E+02  0.10566000000E+00 0.  1.
        996    1    1    2    0    0 -0.28825682415E+02 -0.43105639642E+02  0.76779538524E+02  0.10528111736E+03  0.50000000000E+02 0.  0.
<mgrwt>
<rscale>  0 0.72034826E+02</rscale>
<asrwt>0</asrwt>
<pdfrwt beam="1">  1       13 0.10000000E+01 0.72034826E+02</pdfrwt>
<pdfrwt beam="2">  1       22 0.89198757E+00 0.72034826E+02</pdfrwt>
<totfact> 0.11585951E-02</totfact>
</mgrwt>
</event>
<event>
 4    1  0.2451537E+000  0.5107581E+02  0.7957747E-01  0.1439624E+00
         13   -1    0    0    0    0  0.00000000000E+00  0.00000000000E+00  0.99999944166E+02  0.99999999986E+02  0.10566000000E+00 0.  1.
         22   -1    0    0    0    0 -0.00000000000E+00 -0.00000000000E+00 -0.68826052724E+02  0.68826052724E+02  0.00000000000E+00 0. -1.
         13    1    1    2    0    0  0.33723592102E+01 -0.98674069674E+01 -0.61839069511E+02  0.62712201436E+02  0.10566000000E+00 0. -1.
        996    1    1    2    0    0 -0.33723592102E+01  0.98674069674E+01  0.93012960953E+02  0.10611385127E+03  0.50000000000E+02 0.  0.
<mgrwt>
<rscale>  0 0.51075812E+02</rscale>
<asrwt>0</asrwt>
<pdfrwt beam="1">  1       13 0.10000000E+01 0.51075812E+02</pdfrwt>
<pdfrwt beam="2">  1       22 0.68826061E+00 0.51075812E+02</pdfrwt>
<totfact> 0.80222703E-02</totfact>
</mgrwt>
</event>
<event>
 4    1  0.2451537E+000  0.5243668E+02  0.7957747E-01  0.1432625E+00
         13   -1    0    0    0    0  0.00000000000E+00  0.00000000000E+00  0.99999944181E+02  0.10000000000E+03  0.10566000000E+00 0. -1.
         22   -1    0    0    0    0 -0.00000000000E+00 -0.00000000000E+00 -0.13484129707E+02  0.13484129707E+02  0.00000000000E+00 0.  1.
         13    1    1    2    0    0  0.15761409400E+02 -0.10876115775E+01  0.50228312918E+01  0.16578447558E+02  0.10566000000E+00 0.  1.
        996    1    1    2    0    0 -0.15761409400E+02  0.10876115775E+01  0.81492983182E+02  0.96905682151E+02  0.50000000000E+02 0.  0.
<mgrwt>
<rscale>  0 0.52436675E+02</rscale>
<asrwt>0</asrwt>
<pdfrwt beam="1">  1       13 0.10000000E+01 0.52436675E+02</pdfrwt>
<pdfrwt beam="2">  1       22 0.13484154E+00 0.52436675E+02</pdfrwt>
<totfact> 0.89661036E-01</totfact>
</mgrwt>
</event>
<event>
 4    1  0.2451537E+000  0.6186394E+02  0.7957747E-01  0.1390172E+00
         13   -1    0    0    0    0  0.00000000000E+00  0.00000000000E+00  0.99999944180E+02  0.10000000000E+03  0.10566000000E+00 0. -1.
         22   -1    0    0    0    0 -0.00000000000E+00 -0.00000000000E+00 -0.62009579102E+02  0.62009579102E+02  0.00000000000E+00 0.  1.
         13    1    1    2    0    0 -0.26664540614E+02 -0.24822358217E+02 -0.45379935662E+02  0.58193615786E+02  0.10566000000E+00 0.  1.
        996    1    1    2    0    0  0.26664540614E+02  0.24822358217E+02  0.83370300741E+02  0.10381596332E+03  0.50000000000E+02 0.  0.
<mgrwt>
<rscale>  0 0.61863941E+02</rscale>
<asrwt>0</asrwt>
<pdfrwt beam="1">  1       13 0.10000000E+01 0.61863941E+02</pdfrwt>
<pdfrwt beam="2">  1       22 0.62009590E+00 0.61863941E+02</pdfrwt>
<totfact> 0.73013437E-02</totfact>
</mgrwt>
</event>
<event>
 4    1  0.2451537E+000  0.5279323E+02  0.7957747E-01  0.1430833E+00
         13   -1    0    0    0    0  0.00000000000E+00  0.00000000000E+00  0.99999944177E+02  0.99999999997E+02  0.10566000000E+00 0. -1.
         22   -1    0    0    0    0 -0.00000000000E+00 -0.00000000000E+00 -0.15930938065E+02  0.15930938065E+02  0.00000000000E+00 0.  1.
         13    1    1    2    0    0 -0.72395227309E+01 -0.15320400380E+02  0.34092681378E+00  0.16948532453E+02  0.10566000000E+00 0.  1.
        996    1    1    2    0    0  0.72395227309E+01  0.15320400380E+02  0.83728079298E+02  0.98982405609E+02  0.50000000000E+02 0.  0.
<mgrwt>
<rscale>  0 0.52793232E+02</rscale>
<asrwt>0</asrwt>
<pdfrwt beam="1">  1       13 0.10000000E+01 0.52793232E+02</pdfrwt>
<pdfrwt beam="2">  1       22 0.15930962E+00 0.52793232E+02</pdfrwt>
<totfact> 0.68132280E-01</totfact>
</mgrwt>
</event>
<event>
 4    1  0.2451537E+000  0.5251482E+02  0.7957747E-01  0.1432231E+00
         13   -1    0    0    0    0  0.00000000000E+00  0.00000000000E+00  0.99999944175E+02  0.99999999996E+02  0.10566000000E+00 0.  1.
         22   -1    0    0    0    0 -0.00000000000E+00 -0.00000000000E+00 -0.11919764506E+02  0.11919764506E+02  0.00000000000E+00 0.  1.
         13    1    1    2    0    0  0.15014463920E+02  0.56896540390E+01  0.15362724781E+02  0.22222303360E+02  0.10566000000E+00 0. -1.
        996    1    1    2    0    0 -0.15014463920E+02 -0.56896540390E+01  0.72717454888E+02  0.89697461142E+02  0.50000000000E+02 0.  0.
<mgrwt>
<rscale>  0 0.52514820E+02</rscale>
<asrwt>0</asrwt>
<pdfrwt beam="1">  1       13 0.10000000E+01 0.52514820E+02</pdfrwt>
<pdfrwt beam="2">  1       22 0.11919789E+00 0.52514820E+02</pdfrwt>
<totfact> 0.10872777E+00</totfact>
</mgrwt>
</event>
<event>
 4    1  0.2451537E+000  0.5109442E+02  0.7957747E-01  0.1439526E+00
         13   -1    0    0    0    0  0.00000000000E+00  0.00000000000E+00  0.99999944182E+02  0.10000000000E+03  0.10566000000E+00 0. -1.
         22   -1    0    0    0    0 -0.00000000000E+00 -0.00000000000E+00 -0.10806609627E+02  0.10806609627E+02  0.00000000000E+00 0. -1.
         13    1    1    2    0    0 -0.93271332126E+01 -0.48625215104E+01  0.35910640520E+01  0.11115144374E+02  0.10566000000E+00 0.  1.
        996    1    1    2    0    0  0.93271332126E+01  0.48625215104E+01  0.85602270503E+02  0.99691465255E+02  0.50000000000E+02 0.  0.
<mgrwt>
<rscale>  0 0.51094418E+02</rscale>
<asrwt>0</asrwt>
<pdfrwt beam="1">  1       13 0.10000000E+01 0.51094418E+02</pdfrwt>
<pdfrwt beam="2">  1       22 0.10806635E+00 0.51094418E+02</pdfrwt>
<totfact> 0.12557456E+00</totfact>
</mgrwt>
</event>
<event>
 4    1  0.2451537E+000  0.5893640E+02  0.7957747E-01  0.1402350E+00
         13   -1    0    0    0    0  0.00000000000E+00  0.00000000000E+00  0.99999944175E+02  0.99999999995E+02  0.10566000000E+00 0.  1.
         22   -1    0    0    0    0 -0.00000000000E+00 -0.00000000000E+00 -0.20615846317E+02  0.20615846317E+02  0.00000000000E+00 0. -1.
         13    1    1    2    0    0  0.30786342343E+02  0.50695801528E+01  0.20686253548E+02  0.37435701779E+02  0.10566000000E+00 0. -1.
        996    1    1    2    0    0 -0.30786342343E+02 -0.50695801528E+01  0.58697844310E+02  0.83180144532E+02  0.50000000000E+02 0.  0.
<mgrwt>
<rscale>  0 0.58936402E+02</rscale>
<asrwt>0</asrwt>
<pdfrwt beam="1">  1       13 0.10000000E+01 0.58936402E+02</pdfrwt>
<pdfrwt beam="2">  1       22 0.20615868E+00 0.58936402E+02</pdfrwt>
<totfact> 0.43295984E-01</totfact>
</mgrwt>
</event>
<event>
 4    1  0.2451537E+000  0.5135157E+02  0.7957747E-01  0.1438185E+00
         13   -1    0    0    0    0  0.00000000000E+00  0.00000000000E+00  0.99999944168E+02  0.99999999988E+02  0.10566000000E+00 0.  1.
         22   -1    0    0    0    0 -0.00000000000E+00 -0.00000000000E+00 -0.77184547139E+02  0.77184547139E+02  0.00000000000E+00 0. -1.
         13    1    1    2    0    0  0.42868402294E+01 -0.10890662616E+02 -0.70074575570E+02  0.71045343526E+02  0.10566000000E+00 0. -1.
        996    1    1    2    0    0 -0.42868402294E+01  0.10890662616E+02  0.92889972600E+02  0.10613920360E+03  0.50000000000E+02 0.  0.
<mgrwt>
<rscale>  0 0.51351568E+02</rscale>
<asrwt>0</asrwt>
<pdfrwt beam="1">  1       13 0.10000000E+01 0.51351568E+02</pdfrwt>
<pdfrwt beam="2">  1       22 0.77184554E+00 0.51351568E+02</pdfrwt>
<totfact> 0.40030977E-02</totfact>
</mgrwt>
</event>
<event>
 4    1  0.2451537E+000  0.5119966E+02  0.7957747E-01  0.1438976E+00
         13   -1    0    0    0    0  0.00000000000E+00  0.00000000000E+00  0.99999944170E+02  0.99999999990E+02  0.10566000000E+00 0.  1.
         22   -1    0    0    0    0 -0.00000000000E+00 -0.00000000000E+00 -0.10056156856E+02  0.10056156856E+02  0.00000000000E+00 0. -1.
         13    1    1    2    0    0  0.31883487039E+01  0.10547010212E+02  0.87636845057E+01  0.14079002878E+02  0.10566000000E+00 0. -1.
        996    1    1    2    0    0 -0.31883487039E+01 -0.10547010212E+02  0.81180102809E+02  0.95977153969E+02  0.50000000000E+02 0.  0.
<mgrwt>
<rscale>  0 0.51199658E+02</rscale>
<asrwt>0</asrwt>
<pdfrwt beam="1">  1       13 0.10000000E+01 0.51199658E+02</pdfrwt>
<pdfrwt beam="2">  1       22 0.10056182E+00 0.51199658E+02</pdfrwt>
<totfact> 0.13956879E+00</totfact>
</mgrwt>
</event>
<event>
 4    1  0.2451537E+000  0.5193795E+02  0.7957747E-01  0.1435161E+00
         13   -1    0    0    0    0  0.00000000000E+00  0.00000000000E+00  0.99999944164E+02  0.99999999984E+02  0.10566000000E+00 0. -1.
         22   -1    0    0    0    0 -0.00000000000E+00 -0.00000000000E+00 -0.72194668722E+02  0.72194668722E+02  0.00000000000E+00 0.  1.
         13    1    1    2    0    0 -0.98802590066E+01 -0.99965675633E+01 -0.64644286986E+02  0.66154711737E+02  0.10566000000E+00 0.  1.
        996    1    1    2    0    0  0.98802590066E+01  0.99965675633E+01  0.92449562427E+02  0.10603995697E+03  0.50000000000E+02 0.  0.
<mgrwt>
<rscale>  0 0.51937952E+02</rscale>
<asrwt>0</asrwt>
<pdfrwt beam="1">  1       13 0.10000000E+01 0.51937952E+02</pdfrwt>
<pdfrwt beam="2">  1       22 0.72194677E+00 0.51937952E+02</pdfrwt>
<totfact> 0.63006578E-02</totfact>
</mgrwt>
</event>
<event>
 4    1  0.2451537E+000  0.5360060E+02  0.7957747E-01  0.1426835E+00
         13   -1    0    0    0    0  0.00000000000E+00  0.00000000000E+00  0.99999944177E+02  0.99999999997E+02  0.10566000000E+00 0. -1.
         22   -1    0    0    0    0 -0.00000000000E+00 -0.00000000000E+00 -0.35041977628E+02  0.35041977628E+02  0.00000000000E+00 0.  1.
         13    1    1    2    0    0  0.17157780336E+02  0.88676163321E+01 -0.24230418571E+02  0.30986261369E+02  0.10566000000E+00 0.  1.
        996    1    1    2    0    0 -0.17157780336E+02 -0.88676163321E+01  0.89188385120E+02  0.10405571626E+03  0.50000000000E+02 0.  0.
<mgrwt>
<rscale>  0 0.53600597E+02</rscale>
<asrwt>0</asrwt>
<pdfrwt beam="1">  1       13 0.10000000E+01 0.53600597E+02</pdfrwt>
<pdfrwt beam="2">  1       22 0.35041996E+00 0.53600597E+02</pdfrwt>
<totfact> 0.15707159E-01</totfact>
</mgrwt>
</event>
<event>
 4    1  0.2451537E+000  0.5229714E+02  0.7957747E-01  0.1433331E+00
         13   -1    0    0    0    0  0.00000000000E+00  0.00000000000E+00  0.99999944175E+02  0.99999999996E+02  0.10566000000E+00 0.  1.
         22   -1    0    0    0    0 -0.00000000000E+00 -0.00000000000E+00 -0.12648341179E+02  0.12648341179E+02  0.00000000000E+00 0.  1.
         13    1    1    2    0    0  0.86062991162E+01 -0.12685514632E+02  0.37007349641E+02  0.40056781666E+02  0.10566000000E+00 0. -1.
        996    1    1    2    0    0 -0.86062991162E+01  0.12685514632E+02  0.50344253355E+02  0.72591559508E+02  0.50000000000E+02 0.  0.
<mgrwt>
<rscale>  0 0.52297138E+02</rscale>
<asrwt>0</asrwt>
<pdfrwt beam="1">  1       13 0.10000000E+01 0.52297138E+02</pdfrwt>
<pdfrwt beam="2">  1       22 0.12648366E+00 0.52297138E+02</pdfrwt>
<totfact> 0.99160889E-01</totfact>
</mgrwt>
</event>
<event>
 4    1  0.2451537E+000  0.6476008E+02  0.7957747E-01  0.1378876E+00
         13   -1    0    0    0    0  0.00000000000E+00  0.00000000000E+00  0.99999944182E+02  0.10000000000E+03  0.10566000000E+00 0.  1.
         22   -1    0    0    0    0 -0.00000000000E+00 -0.00000000000E+00 -0.35543306415E+02  0.35543306415E+02  0.00000000000E+00 0. -1.
         13    1    1    2    0    0  0.37983994477E+02 -0.15845636016E+02 -0.39488326852E+01  0.41345767145E+02  0.10566000000E+00 0. -1.
        996    1    1    2    0    0 -0.37983994477E+02  0.15845636016E+02  0.68405470451E+02  0.94197539272E+02  0.50000000000E+02 0.  0.
<mgrwt>
<rscale>  0 0.64760080E+02</rscale>
<asrwt>0</asrwt>
<pdfrwt beam="1">  1       13 0.10000000E+01 0.64760080E+02</pdfrwt>
<pdfrwt beam="2">  1       22 0.35543324E+00 0.64760080E+02</pdfrwt>
<totfact> 0.15474146E-01</totfact>
</mgrwt>
</event>
<event>
 4    1  0.2451537E+000  0.5153154E+02  0.7957747E-01  0.1437252E+00
         13   -1    0    0    0    0  0.00000000000E+00  0.00000000000E+00  0.99999944174E+02  0.99999999994E+02  0.10566000000E+00 0.  1.
         22   -1    0    0    0    0 -0.00000000000E+00 -0.00000000000E+00 -0.14664870682E+02  0.14664870682E+02  0.00000000000E+00 0. -1.
         13    1    1    2    0    0 -0.91790113136E+01 -0.84407068875E+01 -0.26041174550E+01  0.12739402388E+02  0.10566000000E+00 0. -1.
        996    1    1    2    0    0  0.91790113136E+01  0.84407068875E+01  0.87939190946E+02  0.10192546829E+03  0.50000000000E+02 0.  0.
<mgrwt>
<rscale>  0 0.51531542E+02</rscale>
<asrwt>0</asrwt>
<pdfrwt beam="1">  1       13 0.10000000E+01 0.51531542E+02</pdfrwt>
<pdfrwt beam="2">  1       22 0.14664895E+00 0.51531542E+02</pdfrwt>
<totfact> 0.78090102E-01</totfact>
</mgrwt>
</event>
<event>
 4    1  0.2451537E+000  0.5390638E+02  0.7957747E-01  0.1425343E+00
         13   -1    0    0    0    0  0.00000000000E+00  0.00000000000E+00  0.99999944185E+02  0.10000000000E+03  0.10566000000E+00 0.  1.
         22   -1    0    0    0    0 -0.00000000000E+00 -0.00000000000E+00 -0.23398986844E+02  0.23398986844E+02  0.00000000000E+00 0.  1.
         13    1    1    2    0    0 -0.14336946564E+02  0.14154492445E+02 -0.91373287038E+01  0.22122378557E+02  0.10566000000E+00 0. -1.
        996    1    1    2    0    0  0.14336946564E+02 -0.14154492445E+02  0.85738286045E+02  0.10127660829E+03  0.50000000000E+02 0.  0.
<mgrwt>
<rscale>  0 0.53906379E+02</rscale>
<asrwt>0</asrwt>
<pdfrwt beam="1">  1       13 0.10000000E+01 0.53906379E+02</pdfrwt>
<pdfrwt beam="2">  1       22 0.23399008E+00 0.53906379E+02</pdfrwt>
<totfact> 0.33666345E-01</totfact>
</mgrwt>
</event>
<event>
 4    1  0.2451537E+000  0.5132221E+02  0.7957747E-01  0.1438338E+00
         13   -1    0    0    0    0  0.00000000000E+00  0.00000000000E+00  0.99999944181E+02  0.10000000000E+03  0.10566000000E+00 0. -1.
         22   -1    0    0    0    0 -0.00000000000E+00 -0.00000000000E+00 -0.15973052795E+02  0.15973052795E+02  0.00000000000E+00 0. -1.
         13    1    1    2    0    0 -0.61092644789E+01  0.98308656934E+01 -0.54719605839E+01  0.12803224181E+02  0.10566000000E+00 0.  1.
        996    1    1    2    0    0  0.61092644789E+01 -0.98308656934E+01  0.89498851970E+02  0.10316982862E+03  0.50000000000E+02 0.  0.
<mgrwt>
<rscale>  0 0.51322208E+02</rscale>
<asrwt>0</asrwt>
<pdfrwt beam="1">  1       13 0.10000000E+01 0.51322208E+02</pdfrwt>
<pdfrwt beam="2">  1       22 0.15973076E+00 0.51322208E+02</pdfrwt>
<totfact> 0.67627638E-01</totfact>
</mgrwt>
</event>
<event>
 4    1  0.2451537E+000  0.6228836E+02  0.7957747E-01  0.1388472E+00
         13   -1    0    0    0    0  0.00000000000E+00  0.00000000000E+00  0.99999944178E+02  0.99999999998E+02  0.10566000000E+00 0.  1.
         22   -1    0    0    0    0 -0.00000000000E+00 -0.00000000000E+00 -0.36028909405E+02  0.36028909405E+02  0.00000000000E+00 0. -1.
         13    1    1    2    0    0 -0.29013969528E+02 -0.23195446693E+02 -0.10826412882E+02  0.38691879704E+02  0.10566000000E+00 0. -1.
        996    1    1    2    0    0  0.29013969528E+02  0.23195446693E+02  0.74797447655E+02  0.97337029700E+02  0.50000000000E+02 0.  0.
<mgrwt>
<rscale>  0 0.62288355E+02</rscale>
<asrwt>0</asrwt>
<pdfrwt beam="1">  1       13 0.10000000E+01 0.62288355E+02</pdfrwt>
<pdfrwt beam="2">  1       22 0.36028927E+00 0.62288355E+02</pdfrwt>
<totfact> 0.15077231E-01</totfact>
</mgrwt>
</event>
<event>
 4    1  0.2451537E+000  0.5214196E+02  0.7957747E-01  0.1434119E+00
         13   -1    0    0    0    0  0.00000000000E+00  0.00000000000E+00  0.99999944174E+02  0.99999999994E+02  0.10566000000E+00 0.  1.
         22   -1    0    0    0    0 -0.00000000000E+00 -0.00000000000E+00 -0.17102167660E+02  0.17102167660E+02  0.00000000000E+00 0. -1.
         13    1    1    2    0    0  0.38758339673E+01 -0.14274507154E+02 -0.43874556747E+01  0.15428693230E+02  0.10566000000E+00 0. -1.
        996    1    1    2    0    0 -0.38758339673E+01  0.14274507154E+02  0.87285232188E+02  0.10167347442E+03  0.50000000000E+02 0.  0.
<mgrwt>
<rscale>  0 0.52141957E+02</rscale>
<asrwt>0</asrwt>
<pdfrwt beam="1">  1       13 0.10000000E+01 0.52141957E+02</pdfrwt>
<pdfrwt beam="2">  1       22 0.17102191E+00 0.52141957E+02</pdfrwt>
<totfact> 0.60179201E-01</totfact>
</mgrwt>
</event>
<event>
 4    1  0.2451537E+000  0.5229623E+02  0.7957747E-01  0.1433336E+00
         13   -1    0    0    0    0  0.00000000000E+00  0.00000000000E+00  0.99999944180E+02  0.10000000000E+03  0.10566000000E+00 0. -1.
         22   -1    0    0    0    0 -0.00000000000E+00 -0.00000000000E+00 -0.11601111776E+02  0.11601111776E+02  0.00000000000E+00 0. -1.
         13    1    1    2    0    0  0.10022914237E+02  0.11594681703E+02  0.14730746953E+02  0.21257975525E+02  0.10566000000E+00 0.  1.
        996    1    1    2    0    0 -0.10022914237E+02 -0.11594681703E+02  0.73668085451E+02  0.90343136251E+02  0.50000000000E+02 0.  0.
<mgrwt>
<rscale>  0 0.52296228E+02</rscale>
<asrwt>0</asrwt>
<pdfrwt beam="1">  1       13 0.10000000E+01 0.52296228E+02</pdfrwt>
<pdfrwt beam="2">  1       22 0.11601136E+00 0.52296228E+02</pdfrwt>
<totfact> 0.11324517E+00</totfact>
</mgrwt>
</event>
<event>
 4    1  0.2451537E+000  0.5257896E+02  0.7957747E-01  0.1431908E+00
         13   -1    0    0    0    0  0.00000000000E+00  0.00000000000E+00  0.99999944178E+02  0.99999999998E+02  0.10566000000E+00 0.  1.
         22   -1    0    0    0    0 -0.00000000000E+00 -0.00000000000E+00 -0.19236827459E+02  0.19236827459E+02  0.00000000000E+00 0. -1.
         13    1    1    2    0    0 -0.73776869265E+01 -0.14495409371E+02 -0.63705738705E+01  0.17468329419E+02  0.10566000000E+00 0. -1.
        996    1    1    2    0    0  0.73776869265E+01  0.14495409371E+02  0.87133690590E+02  0.10176849804E+03  0.50000000000E+02 0.  0.
<mgrwt>
<rscale>  0 0.52578961E+02</rscale>
<asrwt>0</asrwt>
<pdfrwt beam="1">  1       13 0.10000000E+01 0.52578961E+02</pdfrwt>
<pdfrwt beam="2">  1       22 0.19236850E+00 0.52578961E+02</pdfrwt>
<totfact> 0.48745107E-01</totfact>
</mgrwt>
</event>
<event>
 4    1  0.2451537E+000  0.5821626E+02  0.7957747E-01  0.1405473E+00
         13   -1    0    0    0    0  0.00000000000E+00  0.00000000000E+00  0.99999944178E+02  0.99999999998E+02  0.10566000000E+00 0.  1.
         22   -1    0    0    0    0 -0.00000000000E+00 -0.00000000000E+00 -0.66381281826E+02  0.66381281826E+02  0.00000000000E+00 0. -1.
         13    1    1    2    0    0  0.23357375329E+01  0.29726717287E+02 -0.53706907308E+02  0.61429442836E+02  0.10566000000E+00 0. -1.
        996    1    1    2    0    0 -0.23357375329E+01 -0.29726717287E+02  0.87325569660E+02  0.10495183899E+03  0.50000000000E+02 0.  0.
<mgrwt>
<rscale>  0 0.58216264E+02</rscale>
<asrwt>0</asrwt>
<pdfrwt beam="1">  1       13 0.10000000E+01 0.58216264E+02</pdfrwt>
<pdfrwt beam="2">  1       22 0.66381291E+00 0.58216264E+02</pdfrwt>
<totfact> 0.87101884E-02</totfact>
</mgrwt>
</event>
<event>
 4    1  0.2451537E+000  0.5702272E+02  0.7957747E-01  0.1410768E+00
         13   -1    0    0    0    0  0.00000000000E+00  0.00000000000E+00  0.99999944180E+02  0.10000000000E+03  0.10566000000E+00 0. -1.
         22   -1    0    0    0    0 -0.00000000000E+00 -0.00000000000E+00 -0.20388028335E+02  0.20388028335E+02  0.00000000000E+00 0.  1.
         13    1    1    2    0    0  0.22646104854E+02  0.15451373672E+02  0.74385527119E+01  0.28406588037E+02  0.10566000000E+00 0.  1.
        996    1    1    2    0    0 -0.22646104854E+02 -0.15451373672E+02  0.72173363133E+02  0.91981440298E+02  0.50000000000E+02 0.  0.
<mgrwt>
<rscale>  0 0.57022724E+02</rscale>
<asrwt>0</asrwt>
<pdfrwt beam="1">  1       13 0.10000000E+01 0.57022724E+02</pdfrwt>
<pdfrwt beam="2">  1       22 0.20388051E+00 0.57022724E+02</pdfrwt>
<totfact> 0.44080131E-01</totfact>
</mgrwt>
</event>
<event>
 4    1  0.2451537E+000  0.5272522E+02  0.7957747E-01  0.1431173E+00
         13   -1    0    0    0    0  0.00000000000E+00  0.00000000000E+00  0.99999944180E+02  0.10000000000E+03  0.10566000000E+00 0.  1.
         22   -1    0    0    0    0 -0.00000000000E+00 -0.00000000000E+00 -0.13418062423E+02  0.13418062423E+02  0.00000000000E+00 0.  1.
         13    1    1    2    0    0  0.16277787937E+02 -0.38706564443E+01  0.74170517475E+01  0.18302245275E+02  0.10566000000E+00 0. -1.
        996    1    1    2    0    0 -0.16277787937E+02  0.38706564443E+01  0.79164830010E+02  0.95115817149E+02  0.50000000000E+02 0.  0.
<mgrwt>
<rscale>  0 0.52725216E+02</rscale>
<asrwt>0</asrwt>
<pdfrwt beam="1">  1       13 0.10000000E+01 0.52725216E+02</pdfrwt>
<pdfrwt beam="2">  1       22 0.13418087E+00 0.52725216E+02</pdfrwt>
<totfact> 0.90421674E-01</totfact>
</mgrwt>
</event>
<event>
 4    1  0.2451537E+000  0.5121815E+02  0.7957747E-01  0.1438880E+00
         13   -1    0    0    0    0  0.00000000000E+00  0.00000000000E+00  0.99999944170E+02  0.99999999990E+02  0.10566000000E+00 0. -1.
         22   -1    0    0    0    0 -0.00000000000E+00 -0.00000000000E+00 -0.13065479231E+02  0.13065479231E+02  0.00000000000E+00 0.  1.
         13    1    1    2    0    0  0.25736332607E+01 -0.10801651616E+02 -0.11589083225E+01  0.11164833108E+02  0.10566000000E+00 0.  1.
        996    1    1    2    0    0 -0.25736332607E+01  0.10801651616E+02  0.88093373261E+02  0.10190064611E+03  0.50000000000E+02 0.  0.
<mgrwt>
<rscale>  0 0.51218154E+02</rscale>
<asrwt>0</asrwt>
<pdfrwt beam="1">  1       13 0.10000000E+01 0.51218154E+02</pdfrwt>
<pdfrwt beam="2">  1       22 0.13065503E+00 0.51218154E+02</pdfrwt>
<totfact> 0.94017092E-01</totfact>
</mgrwt>
</event>
<event>
 4    1  0.2451537E+000  0.7016368E+02  0.7957747E-01  0.1359537E+00
         13   -1    0    0    0    0  0.00000000000E+00  0.00000000000E+00  0.99999944165E+02  0.99999999986E+02  0.10566000000E+00 0.  1.
         22   -1    0    0    0    0 -0.00000000000E+00 -0.00000000000E+00 -0.71708999080E+02  0.71708999080E+02  0.00000000000E+00 0. -1.
         13    1    1    2    0    0 -0.28648259153E+02 -0.40027724797E+02 -0.47515487210E+02  0.68415452887E+02  0.10566000000E+00 0. -1.
        996    1    1    2    0    0  0.28648259153E+02  0.40027724797E+02  0.75806432295E+02  0.10329354618E+03  0.50000000000E+02 0.  0.
<mgrwt>
<rscale>  0 0.70163677E+02</rscale>
<asrwt>0</asrwt>
<pdfrwt beam="1">  1       13 0.10000000E+01 0.70163677E+02</pdfrwt>
<pdfrwt beam="2">  1       22 0.71709007E+00 0.70163677E+02</pdfrwt>
<totfact> 0.65590933E-02</totfact>
</mgrwt>
</event>
<event>
 4    1  0.2451537E+000  0.6676556E+02  0.7957747E-01  0.1371451E+00
         13   -1    0    0    0    0  0.00000000000E+00  0.00000000000E+00  0.99999944183E+02  0.10000000000E+03  0.10566000000E+00 0.  1.
         22   -1    0    0    0    0 -0.00000000000E+00 -0.00000000000E+00 -0.56466793362E+02  0.56466793362E+02  0.00000000000E+00 0. -1.
         13    1    1    2    0    0  0.41611331345E+02 -0.15037862834E+02 -0.32783436630E+02  0.55067277908E+02  0.10566000000E+00 0. -1.
        996    1    1    2    0    0 -0.41611331345E+02  0.15037862834E+02  0.76316587451E+02  0.10139951546E+03  0.50000000000E+02 0.  0.
<mgrwt>
<rscale>  0 0.66765562E+02</rscale>
<asrwt>0</asrwt>
<pdfrwt beam="1">  1       13 0.10000000E+01 0.66765562E+02</pdfrwt>
<pdfrwt beam="2">  1       22 0.56466806E+00 0.66765562E+02</pdfrwt>
<totfact> 0.58267210E-02</totfact>
</mgrwt>
</event>
<event>
 4    1  0.2451537E+000  0.5193204E+02  0.7957747E-01  0.1435191E+00
         13   -1    0    0    0    0  0.00000000000E+00  0.00000000000E+00  0.99999944181E+02  0.10000000000E+03  0.10566000000E+00 0. -1.
         22   -1    0    0    0    0 -0.00000000000E+00 -0.00000000000E+00 -0.14807613189E+02  0.14807613189E+02  0.00000000000E+00 0. -1.
         13    1    1    2    0    0  0.13969566520E+02  0.13370765317E+01 -0.11179524808E+01  0.14078264957E+02  0.10566000000E+00 0.  1.
        996    1    1    2    0    0 -0.13969566520E+02 -0.13370765317E+01  0.86310283473E+02  0.10072934823E+03  0.50000000000E+02 0.  0.
<mgrwt>
<rscale>  0 0.51932038E+02</rscale>
<asrwt>0</asrwt>
<pdfrwt beam="1">  1       13 0.10000000E+01 0.51932038E+02</pdfrwt>
<pdfrwt beam="2">  1       22 0.14807637E+00 0.51932038E+02</pdfrwt>
<totfact> 0.76913300E-01</totfact>
</mgrwt>
</event>
<event>
 4    1  0.2451537E+000  0.5116281E+02  0.7957747E-01  0.1439169E+00
         13   -1    0    0    0    0  0.00000000000E+00  0.00000000000E+00  0.99999944174E+02  0.99999999994E+02  0.10566000000E+00 0.  1.
         22   -1    0    0    0    0 -0.00000000000E+00 -0.00000000000E+00 -0.10759640333E+02  0.10759640333E+02  0.00000000000E+00 0.  1.
         13    1    1    2    0    0  0.10805131089E+02 -0.93929639515E+00  0.44386262467E+01  0.11719458288E+02  0.10566000000E+00 0. -1.
        996    1    1    2    0    0 -0.10805131089E+02  0.93929639515E+00  0.84801677594E+02  0.99040182039E+02  0.50000000000E+02 0.  0.
<mgrwt>
<rscale>  0 0.51162810E+02</rscale>
<asrwt>0</asrwt>
<pdfrwt beam="1">  1       13 0.10000000E+01 0.51162810E+02</pdfrwt>
<pdfrwt beam="2">  1       22 0.10759665E+00 0.51162810E+02</pdfrwt>
<totfact> 0.12640638E+00</totfact>
</mgrwt>
</event>
<event>
 4    1  0.2451537E+000  0.5120615E+02  0.7957747E-01  0.1438942E+00
         13   -1    0    0    0    0  0.00000000000E+00  0.00000000000E+00  0.99999944173E+02  0.99999999994E+02  0.10566000000E+00 0.  1.
         22   -1    0    0    0    0 -0.00000000000E+00 -0.00000000000E+00 -0.34705699940E+02  0.34705699940E+02  0.00000000000E+00 0. -1.
         13    1    1    2    0    0 -0.51960964326E+01  0.97504102043E+01 -0.26991554293E+02  0.29165477615E+02  0.10566000000E+00 0. -1.
        996    1    1    2    0    0  0.51960964326E+01 -0.97504102043E+01  0.92285798527E+02  0.10554022232E+03  0.50000000000E+02 0.  0.
<mgrwt>
<rscale>  0 0.51206151E+02</rscale>
<asrwt>0</asrwt>
<pdfrwt beam="1">  1       13 0.10000000E+01 0.51206151E+02</pdfrwt>
<pdfrwt beam="2">  1       22 0.34705718E+00 0.51206151E+02</pdfrwt>
<totfact> 0.15933885E-01</totfact>
</mgrwt>
</event>
<event>
 4    1  0.2451537E+000  0.6226885E+02  0.7957747E-01  0.1388550E+00
         13   -1    0    0    0    0  0.00000000000E+00  0.00000000000E+00  0.99999944174E+02  0.99999999994E+02  0.10566000000E+00 0. -1.
         22   -1    0    0    0    0 -0.00000000000E+00 -0.00000000000E+00 -0.31597963025E+02  0.31597963025E+02  0.00000000000E+00 0.  1.
         13    1    1    2    0    0 -0.27290988930E+02 -0.25151769588E+02 -0.25446452422E+01  0.37200752327E+02  0.10566000000E+00 0.  1.
        996    1    1    2    0    0  0.27290988930E+02  0.25151769588E+02  0.70946626391E+02  0.94397210693E+02  0.50000000000E+02 0.  0.
<mgrwt>
<rscale>  0 0.62268849E+02</rscale>
<asrwt>0</asrwt>
<pdfrwt beam="1">  1       13 0.10000000E+01 0.62268849E+02</pdfrwt>
<pdfrwt beam="2">  1       22 0.31597982E+00 0.62268849E+02</pdfrwt>
<totfact> 0.19038455E-01</totfact>
</mgrwt>
</event>
<event>
 4    1  0.2451537E+000  0.5136162E+02  0.7957747E-01  0.1438133E+00
         13   -1    0    0    0    0  0.00000000000E+00  0.00000000000E+00  0.99999944175E+02  0.99999999995E+02  0.10566000000E+00 0.  1.
         22   -1    0    0    0    0 -0.00000000000E+00 -0.00000000000E+00 -0.13671204110E+02  0.13671204110E+02  0.00000000000E+00 0. -1.
         13    1    1    2    0    0 -0.10937216361E+02 -0.42887128714E+01 -0.15835918011E+01  0.11854732677E+02  0.10566000000E+00 0. -1.
        996    1    1    2    0    0  0.10937216361E+02  0.42887128714E+01  0.87912331867E+02  0.10181647143E+03  0.50000000000E+02 0.  0.
<mgrwt>
<rscale>  0 0.51361618E+02</rscale>
<asrwt>0</asrwt>
<pdfrwt beam="1">  1       13 0.10000000E+01 0.51361618E+02</pdfrwt>
<pdfrwt beam="2">  1       22 0.13671228E+00 0.51361618E+02</pdfrwt>
<totfact> 0.87504057E-01</totfact>
</mgrwt>
</event>
<event>
 4    1  0.2451537E+000  0.5539126E+02  0.7957747E-01  0.1418258E+00
         13   -1    0    0    0    0  0.00000000000E+00  0.00000000000E+00  0.99999944182E+02  0.10000000000E+03  0.10566000000E+00 0. -1.
         22   -1    0    0    0    0 -0.00000000000E+00 -0.00000000000E+00 -0.16617916578E+02  0.16617916578E+02  0.00000000000E+00 0.  1.
         13    1    1    2    0    0 -0.23804935597E+02  0.12316871829E+01  0.13325422553E+02  0.27308790935E+02  0.10566000000E+00 0.  1.
        996    1    1    2    0    0  0.23804935597E+02 -0.12316871829E+01  0.70056605051E+02  0.89309125644E+02  0.50000000000E+02 0.  0.
<mgrwt>
<rscale>  0 0.55391263E+02</rscale>
<asrwt>0</asrwt>
<pdfrwt beam="1">  1       13 0.10000000E+01 0.55391263E+02</pdfrwt>
<pdfrwt beam="2">  1       22 0.16617940E+00 0.55391263E+02</pdfrwt>
<totfact> 0.63664276E-01</totfact>
</mgrwt>
</event>
<event>
 4    1  0.2451537E+000  0.5298769E+02  0.7957747E-01  0.1429862E+00
         13   -1    0    0    0    0  0.00000000000E+00  0.00000000000E+00  0.99999944186E+02  0.10000000001E+03  0.10566000000E+00 0.  1.
         22   -1    0    0    0    0 -0.00000000000E+00 -0.00000000000E+00 -0.21007988871E+02  0.21007988871E+02  0.00000000000E+00 0.  1.
         13    1    1    2    0    0 -0.14763708823E+02  0.94725244232E+01 -0.78966445968E+01  0.19237046995E+02  0.10566000000E+00 0. -1.
        996    1    1    2    0    0  0.14763708823E+02 -0.94725244232E+01  0.86888599912E+02  0.10177094188E+03  0.50000000000E+02 0.  0.
<mgrwt>
<rscale>  0 0.52987695E+02</rscale>
<asrwt>0</asrwt>
<pdfrwt beam="1">  1       13 0.10000000E+01 0.52987695E+02</pdfrwt>
<pdfrwt beam="2">  1       22 0.21008011E+00 0.52987695E+02</pdfrwt>
<totfact> 0.41375708E-01</totfact>
</mgrwt>
</event>
<event>
 4    1  0.2451537E+000  0.5203288E+02  0.7957747E-01  0.1434675E+00
         13   -1    0    0    0    0  0.00000000000E+00  0.00000000000E+00  0.99999944184E+02  0.10000000000E+03  0.10566000000E+00 0. -1.
         22   -1    0    0    0    0 -0.00000000000E+00 -0.00000000000E+00 -0.11819414038E+02  0.11819414038E+02  0.00000000000E+00 0. -1.
         13    1    1    2    0    0  0.32455535466E+01  0.14031645458E+02  0.87143333973E+01  0.16833640803E+02  0.10566000000E+00 0.  1.
        996    1    1    2    0    0 -0.32455535466E+01 -0.14031645458E+02  0.79466196749E+02  0.94985773239E+02  0.50000000000E+02 0.  0.
<mgrwt>
<rscale>  0 0.52032881E+02</rscale>
<asrwt>0</asrwt>
<pdfrwt beam="1">  1       13 0.10000000E+01 0.52032881E+02</pdfrwt>
<pdfrwt beam="2">  1       22 0.11819439E+00 0.52032881E+02</pdfrwt>
<totfact> 0.11002124E+00</totfact>
</mgrwt>
</event>
<event>
 4    1  0.2451537E+000  0.5208259E+02  0.7957747E-01  0.1434422E+00
         13   -1    0    0    0    0  0.00000000000E+00  0.00000000000E+00  0.99999944181E+02  0.10000000000E+03  0.10566000000E+00 0.  1.
         22   -1    0    0    0    0 -0.00000000000E+00 -0.00000000000E+00 -0.22919417341E+02  0.22919417341E+02  0.00000000000E+00 0. -1.
         13    1    1    2    0    0  0.72280152486E+01 -0.12663029855E+02 -0.12561307222E+02  0.19245626326E+02  0.10566000000E+00 0. -1.
        996    1    1    2    0    0 -0.72280152486E+01  0.12663029855E+02  0.89641834062E+02  0.10367379102E+03  0.50000000000E+02 0.  0.
<mgrwt>
<rscale>  0 0.52082593E+02</rscale>
<asrwt>0</asrwt>
<pdfrwt beam="1">  1       13 0.10000000E+01 0.52082593E+02</pdfrwt>
<pdfrwt beam="2">  1       22 0.22919439E+00 0.52082593E+02</pdfrwt>
<totfact> 0.34948425E-01</totfact>
</mgrwt>
</event>
<event>
 4    1  0.2451537E+000  0.5405323E+02  0.7957747E-01  0.1424630E+00
         13   -1    0    0    0    0  0.00000000000E+00  0.00000000000E+00  0.99999944183E+02  0.10000000000E+03  0.10566000000E+00 0.  1.
         22   -1    0    0    0    0 -0.00000000000E+00 -0.00000000000E+00 -0.14932115267E+02  0.14932115267E+02  0.00000000000E+00 0. -1.
         13    1    1    2    0    0  0.20256920573E+02 -0.33777562173E+01  0.11178130147E+02  0.23381912364E+02  0.10566000000E+00 0. -1.
        996    1    1    2    0    0 -0.20256920573E+02  0.33777562173E+01  0.73889698768E+02  0.91550202907E+02  0.50000000000E+02 0.  0.
<mgrwt>
<rscale>  0 0.54053234E+02</rscale>
<asrwt>0</asrwt>
<pdfrwt beam="1">  1       13 0.10000000E+01 0.54053234E+02</pdfrwt>
<pdfrwt beam="2">  1       22 0.14932139E+00 0.54053234E+02</pdfrwt>
<totfact> 0.76175663E-01</totfact>
</mgrwt>
</event>
<event>
 4    1  0.2451537E+000  0.5118959E+02  0.7957747E-01  0.1439029E+00
         13   -1    0    0    0    0  0.00000000000E+00  0.00000000000E+00  0.99999944176E+02  0.99999999996E+02  0.10566000000E+00 0.  1.
         22   -1    0    0    0    0 -0.00000000000E+00 -0.00000000000E+00 -0.10260302970E+02  0.10260302970E+02  0.00000000000E+00 0.  1.
         13    1    1    2    0    0 -0.12026344896E+01 -0.10905399383E+02  0.71591442902E+01  0.13101090658E+02  0.10566000000E+00 0. -1.
        996    1    1    2    0    0  0.12026344896E+01  0.10905399383E+02  0.82580496916E+02  0.97159212308E+02  0.50000000000E+02 0.  0.
<mgrwt>
<rscale>  0 0.51189589E+02</rscale>
<asrwt>0</asrwt>
<pdfrwt beam="1">  1       13 0.10000000E+01 0.51189589E+02</pdfrwt>
<pdfrwt beam="2">  1       22 0.10260328E+00 0.51189589E+02</pdfrwt>
<totfact> 0.13554595E+00</totfact>
</mgrwt>
</event>
<event>
 4    1  0.2451537E+000  0.5175926E+02  0.7957747E-01  0.1436077E+00
         13   -1    0    0    0    0  0.00000000000E+00  0.00000000000E+00  0.99999944177E+02  0.99999999997E+02  0.10566000000E+00 0. -1.
         22   -1    0    0    0    0 -0.00000000000E+00 -0.00000000000E+00 -0.12192881014E+02  0.12192881014E+02  0.00000000000E+00 0.  1.
         13    1    1    2    0    0  0.71595909150E+00  0.13360698677E+02  0.45014988771E+01  0.14117206620E+02  0.10566000000E+00 0.  1.
        996    1    1    2    0    0 -0.71595909150E+00 -0.13360698677E+02  0.83305564285E+02  0.98075674392E+02  0.50000000000E+02 0.  0.
<mgrwt>
<rscale>  0 0.51759259E+02</rscale>
<asrwt>0</asrwt>
<pdfrwt beam="1">  1       13 0.10000000E+01 0.51759259E+02</pdfrwt>
<pdfrwt beam="2">  1       22 0.12192906E+00 0.51759259E+02</pdfrwt>
<totfact> 0.10483689E+00</totfact>
</mgrwt>
</event>
<event>
 4    1  0.2451537E+000  0.5154598E+02  0.7957747E-01  0.1437177E+00
         13   -1    0    0    0    0  0.00000000000E+00  0.00000000000E+00  0.99999944184E+02  0.10000000000E+03  0.10566000000E+00 0. -1.
         22   -1    0    0    0    0 -0.00000000000E+00 -0.00000000000E+00 -0.38990484833E+02  0.38990484833E+02  0.00000000000E+00 0.  1.
         13    1    1    2    0    0  0.12516108479E+02 -0.57895467005E+00 -0.31049807704E+02  0.33482680336E+02  0.10566000000E+00 0.  1.
        996    1    1    2    0    0 -0.12516108479E+02  0.57895467005E+00  0.92059267055E+02  0.10550780450E+03  0.50000000000E+02 0.  0.
<mgrwt>
<rscale>  0 0.51545981E+02</rscale>
<asrwt>0</asrwt>
<pdfrwt beam="1">  1       13 0.10000000E+01 0.51545981E+02</pdfrwt>
<pdfrwt beam="2">  1       22 0.38990502E+00 0.51545981E+02</pdfrwt>
<totfact> 0.12967881E-01</totfact>
</mgrwt>
</event>
<event>
 4    1  0.2451537E+000  0.5311610E+02  0.7957747E-01  0.1429224E+00
         13   -1    0    0    0    0  0.00000000000E+00  0.00000000000E+00  0.99999944182E+02  0.10000000000E+03  0.10566000000E+00 0. -1.
         22   -1    0    0    0    0 -0.00000000000E+00 -0.00000000000E+00 -0.17261471202E+02  0.17261471202E+02  0.00000000000E+00 0.  1.
         13    1    1    2    0    0  0.17924630792E+02  0.16685957303E+00 -0.11592815020E+01  0.17963165890E+02  0.10566000000E+00 0.  1.
        996    1    1    2    0    0 -0.17924630792E+02 -0.16685957303E+00  0.83897754482E+02  0.99298305315E+02  0.50000000000E+02 0.  0.
<mgrwt>
<rscale>  0 0.53116101E+02</rscale>
<asrwt>0</asrwt>
<pdfrwt beam="1">  1       13 0.10000000E+01 0.53116101E+02</pdfrwt>
<pdfrwt beam="2">  1       22 0.17261494E+00 0.53116101E+02</pdfrwt>
<totfact> 0.59314932E-01</totfact>
</mgrwt>
</event>
<event>
 4    1  0.2451537E+000  0.5198263E+02  0.7957747E-01  0.1434932E+00
         13   -1    0    0    0    0  0.00000000000E+00  0.00000000000E+00  0.99999944177E+02  0.99999999997E+02  0.10566000000E+00 0. -1.
         22   -1    0    0    0    0 -0.00000000000E+00 -0.00000000000E+00 -0.11462387455E+02  0.11462387455E+02  0.00000000000E+00 0. -1.
         13    1    1    2    0    0  0.50323493508E+01  0.13299213067E+02  0.10416451869E+02  0.17626889736E+02  0.10566000000E+00 0.  1.
        996    1    1    2    0    0 -0.50323493508E+01 -0.13299213067E+02  0.78121104853E+02  0.93835497716E+02  0.50000000000E+02 0.  0.
<mgrwt>
<rscale>  0 0.51982628E+02</rscale>
<asrwt>0</asrwt>
<pdfrwt beam="1">  1       13 0.10000000E+01 0.51982628E+02</pdfrwt>
<pdfrwt beam="2">  1       22 0.11462412E+00 0.51982628E+02</pdfrwt>
<totfact> 0.11523914E+00</totfact>
</mgrwt>
</event>
<event>
 4    1  0.2451537E+000  0.5263365E+02  0.7957747E-01  0.1431633E+00
         13   -1    0    0    0    0  0.00000000000E+00  0.00000000000E+00  0.99999944177E+02  0.99999999997E+02  0.10566000000E+00 0. -1.
         22   -1    0    0    0    0 -0.00000000000E+00 -0.00000000000E+00 -0.20575674066E+02  0.20575674066E+02  0.00000000000E+00 0.  1.
         13    1    1    2    0    0 -0.16311126530E+02  0.20611785512E+01 -0.81893181351E+01  0.18367836052E+02  0.10566000000E+00 0.  1.
        996    1    1    2    0    0  0.16311126530E+02 -0.20611785512E+01  0.87613588246E+02  0.10220783801E+03  0.50000000000E+02 0.  0.
<mgrwt>
<rscale>  0 0.52633652E+02</rscale>
<asrwt>0</asrwt>
<pdfrwt beam="1">  1       13 0.10000000E+01 0.52633652E+02</pdfrwt>
<pdfrwt beam="2">  1       22 0.20575696E+00 0.52633652E+02</pdfrwt>
<totfact> 0.43008542E-01</totfact>
</mgrwt>
</event>
<event>
 4    1  0.2451537E+000  0.5099215E+02  0.7957747E-01  0.1440062E+00
         13   -1    0    0    0    0  0.00000000000E+00  0.00000000000E+00  0.99999944179E+02  0.99999999999E+02  0.10566000000E+00 0.  1.
         22   -1    0    0    0    0 -0.00000000000E+00 -0.00000000000E+00 -0.10075737830E+02  0.10075737830E+02  0.00000000000E+00 0.  1.
         13    1    1    2    0    0 -0.98432732695E+01 -0.18192913271E+01  0.54337721580E+01  0.11390210424E+02  0.10566000000E+00 0. -1.
        996    1    1    2    0    0  0.98432732695E+01  0.18192913271E+01  0.84490434191E+02  0.98685527405E+02  0.50000000000E+02 0.  0.
<mgrwt>
<rscale>  0 0.50992155E+02</rscale>
<asrwt>0</asrwt>
<pdfrwt beam="1">  1       13 0.10000000E+01 0.50992155E+02</pdfrwt>
<pdfrwt beam="2">  1       22 0.10075763E+00 0.50992155E+02</pdfrwt>
<totfact> 0.13910527E+00</totfact>
</mgrwt>
</event>
<event>
 4    1  0.2451537E+000  0.5196689E+02  0.7957747E-01  0.1435012E+00
         13   -1    0    0    0    0  0.00000000000E+00  0.00000000000E+00  0.99999944179E+02  0.99999999999E+02  0.10566000000E+00 0.  1.
         22   -1    0    0    0    0 -0.00000000000E+00 -0.00000000000E+00 -0.28756974668E+02  0.28756974668E+02  0.00000000000E+00 0. -1.
         13    1    1    2    0    0  0.13670608437E+02 -0.36975686122E+01 -0.19551861723E+02  0.24142162487E+02  0.10566000000E+00 0. -1.
        996    1    1    2    0    0 -0.13670608437E+02  0.36975686122E+01  0.90794831234E+02  0.10461481218E+03  0.50000000000E+02 0.  0.
<mgrwt>
<rscale>  0 0.51966889E+02</rscale>
<asrwt>0</asrwt>
<pdfrwt beam="1">  1       13 0.10000000E+01 0.51966889E+02</pdfrwt>
<pdfrwt beam="2">  1       22 0.28756995E+00 0.51966889E+02</pdfrwt>
<totfact> 0.22428207E-01</totfact>
</mgrwt>
</event>
<event>
 4    1  0.2451537E+000  0.5167958E+02  0.7957747E-01  0.1436487E+00
         13   -1    0    0    0    0  0.00000000000E+00  0.00000000000E+00  0.99999944176E+02  0.99999999996E+02  0.10566000000E+00 0.  1.
         22   -1    0    0    0    0 -0.00000000000E+00 -0.00000000000E+00 -0.11428944792E+02  0.11428944792E+02  0.00000000000E+00 0.  1.
         13    1    1    2    0    0  0.11845940121E+02  0.55183725197E+01  0.68944634340E+01  0.14775774860E+02  0.10566000000E+00 0. -1.
        996    1    1    2    0    0 -0.11845940121E+02 -0.55183725197E+01  0.81676535949E+02  0.96653169929E+02  0.50000000000E+02 0.  0.
<mgrwt>
<rscale>  0 0.51679578E+02</rscale>
<asrwt>0</asrwt>
<pdfrwt beam="1">  1       13 0.10000000E+01 0.51679578E+02</pdfrwt>
<pdfrwt beam="2">  1       22 0.11428970E+00 0.51679578E+02</pdfrwt>
<totfact> 0.11566727E+00</totfact>
</mgrwt>
</event>
<event>
 4    1  0.2451537E+000  0.5567156E+02  0.7957747E-01  0.1416949E+00
         13   -1    0    0    0    0  0.00000000000E+00  0.00000000000E+00  0.99999944179E+02  0.99999999999E+02  0.10566000000E+00 0.  1.
         22   -1    0    0    0    0 -0.00000000000E+00 -0.00000000000E+00 -0.24421904265E+02  0.24421904265E+02  0.00000000000E+00 0. -1.
         13    1    1    2    0    0  0.21750300752E+02  0.11235973017E+02 -0.64216237468E+01  0.25309505883E+02  0.10566000000E+00 0. -1.
        996    1    1    2    0    0 -0.21750300752E+02 -0.11235973017E+02  0.81999663661E+02  0.99112398381E+02  0.50000000000E+02 0.  0.
<mgrwt>
<rscale>  0 0.55671561E+02</rscale>
<asrwt>0</asrwt>
<pdfrwt beam="1">  1       13 0.10000000E+01 0.55671561E+02</pdfrwt>
<pdfrwt beam="2">  1       22 0.24421925E+00 0.55671561E+02</pdfrwt>
<totfact> 0.31041385E-01</totfact>
</mgrwt>
</event>
<event>
 4    1  0.2451537E+000  0.7877293E+02  0.7957747E-01  0.1332570E+00
         13   -1    0    0    0    0  0.00000000000E+00  0.00000000000E+00  0.99999944174E+02  0.99999999994E+02  0.10566000000E+00 0.  1.
         22   -1    0    0    0    0 -0.00000000000E+00 -0.00000000000E+00 -0.59816879350E+02  0.59816879350E+02  0.00000000000E+00 0. -1.
         13    1    1    2    0    0 -0.60256118968E+02 -0.86240316282E+01 -0.16147045705E+02  0.62975487641E+02  0.10566000000E+00 0. -1.
        996    1    1    2    0    0  0.60256118968E+02  0.86240316282E+01  0.56330110529E+02  0.96841391702E+02  0.50000000000E+02 0.  0.
<mgrwt>
<rscale>  0 0.78772926E+02</rscale>
<asrwt>0</asrwt>
<pdfrwt beam="1">  1       13 0.10000000E+01 0.78772926E+02</pdfrwt>
<pdfrwt beam="2">  1       22 0.59816891E+00 0.78772926E+02</pdfrwt>
<totfact> 0.63120434E-02</totfact>
</mgrwt>
</event>
<event>
 4    1  0.2451537E+000  0.6407648E+02  0.7957747E-01  0.1381479E+00
         13   -1    0    0    0    0  0.00000000000E+00  0.00000000000E+00  0.99999944177E+02  0.99999999998E+02  0.10566000000E+00 0. -1.
         22   -1    0    0    0    0 -0.00000000000E+00 -0.00000000000E+00 -0.50950255915E+02  0.50950255915E+02  0.00000000000E+00 0.  1.
         13    1    1    2    0    0 -0.35146490695E+02 -0.19248881021E+02 -0.29368585029E+02  0.49682191773E+02  0.10566000000E+00 0.  1.
        996    1    1    2    0    0  0.35146490695E+02  0.19248881021E+02  0.78418273291E+02  0.10126806414E+03  0.50000000000E+02 0.  0.
<mgrwt>
<rscale>  0 0.64076480E+02</rscale>
<asrwt>0</asrwt>
<pdfrwt beam="1">  1       13 0.10000000E+01 0.64076480E+02</pdfrwt>
<pdfrwt beam="2">  1       22 0.50950270E+00 0.64076480E+02</pdfrwt>
<totfact> 0.70262045E-02</totfact>
</mgrwt>
</event>
<event>
 4    1  0.2451537E+000  0.5213212E+02  0.7957747E-01  0.1434169E+00
         13   -1    0    0    0    0  0.00000000000E+00  0.00000000000E+00  0.99999944184E+02  0.10000000000E+03  0.10566000000E+00 0.  1.
         22   -1    0    0    0    0 -0.00000000000E+00 -0.00000000000E+00 -0.11535171604E+02  0.11535171604E+02  0.00000000000E+00 0.  1.
         13    1    1    2    0    0 -0.26222453891E+01 -0.14521751416E+02  0.12157173212E+02  0.19119766202E+02  0.10566000000E+00 0. -1.
        996    1    1    2    0    0  0.26222453891E+01  0.14521751416E+02  0.76307599368E+02  0.92415405406E+02  0.50000000000E+02 0.  0.
<mgrwt>
<rscale>  0 0.52132115E+02</rscale>
<asrwt>0</asrwt>
<pdfrwt beam="1">  1       13 0.10000000E+01 0.52132115E+02</pdfrwt>
<pdfrwt beam="2">  1       22 0.11535196E+00 0.52132115E+02</pdfrwt>
<totfact> 0.11418279E+00</totfact>
</mgrwt>
</event>
<event>
 4    1  0.2451537E+000  0.5415572E+02  0.7957747E-01  0.1424134E+00
         13   -1    0    0    0    0  0.00000000000E+00  0.00000000000E+00  0.99999944177E+02  0.99999999997E+02  0.10566000000E+00 0.  1.
         22   -1    0    0    0    0 -0.00000000000E+00 -0.00000000000E+00 -0.35691430550E+02  0.35691430550E+02  0.00000000000E+00 0. -1.
         13    1    1    2    0    0  0.14732145574E+01 -0.20752629367E+02 -0.24209537167E+02  0.31921072047E+02  0.10566000000E+00 0. -1.
        996    1    1    2    0    0 -0.14732145574E+01  0.20752629367E+02  0.88518050794E+02  0.10377035850E+03  0.50000000000E+02 0.  0.
<mgrwt>
<rscale>  0 0.54155720E+02</rscale>
<asrwt>0</asrwt>
<pdfrwt beam="1">  1       13 0.10000000E+01 0.54155720E+02</pdfrwt>
<pdfrwt beam="2">  1       22 0.35691449E+00 0.54155720E+02</pdfrwt>
<totfact> 0.15219468E-01</totfact>
</mgrwt>
</event>
<event>
 4    1  0.2451537E+000  0.5360946E+02  0.7957747E-01  0.1426792E+00
         13   -1    0    0    0    0  0.00000000000E+00  0.00000000000E+00  0.99999944173E+02  0.99999999994E+02  0.10566000000E+00 0. -1.
         22   -1    0    0    0    0 -0.00000000000E+00 -0.00000000000E+00 -0.16307747382E+02  0.16307747382E+02  0.00000000000E+00 0.  1.
         13    1    1    2    0    0 -0.17463910735E+01  0.19259382663E+02  0.32069497328E+01  0.19602790438E+02  0.10566000000E+00 0.  1.
        996    1    1    2    0    0  0.17463910735E+01 -0.19259382663E+02  0.80485247058E+02  0.96704956938E+02  0.50000000000E+02 0.  0.
<mgrwt>
<rscale>  0 0.53609455E+02</rscale>
<asrwt>0</asrwt>
<pdfrwt beam="1">  1       13 0.10000000E+01 0.53609455E+02</pdfrwt>
<pdfrwt beam="2">  1       22 0.16307771E+00 0.53609455E+02</pdfrwt>
<totfact> 0.65557092E-01</totfact>
</mgrwt>
</event>
<event>
 4    1  0.2451537E+000  0.5424029E+02  0.7957747E-01  0.1423726E+00
         13   -1    0    0    0    0  0.00000000000E+00  0.00000000000E+00  0.99999944182E+02  0.10000000000E+03  0.10566000000E+00 0.  1.
         22   -1    0    0    0    0 -0.00000000000E+00 -0.00000000000E+00 -0.14357535770E+02  0.14357535770E+02  0.00000000000E+00 0. -1.
         13    1    1    2    0    0  0.20684633190E+02 -0.37623519220E+01  0.30180471733E+02  0.36781535860E+02  0.10566000000E+00 0. -1.
        996    1    1    2    0    0 -0.20684633190E+02  0.37623519220E+01  0.55461936679E+02  0.77575999912E+02  0.50000000000E+02 0.  0.
<mgrwt>
<rscale>  0 0.54240293E+02</rscale>
<asrwt>0</asrwt>
<pdfrwt beam="1">  1       13 0.10000000E+01 0.54240293E+02</pdfrwt>
<pdfrwt beam="2">  1       22 0.14357560E+00 0.54240293E+02</pdfrwt>
<totfact> 0.81304070E-01</totfact>
</mgrwt>
</event>
<event>
 4    1  0.2451537E+000  0.5149680E+02  0.7957747E-01  0.1437431E+00
         13   -1    0    0    0    0  0.00000000000E+00  0.00000000000E+00  0.99999944175E+02  0.99999999995E+02  0.10566000000E+00 0.  1.
         22   -1    0    0    0    0 -0.00000000000E+00 -0.00000000000E+00 -0.11860110758E+02  0.11860110758E+02  0.00000000000E+00 0.  1.
         13    1    1    2    0    0  0.11539667505E+02  0.43308522127E+01  0.35484095710E+01  0.12826635628E+02  0.10566000000E+00 0. -1.
        996    1    1    2    0    0 -0.11539667505E+02 -0.43308522127E+01  0.84591423846E+02  0.99033475125E+02  0.50000000000E+02 0.  0.
<mgrwt>
<rscale>  0 0.51496798E+02</rscale>
<asrwt>0</asrwt>
<pdfrwt beam="1">  1       13 0.10000000E+01 0.51496798E+02</pdfrwt>
<pdfrwt beam="2">  1       22 0.11860135E+00 0.51496798E+02</pdfrwt>
<totfact> 0.10931412E+00</totfact>
</mgrwt>
</event>
<event>
 4    1  0.2451537E+000  0.5132572E+02  0.7957747E-01  0.1438319E+00
         13   -1    0    0    0    0  0.00000000000E+00  0.00000000000E+00  0.99999944177E+02  0.99999999997E+02  0.10566000000E+00 0.  1.
         22   -1    0    0    0    0 -0.00000000000E+00 -0.00000000000E+00 -0.99842894180E+01  0.99842894180E+01  0.00000000000E+00 0.  1.
         13    1    1    2    0    0  0.63556530043E+01 -0.96920141634E+01  0.12815313858E+02  0.17279262050E+02  0.10566000000E+00 0. -1.
        996    1    1    2    0    0 -0.63556530043E+01  0.96920141634E+01  0.77200340900E+02  0.92705027365E+02  0.50000000000E+02 0.  0.
<mgrwt>
<rscale>  0 0.51325719E+02</rscale>
<asrwt>0</asrwt>
<pdfrwt beam="1">  1       13 0.10000000E+01 0.51325719E+02</pdfrwt>
<pdfrwt beam="2">  1       22 0.99843145E-01 0.51325719E+02</pdfrwt>
<totfact> 0.14106986E+00</totfact>
</mgrwt>
</event>
<event>
 4    1  0.2451537E+000  0.5891683E+02  0.7957747E-01  0.1402434E+00
         13   -1    0    0    0    0  0.00000000000E+00  0.00000000000E+00  0.99999944180E+02  0.10000000000E+03  0.10566000000E+00 0.  1.
         22   -1    0    0    0    0 -0.00000000000E+00 -0.00000000000E+00 -0.31434170211E+02  0.31434170211E+02  0.00000000000E+00 0. -1.
         13    1    1    2    0    0 -0.15099497150E+02 -0.27261652447E+02 -0.10451371701E+02  0.32869968707E+02  0.10566000000E+00 0. -1.
        996    1    1    2    0    0  0.15099497150E+02  0.27261652447E+02  0.79017145670E+02  0.98564201504E+02  0.50000000000E+02 0.  0.
<mgrwt>
<rscale>  0 0.58916827E+02</rscale>
<asrwt>0</asrwt>
<pdfrwt beam="1">  1       13 0.10000000E+01 0.58916827E+02</pdfrwt>
<pdfrwt beam="2">  1       22 0.31434189E+00 0.58916827E+02</pdfrwt>
<totfact> 0.19152168E-01</totfact>
</mgrwt>
</event>
<event>
 4    1  0.2451537E+000  0.5771097E+02  0.7957747E-01  0.1407697E+00
         13   -1    0    0    0    0  0.00000000000E+00  0.00000000000E+00  0.99999944191E+02  0.10000000001E+03  0.10566000000E+00 0. -1.
         22   -1    0    0    0    0 -0.00000000000E+00 -0.00000000000E+00 -0.19103783246E+02  0.19103783246E+02  0.00000000000E+00 0. -1.
         13    1    1    2    0    0  0.28272251632E+02  0.55889476934E+01  0.19236497814E+02  0.34649827718E+02  0.10566000000E+00 0.  1.
        996    1    1    2    0    0 -0.28272251632E+02 -0.55889476934E+01  0.61659663131E+02  0.84453955539E+02  0.50000000000E+02 0.  0.
<mgrwt>
<rscale>  0 0.57710974E+02</rscale>
<asrwt>0</asrwt>
<pdfrwt beam="1">  1       13 0.10000000E+01 0.57710974E+02</pdfrwt>
<pdfrwt beam="2">  1       22 0.19103806E+00 0.57710974E+02</pdfrwt>
<totfact> 0.49809597E-01</totfact>
</mgrwt>
</event>
<event>
 4    1  0.2451537E+000  0.5121058E+02  0.7957747E-01  0.1438919E+00
         13   -1    0    0    0    0  0.00000000000E+00  0.00000000000E+00  0.99999944179E+02  0.99999999999E+02  0.10566000000E+00 0. -1.
         22   -1    0    0    0    0 -0.00000000000E+00 -0.00000000000E+00 -0.10697675706E+02  0.10697675706E+02  0.00000000000E+00 0. -1.
         13    1    1    2    0    0  0.87529553513E+01 -0.67756495681E+01  0.51981949927E+01  0.12229311087E+02  0.10566000000E+00 0.  1.
        996    1    1    2    0    0 -0.87529553513E+01  0.67756495681E+01  0.84104073480E+02  0.98468364617E+02  0.50000000000E+02 0.  0.
<mgrwt>
<rscale>  0 0.51210581E+02</rscale>
<asrwt>0</asrwt>
<pdfrwt beam="1">  1       13 0.10000000E+01 0.51210581E+02</pdfrwt>
<pdfrwt beam="2">  1       22 0.10697701E+00 0.51210581E+02</pdfrwt>
<totfact> 0.12750332E+00</totfact>
</mgrwt>
</event>
<event>
 4    1  0.2451537E+000  0.5235419E+02  0.7957747E-01  0.1433042E+00
         13   -1    0    0    0    0  0.00000000000E+00  0.00000000000E+00  0.99999944174E+02  0.99999999994E+02  0.10566000000E+00 0.  1.
         22   -1    0    0    0    0 -0.00000000000E+00 -0.00000000000E+00 -0.11960232720E+02  0.11960232720E+02  0.00000000000E+00 0.  1.
         13    1    1    2    0    0 -0.12026931789E+02 -0.98139665497E+01  0.30124495806E+02  0.33888898467E+02  0.10566000000E+00 0. -1.
        996    1    1    2    0    0  0.12026931789E+02  0.98139665497E+01  0.57915215647E+02  0.78071334248E+02  0.50000000000E+02 0.  0.
<mgrwt>
<rscale>  0 0.52354188E+02</rscale>
<asrwt>0</asrwt>
<pdfrwt beam="1">  1       13 0.10000000E+01 0.52354188E+02</pdfrwt>
<pdfrwt beam="2">  1       22 0.11960257E+00 0.52354188E+02</pdfrwt>
<totfact> 0.10812700E+00</totfact>
</mgrwt>
</event>
<event>
 4    1  0.2451537E+000  0.5122433E+02  0.7957747E-01  0.1438848E+00
         13   -1    0    0    0    0  0.00000000000E+00  0.00000000000E+00  0.99999944185E+02  0.10000000001E+03  0.10566000000E+00 0. -1.
         22   -1    0    0    0    0 -0.00000000000E+00 -0.00000000000E+00 -0.10368400959E+02  0.10368400959E+02  0.00000000000E+00 0. -1.
         13    1    1    2    0    0 -0.37915073889E+01 -0.10466922052E+02  0.70103571723E+01  0.13156301047E+02  0.10566000000E+00 0.  1.
        996    1    1    2    0    0  0.37915073889E+01  0.10466922052E+02  0.82621186053E+02  0.97212099918E+02  0.50000000000E+02 0.  0.
<mgrwt>
<rscale>  0 0.51224330E+02</rscale>
<asrwt>0</asrwt>
<pdfrwt beam="1">  1       13 0.10000000E+01 0.51224330E+02</pdfrwt>
<pdfrwt beam="2">  1       22 0.10368426E+00 0.51224330E+02</pdfrwt>
<totfact> 0.13349866E+00</totfact>
</mgrwt>
</event>
<event>
 4    1  0.2451537E+000  0.5422820E+02  0.7957747E-01  0.1423784E+00
         13   -1    0    0    0    0  0.00000000000E+00  0.00000000000E+00  0.99999944185E+02  0.10000000000E+03  0.10566000000E+00 0. -1.
         22   -1    0    0    0    0 -0.00000000000E+00 -0.00000000000E+00 -0.47675457326E+02  0.47675457326E+02  0.00000000000E+00 0.  1.
         13    1    1    2    0    0  0.20001082862E+02 -0.63760921307E+01 -0.37369665541E+02  0.42862581971E+02  0.10566000000E+00 0.  1.
        996    1    1    2    0    0 -0.20001082862E+02  0.63760921307E+01  0.89694152400E+02  0.10481287536E+03  0.50000000000E+02 0.  0.
<mgrwt>
<rscale>  0 0.54228202E+02</rscale>
<asrwt>0</asrwt>
<pdfrwt beam="1">  1       13 0.10000000E+01 0.54228202E+02</pdfrwt>
<pdfrwt beam="2">  1       22 0.47675472E+00 0.54228202E+02</pdfrwt>
<totfact> 0.83828924E-02</totfact>
</mgrwt>
</event>
<event>
 4    1  0.2451537E+000  0.5131181E+02  0.7957747E-01  0.1438392E+00
         13   -1    0    0    0    0  0.00000000000E+00  0.00000000000E+00  0.99999944181E+02  0.10000000000E+03  0.10566000000E+00 0.  1.
         22   -1    0    0    0    0 -0.00000000000E+00 -0.00000000000E+00 -0.10173179515E+02  0.10173179515E+02  0.00000000000E+00 0.  1.
         13    1    1    2    0    0  0.10810550934E+02 -0.40042039606E+01  0.99153253745E+01  0.15206133702E+02  0.10566000000E+00 0. -1.
        996    1    1    2    0    0 -0.10810550934E+02  0.40042039606E+01  0.79911439292E+02  0.94967045813E+02  0.50000000000E+02 0.  0.
<mgrwt>
<rscale>  0 0.51311808E+02</rscale>
<asrwt>0</asrwt>
<pdfrwt beam="1">  1       13 0.10000000E+01 0.51311808E+02</pdfrwt>
<pdfrwt beam="2">  1       22 0.10173205E+00 0.51311808E+02</pdfrwt>
<totfact> 0.13728033E+00</totfact>
</mgrwt>
</event>
<event>
 4    1  0.2451537E+000  0.5171215E+02  0.7957747E-01  0.1436320E+00
         13   -1    0    0    0    0  0.00000000000E+00  0.00000000000E+00  0.99999944171E+02  0.99999999991E+02  0.10566000000E+00 0. -1.
         22   -1    0    0    0    0 -0.00000000000E+00 -0.00000000000E+00 -0.10862992675E+02  0.10862992675E+02  0.00000000000E+00 0. -1.
         13    1    1    2    0    0  0.10650325969E+02 -0.77921328254E+01  0.11084951065E+02  0.17234676712E+02  0.10566000000E+00 0.  1.
        996    1    1    2    0    0 -0.10650325969E+02  0.77921328254E+01  0.78052000431E+02  0.93628315955E+02  0.50000000000E+02 0.  0.
<mgrwt>
<rscale>  0 0.51712153E+02</rscale>
<asrwt>0</asrwt>
<pdfrwt beam="1">  1       13 0.10000000E+01 0.51712153E+02</pdfrwt>
<pdfrwt beam="2">  1       22 0.10863018E+00 0.51712153E+02</pdfrwt>
<totfact> 0.12479179E+00</totfact>
</mgrwt>
</event>
<event>
 4    1  0.2451537E+000  0.5476343E+02  0.7957747E-01  0.1421221E+00
         13   -1    0    0    0    0  0.00000000000E+00  0.00000000000E+00  0.99999944183E+02  0.10000000000E+03  0.10566000000E+00 0.  1.
         22   -1    0    0    0    0 -0.00000000000E+00 -0.00000000000E+00 -0.16228624624E+02  0.16228624624E+02  0.00000000000E+00 0. -1.
         13    1    1    2    0    0  0.15510263777E+02  0.16076855712E+02  0.10316671167E+02  0.24606471507E+02  0.10566000000E+00 0. -1.
        996    1    1    2    0    0 -0.15510263777E+02 -0.16076855712E+02  0.73454648392E+02  0.91622153120E+02  0.50000000000E+02 0.  0.
<mgrwt>
<rscale>  0 0.54763433E+02</rscale>
<asrwt>0</asrwt>
<pdfrwt beam="1">  1       13 0.10000000E+01 0.54763433E+02</pdfrwt>
<pdfrwt beam="2">  1       22 0.16228648E+00 0.54763433E+02</pdfrwt>
<totfact> 0.66252973E-01</totfact>
</mgrwt>
</event>
<event>
 4    1  0.2451537E+000  0.5186065E+02  0.7957747E-01  0.1435557E+00
         13   -1    0    0    0    0  0.00000000000E+00  0.00000000000E+00  0.99999944181E+02  0.10000000000E+03  0.10566000000E+00 0.  1.
         22   -1    0    0    0    0 -0.00000000000E+00 -0.00000000000E+00 -0.15045568611E+02  0.15045568611E+02  0.00000000000E+00 0.  1.
         13    1    1    2    0    0 -0.24074667609E+00 -0.13764770671E+02 -0.18884114713E+01  0.13896191295E+02  0.10566000000E+00 0. -1.
        996    1    1    2    0    0  0.24074667609E+00  0.13764770671E+02  0.86842787041E+02  0.10114937732E+03  0.50000000000E+02 0.  0.
<mgrwt>
<rscale>  0 0.51860649E+02</rscale>
<asrwt>0</asrwt>
<pdfrwt beam="1">  1       13 0.10000000E+01 0.51860649E+02</pdfrwt>
<pdfrwt beam="2">  1       22 0.15045592E+00 0.51860649E+02</pdfrwt>
<totfact> 0.74891547E-01</totfact>
</mgrwt>
</event>
<event>
 4    1  0.2451537E+000  0.6283301E+02  0.7957747E-01  0.1386313E+00
         13   -1    0    0    0    0  0.00000000000E+00  0.00000000000E+00  0.99999944178E+02  0.99999999999E+02  0.10566000000E+00 0. -1.
         22   -1    0    0    0    0 -0.00000000000E+00 -0.00000000000E+00 -0.53409519089E+02  0.53409519089E+02  0.00000000000E+00 0.  1.
         13    1    1    2    0    0 -0.37785701831E+02 -0.44975970623E+01 -0.34130566581E+02  0.51116478570E+02  0.10566000000E+00 0.  1.
        996    1    1    2    0    0  0.37785701831E+02  0.44975970623E+01  0.80720991671E+02  0.10229304052E+03  0.50000000000E+02 0.  0.
<mgrwt>
<rscale>  0 0.62833014E+02</rscale>
<asrwt>0</asrwt>
<pdfrwt beam="1">  1       13 0.10000000E+01 0.62833014E+02</pdfrwt>
<pdfrwt beam="2">  1       22 0.53409532E+00 0.62833014E+02</pdfrwt>
<totfact> 0.62229921E-02</totfact>
</mgrwt>
</event>
<event>
 4    1  0.2451537E+000  0.5775099E+02  0.7957747E-01  0.1407520E+00
         13   -1    0    0    0    0  0.00000000000E+00  0.00000000000E+00  0.99999944177E+02  0.99999999997E+02  0.10566000000E+00 0. -1.
         22   -1    0    0    0    0 -0.00000000000E+00 -0.00000000000E+00 -0.46566698261E+02  0.46566698261E+02  0.00000000000E+00 0.  1.
         13    1    1    2    0    0 -0.78622319610E+01  0.27809393592E+02 -0.32208029557E+02  0.43272917574E+02  0.10566000000E+00 0.  1.
        996    1    1    2    0    0  0.78622319610E+01 -0.27809393592E+02  0.85641275474E+02  0.10329378068E+03  0.50000000000E+02 0.  0.
<mgrwt>
<rscale>  0 0.57750992E+02</rscale>
<asrwt>0</asrwt>
<pdfrwt beam="1">  1       13 0.10000000E+01 0.57750992E+02</pdfrwt>
<pdfrwt beam="2">  1       22 0.46566713E+00 0.57750992E+02</pdfrwt>
<totfact> 0.89201108E-02</totfact>
</mgrwt>
</event>
<event>
 4    1  0.2451537E+000  0.6869223E+02  0.7957747E-01  0.1364597E+00
         13   -1    0    0    0    0  0.00000000000E+00  0.00000000000E+00  0.99999944185E+02  0.10000000001E+03  0.10566000000E+00 0. -1.
         22   -1    0    0    0    0 -0.00000000000E+00 -0.00000000000E+00 -0.80465268023E+02  0.80465268023E+02  0.00000000000E+00 0.  1.
         13    1    1    2    0    0 -0.35784320935E+02  0.30628504294E+02 -0.59411317089E+02  0.75817799113E+02  0.10566000000E+00 0.  1.
        996    1    1    2    0    0  0.35784320935E+02 -0.30628504294E+02  0.78945993252E+02  0.10464746892E+03  0.50000000000E+02 0.  0.
<mgrwt>
<rscale>  0 0.68692233E+02</rscale>
<asrwt>0</asrwt>
<pdfrwt beam="1">  1       13 0.10000000E+01 0.68692233E+02</pdfrwt>
<pdfrwt beam="2">  1       22 0.80465274E+00 0.68692233E+02</pdfrwt>
<totfact> 0.29566798E-02</totfact>
</mgrwt>
</event>
<event>
 4    1  0.2451537E+000  0.5252972E+02  0.7957747E-01  0.1432156E+00
         13   -1    0    0    0    0  0.00000000000E+00  0.00000000000E+00  0.99999944183E+02  0.10000000000E+03  0.10566000000E+00 0. -1.
         22   -1    0    0    0    0 -0.00000000000E+00 -0.00000000000E+00 -0.13383839436E+02  0.13383839436E+02  0.00000000000E+00 0.  1.
         13    1    1    2    0    0  0.24225634449E+01  0.15921778863E+02  0.60473451318E+01  0.17203296283E+02  0.10566000000E+00 0.  1.
        996    1    1    2    0    0 -0.24225634449E+01 -0.15921778863E+02  0.80568759615E+02  0.96180543156E+02  0.50000000000E+02 0.  0.
<mgrwt>
<rscale>  0 0.52529724E+02</rscale>
<asrwt>0</asrwt>
<pdfrwt beam="1">  1       13 0.10000000E+01 0.52529724E+02</pdfrwt>
<pdfrwt beam="2">  1       22 0.13383864E+00 0.52529724E+02</pdfrwt>
<totfact> 0.90752958E-01</totfact>
</mgrwt>
</event>
<event>
 4    1  0.2451537E+000  0.5131268E+02  0.7957747E-01  0.1438387E+00
         13   -1    0    0    0    0  0.00000000000E+00  0.00000000000E+00  0.99999944173E+02  0.99999999993E+02  0.10566000000E+00 0.  1.
         22   -1    0    0    0    0 -0.00000000000E+00 -0.00000000000E+00 -0.10000613118E+02  0.10000613118E+02  0.00000000000E+00 0.  1.
         13    1    1    2    0    0 -0.79334139821E+01  0.83696994327E+01  0.21691571182E+02  0.24566773300E+02  0.10566000000E+00 0. -1.
        996    1    1    2    0    0  0.79334139821E+01 -0.83696994327E+01  0.68307759873E+02  0.85433839811E+02  0.50000000000E+02 0.  0.
<mgrwt>
<rscale>  0 0.51312678E+02</rscale>
<asrwt>0</asrwt>
<pdfrwt beam="1">  1       13 0.10000000E+01 0.51312678E+02</pdfrwt>
<pdfrwt beam="2">  1       22 0.10000638E+00 0.51312678E+02</pdfrwt>
<totfact> 0.14073213E+00</totfact>
</mgrwt>
</event>
<event>
 4    1  0.2451537E+000  0.5151449E+02  0.7957747E-01  0.1437340E+00
         13   -1    0    0    0    0  0.00000000000E+00  0.00000000000E+00  0.99999944178E+02  0.99999999998E+02  0.10566000000E+00 0. -1.
         22   -1    0    0    0    0 -0.00000000000E+00 -0.00000000000E+00 -0.10708751337E+02  0.10708751337E+02  0.00000000000E+00 0. -1.
         13    1    1    2    0    0 -0.10796518468E+02  0.60973355797E+01  0.90356150159E+01  0.15342614346E+02  0.10566000000E+00 0.  1.
        996    1    1    2    0    0  0.10796518468E+02 -0.60973355797E+01  0.80255577825E+02  0.95366136989E+02  0.50000000000E+02 0.  0.
<mgrwt>
<rscale>  0 0.51514486E+02</rscale>
<asrwt>0</asrwt>
<pdfrwt beam="1">  1       13 0.10000000E+01 0.51514486E+02</pdfrwt>
<pdfrwt beam="2">  1       22 0.10708776E+00 0.51514486E+02</pdfrwt>
<totfact> 0.12740033E+00</totfact>
</mgrwt>
</event>
<event>
 4    1  0.2451537E+000  0.5240373E+02  0.7957747E-01  0.1432791E+00
         13   -1    0    0    0    0  0.00000000000E+00  0.00000000000E+00  0.99999944182E+02  0.10000000000E+03  0.10566000000E+00 0.  1.
         22   -1    0    0    0    0 -0.00000000000E+00 -0.00000000000E+00 -0.19285527664E+02  0.19285527664E+02  0.00000000000E+00 0. -1.
         13    1    1    2    0    0 -0.10792526878E+02  0.11387383311E+02 -0.69439039386E+01  0.17157508591E+02  0.10566000000E+00 0. -1.
        996    1    1    2    0    0  0.10792526878E+02 -0.11387383311E+02  0.87658320456E+02  0.10212801908E+03  0.50000000000E+02 0.  0.
<mgrwt>
<rscale>  0 0.52403732E+02</rscale>
<asrwt>0</asrwt>
<pdfrwt beam="1">  1       13 0.10000000E+01 0.52403732E+02</pdfrwt>
<pdfrwt beam="2">  1       22 0.19285550E+00 0.52403732E+02</pdfrwt>
<totfact> 0.48503389E-01</totfact>
</mgrwt>
</event>
<event>
 4    1  0.2451537E+000  0.5594152E+02  0.7957747E-01  0.1415698E+00
         13   -1    0    0    0    0  0.00000000000E+00  0.00000000000E+00  0.99999944173E+02  0.99999999993E+02  0.10566000000E+00 0. -1.
         22   -1    0    0    0    0 -0.00000000000E+00 -0.00000000000E+00 -0.36898523052E+02  0.36898523052E+02  0.00000000000E+00 0. -1.
         13    1    1    2    0    0 -0.24378780838E+02  0.59269619073E+01 -0.23121169828E+02  0.34118228132E+02  0.10566000000E+00 0.  1.
        996    1    1    2    0    0  0.24378780838E+02 -0.59269619073E+01  0.86222590948E+02  0.10278029491E+03  0.50000000000E+02 0.  0.
<mgrwt>
<rscale>  0 0.55941522E+02</rscale>
<asrwt>0</asrwt>
<pdfrwt beam="1">  1       13 0.10000000E+01 0.55941522E+02</pdfrwt>
<pdfrwt beam="2">  1       22 0.36898541E+00 0.55941522E+02</pdfrwt>
<totfact> 0.14376957E-01</totfact>
</mgrwt>
</event>
<event>
 4    1  0.2451537E+000  0.5129133E+02  0.7957747E-01  0.1438498E+00
         13   -1    0    0    0    0  0.00000000000E+00  0.00000000000E+00  0.99999944178E+02  0.99999999998E+02  0.10566000000E+00 0. -1.
         22   -1    0    0    0    0 -0.00000000000E+00 -0.00000000000E+00 -0.12620214417E+02  0.12620214417E+02  0.00000000000E+00 0.  1.
         13    1    1    2    0    0 -0.10714838940E+02 -0.39991096758E+01  0.16190027709E+00  0.11438445150E+02  0.10566000000E+00 0.  1.
        996    1    1    2    0    0  0.10714838940E+02  0.39991096758E+01  0.87217829484E+02  0.10118176927E+03  0.50000000000E+02 0.  0.
<mgrwt>
<rscale>  0 0.51291331E+02</rscale>
<asrwt>0</asrwt>
<pdfrwt beam="1">  1       13 0.10000000E+01 0.51291331E+02</pdfrwt>
<pdfrwt beam="2">  1       22 0.12620239E+00 0.51291331E+02</pdfrwt>
<totfact> 0.99285829E-01</totfact>
</mgrwt>
</event>
<event>
 4    1  0.2451537E+000  0.5202673E+02  0.7957747E-01  0.1434707E+00
         13   -1    0    0    0    0  0.00000000000E+00  0.00000000000E+00  0.99999944184E+02  0.10000000000E+03  0.10566000000E+00 0. -1.
         22   -1    0    0    0    0 -0.00000000000E+00 -0.00000000000E+00 -0.24938317234E+02  0.24938317234E+02  0.00000000000E+00 0.  1.
         13    1    1    2    0    0 -0.13826232238E+01  0.14313258497E+02 -0.15094200486E+02  0.20847711340E+02  0.10566000000E+00 0.  1.
        996    1    1    2    0    0  0.13826232238E+01 -0.14313258497E+02  0.90155827435E+02  0.10409060590E+03  0.50000000000E+02 0.  0.
<mgrwt>
<rscale>  0 0.52026734E+02</rscale>
<asrwt>0</asrwt>
<pdfrwt beam="1">  1       13 0.10000000E+01 0.52026734E+02</pdfrwt>
<pdfrwt beam="2">  1       22 0.24938338E+00 0.52026734E+02</pdfrwt>
<totfact> 0.29624156E-01</totfact>
</mgrwt>
</event>
<event>
 4    1  0.2451537E+000  0.5232286E+02  0.7957747E-01  0.1433201E+00
         13   -1    0    0    0    0  0.00000000000E+00  0.00000000000E+00  0.99999944174E+02  0.99999999995E+02  0.10566000000E+00 0. -1.
         22   -1    0    0    0    0 -0.00000000000E+00 -0.00000000000E+00 -0.30836185246E+02  0.30836185246E+02  0.00000000000E+00 0.  1.
         13    1    1    2    0    0  0.15367817537E+02  0.12296378639E+01 -0.21321867487E+02  0.26311879870E+02  0.10566000000E+00 0.  1.
        996    1    1    2    0    0 -0.15367817537E+02 -0.12296378639E+01  0.90485626416E+02  0.10452430537E+03  0.50000000000E+02 0.  0.
<mgrwt>
<rscale>  0 0.52322861E+02</rscale>
<asrwt>0</asrwt>
<pdfrwt beam="1">  1       13 0.10000000E+01 0.52322861E+02</pdfrwt>
<pdfrwt beam="2">  1       22 0.30836205E+00 0.52322861E+02</pdfrwt>
<totfact> 0.19684148E-01</totfact>
</mgrwt>
</event>
<event>
 4    1  0.2451537E+000  0.5165589E+02  0.7957747E-01  0.1436609E+00
         13   -1    0    0    0    0  0.00000000000E+00  0.00000000000E+00  0.99999944178E+02  0.99999999998E+02  0.10566000000E+00 0. -1.
         22   -1    0    0    0    0 -0.00000000000E+00 -0.00000000000E+00 -0.15056866214E+02  0.15056866214E+02  0.00000000000E+00 0.  1.
         13    1    1    2    0    0  0.10665615910E+02  0.73875158699E+01 -0.27665596407E+01  0.13266339727E+02  0.10566000000E+00 0.  1.
        996    1    1    2    0    0 -0.10665615910E+02 -0.73875158699E+01  0.87709637604E+02  0.10179052649E+03  0.50000000000E+02 0.  0.
<mgrwt>
<rscale>  0 0.51655888E+02</rscale>
<asrwt>0</asrwt>
<pdfrwt beam="1">  1       13 0.10000000E+01 0.51655888E+02</pdfrwt>
<pdfrwt beam="2">  1       22 0.15056890E+00 0.51655888E+02</pdfrwt>
<totfact> 0.74766494E-01</totfact>
</mgrwt>
</event>
<event>
 4    1  0.2451537E+000  0.5273625E+02  0.7957747E-01  0.1431118E+00
         13   -1    0    0    0    0  0.00000000000E+00  0.00000000000E+00  0.99999944173E+02  0.99999999993E+02  0.10566000000E+00 0.  1.
         22   -1    0    0    0    0 -0.00000000000E+00 -0.00000000000E+00 -0.26275808351E+02  0.26275808351E+02  0.00000000000E+00 0. -1.
         13    1    1    2    0    0 -0.14851598831E+02 -0.77809102294E+01 -0.15368850071E+02  0.22744785520E+02  0.10566000000E+00 0. -1.
        996    1    1    2    0    0  0.14851598831E+02  0.77809102294E+01  0.89092985892E+02  0.10353102282E+03  0.50000000000E+02 0.  0.
<mgrwt>
<rscale>  0 0.52736255E+02</rscale>
<asrwt>0</asrwt>
<pdfrwt beam="1">  1       13 0.10000000E+01 0.52736255E+02</pdfrwt>
<pdfrwt beam="2">  1       22 0.26275829E+00 0.52736255E+02</pdfrwt>
<totfact> 0.26759178E-01</totfact>
</mgrwt>
</event>
<event>
 4    1  0.2451537E+000  0.5182434E+02  0.7957747E-01  0.1435743E+00
         13   -1    0    0    0    0  0.00000000000E+00  0.00000000000E+00  0.99999944183E+02  0.10000000000E+03  0.10566000000E+00 0.  1.
         22   -1    0    0    0    0 -0.00000000000E+00 -0.00000000000E+00 -0.16693292437E+02  0.16693292437E+02  0.00000000000E+00 0. -1.
         13    1    1    2    0    0  0.13623697626E+02  0.39580037753E+00 -0.48207664465E+01  0.14457273190E+02  0.10566000000E+00 0. -1.
        996    1    1    2    0    0 -0.13623697626E+02 -0.39580037753E+00  0.88127418192E+02  0.10223601925E+03  0.50000000000E+02 0.  0.
<mgrwt>
<rscale>  0 0.51824336E+02</rscale>
<asrwt>0</asrwt>
<pdfrwt beam="1">  1       13 0.10000000E+01 0.51824336E+02</pdfrwt>
<pdfrwt beam="2">  1       22 0.16693316E+00 0.51824336E+02</pdfrwt>
<totfact> 0.62740314E-01</totfact>
</mgrwt>
</event>
<event>
 4    1  0.2451537E+000  0.7961637E+02  0.7957747E-01  0.1330144E+00
         13   -1    0    0    0    0  0.00000000000E+00  0.00000000000E+00  0.99999944178E+02  0.99999999998E+02  0.10566000000E+00 0.  1.
         22   -1    0    0    0    0 -0.00000000000E+00 -0.00000000000E+00 -0.50631806908E+02  0.50631806908E+02  0.00000000000E+00 0. -1.
         13    1    1    2    0    0 -0.45841841036E+02  0.41680829183E+02  0.14036766767E+02  0.63528008754E+02  0.10566000000E+00 0. -1.
        996    1    1    2    0    0  0.45841841036E+02 -0.41680829183E+02  0.35331370503E+02  0.87103798152E+02  0.50000000000E+02 0.  0.
<mgrwt>
<rscale>  0 0.79616367E+02</rscale>
<asrwt>0</asrwt>
<pdfrwt beam="1">  1       13 0.10000000E+01 0.79616367E+02</pdfrwt>
<pdfrwt beam="2">  1       22 0.50631821E+00 0.79616367E+02</pdfrwt>
<totfact> 0.71812694E-02</totfact>
</mgrwt>
</event>
<event>
 4    1  0.2451537E+000  0.5156202E+02  0.7957747E-01  0.1437094E+00
         13   -1    0    0    0    0  0.00000000000E+00  0.00000000000E+00  0.99999944178E+02  0.99999999999E+02  0.10566000000E+00 0.  1.
         22   -1    0    0    0    0 -0.00000000000E+00 -0.00000000000E+00 -0.15129679124E+02  0.15129679124E+02  0.00000000000E+00 0.  1.
         13    1    1    2    0    0  0.75664623495E+01 -0.10069276178E+02 -0.32717957957E+01  0.13013742236E+02  0.10566000000E+00 0. -1.
        996    1    1    2    0    0 -0.75664623495E+01  0.10069276178E+02  0.88142060850E+02  0.10211593689E+03  0.50000000000E+02 0.  0.
<mgrwt>
<rscale>  0 0.51562018E+02</rscale>
<asrwt>0</asrwt>
<pdfrwt beam="1">  1       13 0.10000000E+01 0.51562018E+02</pdfrwt>
<pdfrwt beam="2">  1       22 0.15129703E+00 0.51562018E+02</pdfrwt>
<totfact> 0.74152674E-01</totfact>
</mgrwt>
</event>
<event>
 4    1  0.2451537E+000  0.5660028E+02  0.7957747E-01  0.1412679E+00
         13   -1    0    0    0    0  0.00000000000E+00  0.00000000000E+00  0.99999944177E+02  0.99999999997E+02  0.10566000000E+00 0. -1.
         22   -1    0    0    0    0 -0.00000000000E+00 -0.00000000000E+00 -0.40276439829E+02  0.40276439829E+02  0.00000000000E+00 0.  1.
         13    1    1    2    0    0  0.26001765634E+02  0.52439795741E+01 -0.26266786575E+02  0.37330234113E+02  0.10566000000E+00 0.  1.
        996    1    1    2    0    0 -0.26001765634E+02 -0.52439795741E+01  0.85990290922E+02  0.10294620571E+03  0.50000000000E+02 0.  0.
<mgrwt>
<rscale>  0 0.56600275E+02</rscale>
<asrwt>0</asrwt>
<pdfrwt beam="1">  1       13 0.10000000E+01 0.56600275E+02</pdfrwt>
<pdfrwt beam="2">  1       22 0.40276457E+00 0.56600275E+02</pdfrwt>
<totfact> 0.12248014E-01</totfact>
</mgrwt>
</event>
<event>
 4    1  0.2451537E+000  0.5413951E+02  0.7957747E-01  0.1424213E+00
         13   -1    0    0    0    0  0.00000000000E+00  0.00000000000E+00  0.99999944181E+02  0.10000000000E+03  0.10566000000E+00 0. -1.
         22   -1    0    0    0    0 -0.00000000000E+00 -0.00000000000E+00 -0.56256184643E+02  0.56256184643E+02  0.00000000000E+00 0.  1.
         13    1    1    2    0    0 -0.14335072980E+02 -0.15019728460E+02 -0.46552704664E+02  0.50973052056E+02  0.10566000000E+00 0.  1.
        996    1    1    2    0    0  0.14335072980E+02  0.15019728460E+02  0.90296464202E+02  0.10528313259E+03  0.50000000000E+02 0.  0.
<mgrwt>
<rscale>  0 0.54139510E+02</rscale>
<asrwt>0</asrwt>
<pdfrwt beam="1">  1       13 0.10000000E+01 0.54139510E+02</pdfrwt>
<pdfrwt beam="2">  1       22 0.56256197E+00 0.54139510E+02</pdfrwt>
<totfact> 0.58267372E-02</totfact>
</mgrwt>
</event>
<event>
 4    1  0.2451537E+000  0.5394465E+02  0.7957747E-01  0.1425157E+00
         13   -1    0    0    0    0  0.00000000000E+00  0.00000000000E+00  0.99999944184E+02  0.10000000000E+03  0.10566000000E+00 0. -1.
         22   -1    0    0    0    0 -0.00000000000E+00 -0.00000000000E+00 -0.14106169607E+02  0.14106169607E+02  0.00000000000E+00 0. -1.
         13    1    1    2    0    0  0.12429369529E+02 -0.15985507188E+02  0.15952150094E+02  0.25778051199E+02  0.10566000000E+00 0.  1.
        996    1    1    2    0    0 -0.12429369529E+02  0.15985507188E+02  0.69941624482E+02  0.88328118412E+02  0.50000000000E+02 0.  0.
<mgrwt>
<rscale>  0 0.53944654E+02</rscale>
<asrwt>0</asrwt>
<pdfrwt beam="1">  1       13 0.10000000E+01 0.53944654E+02</pdfrwt>
<pdfrwt beam="2">  1       22 0.14106194E+00 0.53944654E+02</pdfrwt>
<totfact> 0.83633352E-01</totfact>
</mgrwt>
</event>
<event>
 4    1  0.2451537E+000  0.5420616E+02  0.7957747E-01  0.1423891E+00
         13   -1    0    0    0    0  0.00000000000E+00  0.00000000000E+00  0.99999944180E+02  0.10000000000E+03  0.10566000000E+00 0.  1.
         22   -1    0    0    0    0 -0.00000000000E+00 -0.00000000000E+00 -0.51265543997E+02  0.51265543997E+02  0.00000000000E+00 0. -1.
         13    1    1    2    0    0  0.17717962494E+01  0.20860698849E+02 -0.41225231577E+02  0.46236770011E+02  0.10566000000E+00 0. -1.
        996    1    1    2    0    0 -0.17717962494E+01 -0.20860698849E+02  0.89959631761E+02  0.10502877399E+03  0.50000000000E+02 0.  0.
<mgrwt>
<rscale>  0 0.54206162E+02</rscale>
<asrwt>0</asrwt>
<pdfrwt beam="1">  1       13 0.10000000E+01 0.54206162E+02</pdfrwt>
<pdfrwt beam="2">  1       22 0.51265558E+00 0.54206162E+02</pdfrwt>
<totfact> 0.68861000E-02</totfact>
</mgrwt>
</event>
<event>
 4    1  0.2451537E+000  0.5717394E+02  0.7957747E-01  0.1410089E+00
         13   -1    0    0    0    0  0.00000000000E+00  0.00000000000E+00  0.99999944182E+02  0.10000000000E+03  0.10566000000E+00 0.  1.
         22   -1    0    0    0    0 -0.00000000000E+00 -0.00000000000E+00 -0.36938380154E+02  0.36938380154E+02  0.00000000000E+00 0. -1.
         13    1    1    2    0    0  0.25354981202E+02  0.11224261413E+02 -0.21343713886E+02  0.34991776213E+02  0.10566000000E+00 0. -1.
        996    1    1    2    0    0 -0.25354981202E+02 -0.11224261413E+02  0.84405277914E+02  0.10194660394E+03  0.50000000000E+02 0.  0.
<mgrwt>
<rscale>  0 0.57173937E+02</rscale>
<asrwt>0</asrwt>
<pdfrwt beam="1">  1       13 0.10000000E+01 0.57173937E+02</pdfrwt>
<pdfrwt beam="2">  1       22 0.36938398E+00 0.57173937E+02</pdfrwt>
<totfact> 0.14364604E-01</totfact>
</mgrwt>
</event>
<event>
 4    1  0.2451537E+000  0.6492745E+02  0.7957747E-01  0.1378245E+00
         13   -1    0    0    0    0  0.00000000000E+00  0.00000000000E+00  0.99999944183E+02  0.10000000000E+03  0.10566000000E+00 0. -1.
         22   -1    0    0    0    0 -0.00000000000E+00 -0.00000000000E+00 -0.29130648138E+02  0.29130648138E+02  0.00000000000E+00 0.  1.
         13    1    1    2    0    0  0.33725790581E+02 -0.24044630217E+02  0.17027319541E+02  0.44782965147E+02  0.10566000000E+00 0.  1.
        996    1    1    2    0    0 -0.33725790581E+02  0.24044630217E+02  0.53841976504E+02  0.84347682994E+02  0.50000000000E+02 0.  0.
<mgrwt>
<rscale>  0 0.64927446E+02</rscale>
<asrwt>0</asrwt>
<pdfrwt beam="1">  1       13 0.10000000E+01 0.64927446E+02</pdfrwt>
<pdfrwt beam="2">  1       22 0.29130668E+00 0.64927446E+02</pdfrwt>
<totfact> 0.22228936E-01</totfact>
</mgrwt>
</event>
<event>
 4    1  0.2451537E+000  0.5285686E+02  0.7957747E-01  0.1430515E+00
         13   -1    0    0    0    0  0.00000000000E+00  0.00000000000E+00  0.99999944177E+02  0.99999999997E+02  0.10566000000E+00 0.  1.
         22   -1    0    0    0    0 -0.00000000000E+00 -0.00000000000E+00 -0.12536006844E+02  0.12536006844E+02  0.00000000000E+00 0.  1.
         13    1    1    2    0    0  0.31839269746E+01  0.16843685332E+02  0.14585908887E+02  0.22507932572E+02  0.10566000000E+00 0. -1.
        996    1    1    2    0    0 -0.31839269746E+01 -0.16843685332E+02  0.72878028446E+02  0.90028074270E+02  0.50000000000E+02 0.  0.
<mgrwt>
<rscale>  0 0.52856855E+02</rscale>
<asrwt>0</asrwt>
<pdfrwt beam="1">  1       13 0.10000000E+01 0.52856855E+02</pdfrwt>
<pdfrwt beam="2">  1       22 0.12536031E+00 0.52856855E+02</pdfrwt>
<totfact> 0.10067088E+00</totfact>
</mgrwt>
</event>
<event>
 4    1  0.2451537E+000  0.5206975E+02  0.7957747E-01  0.1434487E+00
         13   -1    0    0    0    0  0.00000000000E+00  0.00000000000E+00  0.99999944178E+02  0.99999999998E+02  0.10566000000E+00 0.  1.
         22   -1    0    0    0    0 -0.00000000000E+00 -0.00000000000E+00 -0.11090515061E+02  0.11090515061E+02  0.00000000000E+00 0.  1.
         13    1    1    2    0    0 -0.14498330918E+02 -0.10280119609E+01  0.19339245711E+02  0.24192478101E+02  0.10566000000E+00 0. -1.
        996    1    1    2    0    0  0.14498330918E+02  0.10280119609E+01  0.69570183406E+02  0.86898036958E+02  0.50000000000E+02 0.  0.
<mgrwt>
<rscale>  0 0.52069746E+02</rscale>
<asrwt>0</asrwt>
<pdfrwt beam="1">  1       13 0.10000000E+01 0.52069746E+02</pdfrwt>
<pdfrwt beam="2">  1       22 0.11090540E+00 0.52069746E+02</pdfrwt>
<totfact> 0.12110454E+00</totfact>
</mgrwt>
</event>
<event>
 4    1  0.2451537E+000  0.5277908E+02  0.7957747E-01  0.1430903E+00
         13   -1    0    0    0    0  0.00000000000E+00  0.00000000000E+00  0.99999944172E+02  0.99999999992E+02  0.10566000000E+00 0. -1.
         22   -1    0    0    0    0 -0.00000000000E+00 -0.00000000000E+00 -0.17705560997E+02  0.17705560997E+02  0.00000000000E+00 0.  1.
         13    1    1    2    0    0  0.11908655874E+02 -0.11992280420E+02 -0.32297331628E+01  0.17206778163E+02  0.10566000000E+00 0.  1.
        996    1    1    2    0    0 -0.11908655874E+02  0.11992280420E+02  0.85524116338E+02  0.10049878283E+03  0.50000000000E+02 0.  0.
<mgrwt>
<rscale>  0 0.52779076E+02</rscale>
<asrwt>0</asrwt>
<pdfrwt beam="1">  1       13 0.10000000E+01 0.52779076E+02</pdfrwt>
<pdfrwt beam="2">  1       22 0.17705584E+00 0.52779076E+02</pdfrwt>
<totfact> 0.56667058E-01</totfact>
</mgrwt>
</event>
<event>
 4    1  0.2451537E+000  0.5161565E+02  0.7957747E-01  0.1436817E+00
         13   -1    0    0    0    0  0.00000000000E+00  0.00000000000E+00  0.99999944179E+02  0.10000000000E+03  0.10566000000E+00 0. -1.
         22   -1    0    0    0    0 -0.00000000000E+00 -0.00000000000E+00 -0.14869632000E+02  0.14869632000E+02  0.00000000000E+00 0.  1.
         13    1    1    2    0    0 -0.12196417688E+02  0.39271125454E+01 -0.26066651673E+01  0.13075958270E+02  0.10566000000E+00 0.  1.
        996    1    1    2    0    0  0.12196417688E+02 -0.39271125454E+01  0.87736977347E+02  0.10179367373E+03  0.50000000000E+02 0.  0.
<mgrwt>
<rscale>  0 0.51615645E+02</rscale>
<asrwt>0</asrwt>
<pdfrwt beam="1">  1       13 0.10000000E+01 0.51615645E+02</pdfrwt>
<pdfrwt beam="2">  1       22 0.14869656E+00 0.51615645E+02</pdfrwt>
<totfact> 0.76332426E-01</totfact>
</mgrwt>
</event>
<event>
 4    1  0.2451537E+000  0.5798431E+02  0.7957747E-01  0.1406491E+00
         13   -1    0    0    0    0  0.00000000000E+00  0.00000000000E+00  0.99999944187E+02  0.10000000001E+03  0.10566000000E+00 0.  1.
         22   -1    0    0    0    0 -0.00000000000E+00 -0.00000000000E+00 -0.39908867396E+02  0.39908867396E+02  0.00000000000E+00 0. -1.
         13    1    1    2    0    0 -0.13949835826E+02 -0.25837611766E+02 -0.23890673428E+02  0.37854399245E+02  0.10566000000E+00 0. -1.
        996    1    1    2    0    0  0.13949835826E+02  0.25837611766E+02  0.83981750218E+02  0.10205446816E+03  0.50000000000E+02 0.  0.
<mgrwt>
<rscale>  0 0.57984309E+02</rscale>
<asrwt>0</asrwt>
<pdfrwt beam="1">  1       13 0.10000000E+01 0.57984309E+02</pdfrwt>
<pdfrwt beam="2">  1       22 0.39908884E+00 0.57984309E+02</pdfrwt>
<totfact> 0.12476959E-01</totfact>
</mgrwt>
</event>
<event>
 4    1  0.2451537E+000  0.5680717E+02  0.7957747E-01  0.1411741E+00
         13   -1    0    0    0    0  0.00000000000E+00  0.00000000000E+00  0.99999944176E+02  0.99999999996E+02  0.10566000000E+00 0. -1.
         22   -1    0    0    0    0 -0.00000000000E+00 -0.00000000000E+00 -0.18183417320E+02  0.18183417320E+02  0.00000000000E+00 0.  1.
         13    1    1    2    0    0  0.26746448976E+02 -0.34179664539E+01  0.37227271936E+02  0.45966683231E+02  0.10566000000E+00 0.  1.
        996    1    1    2    0    0 -0.26746448976E+02  0.34179664539E+01  0.44589254920E+02  0.72216734084E+02  0.50000000000E+02 0.  0.
<mgrwt>
<rscale>  0 0.56807174E+02</rscale>
<asrwt>0</asrwt>
<pdfrwt beam="1">  1       13 0.10000000E+01 0.56807174E+02</pdfrwt>
<pdfrwt beam="2">  1       22 0.18183440E+00 0.56807174E+02</pdfrwt>
<totfact> 0.54415327E-01</totfact>
</mgrwt>
</event>
<event>
 4    1  0.2451537E+000  0.5112638E+02  0.7957747E-01  0.1439359E+00
         13   -1    0    0    0    0  0.00000000000E+00  0.00000000000E+00  0.99999944175E+02  0.99999999996E+02  0.10566000000E+00 0. -1.
         22   -1    0    0    0    0 -0.00000000000E+00 -0.00000000000E+00 -0.15377163989E+02  0.15377163989E+02  0.00000000000E+00 0. -1.
         13    1    1    2    0    0  0.47100782998E+01 -0.95771484883E+01 -0.53149060136E+01  0.11923338489E+02  0.10566000000E+00 0.  1.
        996    1    1    2    0    0 -0.47100782998E+01  0.95771484883E+01  0.89937686200E+02  0.10345382550E+03  0.50000000000E+02 0.  0.
<mgrwt>
<rscale>  0 0.51126379E+02</rscale>
<asrwt>0</asrwt>
<pdfrwt beam="1">  1       13 0.10000000E+01 0.51126379E+02</pdfrwt>
<pdfrwt beam="2">  1       22 0.15377188E+00 0.51126379E+02</pdfrwt>
<totfact> 0.72099106E-01</totfact>
</mgrwt>
</event>
<event>
 4    1  0.2451537E+000  0.5518949E+02  0.7957747E-01  0.1419205E+00
         13   -1    0    0    0    0  0.00000000000E+00  0.00000000000E+00  0.99999944176E+02  0.99999999996E+02  0.10566000000E+00 0. -1.
         22   -1    0    0    0    0 -0.00000000000E+00 -0.00000000000E+00 -0.19022009456E+02  0.19022009456E+02  0.00000000000E+00 0.  1.
         13    1    1    2    0    0 -0.13882354428E+02  0.18792544217E+02  0.30968381956E+01  0.23568645558E+02  0.10566000000E+00 0.  1.
        996    1    1    2    0    0  0.13882354428E+02 -0.18792544217E+02  0.77881096524E+02  0.95453363893E+02  0.50000000000E+02 0.  0.
<mgrwt>
<rscale>  0 0.55189487E+02</rscale>
<asrwt>0</asrwt>
<pdfrwt beam="1">  1       13 0.10000000E+01 0.55189487E+02</pdfrwt>
<pdfrwt beam="2">  1       22 0.19022032E+00 0.55189487E+02</pdfrwt>
<totfact> 0.49991194E-01</totfact>
</mgrwt>
</event>
<event>
 4    1  0.2451537E+000  0.5348712E+02  0.7957747E-01  0.1427392E+00
         13   -1    0    0    0    0  0.00000000000E+00  0.00000000000E+00  0.99999944177E+02  0.99999999997E+02  0.10566000000E+00 0.  1.
         22   -1    0    0    0    0 -0.00000000000E+00 -0.00000000000E+00 -0.15299758590E+02  0.15299758590E+02  0.00000000000E+00 0. -1.
         13    1    1    2    0    0 -0.48851567602E+01  0.18357766324E+02  0.55855114282E+01  0.19801046511E+02  0.10566000000E+00 0. -1.
        996    1    1    2    0    0  0.48851567602E+01 -0.18357766324E+02  0.79114674158E+02  0.95498712076E+02  0.50000000000E+02 0.  0.
<mgrwt>
<rscale>  0 0.53487123E+02</rscale>
<asrwt>0</asrwt>
<pdfrwt beam="1">  1       13 0.10000000E+01 0.53487123E+02</pdfrwt>
<pdfrwt beam="2">  1       22 0.15299782E+00 0.53487123E+02</pdfrwt>
<totfact> 0.73059297E-01</totfact>
</mgrwt>
</event>
<event>
 4    1  0.2451537E+000  0.5142279E+02  0.7957747E-01  0.1437815E+00
         13   -1    0    0    0    0  0.00000000000E+00  0.00000000000E+00  0.99999944181E+02  0.10000000000E+03  0.10566000000E+00 0. -1.
         22   -1    0    0    0    0 -0.00000000000E+00 -0.00000000000E+00 -0.12089338855E+02  0.12089338855E+02  0.00000000000E+00 0. -1.
         13    1    1    2    0    0 -0.12010282779E+02 -0.23858419764E+00  0.23138824756E+01  0.12233929500E+02  0.10566000000E+00 0.  1.
        996    1    1    2    0    0  0.12010282779E+02  0.23858419764E+00  0.85596722850E+02  0.99855409356E+02  0.50000000000E+02 0.  0.
<mgrwt>
<rscale>  0 0.51422795E+02</rscale>
<asrwt>0</asrwt>
<pdfrwt beam="1">  1       13 0.10000000E+01 0.51422795E+02</pdfrwt>
<pdfrwt beam="2">  1       22 0.12089363E+00 0.51422795E+02</pdfrwt>
<totfact> 0.10614057E+00</totfact>
</mgrwt>
</event>
<event>
 4    1  0.2451537E+000  0.5102425E+02  0.7957747E-01  0.1439894E+00
         13   -1    0    0    0    0  0.00000000000E+00  0.00000000000E+00  0.99999944181E+02  0.10000000000E+03  0.10566000000E+00 0.  1.
         22   -1    0    0    0    0 -0.00000000000E+00 -0.00000000000E+00 -0.66889399399E+02  0.66889399399E+02  0.00000000000E+00 0. -1.
         13    1    1    2    0    0  0.91102861227E+01 -0.45251361144E+01 -0.59924050329E+02  0.60781388122E+02  0.10566000000E+00 0. -1.
        996    1    1    2    0    0 -0.91102861227E+01  0.45251361144E+01  0.93034595111E+02  0.10610801128E+03  0.50000000000E+02 0.  0.
<mgrwt>
<rscale>  0 0.51024251E+02</rscale>
<asrwt>0</asrwt>
<pdfrwt beam="1">  1       13 0.10000000E+01 0.51024251E+02</pdfrwt>
<pdfrwt beam="2">  1       22 0.66889409E+00 0.51024251E+02</pdfrwt>
<totfact> 0.86479866E-02</totfact>
</mgrwt>
</event>
<event>
 4    1  0.2451537E+000  0.5262359E+02  0.7957747E-01  0.1431683E+00
         13   -1    0    0    0    0  0.00000000000E+00  0.00000000000E+00  0.99999944173E+02  0.99999999993E+02  0.10566000000E+00 0.  1.
         22   -1    0    0    0    0 -0.00000000000E+00 -0.00000000000E+00 -0.12472001299E+02  0.12472001299E+02  0.00000000000E+00 0.  1.
         13    1    1    2    0    0 -0.45921140746E+01 -0.15752932955E+02  0.11617843735E+02  0.20105418808E+02  0.10566000000E+00 0. -1.
        996    1    1    2    0    0  0.45921140746E+01  0.15752932955E+02  0.75910099139E+02  0.92366582484E+02  0.50000000000E+02 0.  0.
<mgrwt>
<rscale>  0 0.52623592E+02</rscale>
<asrwt>0</asrwt>
<pdfrwt beam="1">  1       13 0.10000000E+01 0.52623592E+02</pdfrwt>
<pdfrwt beam="2">  1       22 0.12472026E+00 0.52623592E+02</pdfrwt>
<totfact> 0.10142383E+00</totfact>
</mgrwt>
</event>
<event>
 4    1  0.2451537E+000  0.5142411E+02  0.7957747E-01  0.1437808E+00
         13   -1    0    0    0    0  0.00000000000E+00  0.00000000000E+00  0.99999944176E+02  0.99999999996E+02  0.10566000000E+00 0.  1.
         22   -1    0    0    0    0 -0.00000000000E+00 -0.00000000000E+00 -0.13699181750E+02  0.13699181750E+02  0.00000000000E+00 0. -1.
         13    1    1    2    0    0 -0.34605032772E+01 -0.11509315615E+02 -0.13320440986E+01  0.12092350242E+02  0.10566000000E+00 0. -1.
        996    1    1    2    0    0  0.34605032772E+01  0.11509315615E+02  0.87632806525E+02  0.10160683150E+03  0.50000000000E+02 0.  0.
<mgrwt>
<rscale>  0 0.51424113E+02</rscale>
<asrwt>0</asrwt>
<pdfrwt beam="1">  1       13 0.10000000E+01 0.51424113E+02</pdfrwt>
<pdfrwt beam="2">  1       22 0.13699206E+00 0.51424113E+02</pdfrwt>
<totfact> 0.87228937E-01</totfact>
</mgrwt>
</event>
<event>
 4    1  0.2451537E+000  0.5404535E+02  0.7957747E-01  0.1424668E+00
         13   -1    0    0    0    0  0.00000000000E+00  0.00000000000E+00  0.99999944175E+02  0.99999999995E+02  0.10566000000E+00 0.  1.
         22   -1    0    0    0    0 -0.00000000000E+00 -0.00000000000E+00 -0.45643891260E+02  0.45643891260E+02  0.00000000000E+00 0. -1.
         13    1    1    2    0    0 -0.20513239991E+02 -0.32650884426E+00 -0.35375066246E+02  0.40893839376E+02  0.10566000000E+00 0. -1.
        996    1    1    2    0    0  0.20513239991E+02  0.32650884426E+00  0.89731119161E+02  0.10475005188E+03  0.50000000000E+02 0.  0.
<mgrwt>
<rscale>  0 0.54045348E+02</rscale>
<asrwt>0</asrwt>
<pdfrwt beam="1">  1       13 0.10000000E+01 0.54045348E+02</pdfrwt>
<pdfrwt beam="2">  1       22 0.45643906E+00 0.54045348E+02</pdfrwt>
<totfact> 0.93523028E-02</totfact>
</mgrwt>
</event>
<event>
 4    1  0.2451537E+000  0.5571425E+02  0.7957747E-01  0.1416751E+00
         13   -1    0    0    0    0  0.00000000000E+00  0.00000000000E+00  0.99999944172E+02  0.99999999993E+02  0.10566000000E+00 0. -1.
         22   -1    0    0    0    0 -0.00000000000E+00 -0.00000000000E+00 -0.60994636734E+02  0.60994636734E+02  0.00000000000E+00 0.  1.
         13    1    1    2    0    0 -0.24287538444E+02  0.37674227897E+01 -0.50157780140E+02  0.55855994045E+02  0.10566000000E+00 0.  1.
        996    1    1    2    0    0  0.24287538444E+02 -0.37674227897E+01  0.89163087579E+02  0.10513864268E+03  0.50000000000E+02 0.  0.
<mgrwt>
<rscale>  0 0.55714253E+02</rscale>
<asrwt>0</asrwt>
<pdfrwt beam="1">  1       13 0.10000000E+01 0.55714253E+02</pdfrwt>
<pdfrwt beam="2">  1       22 0.60994648E+00 0.55714253E+02</pdfrwt>
<totfact> 0.67604369E-02</totfact>
</mgrwt>
</event>
<event>
 4    1  0.2451537E+000  0.5973696E+02  0.7957747E-01  0.1398939E+00
         13   -1    0    0    0    0  0.00000000000E+00  0.00000000000E+00  0.99999944181E+02  0.10000000000E+03  0.10566000000E+00 0.  1.
         22   -1    0    0    0    0 -0.00000000000E+00 -0.00000000000E+00 -0.28547964514E+02  0.28547964514E+02  0.00000000000E+00 0.  1.
         13    1    1    2    0    0  0.10879093905E+02 -0.30824490799E+02 -0.33054216360E+01  0.32854845813E+02  0.10566000000E+00 0. -1.
        996    1    1    2    0    0 -0.10879093905E+02  0.30824490799E+02  0.74757401304E+02  0.95693118702E+02  0.50000000000E+02 0.  0.
<mgrwt>
<rscale>  0 0.59736956E+02</rscale>
<asrwt>0</asrwt>
<pdfrwt beam="1">  1       13 0.10000000E+01 0.59736956E+02</pdfrwt>
<pdfrwt beam="2">  1       22 0.28547984E+00 0.59736956E+02</pdfrwt>
<totfact> 0.22974012E-01</totfact>
</mgrwt>
</event>
<event>
 4    1  0.2451537E+000  0.5138256E+02  0.7957747E-01  0.1438024E+00
         13   -1    0    0    0    0  0.00000000000E+00  0.00000000000E+00  0.99999944186E+02  0.10000000001E+03  0.10566000000E+00 0. -1.
         22   -1    0    0    0    0 -0.00000000000E+00 -0.00000000000E+00 -0.10298618476E+02  0.10298618476E+02  0.00000000000E+00 0. -1.
         13    1    1    2    0    0 -0.23066526656E+00  0.11836988724E+02  0.10144093628E+02  0.15591065008E+02  0.10566000000E+00 0.  1.
        996    1    1    2    0    0  0.23066526656E+00 -0.11836988724E+02  0.79557232082E+02  0.94707553475E+02  0.50000000000E+02 0.  0.
<mgrwt>
<rscale>  0 0.51382560E+02</rscale>
<asrwt>0</asrwt>
<pdfrwt beam="1">  1       13 0.10000000E+01 0.51382560E+02</pdfrwt>
<pdfrwt beam="2">  1       22 0.10298644E+00 0.51382560E+02</pdfrwt>
<totfact> 0.13487349E+00</totfact>
</mgrwt>
</event>
<event>
 4    1  0.2451537E+000  0.5228580E+02  0.7957747E-01  0.1433389E+00
         13   -1    0    0    0    0  0.00000000000E+00  0.00000000000E+00  0.99999944178E+02  0.99999999998E+02  0.10566000000E+00 0.  1.
         22   -1    0    0    0    0 -0.00000000000E+00 -0.00000000000E+00 -0.14667562062E+02  0.14667562062E+02  0.00000000000E+00 0.  1.
         13    1    1    2    0    0 -0.15078305674E+02 -0.25395917763E+01  0.85048440062E+00  0.15314676495E+02  0.10566000000E+00 0. -1.
        996    1    1    2    0    0  0.15078305674E+02  0.25395917763E+01  0.84481897716E+02  0.99352885565E+02  0.50000000000E+02 0.  0.
<mgrwt>
<rscale>  0 0.52285799E+02</rscale>
<asrwt>0</asrwt>
<pdfrwt beam="1">  1       13 0.10000000E+01 0.52285799E+02</pdfrwt>
<pdfrwt beam="2">  1       22 0.14667586E+00 0.52285799E+02</pdfrwt>
<totfact> 0.78188243E-01</totfact>
</mgrwt>
</event>
<event>
 4    1  0.2451537E+000  0.5156178E+02  0.7957747E-01  0.1437095E+00
         13   -1    0    0    0    0  0.00000000000E+00  0.00000000000E+00  0.99999944194E+02  0.10000000001E+03  0.10566000000E+00 0. -1.
         22   -1    0    0    0    0 -0.00000000000E+00 -0.00000000000E+00 -0.19725131398E+02  0.19725131398E+02  0.00000000000E+00 0.  1.
         13    1    1    2    0    0 -0.11653997579E+02 -0.47751321671E+01 -0.97852270813E+01  0.15949275214E+02  0.10566000000E+00 0.  1.
        996    1    1    2    0    0  0.11653997579E+02  0.47751321671E+01  0.90060039878E+02  0.10377585620E+03  0.50000000000E+02 0.  0.
<mgrwt>
<rscale>  0 0.51561784E+02</rscale>
<asrwt>0</asrwt>
<pdfrwt beam="1">  1       13 0.10000000E+01 0.51561784E+02</pdfrwt>
<pdfrwt beam="2">  1       22 0.19725154E+00 0.51561784E+02</pdfrwt>
<totfact> 0.46452795E-01</totfact>
</mgrwt>
</event>
<event>
 4    1  0.2451537E+000  0.5231285E+02  0.7957747E-01  0.1433251E+00
         13   -1    0    0    0    0  0.00000000000E+00  0.00000000000E+00  0.99999944178E+02  0.99999999998E+02  0.10566000000E+00 0.  1.
         22   -1    0    0    0    0 -0.00000000000E+00 -0.00000000000E+00 -0.11459311478E+02  0.11459311478E+02  0.00000000000E+00 0.  1.
         13    1    1    2    0    0 -0.52648990178E+01 -0.14453901038E+02  0.19446644227E+02  0.24795514768E+02  0.10566000000E+00 0. -1.
        996    1    1    2    0    0  0.52648990178E+01  0.14453901038E+02  0.69093988472E+02  0.86663796708E+02  0.50000000000E+02 0.  0.
<mgrwt>
<rscale>  0 0.52312851E+02</rscale>
<asrwt>0</asrwt>
<pdfrwt beam="1">  1       13 0.10000000E+01 0.52312851E+02</pdfrwt>
<pdfrwt beam="2">  1       22 0.11459336E+00 0.52312851E+02</pdfrwt>
<totfact> 0.11537216E+00</totfact>
</mgrwt>
</event>
<event>
 4    1  0.2451537E+000  0.5160561E+02  0.7957747E-01  0.1436869E+00
         13   -1    0    0    0    0  0.00000000000E+00  0.00000000000E+00  0.99999944179E+02  0.99999999999E+02  0.10566000000E+00 0. -1.
         22   -1    0    0    0    0 -0.00000000000E+00 -0.00000000000E+00 -0.13696990045E+02  0.13696990045E+02  0.00000000000E+00 0.  1.
         13    1    1    2    0    0  0.72140138735E+01 -0.10540274565E+02 -0.42133369681E+00  0.12779987096E+02  0.10566000000E+00 0.  1.
        996    1    1    2    0    0 -0.72140138735E+01  0.10540274565E+02  0.86724287831E+02  0.10091700295E+03  0.50000000000E+02 0.  0.
<mgrwt>
<rscale>  0 0.51605614E+02</rscale>
<asrwt>0</asrwt>
<pdfrwt beam="1">  1       13 0.10000000E+01 0.51605614E+02</pdfrwt>
<pdfrwt beam="2">  1       22 0.13697014E+00 0.51605614E+02</pdfrwt>
<totfact> 0.87285276E-01</totfact>
</mgrwt>
</event>
<event>
 4    1  0.2451537E+000  0.5415456E+02  0.7957747E-01  0.1424140E+00
         13   -1    0    0    0    0  0.00000000000E+00  0.00000000000E+00  0.99999944179E+02  0.99999999999E+02  0.10566000000E+00 0.  1.
         22   -1    0    0    0    0 -0.00000000000E+00 -0.00000000000E+00 -0.16515739659E+02  0.16515739659E+02  0.00000000000E+00 0.  1.
         13    1    1    2    0    0  0.16620250853E+02  0.12509345243E+02  0.54024612467E+01  0.21492189474E+02  0.10566000000E+00 0. -1.
        996    1    1    2    0    0 -0.16620250853E+02 -0.12509345243E+02  0.78081743274E+02  0.95023550184E+02  0.50000000000E+02 0.  0.
<mgrwt>
<rscale>  0 0.54154561E+02</rscale>
<asrwt>0</asrwt>
<pdfrwt beam="1">  1       13 0.10000000E+01 0.54154561E+02</pdfrwt>
<pdfrwt beam="2">  1       22 0.16515763E+00 0.54154561E+02</pdfrwt>
<totfact> 0.64202499E-01</totfact>
</mgrwt>
</event>
<event>
 4    1  0.2451537E+000  0.5495779E+02  0.7957747E-01  0.1420299E+00
         13   -1    0    0    0    0  0.00000000000E+00  0.00000000000E+00  0.99999944179E+02  0.99999999999E+02  0.10566000000E+00 0.  1.
         22   -1    0    0    0    0 -0.00000000000E+00 -0.00000000000E+00 -0.15358205241E+02  0.15358205241E+02  0.00000000000E+00 0.  1.
         13    1    1    2    0    0 -0.17955399434E+02 -0.14069908651E+02  0.31647441808E+02  0.39011926834E+02  0.10566000000E+00 0. -1.
        996    1    1    2    0    0  0.17955399434E+02  0.14069908651E+02  0.52994297129E+02  0.76346278406E+02  0.50000000000E+02 0.  0.
<mgrwt>
<rscale>  0 0.54957790E+02</rscale>
<asrwt>0</asrwt>
<pdfrwt beam="1">  1       13 0.10000000E+01 0.54957790E+02</pdfrwt>
<pdfrwt beam="2">  1       22 0.15358229E+00 0.54957790E+02</pdfrwt>
<totfact> 0.72799261E-01</totfact>
</mgrwt>
</event>
<event>
 4    1  0.2451537E+000  0.5743291E+02  0.7957747E-01  0.1408932E+00
         13   -1    0    0    0    0  0.00000000000E+00  0.00000000000E+00  0.99999944184E+02  0.10000000000E+03  0.10566000000E+00 0. -1.
         22   -1    0    0    0    0 -0.00000000000E+00 -0.00000000000E+00 -0.19747215828E+02  0.19747215828E+02  0.00000000000E+00 0.  1.
         13    1    1    2    0    0 -0.25773756195E+02  0.11586739582E+02  0.12423521826E+02  0.30868982833E+02  0.10566000000E+00 0.  1.
        996    1    1    2    0    0  0.25773756195E+02 -0.11586739582E+02  0.67829206530E+02  0.88878232999E+02  0.50000000000E+02 0.  0.
<mgrwt>
<rscale>  0 0.57432909E+02</rscale>
<asrwt>0</asrwt>
<pdfrwt beam="1">  1       13 0.10000000E+01 0.57432909E+02</pdfrwt>
<pdfrwt beam="2">  1       22 0.19747238E+00 0.57432909E+02</pdfrwt>
<totfact> 0.46826758E-01</totfact>
</mgrwt>
</event>
<event>
 4    1  0.2451537E+000  0.5104249E+02  0.7957747E-01  0.1439798E+00
         13   -1    0    0    0    0  0.00000000000E+00  0.00000000000E+00  0.99999944178E+02  0.99999999998E+02  0.10566000000E+00 0.  1.
         22   -1    0    0    0    0 -0.00000000000E+00 -0.00000000000E+00 -0.10565386315E+02  0.10565386315E+02  0.00000000000E+00 0.  1.
         13    1    1    2    0    0 -0.54767906940E+01 -0.86798670665E+01  0.39421325402E+01  0.10994857962E+02  0.10566000000E+00 0. -1.
        996    1    1    2    0    0  0.54767906940E+01  0.86798670665E+01  0.85492425323E+02  0.99570528352E+02  0.50000000000E+02 0.  0.
<mgrwt>
<rscale>  0 0.51042486E+02</rscale>
<asrwt>0</asrwt>
<pdfrwt beam="1">  1       13 0.10000000E+01 0.51042486E+02</pdfrwt>
<pdfrwt beam="2">  1       22 0.10565411E+00 0.51042486E+02</pdfrwt>
<totfact> 0.12980904E+00</totfact>
</mgrwt>
</event>
<event>
 4    1  0.2451537E+000  0.5108284E+02  0.7957747E-01  0.1439587E+00
         13   -1    0    0    0    0  0.00000000000E+00  0.00000000000E+00  0.99999944178E+02  0.99999999998E+02  0.10566000000E+00 0. -1.
         22   -1    0    0    0    0 -0.00000000000E+00 -0.00000000000E+00 -0.10243289113E+02  0.10243289113E+02  0.00000000000E+00 0.  1.
         13    1    1    2    0    0  0.19810973402E+01 -0.10272877493E+02  0.57878501051E+01  0.11956886365E+02  0.10566000000E+00 0.  1.
        996    1    1    2    0    0 -0.19810973402E+01  0.10272877493E+02  0.83968804959E+02  0.98286402747E+02  0.50000000000E+02 0.  0.
<mgrwt>
<rscale>  0 0.51082842E+02</rscale>
<asrwt>0</asrwt>
<pdfrwt beam="1">  1       13 0.10000000E+01 0.51082842E+02</pdfrwt>
<pdfrwt beam="2">  1       22 0.10243314E+00 0.51082842E+02</pdfrwt>
<totfact> 0.13583921E+00</totfact>
</mgrwt>
</event>
<event>
 4    1  0.2451537E+000  0.5141757E+02  0.7957747E-01  0.1437842E+00
         13   -1    0    0    0    0  0.00000000000E+00  0.00000000000E+00  0.99999944175E+02  0.99999999996E+02  0.10566000000E+00 0. -1.
         22   -1    0    0    0    0 -0.00000000000E+00 -0.00000000000E+00 -0.28748927918E+02  0.28748927918E+02  0.00000000000E+00 0.  1.
         13    1    1    2    0    0  0.55642975506E+01 -0.10620977120E+02 -0.20398288578E+02  0.23661527912E+02  0.10566000000E+00 0.  1.
        996    1    1    2    0    0 -0.55642975506E+01  0.10620977120E+02  0.91649304835E+02  0.10508740000E+03  0.50000000000E+02 0.  0.
<mgrwt>
<rscale>  0 0.51417571E+02</rscale>
<asrwt>0</asrwt>
<pdfrwt beam="1">  1       13 0.10000000E+01 0.51417571E+02</pdfrwt>
<pdfrwt beam="2">  1       22 0.28748948E+00 0.51417571E+02</pdfrwt>
<totfact> 0.22423044E-01</totfact>
</mgrwt>
</event>
<event>
 4    1  0.2451537E+000  0.5199617E+02  0.7957747E-01  0.1434863E+00
         13   -1    0    0    0    0  0.00000000000E+00  0.00000000000E+00  0.99999944191E+02  0.10000000001E+03  0.10566000000E+00 0. -1.
         22   -1    0    0    0    0 -0.00000000000E+00 -0.00000000000E+00 -0.16982646916E+02  0.16982646916E+02  0.00000000000E+00 0.  1.
         13    1    1    2    0    0  0.50997813777E+01  0.13326448689E+02 -0.46906238728E+01  0.15020490042E+02  0.10566000000E+00 0.  1.
        996    1    1    2    0    0 -0.50997813777E+01 -0.13326448689E+02  0.87707921148E+02  0.10196215689E+03  0.50000000000E+02 0.  0.
<mgrwt>
<rscale>  0 0.51996173E+02</rscale>
<asrwt>0</asrwt>
<pdfrwt beam="1">  1       13 0.10000000E+01 0.51996173E+02</pdfrwt>
<pdfrwt beam="2">  1       22 0.16982670E+00 0.51996173E+02</pdfrwt>
<totfact> 0.60906878E-01</totfact>
</mgrwt>
</event>
<event>
 4    1  0.2451537E+000  0.6023926E+02  0.7957747E-01  0.1396830E+00
         13   -1    0    0    0    0  0.00000000000E+00  0.00000000000E+00  0.99999944186E+02  0.10000000001E+03  0.10566000000E+00 0.  1.
         22   -1    0    0    0    0 -0.00000000000E+00 -0.00000000000E+00 -0.23829873286E+02  0.23829873286E+02  0.00000000000E+00 0. -1.
         13    1    1    2    0    0  0.20551739746E+01  0.33534234927E+02  0.11650135678E+02  0.35559885792E+02  0.10566000000E+00 0. -1.
        996    1    1    2    0    0 -0.20551739746E+01 -0.33534234927E+02  0.64519935221E+02  0.88269987500E+02  0.50000000000E+02 0.  0.
<mgrwt>
<rscale>  0 0.60239262E+02</rscale>
<asrwt>0</asrwt>
<pdfrwt beam="1">  1       13 0.10000000E+01 0.60239262E+02</pdfrwt>
<pdfrwt beam="2">  1       22 0.23829895E+00 0.60239262E+02</pdfrwt>
<totfact> 0.32789928E-01</totfact>
</mgrwt>
</event>
<event>
 4    1  0.2451537E+000  0.6032804E+02  0.7957747E-01  0.1396460E+00
         13   -1    0    0    0    0  0.00000000000E+00  0.00000000000E+00  0.99999944174E+02  0.99999999994E+02  0.10566000000E+00 0. -1.
         22   -1    0    0    0    0 -0.00000000000E+00 -0.00000000000E+00 -0.23930995286E+02  0.23930995286E+02  0.00000000000E+00 0.  1.
         13    1    1    2    0    0  0.18767423665E+02 -0.28058088537E+02  0.11739221374E+02  0.35739236223E+02  0.10566000000E+00 0.  1.
        996    1    1    2    0    0 -0.18767423665E+02  0.28058088537E+02  0.64329727515E+02  0.88191759056E+02  0.50000000000E+02 0.  0.
<mgrwt>
<rscale>  0 0.60328041E+02</rscale>
<asrwt>0</asrwt>
<pdfrwt beam="1">  1       13 0.10000000E+01 0.60328041E+02</pdfrwt>
<pdfrwt beam="2">  1       22 0.23931017E+00 0.60328041E+02</pdfrwt>
<totfact> 0.32522117E-01</totfact>
</mgrwt>
</event>
<event>
 4    1  0.2451537E+000  0.5149201E+02  0.7957747E-01  0.1437456E+00
         13   -1    0    0    0    0  0.00000000000E+00  0.00000000000E+00  0.99999944176E+02  0.99999999996E+02  0.10566000000E+00 0. -1.
         22   -1    0    0    0    0 -0.00000000000E+00 -0.00000000000E+00 -0.10971094428E+02  0.10971094428E+02  0.00000000000E+00 0. -1.
         13    1    1    2    0    0  0.11474343146E+02  0.44459400817E+01  0.71079940764E+01  0.14211322165E+02  0.10566000000E+00 0.  1.
        996    1    1    2    0    0 -0.11474343146E+02 -0.44459400817E+01  0.81920855672E+02  0.96759772260E+02  0.50000000000E+02 0.  0.
<mgrwt>
<rscale>  0 0.51492008E+02</rscale>
<asrwt>0</asrwt>
<pdfrwt beam="1">  1       13 0.10000000E+01 0.51492008E+02</pdfrwt>
<pdfrwt beam="2">  1       22 0.10971119E+00 0.51492008E+02</pdfrwt>
<totfact> 0.12290785E+00</totfact>
</mgrwt>
</event>
<event>
 4    1  0.2451537E+000  0.6392232E+02  0.7957747E-01  0.1382072E+00
         13   -1    0    0    0    0  0.00000000000E+00  0.00000000000E+00  0.99999944171E+02  0.99999999991E+02  0.10566000000E+00 0. -1.
         22   -1    0    0    0    0 -0.00000000000E+00 -0.00000000000E+00 -0.27678873593E+02  0.27678873593E+02  0.00000000000E+00 0.  1.
         13    1    1    2    0    0  0.38090426269E+02  0.11626812031E+02  0.17631628503E+02  0.43553975927E+02  0.10566000000E+00 0.  1.
        996    1    1    2    0    0 -0.38090426269E+02 -0.11626812031E+02  0.54689442075E+02  0.84124897657E+02  0.50000000000E+02 0.  0.
<mgrwt>
<rscale>  0 0.63922323E+02</rscale>
<asrwt>0</asrwt>
<pdfrwt beam="1">  1       13 0.10000000E+01 0.63922323E+02</pdfrwt>
<pdfrwt beam="2">  1       22 0.27678894E+00 0.63922323E+02</pdfrwt>
<totfact> 0.24518463E-01</totfact>
</mgrwt>
</event>
<event>
 4    1  0.2451537E+000  0.5158650E+02  0.7957747E-01  0.1436968E+00
         13   -1    0    0    0    0  0.00000000000E+00  0.00000000000E+00  0.99999944173E+02  0.99999999994E+02  0.10566000000E+00 0. -1.
         22   -1    0    0    0    0 -0.00000000000E+00 -0.00000000000E+00 -0.10933563642E+02  0.10933563642E+02  0.00000000000E+00 0. -1.
         13    1    1    2    0    0  0.17464271101E+00 -0.12693969220E+02  0.85402315434E+01  0.15300786695E+02  0.10566000000E+00 0.  1.
        996    1    1    2    0    0 -0.17464271101E+00  0.12693969220E+02  0.80526148988E+02  0.95632776941E+02  0.50000000000E+02 0.  0.
<mgrwt>
<rscale>  0 0.51586504E+02</rscale>
<asrwt>0</asrwt>
<pdfrwt beam="1">  1       13 0.10000000E+01 0.51586504E+02</pdfrwt>
<pdfrwt beam="2">  1       22 0.10933589E+00 0.51586504E+02</pdfrwt>
<totfact> 0.12356243E+00</totfact>
</mgrwt>
</event>
<event>
 4    1  0.2451537E+000  0.5113669E+02  0.7957747E-01  0.1439305E+00
         13   -1    0    0    0    0  0.00000000000E+00  0.00000000000E+00  0.99999944178E+02  0.99999999998E+02  0.10566000000E+00 0.  1.
         22   -1    0    0    0    0 -0.00000000000E+00 -0.00000000000E+00 -0.57886165216E+02  0.57886165216E+02  0.00000000000E+00 0. -1.
         13    1    1    2    0    0 -0.74464632521E+01 -0.77143497764E+01 -0.50751799778E+02  0.51872125002E+02  0.10566000000E+00 0. -1.
        996    1    1    2    0    0  0.74464632521E+01  0.77143497764E+01  0.92865578740E+02  0.10601404021E+03  0.50000000000E+02 0.  0.
<mgrwt>
<rscale>  0 0.51136689E+02</rscale>
<asrwt>0</asrwt>
<pdfrwt beam="1">  1       13 0.10000000E+01 0.51136689E+02</pdfrwt>
<pdfrwt beam="2">  1       22 0.57886177E+00 0.51136689E+02</pdfrwt>
<totfact> 0.58131684E-02</totfact>
</mgrwt>
</event>
<event>
 4    1  0.2451537E+000  0.5193466E+02  0.7957747E-01  0.1435177E+00
         13   -1    0    0    0    0  0.00000000000E+00  0.00000000000E+00  0.99999944179E+02  0.10000000000E+03  0.10566000000E+00 0.  1.
         22   -1    0    0    0    0 -0.00000000000E+00 -0.00000000000E+00 -0.15814722627E+02  0.15814722627E+02  0.00000000000E+00 0. -1.
         13    1    1    2    0    0  0.72124855693E+01  0.12049441128E+02 -0.29746699547E+01  0.14355096829E+02  0.10566000000E+00 0. -1.
        996    1    1    2    0    0 -0.72124855693E+01 -0.12049441128E+02  0.87159891507E+02  0.10145962580E+03  0.50000000000E+02 0.  0.
<mgrwt>
<rscale>  0 0.51934661E+02</rscale>
<asrwt>0</asrwt>
<pdfrwt beam="1">  1       13 0.10000000E+01 0.51934661E+02</pdfrwt>
<pdfrwt beam="2">  1       22 0.15814746E+00 0.51934661E+02</pdfrwt>
<totfact> 0.68870538E-01</totfact>
</mgrwt>
</event>
<event>
 4    1  0.2451537E+000  0.5162316E+02  0.7957747E-01  0.1436778E+00
         13   -1    0    0    0    0  0.00000000000E+00  0.00000000000E+00  0.99999944179E+02  0.99999999999E+02  0.10566000000E+00 0.  1.
         22   -1    0    0    0    0 -0.00000000000E+00 -0.00000000000E+00 -0.10880105166E+02  0.10880105166E+02  0.00000000000E+00 0.  1.
         13    1    1    2    0    0  0.35143172902E+01  0.12353130660E+02  0.28482669468E+02  0.31244581726E+02  0.10566000000E+00 0. -1.
        996    1    1    2    0    0 -0.35143172902E+01 -0.12353130660E+02  0.60637169544E+02  0.79635523439E+02  0.50000000000E+02 0.  0.
<mgrwt>
<rscale>  0 0.51623156E+02</rscale>
<asrwt>0</asrwt>
<pdfrwt beam="1">  1       13 0.10000000E+01 0.51623156E+02</pdfrwt>
<pdfrwt beam="2">  1       22 0.10880130E+00 0.51623156E+02</pdfrwt>
<totfact> 0.12447504E+00</totfact>
</mgrwt>
</event>
<event>
 4    1  0.2451537E+000  0.5812999E+02  0.7957747E-01  0.1405851E+00
         13   -1    0    0    0    0  0.00000000000E+00  0.00000000000E+00  0.99999944183E+02  0.10000000000E+03  0.10566000000E+00 0.  1.
         22   -1    0    0    0    0 -0.00000000000E+00 -0.00000000000E+00 -0.19432471585E+02  0.19432471585E+02  0.00000000000E+00 0.  1.
         13    1    1    2    0    0 -0.52283801681E+01 -0.29184915261E+02  0.22052475336E+02  0.36951563843E+02  0.10566000000E+00 0. -1.
        996    1    1    2    0    0  0.52283801681E+01  0.29184915261E+02  0.58514997261E+02  0.82480907745E+02  0.50000000000E+02 0.  0.
<mgrwt>
<rscale>  0 0.58129986E+02</rscale>
<asrwt>0</asrwt>
<pdfrwt beam="1">  1       13 0.10000000E+01 0.58129986E+02</pdfrwt>
<pdfrwt beam="2">  1       22 0.19432494E+00 0.58129986E+02</pdfrwt>
<totfact> 0.48298965E-01</totfact>
</mgrwt>
</event>
<event>
 4    1  0.2451537E+000  0.7648672E+02  0.7957747E-01  0.1339328E+00
         13   -1    0    0    0    0  0.00000000000E+00  0.00000000000E+00  0.99999944177E+02  0.99999999997E+02  0.10566000000E+00 0.  1.
         22   -1    0    0    0    0 -0.00000000000E+00 -0.00000000000E+00 -0.53775861318E+02  0.53775861318E+02  0.00000000000E+00 0. -1.
         13    1    1    2    0    0 -0.51066491231E+02  0.27247604828E+02 -0.10142622421E+02  0.58763104489E+02  0.10566000000E+00 0. -1.
        996    1    1    2    0    0  0.51066491231E+02 -0.27247604828E+02  0.56366705281E+02  0.95012756826E+02  0.50000000000E+02 0.  0.
<mgrwt>
<rscale>  0 0.76486721E+02</rscale>
<asrwt>0</asrwt>
<pdfrwt beam="1">  1       13 0.10000000E+01 0.76486721E+02</pdfrwt>
<pdfrwt beam="2">  1       22 0.53775874E+00 0.76486721E+02</pdfrwt>
<totfact> 0.61530531E-02</totfact>
</mgrwt>
</event>
<event>
 4    1  0.2451537E+000  0.5107444E+02  0.7957747E-01  0.1439631E+00
         13   -1    0    0    0    0  0.00000000000E+00  0.00000000000E+00  0.99999944181E+02  0.10000000000E+03  0.10566000000E+00 0.  1.
         22   -1    0    0    0    0 -0.00000000000E+00 -0.00000000000E+00 -0.11249417312E+02  0.11249417312E+02  0.00000000000E+00 0.  1.
         13    1    1    2    0    0  0.27990109693E+01  0.10038113197E+02  0.20467302670E+01  0.10620661363E+02  0.10566000000E+00 0. -1.
        996    1    1    2    0    0 -0.27990109693E+01 -0.10038113197E+02  0.86703796602E+02  0.10062875595E+03  0.50000000000E+02 0.  0.
<mgrwt>
<rscale>  0 0.51074438E+02</rscale>
<asrwt>0</asrwt>
<pdfrwt beam="1">  1       13 0.10000000E+01 0.51074438E+02</pdfrwt>
<pdfrwt beam="2">  1       22 0.11249442E+00 0.51074438E+02</pdfrwt>
<totfact> 0.11828381E+00</totfact>
</mgrwt>
</event>
<event>
 4    1  0.2451537E+000  0.5152363E+02  0.7957747E-01  0.1437293E+00
         13   -1    0    0    0    0  0.00000000000E+00  0.00000000000E+00  0.99999944174E+02  0.99999999995E+02  0.10566000000E+00 0.  1.
         22   -1    0    0    0    0 -0.00000000000E+00 -0.00000000000E+00 -0.10978215906E+02  0.10978215906E+02  0.00000000000E+00 0.  1.
         13    1    1    2    0    0 -0.12303681457E+02 -0.18177264629E+01  0.74537810686E+01  0.14500162866E+02  0.10566000000E+00 0. -1.
        996    1    1    2    0    0  0.12303681457E+02  0.18177264629E+01  0.81567947200E+02  0.96478053034E+02  0.50000000000E+02 0.  0.
<mgrwt>
<rscale>  0 0.51523633E+02</rscale>
<asrwt>0</asrwt>
<pdfrwt beam="1">  1       13 0.10000000E+01 0.51523633E+02</pdfrwt>
<pdfrwt beam="2">  1       22 0.10978241E+00 0.51523633E+02</pdfrwt>
<totfact> 0.12279842E+00</totfact>
</mgrwt>
</event>
<event>
 4    1  0.2451537E+000  0.5171076E+02  0.7957747E-01  0.1436327E+00
         13   -1    0    0    0    0  0.00000000000E+00  0.00000000000E+00  0.99999944177E+02  0.99999999998E+02  0.10566000000E+00 0. -1.
         22   -1    0    0    0    0 -0.00000000000E+00 -0.00000000000E+00 -0.10928248530E+02  0.10928248530E+02  0.00000000000E+00 0.  1.
         13    1    1    2    0    0  0.12242043297E+02 -0.49126971298E+01  0.10467569988E+02  0.16839934759E+02  0.10566000000E+00 0.  1.
        996    1    1    2    0    0 -0.12242043297E+02  0.49126971298E+01  0.78604125659E+02  0.94088313769E+02  0.50000000000E+02 0.  0.
<mgrwt>
<rscale>  0 0.51710755E+02</rscale>
<asrwt>0</asrwt>
<pdfrwt beam="1">  1       13 0.10000000E+01 0.51710755E+02</pdfrwt>
<pdfrwt beam="2">  1       22 0.10928273E+00 0.51710755E+02</pdfrwt>
<totfact> 0.12368751E+00</totfact>
</mgrwt>
</event>
<event>
 4    1  0.2451537E+000  0.5259879E+02  0.7957747E-01  0.1431808E+00
         13   -1    0    0    0    0  0.00000000000E+00  0.00000000000E+00  0.99999944177E+02  0.99999999997E+02  0.10566000000E+00 0.  1.
         22   -1    0    0    0    0 -0.00000000000E+00 -0.00000000000E+00 -0.12704730939E+02  0.12704730939E+02  0.00000000000E+00 0.  1.
         13    1    1    2    0    0 -0.26294171280E+01 -0.16115798462E+02  0.97975709789E+01  0.19043013302E+02  0.10566000000E+00 0. -1.
        996    1    1    2    0    0  0.26294171280E+01  0.16115798462E+02  0.77497642259E+02  0.93661717634E+02  0.50000000000E+02 0.  0.
<mgrwt>
<rscale>  0 0.52598791E+02</rscale>
<asrwt>0</asrwt>
<pdfrwt beam="1">  1       13 0.10000000E+01 0.52598791E+02</pdfrwt>
<pdfrwt beam="2">  1       22 0.12704755E+00 0.52598791E+02</pdfrwt>
<totfact> 0.98538817E-01</totfact>
</mgrwt>
</event>
<event>
 4    1  0.2451537E+000  0.5113630E+02  0.7957747E-01  0.1439307E+00
         13   -1    0    0    0    0  0.00000000000E+00  0.00000000000E+00  0.99999944177E+02  0.99999999997E+02  0.10566000000E+00 0.  1.
         22   -1    0    0    0    0 -0.00000000000E+00 -0.00000000000E+00 -0.13389655213E+02  0.13389655213E+02  0.00000000000E+00 0.  1.
         13    1    1    2    0    0  0.10712273119E+02 -0.41024443613E+00 -0.21675641338E+01  0.10937577162E+02  0.10566000000E+00 0. -1.
        996    1    1    2    0    0 -0.10712273119E+02  0.41024443613E+00  0.88777853097E+02  0.10245207805E+03  0.50000000000E+02 0.  0.
<mgrwt>
<rscale>  0 0.51136299E+02</rscale>
<asrwt>0</asrwt>
<pdfrwt beam="1">  1       13 0.10000000E+01 0.51136299E+02</pdfrwt>
<pdfrwt beam="2">  1       22 0.13389679E+00 0.51136299E+02</pdfrwt>
<totfact> 0.90419183E-01</totfact>
</mgrwt>
</event>
<event>
 4    1  0.2451537E+000  0.5149160E+02  0.7957747E-01  0.1437458E+00
         13   -1    0    0    0    0  0.00000000000E+00  0.00000000000E+00  0.99999944176E+02  0.99999999996E+02  0.10566000000E+00 0.  1.
         22   -1    0    0    0    0 -0.00000000000E+00 -0.00000000000E+00 -0.10336510096E+02  0.10336510096E+02  0.00000000000E+00 0. -1.
         13    1    1    2    0    0  0.58021361929E+01  0.10849902229E+02  0.12253020219E+02  0.17364700726E+02  0.10566000000E+00 0. -1.
        996    1    1    2    0    0 -0.58021361929E+01 -0.10849902229E+02  0.77410413861E+02  0.92971809366E+02  0.50000000000E+02 0.  0.
<mgrwt>
<rscale>  0 0.51491603E+02</rscale>
<asrwt>0</asrwt>
<pdfrwt beam="1">  1       13 0.10000000E+01 0.51491603E+02</pdfrwt>
<pdfrwt beam="2">  1       22 0.10336535E+00 0.51491603E+02</pdfrwt>
<totfact> 0.13418704E+00</totfact>
</mgrwt>
</event>
<event>
 4    1  0.2451537E+000  0.5166572E+02  0.7957747E-01  0.1436559E+00
         13   -1    0    0    0    0  0.00000000000E+00  0.00000000000E+00  0.99999944179E+02  0.10000000000E+03  0.10566000000E+00 0. -1.
         22   -1    0    0    0    0 -0.00000000000E+00 -0.00000000000E+00 -0.14161702847E+02  0.14161702847E+02  0.00000000000E+00 0.  1.
         13    1    1    2    0    0 -0.33081363634E+01 -0.12585817017E+02 -0.10680956153E+01  0.13057509275E+02  0.10566000000E+00 0.  1.
        996    1    1    2    0    0  0.33081363634E+01  0.12585817017E+02  0.86906336948E+02  0.10110419357E+03  0.50000000000E+02 0.  0.
<mgrwt>
<rscale>  0 0.51665719E+02</rscale>
<asrwt>0</asrwt>
<pdfrwt beam="1">  1       13 0.10000000E+01 0.51665719E+02</pdfrwt>
<pdfrwt beam="2">  1       22 0.14161727E+00 0.51665719E+02</pdfrwt>
<totfact> 0.82711146E-01</totfact>
</mgrwt>
</event>
<event>
 4    1  0.2451537E+000  0.5116508E+02  0.7957747E-01  0.1439157E+00
         13   -1    0    0    0    0  0.00000000000E+00  0.00000000000E+00  0.99999944184E+02  0.10000000000E+03  0.10566000000E+00 0.  1.
         22   -1    0    0    0    0 -0.00000000000E+00 -0.00000000000E+00 -0.26091160410E+02  0.26091160410E+02  0.00000000000E+00 0.  1.
         13    1    1    2    0    0  0.95649615588E+01 -0.51358033752E+01 -0.17930373970E+02  0.20961260475E+02  0.10566000000E+00 0. -1.
        996    1    1    2    0    0 -0.95649615588E+01  0.51358033752E+01  0.91839157744E+02  0.10512989994E+03  0.50000000000E+02 0.  0.
<mgrwt>
<rscale>  0 0.51165076E+02</rscale>
<asrwt>0</asrwt>
<pdfrwt beam="1">  1       13 0.10000000E+01 0.51165076E+02</pdfrwt>
<pdfrwt beam="2">  1       22 0.26091181E+00 0.51165076E+02</pdfrwt>
<totfact> 0.27068092E-01</totfact>
</mgrwt>
</event>
<event>
 4    1  0.2451537E+000  0.5381750E+02  0.7957747E-01  0.1425775E+00
         13   -1    0    0    0    0  0.00000000000E+00  0.00000000000E+00  0.99999944180E+02  0.10000000000E+03  0.10566000000E+00 0. -1.
         22   -1    0    0    0    0 -0.00000000000E+00 -0.00000000000E+00 -0.19518413818E+02  0.19518413818E+02  0.00000000000E+00 0.  1.
         13    1    1    2    0    0 -0.16151512340E+02  0.11638374152E+02 -0.30608746488E+01  0.20142075896E+02  0.10566000000E+00 0.  1.
        996    1    1    2    0    0  0.16151512340E+02 -0.11638374152E+02  0.83542405011E+02  0.99376337922E+02  0.50000000000E+02 0.  0.
<mgrwt>
<rscale>  0 0.53817498E+02</rscale>
<asrwt>0</asrwt>
<pdfrwt beam="1">  1       13 0.10000000E+01 0.53817498E+02</pdfrwt>
<pdfrwt beam="2">  1       22 0.19518436E+00 0.53817498E+02</pdfrwt>
<totfact> 0.47560120E-01</totfact>
</mgrwt>
</event>
<event>
 4    1  0.2451537E+000  0.5115906E+02  0.7957747E-01  0.1439188E+00
         13   -1    0    0    0    0  0.00000000000E+00  0.00000000000E+00  0.99999944175E+02  0.99999999996E+02  0.10566000000E+00 0. -1.
         22   -1    0    0    0    0 -0.00000000000E+00 -0.00000000000E+00 -0.11175573727E+02  0.11175573727E+02  0.00000000000E+00 0. -1.
         13    1    1    2    0    0 -0.53226874035E+01  0.94296770020E+01  0.29601525942E+01  0.11226017859E+02  0.10566000000E+00 0.  1.
        996    1    1    2    0    0  0.53226874035E+01 -0.94296770020E+01  0.85864217854E+02  0.99949555863E+02  0.50000000000E+02 0.  0.
<mgrwt>
<rscale>  0 0.51159064E+02</rscale>
<asrwt>0</asrwt>
<pdfrwt beam="1">  1       13 0.10000000E+01 0.51159064E+02</pdfrwt>
<pdfrwt beam="2">  1       22 0.11175599E+00 0.51159064E+02</pdfrwt>
<totfact> 0.11947843E+00</totfact>
</mgrwt>
</event>
<event>
 4    1  0.2451537E+000  0.5473316E+02  0.7957747E-01  0.1421365E+00
         13   -1    0    0    0    0  0.00000000000E+00  0.00000000000E+00  0.99999944174E+02  0.99999999994E+02  0.10566000000E+00 0. -1.
         22   -1    0    0    0    0 -0.00000000000E+00 -0.00000000000E+00 -0.37184758169E+02  0.37184758169E+02  0.00000000000E+00 0.  1.
         13    1    1    2    0    0  0.11657306993E+02 -0.18969072661E+02 -0.25145143414E+02  0.33585829233E+02  0.10566000000E+00 0.  1.
        996    1    1    2    0    0 -0.11657306993E+02  0.18969072661E+02  0.87960329419E+02  0.10359892893E+03  0.50000000000E+02 0.  0.
<mgrwt>
<rscale>  0 0.54733157E+02</rscale>
<asrwt>0</asrwt>
<pdfrwt beam="1">  1       13 0.10000000E+01 0.54733157E+02</pdfrwt>
<pdfrwt beam="2">  1       22 0.37184776E+00 0.54733157E+02</pdfrwt>
<totfact> 0.14166111E-01</totfact>
</mgrwt>
</event>
<event>
 4    1  0.2451537E+000  0.5167103E+02  0.7957747E-01  0.1436531E+00
         13   -1    0    0    0    0  0.00000000000E+00  0.00000000000E+00  0.99999944177E+02  0.99999999997E+02  0.10566000000E+00 0.  1.
         22   -1    0    0    0    0 -0.00000000000E+00 -0.00000000000E+00 -0.23833492597E+02  0.23833492597E+02  0.00000000000E+00 0. -1.
         13    1    1    2    0    0  0.73742508988E+01  0.10747815836E+02 -0.14487156993E+02  0.19488047705E+02  0.10566000000E+00 0. -1.
        996    1    1    2    0    0 -0.73742508988E+01 -0.10747815836E+02  0.90653608574E+02  0.10434544489E+03  0.50000000000E+02 0.  0.
<mgrwt>
<rscale>  0 0.51671028E+02</rscale>
<asrwt>0</asrwt>
<pdfrwt beam="1">  1       13 0.10000000E+01 0.51671028E+02</pdfrwt>
<pdfrwt beam="2">  1       22 0.23833514E+00 0.51671028E+02</pdfrwt>
<totfact> 0.32360566E-01</totfact>
</mgrwt>
</event>
<event>
 4    1  0.2451537E+000  0.8133231E+02  0.7957747E-01  0.1325312E+00
         13   -1    0    0    0    0  0.00000000000E+00  0.00000000000E+00  0.99999944187E+02  0.10000000001E+03  0.10566000000E+00 0. -1.
         22   -1    0    0    0    0 -0.00000000000E+00 -0.00000000000E+00 -0.88167416570E+02  0.88167416570E+02  0.00000000000E+00 0.  1.
         13    1    1    2    0    0 -0.45981236177E+02  0.44728856169E+02 -0.53748173159E+02  0.83688839976E+02  0.10566000000E+00 0.  1.
        996    1    1    2    0    0  0.45981236177E+02 -0.44728856169E+02  0.65580700776E+02  0.10447857660E+03  0.50000000000E+02 0.  0.
<mgrwt>
<rscale>  0 0.81332310E+02</rscale>
<asrwt>0</asrwt>
<pdfrwt beam="1">  1       13 0.10000000E+01 0.81332310E+02</pdfrwt>
<pdfrwt beam="2">  1       22 0.88167420E+00 0.81332310E+02</pdfrwt>
<totfact> 0.13220067E-02</totfact>
</mgrwt>
</event>
<event>
 4    1  0.2451537E+000  0.6099692E+02  0.7957747E-01  0.1393695E+00
         13   -1    0    0    0    0  0.00000000000E+00  0.00000000000E+00  0.99999944187E+02  0.10000000001E+03  0.10566000000E+00 0. -1.
         22   -1    0    0    0    0 -0.00000000000E+00 -0.00000000000E+00 -0.51803819756E+02  0.51803819756E+02  0.00000000000E+00 0.  1.
         13    1    1    2    0    0  0.34599276069E+02 -0.48491461605E+01 -0.34463327591E+02  0.49075006221E+02  0.10566000000E+00 0.  1.
        996    1    1    2    0    0 -0.34599276069E+02  0.48491461605E+01  0.82659452022E+02  0.10272881354E+03  0.50000000000E+02 0.  0.
<mgrwt>
<rscale>  0 0.60996919E+02</rscale>
<asrwt>0</asrwt>
<pdfrwt beam="1">  1       13 0.10000000E+01 0.60996919E+02</pdfrwt>
<pdfrwt beam="2">  1       22 0.51803833E+00 0.60996919E+02</pdfrwt>
<totfact> 0.67165371E-02</totfact>
</mgrwt>
</event>
<event>
 4    1  0.2451537E+000  0.5356525E+02  0.7957747E-01  0.1427008E+00
         13   -1    0    0    0    0  0.00000000000E+00  0.00000000000E+00  0.99999944181E+02  0.10000000000E+03  0.10566000000E+00 0.  1.
         22   -1    0    0    0    0 -0.00000000000E+00 -0.00000000000E+00 -0.13268372980E+02  0.13268372980E+02  0.00000000000E+00 0.  1.
         13    1    1    2    0    0  0.86315133892E+01 -0.17167800014E+02  0.20741162783E+02  0.28274429762E+02  0.10566000000E+00 0. -1.
        996    1    1    2    0    0 -0.86315133892E+01  0.17167800014E+02  0.65990408418E+02  0.84993943219E+02  0.50000000000E+02 0.  0.
<mgrwt>
<rscale>  0 0.53565253E+02</rscale>
<asrwt>0</asrwt>
<pdfrwt beam="1">  1       13 0.10000000E+01 0.53565253E+02</pdfrwt>
<pdfrwt beam="2">  1       22 0.13268397E+00 0.53565253E+02</pdfrwt>
<totfact> 0.92212663E-01</totfact>
</mgrwt>
</event>
<event>
 4    1  0.2451537E+000  0.5350977E+02  0.7957747E-01  0.1427281E+00
         13   -1    0    0    0    0  0.00000000000E+00  0.00000000000E+00  0.99999944180E+02  0.10000000000E+03  0.10566000000E+00 0. -1.
         22   -1    0    0    0    0 -0.00000000000E+00 -0.00000000000E+00 -0.13261243329E+02  0.13261243329E+02  0.00000000000E+00 0. -1.
         13    1    1    2    0    0 -0.62521645491E+01  0.18005712254E+02  0.18703784866E+02  0.26704643186E+02  0.10566000000E+00 0.  1.
        996    1    1    2    0    0  0.62521645491E+01 -0.18005712254E+02  0.68034915985E+02  0.86556600143E+02  0.50000000000E+02 0.  0.
<mgrwt>
<rscale>  0 0.53509768E+02</rscale>
<asrwt>0</asrwt>
<pdfrwt beam="1">  1       13 0.10000000E+01 0.53509768E+02</pdfrwt>
<pdfrwt beam="2">  1       22 0.13261268E+00 0.53509768E+02</pdfrwt>
<totfact> 0.92280771E-01</totfact>
</mgrwt>
</event>
<event>
 4    1  0.2451537E+000  0.5105660E+02  0.7957747E-01  0.1439724E+00
         13   -1    0    0    0    0  0.00000000000E+00  0.00000000000E+00  0.99999944179E+02  0.99999999999E+02  0.10566000000E+00 0. -1.
         22   -1    0    0    0    0 -0.00000000000E+00 -0.00000000000E+00 -0.10770412845E+02  0.10770412845E+02  0.00000000000E+00 0.  1.
         13    1    1    2    0    0 -0.99760029421E+01 -0.26936004243E+01  0.34094892819E+02  0.35626520997E+02  0.10566000000E+00 0.  1.
        996    1    1    2    0    0  0.99760029421E+01  0.26936004243E+01  0.55134638515E+02  0.75143891848E+02  0.50000000000E+02 0.  0.
<mgrwt>
<rscale>  0 0.51056597E+02</rscale>
<asrwt>0</asrwt>
<pdfrwt beam="1">  1       13 0.10000000E+01 0.51056597E+02</pdfrwt>
<pdfrwt beam="2">  1       22 0.10770438E+00 0.51056597E+02</pdfrwt>
<totfact> 0.12618778E+00</totfact>
</mgrwt>
</event>
<event>
 4    1  0.2451537E+000  0.5163599E+02  0.7957747E-01  0.1436712E+00
         13   -1    0    0    0    0  0.00000000000E+00  0.00000000000E+00  0.99999944180E+02  0.10000000000E+03  0.10566000000E+00 0.  1.
         22   -1    0    0    0    0 -0.00000000000E+00 -0.00000000000E+00 -0.24607589118E+02  0.24607589118E+02  0.00000000000E+00 0. -1.
         13    1    1    2    0    0  0.12340220417E+01 -0.12835601290E+02 -0.15444563040E+02  0.20120168051E+02  0.10566000000E+00 0. -1.
        996    1    1    2    0    0 -0.12340220417E+01  0.12835601290E+02  0.90836918102E+02  0.10448742107E+03  0.50000000000E+02 0.  0.
<mgrwt>
<rscale>  0 0.51635990E+02</rscale>
<asrwt>0</asrwt>
<pdfrwt beam="1">  1       13 0.10000000E+01 0.51635990E+02</pdfrwt>
<pdfrwt beam="2">  1       22 0.24607610E+00 0.51635990E+02</pdfrwt>
<totfact> 0.30393059E-01</totfact>
</mgrwt>
</event>
<event>
 4    1  0.2451537E+000  0.5313251E+02  0.7957747E-01  0.1429143E+00
         13   -1    0    0    0    0  0.00000000000E+00  0.00000000000E+00  0.99999944178E+02  0.99999999998E+02  0.10566000000E+00 0. -1.
         22   -1    0    0    0    0 -0.00000000000E+00 -0.00000000000E+00 -0.16608113636E+02  0.16608113636E+02  0.00000000000E+00 0. -1.
         13    1    1    2    0    0 -0.14198845105E+02  0.11020738033E+02  0.29495759271E+00  0.17976708073E+02  0.10566000000E+00 0.  1.
        996    1    1    2    0    0  0.14198845105E+02 -0.11020738033E+02  0.83096872949E+02  0.98631405562E+02  0.50000000000E+02 0.  0.
<mgrwt>
<rscale>  0 0.53132512E+02</rscale>
<asrwt>0</asrwt>
<pdfrwt beam="1">  1       13 0.10000000E+01 0.53132512E+02</pdfrwt>
<pdfrwt beam="2">  1       22 0.16608137E+00 0.53132512E+02</pdfrwt>
<totfact> 0.63461166E-01</totfact>
</mgrwt>
</event>
<event>
 4    1  0.2451537E+000  0.5101736E+02  0.7957747E-01  0.1439930E+00
         13   -1    0    0    0    0  0.00000000000E+00  0.00000000000E+00  0.99999944177E+02  0.99999999997E+02  0.10566000000E+00 0.  1.
         22   -1    0    0    0    0 -0.00000000000E+00 -0.00000000000E+00 -0.12701310378E+02  0.12701310378E+02  0.00000000000E+00 0.  1.
         13    1    1    2    0    0 -0.76110332627E+01  0.66964739133E+01 -0.15413894905E+01  0.10254639720E+02  0.10566000000E+00 0. -1.
        996    1    1    2    0    0  0.76110332627E+01 -0.66964739133E+01  0.88840023289E+02  0.10244667065E+03  0.50000000000E+02 0.  0.
<mgrwt>
<rscale>  0 0.51017356E+02</rscale>
<asrwt>0</asrwt>
<pdfrwt beam="1">  1       13 0.10000000E+01 0.51017356E+02</pdfrwt>
<pdfrwt beam="2">  1       22 0.12701335E+00 0.51017356E+02</pdfrwt>
<totfact> 0.98238811E-01</totfact>
</mgrwt>
</event>
<event>
 4    1  0.2451537E+000  0.5248560E+02  0.7957747E-01  0.1432378E+00
         13   -1    0    0    0    0  0.00000000000E+00  0.00000000000E+00  0.99999944175E+02  0.99999999996E+02  0.10566000000E+00 0. -1.
         22   -1    0    0    0    0 -0.00000000000E+00 -0.00000000000E+00 -0.27018616133E+02  0.27018616133E+02  0.00000000000E+00 0. -1.
         13    1    1    2    0    0  0.14017982733E+02  0.76311382486E+01 -0.16704454691E+02  0.23103854255E+02  0.10566000000E+00 0.  1.
        996    1    1    2    0    0 -0.14017982733E+02 -0.76311382486E+01  0.89685782733E+02  0.10391476187E+03  0.50000000000E+02 0.  0.
<mgrwt>
<rscale>  0 0.52485599E+02</rscale>
<asrwt>0</asrwt>
<pdfrwt beam="1">  1       13 0.10000000E+01 0.52485599E+02</pdfrwt>
<pdfrwt beam="2">  1       22 0.27018637E+00 0.52485599E+02</pdfrwt>
<totfact> 0.25326350E-01</totfact>
</mgrwt>
</event>
<event>
 4    1  0.2451537E+000  0.5158625E+02  0.7957747E-01  0.1436969E+00
         13   -1    0    0    0    0  0.00000000000E+00  0.00000000000E+00  0.99999944183E+02  0.10000000000E+03  0.10566000000E+00 0.  1.
         22   -1    0    0    0    0 -0.00000000000E+00 -0.00000000000E+00 -0.10792614305E+02  0.10792614305E+02  0.00000000000E+00 0.  1.
         13    1    1    2    0    0 -0.10491935582E+02  0.71456372313E+01  0.95301941846E+01  0.15873771100E+02  0.10566000000E+00 0. -1.
        996    1    1    2    0    0  0.10491935582E+02 -0.71456372313E+01  0.79677135693E+02  0.94918843208E+02  0.50000000000E+02 0.  0.
<mgrwt>
<rscale>  0 0.51586247E+02</rscale>
<asrwt>0</asrwt>
<pdfrwt beam="1">  1       13 0.10000000E+01 0.51586247E+02</pdfrwt>
<pdfrwt beam="2">  1       22 0.10792639E+00 0.51586247E+02</pdfrwt>
<totfact> 0.12596155E+00</totfact>
</mgrwt>
</event>
<event>
 4    1  0.2451537E+000  0.5241694E+02  0.7957747E-01  0.1432725E+00
         13   -1    0    0    0    0  0.00000000000E+00  0.00000000000E+00  0.99999944178E+02  0.99999999998E+02  0.10566000000E+00 0.  1.
         22   -1    0    0    0    0 -0.00000000000E+00 -0.00000000000E+00 -0.13789177256E+02  0.13789177256E+02  0.00000000000E+00 0. -1.
         13    1    1    2    0    0  0.12017832525E+02 -0.10154184092E+02  0.39073035210E+01  0.16211537188E+02  0.10566000000E+00 0. -1.
        996    1    1    2    0    0 -0.12017832525E+02  0.10154184092E+02  0.82303463401E+02  0.97577640066E+02  0.50000000000E+02 0.  0.
<mgrwt>
<rscale>  0 0.52416941E+02</rscale>
<asrwt>0</asrwt>
<pdfrwt beam="1">  1       13 0.10000000E+01 0.52416941E+02</pdfrwt>
<pdfrwt beam="2">  1       22 0.13789201E+00 0.52416941E+02</pdfrwt>
<totfact> 0.86496674E-01</totfact>
</mgrwt>
</event>
<event>
 4    1  0.2451537E+000  0.5140153E+02  0.7957747E-01  0.1437925E+00
         13   -1    0    0    0    0  0.00000000000E+00  0.00000000000E+00  0.99999944176E+02  0.99999999996E+02  0.10566000000E+00 0.  1.
         22   -1    0    0    0    0 -0.00000000000E+00 -0.00000000000E+00 -0.23717575800E+02  0.23717575800E+02  0.00000000000E+00 0. -1.
         13    1    1    2    0    0  0.78999464014E+01 -0.89279627185E+01 -0.14877360835E+02  0.19064750219E+02  0.10566000000E+00 0. -1.
        996    1    1    2    0    0 -0.78999464014E+01  0.89279627185E+01  0.91159729211E+02  0.10465282558E+03  0.50000000000E+02 0.  0.
<mgrwt>
<rscale>  0 0.51401534E+02</rscale>
<asrwt>0</asrwt>
<pdfrwt beam="1">  1       13 0.10000000E+01 0.51401534E+02</pdfrwt>
<pdfrwt beam="2">  1       22 0.23717597E+00 0.51401534E+02</pdfrwt>
<totfact> 0.32656139E-01</totfact>
</mgrwt>
</event>
<event>
 4    1  0.2451537E+000  0.5136517E+02  0.7957747E-01  0.1438114E+00
         13   -1    0    0    0    0  0.00000000000E+00  0.00000000000E+00  0.99999944178E+02  0.99999999998E+02  0.10566000000E+00 0.  1.
         22   -1    0    0    0    0 -0.00000000000E+00 -0.00000000000E+00 -0.10777782474E+02  0.10777782474E+02  0.00000000000E+00 0.  1.
         13    1    1    2    0    0 -0.11202223325E+02 -0.35904551597E+01  0.30887304240E+02  0.33051745837E+02  0.10566000000E+00 0. -1.
        996    1    1    2    0    0  0.11202223325E+02  0.35904551597E+01  0.58334857464E+02  0.77726036635E+02  0.50000000000E+02 0.  0.
<mgrwt>
<rscale>  0 0.51365175E+02</rscale>
<asrwt>0</asrwt>
<pdfrwt beam="1">  1       13 0.10000000E+01 0.51365175E+02</pdfrwt>
<pdfrwt beam="2">  1       22 0.10777807E+00 0.51365175E+02</pdfrwt>
<totfact> 0.12615236E+00</totfact>
</mgrwt>
</event>
<event>
 4    1  0.2451537E+000  0.5177490E+02  0.7957747E-01  0.1435997E+00
         13   -1    0    0    0    0  0.00000000000E+00  0.00000000000E+00  0.99999944186E+02  0.10000000001E+03  0.10566000000E+00 0. -1.
         22   -1    0    0    0    0 -0.00000000000E+00 -0.00000000000E+00 -0.17962083109E+02  0.17962083109E+02  0.00000000000E+00 0. -1.
         13    1    1    2    0    0 -0.13286032101E+02  0.20301591912E+01 -0.68569632085E+01  0.15088714451E+02  0.10566000000E+00 0.  1.
        996    1    1    2    0    0  0.13286032101E+02 -0.20301591912E+01  0.88894824286E+02  0.10287336866E+03  0.50000000000E+02 0.  0.
<mgrwt>
<rscale>  0 0.51774899E+02</rscale>
<asrwt>0</asrwt>
<pdfrwt beam="1">  1       13 0.10000000E+01 0.51774899E+02</pdfrwt>
<pdfrwt beam="2">  1       22 0.17962106E+00 0.51774899E+02</pdfrwt>
<totfact> 0.55124875E-01</totfact>
</mgrwt>
</event>
<event>
 4    1  0.2451537E+000  0.5226986E+02  0.7957747E-01  0.1433469E+00
         13   -1    0    0    0    0  0.00000000000E+00  0.00000000000E+00  0.99999944188E+02  0.10000000001E+03  0.10566000000E+00 0.  1.
         22   -1    0    0    0    0 -0.00000000000E+00 -0.00000000000E+00 -0.18838358646E+02  0.18838358646E+02  0.00000000000E+00 0. -1.
         13    1    1    2    0    0  0.35297337906E+01 -0.14821582400E+02 -0.66681447558E+01  0.16631705986E+02  0.10566000000E+00 0. -1.
        996    1    1    2    0    0 -0.35297337906E+01  0.14821582400E+02  0.87829730298E+02  0.10220665267E+03  0.50000000000E+02 0.  0.
<mgrwt>
<rscale>  0 0.52269861E+02</rscale>
<asrwt>0</asrwt>
<pdfrwt beam="1">  1       13 0.10000000E+01 0.52269861E+02</pdfrwt>
<pdfrwt beam="2">  1       22 0.18838381E+00 0.52269861E+02</pdfrwt>
<totfact> 0.50622580E-01</totfact>
</mgrwt>
</event>
<event>
 4    1  0.2451537E+000  0.6794838E+02  0.7957747E-01  0.1367212E+00
         13   -1    0    0    0    0  0.00000000000E+00  0.00000000000E+00  0.99999944182E+02  0.10000000000E+03  0.10566000000E+00 0. -1.
         22   -1    0    0    0    0 -0.00000000000E+00 -0.00000000000E+00 -0.44956927692E+02  0.44956927692E+02  0.00000000000E+00 0.  1.
         13    1    1    2    0    0 -0.71666000414E+01 -0.45449109168E+02 -0.13992736283E+02  0.48091470274E+02  0.10566000000E+00 0.  1.
        996    1    1    2    0    0  0.71666000414E+01  0.45449109168E+02  0.69035752774E+02  0.96865457421E+02  0.50000000000E+02 0.  0.
<mgrwt>
<rscale>  0 0.67948375E+02</rscale>
<asrwt>0</asrwt>
<pdfrwt beam="1">  1       13 0.10000000E+01 0.67948375E+02</pdfrwt>
<pdfrwt beam="2">  1       22 0.44956943E+00 0.67948375E+02</pdfrwt>
<totfact> 0.97639787E-02</totfact>
</mgrwt>
</event>
<event>
 4    1  0.2451537E+000  0.5130950E+02  0.7957747E-01  0.1438404E+00
         13   -1    0    0    0    0  0.00000000000E+00  0.00000000000E+00  0.99999944180E+02  0.10000000000E+03  0.10566000000E+00 0.  1.
         22   -1    0    0    0    0 -0.00000000000E+00 -0.00000000000E+00 -0.12589184453E+02  0.12589184453E+02  0.00000000000E+00 0. -1.
         13    1    1    2    0    0  0.11176471068E+02 -0.27840484850E+01  0.33827766951E+00  0.11523455529E+02  0.10566000000E+00 0. -1.
        996    1    1    2    0    0 -0.11176471068E+02  0.27840484850E+01  0.87072482057E+02  0.10106572892E+03  0.50000000000E+02 0.  0.
<mgrwt>
<rscale>  0 0.51309497E+02</rscale>
<asrwt>0</asrwt>
<pdfrwt beam="1">  1       13 0.10000000E+01 0.51309497E+02</pdfrwt>
<pdfrwt beam="2">  1       22 0.12589209E+00 0.51309497E+02</pdfrwt>
<totfact> 0.99671282E-01</totfact>
</mgrwt>
</event>
<event>
 4    1  0.2451537E+000  0.5143580E+02  0.7957747E-01  0.1437748E+00
         13   -1    0    0    0    0  0.00000000000E+00  0.00000000000E+00  0.99999944181E+02  0.10000000000E+03  0.10566000000E+00 0. -1.
         22   -1    0    0    0    0 -0.00000000000E+00 -0.00000000000E+00 -0.13226227680E+02  0.13226227680E+02  0.00000000000E+00 0.  1.
         13    1    1    2    0    0  0.39506553283E+01 -0.11403223107E+02 -0.32579354484E+00  0.12073047677E+02  0.10566000000E+00 0.  1.
        996    1    1    2    0    0 -0.39506553283E+01  0.11403223107E+02  0.87099510046E+02  0.10115318000E+03  0.50000000000E+02 0.  0.
<mgrwt>
<rscale>  0 0.51435797E+02</rscale>
<asrwt>0</asrwt>
<pdfrwt beam="1">  1       13 0.10000000E+01 0.51435797E+02</pdfrwt>
<pdfrwt beam="2">  1       22 0.13226252E+00 0.51435797E+02</pdfrwt>
<totfact> 0.92260439E-01</totfact>
</mgrwt>
</event>
<event>
 4    1  0.2451537E+000  0.5149815E+02  0.7957747E-01  0.1437424E+00
         13   -1    0    0    0    0  0.00000000000E+00  0.00000000000E+00  0.99999944181E+02  0.10000000000E+03  0.10566000000E+00 0.  1.
         22   -1    0    0    0    0 -0.00000000000E+00 -0.00000000000E+00 -0.10417882517E+02  0.10417882517E+02  0.00000000000E+00 0.  1.
         13    1    1    2    0    0  0.11571517214E+02 -0.42614277214E+01  0.24472782409E+02  0.27404160628E+02  0.10566000000E+00 0. -1.
        996    1    1    2    0    0 -0.11571517214E+02  0.42614277214E+01  0.65109279255E+02  0.83013721890E+02  0.50000000000E+02 0.  0.
<mgrwt>
<rscale>  0 0.51498153E+02</rscale>
<asrwt>0</asrwt>
<pdfrwt beam="1">  1       13 0.10000000E+01 0.51498153E+02</pdfrwt>
<pdfrwt beam="2">  1       22 0.10417908E+00 0.51498153E+02</pdfrwt>
<totfact> 0.13265866E+00</totfact>
</mgrwt>
</event>
<event>
 4    1  0.2451537E+000  0.5221168E+02  0.7957747E-01  0.1433765E+00
         13   -1    0    0    0    0  0.00000000000E+00  0.00000000000E+00  0.99999944180E+02  0.10000000000E+03  0.10566000000E+00 0.  1.
         22   -1    0    0    0    0 -0.00000000000E+00 -0.00000000000E+00 -0.17581193263E+02  0.17581193263E+02  0.00000000000E+00 0. -1.
         13    1    1    2    0    0  0.14983371986E+02  0.12481751095E+01 -0.49250185954E+01  0.15821705008E+02  0.10566000000E+00 0. -1.
        996    1    1    2    0    0 -0.14983371986E+02 -0.12481751095E+01  0.87343769513E+02  0.10175948825E+03  0.50000000000E+02 0.  0.
<mgrwt>
<rscale>  0 0.52211679E+02</rscale>
<asrwt>0</asrwt>
<pdfrwt beam="1">  1       13 0.10000000E+01 0.52211679E+02</pdfrwt>
<pdfrwt beam="2">  1       22 0.17581216E+00 0.52211679E+02</pdfrwt>
<totfact> 0.57320773E-01</totfact>
</mgrwt>
</event>
<event>
 4    1  0.2451537E+000  0.5451740E+02  0.7957747E-01  0.1422395E+00
         13   -1    0    0    0    0  0.00000000000E+00  0.00000000000E+00  0.99999944189E+02  0.10000000001E+03  0.10566000000E+00 0. -1.
         22   -1    0    0    0    0 -0.00000000000E+00 -0.00000000000E+00 -0.60850710818E+02  0.60850710818E+02  0.00000000000E+00 0.  1.
         13    1    1    2    0    0  0.21553801786E+02  0.27533344947E+01 -0.51035305802E+02  0.55468557081E+02  0.10566000000E+00 0.  1.
        996    1    1    2    0    0 -0.21553801786E+02 -0.27533344947E+01  0.90184539174E+02  0.10538215375E+03  0.50000000000E+02 0.  0.
<mgrwt>
<rscale>  0 0.54517403E+02</rscale>
<asrwt>0</asrwt>
<pdfrwt beam="1">  1       13 0.10000000E+01 0.54517403E+02</pdfrwt>
<pdfrwt beam="2">  1       22 0.60850722E+00 0.54517403E+02</pdfrwt>
<totfact> 0.66960274E-02</totfact>
</mgrwt>
</event>
<event>
 4    1  0.2451537E+000  0.6613498E+02  0.7957747E-01  0.1373752E+00
         13   -1    0    0    0    0  0.00000000000E+00  0.00000000000E+00  0.99999944186E+02  0.10000000001E+03  0.10566000000E+00 0. -1.
         22   -1    0    0    0    0 -0.00000000000E+00 -0.00000000000E+00 -0.47681957759E+02  0.47681957759E+02  0.00000000000E+00 0.  1.
         13    1    1    2    0    0 -0.13411788057E+02 -0.41157747172E+02 -0.21699762651E+02  0.48422381957E+02  0.10566000000E+00 0.  1.
        996    1    1    2    0    0  0.13411788057E+02  0.41157747172E+02  0.74017749077E+02  0.99259575809E+02  0.50000000000E+02 0.  0.
<mgrwt>
<rscale>  0 0.66134985E+02</rscale>
<asrwt>0</asrwt>
<pdfrwt beam="1">  1       13 0.10000000E+01 0.66134985E+02</pdfrwt>
<pdfrwt beam="2">  1       22 0.47681972E+00 0.66134985E+02</pdfrwt>
<totfact> 0.84241852E-02</totfact>
</mgrwt>
</event>
<event>
 4    1  0.2451537E+000  0.5103338E+02  0.7957747E-01  0.1439846E+00
         13   -1    0    0    0    0  0.00000000000E+00  0.00000000000E+00  0.99999944179E+02  0.99999999999E+02  0.10566000000E+00 0.  1.
         22   -1    0    0    0    0 -0.00000000000E+00 -0.00000000000E+00 -0.12766456651E+02  0.12766456651E+02  0.00000000000E+00 0.  1.
         13    1    1    2    0    0  0.10217699727E+02  0.65819691450E-01 -0.15750242320E+01  0.10339128846E+02  0.10566000000E+00 0. -1.
        996    1    1    2    0    0 -0.10217699727E+02 -0.65819691450E-01  0.88808511760E+02  0.10242732780E+03  0.50000000000E+02 0.  0.
<mgrwt>
<rscale>  0 0.51033378E+02</rscale>
<asrwt>0</asrwt>
<pdfrwt beam="1">  1       13 0.10000000E+01 0.51033378E+02</pdfrwt>
<pdfrwt beam="2">  1       22 0.12766481E+00 0.51033378E+02</pdfrwt>
<totfact> 0.97459895E-01</totfact>
</mgrwt>
</event>
<event>
 4    1  0.2451537E+000  0.5349381E+02  0.7957747E-01  0.1427359E+00
         13   -1    0    0    0    0  0.00000000000E+00  0.00000000000E+00  0.99999944183E+02  0.10000000000E+03  0.10566000000E+00 0.  1.
         22   -1    0    0    0    0 -0.00000000000E+00 -0.00000000000E+00 -0.13194950100E+02  0.13194950100E+02  0.00000000000E+00 0.  1.
         13    1    1    2    0    0 -0.17321315789E+02  0.78459913398E+01  0.19750677479E+02  0.27416928815E+02  0.10566000000E+00 0. -1.
        996    1    1    2    0    0  0.17321315789E+02 -0.78459913398E+01  0.67054316605E+02  0.85778021288E+02  0.50000000000E+02 0.  0.
<mgrwt>
<rscale>  0 0.53493809E+02</rscale>
<asrwt>0</asrwt>
<pdfrwt beam="1">  1       13 0.10000000E+01 0.53493809E+02</pdfrwt>
<pdfrwt beam="2">  1       22 0.13194974E+00 0.53493809E+02</pdfrwt>
<totfact> 0.93014451E-01</totfact>
</mgrwt>
</event>
<event>
 4    1  0.2451537E+000  0.5163229E+02  0.7957747E-01  0.1436731E+00
         13   -1    0    0    0    0  0.00000000000E+00  0.00000000000E+00  0.99999944180E+02  0.10000000000E+03  0.10566000000E+00 0.  1.
         22   -1    0    0    0    0 -0.00000000000E+00 -0.00000000000E+00 -0.18745248745E+02  0.18745248745E+02  0.00000000000E+00 0. -1.
         13    1    1    2    0    0  0.59907558184E+01  0.11401934223E+02 -0.83350932693E+01  0.15342040384E+02  0.10566000000E+00 0. -1.
        996    1    1    2    0    0 -0.59907558184E+01 -0.11401934223E+02  0.89589788704E+02  0.10340320836E+03  0.50000000000E+02 0.  0.
<mgrwt>
<rscale>  0 0.51632289E+02</rscale>
<asrwt>0</asrwt>
<pdfrwt beam="1">  1       13 0.10000000E+01 0.51632289E+02</pdfrwt>
<pdfrwt beam="2">  1       22 0.18745271E+00 0.51632289E+02</pdfrwt>
<totfact> 0.51021612E-01</totfact>
</mgrwt>
</event>
<event>
 4    1  0.2451537E+000  0.5144847E+02  0.7957747E-01  0.1437682E+00
         13   -1    0    0    0    0  0.00000000000E+00  0.00000000000E+00  0.99999944182E+02  0.10000000000E+03  0.10566000000E+00 0.  1.
         22   -1    0    0    0    0 -0.00000000000E+00 -0.00000000000E+00 -0.14053136179E+02  0.14053136179E+02  0.00000000000E+00 0. -1.
         13    1    1    2    0    0 -0.10234401741E+02  0.64963461585E+01 -0.18791596694E+01  0.12267350876E+02  0.10566000000E+00 0. -1.
        996    1    1    2    0    0  0.10234401741E+02 -0.64963461585E+01  0.87825967672E+02  0.10178578530E+03  0.50000000000E+02 0.  0.
<mgrwt>
<rscale>  0 0.51448474E+02</rscale>
<asrwt>0</asrwt>
<pdfrwt beam="1">  1       13 0.10000000E+01 0.51448474E+02</pdfrwt>
<pdfrwt beam="2">  1       22 0.14053160E+00 0.51448474E+02</pdfrwt>
<totfact> 0.83713566E-01</totfact>
</mgrwt>
</event>
<event>
 4    1  0.2451537E+000  0.5352309E+02  0.7957747E-01  0.1427215E+00
         13   -1    0    0    0    0  0.00000000000E+00  0.00000000000E+00  0.99999944184E+02  0.10000000000E+03  0.10566000000E+00 0. -1.
         22   -1    0    0    0    0 -0.00000000000E+00 -0.00000000000E+00 -0.50887476782E+02  0.50887476782E+02  0.00000000000E+00 0.  1.
         13    1    1    2    0    0  0.16807214369E+02  0.90685701479E+01 -0.41479952135E+02  0.45665293304E+02  0.10566000000E+00 0.  1.
        996    1    1    2    0    0 -0.16807214369E+02 -0.90685701479E+01  0.90592419537E+02  0.10522218348E+03  0.50000000000E+02 0.  0.
<mgrwt>
<rscale>  0 0.53523092E+02</rscale>
<asrwt>0</asrwt>
<pdfrwt beam="1">  1       13 0.10000000E+01 0.53523092E+02</pdfrwt>
<pdfrwt beam="2">  1       22 0.50887491E+00 0.53523092E+02</pdfrwt>
<totfact> 0.70216225E-02</totfact>
</mgrwt>
</event>
<event>
 4    1  0.2451537E+000  0.5627738E+02  0.7957747E-01  0.1414153E+00
         13   -1    0    0    0    0  0.00000000000E+00  0.00000000000E+00  0.99999944173E+02  0.99999999994E+02  0.10566000000E+00 0. -1.
         22   -1    0    0    0    0 -0.00000000000E+00 -0.00000000000E+00 -0.17190073493E+02  0.17190073493E+02  0.00000000000E+00 0. -1.
         13    1    1    2    0    0  0.21160955756E+02  0.14810728001E+02  0.18727623038E+02  0.31904211966E+02  0.10566000000E+00 0.  1.
        996    1    1    2    0    0 -0.21160955756E+02 -0.14810728001E+02  0.64082247642E+02  0.85285861521E+02  0.50000000000E+02 0.  0.
<mgrwt>
<rscale>  0 0.56277382E+02</rscale>
<asrwt>0</asrwt>
<pdfrwt beam="1">  1       13 0.10000000E+01 0.56277382E+02</pdfrwt>
<pdfrwt beam="2">  1       22 0.17190097E+00 0.56277382E+02</pdfrwt>
<totfact> 0.60095596E-01</totfact>
</mgrwt>
</event>
<event>
 4    1  0.2451537E+000  0.5107828E+02  0.7957747E-01  0.1439611E+00
         13   -1    0    0    0    0  0.00000000000E+00  0.00000000000E+00  0.99999944184E+02  0.10000000000E+03  0.10566000000E+00 0.  1.
         22   -1    0    0    0    0 -0.00000000000E+00 -0.00000000000E+00 -0.13813752410E+02  0.13813752410E+02  0.00000000000E+00 0.  1.
         13    1    1    2    0    0  0.32402082619E+01  0.99242792398E+01 -0.31509221283E+01  0.10905491383E+02  0.10566000000E+00 0. -1.
        996    1    1    2    0    0 -0.32402082619E+01 -0.99242792398E+01  0.89337113902E+02  0.10290826103E+03  0.50000000000E+02 0.  0.
<mgrwt>
<rscale>  0 0.51078276E+02</rscale>
<asrwt>0</asrwt>
<pdfrwt beam="1">  1       13 0.10000000E+01 0.51078276E+02</pdfrwt>
<pdfrwt beam="2">  1       22 0.13813776E+00 0.51078276E+02</pdfrwt>
<totfact> 0.86003781E-01</totfact>
</mgrwt>
</event>
<event>
 4    1  0.2451537E+000  0.5337823E+02  0.7957747E-01  0.1427928E+00
         13   -1    0    0    0    0  0.00000000000E+00  0.00000000000E+00  0.99999944170E+02  0.99999999990E+02  0.10566000000E+00 0.  1.
         22   -1    0    0    0    0 -0.00000000000E+00 -0.00000000000E+00 -0.18411779621E+02  0.18411779621E+02  0.00000000000E+00 0. -1.
         13    1    1    2    0    0 -0.18567912353E+02  0.21136997613E+01 -0.24566456602E+01  0.18848908927E+02  0.10566000000E+00 0. -1.
        996    1    1    2    0    0  0.18567912353E+02 -0.21136997613E+01  0.84044810209E+02  0.99562870684E+02  0.50000000000E+02 0.  0.
<mgrwt>
<rscale>  0 0.53378227E+02</rscale>
<asrwt>0</asrwt>
<pdfrwt beam="1">  1       13 0.10000000E+01 0.53378227E+02</pdfrwt>
<pdfrwt beam="2">  1       22 0.18411802E+00 0.53378227E+02</pdfrwt>
<totfact> 0.52881593E-01</totfact>
</mgrwt>
</event>
<event>
 4    1  0.2451537E+000  0.5167846E+02  0.7957747E-01  0.1436493E+00
         13   -1    0    0    0    0  0.00000000000E+00  0.00000000000E+00  0.99999944179E+02  0.99999999999E+02  0.10566000000E+00 0. -1.
         22   -1    0    0    0    0 -0.00000000000E+00 -0.00000000000E+00 -0.12226947450E+02  0.12226947450E+02  0.00000000000E+00 0. -1.
         13    1    1    2    0    0 -0.43786983714E+00  0.13056463972E+02  0.37643766273E+01  0.13595759518E+02  0.10566000000E+00 0.  1.
        996    1    1    2    0    0  0.43786983714E+00 -0.13056463972E+02  0.84008620101E+02  0.98631187931E+02  0.50000000000E+02 0.  0.
<mgrwt>
<rscale>  0 0.51678458E+02</rscale>
<asrwt>0</asrwt>
<pdfrwt beam="1">  1       13 0.10000000E+01 0.51678458E+02</pdfrwt>
<pdfrwt beam="2">  1       22 0.12226972E+00 0.51678458E+02</pdfrwt>
<totfact> 0.10436838E+00</totfact>
</mgrwt>
</event>
<event>
 4    1  0.2451537E+000  0.5196728E+02  0.7957747E-01  0.1435010E+00
         13   -1    0    0    0    0  0.00000000000E+00  0.00000000000E+00  0.99999944178E+02  0.99999999998E+02  0.10566000000E+00 0. -1.
         22   -1    0    0    0    0 -0.00000000000E+00 -0.00000000000E+00 -0.11604264749E+02  0.11604264749E+02  0.00000000000E+00 0. -1.
         13    1    1    2    0    0  0.13859455964E+02  0.29178080159E+01  0.31556843485E+02  0.34589646689E+02  0.10566000000E+00 0.  1.
        996    1    1    2    0    0 -0.13859455964E+02 -0.29178080159E+01  0.56838835944E+02  0.77014618058E+02  0.50000000000E+02 0.  0.
<mgrwt>
<rscale>  0 0.51967279E+02</rscale>
<asrwt>0</asrwt>
<pdfrwt beam="1">  1       13 0.10000000E+01 0.51967279E+02</pdfrwt>
<pdfrwt beam="2">  1       22 0.11604289E+00 0.51967279E+02</pdfrwt>
<totfact> 0.11311455E+00</totfact>
</mgrwt>
</event>
<event>
 4    1  0.2451537E+000  0.5152049E+02  0.7957747E-01  0.1437309E+00
         13   -1    0    0    0    0  0.00000000000E+00  0.00000000000E+00  0.99999944183E+02  0.10000000000E+03  0.10566000000E+00 0. -1.
         22   -1    0    0    0    0 -0.00000000000E+00 -0.00000000000E+00 -0.28165132001E+02  0.28165132001E+02  0.00000000000E+00 0.  1.
         13    1    1    2    0    0  0.49151063175E+01  0.11410631373E+02 -0.19604644004E+02  0.23210213463E+02  0.10566000000E+00 0.  1.
        996    1    1    2    0    0 -0.49151063175E+01 -0.11410631373E+02  0.91439456186E+02  0.10495491854E+03  0.50000000000E+02 0.  0.
<mgrwt>
<rscale>  0 0.51520489E+02</rscale>
<asrwt>0</asrwt>
<pdfrwt beam="1">  1       13 0.10000000E+01 0.51520489E+02</pdfrwt>
<pdfrwt beam="2">  1       22 0.28165152E+00 0.51520489E+02</pdfrwt>
<totfact> 0.23327976E-01</totfact>
</mgrwt>
</event>
<event>
 4    1  0.2451537E+000  0.7000861E+02  0.7957747E-01  0.1360064E+00
         13   -1    0    0    0    0  0.00000000000E+00  0.00000000000E+00  0.99999944177E+02  0.99999999997E+02  0.10566000000E+00 0.  1.
         22   -1    0    0    0    0 -0.00000000000E+00 -0.00000000000E+00 -0.81142118193E+02  0.81142118193E+02  0.00000000000E+00 0. -1.
         13    1    1    2    0    0  0.48527917575E+02 -0.68004750871E+01 -0.58829332781E+02  0.76564396459E+02  0.10566000000E+00 0. -1.
        996    1    1    2    0    0 -0.48527917575E+02  0.68004750871E+01  0.77687158765E+02  0.10457772173E+03  0.50000000000E+02 0.  0.
<mgrwt>
<rscale>  0 0.70008608E+02</rscale>
<asrwt>0</asrwt>
<pdfrwt beam="1">  1       13 0.10000000E+01 0.70008608E+02</pdfrwt>
<pdfrwt beam="2">  1       22 0.81142123E+00 0.70008608E+02</pdfrwt>
<totfact> 0.27755125E-02</totfact>
</mgrwt>
</event>
<event>
 4    1  0.2451537E+000  0.5105084E+02  0.7957747E-01  0.1439755E+00
         13   -1    0    0    0    0  0.00000000000E+00  0.00000000000E+00  0.99999944183E+02  0.10000000000E+03  0.10566000000E+00 0. -1.
         22   -1    0    0    0    0 -0.00000000000E+00 -0.00000000000E+00 -0.10159612310E+02  0.10159612310E+02  0.00000000000E+00 0. -1.
         13    1    1    2    0    0  0.54101932871E+01  0.87703123455E+01  0.28781781070E+02  0.30571075474E+02  0.10566000000E+00 0.  1.
        996    1    1    2    0    0 -0.54101932871E+01 -0.87703123455E+01  0.61058550803E+02  0.79588536839E+02  0.50000000000E+02 0.  0.
<mgrwt>
<rscale>  0 0.51050843E+02</rscale>
<asrwt>0</asrwt>
<pdfrwt beam="1">  1       13 0.10000000E+01 0.51050843E+02</pdfrwt>
<pdfrwt beam="2">  1       22 0.10159637E+00 0.51050843E+02</pdfrwt>
<totfact> 0.13746015E+00</totfact>
</mgrwt>
</event>
<event>
 4    1  0.2451537E+000  0.5130301E+02  0.7957747E-01  0.1438438E+00
         13   -1    0    0    0    0  0.00000000000E+00  0.00000000000E+00  0.99999944187E+02  0.10000000001E+03  0.10566000000E+00 0. -1.
         22   -1    0    0    0    0 -0.00000000000E+00 -0.00000000000E+00 -0.11009159049E+02  0.11009159049E+02  0.00000000000E+00 0.  1.
         13    1    1    2    0    0  0.59961245787E+01 -0.98002954651E+01  0.48714096793E+01  0.12479627297E+02  0.10566000000E+00 0.  1.
        996    1    1    2    0    0 -0.59961245787E+01  0.98002954651E+01  0.84119375458E+02  0.98529531759E+02  0.50000000000E+02 0.  0.
<mgrwt>
<rscale>  0 0.51303015E+02</rscale>
<asrwt>0</asrwt>
<pdfrwt beam="1">  1       13 0.10000000E+01 0.51303015E+02</pdfrwt>
<pdfrwt beam="2">  1       22 0.11009184E+00 0.51303015E+02</pdfrwt>
<totfact> 0.12222240E+00</totfact>
</mgrwt>
</event>
<event>
 4    1  0.2451537E+000  0.5120490E+02  0.7957747E-01  0.1438949E+00
         13   -1    0    0    0    0  0.00000000000E+00  0.00000000000E+00  0.99999944176E+02  0.99999999997E+02  0.10566000000E+00 0.  1.
         22   -1    0    0    0    0 -0.00000000000E+00 -0.00000000000E+00 -0.99969545558E+01  0.99969545558E+01  0.00000000000E+00 0.  1.
         13    1    1    2    0    0 -0.39288630127E+01 -0.10320175365E+02  0.24346883503E+02  0.26734320348E+02  0.10566000000E+00 0. -1.
        996    1    1    2    0    0  0.39288630127E+01  0.10320175365E+02  0.65656106118E+02  0.83262634204E+02  0.50000000000E+02 0.  0.
<mgrwt>
<rscale>  0 0.51204902E+02</rscale>
<asrwt>0</asrwt>
<pdfrwt beam="1">  1       13 0.10000000E+01 0.51204902E+02</pdfrwt>
<pdfrwt beam="2">  1       22 0.99969797E-01 0.51204902E+02</pdfrwt>
<totfact> 0.14076981E+00</totfact>
</mgrwt>
</event>
<event>
 4    1  0.2451537E+000  0.5164659E+02  0.7957747E-01  0.1436657E+00
         13   -1    0    0    0    0  0.00000000000E+00  0.00000000000E+00  0.99999944183E+02  0.10000000000E+03  0.10566000000E+00 0. -1.
         22   -1    0    0    0    0 -0.00000000000E+00 -0.00000000000E+00 -0.14633706917E+02  0.14633706917E+02  0.00000000000E+00 0.  1.
         13    1    1    2    0    0  0.11307173638E+02 -0.62863034967E+01 -0.20516023803E+01  0.13099237523E+02  0.10566000000E+00 0.  1.
        996    1    1    2    0    0 -0.11307173638E+02  0.62863034967E+01  0.87417839646E+02  0.10153446940E+03  0.50000000000E+02 0.  0.
<mgrwt>
<rscale>  0 0.51646585E+02</rscale>
<asrwt>0</asrwt>
<pdfrwt beam="1">  1       13 0.10000000E+01 0.51646585E+02</pdfrwt>
<pdfrwt beam="2">  1       22 0.14633731E+00 0.51646585E+02</pdfrwt>
<totfact> 0.78383301E-01</totfact>
</mgrwt>
</event>
<event>
 4    1  0.2451537E+000  0.5192006E+02  0.7957747E-01  0.1435252E+00
         13   -1    0    0    0    0  0.00000000000E+00  0.00000000000E+00  0.99999944180E+02  0.10000000000E+03  0.10566000000E+00 0. -1.
         22   -1    0    0    0    0 -0.00000000000E+00 -0.00000000000E+00 -0.12078067851E+02  0.12078067851E+02  0.00000000000E+00 0. -1.
         13    1    1    2    0    0 -0.10655118147E+02 -0.90642855955E+01  0.63007635009E+01  0.15342868076E+02  0.10566000000E+00 0.  1.
        996    1    1    2    0    0  0.10655118147E+02  0.90642855955E+01  0.81621112828E+02  0.96735199775E+02  0.50000000000E+02 0.  0.
<mgrwt>
<rscale>  0 0.51920062E+02</rscale>
<asrwt>0</asrwt>
<pdfrwt beam="1">  1       13 0.10000000E+01 0.51920062E+02</pdfrwt>
<pdfrwt beam="2">  1       22 0.12078092E+00 0.51920062E+02</pdfrwt>
<totfact> 0.10641130E+00</totfact>
</mgrwt>
</event>
<event>
 4    1  0.2451537E+000  0.5208529E+02  0.7957747E-01  0.1434408E+00
         13   -1    0    0    0    0  0.00000000000E+00  0.00000000000E+00  0.99999944181E+02  0.10000000000E+03  0.10566000000E+00 0. -1.
         22   -1    0    0    0    0 -0.00000000000E+00 -0.00000000000E+00 -0.29169620013E+02  0.29169620013E+02  0.00000000000E+00 0.  1.
         13    1    1    2    0    0  0.96858724685E+01 -0.10911506214E+02 -0.19825903363E+02  0.24616147171E+02  0.10566000000E+00 0.  1.
        996    1    1    2    0    0 -0.96858724685E+01  0.10911506214E+02  0.90656227531E+02  0.10455347284E+03  0.50000000000E+02 0.  0.
<mgrwt>
<rscale>  0 0.52085287E+02</rscale>
<asrwt>0</asrwt>
<pdfrwt beam="1">  1       13 0.10000000E+01 0.52085287E+02</pdfrwt>
<pdfrwt beam="2">  1       22 0.29169640E+00 0.52085287E+02</pdfrwt>
<totfact> 0.21830784E-01</totfact>
</mgrwt>
</event>
<event>
 4    1  0.2451537E+000  0.8030162E+02  0.7957747E-01  0.1328198E+00
         13   -1    0    0    0    0  0.00000000000E+00  0.00000000000E+00  0.99999944181E+02  0.10000000000E+03  0.10566000000E+00 0. -1.
         22   -1    0    0    0    0 -0.00000000000E+00 -0.00000000000E+00 -0.53290698923E+02  0.53290698923E+02  0.00000000000E+00 0.  1.
         13    1    1    2    0    0  0.56126871440E+02  0.28251088513E+02  0.56189974784E+01  0.63086718068E+02  0.10566000000E+00 0.  1.
        996    1    1    2    0    0 -0.56126871440E+02 -0.28251088513E+02  0.41090247780E+02  0.90203980857E+02  0.50000000000E+02 0.  0.
<mgrwt>
<rscale>  0 0.80301617E+02</rscale>
<asrwt>0</asrwt>
<pdfrwt beam="1">  1       13 0.10000000E+01 0.80301617E+02</pdfrwt>
<pdfrwt beam="2">  1       22 0.53290712E+00 0.80301617E+02</pdfrwt>
<totfact> 0.62837308E-02</totfact>
</mgrwt>
</event>
<event>
 4    1  0.2451537E+000  0.5344031E+02  0.7957747E-01  0.1427622E+00
         13   -1    0    0    0    0  0.00000000000E+00  0.00000000000E+00  0.99999944177E+02  0.99999999997E+02  0.10566000000E+00 0.  1.
         22   -1    0    0    0    0 -0.00000000000E+00 -0.00000000000E+00 -0.16685957602E+02  0.16685957602E+02  0.00000000000E+00 0. -1.
         13    1    1    2    0    0 -0.17999844980E+02  0.56455512346E+01  0.14464271954E+01  0.18920094707E+02  0.10566000000E+00 0. -1.
        996    1    1    2    0    0  0.17999844980E+02 -0.56455512346E+01  0.81867559380E+02  0.97765862891E+02  0.50000000000E+02 0.  0.
<mgrwt>
<rscale>  0 0.53440309E+02</rscale>
<asrwt>0</asrwt>
<pdfrwt beam="1">  1       13 0.10000000E+01 0.53440309E+02</pdfrwt>
<pdfrwt beam="2">  1       22 0.16685981E+00 0.53440309E+02</pdfrwt>
<totfact> 0.62984280E-01</totfact>
</mgrwt>
</event>
<event>
 4    1  0.2451537E+000  0.5126538E+02  0.7957747E-01  0.1438634E+00
         13   -1    0    0    0    0  0.00000000000E+00  0.00000000000E+00  0.99999944175E+02  0.99999999996E+02  0.10566000000E+00 0. -1.
         22   -1    0    0    0    0 -0.00000000000E+00 -0.00000000000E+00 -0.42327034629E+02  0.42327034629E+02  0.00000000000E+00 0.  1.
         13    1    1    2    0    0 -0.36402076435E+01  0.10718598766E+02 -0.34799726629E+02  0.36594693723E+02  0.10566000000E+00 0.  1.
        996    1    1    2    0    0  0.36402076435E+01 -0.10718598766E+02  0.92472636176E+02  0.10573234090E+03  0.50000000000E+02 0.  0.
<mgrwt>
<rscale>  0 0.51265383E+02</rscale>
<asrwt>0</asrwt>
<pdfrwt beam="1">  1       13 0.10000000E+01 0.51265383E+02</pdfrwt>
<pdfrwt beam="2">  1       22 0.42327051E+00 0.51265383E+02</pdfrwt>
<totfact> 0.11051516E-01</totfact>
</mgrwt>
</event>
<event>
 4    1  0.2451537E+000  0.7605860E+02  0.7957747E-01  0.1340624E+00
         13   -1    0    0    0    0  0.00000000000E+00  0.00000000000E+00  0.99999944178E+02  0.99999999998E+02  0.10566000000E+00 0. -1.
         22   -1    0    0    0    0 -0.00000000000E+00 -0.00000000000E+00 -0.56396415462E+02  0.56396415462E+02  0.00000000000E+00 0.  1.
         13    1    1    2    0    0  0.52284191244E+02  0.23479233291E+02 -0.16292570023E+02  0.59584981765E+02  0.10566000000E+00 0.  1.
        996    1    1    2    0    0 -0.52284191244E+02 -0.23479233291E+02  0.59896098739E+02  0.96811433695E+02  0.50000000000E+02 0.  0.
<mgrwt>
<rscale>  0 0.76058603E+02</rscale>
<asrwt>0</asrwt>
<pdfrwt beam="1">  1       13 0.10000000E+01 0.76058603E+02</pdfrwt>
<pdfrwt beam="2">  1       22 0.56396428E+00 0.76058603E+02</pdfrwt>
<totfact> 0.58421465E-02</totfact>
</mgrwt>
</event>
<event>
 4    1  0.2451537E+000  0.5329232E+02  0.7957747E-01  0.1428352E+00
         13   -1    0    0    0    0  0.00000000000E+00  0.00000000000E+00  0.99999944187E+02  0.10000000001E+03  0.10566000000E+00 0. -1.
         22   -1    0    0    0    0 -0.00000000000E+00 -0.00000000000E+00 -0.25192384229E+02  0.25192384229E+02  0.00000000000E+00 0.  1.
         13    1    1    2    0    0  0.12055160616E+02  0.13955068778E+02 -0.12940692225E+02  0.22528726581E+02  0.10566000000E+00 0.  1.
        996    1    1    2    0    0 -0.12055160616E+02 -0.13955068778E+02  0.87748252183E+02  0.10266365766E+03  0.50000000000E+02 0.  0.
<mgrwt>
<rscale>  0 0.53292315E+02</rscale>
<asrwt>0</asrwt>
<pdfrwt beam="1">  1       13 0.10000000E+01 0.53292315E+02</pdfrwt>
<pdfrwt beam="2">  1       22 0.25192405E+00 0.53292315E+02</pdfrwt>
<totfact> 0.29095906E-01</totfact>
</mgrwt>
</event>
<event>
 4    1  0.2451537E+000  0.5121277E+02  0.7957747E-01  0.1438908E+00
         13   -1    0    0    0    0  0.00000000000E+00  0.00000000000E+00  0.99999944177E+02  0.99999999997E+02  0.10566000000E+00 0.  1.
         22   -1    0    0    0    0 -0.00000000000E+00 -0.00000000000E+00 -0.11256078358E+02  0.11256078358E+02  0.00000000000E+00 0. -1.
         13    1    1    2    0    0  0.94969801680E+01  0.57056733020E+01  0.31630221998E+01  0.11522292030E+02  0.10566000000E+00 0. -1.
        996    1    1    2    0    0 -0.94969801680E+01 -0.57056733020E+01  0.85580843619E+02  0.99733786325E+02  0.50000000000E+02 0.  0.
<mgrwt>
<rscale>  0 0.51212765E+02</rscale>
<asrwt>0</asrwt>
<pdfrwt beam="1">  1       13 0.10000000E+01 0.51212765E+02</pdfrwt>
<pdfrwt beam="2">  1       22 0.11256103E+00 0.51212765E+02</pdfrwt>
<totfact> 0.11821713E+00</totfact>
</mgrwt>
</event>
<event>
 4    1  0.2451537E+000  0.5530994E+02  0.7957747E-01  0.1418639E+00
         13   -1    0    0    0    0  0.00000000000E+00  0.00000000000E+00  0.99999944179E+02  0.10000000000E+03  0.10566000000E+00 0.  1.
         22   -1    0    0    0    0 -0.00000000000E+00 -0.00000000000E+00 -0.50734218130E+02  0.50734218130E+02  0.00000000000E+00 0.  1.
         13    1    1    2    0    0  0.41446383526E+01 -0.23281133020E+02 -0.39563994915E+02  0.46092407612E+02  0.10566000000E+00 0. -1.
        996    1    1    2    0    0 -0.41446383526E+01  0.23281133020E+02  0.88829720964E+02  0.10464181052E+03  0.50000000000E+02 0.  0.
<mgrwt>
<rscale>  0 0.55309937E+02</rscale>
<asrwt>0</asrwt>
<pdfrwt beam="1">  1       13 0.10000000E+01 0.55309937E+02</pdfrwt>
<pdfrwt beam="2">  1       22 0.50734232E+00 0.55309937E+02</pdfrwt>
<totfact> 0.70840805E-02</totfact>
</mgrwt>
</event>
<event>
 4    1  0.2451537E+000  0.5172805E+02  0.7957747E-01  0.1436238E+00
         13   -1    0    0    0    0  0.00000000000E+00  0.00000000000E+00  0.99999944173E+02  0.99999999993E+02  0.10566000000E+00 0. -1.
         22   -1    0    0    0    0 -0.00000000000E+00 -0.00000000000E+00 -0.10703198232E+02  0.10703198232E+02  0.00000000000E+00 0. -1.
         13    1    1    2    0    0 -0.46604063991E+01  0.12412576055E+02  0.13366809695E+02  0.18827485164E+02  0.10566000000E+00 0.  1.
        996    1    1    2    0    0  0.46604063991E+01 -0.12412576055E+02  0.75929936246E+02  0.91875713061E+02  0.50000000000E+02 0.  0.
<mgrwt>
<rscale>  0 0.51728053E+02</rscale>
<asrwt>0</asrwt>
<pdfrwt beam="1">  1       13 0.10000000E+01 0.51728053E+02</pdfrwt>
<pdfrwt beam="2">  1       22 0.10703223E+00 0.51728053E+02</pdfrwt>
<totfact> 0.12756194E+00</totfact>
</mgrwt>
</event>
<event>
 4    1  0.2451537E+000  0.8108185E+02  0.7957747E-01  0.1326009E+00
         13   -1    0    0    0    0  0.00000000000E+00  0.00000000000E+00  0.99999944175E+02  0.99999999995E+02  0.10566000000E+00 0. -1.
         22   -1    0    0    0    0 -0.00000000000E+00 -0.00000000000E+00 -0.54149061234E+02  0.54149061234E+02  0.00000000000E+00 0.  1.
         13    1    1    2    0    0 -0.63550613833E+02  0.59654392433E+01  0.69162707362E+01  0.64203683296E+02  0.10566000000E+00 0.  1.
        996    1    1    2    0    0  0.63550613833E+02 -0.59654392433E+01  0.38934612205E+02  0.89945377933E+02  0.50000000000E+02 0.  0.
<mgrwt>
<rscale>  0 0.81081854E+02</rscale>
<asrwt>0</asrwt>
<pdfrwt beam="1">  1       13 0.10000000E+01 0.81081854E+02</pdfrwt>
<pdfrwt beam="2">  1       22 0.54149074E+00 0.81081854E+02</pdfrwt>
<totfact> 0.60790752E-02</totfact>
</mgrwt>
</event>
<event>
 4    1  0.2451537E+000  0.5104752E+02  0.7957747E-01  0.1439772E+00
         13   -1    0    0    0    0  0.00000000000E+00  0.00000000000E+00  0.99999944175E+02  0.99999999995E+02  0.10566000000E+00 0.  1.
         22   -1    0    0    0    0 -0.00000000000E+00 -0.00000000000E+00 -0.96821972440E+01  0.96821972440E+01  0.00000000000E+00 0.  1.
         13    1    1    2    0    0  0.30706035602E+00 -0.10283714828E+02  0.90006132956E+01  0.13670087069E+02  0.10566000000E+00 0. -1.
        996    1    1    2    0    0 -0.30706035602E+00  0.10283714828E+02  0.81317133636E+02  0.96012110171E+02  0.50000000000E+02 0.  0.
<mgrwt>
<rscale>  0 0.51047518E+02</rscale>
<asrwt>0</asrwt>
<pdfrwt beam="1">  1       13 0.10000000E+01 0.51047518E+02</pdfrwt>
<pdfrwt beam="2">  1       22 0.96822225E-01 0.51047518E+02</pdfrwt>
<totfact> 0.14735790E+00</totfact>
</mgrwt>
</event>
<event>
 4    1  0.2451537E+000  0.5118445E+02  0.7957747E-01  0.1439056E+00
         13   -1    0    0    0    0  0.00000000000E+00  0.00000000000E+00  0.99999944182E+02  0.10000000000E+03  0.10566000000E+00 0. -1.
         22   -1    0    0    0    0 -0.00000000000E+00 -0.00000000000E+00 -0.25318615328E+02  0.25318615328E+02  0.00000000000E+00 0.  1.
         13    1    1    2    0    0  0.72022703397E+01  0.82447340925E+01 -0.17056489830E+02  0.20267790892E+02  0.10566000000E+00 0.  1.
        996    1    1    2    0    0 -0.72022703397E+01 -0.82447340925E+01  0.91737818683E+02  0.10505082444E+03  0.50000000000E+02 0.  0.
<mgrwt>
<rscale>  0 0.51184454E+02</rscale>
<asrwt>0</asrwt>
<pdfrwt beam="1">  1       13 0.10000000E+01 0.51184454E+02</pdfrwt>
<pdfrwt beam="2">  1       22 0.25318636E+00 0.51184454E+02</pdfrwt>
<totfact> 0.28717063E-01</totfact>
</mgrwt>
</event>
<event>
 4    1  0.2451537E+000  0.5220017E+02  0.7957747E-01  0.1433823E+00
         13   -1    0    0    0    0  0.00000000000E+00  0.00000000000E+00  0.99999944181E+02  0.10000000000E+03  0.10566000000E+00 0. -1.
         22   -1    0    0    0    0 -0.00000000000E+00 -0.00000000000E+00 -0.13191742708E+02  0.13191742708E+02  0.00000000000E+00 0. -1.
         13    1    1    2    0    0  0.10087072212E+01  0.14961281505E+02  0.43750020191E+01  0.15620795154E+02  0.10566000000E+00 0.  1.
        996    1    1    2    0    0 -0.10087072212E+01 -0.14961281505E+02  0.82433199454E+02  0.97570947555E+02  0.50000000000E+02 0.  0.
<mgrwt>
<rscale>  0 0.52200167E+02</rscale>
<asrwt>0</asrwt>
<pdfrwt beam="1">  1       13 0.10000000E+01 0.52200167E+02</pdfrwt>
<pdfrwt beam="2">  1       22 0.13191767E+00 0.52200167E+02</pdfrwt>
<totfact> 0.92795967E-01</totfact>
</mgrwt>
</event>
<event>
 4    1  0.2451537E+000  0.5120420E+02  0.7957747E-01  0.1438953E+00
         13   -1    0    0    0    0  0.00000000000E+00  0.00000000000E+00  0.99999944175E+02  0.99999999995E+02  0.10566000000E+00 0. -1.
         22   -1    0    0    0    0 -0.00000000000E+00 -0.00000000000E+00 -0.12274668649E+02  0.12274668649E+02  0.00000000000E+00 0. -1.
         13    1    1    2    0    0  0.99542496396E+01 -0.47731878842E+01  0.40348150334E+00  0.11047369362E+02  0.10566000000E+00 0.  1.
        996    1    1    2    0    0 -0.99542496396E+01  0.47731878842E+01  0.87321794023E+02  0.10122729928E+03  0.50000000000E+02 0.  0.
<mgrwt>
<rscale>  0 0.51204203E+02</rscale>
<asrwt>0</asrwt>
<pdfrwt beam="1">  1       13 0.10000000E+01 0.51204203E+02</pdfrwt>
<pdfrwt beam="2">  1       22 0.12274693E+00 0.51204203E+02</pdfrwt>
<totfact> 0.10363303E+00</totfact>
</mgrwt>
</event>
<event>
 4    1  0.2451537E+000  0.5106791E+02  0.7957747E-01  0.1439665E+00
         13   -1    0    0    0    0  0.00000000000E+00  0.00000000000E+00  0.99999944184E+02  0.10000000000E+03  0.10566000000E+00 0. -1.
         22   -1    0    0    0    0 -0.00000000000E+00 -0.00000000000E+00 -0.95110227609E+01  0.95110227609E+01  0.00000000000E+00 0. -1.
         13    1    1    2    0    0  0.81687778615E+01  0.64189339767E+01  0.12020094674E+02  0.15887903737E+02  0.10566000000E+00 0.  1.
        996    1    1    2    0    0 -0.81687778615E+01 -0.64189339767E+01  0.78468826749E+02  0.93623119028E+02  0.50000000000E+02 0.  0.
<mgrwt>
<rscale>  0 0.51067912E+02</rscale>
<asrwt>0</asrwt>
<pdfrwt beam="1">  1       13 0.10000000E+01 0.51067912E+02</pdfrwt>
<pdfrwt beam="2">  1       22 0.95110480E-01 0.51067912E+02</pdfrwt>
<totfact> 0.15117900E+00</totfact>
</mgrwt>
</event>
<event>
 4    1  0.2451537E+000  0.5533702E+02  0.7957747E-01  0.1418512E+00
         13   -1    0    0    0    0  0.00000000000E+00  0.00000000000E+00  0.99999944176E+02  0.99999999997E+02  0.10566000000E+00 0.  1.
         22   -1    0    0    0    0 -0.00000000000E+00 -0.00000000000E+00 -0.16386406931E+02  0.16386406931E+02  0.00000000000E+00 0.  1.
         13    1    1    2    0    0 -0.99944952525E+01 -0.21501053460E+02  0.14285971226E+02  0.27681860001E+02  0.10566000000E+00 0. -1.
        996    1    1    2    0    0  0.99944952525E+01  0.21501053460E+02  0.69327566019E+02  0.88704546926E+02  0.50000000000E+02 0.  0.
<mgrwt>
<rscale>  0 0.55337015E+02</rscale>
<asrwt>0</asrwt>
<pdfrwt beam="1">  1       13 0.10000000E+01 0.55337015E+02</pdfrwt>
<pdfrwt beam="2">  1       22 0.16386430E+00 0.55337015E+02</pdfrwt>
<totfact> 0.65225460E-01</totfact>
</mgrwt>
</event>
<event>
 4    1  0.2451537E+000  0.5372718E+02  0.7957747E-01  0.1426216E+00
         13   -1    0    0    0    0  0.00000000000E+00  0.00000000000E+00  0.99999944183E+02  0.10000000000E+03  0.10566000000E+00 0. -1.
         22   -1    0    0    0    0 -0.00000000000E+00 -0.00000000000E+00 -0.19537237655E+02  0.19537237655E+02  0.00000000000E+00 0.  1.
         13    1    1    2    0    0 -0.17301627313E+02 -0.93415225059E+01 -0.33859137820E+01  0.19952090782E+02  0.10566000000E+00 0.  1.
        996    1    1    2    0    0  0.17301627313E+02  0.93415225059E+01  0.83848620310E+02  0.99585146876E+02  0.50000000000E+02 0.  0.
<mgrwt>
<rscale>  0 0.53727184E+02</rscale>
<asrwt>0</asrwt>
<pdfrwt beam="1">  1       13 0.10000000E+01 0.53727184E+02</pdfrwt>
<pdfrwt beam="2">  1       22 0.19537260E+00 0.53727184E+02</pdfrwt>
<totfact> 0.47467820E-01</totfact>
</mgrwt>
</event>
<event>
 4    1  0.2451537E+000  0.5257508E+02  0.7957747E-01  0.1431927E+00
         13   -1    0    0    0    0  0.00000000000E+00  0.00000000000E+00  0.99999944172E+02  0.99999999993E+02  0.10566000000E+00 0. -1.
         22   -1    0    0    0    0 -0.00000000000E+00 -0.00000000000E+00 -0.13457637965E+02  0.13457637965E+02  0.00000000000E+00 0.  1.
         13    1    1    2    0    0 -0.16151235842E+02  0.18101534444E+01  0.61031700148E+01  0.17360844535E+02  0.10566000000E+00 0.  1.
        996    1    1    2    0    0  0.16151235842E+02 -0.18101534444E+01  0.80439136193E+02  0.96096793423E+02  0.50000000000E+02 0.  0.
<mgrwt>
<rscale>  0 0.52575080E+02</rscale>
<asrwt>0</asrwt>
<pdfrwt beam="1">  1       13 0.10000000E+01 0.52575080E+02</pdfrwt>
<pdfrwt beam="2">  1       22 0.13457662E+00 0.52575080E+02</pdfrwt>
<totfact> 0.89969333E-01</totfact>
</mgrwt>
</event>
<event>
 4    1  0.2451537E+000  0.5923877E+02  0.7957747E-01  0.1401054E+00
         13   -1    0    0    0    0  0.00000000000E+00  0.00000000000E+00  0.99999944175E+02  0.99999999996E+02  0.10566000000E+00 0. -1.
         22   -1    0    0    0    0 -0.00000000000E+00 -0.00000000000E+00 -0.20809070054E+02  0.20809070054E+02  0.00000000000E+00 0.  1.
         13    1    1    2    0    0  0.31117486492E+02  0.63979202741E+01  0.23645569197E+02  0.39602467803E+02  0.10566000000E+00 0.  1.
        996    1    1    2    0    0 -0.31117486492E+02 -0.63979202741E+01  0.55545304924E+02  0.81206602247E+02  0.50000000000E+02 0.  0.
<mgrwt>
<rscale>  0 0.59238766E+02</rscale>
<asrwt>0</asrwt>
<pdfrwt beam="1">  1       13 0.10000000E+01 0.59238766E+02</pdfrwt>
<pdfrwt beam="2">  1       22 0.20809092E+00 0.59238766E+02</pdfrwt>
<totfact> 0.42557481E-01</totfact>
</mgrwt>
</event>
<event>
 4    1  0.2451537E+000  0.5338120E+02  0.7957747E-01  0.1427913E+00
         13   -1    0    0    0    0  0.00000000000E+00  0.00000000000E+00  0.99999944178E+02  0.99999999998E+02  0.10566000000E+00 0. -1.
         22   -1    0    0    0    0 -0.00000000000E+00 -0.00000000000E+00 -0.62050611240E+02  0.62050611240E+02  0.00000000000E+00 0.  1.
         13    1    1    2    0    0  0.13986197982E+02 -0.12407206992E+02 -0.53216937572E+02  0.56405727794E+02  0.10566000000E+00 0.  1.
        996    1    1    2    0    0 -0.13986197982E+02  0.12407206992E+02  0.91166270510E+02  0.10564488344E+03  0.50000000000E+02 0.  0.
<mgrwt>
<rscale>  0 0.53381200E+02</rscale>
<asrwt>0</asrwt>
<pdfrwt beam="1">  1       13 0.10000000E+01 0.53381200E+02</pdfrwt>
<pdfrwt beam="2">  1       22 0.62050622E+00 0.53381200E+02</pdfrwt>
<totfact> 0.73216249E-02</totfact>
</mgrwt>
</event>
<event>
 4    1  0.2451537E+000  0.7338554E+02  0.7957747E-01  0.1348945E+00
         13   -1    0    0    0    0  0.00000000000E+00  0.00000000000E+00  0.99999944171E+02  0.99999999991E+02  0.10566000000E+00 0. -1.
         22   -1    0    0    0    0 -0.00000000000E+00 -0.00000000000E+00 -0.65014875948E+02  0.65014875948E+02  0.00000000000E+00 0.  1.
         13    1    1    2    0    0 -0.20005970840E+02 -0.49851769710E+02 -0.34590548492E+02  0.63890179382E+02  0.10566000000E+00 0.  1.
        996    1    1    2    0    0  0.20005970840E+02  0.49851769710E+02  0.69575616716E+02  0.10112469656E+03  0.50000000000E+02 0.  0.
<mgrwt>
<rscale>  0 0.73385542E+02</rscale>
<asrwt>0</asrwt>
<pdfrwt beam="1">  1       13 0.10000000E+01 0.73385542E+02</pdfrwt>
<pdfrwt beam="2">  1       22 0.65014886E+00 0.73385542E+02</pdfrwt>
<totfact> 0.86433812E-02</totfact>
</mgrwt>
</event>
<event>
 4    1  0.2451537E+000  0.5215068E+02  0.7957747E-01  0.1434075E+00
         13   -1    0    0    0    0  0.00000000000E+00  0.00000000000E+00  0.99999944188E+02  0.10000000001E+03  0.10566000000E+00 0.  1.
         22   -1    0    0    0    0 -0.00000000000E+00 -0.00000000000E+00 -0.24217995276E+02  0.24217995276E+02  0.00000000000E+00 0. -1.
         13    1    1    2    0    0 -0.63387470194E+01 -0.13398257551E+02 -0.14000016268E+02  0.20388836130E+02  0.10566000000E+00 0. -1.
        996    1    1    2    0    0  0.63387470194E+01  0.13398257551E+02  0.89781965180E+02  0.10382915915E+03  0.50000000000E+02 0.  0.
<mgrwt>
<rscale>  0 0.52150676E+02</rscale>
<asrwt>0</asrwt>
<pdfrwt beam="1">  1       13 0.10000000E+01 0.52150676E+02</pdfrwt>
<pdfrwt beam="2">  1       22 0.24218016E+00 0.52150676E+02</pdfrwt>
<totfact> 0.31386066E-01</totfact>
</mgrwt>
</event>
<event>
 4    1  0.2451537E+000  0.5142080E+02  0.7957747E-01  0.1437825E+00
         13   -1    0    0    0    0  0.00000000000E+00  0.00000000000E+00  0.99999944176E+02  0.99999999996E+02  0.10566000000E+00 0. -1.
         22   -1    0    0    0    0 -0.00000000000E+00 -0.00000000000E+00 -0.14228373288E+02  0.14228373288E+02  0.00000000000E+00 0. -1.
         13    1    1    2    0    0 -0.11988159651E+02  0.61898927840E+00 -0.23205271269E+01  0.12226820099E+02  0.10566000000E+00 0.  1.
        996    1    1    2    0    0  0.11988159651E+02 -0.61898927840E+00  0.88092098015E+02  0.10200155319E+03  0.50000000000E+02 0.  0.
<mgrwt>
<rscale>  0 0.51420804E+02</rscale>
<asrwt>0</asrwt>
<pdfrwt beam="1">  1       13 0.10000000E+01 0.51420804E+02</pdfrwt>
<pdfrwt beam="2">  1       22 0.14228397E+00 0.51420804E+02</pdfrwt>
<totfact> 0.82038381E-01</totfact>
</mgrwt>
</event>
<event>
 4    1  0.2451537E+000  0.5314257E+02  0.7957747E-01  0.1429093E+00
         13   -1    0    0    0    0  0.00000000000E+00  0.00000000000E+00  0.99999944179E+02  0.10000000000E+03  0.10566000000E+00 0. -1.
         22   -1    0    0    0    0 -0.00000000000E+00 -0.00000000000E+00 -0.14323226980E+02  0.14323226980E+02  0.00000000000E+00 0. -1.
         13    1    1    2    0    0 -0.26056932666E+01 -0.17814125422E+02  0.68650394124E+01  0.19268436162E+02  0.10566000000E+00 0.  1.
        996    1    1    2    0    0  0.26056932666E+01  0.17814125422E+02  0.78811677787E+02  0.95054790818E+02  0.50000000000E+02 0.  0.
<mgrwt>
<rscale>  0 0.53142570E+02</rscale>
<asrwt>0</asrwt>
<pdfrwt beam="1">  1       13 0.10000000E+01 0.53142570E+02</pdfrwt>
<pdfrwt beam="2">  1       22 0.14323251E+00 0.53142570E+02</pdfrwt>
<totfact> 0.81443240E-01</totfact>
</mgrwt>
</event>
<event>
 4    1  0.2451537E+000  0.5401082E+02  0.7957747E-01  0.1424836E+00
         13   -1    0    0    0    0  0.00000000000E+00  0.00000000000E+00  0.99999944183E+02  0.10000000000E+03  0.10566000000E+00 0. -1.
         22   -1    0    0    0    0 -0.00000000000E+00 -0.00000000000E+00 -0.14255707533E+02  0.14255707533E+02  0.00000000000E+00 0. -1.
         13    1    1    2    0    0 -0.10260907291E+02 -0.17660195008E+02  0.15462575228E+02  0.25617788798E+02  0.10566000000E+00 0.  1.
        996    1    1    2    0    0  0.10260907291E+02  0.17660195008E+02  0.70281661422E+02  0.88637918739E+02  0.50000000000E+02 0.  0.
<mgrwt>
<rscale>  0 0.54010820E+02</rscale>
<asrwt>0</asrwt>
<pdfrwt beam="1">  1       13 0.10000000E+01 0.54010820E+02</pdfrwt>
<pdfrwt beam="2">  1       22 0.14255731E+00 0.54010820E+02</pdfrwt>
<totfact> 0.82218736E-01</totfact>
</mgrwt>
</event>
<event>
 4    1  0.2451537E+000  0.6202592E+02  0.7957747E-01  0.1389521E+00
         13   -1    0    0    0    0  0.00000000000E+00  0.00000000000E+00  0.99999944187E+02  0.10000000001E+03  0.10566000000E+00 0. -1.
         22   -1    0    0    0    0 -0.00000000000E+00 -0.00000000000E+00 -0.24371657864E+02  0.24371657864E+02  0.00000000000E+00 0.  1.
         13    1    1    2    0    0  0.36102285483E+02 -0.66212030413E+01  0.28712818221E+02  0.46600991846E+02  0.10566000000E+00 0.  1.
        996    1    1    2    0    0 -0.36102285483E+02  0.66212030413E+01  0.46915468103E+02  0.77770666026E+02  0.50000000000E+02 0.  0.
<mgrwt>
<rscale>  0 0.62025925E+02</rscale>
<asrwt>0</asrwt>
<pdfrwt beam="1">  1       13 0.10000000E+01 0.62025925E+02</pdfrwt>
<pdfrwt beam="2">  1       22 0.24371679E+00 0.62025925E+02</pdfrwt>
<totfact> 0.31446031E-01</totfact>
</mgrwt>
</event>
<event>
 4    1  0.2451537E+000  0.5194625E+02  0.7957747E-01  0.1435118E+00
         13   -1    0    0    0    0  0.00000000000E+00  0.00000000000E+00  0.99999944178E+02  0.99999999998E+02  0.10566000000E+00 0. -1.
         22   -1    0    0    0    0 -0.00000000000E+00 -0.00000000000E+00 -0.10954484321E+02  0.10954484321E+02  0.00000000000E+00 0. -1.
         13    1    1    2    0    0 -0.97791593361E+01  0.10138115026E+02  0.22308657885E+02  0.26383720630E+02  0.10566000000E+00 0.  1.
        996    1    1    2    0    0  0.97791593361E+01 -0.10138115026E+02  0.66736801972E+02  0.84570763690E+02  0.50000000000E+02 0.  0.
<mgrwt>
<rscale>  0 0.51946254E+02</rscale>
<asrwt>0</asrwt>
<pdfrwt beam="1">  1       13 0.10000000E+01 0.51946254E+02</pdfrwt>
<pdfrwt beam="2">  1       22 0.10954509E+00 0.51946254E+02</pdfrwt>
<totfact> 0.12331520E+00</totfact>
</mgrwt>
</event>
<event>
 4    1  0.2451537E+000  0.5383774E+02  0.7957747E-01  0.1425677E+00
         13   -1    0    0    0    0  0.00000000000E+00  0.00000000000E+00  0.99999944184E+02  0.10000000000E+03  0.10566000000E+00 0.  1.
         22   -1    0    0    0    0 -0.00000000000E+00 -0.00000000000E+00 -0.16024037050E+02  0.16024037050E+02  0.00000000000E+00 0. -1.
         13    1    1    2    0    0 -0.11169247638E+02 -0.16545393223E+02  0.52358902932E+01  0.20638019307E+02  0.10566000000E+00 0. -1.
        996    1    1    2    0    0  0.11169247638E+02  0.16545393223E+02  0.78740016840E+02  0.95386017748E+02  0.50000000000E+02 0.  0.
<mgrwt>
<rscale>  0 0.53837739E+02</rscale>
<asrwt>0</asrwt>
<pdfrwt beam="1">  1       13 0.10000000E+01 0.53837739E+02</pdfrwt>
<pdfrwt beam="2">  1       22 0.16024060E+00 0.53837739E+02</pdfrwt>
<totfact> 0.67593528E-01</totfact>
</mgrwt>
</event>
<event>
 4    1  0.2451537E+000  0.5173245E+02  0.7957747E-01  0.1436215E+00
         13   -1    0    0    0    0  0.00000000000E+00  0.00000000000E+00  0.99999944175E+02  0.99999999995E+02  0.10566000000E+00 0. -1.
         22   -1    0    0    0    0 -0.00000000000E+00 -0.00000000000E+00 -0.24408876615E+02  0.24408876615E+02  0.00000000000E+00 0. -1.
         13    1    1    2    0    0 -0.28965198666E+01  0.12955938152E+02 -0.15034562437E+02  0.20057302721E+02  0.10566000000E+00 0.  1.
        996    1    1    2    0    0  0.28965198666E+01 -0.12955938152E+02  0.90625629997E+02  0.10435157389E+03  0.50000000000E+02 0.  0.
<mgrwt>
<rscale>  0 0.51732448E+02</rscale>
<asrwt>0</asrwt>
<pdfrwt beam="1">  1       13 0.10000000E+01 0.51732448E+02</pdfrwt>
<pdfrwt beam="2">  1       22 0.24408898E+00 0.51732448E+02</pdfrwt>
<totfact> 0.30885564E-01</totfact>
</mgrwt>
</event>
<event>
 4    1  0.2451537E+000  0.5796441E+02  0.7957747E-01  0.1406578E+00
         13   -1    0    0    0    0  0.00000000000E+00  0.00000000000E+00  0.99999944188E+02  0.10000000001E+03  0.10566000000E+00 0.  1.
         22   -1    0    0    0    0 -0.00000000000E+00 -0.00000000000E+00 -0.76326858623E+02  0.76326858623E+02  0.00000000000E+00 0. -1.
         13    1    1    2    0    0 -0.19637834742E+02  0.21776776105E+02 -0.64473912056E+02  0.70829153819E+02  0.10566000000E+00 0. -1.
        996    1    1    2    0    0  0.19637834742E+02 -0.21776776105E+02  0.88146997621E+02  0.10549770481E+03  0.50000000000E+02 0.  0.
<mgrwt>
<rscale>  0 0.57964407E+02</rscale>
<asrwt>0</asrwt>
<pdfrwt beam="1">  1       13 0.10000000E+01 0.57964407E+02</pdfrwt>
<pdfrwt beam="2">  1       22 0.76326865E+00 0.57964407E+02</pdfrwt>
<totfact> 0.43346241E-02</totfact>
</mgrwt>
</event>
<event>
 4    1  0.2451537E+000  0.5321486E+02  0.7957747E-01  0.1428735E+00
         13   -1    0    0    0    0  0.00000000000E+00  0.00000000000E+00  0.99999944175E+02  0.99999999995E+02  0.10566000000E+00 0. -1.
         22   -1    0    0    0    0 -0.00000000000E+00 -0.00000000000E+00 -0.13859941639E+02  0.13859941639E+02  0.00000000000E+00 0. -1.
         13    1    1    2    0    0 -0.11530983293E+01 -0.18179444840E+02  0.94667767422E+01  0.20529317484E+02  0.10566000000E+00 0.  1.
        996    1    1    2    0    0  0.11530983293E+01  0.18179444840E+02  0.76673225794E+02  0.93330624150E+02  0.50000000000E+02 0.  0.
<mgrwt>
<rscale>  0 0.53214865E+02</rscale>
<asrwt>0</asrwt>
<pdfrwt beam="1">  1       13 0.10000000E+01 0.53214865E+02</pdfrwt>
<pdfrwt beam="2">  1       22 0.13859966E+00 0.53214865E+02</pdfrwt>
<totfact> 0.85927583E-01</totfact>
</mgrwt>
</event>
<event>
 4    1  0.2451537E+000  0.5430571E+02  0.7957747E-01  0.1423411E+00
         13   -1    0    0    0    0  0.00000000000E+00  0.00000000000E+00  0.99999944181E+02  0.10000000000E+03  0.10566000000E+00 0. -1.
         22   -1    0    0    0    0 -0.00000000000E+00 -0.00000000000E+00 -0.14347432768E+02  0.14347432768E+02  0.00000000000E+00 0.  1.
         13    1    1    2    0    0  0.18396536076E+01 -0.21112215734E+02  0.28409892254E+02  0.35443520148E+02  0.10566000000E+00 0.  1.
        996    1    1    2    0    0 -0.18396536076E+01  0.21112215734E+02  0.57242619159E+02  0.78903912621E+02  0.50000000000E+02 0.  0.
<mgrwt>
<rscale>  0 0.54305709E+02</rscale>
<asrwt>0</asrwt>
<pdfrwt beam="1">  1       13 0.10000000E+01 0.54305709E+02</pdfrwt>
<pdfrwt beam="2">  1       22 0.14347457E+00 0.54305709E+02</pdfrwt>
<totfact> 0.81408455E-01</totfact>
</mgrwt>
</event>
<event>
 4    1  0.2451537E+000  0.5103782E+02  0.7957747E-01  0.1439823E+00
         13   -1    0    0    0    0  0.00000000000E+00  0.00000000000E+00  0.99999944177E+02  0.99999999997E+02  0.10566000000E+00 0.  1.
         22   -1    0    0    0    0 -0.00000000000E+00 -0.00000000000E+00 -0.15398010550E+02  0.15398010550E+02  0.00000000000E+00 0.  1.
         13    1    1    2    0    0 -0.53745401573E+01  0.87162627790E+01 -0.56637839370E+01  0.11702501068E+02  0.10566000000E+00 0. -1.
        996    1    1    2    0    0  0.53745401573E+01 -0.87162627790E+01  0.90265717563E+02  0.10369550948E+03  0.50000000000E+02 0.  0.
<mgrwt>
<rscale>  0 0.51037819E+02</rscale>
<asrwt>0</asrwt>
<pdfrwt beam="1">  1       13 0.10000000E+01 0.51037819E+02</pdfrwt>
<pdfrwt beam="2">  1       22 0.15398034E+00 0.51037819E+02</pdfrwt>
<totfact> 0.71921932E-01</totfact>
</mgrwt>
</event>
<event>
 4    1  0.2451537E+000  0.7882890E+02  0.7957747E-01  0.1332408E+00
         13   -1    0    0    0    0  0.00000000000E+00  0.00000000000E+00  0.99999944186E+02  0.10000000001E+03  0.10566000000E+00 0. -1.
         22   -1    0    0    0    0 -0.00000000000E+00 -0.00000000000E+00 -0.58416556529E+02  0.58416556529E+02  0.00000000000E+00 0.  1.
         13    1    1    2    0    0 -0.46095689918E+02  0.39864550556E+02 -0.13282783622E+02  0.62373379938E+02  0.10566000000E+00 0.  1.
        996    1    1    2    0    0  0.46095689918E+02 -0.39864550556E+02  0.54866171278E+02  0.96043176597E+02  0.50000000000E+02 0.  0.
<mgrwt>
<rscale>  0 0.78828897E+02</rscale>
<asrwt>0</asrwt>
<pdfrwt beam="1">  1       13 0.10000000E+01 0.78828897E+02</pdfrwt>
<pdfrwt beam="2">  1       22 0.58416568E+00 0.78828897E+02</pdfrwt>
<totfact> 0.59273352E-02</totfact>
</mgrwt>
</event>
<event>
 4    1  0.2451537E+000  0.5231763E+02  0.7957747E-01  0.1433227E+00
         13   -1    0    0    0    0  0.00000000000E+00  0.00000000000E+00  0.99999944181E+02  0.10000000000E+03  0.10566000000E+00 0. -1.
         22   -1    0    0    0    0 -0.00000000000E+00 -0.00000000000E+00 -0.18574177458E+02  0.18574177458E+02  0.00000000000E+00 0.  1.
         13    1    1    2    0    0  0.53478970623E+01 -0.14440736252E+02 -0.61329228618E+01  0.16575849099E+02  0.10566000000E+00 0.  1.
        996    1    1    2    0    0 -0.53478970623E+01  0.14440736252E+02  0.87558689585E+02  0.10199832836E+03  0.50000000000E+02 0.  0.
<mgrwt>
<rscale>  0 0.52317634E+02</rscale>
<asrwt>0</asrwt>
<pdfrwt beam="1">  1       13 0.10000000E+01 0.52317634E+02</pdfrwt>
<pdfrwt beam="2">  1       22 0.18574200E+00 0.52317634E+02</pdfrwt>
<totfact> 0.51945370E-01</totfact>
</mgrwt>
</event>
<event>
 4    1  0.2451537E+000  0.5529619E+02  0.7957747E-01  0.1418703E+00
         13   -1    0    0    0    0  0.00000000000E+00  0.00000000000E+00  0.99999944178E+02  0.99999999998E+02  0.10566000000E+00 0. -1.
         22   -1    0    0    0    0 -0.00000000000E+00 -0.00000000000E+00 -0.16900280954E+02  0.16900280954E+02  0.00000000000E+00 0.  1.
         13    1    1    2    0    0 -0.20498139115E+02 -0.11725832900E+02  0.11037527344E+02  0.26067355798E+02  0.10566000000E+00 0.  1.
        996    1    1    2    0    0  0.20498139115E+02  0.11725832900E+02  0.72062135880E+02  0.90832925154E+02  0.50000000000E+02 0.  0.
<mgrwt>
<rscale>  0 0.55296192E+02</rscale>
<asrwt>0</asrwt>
<pdfrwt beam="1">  1       13 0.10000000E+01 0.55296192E+02</pdfrwt>
<pdfrwt beam="2">  1       22 0.16900304E+00 0.55296192E+02</pdfrwt>
<totfact> 0.61809224E-01</totfact>
</mgrwt>
</event>
<event>
 4    1  0.2451537E+000  0.5506535E+02  0.7957747E-01  0.1419790E+00
         13   -1    0    0    0    0  0.00000000000E+00  0.00000000000E+00  0.99999944185E+02  0.10000000001E+03  0.10566000000E+00 0. -1.
         22   -1    0    0    0    0 -0.00000000000E+00 -0.00000000000E+00 -0.17485837224E+02  0.17485837224E+02  0.00000000000E+00 0.  1.
         13    1    1    2    0    0  0.21358806776E+02  0.87174520728E+01  0.71580026169E+01  0.24154518481E+02  0.10566000000E+00 0.  1.
        996    1    1    2    0    0 -0.21358806776E+02 -0.87174520728E+01  0.75356104344E+02  0.93331318749E+02  0.50000000000E+02 0.  0.
<mgrwt>
<rscale>  0 0.55065348E+02</rscale>
<asrwt>0</asrwt>
<pdfrwt beam="1">  1       13 0.10000000E+01 0.55065348E+02</pdfrwt>
<pdfrwt beam="2">  1       22 0.17485860E+00 0.55065348E+02</pdfrwt>
<totfact> 0.58183087E-01</totfact>
</mgrwt>
</event>
<event>
 4    1  0.2451537E+000  0.5256974E+02  0.7957747E-01  0.1431954E+00
         13   -1    0    0    0    0  0.00000000000E+00  0.00000000000E+00  0.99999944172E+02  0.99999999993E+02  0.10566000000E+00 0. -1.
         22   -1    0    0    0    0 -0.00000000000E+00 -0.00000000000E+00 -0.11852073035E+02  0.11852073035E+02  0.00000000000E+00 0.  1.
         13    1    1    2    0    0  0.15903594250E+02  0.32639220486E+01  0.22616941706E+02  0.27840882051E+02  0.10566000000E+00 0.  1.
        996    1    1    2    0    0 -0.15903594250E+02 -0.32639220486E+01  0.65530929432E+02  0.84011190977E+02  0.50000000000E+02 0.  0.
<mgrwt>
<rscale>  0 0.52569739E+02</rscale>
<asrwt>0</asrwt>
<pdfrwt beam="1">  1       13 0.10000000E+01 0.52569739E+02</pdfrwt>
<pdfrwt beam="2">  1       22 0.11852098E+00 0.52569739E+02</pdfrwt>
<totfact> 0.10969103E+00</totfact>
</mgrwt>
</event>
<event>
 4    1  0.2451537E+000  0.5260100E+02  0.7957747E-01  0.1431797E+00
         13   -1    0    0    0    0  0.00000000000E+00  0.00000000000E+00  0.99999944177E+02  0.99999999997E+02  0.10566000000E+00 0.  1.
         22   -1    0    0    0    0 -0.00000000000E+00 -0.00000000000E+00 -0.22485590798E+02  0.22485590798E+02  0.00000000000E+00 0.  1.
         13    1    1    2    0    0 -0.14779720646E+02 -0.69587973653E+01 -0.10877586858E+02  0.19626463335E+02  0.10566000000E+00 0. -1.
        996    1    1    2    0    0  0.14779720646E+02  0.69587973653E+01  0.88391940236E+02  0.10285912746E+03  0.50000000000E+02 0.  0.
<mgrwt>
<rscale>  0 0.52600998E+02</rscale>
<asrwt>0</asrwt>
<pdfrwt beam="1">  1       13 0.10000000E+01 0.52600998E+02</pdfrwt>
<pdfrwt beam="2">  1       22 0.22485612E+00 0.52600998E+02</pdfrwt>
<totfact> 0.36298500E-01</totfact>
</mgrwt>
</event>
<event>
 4    1  0.2451537E+000  0.5116709E+02  0.7957747E-01  0.1439146E+00
         13   -1    0    0    0    0  0.00000000000E+00  0.00000000000E+00  0.99999944179E+02  0.10000000000E+03  0.10566000000E+00 0.  1.
         22   -1    0    0    0    0 -0.00000000000E+00 -0.00000000000E+00 -0.10985411550E+02  0.10985411550E+02  0.00000000000E+00 0.  1.
         13    1    1    2    0    0 -0.39155248771E+01 -0.10136061644E+02  0.36546789569E+01  0.11464681550E+02  0.10566000000E+00 0. -1.
        996    1    1    2    0    0  0.39155248771E+01  0.10136061644E+02  0.85359853672E+02  0.99520730000E+02  0.50000000000E+02 0.  0.
<mgrwt>
<rscale>  0 0.51167090E+02</rscale>
<asrwt>0</asrwt>
<pdfrwt beam="1">  1       13 0.10000000E+01 0.51167090E+02</pdfrwt>
<pdfrwt beam="2">  1       22 0.10985436E+00 0.51167090E+02</pdfrwt>
<totfact> 0.12257642E+00</totfact>
</mgrwt>
</event>
<event>
 4    1  0.2451537E+000  0.6857913E+02  0.7957747E-01  0.1364993E+00
         13   -1    0    0    0    0  0.00000000000E+00  0.00000000000E+00  0.99999944172E+02  0.99999999992E+02  0.10566000000E+00 0.  1.
         22   -1    0    0    0    0 -0.00000000000E+00 -0.00000000000E+00 -0.36234913533E+02  0.36234913533E+02  0.00000000000E+00 0. -1.
         13    1    1    2    0    0  0.25119631157E+02  0.39649723628E+02  0.75090818427E+01  0.47534134339E+02  0.10566000000E+00 0. -1.
        996    1    1    2    0    0 -0.25119631157E+02 -0.39649723628E+02  0.56255948796E+02  0.88700779186E+02  0.50000000000E+02 0.  0.
<mgrwt>
<rscale>  0 0.68579125E+02</rscale>
<asrwt>0</asrwt>
<pdfrwt beam="1">  1       13 0.10000000E+01 0.68579125E+02</pdfrwt>
<pdfrwt beam="2">  1       22 0.36234931E+00 0.68579125E+02</pdfrwt>
<totfact> 0.14997811E-01</totfact>
</mgrwt>
</event>
<event>
 4    1  0.2451537E+000  0.5713986E+02  0.7957747E-01  0.1410242E+00
         13   -1    0    0    0    0  0.00000000000E+00  0.00000000000E+00  0.99999944180E+02  0.10000000000E+03  0.10566000000E+00 0. -1.
         22   -1    0    0    0    0 -0.00000000000E+00 -0.00000000000E+00 -0.18279467494E+02  0.18279467494E+02  0.00000000000E+00 0.  1.
         13    1    1    2    0    0 -0.20315828938E+02 -0.18767798287E+02  0.19745622396E+02  0.33983288920E+02  0.10566000000E+00 0.  1.
        996    1    1    2    0    0  0.20315828938E+02  0.18767798287E+02  0.61974854290E+02  0.84296178574E+02  0.50000000000E+02 0.  0.
<mgrwt>
<rscale>  0 0.57139856E+02</rscale>
<asrwt>0</asrwt>
<pdfrwt beam="1">  1       13 0.10000000E+01 0.57139856E+02</pdfrwt>
<pdfrwt beam="2">  1       22 0.18279490E+00 0.57139856E+02</pdfrwt>
<totfact> 0.53930519E-01</totfact>
</mgrwt>
</event>
<event>
 4    1  0.2451537E+000  0.5119451E+02  0.7957747E-01  0.1439003E+00
         13   -1    0    0    0    0  0.00000000000E+00  0.00000000000E+00  0.99999944180E+02  0.10000000000E+03  0.10566000000E+00 0.  1.
         22   -1    0    0    0    0 -0.00000000000E+00 -0.00000000000E+00 -0.97257597889E+01  0.97257597889E+01  0.00000000000E+00 0.  1.
         13    1    1    2    0    0  0.52899723187E+01  0.96381651191E+01  0.19341312151E+02  0.22248046066E+02  0.10566000000E+00 0. -1.
        996    1    1    2    0    0 -0.52899723187E+01 -0.96381651191E+01  0.70932872240E+02  0.87477713723E+02  0.50000000000E+02 0.  0.
<mgrwt>
<rscale>  0 0.51194512E+02</rscale>
<asrwt>0</asrwt>
<pdfrwt beam="1">  1       13 0.10000000E+01 0.51194512E+02</pdfrwt>
<pdfrwt beam="2">  1       22 0.97257850E-01 0.51194512E+02</pdfrwt>
<totfact> 0.14646376E+00</totfact>
</mgrwt>
</event>
<event>
 4    1  0.2451537E+000  0.5316318E+02  0.7957747E-01  0.1428991E+00
         13   -1    0    0    0    0  0.00000000000E+00  0.00000000000E+00  0.99999944179E+02  0.99999999999E+02  0.10566000000E+00 0.  1.
         22   -1    0    0    0    0 -0.00000000000E+00 -0.00000000000E+00 -0.14989886439E+02  0.14989886439E+02  0.00000000000E+00 0. -1.
         13    1    1    2    0    0  0.14111141591E+02  0.11278250757E+02  0.46800641261E+01  0.18661120583E+02  0.10566000000E+00 0. -1.
        996    1    1    2    0    0 -0.14111141591E+02 -0.11278250757E+02  0.80329993614E+02  0.96328765855E+02  0.50000000000E+02 0.  0.
<mgrwt>
<rscale>  0 0.53163176E+02</rscale>
<asrwt>0</asrwt>
<pdfrwt beam="1">  1       13 0.10000000E+01 0.53163176E+02</pdfrwt>
<pdfrwt beam="2">  1       22 0.14989910E+00 0.53163176E+02</pdfrwt>
<totfact> 0.75554368E-01</totfact>
</mgrwt>
</event>
<event>
 4    1  0.2451537E+000  0.5208284E+02  0.7957747E-01  0.1434420E+00
         13   -1    0    0    0    0  0.00000000000E+00  0.00000000000E+00  0.99999944171E+02  0.99999999991E+02  0.10566000000E+00 0.  1.
         22   -1    0    0    0    0 -0.00000000000E+00 -0.00000000000E+00 -0.67254398074E+02  0.67254398074E+02  0.00000000000E+00 0. -1.
         13    1    1    2    0    0 -0.12603643482E+02  0.73328622279E+01 -0.59532742601E+02  0.61292587669E+02  0.10566000000E+00 0. -1.
        996    1    1    2    0    0  0.12603643482E+02 -0.73328622279E+01  0.92278288698E+02  0.10596181040E+03  0.50000000000E+02 0.  0.
<mgrwt>
<rscale>  0 0.52082845E+02</rscale>
<asrwt>0</asrwt>
<pdfrwt beam="1">  1       13 0.10000000E+01 0.52082845E+02</pdfrwt>
<pdfrwt beam="2">  1       22 0.67254407E+00 0.52082845E+02</pdfrwt>
<totfact> 0.85702040E-02</totfact>
</mgrwt>
</event>
<event>
 4    1  0.2451537E+000  0.5338761E+02  0.7957747E-01  0.1427882E+00
         13   -1    0    0    0    0  0.00000000000E+00  0.00000000000E+00  0.99999944189E+02  0.10000000001E+03  0.10566000000E+00 0. -1.
         22   -1    0    0    0    0 -0.00000000000E+00 -0.00000000000E+00 -0.18969895059E+02  0.18969895059E+02  0.00000000000E+00 0.  1.
         13    1    1    2    0    0 -0.13176327383E+02 -0.13289876792E+02 -0.34539919068E+01  0.19030965624E+02  0.10566000000E+00 0.  1.
        996    1    1    2    0    0  0.13176327383E+02  0.13289876792E+02  0.84484041036E+02  0.99938929444E+02  0.50000000000E+02 0.  0.
<mgrwt>
<rscale>  0 0.53387606E+02</rscale>
<asrwt>0</asrwt>
<pdfrwt beam="1">  1       13 0.10000000E+01 0.53387606E+02</pdfrwt>
<pdfrwt beam="2">  1       22 0.18969918E+00 0.53387606E+02</pdfrwt>
<totfact> 0.50084275E-01</totfact>
</mgrwt>
</event>
<event>
 4    1  0.2451537E+000  0.5459534E+02  0.7957747E-01  0.1422022E+00
         13   -1    0    0    0    0  0.00000000000E+00  0.00000000000E+00  0.99999944180E+02  0.10000000000E+03  0.10566000000E+00 0. -1.
         22   -1    0    0    0    0 -0.00000000000E+00 -0.00000000000E+00 -0.14821849842E+02  0.14821849842E+02  0.00000000000E+00 0.  1.
         13    1    1    2    0    0  0.93034409293E+01 -0.19851878292E+02  0.18840590331E+02  0.28907267130E+02  0.10566000000E+00 0.  1.
        996    1    1    2    0    0 -0.93034409293E+01  0.19851878292E+02  0.66337504007E+02  0.85914582713E+02  0.50000000000E+02 0.  0.
<mgrwt>
<rscale>  0 0.54595339E+02</rscale>
<asrwt>0</asrwt>
<pdfrwt beam="1">  1       13 0.10000000E+01 0.54595339E+02</pdfrwt>
<pdfrwt beam="2">  1       22 0.14821874E+00 0.54595339E+02</pdfrwt>
<totfact> 0.77201333E-01</totfact>
</mgrwt>
</event>
<event>
 4    1  0.2451537E+000  0.5488855E+02  0.7957747E-01  0.1420627E+00
         13   -1    0    0    0    0  0.00000000000E+00  0.00000000000E+00  0.99999944175E+02  0.99999999995E+02  0.10566000000E+00 0. -1.
         22   -1    0    0    0    0 -0.00000000000E+00 -0.00000000000E+00 -0.15043635972E+02  0.15043635972E+02  0.00000000000E+00 0.  1.
         13    1    1    2    0    0  0.15015739243E+02  0.16949347998E+02  0.26499133350E+02  0.34856391880E+02  0.10566000000E+00 0.  1.
        996    1    1    2    0    0 -0.15015739243E+02 -0.16949347998E+02  0.58457174853E+02  0.80187244088E+02  0.50000000000E+02 0.  0.
<mgrwt>
<rscale>  0 0.54888549E+02</rscale>
<asrwt>0</asrwt>
<pdfrwt beam="1">  1       13 0.10000000E+01 0.54888549E+02</pdfrwt>
<pdfrwt beam="2">  1       22 0.15043660E+00 0.54888549E+02</pdfrwt>
<totfact> 0.75359086E-01</totfact>
</mgrwt>
</event>
<event>
 4    1  0.2451537E+000  0.5220468E+02  0.7957747E-01  0.1433800E+00
         13   -1    0    0    0    0  0.00000000000E+00  0.00000000000E+00  0.99999944178E+02  0.99999999998E+02  0.10566000000E+00 0.  1.
         22   -1    0    0    0    0 -0.00000000000E+00 -0.00000000000E+00 -0.15256389951E+02  0.15256389951E+02  0.00000000000E+00 0. -1.
         13    1    1    2    0    0 -0.94113738328E+01  0.11694233665E+02 -0.80974328878E+00  0.15033160236E+02  0.10566000000E+00 0. -1.
        996    1    1    2    0    0  0.94113738328E+01 -0.11694233665E+02  0.85553297515E+02  0.10022322971E+03  0.50000000000E+02 0.  0.
<mgrwt>
<rscale>  0 0.52204684E+02</rscale>
<asrwt>0</asrwt>
<pdfrwt beam="1">  1       13 0.10000000E+01 0.52204684E+02</pdfrwt>
<pdfrwt beam="2">  1       22 0.15256414E+00 0.52204684E+02</pdfrwt>
<totfact> 0.73220726E-01</totfact>
</mgrwt>
</event>
<event>
 4    1  0.2451537E+000  0.5745606E+02  0.7957747E-01  0.1408829E+00
         13   -1    0    0    0    0  0.00000000000E+00  0.00000000000E+00  0.99999944179E+02  0.99999999999E+02  0.10566000000E+00 0. -1.
         22   -1    0    0    0    0 -0.00000000000E+00 -0.00000000000E+00 -0.39756360485E+02  0.39756360485E+02  0.00000000000E+00 0.  1.
         13    1    1    2    0    0  0.28111992081E+02  0.33036961236E+01 -0.24456374400E+02  0.37407538274E+02  0.10566000000E+00 0.  1.
        996    1    1    2    0    0 -0.28111992081E+02 -0.33036961236E+01  0.84699958094E+02  0.10234882221E+03  0.50000000000E+02 0.  0.
<mgrwt>
<rscale>  0 0.57456057E+02</rscale>
<asrwt>0</asrwt>
<pdfrwt beam="1">  1       13 0.10000000E+01 0.57456057E+02</pdfrwt>
<pdfrwt beam="2">  1       22 0.39756377E+00 0.57456057E+02</pdfrwt>
<totfact> 0.12563228E-01</totfact>
</mgrwt>
</event>
<event>
 4    1  0.2451537E+000  0.5109779E+02  0.7957747E-01  0.1439509E+00
         13   -1    0    0    0    0  0.00000000000E+00  0.00000000000E+00  0.99999944174E+02  0.99999999994E+02  0.10566000000E+00 0. -1.
         22   -1    0    0    0    0 -0.00000000000E+00 -0.00000000000E+00 -0.10449485534E+02  0.10449485534E+02  0.00000000000E+00 0.  1.
         13    1    1    2    0    0  0.65908495006E+01 -0.82185422796E+01  0.50087078952E+01  0.11665421259E+02  0.10566000000E+00 0.  1.
        996    1    1    2    0    0 -0.65908495006E+01  0.82185422796E+01  0.84541750745E+02  0.98784064269E+02  0.50000000000E+02 0.  0.
<mgrwt>
<rscale>  0 0.51097786E+02</rscale>
<asrwt>0</asrwt>
<pdfrwt beam="1">  1       13 0.10000000E+01 0.51097786E+02</pdfrwt>
<pdfrwt beam="2">  1       22 0.10449511E+00 0.51097786E+02</pdfrwt>
<totfact> 0.13194496E+00</totfact>
</mgrwt>
</event>
<event>
 4    1  0.2451537E+000  0.5104482E+02  0.7957747E-01  0.1439786E+00
         13   -1    0    0    0    0  0.00000000000E+00  0.00000000000E+00  0.99999944173E+02  0.99999999993E+02  0.10566000000E+00 0. -1.
         22   -1    0    0    0    0 -0.00000000000E+00 -0.00000000000E+00 -0.25135367148E+02  0.25135367148E+02  0.00000000000E+00 0.  1.
         13    1    1    2    0    0  0.80534362678E+01  0.63809107549E+01 -0.17102590517E+02  0.19952033085E+02  0.10566000000E+00 0.  1.
        996    1    1    2    0    0 -0.80534362678E+01 -0.63809107549E+01  0.91967167542E+02  0.10518333406E+03  0.50000000000E+02 0.  0.
<mgrwt>
<rscale>  0 0.51044822E+02</rscale>
<asrwt>0</asrwt>
<pdfrwt beam="1">  1       13 0.10000000E+01 0.51044822E+02</pdfrwt>
<pdfrwt beam="2">  1       22 0.25135388E+00 0.51044822E+02</pdfrwt>
<totfact> 0.29123827E-01</totfact>
</mgrwt>
</event>
<event>
 4    1  0.2451537E+000  0.5105864E+02  0.7957747E-01  0.1439714E+00
         13   -1    0    0    0    0  0.00000000000E+00  0.00000000000E+00  0.99999944175E+02  0.99999999995E+02  0.10566000000E+00 0.  1.
         22   -1    0    0    0    0 -0.00000000000E+00 -0.00000000000E+00 -0.97710039122E+01  0.97710039122E+01  0.00000000000E+00 0.  1.
         13    1    1    2    0    0 -0.93844827315E+01 -0.43493275251E+01  0.84270491350E+01  0.13342094559E+02  0.10566000000E+00 0. -1.
        996    1    1    2    0    0  0.93844827315E+01  0.43493275251E+01  0.81801891128E+02  0.96428909349E+02  0.50000000000E+02 0.  0.
<mgrwt>
<rscale>  0 0.51058644E+02</rscale>
<asrwt>0</asrwt>
<pdfrwt beam="1">  1       13 0.10000000E+01 0.51058644E+02</pdfrwt>
<pdfrwt beam="2">  1       22 0.97710291E-01 0.51058644E+02</pdfrwt>
<totfact> 0.14544066E+00</totfact>
</mgrwt>
</event>
<event>
 4    1  0.2451537E+000  0.5280299E+02  0.7957747E-01  0.1430784E+00
         13   -1    0    0    0    0  0.00000000000E+00  0.00000000000E+00  0.99999944170E+02  0.99999999990E+02  0.10566000000E+00 0. -1.
         22   -1    0    0    0    0 -0.00000000000E+00 -0.00000000000E+00 -0.53804260264E+02  0.53804260264E+02  0.00000000000E+00 0.  1.
         13    1    1    2    0    0  0.16923611116E+02 -0.13218113664E+01 -0.45182909113E+02  0.48266574754E+02  0.10566000000E+00 0.  1.
        996    1    1    2    0    0 -0.16923611116E+02  0.13218113664E+01  0.91378593019E+02  0.10553768550E+03  0.50000000000E+02 0.  0.
<mgrwt>
<rscale>  0 0.52802990E+02</rscale>
<asrwt>0</asrwt>
<pdfrwt beam="1">  1       13 0.10000000E+01 0.52802990E+02</pdfrwt>
<pdfrwt beam="2">  1       22 0.53804273E+00 0.52802990E+02</pdfrwt>
<totfact> 0.61056123E-02</totfact>
</mgrwt>
</event>
<event>
 4    1  0.2451537E+000  0.5301109E+02  0.7957747E-01  0.1429746E+00
         13   -1    0    0    0    0  0.00000000000E+00  0.00000000000E+00  0.99999944176E+02  0.99999999996E+02  0.10566000000E+00 0.  1.
         22   -1    0    0    0    0 -0.00000000000E+00 -0.00000000000E+00 -0.24640682706E+02  0.24640682706E+02  0.00000000000E+00 0. -1.
         13    1    1    2    0    0  0.13020819685E+02 -0.11858915961E+02 -0.12798999810E+02  0.21771568460E+02  0.10566000000E+00 0. -1.
        996    1    1    2    0    0 -0.13020819685E+02  0.11858915961E+02  0.88158261280E+02  0.10286911424E+03  0.50000000000E+02 0.  0.
<mgrwt>
<rscale>  0 0.53011090E+02</rscale>
<asrwt>0</asrwt>
<pdfrwt beam="1">  1       13 0.10000000E+01 0.53011090E+02</pdfrwt>
<pdfrwt beam="2">  1       22 0.24640704E+00 0.53011090E+02</pdfrwt>
<totfact> 0.30378718E-01</totfact>
</mgrwt>
</event>
<event>
 4    1  0.2451537E+000  0.8180984E+02  0.7957747E-01  0.1323992E+00
         13   -1    0    0    0    0  0.00000000000E+00  0.00000000000E+00  0.99999944186E+02  0.10000000001E+03  0.10566000000E+00 0. -1.
         22   -1    0    0    0    0 -0.00000000000E+00 -0.00000000000E+00 -0.66876135684E+02  0.66876135684E+02  0.00000000000E+00 0.  1.
         13    1    1    2    0    0 -0.64500369204E+02 -0.57054627190E+01 -0.21818212320E+02  0.68329316440E+02  0.10566000000E+00 0.  1.
        996    1    1    2    0    0  0.64500369204E+02  0.57054627190E+01  0.54942020822E+02  0.98546819250E+02  0.50000000000E+02 0.  0.
<mgrwt>
<rscale>  0 0.81809840E+02</rscale>
<asrwt>0</asrwt>
<pdfrwt beam="1">  1       13 0.10000000E+01 0.81809840E+02</pdfrwt>
<pdfrwt beam="2">  1       22 0.66876145E+00 0.81809840E+02</pdfrwt>
<totfact> 0.86497687E-02</totfact>
</mgrwt>
</event>
<event>
 4    1  0.2451537E+000  0.5179099E+02  0.7957747E-01  0.1435914E+00
         13   -1    0    0    0    0  0.00000000000E+00  0.00000000000E+00  0.99999944174E+02  0.99999999994E+02  0.10566000000E+00 0. -1.
         22   -1    0    0    0    0 -0.00000000000E+00 -0.00000000000E+00 -0.26523275703E+02  0.26523275703E+02  0.00000000000E+00 0.  1.
         13    1    1    2    0    0 -0.12918845477E+02  0.39255643678E+01 -0.17339788668E+02  0.21976943808E+02  0.10566000000E+00 0.  1.
        996    1    1    2    0    0  0.12918845477E+02 -0.39255643678E+01  0.90816457139E+02  0.10454633189E+03  0.50000000000E+02 0.  0.
<mgrwt>
<rscale>  0 0.51790990E+02</rscale>
<asrwt>0</asrwt>
<pdfrwt beam="1">  1       13 0.10000000E+01 0.51790990E+02</pdfrwt>
<pdfrwt beam="2">  1       22 0.26523296E+00 0.51790990E+02</pdfrwt>
<totfact> 0.26233931E-01</totfact>
</mgrwt>
</event>
<event>
 4    1  0.2451537E+000  0.5596010E+02  0.7957747E-01  0.1415612E+00
         13   -1    0    0    0    0  0.00000000000E+00  0.00000000000E+00  0.99999944179E+02  0.99999999999E+02  0.10566000000E+00 0. -1.
         22   -1    0    0    0    0 -0.00000000000E+00 -0.00000000000E+00 -0.30011839961E+02  0.30011839961E+02  0.00000000000E+00 0.  1.
         13    1    1    2    0    0  0.75539640692E+00  0.25118971428E+02 -0.14243000942E+02  0.28886114124E+02  0.10566000000E+00 0.  1.
        996    1    1    2    0    0 -0.75539640692E+00 -0.25118971428E+02  0.84231105160E+02  0.10112572584E+03  0.50000000000E+02 0.  0.
<mgrwt>
<rscale>  0 0.55960105E+02</rscale>
<asrwt>0</asrwt>
<pdfrwt beam="1">  1       13 0.10000000E+01 0.55960105E+02</pdfrwt>
<pdfrwt beam="2">  1       22 0.30011860E+00 0.55960105E+02</pdfrwt>
<totfact> 0.20791923E-01</totfact>
</mgrwt>
</event>
<event>
 4    1  0.2451537E+000  0.5107304E+02  0.7957747E-01  0.1439638E+00
         13   -1    0    0    0    0  0.00000000000E+00  0.00000000000E+00  0.99999944187E+02  0.10000000001E+03  0.10566000000E+00 0.  1.
         22   -1    0    0    0    0 -0.00000000000E+00 -0.00000000000E+00 -0.10276626029E+02  0.10276626029E+02  0.00000000000E+00 0.  1.
         13    1    1    2    0    0  0.89375301944E+01  0.53456215743E+01  0.29656086133E+02  0.31431667547E+02  0.10566000000E+00 0. -1.
        996    1    1    2    0    0 -0.89375301944E+01 -0.53456215743E+01  0.60067232025E+02  0.78844958489E+02  0.50000000000E+02 0.  0.
<mgrwt>
<rscale>  0 0.51073037E+02</rscale>
<asrwt>0</asrwt>
<pdfrwt beam="1">  1       13 0.10000000E+01 0.51073037E+02</pdfrwt>
<pdfrwt beam="2">  1       22 0.10276651E+00 0.51073037E+02</pdfrwt>
<totfact> 0.13519405E+00</totfact>
</mgrwt>
</event>
<event>
 4    1  0.2451537E+000  0.5146648E+02  0.7957747E-01  0.1437589E+00
         13   -1    0    0    0    0  0.00000000000E+00  0.00000000000E+00  0.99999944185E+02  0.10000000001E+03  0.10566000000E+00 0.  1.
         22   -1    0    0    0    0 -0.00000000000E+00 -0.00000000000E+00 -0.42693038215E+02  0.42693038215E+02  0.00000000000E+00 0.  1.
         13    1    1    2    0    0  0.88098724993E+01  0.84371277962E+01 -0.34968575447E+02  0.37035272535E+02  0.10566000000E+00 0. -1.
        996    1    1    2    0    0 -0.88098724993E+01 -0.84371277962E+01  0.92275481417E+02  0.10565776569E+03  0.50000000000E+02 0.  0.
<mgrwt>
<rscale>  0 0.51466484E+02</rscale>
<asrwt>0</asrwt>
<pdfrwt beam="1">  1       13 0.10000000E+01 0.51466484E+02</pdfrwt>
<pdfrwt beam="2">  1       22 0.42693054E+00 0.51466484E+02</pdfrwt>
<totfact> 0.10855906E-01</totfact>
</mgrwt>
</event>
<event>
 4    1  0.2451537E+000  0.5247581E+02  0.7957747E-01  0.1432427E+00
         13   -1    0    0    0    0  0.00000000000E+00  0.00000000000E+00  0.99999944178E+02  0.99999999998E+02  0.10566000000E+00 0.  1.
         22   -1    0    0    0    0 -0.00000000000E+00 -0.00000000000E+00 -0.11736420974E+02  0.11736420974E+02  0.00000000000E+00 0.  1.
         13    1    1    2    0    0 -0.12535839791E+02  0.98266686242E+01  0.17923086680E+02  0.23978300517E+02  0.10566000000E+00 0. -1.
        996    1    1    2    0    0  0.12535839791E+02 -0.98266686242E+01  0.70340436524E+02  0.87758120456E+02  0.50000000000E+02 0.  0.
<mgrwt>
<rscale>  0 0.52475811E+02</rscale>
<asrwt>0</asrwt>
<pdfrwt beam="1">  1       13 0.10000000E+01 0.52475811E+02</pdfrwt>
<pdfrwt beam="2">  1       22 0.11736446E+00 0.52475811E+02</pdfrwt>
<totfact> 0.11131671E+00</totfact>
</mgrwt>
</event>
<event>
 4    1  0.2451537E+000  0.5182352E+02  0.7957747E-01  0.1435747E+00
         13   -1    0    0    0    0  0.00000000000E+00  0.00000000000E+00  0.99999944182E+02  0.10000000000E+03  0.10566000000E+00 0. -1.
         22   -1    0    0    0    0 -0.00000000000E+00 -0.00000000000E+00 -0.19563753878E+02  0.19563753878E+02  0.00000000000E+00 0.  1.
         13    1    1    2    0    0 -0.12714242910E+02 -0.49015293558E+01 -0.89061440699E+01  0.16279051847E+02  0.10566000000E+00 0.  1.
        996    1    1    2    0    0  0.12714242910E+02  0.49015293558E+01  0.89342334374E+02  0.10328470203E+03  0.50000000000E+02 0.  0.
<mgrwt>
<rscale>  0 0.51823517E+02</rscale>
<asrwt>0</asrwt>
<pdfrwt beam="1">  1       13 0.10000000E+01 0.51823517E+02</pdfrwt>
<pdfrwt beam="2">  1       22 0.19563776E+00 0.51823517E+02</pdfrwt>
<totfact> 0.47187906E-01</totfact>
</mgrwt>
</event>
<event>
 4    1  0.2451537E+000  0.5127488E+02  0.7957747E-01  0.1438584E+00
         13   -1    0    0    0    0  0.00000000000E+00  0.00000000000E+00  0.99999944182E+02  0.10000000000E+03  0.10566000000E+00 0. -1.
         22   -1    0    0    0    0 -0.00000000000E+00 -0.00000000000E+00 -0.15090572722E+02  0.15090572722E+02  0.00000000000E+00 0. -1.
         13    1    1    2    0    0  0.81328473872E+01  0.79353888911E+01 -0.43373676927E+01  0.12162957125E+02  0.10566000000E+00 0.  1.
        996    1    1    2    0    0 -0.81328473872E+01 -0.79353888911E+01  0.89246739154E+02  0.10292761560E+03  0.50000000000E+02 0.  0.
<mgrwt>
<rscale>  0 0.51274883E+02</rscale>
<asrwt>0</asrwt>
<pdfrwt beam="1">  1       13 0.10000000E+01 0.51274883E+02</pdfrwt>
<pdfrwt beam="2">  1       22 0.15090596E+00 0.51274883E+02</pdfrwt>
<totfact> 0.74429699E-01</totfact>
</mgrwt>
</event>
<event>
 4    1  0.2451537E+000  0.5197202E+02  0.7957747E-01  0.1434986E+00
         13   -1    0    0    0    0  0.00000000000E+00  0.00000000000E+00  0.99999944169E+02  0.99999999989E+02  0.10566000000E+00 0. -1.
         22   -1    0    0    0    0 -0.00000000000E+00 -0.00000000000E+00 -0.20386879801E+02  0.20386879801E+02  0.00000000000E+00 0.  1.
         13    1    1    2    0    0 -0.64467028351E+01  0.12630554187E+02 -0.96101128473E+01  0.17130566526E+02  0.10566000000E+00 0.  1.
        996    1    1    2    0    0  0.64467028351E+01 -0.12630554187E+02  0.89223177216E+02  0.10325631326E+03  0.50000000000E+02 0.  0.
<mgrwt>
<rscale>  0 0.51972020E+02</rscale>
<asrwt>0</asrwt>
<pdfrwt beam="1">  1       13 0.10000000E+01 0.51972020E+02</pdfrwt>
<pdfrwt beam="2">  1       22 0.20386902E+00 0.51972020E+02</pdfrwt>
<totfact> 0.43709757E-01</totfact>
</mgrwt>
</event>
<event>
 4    1  0.2451537E+000  0.5309154E+02  0.7957747E-01  0.1429346E+00
         13   -1    0    0    0    0  0.00000000000E+00  0.00000000000E+00  0.99999944181E+02  0.10000000000E+03  0.10566000000E+00 0.  1.
         22   -1    0    0    0    0 -0.00000000000E+00 -0.00000000000E+00 -0.12658278522E+02  0.12658278522E+02  0.00000000000E+00 0. -1.
         13    1    1    2    0    0  0.13467001808E+02 -0.11719714755E+02  0.25889174831E+02  0.31447931396E+02  0.10566000000E+00 0. -1.
        996    1    1    2    0    0 -0.13467001808E+02  0.11719714755E+02  0.61452490828E+02  0.81210347127E+02  0.50000000000E+02 0.  0.
<mgrwt>
<rscale>  0 0.53091542E+02</rscale>
<asrwt>0</asrwt>
<pdfrwt beam="1">  1       13 0.10000000E+01 0.53091542E+02</pdfrwt>
<pdfrwt beam="2">  1       22 0.12658303E+00 0.53091542E+02</pdfrwt>
<totfact> 0.99209323E-01</totfact>
</mgrwt>
</event>
<event>
 4    1  0.2451537E+000  0.5332733E+02  0.7957747E-01  0.1428179E+00
         13   -1    0    0    0    0  0.00000000000E+00  0.00000000000E+00  0.99999944178E+02  0.99999999998E+02  0.10566000000E+00 0. -1.
         22   -1    0    0    0    0 -0.00000000000E+00 -0.00000000000E+00 -0.26481851731E+02  0.26481851731E+02  0.00000000000E+00 0.  1.
         13    1    1    2    0    0 -0.14589655014E+02 -0.11443173881E+02 -0.14520880373E+02  0.23551462645E+02  0.10566000000E+00 0.  1.
        996    1    1    2    0    0  0.14589655014E+02  0.11443173881E+02  0.88038972820E+02  0.10293038908E+03  0.50000000000E+02 0.  0.
<mgrwt>
<rscale>  0 0.53327331E+02</rscale>
<asrwt>0</asrwt>
<pdfrwt beam="1">  1       13 0.10000000E+01 0.53327331E+02</pdfrwt>
<pdfrwt beam="2">  1       22 0.26481872E+00 0.53327331E+02</pdfrwt>
<totfact> 0.26374552E-01</totfact>
</mgrwt>
</event>
<event>
 4    1  0.2451537E+000  0.5316257E+02  0.7957747E-01  0.1428994E+00
         13   -1    0    0    0    0  0.00000000000E+00  0.00000000000E+00  0.99999944175E+02  0.99999999995E+02  0.10566000000E+00 0. -1.
         22   -1    0    0    0    0 -0.00000000000E+00 -0.00000000000E+00 -0.14828993233E+02  0.14828993233E+02  0.00000000000E+00 0.  1.
         13    1    1    2    0    0 -0.63552191606E+01 -0.16907690643E+02  0.51941974213E+01  0.18794937199E+02  0.10566000000E+00 0.  1.
        996    1    1    2    0    0  0.63552191606E+01  0.16907690643E+02  0.79976753521E+02  0.96034056028E+02  0.50000000000E+02 0.  0.
<mgrwt>
<rscale>  0 0.53162570E+02</rscale>
<asrwt>0</asrwt>
<pdfrwt beam="1">  1       13 0.10000000E+01 0.53162570E+02</pdfrwt>
<pdfrwt beam="2">  1       22 0.14829017E+00 0.53162570E+02</pdfrwt>
<totfact> 0.76921621E-01</totfact>
</mgrwt>
</event>
<event>
 4    1  0.2451537E+000  0.6797385E+02  0.7957747E-01  0.1367122E+00
         13   -1    0    0    0    0  0.00000000000E+00  0.00000000000E+00  0.99999944176E+02  0.99999999996E+02  0.10566000000E+00 0.  1.
         22   -1    0    0    0    0 -0.00000000000E+00 -0.00000000000E+00 -0.47245809998E+02  0.47245809998E+02  0.00000000000E+00 0. -1.
         13    1    1    2    0    0  0.32095774694E+02 -0.33019778819E+02 -0.17712723250E+02  0.49337574681E+02  0.10566000000E+00 0. -1.
        996    1    1    2    0    0 -0.32095774694E+02  0.33019778819E+02  0.70466857428E+02  0.97908235313E+02  0.50000000000E+02 0.  0.
<mgrwt>
<rscale>  0 0.67973852E+02</rscale>
<asrwt>0</asrwt>
<pdfrwt beam="1">  1       13 0.10000000E+01 0.67973852E+02</pdfrwt>
<pdfrwt beam="2">  1       22 0.47245825E+00 0.67973852E+02</pdfrwt>
<totfact> 0.86352439E-02</totfact>
</mgrwt>
</event>
<event>
 4    1  0.2451537E+000  0.5203790E+02  0.7957747E-01  0.1434650E+00
         13   -1    0    0    0    0  0.00000000000E+00  0.00000000000E+00  0.99999944179E+02  0.10000000000E+03  0.10566000000E+00 0.  1.
         22   -1    0    0    0    0 -0.00000000000E+00 -0.00000000000E+00 -0.15725974801E+02  0.15725974801E+02  0.00000000000E+00 0.  1.
         13    1    1    2    0    0  0.21518249282E+01  0.14258759893E+02 -0.24111820831E+01  0.14620791609E+02  0.10566000000E+00 0. -1.
        996    1    1    2    0    0 -0.21518249282E+01 -0.14258759893E+02  0.86685151462E+02  0.10110518319E+03  0.50000000000E+02 0.  0.
<mgrwt>
<rscale>  0 0.52037896E+02</rscale>
<asrwt>0</asrwt>
<pdfrwt beam="1">  1       13 0.10000000E+01 0.52037896E+02</pdfrwt>
<pdfrwt beam="2">  1       22 0.15725998E+00 0.52037896E+02</pdfrwt>
<totfact> 0.69546768E-01</totfact>
</mgrwt>
</event>
<event>
 4    1  0.2451537E+000  0.5102768E+02  0.7957747E-01  0.1439876E+00
         13   -1    0    0    0    0  0.00000000000E+00  0.00000000000E+00  0.99999944179E+02  0.99999999999E+02  0.10566000000E+00 0. -1.
         22   -1    0    0    0    0 -0.00000000000E+00 -0.00000000000E+00 -0.46840658860E+02  0.46840658860E+02  0.00000000000E+00 0.  1.
         13    1    1    2    0    0  0.10135784567E+02  0.10438725443E+01 -0.39644596618E+02  0.40933226158E+02  0.10566000000E+00 0.  1.
        996    1    1    2    0    0 -0.10135784567E+02 -0.10438725443E+01  0.92803881937E+02  0.10590743270E+03  0.50000000000E+02 0.  0.
<mgrwt>
<rscale>  0 0.51027677E+02</rscale>
<asrwt>0</asrwt>
<pdfrwt beam="1">  1       13 0.10000000E+01 0.51027677E+02</pdfrwt>
<pdfrwt beam="2">  1       22 0.46840674E+00 0.51027677E+02</pdfrwt>
<totfact> 0.87586632E-02</totfact>
</mgrwt>
</event>
<event>
 4    1  0.2451537E+000  0.5182533E+02  0.7957747E-01  0.1435738E+00
         13   -1    0    0    0    0  0.00000000000E+00  0.00000000000E+00  0.99999944183E+02  0.10000000000E+03  0.10566000000E+00 0.  1.
         22   -1    0    0    0    0 -0.00000000000E+00 -0.00000000000E+00 -0.11525750800E+02  0.11525750800E+02  0.00000000000E+00 0.  1.
         13    1    1    2    0    0  0.84177274904E+01 -0.10724099282E+02  0.79994992856E+01  0.15807200712E+02  0.10566000000E+00 0. -1.
        996    1    1    2    0    0 -0.84177274904E+01  0.10724099282E+02  0.80474694097E+02  0.95718550091E+02  0.50000000000E+02 0.  0.
<mgrwt>
<rscale>  0 0.51825326E+02</rscale>
<asrwt>0</asrwt>
<pdfrwt beam="1">  1       13 0.10000000E+01 0.51825326E+02</pdfrwt>
<pdfrwt beam="2">  1       22 0.11525775E+00 0.51825326E+02</pdfrwt>
<totfact> 0.11424407E+00</totfact>
</mgrwt>
</event>
<event>
 4    1  0.2451537E+000  0.5377007E+02  0.7957747E-01  0.1426006E+00
         13   -1    0    0    0    0  0.00000000000E+00  0.00000000000E+00  0.99999944178E+02  0.99999999999E+02  0.10566000000E+00 0.  1.
         22   -1    0    0    0    0 -0.00000000000E+00 -0.00000000000E+00 -0.15600459094E+02  0.15600459094E+02  0.00000000000E+00 0.  1.
         13    1    1    2    0    0  0.10118886187E+02  0.16994968351E+02  0.62573441459E+01  0.20745754426E+02  0.10566000000E+00 0. -1.
        996    1    1    2    0    0 -0.10118886187E+02 -0.16994968351E+02  0.78142140938E+02  0.94854704666E+02  0.50000000000E+02 0.  0.
<mgrwt>
<rscale>  0 0.53770074E+02</rscale>
<asrwt>0</asrwt>
<pdfrwt beam="1">  1       13 0.10000000E+01 0.53770074E+02</pdfrwt>
<pdfrwt beam="2">  1       22 0.15600483E+00 0.53770074E+02</pdfrwt>
<totfact> 0.70739212E-01</totfact>
</mgrwt>
</event>
<event>
 4    1  0.2451537E+000  0.5206610E+02  0.7957747E-01  0.1434506E+00
         13   -1    0    0    0    0  0.00000000000E+00  0.00000000000E+00  0.99999944174E+02  0.99999999995E+02  0.10566000000E+00 0.  1.
         22   -1    0    0    0    0 -0.00000000000E+00 -0.00000000000E+00 -0.28018729895E+02  0.28018729895E+02  0.00000000000E+00 0. -1.
         13    1    1    2    0    0  0.14496114854E+02 -0.86129453581E+00 -0.18565059071E+02  0.23570145449E+02  0.10566000000E+00 0. -1.
        996    1    1    2    0    0 -0.14496114854E+02  0.86129453581E+00  0.90546273350E+02  0.10444858444E+03  0.50000000000E+02 0.  0.
<mgrwt>
<rscale>  0 0.52066104E+02</rscale>
<asrwt>0</asrwt>
<pdfrwt beam="1">  1       13 0.10000000E+01 0.52066104E+02</pdfrwt>
<pdfrwt beam="2">  1       22 0.28018750E+00 0.52066104E+02</pdfrwt>
<totfact> 0.23582490E-01</totfact>
</mgrwt>
</event>
<event>
 4    1  0.2451537E+000  0.5943571E+02  0.7957747E-01  0.1400215E+00
         13   -1    0    0    0    0  0.00000000000E+00  0.00000000000E+00  0.99999944171E+02  0.99999999991E+02  0.10566000000E+00 0. -1.
         22   -1    0    0    0    0 -0.00000000000E+00 -0.00000000000E+00 -0.21769032048E+02  0.21769032048E+02  0.00000000000E+00 0.  1.
         13    1    1    2    0    0 -0.18123271602E+02 -0.26535840483E+02  0.16679966866E+02  0.36205472823E+02  0.10566000000E+00 0.  1.
        996    1    1    2    0    0  0.18123271602E+02  0.26535840483E+02  0.61550945257E+02  0.85563559216E+02  0.50000000000E+02 0.  0.
<mgrwt>
<rscale>  0 0.59435712E+02</rscale>
<asrwt>0</asrwt>
<pdfrwt beam="1">  1       13 0.10000000E+01 0.59435712E+02</pdfrwt>
<pdfrwt beam="2">  1       22 0.21769054E+00 0.59435712E+02</pdfrwt>
<totfact> 0.39055718E-01</totfact>
</mgrwt>
</event>
<event>
 4    1  0.2451537E+000  0.5115111E+02  0.7957747E-01  0.1439230E+00
         13   -1    0    0    0    0  0.00000000000E+00  0.00000000000E+00  0.99999944177E+02  0.99999999997E+02  0.10566000000E+00 0.  1.
         22   -1    0    0    0    0 -0.00000000000E+00 -0.00000000000E+00 -0.19452600235E+02  0.19452600235E+02  0.00000000000E+00 0.  1.
         13    1    1    2    0    0 -0.10774521088E+02  0.58760692306E+00 -0.10477110792E+02  0.15040498701E+02  0.10566000000E+00 0. -1.
        996    1    1    2    0    0  0.10774521088E+02 -0.58760692306E+00  0.91024454734E+02  0.10441210153E+03  0.50000000000E+02 0.  0.
<mgrwt>
<rscale>  0 0.51151105E+02</rscale>
<asrwt>0</asrwt>
<pdfrwt beam="1">  1       13 0.10000000E+01 0.51151105E+02</pdfrwt>
<pdfrwt beam="2">  1       22 0.19452623E+00 0.51151105E+02</pdfrwt>
<totfact> 0.47628638E-01</totfact>
</mgrwt>
</event>
<event>
 4    1  0.2451537E+000  0.5100394E+02  0.7957747E-01  0.1440001E+00
         13   -1    0    0    0    0  0.00000000000E+00  0.00000000000E+00  0.99999944177E+02  0.99999999997E+02  0.10566000000E+00 0.  1.
         22   -1    0    0    0    0 -0.00000000000E+00 -0.00000000000E+00 -0.13981690028E+02  0.13981690028E+02  0.00000000000E+00 0.  1.
         13    1    1    2    0    0  0.17079147149E+01 -0.99239376661E+01 -0.37415693600E+01  0.10742998501E+02  0.10566000000E+00 0. -1.
        996    1    1    2    0    0 -0.17079147149E+01  0.99239376661E+01  0.89759823508E+02  0.10323869152E+03  0.50000000000E+02 0.  0.
<mgrwt>
<rscale>  0 0.51003936E+02</rscale>
<asrwt>0</asrwt>
<pdfrwt beam="1">  1       13 0.10000000E+01 0.51003936E+02</pdfrwt>
<pdfrwt beam="2">  1       22 0.13981714E+00 0.51003936E+02</pdfrwt>
<totfact> 0.84327925E-01</totfact>
</mgrwt>
</event>
<event>
 4    1  0.2451537E+000  0.5146256E+02  0.7957747E-01  0.1437609E+00
         13   -1    0    0    0    0  0.00000000000E+00  0.00000000000E+00  0.99999944176E+02  0.99999999996E+02  0.10566000000E+00 0.  1.
         22   -1    0    0    0    0 -0.00000000000E+00 -0.00000000000E+00 -0.24629925233E+02  0.24629925233E+02  0.00000000000E+00 0. -1.
         13    1    1    2    0    0 -0.12133986054E+02 -0.10777382752E+01 -0.15792213690E+02  0.19944932054E+02  0.10566000000E+00 0. -1.
        996    1    1    2    0    0  0.12133986054E+02  0.10777382752E+01  0.91162232634E+02  0.10468499318E+03  0.50000000000E+02 0.  0.
<mgrwt>
<rscale>  0 0.51462561E+02</rscale>
<asrwt>0</asrwt>
<pdfrwt beam="1">  1       13 0.10000000E+01 0.51462561E+02</pdfrwt>
<pdfrwt beam="2">  1       22 0.24629946E+00 0.51462561E+02</pdfrwt>
<totfact> 0.30330521E-01</totfact>
</mgrwt>
</event>
<event>
 4    1  0.2451537E+000  0.5953268E+02  0.7957747E-01  0.1399803E+00
         13   -1    0    0    0    0  0.00000000000E+00  0.00000000000E+00  0.99999944180E+02  0.10000000000E+03  0.10566000000E+00 0.  1.
         22   -1    0    0    0    0 -0.00000000000E+00 -0.00000000000E+00 -0.29111006836E+02  0.29111006836E+02  0.00000000000E+00 0.  1.
         13    1    1    2    0    0 -0.18877383458E+02  0.26225653912E+02 -0.49570326598E+01  0.32691342373E+02  0.10566000000E+00 0. -1.
        996    1    1    2    0    0  0.18877383458E+02 -0.26225653912E+02  0.75845970004E+02  0.96419664463E+02  0.50000000000E+02 0.  0.
<mgrwt>
<rscale>  0 0.59532685E+02</rscale>
<asrwt>0</asrwt>
<pdfrwt beam="1">  1       13 0.10000000E+01 0.59532685E+02</pdfrwt>
<pdfrwt beam="2">  1       22 0.29111027E+00 0.59532685E+02</pdfrwt>
<totfact> 0.22122549E-01</totfact>
</mgrwt>
</event>
<event>
 4    1  0.2451537E+000  0.5136659E+02  0.7957747E-01  0.1438107E+00
         13   -1    0    0    0    0  0.00000000000E+00  0.00000000000E+00  0.99999944181E+02  0.10000000000E+03  0.10566000000E+00 0.  1.
         22   -1    0    0    0    0 -0.00000000000E+00 -0.00000000000E+00 -0.10381755063E+02  0.10381755063E+02  0.00000000000E+00 0.  1.
         13    1    1    2    0    0 -0.91548581755E+01 -0.73969447203E+01  0.26551200806E+02  0.29043134261E+02  0.10566000000E+00 0. -1.
        996    1    1    2    0    0  0.91548581755E+01  0.73969447203E+01  0.63066988312E+02  0.81338620803E+02  0.50000000000E+02 0.  0.
<mgrwt>
<rscale>  0 0.51366587E+02</rscale>
<asrwt>0</asrwt>
<pdfrwt beam="1">  1       13 0.10000000E+01 0.51366587E+02</pdfrwt>
<pdfrwt beam="2">  1       22 0.10381780E+00 0.51366587E+02</pdfrwt>
<totfact> 0.13329302E+00</totfact>
</mgrwt>
</event>
<event>
 4    1  0.2451537E+000  0.6584057E+02  0.7957747E-01  0.1374837E+00
         13   -1    0    0    0    0  0.00000000000E+00  0.00000000000E+00  0.99999944176E+02  0.99999999996E+02  0.10566000000E+00 0. -1.
         22   -1    0    0    0    0 -0.00000000000E+00 -0.00000000000E+00 -0.33288927502E+02  0.33288927502E+02  0.00000000000E+00 0.  1.
         13    1    1    2    0    0 -0.20264582701E+02  0.37740269153E+02  0.49047273291E+02  0.65120099885E+02  0.10566000000E+00 0.  1.
        996    1    1    2    0    0  0.20264582701E+02 -0.37740269153E+02  0.17663743384E+02  0.68168827613E+02  0.50000000000E+02 0.  0.
<mgrwt>
<rscale>  0 0.65840574E+02</rscale>
<asrwt>0</asrwt>
<pdfrwt beam="1">  1       13 0.10000000E+01 0.65840574E+02</pdfrwt>
<pdfrwt beam="2">  1       22 0.33288946E+00 0.65840574E+02</pdfrwt>
<totfact> 0.17392219E-01</totfact>
</mgrwt>
</event>
<event>
 4    1  0.2451537E+000  0.5155980E+02  0.7957747E-01  0.1437106E+00
         13   -1    0    0    0    0  0.00000000000E+00  0.00000000000E+00  0.99999944180E+02  0.10000000000E+03  0.10566000000E+00 0.  1.
         22   -1    0    0    0    0 -0.00000000000E+00 -0.00000000000E+00 -0.12496039825E+02  0.12496039825E+02  0.00000000000E+00 0.  1.
         13    1    1    2    0    0 -0.12393855926E+02  0.21921280551E+01  0.21369922120E+01  0.12766792466E+02  0.10566000000E+00 0. -1.
        996    1    1    2    0    0  0.12393855926E+02 -0.21921280551E+01  0.85366912143E+02  0.99729247360E+02  0.50000000000E+02 0.  0.
<mgrwt>
<rscale>  0 0.51559801E+02</rscale>
<asrwt>0</asrwt>
<pdfrwt beam="1">  1       13 0.10000000E+01 0.51559801E+02</pdfrwt>
<pdfrwt beam="2">  1       22 0.12496064E+00 0.51559801E+02</pdfrwt>
<totfact> 0.10088498E+00</totfact>
</mgrwt>
</event>
<event>
 4    1  0.2451537E+000  0.5325352E+02  0.7957747E-01  0.1428543E+00
         13   -1    0    0    0    0  0.00000000000E+00  0.00000000000E+00  0.99999944182E+02  0.10000000000E+03  0.10566000000E+00 0. -1.
         22   -1    0    0    0    0 -0.00000000000E+00 -0.00000000000E+00 -0.18896292707E+02  0.18896292707E+02  0.00000000000E+00 0.  1.
         13    1    1    2    0    0 -0.44408830254E+01  0.17782452344E+02 -0.37571452109E+01  0.18710006884E+02  0.10566000000E+00 0.  1.
        996    1    1    2    0    0  0.44408830254E+01 -0.17782452344E+02  0.84860796685E+02  0.10018628583E+03  0.50000000000E+02 0.  0.
<mgrwt>
<rscale>  0 0.53253517E+02</rscale>
<asrwt>0</asrwt>
<pdfrwt beam="1">  1       13 0.10000000E+01 0.53253517E+02</pdfrwt>
<pdfrwt beam="2">  1       22 0.18896315E+00 0.53253517E+02</pdfrwt>
<totfact> 0.50429614E-01</totfact>
</mgrwt>
</event>
<event>
 4    1  0.2451537E+000  0.5117093E+02  0.7957747E-01  0.1439126E+00
         13   -1    0    0    0    0  0.00000000000E+00  0.00000000000E+00  0.99999944181E+02  0.10000000000E+03  0.10566000000E+00 0. -1.
         22   -1    0    0    0    0 -0.00000000000E+00 -0.00000000000E+00 -0.44235766562E+02  0.44235766562E+02  0.00000000000E+00 0.  1.
         13    1    1    2    0    0 -0.78214546839E+01 -0.75689553611E+01 -0.36850762481E+02  0.38424654821E+02  0.10566000000E+00 0.  1.
        996    1    1    2    0    0  0.78214546839E+01  0.75689553611E+01  0.92614940100E+02  0.10581111174E+03  0.50000000000E+02 0.  0.
<mgrwt>
<rscale>  0 0.51170932E+02</rscale>
<asrwt>0</asrwt>
<pdfrwt beam="1">  1       13 0.10000000E+01 0.51170932E+02</pdfrwt>
<pdfrwt beam="2">  1       22 0.44235782E+00 0.51170932E+02</pdfrwt>
<totfact> 0.10044854E-01</totfact>
</mgrwt>
</event>
<event>
 4    1  0.2451537E+000  0.5191049E+02  0.7957747E-01  0.1435301E+00
         13   -1    0    0    0    0  0.00000000000E+00  0.00000000000E+00  0.99999944178E+02  0.99999999998E+02  0.10566000000E+00 0. -1.
         22   -1    0    0    0    0 -0.00000000000E+00 -0.00000000000E+00 -0.14420984498E+02  0.14420984498E+02  0.00000000000E+00 0.  1.
         13    1    1    2    0    0 -0.12371464328E+02  0.64533299777E+01 -0.43042461405E+00  0.13960480895E+02  0.10566000000E+00 0.  1.
        996    1    1    2    0    0  0.12371464328E+02 -0.64533299777E+01  0.86009384294E+02  0.10046050360E+03  0.50000000000E+02 0.  0.
<mgrwt>
<rscale>  0 0.51910486E+02</rscale>
<asrwt>0</asrwt>
<pdfrwt beam="1">  1       13 0.10000000E+01 0.51910486E+02</pdfrwt>
<pdfrwt beam="2">  1       22 0.14421008E+00 0.51910486E+02</pdfrwt>
<totfact> 0.80337119E-01</totfact>
</mgrwt>
</event>
<event>
 4    1  0.2451537E+000  0.5954711E+02  0.7957747E-01  0.1399742E+00
         13   -1    0    0    0    0  0.00000000000E+00  0.00000000000E+00  0.99999944171E+02  0.99999999991E+02  0.10566000000E+00 0.  1.
         22   -1    0    0    0    0 -0.00000000000E+00 -0.00000000000E+00 -0.41174485940E+02  0.41174485940E+02  0.00000000000E+00 0. -1.
         13    1    1    2    0    0 -0.32319914258E+02  0.11318975140E+01 -0.23209127448E+02  0.39806190606E+02  0.10566000000E+00 0. -1.
        996    1    1    2    0    0  0.32319914258E+02 -0.11318975140E+01  0.82034585679E+02  0.10136829533E+03  0.50000000000E+02 0.  0.
<mgrwt>
<rscale>  0 0.59547108E+02</rscale>
<asrwt>0</asrwt>
<pdfrwt beam="1">  1       13 0.10000000E+01 0.59547108E+02</pdfrwt>
<pdfrwt beam="2">  1       22 0.41174502E+00 0.59547108E+02</pdfrwt>
<totfact> 0.11754279E-01</totfact>
</mgrwt>
</event>
<event>
 4    1  0.2451537E+000  0.5186997E+02  0.7957747E-01  0.1435509E+00
         13   -1    0    0    0    0  0.00000000000E+00  0.00000000000E+00  0.99999944175E+02  0.99999999995E+02  0.10566000000E+00 0.  1.
         22   -1    0    0    0    0 -0.00000000000E+00 -0.00000000000E+00 -0.10786251904E+02  0.10786251904E+02  0.00000000000E+00 0.  1.
         13    1    1    2    0    0  0.10818772278E+02 -0.85702038173E+01  0.17876100573E+02  0.22584515997E+02  0.10566000000E+00 0. -1.
        996    1    1    2    0    0 -0.10818772278E+02  0.85702038173E+01  0.71337591698E+02  0.88201735903E+02  0.50000000000E+02 0.  0.
<mgrwt>
<rscale>  0 0.51869974E+02</rscale>
<asrwt>0</asrwt>
<pdfrwt beam="1">  1       13 0.10000000E+01 0.51869974E+02</pdfrwt>
<pdfrwt beam="2">  1       22 0.10786277E+00 0.51869974E+02</pdfrwt>
<totfact> 0.12615521E+00</totfact>
</mgrwt>
</event>
<event>
 4    1  0.2451537E+000  0.5212926E+02  0.7957747E-01  0.1434184E+00
         13   -1    0    0    0    0  0.00000000000E+00  0.00000000000E+00  0.99999944179E+02  0.99999999999E+02  0.10566000000E+00 0. -1.
         22   -1    0    0    0    0 -0.00000000000E+00 -0.00000000000E+00 -0.25300323686E+02  0.25300323686E+02  0.00000000000E+00 0.  1.
         13    1    1    2    0    0  0.46819282534E+01 -0.13983520801E+02 -0.15327549318E+02  0.21269796386E+02  0.10566000000E+00 0.  1.
        996    1    1    2    0    0 -0.46819282534E+01  0.13983520801E+02  0.90027169810E+02  0.10403052730E+03  0.50000000000E+02 0.  0.
<mgrwt>
<rscale>  0 0.52129256E+02</rscale>
<asrwt>0</asrwt>
<pdfrwt beam="1">  1       13 0.10000000E+01 0.52129256E+02</pdfrwt>
<pdfrwt beam="2">  1       22 0.25300345E+00 0.52129256E+02</pdfrwt>
<totfact> 0.28800513E-01</totfact>
</mgrwt>
</event>
<event>
 4    1  0.2451537E+000  0.5500105E+02  0.7957747E-01  0.1420094E+00
         13   -1    0    0    0    0  0.00000000000E+00  0.00000000000E+00  0.99999944179E+02  0.99999999999E+02  0.10566000000E+00 0.  1.
         22   -1    0    0    0    0 -0.00000000000E+00 -0.00000000000E+00 -0.15255991207E+02  0.15255991207E+02  0.00000000000E+00 0.  1.
         13    1    1    2    0    0 -0.22911964960E+02  0.39681763561E+00  0.21244660542E+02  0.31248397849E+02  0.10566000000E+00 0. -1.
        996    1    1    2    0    0  0.22911964960E+02 -0.39681763561E+00  0.63499292430E+02  0.84007593357E+02  0.50000000000E+02 0.  0.
<mgrwt>
<rscale>  0 0.55001051E+02</rscale>
<asrwt>0</asrwt>
<pdfrwt beam="1">  1       13 0.10000000E+01 0.55001051E+02</pdfrwt>
<pdfrwt beam="2">  1       22 0.15256015E+00 0.55001051E+02</pdfrwt>
<totfact> 0.73627149E-01</totfact>
</mgrwt>
</event>
<event>
 4    1  0.2451537E+000  0.5138801E+02  0.7957747E-01  0.1437996E+00
         13   -1    0    0    0    0  0.00000000000E+00  0.00000000000E+00  0.99999944179E+02  0.99999999999E+02  0.10566000000E+00 0.  1.
         22   -1    0    0    0    0 -0.00000000000E+00 -0.00000000000E+00 -0.10743271606E+02  0.10743271606E+02  0.00000000000E+00 0.  1.
         13    1    1    2    0    0  0.12587004089E+01  0.11795895637E+02  0.70603309332E+01  0.13805322072E+02  0.10566000000E+00 0. -1.
        996    1    1    2    0    0 -0.12587004089E+01 -0.11795895637E+02  0.82196341640E+02  0.96937949533E+02  0.50000000000E+02 0.  0.
<mgrwt>
<rscale>  0 0.51388009E+02</rscale>
<asrwt>0</asrwt>
<pdfrwt beam="1">  1       13 0.10000000E+01 0.51388009E+02</pdfrwt>
<pdfrwt beam="2">  1       22 0.10743297E+00 0.51388009E+02</pdfrwt>
<totfact> 0.12675853E+00</totfact>
</mgrwt>
</event>
<event>
 4    1  0.2451537E+000  0.5201973E+02  0.7957747E-01  0.1434742E+00
         13   -1    0    0    0    0  0.00000000000E+00  0.00000000000E+00  0.99999944180E+02  0.10000000000E+03  0.10566000000E+00 0. -1.
         22   -1    0    0    0    0 -0.00000000000E+00 -0.00000000000E+00 -0.12896871739E+02  0.12896871739E+02  0.00000000000E+00 0. -1.
         13    1    1    2    0    0  0.36367941709E+01  0.13886163806E+02  0.40808104116E+01  0.14923672294E+02  0.10566000000E+00 0.  1.
        996    1    1    2    0    0 -0.36367941709E+01 -0.13886163806E+02  0.83022262029E+02  0.97973199445E+02  0.50000000000E+02 0.  0.
<mgrwt>
<rscale>  0 0.52019725E+02</rscale>
<asrwt>0</asrwt>
<pdfrwt beam="1">  1       13 0.10000000E+01 0.52019725E+02</pdfrwt>
<pdfrwt beam="2">  1       22 0.12896896E+00 0.52019725E+02</pdfrwt>
<totfact> 0.96127492E-01</totfact>
</mgrwt>
</event>
<event>
 4    1  0.2451537E+000  0.5189166E+02  0.7957747E-01  0.1435398E+00
         13   -1    0    0    0    0  0.00000000000E+00  0.00000000000E+00  0.99999944175E+02  0.99999999996E+02  0.10566000000E+00 0. -1.
         22   -1    0    0    0    0 -0.00000000000E+00 -0.00000000000E+00 -0.61308479455E+02  0.61308479455E+02  0.00000000000E+00 0.  1.
         13    1    1    2    0    0  0.10678191304E+02 -0.88724690722E+01 -0.53632677776E+02  0.55400539405E+02  0.10566000000E+00 0.  1.
        996    1    1    2    0    0 -0.10678191304E+02  0.88724690722E+01  0.92324142496E+02  0.10590794005E+03  0.50000000000E+02 0.  0.
<mgrwt>
<rscale>  0 0.51891661E+02</rscale>
<asrwt>0</asrwt>
<pdfrwt beam="1">  1       13 0.10000000E+01 0.51891661E+02</pdfrwt>
<pdfrwt beam="2">  1       22 0.61308490E+00 0.51891661E+02</pdfrwt>
<totfact> 0.69035529E-02</totfact>
</mgrwt>
</event>
<event>
 4    1  0.2451537E+000  0.5144240E+02  0.7957747E-01  0.1437713E+00
         13   -1    0    0    0    0  0.00000000000E+00  0.00000000000E+00  0.99999944175E+02  0.99999999995E+02  0.10566000000E+00 0.  1.
         22   -1    0    0    0    0 -0.00000000000E+00 -0.00000000000E+00 -0.20772030337E+02  0.20772030337E+02  0.00000000000E+00 0. -1.
         13    1    1    2    0    0  0.10391088409E+02 -0.61923976100E+01 -0.11361368316E+02  0.16595552432E+02  0.10566000000E+00 0. -1.
        996    1    1    2    0    0 -0.10391088409E+02  0.61923976100E+01  0.90589282154E+02  0.10417647790E+03  0.50000000000E+02 0.  0.
<mgrwt>
<rscale>  0 0.51442400E+02</rscale>
<asrwt>0</asrwt>
<pdfrwt beam="1">  1       13 0.10000000E+01 0.51442400E+02</pdfrwt>
<pdfrwt beam="2">  1       22 0.20772052E+00 0.51442400E+02</pdfrwt>
<totfact> 0.42156027E-01</totfact>
</mgrwt>
</event>
<event>
 4    1  0.2451537E+000  0.5138722E+02  0.7957747E-01  0.1438000E+00
         13   -1    0    0    0    0  0.00000000000E+00  0.00000000000E+00  0.99999944175E+02  0.99999999995E+02  0.10566000000E+00 0. -1.
         22   -1    0    0    0    0 -0.00000000000E+00 -0.00000000000E+00 -0.10062626249E+02  0.10062626249E+02  0.00000000000E+00 0. -1.
         13    1    1    2    0    0 -0.76753563877E+01 -0.90407729894E+01  0.20421178522E+02  0.23615299451E+02  0.10566000000E+00 0.  1.
        996    1    1    2    0    0  0.76753563877E+01  0.90407729894E+01  0.69516139404E+02  0.86447326793E+02  0.50000000000E+02 0.  0.
<mgrwt>
<rscale>  0 0.51387223E+02</rscale>
<asrwt>0</asrwt>
<pdfrwt beam="1">  1       13 0.10000000E+01 0.51387223E+02</pdfrwt>
<pdfrwt beam="2">  1       22 0.10062651E+00 0.51387223E+02</pdfrwt>
<totfact> 0.13950210E+00</totfact>
</mgrwt>
</event>
<event>
 4    1  0.2451537E+000  0.5253402E+02  0.7957747E-01  0.1432134E+00
         13   -1    0    0    0    0  0.00000000000E+00  0.00000000000E+00  0.99999944177E+02  0.99999999997E+02  0.10566000000E+00 0. -1.
         22   -1    0    0    0    0 -0.00000000000E+00 -0.00000000000E+00 -0.15798744081E+02  0.15798744081E+02  0.00000000000E+00 0.  1.
         13    1    1    2    0    0  0.11399710195E+02 -0.11396047654E+02 -0.50178373629E+00  0.16127189638E+02  0.10566000000E+00 0.  1.
        996    1    1    2    0    0 -0.11399710195E+02  0.11396047654E+02  0.84702983832E+02  0.99671554441E+02  0.50000000000E+02 0.  0.
<mgrwt>
<rscale>  0 0.52534020E+02</rscale>
<asrwt>0</asrwt>
<pdfrwt beam="1">  1       13 0.10000000E+01 0.52534020E+02</pdfrwt>
<pdfrwt beam="2">  1       22 0.15798768E+00 0.52534020E+02</pdfrwt>
<totfact> 0.69071436E-01</totfact>
</mgrwt>
</event>
<event>
 4    1  0.2451537E+000  0.6065084E+02  0.7957747E-01  0.1395121E+00
         13   -1    0    0    0    0  0.00000000000E+00  0.00000000000E+00  0.99999944183E+02  0.10000000000E+03  0.10566000000E+00 0.  1.
         22   -1    0    0    0    0 -0.00000000000E+00 -0.00000000000E+00 -0.23473729809E+02  0.23473729809E+02  0.00000000000E+00 0. -1.
         13    1    1    2    0    0  0.30443102726E+02 -0.15866358238E+02  0.16309940883E+02  0.38007225142E+02  0.10566000000E+00 0. -1.
        996    1    1    2    0    0 -0.30443102726E+02  0.15866358238E+02  0.60216273491E+02  0.85466504670E+02  0.50000000000E+02 0.  0.
<mgrwt>
<rscale>  0 0.60650835E+02</rscale>
<asrwt>0</asrwt>
<pdfrwt beam="1">  1       13 0.10000000E+01 0.60650835E+02</pdfrwt>
<pdfrwt beam="2">  1       22 0.23473751E+00 0.60650835E+02</pdfrwt>
<totfact> 0.33792734E-01</totfact>
</mgrwt>
</event>
<event>
 4    1  0.2451537E+000  0.5298400E+02  0.7957747E-01  0.1429880E+00
         13   -1    0    0    0    0  0.00000000000E+00  0.00000000000E+00  0.99999944179E+02  0.99999999999E+02  0.10566000000E+00 0.  1.
         22   -1    0    0    0    0 -0.00000000000E+00 -0.00000000000E+00 -0.14591309129E+02  0.14591309129E+02  0.00000000000E+00 0.  1.
         13    1    1    2    0    0 -0.13639798057E+02 -0.11011830996E+02  0.43942432134E+02  0.47310178807E+02  0.10566000000E+00 0. -1.
        996    1    1    2    0    0  0.13639798057E+02  0.11011830996E+02  0.41466202916E+02  0.67281130320E+02  0.50000000000E+02 0.  0.
<mgrwt>
<rscale>  0 0.52984002E+02</rscale>
<asrwt>0</asrwt>
<pdfrwt beam="1">  1       13 0.10000000E+01 0.52984002E+02</pdfrwt>
<pdfrwt beam="2">  1       22 0.14591333E+00 0.52984002E+02</pdfrwt>
<totfact> 0.78975556E-01</totfact>
</mgrwt>
</event>
<event>
 4    1  0.2451537E+000  0.5271924E+02  0.7957747E-01  0.1431203E+00
         13   -1    0    0    0    0  0.00000000000E+00  0.00000000000E+00  0.99999944178E+02  0.99999999998E+02  0.10566000000E+00 0.  1.
         22   -1    0    0    0    0 -0.00000000000E+00 -0.00000000000E+00 -0.13791109025E+02  0.13791109025E+02  0.00000000000E+00 0. -1.
         13    1    1    2    0    0  0.15064183483E+02  0.72379762178E+01  0.58992923165E+01  0.17723733738E+02  0.10566000000E+00 0. -1.
        996    1    1    2    0    0 -0.15064183483E+02 -0.72379762178E+01  0.80309542836E+02  0.96067375286E+02  0.50000000000E+02 0.  0.
<mgrwt>
<rscale>  0 0.52719237E+02</rscale>
<asrwt>0</asrwt>
<pdfrwt beam="1">  1       13 0.10000000E+01 0.52719237E+02</pdfrwt>
<pdfrwt beam="2">  1       22 0.13791133E+00 0.52719237E+02</pdfrwt>
<totfact> 0.86531820E-01</totfact>
</mgrwt>
</event>
<event>
 4    1  0.2451537E+000  0.5231124E+02  0.7957747E-01  0.1433260E+00
         13   -1    0    0    0    0  0.00000000000E+00  0.00000000000E+00  0.99999944178E+02  0.99999999998E+02  0.10566000000E+00 0. -1.
         22   -1    0    0    0    0 -0.00000000000E+00 -0.00000000000E+00 -0.14692084067E+02  0.14692084067E+02  0.00000000000E+00 0.  1.
         13    1    1    2    0    0  0.14246162401E+02 -0.57889830281E+01  0.91942256464E+00  0.15405257854E+02  0.10566000000E+00 0.  1.
        996    1    1    2    0    0 -0.14246162401E+02  0.57889830281E+01  0.84388437547E+02  0.99286826212E+02  0.50000000000E+02 0.  0.
<mgrwt>
<rscale>  0 0.52311237E+02</rscale>
<asrwt>0</asrwt>
<pdfrwt beam="1">  1       13 0.10000000E+01 0.52311237E+02</pdfrwt>
<pdfrwt beam="2">  1       22 0.14692108E+00 0.52311237E+02</pdfrwt>
<totfact> 0.77976952E-01</totfact>
</mgrwt>
</event>
<event>
 4    1  0.2451537E+000  0.5284424E+02  0.7957747E-01  0.1430578E+00
         13   -1    0    0    0    0  0.00000000000E+00  0.00000000000E+00  0.99999944193E+02  0.10000000001E+03  0.10566000000E+00 0. -1.
         22   -1    0    0    0    0 -0.00000000000E+00 -0.00000000000E+00 -0.67861779556E+02  0.67861779556E+02  0.00000000000E+00 0.  1.
         13    1    1    2    0    0  0.81099099256E+01 -0.15058007214E+02 -0.59592612232E+02  0.61998425923E+02  0.10566000000E+00 0.  1.
        996    1    1    2    0    0 -0.81099099256E+01  0.15058007214E+02  0.91730776868E+02  0.10586335365E+03  0.50000000000E+02 0.  0.
<mgrwt>
<rscale>  0 0.52844245E+02</rscale>
<asrwt>0</asrwt>
<pdfrwt beam="1">  1       13 0.10000000E+01 0.52844245E+02</pdfrwt>
<pdfrwt beam="2">  1       22 0.67861789E+00 0.52844245E+02</pdfrwt>
<totfact> 0.83943541E-02</totfact>
</mgrwt>
</event>
<event>
 4    1  0.2451537E+000  0.5211491E+02  0.7957747E-01  0.1434257E+00
         13   -1    0    0    0    0  0.00000000000E+00  0.00000000000E+00  0.99999944175E+02  0.99999999995E+02  0.10566000000E+00 0.  1.
         22   -1    0    0    0    0 -0.00000000000E+00 -0.00000000000E+00 -0.11187552151E+02  0.11187552151E+02  0.00000000000E+00 0.  1.
         13    1    1    2    0    0  0.47643358369E+01  0.13901986370E+02  0.17280830993E+02  0.22684849677E+02  0.10566000000E+00 0. -1.
        996    1    1    2    0    0 -0.47643358369E+01 -0.13901986370E+02  0.71531561030E+02  0.88502702470E+02  0.50000000000E+02 0.  0.
<mgrwt>
<rscale>  0 0.52114913E+02</rscale>
<asrwt>0</asrwt>
<pdfrwt beam="1">  1       13 0.10000000E+01 0.52114913E+02</pdfrwt>
<pdfrwt beam="2">  1       22 0.11187577E+00 0.52114913E+02</pdfrwt>
<totfact> 0.11955131E+00</totfact>
</mgrwt>
</event>
<event>
 4    1  0.2451537E+000  0.5384529E+02  0.7957747E-01  0.1425640E+00
         13   -1    0    0    0    0  0.00000000000E+00  0.00000000000E+00  0.99999944176E+02  0.99999999996E+02  0.10566000000E+00 0.  1.
         22   -1    0    0    0    0 -0.00000000000E+00 -0.00000000000E+00 -0.21811041229E+02  0.21811041229E+02  0.00000000000E+00 0. -1.
         13    1    1    2    0    0 -0.34999913668E+00 -0.19979819977E+02 -0.68789805066E+01  0.21134030438E+02  0.10566000000E+00 0. -1.
        996    1    1    2    0    0  0.34999913668E+00  0.19979819977E+02  0.85067883454E+02  0.10067701079E+03  0.50000000000E+02 0.  0.
<mgrwt>
<rscale>  0 0.53845294E+02</rscale>
<asrwt>0</asrwt>
<pdfrwt beam="1">  1       13 0.10000000E+01 0.53845294E+02</pdfrwt>
<pdfrwt beam="2">  1       22 0.21811063E+00 0.53845294E+02</pdfrwt>
<totfact> 0.38572325E-01</totfact>
</mgrwt>
</event>
<event>
 4    1  0.2451537E+000  0.5162614E+02  0.7957747E-01  0.1436763E+00
         13   -1    0    0    0    0  0.00000000000E+00  0.00000000000E+00  0.99999944182E+02  0.10000000000E+03  0.10566000000E+00 0. -1.
         22   -1    0    0    0    0 -0.00000000000E+00 -0.00000000000E+00 -0.65274207375E+02  0.65274207375E+02  0.00000000000E+00 0.  1.
         13    1    1    2    0    0  0.12245576681E+02  0.39120453401E+01 -0.57858233786E+02  0.59269255334E+02  0.10566000000E+00 0.  1.
        996    1    1    2    0    0 -0.12245576681E+02 -0.39120453401E+01  0.92583970593E+02  0.10600495204E+03  0.50000000000E+02 0.  0.
<mgrwt>
<rscale>  0 0.51626139E+02</rscale>
<asrwt>0</asrwt>
<pdfrwt beam="1">  1       13 0.10000000E+01 0.51626139E+02</pdfrwt>
<pdfrwt beam="2">  1       22 0.65274217E+00 0.51626139E+02</pdfrwt>
<totfact> 0.86835694E-02</totfact>
</mgrwt>
</event>
<event>
 4    1  0.2451537E+000  0.5653745E+02  0.7957747E-01  0.1412965E+00
         13   -1    0    0    0    0  0.00000000000E+00  0.00000000000E+00  0.99999944174E+02  0.99999999994E+02  0.10566000000E+00 0. -1.
         22   -1    0    0    0    0 -0.00000000000E+00 -0.00000000000E+00 -0.52448022837E+02  0.52448022837E+02  0.00000000000E+00 0.  1.
         13    1    1    2    0    0  0.48368685142E+01 -0.25943935212E+02 -0.40182744781E+02  0.48074392492E+02  0.10566000000E+00 0.  1.
        996    1    1    2    0    0 -0.48368685142E+01  0.25943935212E+02  0.87734666118E+02  0.10437363034E+03  0.50000000000E+02 0.  0.
<mgrwt>
<rscale>  0 0.56537448E+02</rscale>
<asrwt>0</asrwt>
<pdfrwt beam="1">  1       13 0.10000000E+01 0.56537448E+02</pdfrwt>
<pdfrwt beam="2">  1       22 0.52448036E+00 0.56537448E+02</pdfrwt>
<totfact> 0.64952129E-02</totfact>
</mgrwt>
</event>
<event>
 4    1  0.2451537E+000  0.5405499E+02  0.7957747E-01  0.1424621E+00
         13   -1    0    0    0    0  0.00000000000E+00  0.00000000000E+00  0.99999944179E+02  0.99999999999E+02  0.10566000000E+00 0.  1.
         22   -1    0    0    0    0 -0.00000000000E+00 -0.00000000000E+00 -0.17229552312E+02  0.17229552312E+02  0.00000000000E+00 0.  1.
         13    1    1    2    0    0 -0.13788483824E+01  0.20494897990E+02  0.28398259124E+01  0.20736871551E+02  0.10566000000E+00 0. -1.
        996    1    1    2    0    0  0.13788483824E+01 -0.20494897990E+02  0.79930565954E+02  0.96492680760E+02  0.50000000000E+02 0.  0.
<mgrwt>
<rscale>  0 0.54054991E+02</rscale>
<asrwt>0</asrwt>
<pdfrwt beam="1">  1       13 0.10000000E+01 0.54054991E+02</pdfrwt>
<pdfrwt beam="2">  1       22 0.17229575E+00 0.54054991E+02</pdfrwt>
<totfact> 0.59613097E-01</totfact>
</mgrwt>
</event>
<event>
 4    1  0.2451537E+000  0.5198553E+02  0.7957747E-01  0.1434917E+00
         13   -1    0    0    0    0  0.00000000000E+00  0.00000000000E+00  0.99999944182E+02  0.10000000000E+03  0.10566000000E+00 0. -1.
         22   -1    0    0    0    0 -0.00000000000E+00 -0.00000000000E+00 -0.38757290001E+02  0.38757290001E+02  0.00000000000E+00 0.  1.
         13    1    1    2    0    0  0.63063366284E+01  0.12756379851E+02 -0.30304664440E+02  0.33479530455E+02  0.10566000000E+00 0.  1.
        996    1    1    2    0    0 -0.63063366284E+01 -0.12756379851E+02  0.91547318622E+02  0.10527775955E+03  0.50000000000E+02 0.  0.
<mgrwt>
<rscale>  0 0.51985528E+02</rscale>
<asrwt>0</asrwt>
<pdfrwt beam="1">  1       13 0.10000000E+01 0.51985528E+02</pdfrwt>
<pdfrwt beam="2">  1       22 0.38757307E+00 0.51985528E+02</pdfrwt>
<totfact> 0.13116293E-01</totfact>
</mgrwt>
</event>
<event>
 4    1  0.2451537E+000  0.5247909E+02  0.7957747E-01  0.1432411E+00
         13   -1    0    0    0    0  0.00000000000E+00  0.00000000000E+00  0.99999944173E+02  0.99999999993E+02  0.10566000000E+00 0.  1.
         22   -1    0    0    0    0 -0.00000000000E+00 -0.00000000000E+00 -0.23143373530E+02  0.23143373530E+02  0.00000000000E+00 0. -1.
         13    1    1    2    0    0 -0.12320851989E+02  0.10111936118E+02 -0.11996687169E+02  0.19949594303E+02  0.10566000000E+00 0. -1.
        996    1    1    2    0    0  0.12320851989E+02 -0.10111936118E+02  0.88853257813E+02  0.10319377922E+03  0.50000000000E+02 0.  0.
<mgrwt>
<rscale>  0 0.52479088E+02</rscale>
<asrwt>0</asrwt>
<pdfrwt beam="1">  1       13 0.10000000E+01 0.52479088E+02</pdfrwt>
<pdfrwt beam="2">  1       22 0.23143395E+00 0.52479088E+02</pdfrwt>
<totfact> 0.34316210E-01</totfact>
</mgrwt>
</event>
<event>
 4    1  0.2451537E+000  0.5341919E+02  0.7957747E-01  0.1427726E+00
         13   -1    0    0    0    0  0.00000000000E+00  0.00000000000E+00  0.99999944189E+02  0.10000000001E+03  0.10566000000E+00 0.  1.
         22   -1    0    0    0    0 -0.00000000000E+00 -0.00000000000E+00 -0.22282331912E+02  0.22282331912E+02  0.00000000000E+00 0. -1.
         13    1    1    2    0    0 -0.18210655994E+02  0.46885098058E+01 -0.86741407577E+01  0.20708983506E+02  0.10566000000E+00 0. -1.
        996    1    1    2    0    0  0.18210655994E+02 -0.46885098058E+01  0.86391753034E+02  0.10157334842E+03  0.50000000000E+02 0.  0.
<mgrwt>
<rscale>  0 0.53419192E+02</rscale>
<asrwt>0</asrwt>
<pdfrwt beam="1">  1       13 0.10000000E+01 0.53419192E+02</pdfrwt>
<pdfrwt beam="2">  1       22 0.22282354E+00 0.53419192E+02</pdfrwt>
<totfact> 0.36991083E-01</totfact>
</mgrwt>
</event>
<event>
 4    1  0.2451537E+000  0.5301897E+02  0.7957747E-01  0.1429706E+00
         13   -1    0    0    0    0  0.00000000000E+00  0.00000000000E+00  0.99999944180E+02  0.10000000000E+03  0.10566000000E+00 0.  1.
         22   -1    0    0    0    0 -0.00000000000E+00 -0.00000000000E+00 -0.16133042729E+02  0.16133042729E+02  0.00000000000E+00 0. -1.
         13    1    1    2    0    0  0.10298231882E+02  0.14316347628E+02  0.88293639972E+00  0.17657919754E+02  0.10566000000E+00 0. -1.
        996    1    1    2    0    0 -0.10298231882E+02 -0.14316347628E+02  0.82983965052E+02  0.98475122975E+02  0.50000000000E+02 0.  0.
<mgrwt>
<rscale>  0 0.53018972E+02</rscale>
<asrwt>0</asrwt>
<pdfrwt beam="1">  1       13 0.10000000E+01 0.53018972E+02</pdfrwt>
<pdfrwt beam="2">  1       22 0.16133066E+00 0.53018972E+02</pdfrwt>
<totfact> 0.66707194E-01</totfact>
</mgrwt>
</event>
<event>
 4    1  0.2451537E+000  0.5124241E+02  0.7957747E-01  0.1438753E+00
         13   -1    0    0    0    0  0.00000000000E+00  0.00000000000E+00  0.99999944185E+02  0.10000000001E+03  0.10566000000E+00 0.  1.
         22   -1    0    0    0    0 -0.00000000000E+00 -0.00000000000E+00 -0.97937448695E+01  0.97937448695E+01  0.00000000000E+00 0.  1.
         13    1    1    2    0    0 -0.11075860365E+02 -0.17634398223E+01  0.13583490842E+02  0.17615526967E+02  0.10566000000E+00 0. -1.
        996    1    1    2    0    0  0.11075860365E+02  0.17634398223E+01  0.76622708473E+02  0.92178217907E+02  0.50000000000E+02 0.  0.
<mgrwt>
<rscale>  0 0.51242408E+02</rscale>
<asrwt>0</asrwt>
<pdfrwt beam="1">  1       13 0.10000000E+01 0.51242408E+02</pdfrwt>
<pdfrwt beam="2">  1       22 0.97937701E-01 0.51242408E+02</pdfrwt>
<totfact> 0.14502021E+00</totfact>
</mgrwt>
</event>
<event>
 4    1  0.2451537E+000  0.5849624E+02  0.7957747E-01  0.1404253E+00
         13   -1    0    0    0    0  0.00000000000E+00  0.00000000000E+00  0.99999944185E+02  0.10000000001E+03  0.10566000000E+00 0.  1.
         22   -1    0    0    0    0 -0.00000000000E+00 -0.00000000000E+00 -0.85059996211E+02  0.85059996211E+02  0.00000000000E+00 0. -1.
         13    1    1    2    0    0 -0.25743970354E+02 -0.16095294167E+02 -0.73216039947E+02  0.79261656388E+02  0.10566000000E+00 0. -1.
        996    1    1    2    0    0  0.25743970354E+02  0.16095294167E+02  0.88155987922E+02  0.10579833983E+03  0.50000000000E+02 0.  0.
<mgrwt>
<rscale>  0 0.58496244E+02</rscale>
<asrwt>0</asrwt>
<pdfrwt beam="1">  1       13 0.10000000E+01 0.58496244E+02</pdfrwt>
<pdfrwt beam="2">  1       22 0.85060000E+00 0.58496244E+02</pdfrwt>
<totfact> 0.18871829E-02</totfact>
</mgrwt>
</event>
<event>
 4    1  0.2451537E+000  0.5568468E+02  0.7957747E-01  0.1416888E+00
         13   -1    0    0    0    0  0.00000000000E+00  0.00000000000E+00  0.99999944181E+02  0.10000000000E+03  0.10566000000E+00 0. -1.
         22   -1    0    0    0    0 -0.00000000000E+00 -0.00000000000E+00 -0.59342848155E+02  0.59342848155E+02  0.00000000000E+00 0.  1.
         13    1    1    2    0    0 -0.91619604047E+01 -0.22734164942E+02 -0.48432792121E+02  0.54281951795E+02  0.10566000000E+00 0.  1.
        996    1    1    2    0    0  0.91619604047E+01  0.22734164942E+02  0.89089888148E+02  0.10506089636E+03  0.50000000000E+02 0.  0.
<mgrwt>
<rscale>  0 0.55684682E+02</rscale>
<asrwt>0</asrwt>
<pdfrwt beam="1">  1       13 0.10000000E+01 0.55684682E+02</pdfrwt>
<pdfrwt beam="2">  1       22 0.59342860E+00 0.55684682E+02</pdfrwt>
<totfact> 0.61436796E-02</totfact>
</mgrwt>
</event>
<event>
 4    1  0.2451537E+000  0.8241417E+02  0.7957747E-01  0.1322337E+00
         13   -1    0    0    0    0  0.00000000000E+00  0.00000000000E+00  0.99999944186E+02  0.10000000001E+03  0.10566000000E+00 0.  1.
         22   -1    0    0    0    0 -0.00000000000E+00 -0.00000000000E+00 -0.58575456663E+02  0.58575456663E+02  0.00000000000E+00 0. -1.
         13    1    1    2    0    0  0.28608868968E+02 -0.58937497981E+02 -0.17491316824E+01  0.65537521143E+02  0.10566000000E+00 0. -1.
        996    1    1    2    0    0 -0.28608868968E+02  0.58937497981E+02  0.43173619205E+02  0.93037935527E+02  0.50000000000E+02 0.  0.
<mgrwt>
<rscale>  0 0.82414174E+02</rscale>
<asrwt>0</asrwt>
<pdfrwt beam="1">  1       13 0.10000000E+01 0.82414174E+02</pdfrwt>
<pdfrwt beam="2">  1       22 0.58575468E+00 0.82414174E+02</pdfrwt>
<totfact> 0.59628636E-02</totfact>
</mgrwt>
</event>
<event>
 4    1  0.2451537E+000  0.5240331E+02  0.7957747E-01  0.1432794E+00
         13   -1    0    0    0    0  0.00000000000E+00  0.00000000000E+00  0.99999944180E+02  0.10000000000E+03  0.10566000000E+00 0.  1.
         22   -1    0    0    0    0 -0.00000000000E+00 -0.00000000000E+00 -0.14996281886E+02  0.14996281886E+02  0.00000000000E+00 0. -1.
         13    1    1    2    0    0  0.13760868985E+02  0.75329592552E+01  0.66381726579E+00  0.15702191177E+02  0.10566000000E+00 0. -1.
        996    1    1    2    0    0 -0.13760868985E+02 -0.75329592552E+01  0.84339845028E+02  0.99294090709E+02  0.50000000000E+02 0.  0.
<mgrwt>
<rscale>  0 0.52403311E+02</rscale>
<asrwt>0</asrwt>
<pdfrwt beam="1">  1       13 0.10000000E+01 0.52403311E+02</pdfrwt>
<pdfrwt beam="2">  1       22 0.14996306E+00 0.52403311E+02</pdfrwt>
<totfact> 0.75385403E-01</totfact>
</mgrwt>
</event>
<event>
 4    1  0.2451537E+000  0.5258704E+02  0.7957747E-01  0.1431867E+00
         13   -1    0    0    0    0  0.00000000000E+00  0.00000000000E+00  0.99999944186E+02  0.10000000001E+03  0.10566000000E+00 0. -1.
         22   -1    0    0    0    0 -0.00000000000E+00 -0.00000000000E+00 -0.36774083151E+02  0.36774083151E+02  0.00000000000E+00 0.  1.
         13    1    1    2    0    0 -0.14509689525E+02  0.74071263605E+01 -0.27468777261E+02  0.31936522968E+02  0.10566000000E+00 0.  1.
        996    1    1    2    0    0  0.14509689525E+02 -0.74071263605E+01  0.90694638296E+02  0.10483756019E+03  0.50000000000E+02 0.  0.
<mgrwt>
<rscale>  0 0.52587038E+02</rscale>
<asrwt>0</asrwt>
<pdfrwt beam="1">  1       13 0.10000000E+01 0.52587038E+02</pdfrwt>
<pdfrwt beam="2">  1       22 0.36774101E+00 0.52587038E+02</pdfrwt>
<totfact> 0.14419546E-01</totfact>
</mgrwt>
</event>
<event>
 4    1  0.2451537E+000  0.5283336E+02  0.7957747E-01  0.1430632E+00
         13   -1    0    0    0    0  0.00000000000E+00  0.00000000000E+00  0.99999944173E+02  0.99999999993E+02  0.10566000000E+00 0. -1.
         22   -1    0    0    0    0 -0.00000000000E+00 -0.00000000000E+00 -0.42264500614E+02  0.42264500614E+02  0.00000000000E+00 0.  1.
         13    1    1    2    0    0  0.90479977762E+01  0.14474049692E+02 -0.33065329383E+02  0.37211443798E+02  0.10566000000E+00 0.  1.
        996    1    1    2    0    0 -0.90479977762E+01 -0.14474049692E+02  0.90800772941E+02  0.10505305681E+03  0.50000000000E+02 0.  0.
<mgrwt>
<rscale>  0 0.52833364E+02</rscale>
<asrwt>0</asrwt>
<pdfrwt beam="1">  1       13 0.10000000E+01 0.52833364E+02</pdfrwt>
<pdfrwt beam="2">  1       22 0.42264517E+00 0.52833364E+02</pdfrwt>
<totfact> 0.11097447E-01</totfact>
</mgrwt>
</event>
<event>
 4    1  0.2451537E+000  0.5146276E+02  0.7957747E-01  0.1437608E+00
         13   -1    0    0    0    0  0.00000000000E+00  0.00000000000E+00  0.99999944186E+02  0.10000000001E+03  0.10566000000E+00 0. -1.
         22   -1    0    0    0    0 -0.00000000000E+00 -0.00000000000E+00 -0.24690887590E+02  0.24690887590E+02  0.00000000000E+00 0.  1.
         13    1    1    2    0    0  0.86258278205E+01 -0.86029435423E+01 -0.15860418766E+02  0.19999489760E+02  0.10566000000E+00 0.  1.
        996    1    1    2    0    0 -0.86258278205E+01  0.86029435423E+01  0.91169475362E+02  0.10469139784E+03  0.50000000000E+02 0.  0.
<mgrwt>
<rscale>  0 0.51462759E+02</rscale>
<asrwt>0</asrwt>
<pdfrwt beam="1">  1       13 0.10000000E+01 0.51462759E+02</pdfrwt>
<pdfrwt beam="2">  1       22 0.24690909E+00 0.51462759E+02</pdfrwt>
<totfact> 0.30183600E-01</totfact>
</mgrwt>
</event>
<event>
 4    1  0.2451537E+000  0.5660332E+02  0.7957747E-01  0.1412665E+00
         13   -1    0    0    0    0  0.00000000000E+00  0.00000000000E+00  0.99999944185E+02  0.10000000001E+03  0.10566000000E+00 0. -1.
         22   -1    0    0    0    0 -0.00000000000E+00 -0.00000000000E+00 -0.40178220746E+02  0.40178220746E+02  0.00000000000E+00 0.  1.
         13    1    1    2    0    0 -0.14457436206E+02 -0.22246762114E+02 -0.26145491710E+02  0.37249614588E+02  0.10566000000E+00 0.  1.
        996    1    1    2    0    0  0.14457436206E+02  0.22246762114E+02  0.85967215149E+02  0.10292860616E+03  0.50000000000E+02 0.  0.
<mgrwt>
<rscale>  0 0.56603320E+02</rscale>
<asrwt>0</asrwt>
<pdfrwt beam="1">  1       13 0.10000000E+01 0.56603320E+02</pdfrwt>
<pdfrwt beam="2">  1       22 0.40178237E+00 0.56603320E+02</pdfrwt>
<totfact> 0.12305603E-01</totfact>
</mgrwt>
</event>
<event>
 4    1  0.2451537E+000  0.5187486E+02  0.7957747E-01  0.1435484E+00
         13   -1    0    0    0    0  0.00000000000E+00  0.00000000000E+00  0.99999944180E+02  0.10000000000E+03  0.10566000000E+00 0.  1.
         22   -1    0    0    0    0 -0.00000000000E+00 -0.00000000000E+00 -0.10816700202E+02  0.10816700202E+02  0.00000000000E+00 0.  1.
         13    1    1    2    0    0  0.13687011920E+02 -0.19148542812E+01  0.21082377876E+02  0.25208704512E+02  0.10566000000E+00 0. -1.
        996    1    1    2    0    0 -0.13687011920E+02  0.19148542812E+01  0.68100866102E+02  0.85607995690E+02  0.50000000000E+02 0.  0.
<mgrwt>
<rscale>  0 0.51874859E+02</rscale>
<asrwt>0</asrwt>
<pdfrwt beam="1">  1       13 0.10000000E+01 0.51874859E+02</pdfrwt>
<pdfrwt beam="2">  1       22 0.10816725E+00 0.51874859E+02</pdfrwt>
<totfact> 0.12563146E+00</totfact>
</mgrwt>
</event>
<event>
 4    1  0.2451537E+000  0.5323373E+02  0.7957747E-01  0.1428641E+00
         13   -1    0    0    0    0  0.00000000000E+00  0.00000000000E+00  0.99999944183E+02  0.10000000000E+03  0.10566000000E+00 0.  1.
         22   -1    0    0    0    0 -0.00000000000E+00 -0.00000000000E+00 -0.42592624165E+02  0.42592624165E+02  0.00000000000E+00 0. -1.
         13    1    1    2    0    0 -0.54112980345E+00 -0.18263007576E+02 -0.32974838252E+02  0.37698559508E+02  0.10566000000E+00 0. -1.
        996    1    1    2    0    0  0.54112980345E+00  0.18263007576E+02  0.90382158271E+02  0.10489406466E+03  0.50000000000E+02 0.  0.
<mgrwt>
<rscale>  0 0.53233732E+02</rscale>
<asrwt>0</asrwt>
<pdfrwt beam="1">  1       13 0.10000000E+01 0.53233732E+02</pdfrwt>
<pdfrwt beam="2">  1       22 0.42592640E+00 0.53233732E+02</pdfrwt>
<totfact> 0.10922810E-01</totfact>
</mgrwt>
</event>
<event>
 4    1  0.2451537E+000  0.5113028E+02  0.7957747E-01  0.1439339E+00
         13   -1    0    0    0    0  0.00000000000E+00  0.00000000000E+00  0.99999944187E+02  0.10000000001E+03  0.10566000000E+00 0.  1.
         22   -1    0    0    0    0 -0.00000000000E+00 -0.00000000000E+00 -0.17097177892E+02  0.17097177892E+02  0.00000000000E+00 0. -1.
         13    1    1    2    0    0 -0.55441391155E+00  0.10676997466E+02 -0.76220594801E+01  0.13130598022E+02  0.10566000000E+00 0. -1.
        996    1    1    2    0    0  0.55441391155E+00 -0.10676997466E+02  0.90524825775E+02  0.10396657988E+03  0.50000000000E+02 0.  0.
<mgrwt>
<rscale>  0 0.51130281E+02</rscale>
<asrwt>0</asrwt>
<pdfrwt beam="1">  1       13 0.10000000E+01 0.51130281E+02</pdfrwt>
<pdfrwt beam="2">  1       22 0.17097201E+00 0.51130281E+02</pdfrwt>
<totfact> 0.60091575E-01</totfact>
</mgrwt>
</event>
<event>
 4    1  0.2451537E+000  0.5687174E+02  0.7957747E-01  0.1411449E+00
         13   -1    0    0    0    0  0.00000000000E+00  0.00000000000E+00  0.99999944179E+02  0.99999999999E+02  0.10566000000E+00 0.  1.
         22   -1    0    0    0    0 -0.00000000000E+00 -0.00000000000E+00 -0.34023791700E+02  0.34023791700E+02  0.00000000000E+00 0. -1.
         13    1    1    2    0    0  0.51788538403E+01 -0.26600278387E+02 -0.18049781670E+02  0.32560729717E+02  0.10566000000E+00 0. -1.
        996    1    1    2    0    0 -0.51788538403E+01  0.26600278387E+02  0.84025934149E+02  0.10146306198E+03  0.50000000000E+02 0.  0.
<mgrwt>
<rscale>  0 0.56871745E+02</rscale>
<asrwt>0</asrwt>
<pdfrwt beam="1">  1       13 0.10000000E+01 0.56871745E+02</pdfrwt>
<pdfrwt beam="2">  1       22 0.34023810E+00 0.56871745E+02</pdfrwt>
<totfact> 0.16593453E-01</totfact>
</mgrwt>
</event>
<event>
 4    1  0.2451537E+000  0.5099196E+02  0.7957747E-01  0.1440063E+00
         13   -1    0    0    0    0  0.00000000000E+00  0.00000000000E+00  0.99999944181E+02  0.10000000000E+03  0.10566000000E+00 0. -1.
         22   -1    0    0    0    0 -0.00000000000E+00 -0.00000000000E+00 -0.11933539901E+02  0.11933539901E+02  0.00000000000E+00 0.  1.
         13    1    1    2    0    0 -0.89979539984E+01  0.43836622349E+01 -0.18313497091E+00  0.10011212374E+02  0.10566000000E+00 0.  1.
        996    1    1    2    0    0  0.89979539984E+01 -0.43836622349E+01  0.88249539251E+02  0.10192232753E+03  0.50000000000E+02 0.  0.
<mgrwt>
<rscale>  0 0.50991957E+02</rscale>
<asrwt>0</asrwt>
<pdfrwt beam="1">  1       13 0.10000000E+01 0.50991957E+02</pdfrwt>
<pdfrwt beam="2">  1       22 0.11933564E+00 0.50991957E+02</pdfrwt>
<totfact> 0.10816448E+00</totfact>
</mgrwt>
</event>
<event>
 4    1  0.2451537E+000  0.5116623E+02  0.7957747E-01  0.1439151E+00
         13   -1    0    0    0    0  0.00000000000E+00  0.00000000000E+00  0.99999944176E+02  0.99999999996E+02  0.10566000000E+00 0. -1.
         22   -1    0    0    0    0 -0.00000000000E+00 -0.00000000000E+00 -0.99067736663E+01  0.99067736663E+01  0.00000000000E+00 0. -1.
         13    1    1    2    0    0  0.83298318717E+01  0.69711507564E+01  0.94316719137E+01  0.14385779124E+02  0.10566000000E+00 0.  1.
        996    1    1    2    0    0 -0.83298318717E+01 -0.69711507564E+01  0.80661498595E+02  0.95520994538E+02  0.50000000000E+02 0.  0.
<mgrwt>
<rscale>  0 0.51166230E+02</rscale>
<asrwt>0</asrwt>
<pdfrwt beam="1">  1       13 0.10000000E+01 0.51166230E+02</pdfrwt>
<pdfrwt beam="2">  1       22 0.99067988E-01 0.51166230E+02</pdfrwt>
<totfact> 0.14261330E+00</totfact>
</mgrwt>
</event>
<event>
 4    1  0.2451537E+000  0.5776245E+02  0.7957747E-01  0.1407469E+00
         13   -1    0    0    0    0  0.00000000000E+00  0.00000000000E+00  0.99999944184E+02  0.10000000000E+03  0.10566000000E+00 0. -1.
         22   -1    0    0    0    0 -0.00000000000E+00 -0.00000000000E+00 -0.20465986918E+02  0.20465986918E+02  0.00000000000E+00 0.  1.
         13    1    1    2    0    0 -0.68284751722E+01  0.28104664207E+02  0.11264189908E+02  0.31038578603E+02  0.10566000000E+00 0.  1.
        996    1    1    2    0    0  0.68284751722E+01 -0.28104664207E+02  0.68269767358E+02  0.89427408318E+02  0.50000000000E+02 0.  0.
<mgrwt>
<rscale>  0 0.57762446E+02</rscale>
<asrwt>0</asrwt>
<pdfrwt beam="1">  1       13 0.10000000E+01 0.57762446E+02</pdfrwt>
<pdfrwt beam="2">  1       22 0.20466009E+00 0.57762446E+02</pdfrwt>
<totfact> 0.43816050E-01</totfact>
</mgrwt>
</event>
<event>
 4    1  0.2451537E+000  0.5357294E+02  0.7957747E-01  0.1426971E+00
         13   -1    0    0    0    0  0.00000000000E+00  0.00000000000E+00  0.99999944176E+02  0.99999999996E+02  0.10566000000E+00 0.  1.
         22   -1    0    0    0    0 -0.00000000000E+00 -0.00000000000E+00 -0.18437385697E+02  0.18437385697E+02  0.00000000000E+00 0. -1.
         13    1    1    2    0    0 -0.94152661880E+00 -0.19213887963E+02 -0.18249807888E+01  0.19323604269E+02  0.10566000000E+00 0. -1.
        996    1    1    2    0    0  0.94152661880E+00  0.19213887963E+02  0.83387539267E+02  0.99113781424E+02  0.50000000000E+02 0.  0.
<mgrwt>
<rscale>  0 0.53572941E+02</rscale>
<asrwt>0</asrwt>
<pdfrwt beam="1">  1       13 0.10000000E+01 0.53572941E+02</pdfrwt>
<pdfrwt beam="2">  1       22 0.18437408E+00 0.53572941E+02</pdfrwt>
<totfact> 0.52767315E-01</totfact>
</mgrwt>
</event>
<event>
 4    1  0.2451537E+000  0.6058621E+02  0.7957747E-01  0.1395388E+00
         13   -1    0    0    0    0  0.00000000000E+00  0.00000000000E+00  0.99999944179E+02  0.10000000000E+03  0.10566000000E+00 0. -1.
         22   -1    0    0    0    0 -0.00000000000E+00 -0.00000000000E+00 -0.25089712408E+02  0.25089712408E+02  0.00000000000E+00 0.  1.
         13    1    1    2    0    0  0.32388106112E+02 -0.11031755518E+02  0.86214630666E+01  0.35284980329E+02  0.10566000000E+00 0.  1.
        996    1    1    2    0    0 -0.32388106112E+02  0.11031755518E+02  0.66288768705E+02  0.89804732079E+02  0.50000000000E+02 0.  0.
<mgrwt>
<rscale>  0 0.60586212E+02</rscale>
<asrwt>0</asrwt>
<pdfrwt beam="1">  1       13 0.10000000E+01 0.60586212E+02</pdfrwt>
<pdfrwt beam="2">  1       22 0.25089733E+00 0.60586212E+02</pdfrwt>
<totfact> 0.29636703E-01</totfact>
</mgrwt>
</event>
<event>
 4    1  0.2451537E+000  0.5440286E+02  0.7957747E-01  0.1422944E+00
         13   -1    0    0    0    0  0.00000000000E+00  0.00000000000E+00  0.99999944174E+02  0.99999999994E+02  0.10566000000E+00 0.  1.
         22   -1    0    0    0    0 -0.00000000000E+00 -0.00000000000E+00 -0.16232300194E+02  0.16232300194E+02  0.00000000000E+00 0. -1.
         13    1    1    2    0    0  0.14164462431E+02 -0.16094690136E+02  0.78450017998E+01  0.22830380281E+02  0.10566000000E+00 0. -1.
        996    1    1    2    0    0 -0.14164462431E+02  0.16094690136E+02  0.75922642181E+02  0.93401919907E+02  0.50000000000E+02 0.  0.
<mgrwt>
<rscale>  0 0.54402859E+02</rscale>
<asrwt>0</asrwt>
<pdfrwt beam="1">  1       13 0.10000000E+01 0.54402859E+02</pdfrwt>
<pdfrwt beam="2">  1       22 0.16232324E+00 0.54402859E+02</pdfrwt>
<totfact> 0.66182389E-01</totfact>
</mgrwt>
</event>
<event>
 4    1  0.2451537E+000  0.5187547E+02  0.7957747E-01  0.1435481E+00
         13   -1    0    0    0    0  0.00000000000E+00  0.00000000000E+00  0.99999944175E+02  0.99999999996E+02  0.10566000000E+00 0. -1.
         22   -1    0    0    0    0 -0.00000000000E+00 -0.00000000000E+00 -0.23874385450E+02  0.23874385450E+02  0.00000000000E+00 0. -1.
         13    1    1    2    0    0 -0.10808884304E+02 -0.86158135897E+01 -0.14133728860E+02  0.19769615050E+02  0.10566000000E+00 0.  1.
        996    1    1    2    0    0  0.10808884304E+02  0.86158135897E+01  0.90259287585E+02  0.10410477040E+03  0.50000000000E+02 0.  0.
<mgrwt>
<rscale>  0 0.51875468E+02</rscale>
<asrwt>0</asrwt>
<pdfrwt beam="1">  1       13 0.10000000E+01 0.51875468E+02</pdfrwt>
<pdfrwt beam="2">  1       22 0.23874407E+00 0.51875468E+02</pdfrwt>
<totfact> 0.32262938E-01</totfact>
</mgrwt>
</event>
<event>
 4    1  0.2451537E+000  0.5582921E+02  0.7957747E-01  0.1416218E+00
         13   -1    0    0    0    0  0.00000000000E+00  0.00000000000E+00  0.99999944185E+02  0.10000000000E+03  0.10566000000E+00 0. -1.
         22   -1    0    0    0    0 -0.00000000000E+00 -0.00000000000E+00 -0.29837208866E+02  0.29837208866E+02  0.00000000000E+00 0.  1.
         13    1    1    2    0    0 -0.65114400657E+01 -0.23968774261E+02 -0.14247906853E+02  0.28634158012E+02  0.10566000000E+00 0.  1.
        996    1    1    2    0    0  0.65114400657E+01  0.23968774261E+02  0.84410642172E+02  0.10120305086E+03  0.50000000000E+02 0.  0.
<mgrwt>
<rscale>  0 0.55829213E+02</rscale>
<asrwt>0</asrwt>
<pdfrwt beam="1">  1       13 0.10000000E+01 0.55829213E+02</pdfrwt>
<pdfrwt beam="2">  1       22 0.29837228E+00 0.55829213E+02</pdfrwt>
<totfact> 0.21017815E-01</totfact>
</mgrwt>
</event>
<event>
 4    1  0.2451537E+000  0.5102398E+02  0.7957747E-01  0.1439895E+00
         13   -1    0    0    0    0  0.00000000000E+00  0.00000000000E+00  0.99999944176E+02  0.99999999996E+02  0.10566000000E+00 0.  1.
         22   -1    0    0    0    0 -0.00000000000E+00 -0.00000000000E+00 -0.17339794633E+02  0.17339794633E+02  0.00000000000E+00 0.  1.
         13    1    1    2    0    0  0.58004506581E+01 -0.83547164350E+01 -0.82453623343E+01  0.13093650316E+02  0.10566000000E+00 0. -1.
        996    1    1    2    0    0 -0.58004506581E+01  0.83547164350E+01  0.90905511877E+02  0.10424614431E+03  0.50000000000E+02 0.  0.
<mgrwt>
<rscale>  0 0.51023980E+02</rscale>
<asrwt>0</asrwt>
<pdfrwt beam="1">  1       13 0.10000000E+01 0.51023980E+02</pdfrwt>
<pdfrwt beam="2">  1       22 0.17339818E+00 0.51023980E+02</pdfrwt>
<totfact> 0.58607049E-01</totfact>
</mgrwt>
</event>
<event>
 4    1  0.2451537E+000  0.5101558E+02  0.7957747E-01  0.1439940E+00
         13   -1    0    0    0    0  0.00000000000E+00  0.00000000000E+00  0.99999944188E+02  0.10000000001E+03  0.10566000000E+00 0. -1.
         22   -1    0    0    0    0 -0.00000000000E+00 -0.00000000000E+00 -0.15347881936E+02  0.15347881936E+02  0.00000000000E+00 0.  1.
         13    1    1    2    0    0 -0.28129082246E+01  0.97301983340E+01 -0.56744914364E+01  0.11610350098E+02  0.10566000000E+00 0.  1.
        996    1    1    2    0    0  0.28129082246E+01 -0.97301983340E+01  0.90326553689E+02  0.10373753185E+03  0.50000000000E+02 0.  0.
<mgrwt>
<rscale>  0 0.51015578E+02</rscale>
<asrwt>0</asrwt>
<pdfrwt beam="1">  1       13 0.10000000E+01 0.51015578E+02</pdfrwt>
<pdfrwt beam="2">  1       22 0.15347906E+00 0.51015578E+02</pdfrwt>
<totfact> 0.72313868E-01</totfact>
</mgrwt>
</event>
<event>
 4    1  0.2451537E+000  0.5114276E+02  0.7957747E-01  0.1439273E+00
         13   -1    0    0    0    0  0.00000000000E+00  0.00000000000E+00  0.99999944183E+02  0.10000000000E+03  0.10566000000E+00 0.  1.
         22   -1    0    0    0    0 -0.00000000000E+00 -0.00000000000E+00 -0.32344411759E+02  0.32344411759E+02  0.00000000000E+00 0. -1.
         13    1    1    2    0    0 -0.81763244640E+00 -0.10719779899E+02 -0.24608124881E+02  0.26854295338E+02  0.10566000000E+00 0. -1.
        996    1    1    2    0    0  0.81763244640E+00  0.10719779899E+02  0.92263657305E+02  0.10549011642E+03  0.50000000000E+02 0.  0.
<mgrwt>
<rscale>  0 0.51142763E+02</rscale>
<asrwt>0</asrwt>
<pdfrwt beam="1">  1       13 0.10000000E+01 0.51142763E+02</pdfrwt>
<pdfrwt beam="2">  1       22 0.32344431E+00 0.51142763E+02</pdfrwt>
<totfact> 0.18031047E-01</totfact>
</mgrwt>
</event>
<event>
 4    1  0.2451537E+000  0.5136248E+02  0.7957747E-01  0.1438128E+00
         13   -1    0    0    0    0  0.00000000000E+00  0.00000000000E+00  0.99999944172E+02  0.99999999992E+02  0.10566000000E+00 0.  1.
         22   -1    0    0    0    0 -0.00000000000E+00 -0.00000000000E+00 -0.19647551240E+02  0.19647551240E+02  0.00000000000E+00 0.  1.
         13    1    1    2    0    0 -0.66348965551E+01  0.96996346205E+01 -0.10187699444E+02  0.15553300230E+02  0.10566000000E+00 0. -1.
        996    1    1    2    0    0  0.66348965551E+01 -0.96996346205E+01  0.90540092376E+02  0.10409425100E+03  0.50000000000E+02 0.  0.
<mgrwt>
<rscale>  0 0.51362484E+02</rscale>
<asrwt>0</asrwt>
<pdfrwt beam="1">  1       13 0.10000000E+01 0.51362484E+02</pdfrwt>
<pdfrwt beam="2">  1       22 0.19647574E+00 0.51362484E+02</pdfrwt>
<totfact> 0.46776460E-01</totfact>
</mgrwt>
</event>
<event>
 4    1  0.2451537E+000  0.5104403E+02  0.7957747E-01  0.1439790E+00
         13   -1    0    0    0    0  0.00000000000E+00  0.00000000000E+00  0.99999944180E+02  0.10000000000E+03  0.10566000000E+00 0. -1.
         22   -1    0    0    0    0 -0.00000000000E+00 -0.00000000000E+00 -0.28965608517E+02  0.28965608517E+02  0.00000000000E+00 0.  1.
         13    1    1    2    0    0 -0.91761859804E+01  0.46141904051E+01 -0.21195336482E+02  0.23553059140E+02  0.10566000000E+00 0.  1.
        996    1    1    2    0    0  0.91761859804E+01 -0.46141904051E+01  0.92229672145E+02  0.10541254938E+03  0.50000000000E+02 0.  0.
<mgrwt>
<rscale>  0 0.51044031E+02</rscale>
<asrwt>0</asrwt>
<pdfrwt beam="1">  1       13 0.10000000E+01 0.51044031E+02</pdfrwt>
<pdfrwt beam="2">  1       22 0.28965628E+00 0.51044031E+02</pdfrwt>
<totfact> 0.22092440E-01</totfact>
</mgrwt>
</event>
<event>
 4    1  0.2451537E+000  0.5281263E+02  0.7957747E-01  0.1430736E+00
         13   -1    0    0    0    0  0.00000000000E+00  0.00000000000E+00  0.99999944174E+02  0.99999999994E+02  0.10566000000E+00 0. -1.
         22   -1    0    0    0    0 -0.00000000000E+00 -0.00000000000E+00 -0.12209829666E+02  0.12209829666E+02  0.00000000000E+00 0. -1.
         13    1    1    2    0    0 -0.16404609853E+02 -0.44791061894E+01  0.19314587288E+02  0.25733986531E+02  0.10566000000E+00 0.  1.
        996    1    1    2    0    0  0.16404609853E+02  0.44791061894E+01  0.68475527221E+02  0.86475843129E+02  0.50000000000E+02 0.  0.
<mgrwt>
<rscale>  0 0.52812627E+02</rscale>
<asrwt>0</asrwt>
<pdfrwt beam="1">  1       13 0.10000000E+01 0.52812627E+02</pdfrwt>
<pdfrwt beam="2">  1       22 0.12209854E+00 0.52812627E+02</pdfrwt>
<totfact> 0.10485632E+00</totfact>
</mgrwt>
</event>
<event>
 4    1  0.2451537E+000  0.5439323E+02  0.7957747E-01  0.1422990E+00
         13   -1    0    0    0    0  0.00000000000E+00  0.00000000000E+00  0.99999944179E+02  0.10000000000E+03  0.10566000000E+00 0. -1.
         22   -1    0    0    0    0 -0.00000000000E+00 -0.00000000000E+00 -0.15465455869E+02  0.15465455869E+02  0.00000000000E+00 0. -1.
         13    1    1    2    0    0 -0.20472324092E+02  0.62854561560E+01  0.11220599237E+02  0.24177179821E+02  0.10566000000E+00 0.  1.
        996    1    1    2    0    0  0.20472324092E+02 -0.62854561560E+01  0.73313889073E+02  0.91288276048E+02  0.50000000000E+02 0.  0.
<mgrwt>
<rscale>  0 0.54393226E+02</rscale>
<asrwt>0</asrwt>
<pdfrwt beam="1">  1       13 0.10000000E+01 0.54393226E+02</pdfrwt>
<pdfrwt beam="2">  1       22 0.15465479E+00 0.54393226E+02</pdfrwt>
<totfact> 0.71872725E-01</totfact>
</mgrwt>
</event>
<event>
 4    1  0.2451537E+000  0.5733129E+02  0.7957747E-01  0.1409385E+00
         13   -1    0    0    0    0  0.00000000000E+00  0.00000000000E+00  0.99999944177E+02  0.99999999997E+02  0.10566000000E+00 0.  1.
         22   -1    0    0    0    0 -0.00000000000E+00 -0.00000000000E+00 -0.25859943026E+02  0.25859943026E+02  0.00000000000E+00 0. -1.
         13    1    1    2    0    0 -0.45649202990E+01 -0.27677390102E+02 -0.46342268543E+01  0.28431736542E+02  0.10566000000E+00 0. -1.
        996    1    1    2    0    0  0.45649202990E+01  0.27677390102E+02  0.78774228006E+02  0.97428206481E+02  0.50000000000E+02 0.  0.
<mgrwt>
<rscale>  0 0.57331287E+02</rscale>
<asrwt>0</asrwt>
<pdfrwt beam="1">  1       13 0.10000000E+01 0.57331287E+02</pdfrwt>
<pdfrwt beam="2">  1       22 0.25859964E+00 0.57331287E+02</pdfrwt>
<totfact> 0.27795566E-01</totfact>
</mgrwt>
</event>
<event>
 4    1  0.2451537E+000  0.5130403E+02  0.7957747E-01  0.1438432E+00
         13   -1    0    0    0    0  0.00000000000E+00  0.00000000000E+00  0.99999944174E+02  0.99999999995E+02  0.10566000000E+00 0. -1.
         22   -1    0    0    0    0 -0.00000000000E+00 -0.00000000000E+00 -0.20536267927E+02  0.20536267927E+02  0.00000000000E+00 0.  1.
         13    1    1    2    0    0  0.95617638259E+01  0.63777591521E+01 -0.11400311008E+02  0.16188928142E+02  0.10566000000E+00 0.  1.
        996    1    1    2    0    0 -0.95617638259E+01 -0.63777591521E+01  0.90863987255E+02  0.10434733978E+03  0.50000000000E+02 0.  0.
<mgrwt>
<rscale>  0 0.51304027E+02</rscale>
<asrwt>0</asrwt>
<pdfrwt beam="1">  1       13 0.10000000E+01 0.51304027E+02</pdfrwt>
<pdfrwt beam="2">  1       22 0.20536290E+00 0.51304027E+02</pdfrwt>
<totfact> 0.43062507E-01</totfact>
</mgrwt>
</event>
<event>
 4    1  0.2451537E+000  0.5330103E+02  0.7957747E-01  0.1428309E+00
         13   -1    0    0    0    0  0.00000000000E+00  0.00000000000E+00  0.99999944178E+02  0.99999999998E+02  0.10566000000E+00 0.  1.
         22   -1    0    0    0    0 -0.00000000000E+00 -0.00000000000E+00 -0.41900688914E+02  0.41900688914E+02  0.00000000000E+00 0. -1.
         13    1    1    2    0    0  0.12823085404E+02  0.13287891568E+02 -0.32156287453E+02  0.37081499004E+02  0.10566000000E+00 0. -1.
        996    1    1    2    0    0 -0.12823085404E+02 -0.13287891568E+02  0.90255542718E+02  0.10481918991E+03  0.50000000000E+02 0.  0.
<mgrwt>
<rscale>  0 0.53301028E+02</rscale>
<asrwt>0</asrwt>
<pdfrwt beam="1">  1       13 0.10000000E+01 0.53301028E+02</pdfrwt>
<pdfrwt beam="2">  1       22 0.41900705E+00 0.53301028E+02</pdfrwt>
<totfact> 0.11300098E-01</totfact>
</mgrwt>
</event>
<event>
 4    1  0.2451537E+000  0.8122389E+02  0.7957747E-01  0.1325614E+00
         13   -1    0    0    0    0  0.00000000000E+00  0.00000000000E+00  0.99999944171E+02  0.99999999991E+02  0.10566000000E+00 0. -1.
         22   -1    0    0    0    0 -0.00000000000E+00 -0.00000000000E+00 -0.65443601198E+02  0.65443601198E+02  0.00000000000E+00 0.  1.
         13    1    1    2    0    0 -0.54735255504E+02  0.33186935509E+02 -0.20621763761E+02  0.67250198426E+02  0.10566000000E+00 0.  1.
        996    1    1    2    0    0  0.54735255504E+02 -0.33186935509E+02  0.55178106733E+02  0.98193402764E+02  0.50000000000E+02 0.  0.
<mgrwt>
<rscale>  0 0.81223894E+02</rscale>
<asrwt>0</asrwt>
<pdfrwt beam="1">  1       13 0.10000000E+01 0.81223894E+02</pdfrwt>
<pdfrwt beam="2">  1       22 0.65443611E+00 0.81223894E+02</pdfrwt>
<totfact> 0.87045991E-02</totfact>
</mgrwt>
</event>
<event>
 4    1  0.2451537E+000  0.5100918E+02  0.7957747E-01  0.1439973E+00
         13   -1    0    0    0    0  0.00000000000E+00  0.00000000000E+00  0.99999944177E+02  0.99999999997E+02  0.10566000000E+00 0.  1.
         22   -1    0    0    0    0 -0.00000000000E+00 -0.00000000000E+00 -0.15996459247E+02  0.15996459247E+02  0.00000000000E+00 0. -1.
         13    1    1    2    0    0  0.59658437959E+01  0.81452734520E+01 -0.65704992385E+01  0.12046551211E+02  0.10566000000E+00 0. -1.
        996    1    1    2    0    0 -0.59658437959E+01 -0.81452734520E+01  0.90573984169E+02  0.10394990803E+03  0.50000000000E+02 0.  0.
<mgrwt>
<rscale>  0 0.51009183E+02</rscale>
<asrwt>0</asrwt>
<pdfrwt beam="1">  1       13 0.10000000E+01 0.51009183E+02</pdfrwt>
<pdfrwt beam="2">  1       22 0.15996483E+00 0.51009183E+02</pdfrwt>
<totfact> 0.67415971E-01</totfact>
</mgrwt>
</event>
<event>
 4    1  0.2451537E+000  0.5174735E+02  0.7957747E-01  0.1436138E+00
         13   -1    0    0    0    0  0.00000000000E+00  0.00000000000E+00  0.99999944182E+02  0.10000000000E+03  0.10566000000E+00 0.  1.
         22   -1    0    0    0    0 -0.00000000000E+00 -0.00000000000E+00 -0.16655380382E+02  0.16655380382E+02  0.00000000000E+00 0.  1.
         13    1    1    2    0    0  0.13024071605E+02 -0.28568105440E+01  0.57094304716E+02  0.58630696761E+02  0.10566000000E+00 0. -1.
        996    1    1    2    0    0 -0.13024071605E+02  0.28568105440E+01  0.26250259084E+02  0.58024683624E+02  0.50000000000E+02 0.  0.
<mgrwt>
<rscale>  0 0.51747346E+02</rscale>
<asrwt>0</asrwt>
<pdfrwt beam="1">  1       13 0.10000000E+01 0.51747346E+02</pdfrwt>
<pdfrwt beam="2">  1       22 0.16655404E+00 0.51747346E+02</pdfrwt>
<totfact> 0.62979264E-01</totfact>
</mgrwt>
</event>
<event>
 4    1  0.2451537E+000  0.5240753E+02  0.7957747E-01  0.1432772E+00
         13   -1    0    0    0    0  0.00000000000E+00  0.00000000000E+00  0.99999944175E+02  0.99999999995E+02  0.10566000000E+00 0. -1.
         22   -1    0    0    0    0 -0.00000000000E+00 -0.00000000000E+00 -0.20960895015E+02  0.20960895015E+02  0.00000000000E+00 0.  1.
         13    1    1    2    0    0 -0.94549665881E+01 -0.12536050531E+02 -0.92973735954E+01  0.18248322551E+02  0.10566000000E+00 0.  1.
        996    1    1    2    0    0  0.94549665881E+01  0.12536050531E+02  0.88336422755E+02  0.10271257246E+03  0.50000000000E+02 0.  0.
<mgrwt>
<rscale>  0 0.52407528E+02</rscale>
<asrwt>0</asrwt>
<pdfrwt beam="1">  1       13 0.10000000E+01 0.52407528E+02</pdfrwt>
<pdfrwt beam="2">  1       22 0.20960917E+00 0.52407528E+02</pdfrwt>
<totfact> 0.41510572E-01</totfact>
</mgrwt>
</event>
<event>
 4    1  0.2451537E+000  0.6027994E+02  0.7957747E-01  0.1396661E+00
         13   -1    0    0    0    0  0.00000000000E+00  0.00000000000E+00  0.99999944180E+02  0.10000000000E+03  0.10566000000E+00 0.  1.
         22   -1    0    0    0    0 -0.00000000000E+00 -0.00000000000E+00 -0.24942594218E+02  0.24942594218E+02  0.00000000000E+00 0. -1.
         13    1    1    2    0    0  0.31429550319E+02 -0.12077013955E+02  0.76783128875E+01  0.34534599348E+02  0.10566000000E+00 0. -1.
        996    1    1    2    0    0 -0.31429550319E+02  0.12077013955E+02  0.67379037075E+02  0.90407994870E+02  0.50000000000E+02 0.  0.
<mgrwt>
<rscale>  0 0.60279938E+02</rscale>
<asrwt>0</asrwt>
<pdfrwt beam="1">  1       13 0.10000000E+01 0.60279938E+02</pdfrwt>
<pdfrwt beam="2">  1       22 0.24942615E+00 0.60279938E+02</pdfrwt>
<totfact> 0.29970903E-01</totfact>
</mgrwt>
</event>
<event>
 4    1  0.2451537E+000  0.5948649E+02  0.7957747E-01  0.1399999E+00
         13   -1    0    0    0    0  0.00000000000E+00  0.00000000000E+00  0.99999944174E+02  0.99999999995E+02  0.10566000000E+00 0. -1.
         22   -1    0    0    0    0 -0.00000000000E+00 -0.00000000000E+00 -0.23591144739E+02  0.23591144739E+02  0.00000000000E+00 0.  1.
         13    1    1    2    0    0  0.31686566905E+02 -0.58825563322E+01  0.47630070920E+02  0.57508936793E+02  0.10566000000E+00 0.  1.
        996    1    1    2    0    0 -0.31686566905E+02  0.58825563322E+01  0.28778728516E+02  0.66082207940E+02  0.50000000000E+02 0.  0.
<mgrwt>
<rscale>  0 0.59486494E+02</rscale>
<asrwt>0</asrwt>
<pdfrwt beam="1">  1       13 0.10000000E+01 0.59486494E+02</pdfrwt>
<pdfrwt beam="2">  1       22 0.23591166E+00 0.59486494E+02</pdfrwt>
<totfact> 0.33409243E-01</totfact>
</mgrwt>
</event>
<event>
 4    1  0.2451537E+000  0.5485523E+02  0.7957747E-01  0.1420785E+00
         13   -1    0    0    0    0  0.00000000000E+00  0.00000000000E+00  0.99999944177E+02  0.99999999997E+02  0.10566000000E+00 0.  1.
         22   -1    0    0    0    0 -0.00000000000E+00 -0.00000000000E+00 -0.29860792188E+02  0.29860792188E+02  0.00000000000E+00 0. -1.
         13    1    1    2    0    0  0.25156285815E+01  0.22422481531E+02 -0.16054477048E+02  0.27692119141E+02  0.10566000000E+00 0. -1.
        996    1    1    2    0    0 -0.25156285815E+01 -0.22422481531E+02  0.86193629037E+02  0.10216867304E+03  0.50000000000E+02 0.  0.
<mgrwt>
<rscale>  0 0.54855228E+02</rscale>
<asrwt>0</asrwt>
<pdfrwt beam="1">  1       13 0.10000000E+01 0.54855228E+02</pdfrwt>
<pdfrwt beam="2">  1       22 0.29860812E+00 0.54855228E+02</pdfrwt>
<totfact> 0.20961234E-01</totfact>
</mgrwt>
</event>
<event>
 4    1  0.2451537E+000  0.5257340E+02  0.7957747E-01  0.1431936E+00
         13   -1    0    0    0    0  0.00000000000E+00  0.00000000000E+00  0.99999944171E+02  0.99999999991E+02  0.10566000000E+00 0. -1.
         22   -1    0    0    0    0 -0.00000000000E+00 -0.00000000000E+00 -0.32053513793E+02  0.32053513793E+02  0.00000000000E+00 0.  1.
         13    1    1    2    0    0  0.11632682964E+02  0.11342097583E+02 -0.22311548380E+02  0.27600341405E+02  0.10566000000E+00 0.  1.
        996    1    1    2    0    0 -0.11632682964E+02 -0.11342097583E+02  0.90257978758E+02  0.10445317238E+03  0.50000000000E+02 0.  0.
<mgrwt>
<rscale>  0 0.52573401E+02</rscale>
<asrwt>0</asrwt>
<pdfrwt beam="1">  1       13 0.10000000E+01 0.52573401E+02</pdfrwt>
<pdfrwt beam="2">  1       22 0.32053533E+00 0.52573401E+02</pdfrwt>
<totfact> 0.18355750E-01</totfact>
</mgrwt>
</event>
<event>
 4    1  0.2451537E+000  0.6108767E+02  0.7957747E-01  0.1393323E+00
         13   -1    0    0    0    0  0.00000000000E+00  0.00000000000E+00  0.99999944168E+02  0.99999999988E+02  0.10566000000E+00 0. -1.
         22   -1    0    0    0    0 -0.00000000000E+00 -0.00000000000E+00 -0.26780062406E+02  0.26780062406E+02  0.00000000000E+00 0. -1.
         13    1    1    2    0    0  0.18911352060E+00 -0.35095115631E+02  0.54073604243E+01  0.35509908700E+02  0.10566000000E+00 0.  1.
        996    1    1    2    0    0 -0.18911352060E+00  0.35095115631E+02  0.67812521338E+02  0.91270153694E+02  0.50000000000E+02 0.  0.
<mgrwt>
<rscale>  0 0.61087666E+02</rscale>
<asrwt>0</asrwt>
<pdfrwt beam="1">  1       13 0.10000000E+01 0.61087666E+02</pdfrwt>
<pdfrwt beam="2">  1       22 0.26780083E+00 0.61087666E+02</pdfrwt>
<totfact> 0.26071755E-01</totfact>
</mgrwt>
</event>
<event>
 4    1  0.2451537E+000  0.5773477E+02  0.7957747E-01  0.1407591E+00
         13   -1    0    0    0    0  0.00000000000E+00  0.00000000000E+00  0.99999944178E+02  0.99999999998E+02  0.10566000000E+00 0.  1.
         22   -1    0    0    0    0 -0.00000000000E+00 -0.00000000000E+00 -0.19067132241E+02  0.19067132241E+02  0.00000000000E+00 0. -1.
         13    1    1    2    0    0  0.21697007616E+02 -0.19040574148E+02  0.19952650205E+02  0.35091637432E+02  0.10566000000E+00 0. -1.
        996    1    1    2    0    0 -0.21697007616E+02  0.19040574148E+02  0.60980161732E+02  0.83975494808E+02  0.50000000000E+02 0.  0.
<mgrwt>
<rscale>  0 0.57734769E+02</rscale>
<asrwt>0</asrwt>
<pdfrwt beam="1">  1       13 0.10000000E+01 0.57734769E+02</pdfrwt>
<pdfrwt beam="2">  1       22 0.19067155E+00 0.57734769E+02</pdfrwt>
<totfact> 0.49987731E-01</totfact>
</mgrwt>
</event>
<event>
 4    1  0.2451537E+000  0.5652594E+02  0.7957747E-01  0.1413017E+00
         13   -1    0    0    0    0  0.00000000000E+00  0.00000000000E+00  0.99999944178E+02  0.99999999998E+02  0.10566000000E+00 0.  1.
         22   -1    0    0    0    0 -0.00000000000E+00 -0.00000000000E+00 -0.57329167862E+02  0.57329167862E+02  0.00000000000E+00 0. -1.
         13    1    1    2    0    0  0.25010565683E+02 -0.83458567874E+01 -0.45504345674E+02  0.52591238440E+02  0.10566000000E+00 0. -1.
        996    1    1    2    0    0 -0.25010565683E+02  0.83458567874E+01  0.88175121991E+02  0.10473792942E+03  0.50000000000E+02 0.  0.
<mgrwt>
<rscale>  0 0.56525938E+02</rscale>
<asrwt>0</asrwt>
<pdfrwt beam="1">  1       13 0.10000000E+01 0.56525938E+02</pdfrwt>
<pdfrwt beam="2">  1       22 0.57329180E+00 0.56525938E+02</pdfrwt>
<totfact> 0.57862051E-02</totfact>
</mgrwt>
</event>
<event>
 4    1  0.2451537E+000  0.6255217E+02  0.7957747E-01  0.1387423E+00
         13   -1    0    0    0    0  0.00000000000E+00  0.00000000000E+00  0.99999944185E+02  0.10000000001E+03  0.10566000000E+00 0.  1.
         22   -1    0    0    0    0 -0.00000000000E+00 -0.00000000000E+00 -0.27743283288E+02  0.27743283288E+02  0.00000000000E+00 0. -1.
         13    1    1    2    0    0  0.98512746720E+01  0.36272945501E+02  0.87261290149E+01  0.38586664531E+02  0.10566000000E+00 0. -1.
        996    1    1    2    0    0 -0.98512746720E+01 -0.36272945501E+02  0.63530531882E+02  0.89156618763E+02  0.50000000000E+02 0.  0.
<mgrwt>
<rscale>  0 0.62552172E+02</rscale>
<asrwt>0</asrwt>
<pdfrwt beam="1">  1       13 0.10000000E+01 0.62552172E+02</pdfrwt>
<pdfrwt beam="2">  1       22 0.27743303E+00 0.62552172E+02</pdfrwt>
<totfact> 0.24368203E-01</totfact>
</mgrwt>
</event>
<event>
 4    1  0.2451537E+000  0.5220866E+02  0.7957747E-01  0.1433780E+00
         13   -1    0    0    0    0  0.00000000000E+00  0.00000000000E+00  0.99999944181E+02  0.10000000000E+03  0.10566000000E+00 0.  1.
         22   -1    0    0    0    0 -0.00000000000E+00 -0.00000000000E+00 -0.30202689627E+02  0.30202689627E+02  0.00000000000E+00 0. -1.
         13    1    1    2    0    0  0.12709133840E+02 -0.80138366913E+01 -0.20787834199E+02  0.25649344557E+02  0.10566000000E+00 0. -1.
        996    1    1    2    0    0 -0.12709133840E+02  0.80138366913E+01  0.90585088752E+02  0.10455334507E+03  0.50000000000E+02 0.  0.
<mgrwt>
<rscale>  0 0.52208655E+02</rscale>
<asrwt>0</asrwt>
<pdfrwt beam="1">  1       13 0.10000000E+01 0.52208655E+02</pdfrwt>
<pdfrwt beam="2">  1       22 0.30202709E+00 0.52208655E+02</pdfrwt>
<totfact> 0.20450117E-01</totfact>
</mgrwt>
</event>
<event>
 4    1  0.2451537E+000  0.5239636E+02  0.7957747E-01  0.1432829E+00
         13   -1    0    0    0    0  0.00000000000E+00  0.00000000000E+00  0.99999944180E+02  0.10000000000E+03  0.10566000000E+00 0.  1.
         22   -1    0    0    0    0 -0.00000000000E+00 -0.00000000000E+00 -0.14747634246E+02  0.14747634246E+02  0.00000000000E+00 0.  1.
         13    1    1    2    0    0 -0.15266152298E+02  0.35103810113E+01  0.12122648484E+01  0.15711745000E+02  0.10566000000E+00 0. -1.
        996    1    1    2    0    0  0.15266152298E+02 -0.35103810113E+01  0.84040045086E+02  0.99035889247E+02  0.50000000000E+02 0.  0.
<mgrwt>
<rscale>  0 0.52396357E+02</rscale>
<asrwt>0</asrwt>
<pdfrwt beam="1">  1       13 0.10000000E+01 0.52396357E+02</pdfrwt>
<pdfrwt beam="2">  1       22 0.14747658E+00 0.52396357E+02</pdfrwt>
<totfact> 0.77505539E-01</totfact>
</mgrwt>
</event>
<event>
 4    1  0.2451537E+000  0.5224665E+02  0.7957747E-01  0.1433587E+00
         13   -1    0    0    0    0  0.00000000000E+00  0.00000000000E+00  0.99999944176E+02  0.99999999997E+02  0.10566000000E+00 0.  1.
         22   -1    0    0    0    0 -0.00000000000E+00 -0.00000000000E+00 -0.11633405869E+02  0.11633405869E+02  0.00000000000E+00 0.  1.
         13    1    1    2    0    0  0.10309255178E+02 -0.11109979954E+02  0.13238190694E+02  0.20123947272E+02  0.10566000000E+00 0. -1.
        996    1    1    2    0    0 -0.10309255178E+02  0.11109979954E+02  0.75128347614E+02  0.91509458594E+02  0.50000000000E+02 0.  0.
<mgrwt>
<rscale>  0 0.52246650E+02</rscale>
<asrwt>0</asrwt>
<pdfrwt beam="1">  1       13 0.10000000E+01 0.52246650E+02</pdfrwt>
<pdfrwt beam="2">  1       22 0.11633431E+00 0.52246650E+02</pdfrwt>
<totfact> 0.11275710E+00</totfact>
</mgrwt>
</event>
<event>
 4    1  0.2451537E+000  0.5464048E+02  0.7957747E-01  0.1421807E+00
         13   -1    0    0    0    0  0.00000000000E+00  0.00000000000E+00  0.99999944181E+02  0.10000000000E+03  0.10566000000E+00 0. -1.
         22   -1    0    0    0    0 -0.00000000000E+00 -0.00000000000E+00 -0.15955208621E+02  0.15955208621E+02  0.00000000000E+00 0.  1.
         13    1    1    2    0    0  0.20807888889E+02  0.72535012550E+01  0.10705270926E+02  0.24498887936E+02  0.10566000000E+00 0.  1.
        996    1    1    2    0    0 -0.20807888889E+02 -0.72535012550E+01  0.73339464635E+02  0.91456320686E+02  0.50000000000E+02 0.  0.
<mgrwt>
<rscale>  0 0.54640475E+02</rscale>
<asrwt>0</asrwt>
<pdfrwt beam="1">  1       13 0.10000000E+01 0.54640475E+02</pdfrwt>
<pdfrwt beam="2">  1       22 0.15955232E+00 0.54640475E+02</pdfrwt>
<totfact> 0.68197131E-01</totfact>
</mgrwt>
</event>
<event>
 4    1  0.2451537E+000  0.5717864E+02  0.7957747E-01  0.1410068E+00
         13   -1    0    0    0    0  0.00000000000E+00  0.00000000000E+00  0.99999944182E+02  0.10000000000E+03  0.10566000000E+00 0.  1.
         22   -1    0    0    0    0 -0.00000000000E+00 -0.00000000000E+00 -0.23869790935E+02  0.23869790935E+02  0.00000000000E+00 0. -1.
         13    1    1    2    0    0 -0.27734150056E+02  0.46246635589E+00 -0.11197119974E+01  0.27760797421E+02  0.10566000000E+00 0. -1.
        996    1    1    2    0    0  0.27734150056E+02 -0.46246635589E+00  0.77249865244E+02  0.96108993516E+02  0.50000000000E+02 0.  0.
<mgrwt>
<rscale>  0 0.57178641E+02</rscale>
<asrwt>0</asrwt>
<pdfrwt beam="1">  1       13 0.10000000E+01 0.57178641E+02</pdfrwt>
<pdfrwt beam="2">  1       22 0.23869812E+00 0.57178641E+02</pdfrwt>
<totfact> 0.32540219E-01</totfact>
</mgrwt>
</event>
<event>
 4    1  0.2451537E+000  0.5224809E+02  0.7957747E-01  0.1433580E+00
         13   -1    0    0    0    0  0.00000000000E+00  0.00000000000E+00  0.99999944193E+02  0.10000000001E+03  0.10566000000E+00 0. -1.
         22   -1    0    0    0    0 -0.00000000000E+00 -0.00000000000E+00 -0.17778975917E+02  0.17778975917E+02  0.00000000000E+00 0.  1.
         13    1    1    2    0    0  0.61978138272E+01  0.13836559652E+02 -0.51203620829E+01  0.16002891961E+02  0.10566000000E+00 0.  1.
        996    1    1    2    0    0 -0.61978138272E+01 -0.13836559652E+02  0.87341330359E+02  0.10177608397E+03  0.50000000000E+02 0.  0.
<mgrwt>
<rscale>  0 0.52248094E+02</rscale>
<asrwt>0</asrwt>
<pdfrwt beam="1">  1       13 0.10000000E+01 0.52248094E+02</pdfrwt>
<pdfrwt beam="2">  1       22 0.17778999E+00 0.52248094E+02</pdfrwt>
<totfact> 0.56194331E-01</totfact>
</mgrwt>
</event>
<event>
 4    1  0.2451537E+000  0.5662885E+02  0.7957747E-01  0.1412549E+00
         13   -1    0    0    0    0  0.00000000000E+00  0.00000000000E+00  0.99999944176E+02  0.99999999996E+02  0.10566000000E+00 0.  1.
         22   -1    0    0    0    0 -0.00000000000E+00 -0.00000000000E+00 -0.56024009939E+02  0.56024009939E+02  0.00000000000E+00 0. -1.
         13    1    1    2    0    0  0.27510146548E+01  0.26443501604E+02 -0.43993816242E+02  0.51403247857E+02  0.10566000000E+00 0. -1.
        996    1    1    2    0    0 -0.27510146548E+01 -0.26443501604E+02  0.87969750478E+02  0.10462076208E+03  0.50000000000E+02 0.  0.
<mgrwt>
<rscale>  0 0.56628852E+02</rscale>
<asrwt>0</asrwt>
<pdfrwt beam="1">  1       13 0.10000000E+01 0.56628852E+02</pdfrwt>
<pdfrwt beam="2">  1       22 0.56024022E+00 0.56628852E+02</pdfrwt>
<totfact> 0.58513829E-02</totfact>
</mgrwt>
</event>
<event>
 4    1  0.2451537E+000  0.5113982E+02  0.7957747E-01  0.1439289E+00
         13   -1    0    0    0    0  0.00000000000E+00  0.00000000000E+00  0.99999944177E+02  0.99999999997E+02  0.10566000000E+00 0.  1.
         22   -1    0    0    0    0 -0.00000000000E+00 -0.00000000000E+00 -0.97304344845E+01  0.97304344845E+01  0.00000000000E+00 0.  1.
         13    1    1    2    0    0  0.15217869469E+01  0.10628523167E+02  0.21479424809E+02  0.24013708468E+02  0.10566000000E+00 0. -1.
        996    1    1    2    0    0 -0.15217869469E+01 -0.10628523167E+02  0.68790084883E+02  0.85716726013E+02  0.50000000000E+02 0.  0.
<mgrwt>
<rscale>  0 0.51139821E+02</rscale>
<asrwt>0</asrwt>
<pdfrwt beam="1">  1       13 0.10000000E+01 0.51139821E+02</pdfrwt>
<pdfrwt beam="2">  1       22 0.97304597E-01 0.51139821E+02</pdfrwt>
<totfact> 0.14634291E+00</totfact>
</mgrwt>
</event>
<event>
 4    1  0.2451537E+000  0.5134555E+02  0.7957747E-01  0.1438216E+00
         13   -1    0    0    0    0  0.00000000000E+00  0.00000000000E+00  0.99999944179E+02  0.99999999999E+02  0.10566000000E+00 0.  1.
         22   -1    0    0    0    0 -0.00000000000E+00 -0.00000000000E+00 -0.10626969388E+02  0.10626969388E+02  0.00000000000E+00 0.  1.
         13    1    1    2    0    0 -0.85286519403E+01 -0.79766641683E+01  0.71625386323E+01  0.13699569295E+02  0.10566000000E+00 0. -1.
        996    1    1    2    0    0  0.85286519403E+01  0.79766641683E+01  0.82210436159E+02  0.96927400092E+02  0.50000000000E+02 0.  0.
<mgrwt>
<rscale>  0 0.51345546E+02</rscale>
<asrwt>0</asrwt>
<pdfrwt beam="1">  1       13 0.10000000E+01 0.51345546E+02</pdfrwt>
<pdfrwt beam="2">  1       22 0.10626994E+00 0.51345546E+02</pdfrwt>
<totfact> 0.12879686E+00</totfact>
</mgrwt>
</event>
<event>
 4    1  0.2451537E+000  0.5345097E+02  0.7957747E-01  0.1427570E+00
         13   -1    0    0    0    0  0.00000000000E+00  0.00000000000E+00  0.99999944177E+02  0.99999999997E+02  0.10566000000E+00 0. -1.
         22   -1    0    0    0    0 -0.00000000000E+00 -0.00000000000E+00 -0.15005459803E+02  0.15005459803E+02  0.00000000000E+00 0. -1.
         13    1    1    2    0    0  0.15956862825E+01  0.18827106822E+02  0.63837849417E+01  0.19944173089E+02  0.10566000000E+00 0.  1.
        996    1    1    2    0    0 -0.15956862825E+01 -0.18827106822E+02  0.78610699432E+02  0.95061286711E+02  0.50000000000E+02 0.  0.
<mgrwt>
<rscale>  0 0.53450970E+02</rscale>
<asrwt>0</asrwt>
<pdfrwt beam="1">  1       13 0.10000000E+01 0.53450970E+02</pdfrwt>
<pdfrwt beam="2">  1       22 0.15005484E+00 0.53450970E+02</pdfrwt>
<totfact> 0.75466965E-01</totfact>
</mgrwt>
</event>
<event>
 4    1  0.2451537E+000  0.5102613E+02  0.7957747E-01  0.1439884E+00
         13   -1    0    0    0    0  0.00000000000E+00  0.00000000000E+00  0.99999944177E+02  0.99999999998E+02  0.10566000000E+00 0.  1.
         22   -1    0    0    0    0 -0.00000000000E+00 -0.00000000000E+00 -0.27195985775E+02  0.27195985775E+02  0.00000000000E+00 0. -1.
         13    1    1    2    0    0  0.53927693024E+01  0.86361902810E+01 -0.19345945093E+02  0.21861896050E+02  0.10566000000E+00 0. -1.
        996    1    1    2    0    0 -0.53927693024E+01 -0.86361902810E+01  0.92149903496E+02  0.10533408972E+03  0.50000000000E+02 0.  0.
<mgrwt>
<rscale>  0 0.51026128E+02</rscale>
<asrwt>0</asrwt>
<pdfrwt beam="1">  1       13 0.10000000E+01 0.51026128E+02</pdfrwt>
<pdfrwt beam="2">  1       22 0.27196006E+00 0.51026128E+02</pdfrwt>
<totfact> 0.24950933E-01</totfact>
</mgrwt>
</event>
<event>
 4    1  0.2451537E+000  0.5572087E+02  0.7957747E-01  0.1416720E+00
         13   -1    0    0    0    0  0.00000000000E+00  0.00000000000E+00  0.99999944175E+02  0.99999999996E+02  0.10566000000E+00 0.  1.
         22   -1    0    0    0    0 -0.00000000000E+00 -0.00000000000E+00 -0.17760797854E+02  0.17760797854E+02  0.00000000000E+00 0. -1.
         13    1    1    2    0    0 -0.18225029709E+02  0.16512516898E+02  0.10048120288E+02  0.26566723689E+02  0.10566000000E+00 0. -1.
        996    1    1    2    0    0  0.18225029709E+02 -0.16512516898E+02  0.72191026034E+02  0.91194074160E+02  0.50000000000E+02 0.  0.
<mgrwt>
<rscale>  0 0.55720866E+02</rscale>
<asrwt>0</asrwt>
<pdfrwt beam="1">  1       13 0.10000000E+01 0.55720866E+02</pdfrwt>
<pdfrwt beam="2">  1       22 0.17760821E+00 0.55720866E+02</pdfrwt>
<totfact> 0.56654941E-01</totfact>
</mgrwt>
</event>
<event>
 4    1  0.2451537E+000  0.5175422E+02  0.7957747E-01  0.1436103E+00
         13   -1    0    0    0    0  0.00000000000E+00  0.00000000000E+00  0.99999944182E+02  0.10000000000E+03  0.10566000000E+00 0. -1.
         22   -1    0    0    0    0 -0.00000000000E+00 -0.00000000000E+00 -0.10638852779E+02  0.10638852779E+02  0.00000000000E+00 0. -1.
         13    1    1    2    0    0 -0.11090025898E+02 -0.74505500766E+01  0.15725532954E+02  0.20634992648E+02  0.10566000000E+00 0.  1.
        996    1    1    2    0    0  0.11090025898E+02  0.74505500766E+01  0.73635558448E+02  0.90003860133E+02  0.50000000000E+02 0.  0.
<mgrwt>
<rscale>  0 0.51754221E+02</rscale>
<asrwt>0</asrwt>
<pdfrwt beam="1">  1       13 0.10000000E+01 0.51754221E+02</pdfrwt>
<pdfrwt beam="2">  1       22 0.10638878E+00 0.51754221E+02</pdfrwt>
<totfact> 0.12870917E+00</totfact>
</mgrwt>
</event>
<event>
 4    1  0.2451537E+000  0.5150910E+02  0.7957747E-01  0.1437368E+00
         13   -1    0    0    0    0  0.00000000000E+00  0.00000000000E+00  0.99999944186E+02  0.10000000001E+03  0.10566000000E+00 0.  1.
         22   -1    0    0    0    0 -0.00000000000E+00 -0.00000000000E+00 -0.10265230341E+02  0.10265230341E+02  0.00000000000E+00 0. -1.
         13    1    1    2    0    0  0.10366859783E+02  0.67613347332E+01  0.14169062195E+02  0.18813849065E+02  0.10566000000E+00 0. -1.
        996    1    1    2    0    0 -0.10366859783E+02 -0.67613347332E+01  0.75565651650E+02  0.91451381282E+02  0.50000000000E+02 0.  0.
<mgrwt>
<rscale>  0 0.51509100E+02</rscale>
<asrwt>0</asrwt>
<pdfrwt beam="1">  1       13 0.10000000E+01 0.51509100E+02</pdfrwt>
<pdfrwt beam="2">  1       22 0.10265255E+00 0.51509100E+02</pdfrwt>
<totfact> 0.13555515E+00</totfact>
</mgrwt>
</event>
<event>
 4    1  0.2451537E+000  0.6428714E+02  0.7957747E-01  0.1380673E+00
         13   -1    0    0    0    0  0.00000000000E+00  0.00000000000E+00  0.99999944179E+02  0.10000000000E+03  0.10566000000E+00 0.  1.
         22   -1    0    0    0    0 -0.00000000000E+00 -0.00000000000E+00 -0.29348678544E+02  0.29348678544E+02  0.00000000000E+00 0. -1.
         13    1    1    2    0    0  0.30953998883E+01 -0.40289634712E+02  0.11559703168E+02  0.42029442859E+02  0.10566000000E+00 0. -1.
        996    1    1    2    0    0 -0.30953998883E+01  0.40289634712E+02  0.59091562468E+02  0.87319235684E+02  0.50000000000E+02 0.  0.
<mgrwt>
<rscale>  0 0.64287138E+02</rscale>
<asrwt>0</asrwt>
<pdfrwt beam="1">  1       13 0.10000000E+01 0.64287138E+02</pdfrwt>
<pdfrwt beam="2">  1       22 0.29348698E+00 0.64287138E+02</pdfrwt>
<totfact> 0.21898681E-01</totfact>
</mgrwt>
</event>
<event>
 4    1  0.2451537E+000  0.7809642E+02  0.7957747E-01  0.1334542E+00
         13   -1    0    0    0    0  0.00000000000E+00  0.00000000000E+00  0.99999944181E+02  0.10000000000E+03  0.10566000000E+00 0.  1.
         22   -1    0    0    0    0 -0.00000000000E+00 -0.00000000000E+00 -0.69443890337E+02  0.69443890337E+02  0.00000000000E+00 0. -1.
         13    1    1    2    0    0  0.30260510219E+02 -0.51801091281E+02 -0.33255273242E+02  0.68592826878E+02  0.10566000000E+00 0. -1.
        996    1    1    2    0    0 -0.30260510219E+02  0.51801091281E+02  0.63811327086E+02  0.10085106346E+03  0.50000000000E+02 0.  0.
<mgrwt>
<rscale>  0 0.78096425E+02</rscale>
<asrwt>0</asrwt>
<pdfrwt beam="1">  1       13 0.10000000E+01 0.78096425E+02</pdfrwt>
<pdfrwt beam="2">  1       22 0.69443899E+00 0.78096425E+02</pdfrwt>
<totfact> 0.77377249E-02</totfact>
</mgrwt>
</event>
<event>
 4    1  0.2451537E+000  0.5707319E+02  0.7957747E-01  0.1410541E+00
         13   -1    0    0    0    0  0.00000000000E+00  0.00000000000E+00  0.99999944178E+02  0.99999999998E+02  0.10566000000E+00 0.  1.
         22   -1    0    0    0    0 -0.00000000000E+00 -0.00000000000E+00 -0.29406331263E+02  0.29406331263E+02  0.00000000000E+00 0. -1.
         13    1    1    2    0    0 -0.27031945708E+02 -0.51597412475E+01 -0.11164062391E+02  0.29698425407E+02  0.10566000000E+00 0. -1.
        996    1    1    2    0    0  0.27031945708E+02  0.51597412475E+01  0.81757675306E+02  0.99707905855E+02  0.50000000000E+02 0.  0.
<mgrwt>
<rscale>  0 0.57073190E+02</rscale>
<asrwt>0</asrwt>
<pdfrwt beam="1">  1       13 0.10000000E+01 0.57073190E+02</pdfrwt>
<pdfrwt beam="2">  1       22 0.29406351E+00 0.57073190E+02</pdfrwt>
<totfact> 0.21636943E-01</totfact>
</mgrwt>
</event>
<event>
 4    1  0.2451537E+000  0.5548346E+02  0.7957747E-01  0.1417826E+00
         13   -1    0    0    0    0  0.00000000000E+00  0.00000000000E+00  0.99999944179E+02  0.99999999999E+02  0.10566000000E+00 0. -1.
         22   -1    0    0    0    0 -0.00000000000E+00 -0.00000000000E+00 -0.35034125937E+02  0.35034125937E+02  0.00000000000E+00 0.  1.
         13    1    1    2    0    0 -0.22722604451E+02  0.78801968868E+01 -0.21525393321E+02  0.32276430684E+02  0.10566000000E+00 0.  1.
        996    1    1    2    0    0  0.22722604451E+02 -0.78801968868E+01  0.86491211563E+02  0.10275769525E+03  0.50000000000E+02 0.  0.
<mgrwt>
<rscale>  0 0.55483459E+02</rscale>
<asrwt>0</asrwt>
<pdfrwt beam="1">  1       13 0.10000000E+01 0.55483459E+02</pdfrwt>
<pdfrwt beam="2">  1       22 0.35034144E+00 0.55483459E+02</pdfrwt>
<totfact> 0.15742505E-01</totfact>
</mgrwt>
</event>
<event>
 4    1  0.2451537E+000  0.5182751E+02  0.7957747E-01  0.1435727E+00
         13   -1    0    0    0    0  0.00000000000E+00  0.00000000000E+00  0.99999944177E+02  0.99999999997E+02  0.10566000000E+00 0. -1.
         22   -1    0    0    0    0 -0.00000000000E+00 -0.00000000000E+00 -0.12758870943E+02  0.12758870943E+02  0.00000000000E+00 0. -1.
         13    1    1    2    0    0  0.58845641461E+01  0.12307029534E+02  0.31844958835E+01  0.14008684778E+02  0.10566000000E+00 0.  1.
        996    1    1    2    0    0 -0.58845641461E+01 -0.12307029534E+02  0.84056577350E+02  0.98750186162E+02  0.50000000000E+02 0.  0.
<mgrwt>
<rscale>  0 0.51827513E+02</rscale>
<asrwt>0</asrwt>
<pdfrwt beam="1">  1       13 0.10000000E+01 0.51827513E+02</pdfrwt>
<pdfrwt beam="2">  1       22 0.12758895E+00 0.51827513E+02</pdfrwt>
<totfact> 0.97721641E-01</totfact>
</mgrwt>
</event>
<event>
 4    1  0.2451537E+000  0.5100620E+02  0.7957747E-01  0.1439989E+00
         13   -1    0    0    0    0  0.00000000000E+00  0.00000000000E+00  0.99999944177E+02  0.99999999997E+02  0.10566000000E+00 0. -1.
         22   -1    0    0    0    0 -0.00000000000E+00 -0.00000000000E+00 -0.10803454890E+02  0.10803454890E+02  0.00000000000E+00 0. -1.
         13    1    1    2    0    0  0.60335208131E+01 -0.80764625768E+01  0.27821358485E+01  0.10458683716E+02  0.10566000000E+00 0.  1.
        996    1    1    2    0    0 -0.60335208131E+01  0.80764625768E+01  0.86414353438E+02  0.10034477117E+03  0.50000000000E+02 0.  0.
<mgrwt>
<rscale>  0 0.51006202E+02</rscale>
<asrwt>0</asrwt>
<pdfrwt beam="1">  1       13 0.10000000E+01 0.51006202E+02</pdfrwt>
<pdfrwt beam="2">  1       22 0.10803480E+00 0.51006202E+02</pdfrwt>
<totfact> 0.12560251E+00</totfact>
</mgrwt>
</event>
<event>
 4    1  0.2451537E+000  0.6744684E+02  0.7957747E-01  0.1368997E+00
         13   -1    0    0    0    0  0.00000000000E+00  0.00000000000E+00  0.99999944186E+02  0.10000000001E+03  0.10566000000E+00 0.  1.
         22   -1    0    0    0    0 -0.00000000000E+00 -0.00000000000E+00 -0.44596881454E+02  0.44596881454E+02  0.00000000000E+00 0. -1.
         13    1    1    2    0    0 -0.37638074819E+02 -0.25148578113E+02 -0.14429507395E+02  0.47511025088E+02  0.10566000000E+00 0. -1.
        996    1    1    2    0    0  0.37638074819E+02  0.25148578113E+02  0.69832570127E+02  0.97085856373E+02  0.50000000000E+02 0.  0.
<mgrwt>
<rscale>  0 0.67446836E+02</rscale>
<asrwt>0</asrwt>
<pdfrwt beam="1">  1       13 0.10000000E+01 0.67446836E+02</pdfrwt>
<pdfrwt beam="2">  1       22 0.44596897E+00 0.67446836E+02</pdfrwt>
<totfact> 0.99467891E-02</totfact>
</mgrwt>
</event>
<event>
 4    1  0.2451537E+000  0.5247693E+02  0.7957747E-01  0.1432422E+00
         13   -1    0    0    0    0  0.00000000000E+00  0.00000000000E+00  0.99999944174E+02  0.99999999994E+02  0.10566000000E+00 0.  1.
         22   -1    0    0    0    0 -0.00000000000E+00 -0.00000000000E+00 -0.27121654105E+02  0.27121654105E+02  0.00000000000E+00 0. -1.
         13    1    1    2    0    0  0.53769760938E+01 -0.14997205659E+02 -0.16840495674E+02  0.23182784735E+02  0.10566000000E+00 0. -1.
        996    1    1    2    0    0 -0.53769760938E+01  0.14997205659E+02  0.89718785743E+02  0.10393886936E+03  0.50000000000E+02 0.  0.
<mgrwt>
<rscale>  0 0.52476929E+02</rscale>
<asrwt>0</asrwt>
<pdfrwt beam="1">  1       13 0.10000000E+01 0.52476929E+02</pdfrwt>
<pdfrwt beam="2">  1       22 0.27121674E+00 0.52476929E+02</pdfrwt>
<totfact> 0.25138301E-01</totfact>
</mgrwt>
</event>
<event>
 4    1  0.2451537E+000  0.5481245E+02  0.7957747E-01  0.1420988E+00
         13   -1    0    0    0    0  0.00000000000E+00  0.00000000000E+00  0.99999944187E+02  0.10000000001E+03  0.10566000000E+00 0.  1.
         22   -1    0    0    0    0 -0.00000000000E+00 -0.00000000000E+00 -0.14938901541E+02  0.14938901541E+02  0.00000000000E+00 0. -1.
         13    1    1    2    0    0  0.21376512273E+02 -0.68883419475E+01  0.26195011344E+02  0.34504989713E+02  0.10566000000E+00 0. -1.
        996    1    1    2    0    0 -0.21376512273E+02  0.68883419475E+01  0.58866031302E+02  0.80433911834E+02  0.50000000000E+02 0.  0.
<mgrwt>
<rscale>  0 0.54812449E+02</rscale>
<asrwt>0</asrwt>
<pdfrwt beam="1">  1       13 0.10000000E+01 0.54812449E+02</pdfrwt>
<pdfrwt beam="2">  1       22 0.14938925E+00 0.54812449E+02</pdfrwt>
<totfact> 0.76230697E-01</totfact>
</mgrwt>
</event>
<event>
 4    1  0.2451537E+000  0.6242294E+02  0.7957747E-01  0.1387936E+00
         13   -1    0    0    0    0  0.00000000000E+00  0.00000000000E+00  0.99999944185E+02  0.10000000000E+03  0.10566000000E+00 0. -1.
         22   -1    0    0    0    0 -0.00000000000E+00 -0.00000000000E+00 -0.32235101417E+02  0.32235101417E+02  0.00000000000E+00 0.  1.
         13    1    1    2    0    0  0.18447187354E+02  0.32501156067E+02 -0.34549174935E+01  0.37530940381E+02  0.10566000000E+00 0.  1.
        996    1    1    2    0    0 -0.18447187354E+02 -0.32501156067E+02  0.71219760261E+02  0.94704161041E+02  0.50000000000E+02 0.  0.
<mgrwt>
<rscale>  0 0.62422943E+02</rscale>
<asrwt>0</asrwt>
<pdfrwt beam="1">  1       13 0.10000000E+01 0.62422943E+02</pdfrwt>
<pdfrwt beam="2">  1       22 0.32235120E+00 0.62422943E+02</pdfrwt>
<totfact> 0.18364826E-01</totfact>
</mgrwt>
</event>
<event>
 4    1  0.2451537E+000  0.5152815E+02  0.7957747E-01  0.1437269E+00
         13   -1    0    0    0    0  0.00000000000E+00  0.00000000000E+00  0.99999944178E+02  0.99999999998E+02  0.10566000000E+00 0. -1.
         22   -1    0    0    0    0 -0.00000000000E+00 -0.00000000000E+00 -0.11746480323E+02  0.11746480323E+02  0.00000000000E+00 0.  1.
         13    1    1    2    0    0  0.12455848044E+02  0.40949043806E-01  0.41805930174E+01  0.13139191350E+02  0.10566000000E+00 0.  1.
        996    1    1    2    0    0 -0.12455848044E+02 -0.40949043806E-01  0.84072870838E+02  0.98607288971E+02  0.50000000000E+02 0.  0.
<mgrwt>
<rscale>  0 0.51528146E+02</rscale>
<asrwt>0</asrwt>
<pdfrwt beam="1">  1       13 0.10000000E+01 0.51528146E+02</pdfrwt>
<pdfrwt beam="2">  1       22 0.11746505E+00 0.51528146E+02</pdfrwt>
<totfact> 0.11093476E+00</totfact>
</mgrwt>
</event>
<event>
 4    1  0.2451537E+000  0.5373882E+02  0.7957747E-01  0.1426159E+00
         13   -1    0    0    0    0  0.00000000000E+00  0.00000000000E+00  0.99999944176E+02  0.99999999997E+02  0.10566000000E+00 0. -1.
         22   -1    0    0    0    0 -0.00000000000E+00 -0.00000000000E+00 -0.35132700324E+02  0.35132700324E+02  0.00000000000E+00 0.  1.
         13    1    1    2    0    0  0.19653706588E+02 -0.12619344691E+01 -0.24143796114E+02  0.31157578791E+02  0.10566000000E+00 0.  1.
        996    1    1    2    0    0 -0.19653706588E+02  0.12619344691E+01  0.89011039967E+02  0.10397512153E+03  0.50000000000E+02 0.  0.
<mgrwt>
<rscale>  0 0.53738819E+02</rscale>
<asrwt>0</asrwt>
<pdfrwt beam="1">  1       13 0.10000000E+01 0.53738819E+02</pdfrwt>
<pdfrwt beam="2">  1       22 0.35132718E+00 0.53738819E+02</pdfrwt>
<totfact> 0.15638572E-01</totfact>
</mgrwt>
</event>
<event>
 4    1  0.2451537E+000  0.5208880E+02  0.7957747E-01  0.1434390E+00
         13   -1    0    0    0    0  0.00000000000E+00  0.00000000000E+00  0.99999944189E+02  0.10000000001E+03  0.10566000000E+00 0.  1.
         22   -1    0    0    0    0 -0.00000000000E+00 -0.00000000000E+00 -0.17617245777E+02  0.17617245777E+02  0.00000000000E+00 0. -1.
         13    1    1    2    0    0  0.13362178061E+02  0.58902354649E+01 -0.53783436416E+01  0.15562147047E+02  0.10566000000E+00 0. -1.
        996    1    1    2    0    0 -0.13362178061E+02 -0.58902354649E+01  0.87761042053E+02  0.10205509874E+03  0.50000000000E+02 0.  0.
<mgrwt>
<rscale>  0 0.52088796E+02</rscale>
<asrwt>0</asrwt>
<pdfrwt beam="1">  1       13 0.10000000E+01 0.52088796E+02</pdfrwt>
<pdfrwt beam="2">  1       22 0.17617269E+00 0.52088796E+02</pdfrwt>
<totfact> 0.57099137E-01</totfact>
</mgrwt>
</event>
<event>
 4    1  0.2451537E+000  0.5104531E+02  0.7957747E-01  0.1439784E+00
         13   -1    0    0    0    0  0.00000000000E+00  0.00000000000E+00  0.99999944179E+02  0.10000000000E+03  0.10566000000E+00 0.  1.
         22   -1    0    0    0    0 -0.00000000000E+00 -0.00000000000E+00 -0.94185330133E+01  0.94185330133E+01  0.00000000000E+00 0.  1.
         13    1    1    2    0    0  0.44632418162E+01 -0.92575928620E+01  0.13487589099E+02  0.16957292733E+02  0.10566000000E+00 0. -1.
        996    1    1    2    0    0 -0.44632418162E+01  0.92575928620E+01  0.77093822067E+02  0.92461240280E+02  0.50000000000E+02 0.  0.
<mgrwt>
<rscale>  0 0.51045309E+02</rscale>
<asrwt>0</asrwt>
<pdfrwt beam="1">  1       13 0.10000000E+01 0.51045309E+02</pdfrwt>
<pdfrwt beam="2">  1       22 0.94185583E-01 0.51045309E+02</pdfrwt>
<totfact> 0.15329374E+00</totfact>
</mgrwt>
</event>
<event>
 4    1  0.2451537E+000  0.5196502E+02  0.7957747E-01  0.1435022E+00
         13   -1    0    0    0    0  0.00000000000E+00  0.00000000000E+00  0.99999944181E+02  0.10000000000E+03  0.10566000000E+00 0.  1.
         22   -1    0    0    0    0 -0.00000000000E+00 -0.00000000000E+00 -0.28826507364E+02  0.28826507364E+02  0.00000000000E+00 0. -1.
         13    1    1    2    0    0 -0.51717480712E+01  0.13176354078E+02 -0.19632192100E+02  0.24203252169E+02  0.10566000000E+00 0. -1.
        996    1    1    2    0    0  0.51717480712E+01 -0.13176354078E+02  0.90805628916E+02  0.10462325520E+03  0.50000000000E+02 0.  0.
<mgrwt>
<rscale>  0 0.51965020E+02</rscale>
<asrwt>0</asrwt>
<pdfrwt beam="1">  1       13 0.10000000E+01 0.51965020E+02</pdfrwt>
<pdfrwt beam="2">  1       22 0.28826527E+00 0.51965020E+02</pdfrwt>
<totfact> 0.22324843E-01</totfact>
</mgrwt>
</event>
<event>
 4    1  0.2451537E+000  0.6512906E+02  0.7957747E-01  0.1377487E+00
         13   -1    0    0    0    0  0.00000000000E+00  0.00000000000E+00  0.99999944176E+02  0.99999999997E+02  0.10566000000E+00 0. -1.
         22   -1    0    0    0    0 -0.00000000000E+00 -0.00000000000E+00 -0.30047737791E+02  0.30047737791E+02  0.00000000000E+00 0.  1.
         13    1    1    2    0    0 -0.40968571680E+02 -0.79605884752E+01  0.13517064108E+02  0.43869317529E+02  0.10566000000E+00 0.  1.
        996    1    1    2    0    0  0.40968571680E+02  0.79605884752E+01  0.56435142277E+02  0.86178420258E+02  0.50000000000E+02 0.  0.
<mgrwt>
<rscale>  0 0.65129063E+02</rscale>
<asrwt>0</asrwt>
<pdfrwt beam="1">  1       13 0.10000000E+01 0.65129063E+02</pdfrwt>
<pdfrwt beam="2">  1       22 0.30047757E+00 0.65129063E+02</pdfrwt>
<totfact> 0.20959838E-01</totfact>
</mgrwt>
</event>
<event>
 4    1  0.2451537E+000  0.5162600E+02  0.7957747E-01  0.1436764E+00
         13   -1    0    0    0    0  0.00000000000E+00  0.00000000000E+00  0.99999944177E+02  0.99999999997E+02  0.10566000000E+00 0. -1.
         22   -1    0    0    0    0 -0.00000000000E+00 -0.00000000000E+00 -0.10514445344E+02  0.10514445344E+02  0.00000000000E+00 0. -1.
         13    1    1    2    0    0  0.94883478135E+01  0.86726648306E+01  0.22877490582E+02  0.26241848236E+02  0.10566000000E+00 0.  1.
        996    1    1    2    0    0 -0.94883478135E+01 -0.86726648306E+01  0.66608008252E+02  0.84272597105E+02  0.50000000000E+02 0.  0.
<mgrwt>
<rscale>  0 0.51626000E+02</rscale>
<asrwt>0</asrwt>
<pdfrwt beam="1">  1       13 0.10000000E+01 0.51626000E+02</pdfrwt>
<pdfrwt beam="2">  1       22 0.10514470E+00 0.51626000E+02</pdfrwt>
<totfact> 0.13091572E+00</totfact>
</mgrwt>
</event>
<event>
 4    1  0.2451537E+000  0.7751943E+02  0.7957747E-01  0.1336242E+00
         13   -1    0    0    0    0  0.00000000000E+00  0.00000000000E+00  0.99999944184E+02  0.10000000000E+03  0.10566000000E+00 0.  1.
         22   -1    0    0    0    0 -0.00000000000E+00 -0.00000000000E+00 -0.47270199145E+02  0.47270199145E+02  0.00000000000E+00 0. -1.
         13    1    1    2    0    0 -0.49235583039E+02  0.32941156471E+02  0.15276399542E+02  0.61177136038E+02  0.10566000000E+00 0. -1.
        996    1    1    2    0    0  0.49235583039E+02 -0.32941156471E+02  0.37453345497E+02  0.86093063110E+02  0.50000000000E+02 0.  0.
<mgrwt>
<rscale>  0 0.77519433E+02</rscale>
<asrwt>0</asrwt>
<pdfrwt beam="1">  1       13 0.10000000E+01 0.77519433E+02</pdfrwt>
<pdfrwt beam="2">  1       22 0.47270214E+00 0.77519433E+02</pdfrwt>
<totfact> 0.86543920E-02</totfact>
</mgrwt>
</event>
<event>
 4    1  0.2451537E+000  0.5551845E+02  0.7957747E-01  0.1417663E+00
         13   -1    0    0    0    0  0.00000000000E+00  0.00000000000E+00  0.99999944181E+02  0.10000000000E+03  0.10566000000E+00 0.  1.
         22   -1    0    0    0    0 -0.00000000000E+00 -0.00000000000E+00 -0.31057395180E+02  0.31057395180E+02  0.00000000000E+00 0. -1.
         13    1    1    2    0    0 -0.45394047569E+00  0.24126590905E+02 -0.16449278400E+02  0.29204252679E+02  0.10566000000E+00 0. -1.
        996    1    1    2    0    0  0.45394047569E+00 -0.24126590905E+02  0.85391827401E+02  0.10185314250E+03  0.50000000000E+02 0.  0.
<mgrwt>
<rscale>  0 0.55518451E+02</rscale>
<asrwt>0</asrwt>
<pdfrwt beam="1">  1       13 0.10000000E+01 0.55518451E+02</pdfrwt>
<pdfrwt beam="2">  1       22 0.31057414E+00 0.55518451E+02</pdfrwt>
<totfact> 0.19503811E-01</totfact>
</mgrwt>
</event>
<event>
 4    1  0.2451537E+000  0.5158958E+02  0.7957747E-01  0.1436952E+00
         13   -1    0    0    0    0  0.00000000000E+00  0.00000000000E+00  0.99999944179E+02  0.99999999999E+02  0.10566000000E+00 0.  1.
         22   -1    0    0    0    0 -0.00000000000E+00 -0.00000000000E+00 -0.16863877884E+02  0.16863877884E+02  0.00000000000E+00 0. -1.
         13    1    1    2    0    0 -0.10631043625E+02  0.69617379258E+01 -0.58615162587E+01  0.13994764035E+02  0.10566000000E+00 0. -1.
        996    1    1    2    0    0  0.10631043625E+02 -0.69617379258E+01  0.88997582554E+02  0.10286911385E+03  0.50000000000E+02 0.  0.
<mgrwt>
<rscale>  0 0.51589581E+02</rscale>
<asrwt>0</asrwt>
<pdfrwt beam="1">  1       13 0.10000000E+01 0.51589581E+02</pdfrwt>
<pdfrwt beam="2">  1       22 0.16863901E+00 0.51589581E+02</pdfrwt>
<totfact> 0.61610159E-01</totfact>
</mgrwt>
</event>
<event>
 4    1  0.2451537E+000  0.5428562E+02  0.7957747E-01  0.1423508E+00
         13   -1    0    0    0    0  0.00000000000E+00  0.00000000000E+00  0.99999944182E+02  0.10000000000E+03  0.10566000000E+00 0.  1.
         22   -1    0    0    0    0 -0.00000000000E+00 -0.00000000000E+00 -0.14242068657E+02  0.14242068657E+02  0.00000000000E+00 0. -1.
         13    1    1    2    0    0 -0.11495284260E+02  0.17742231789E+02  0.22178907900E+02  0.30640552683E+02  0.10566000000E+00 0. -1.
        996    1    1    2    0    0  0.11495284260E+02 -0.17742231789E+02  0.63578967626E+02  0.83601515976E+02  0.50000000000E+02 0.  0.
<mgrwt>
<rscale>  0 0.54285618E+02</rscale>
<asrwt>0</asrwt>
<pdfrwt beam="1">  1       13 0.10000000E+01 0.54285618E+02</pdfrwt>
<pdfrwt beam="2">  1       22 0.14242093E+00 0.54285618E+02</pdfrwt>
<totfact> 0.82392584E-01</totfact>
</mgrwt>
</event>
<event>
 4    1  0.2451537E+000  0.5182557E+02  0.7957747E-01  0.1435737E+00
         13   -1    0    0    0    0  0.00000000000E+00  0.00000000000E+00  0.99999944178E+02  0.99999999998E+02  0.10566000000E+00 0.  1.
         22   -1    0    0    0    0 -0.00000000000E+00 -0.00000000000E+00 -0.16332554815E+02  0.16332554815E+02  0.00000000000E+00 0.  1.
         13    1    1    2    0    0  0.12227276870E+02  0.60318245947E+01 -0.42459820635E+01  0.14280361876E+02  0.10566000000E+00 0. -1.
        996    1    1    2    0    0 -0.12227276870E+02 -0.60318245947E+01  0.87913371426E+02  0.10205219294E+03  0.50000000000E+02 0.  0.
<mgrwt>
<rscale>  0 0.51825565E+02</rscale>
<asrwt>0</asrwt>
<pdfrwt beam="1">  1       13 0.10000000E+01 0.51825565E+02</pdfrwt>
<pdfrwt beam="2">  1       22 0.16332578E+00 0.51825565E+02</pdfrwt>
<totfact> 0.65159189E-01</totfact>
</mgrwt>
</event>
<event>
 4    1  0.2451537E+000  0.5293733E+02  0.7957747E-01  0.1430113E+00
         13   -1    0    0    0    0  0.00000000000E+00  0.00000000000E+00  0.99999944180E+02  0.10000000000E+03  0.10566000000E+00 0. -1.
         22   -1    0    0    0    0 -0.00000000000E+00 -0.00000000000E+00 -0.12813940675E+02  0.12813940675E+02  0.00000000000E+00 0.  1.
         13    1    1    2    0    0  0.39720927196E+01  0.16928774852E+02  0.13159970024E+02  0.21807267450E+02  0.10566000000E+00 0.  1.
        996    1    1    2    0    0 -0.39720927196E+01 -0.16928774852E+02  0.74026033482E+02  0.91006673225E+02  0.50000000000E+02 0.  0.
<mgrwt>
<rscale>  0 0.52937330E+02</rscale>
<asrwt>0</asrwt>
<pdfrwt beam="1">  1       13 0.10000000E+01 0.52937330E+02</pdfrwt>
<pdfrwt beam="2">  1       22 0.12813965E+00 0.52937330E+02</pdfrwt>
<totfact> 0.97297891E-01</totfact>
</mgrwt>
</event>
<event>
 4    1  0.2451537E+000  0.5125440E+02  0.7957747E-01  0.1438691E+00
         13   -1    0    0    0    0  0.00000000000E+00  0.00000000000E+00  0.99999944179E+02  0.99999999999E+02  0.10566000000E+00 0.  1.
         22   -1    0    0    0    0 -0.00000000000E+00 -0.00000000000E+00 -0.10898761318E+02  0.10898761318E+02  0.00000000000E+00 0.  1.
         13    1    1    2    0    0  0.66318543424E+01 -0.91121960893E+01  0.48235225055E+01  0.12259328815E+02  0.10566000000E+00 0. -1.
        996    1    1    2    0    0 -0.66318543424E+01  0.91121960893E+01  0.84277660355E+02  0.98639432503E+02  0.50000000000E+02 0.  0.
<mgrwt>
<rscale>  0 0.51254401E+02</rscale>
<asrwt>0</asrwt>
<pdfrwt beam="1">  1       13 0.10000000E+01 0.51254401E+02</pdfrwt>
<pdfrwt beam="2">  1       22 0.10898786E+00 0.51254401E+02</pdfrwt>
<totfact> 0.12405182E+00</totfact>
</mgrwt>
</event>
<event>
 4    1  0.2451537E+000  0.6268936E+02  0.7957747E-01  0.1386880E+00
         13   -1    0    0    0    0  0.00000000000E+00  0.00000000000E+00  0.99999944176E+02  0.99999999996E+02  0.10566000000E+00 0.  1.
         22   -1    0    0    0    0 -0.00000000000E+00 -0.00000000000E+00 -0.25282108972E+02  0.25282108972E+02  0.00000000000E+00 0. -1.
         13    1    1    2    0    0  0.25090860615E+01 -0.37731419309E+02  0.30191977160E+02  0.48389277375E+02  0.10566000000E+00 0. -1.
        996    1    1    2    0    0 -0.25090860615E+01  0.37731419309E+02  0.44525858043E+02  0.76892831593E+02  0.50000000000E+02 0.  0.
<mgrwt>
<rscale>  0 0.62689357E+02</rscale>
<asrwt>0</asrwt>
<pdfrwt beam="1">  1       13 0.10000000E+01 0.62689357E+02</pdfrwt>
<pdfrwt beam="2">  1       22 0.25282130E+00 0.62689357E+02</pdfrwt>
<totfact> 0.29272183E-01</totfact>
</mgrwt>
</event>
<event>
 4    1  0.2451537E+000  0.5340700E+02  0.7957747E-01  0.1427786E+00
         13   -1    0    0    0    0  0.00000000000E+00  0.00000000000E+00  0.99999944179E+02  0.10000000000E+03  0.10566000000E+00 0.  1.
         22   -1    0    0    0    0 -0.00000000000E+00 -0.00000000000E+00 -0.13028788690E+02  0.13028788690E+02  0.00000000000E+00 0.  1.
         13    1    1    2    0    0 -0.12743470950E+02  0.13780833686E+02  0.21657848051E+02  0.28659744855E+02  0.10566000000E+00 0. -1.
        996    1    1    2    0    0  0.12743470950E+02 -0.13780833686E+02  0.65313307439E+02  0.84369043835E+02  0.50000000000E+02 0.  0.
<mgrwt>
<rscale>  0 0.53406998E+02</rscale>
<asrwt>0</asrwt>
<pdfrwt beam="1">  1       13 0.10000000E+01 0.53406998E+02</pdfrwt>
<pdfrwt beam="2">  1       22 0.13028813E+00 0.53406998E+02</pdfrwt>
<totfact> 0.94880357E-01</totfact>
</mgrwt>
</event>
<event>
 4    1  0.2451537E+000  0.5202915E+02  0.7957747E-01  0.1434694E+00
         13   -1    0    0    0    0  0.00000000000E+00  0.00000000000E+00  0.99999944181E+02  0.10000000000E+03  0.10566000000E+00 0.  1.
         22   -1    0    0    0    0 -0.00000000000E+00 -0.00000000000E+00 -0.18654465238E+02  0.18654465238E+02  0.00000000000E+00 0. -1.
         13    1    1    2    0    0 -0.14083997162E+02  0.29450037130E+01 -0.70962499830E+01  0.16043688815E+02  0.10566000000E+00 0. -1.
        996    1    1    2    0    0  0.14083997162E+02 -0.29450037130E+01  0.88441728926E+02  0.10261077642E+03  0.50000000000E+02 0.  0.
<mgrwt>
<rscale>  0 0.52029146E+02</rscale>
<asrwt>0</asrwt>
<pdfrwt beam="1">  1       13 0.10000000E+01 0.52029146E+02</pdfrwt>
<pdfrwt beam="2">  1       22 0.18654488E+00 0.52029146E+02</pdfrwt>
<totfact> 0.51512373E-01</totfact>
</mgrwt>
</event>
<event>
 4    1  0.2451537E+000  0.5154266E+02  0.7957747E-01  0.1437194E+00
         13   -1    0    0    0    0  0.00000000000E+00  0.00000000000E+00  0.99999944180E+02  0.10000000000E+03  0.10566000000E+00 0.  1.
         22   -1    0    0    0    0 -0.00000000000E+00 -0.00000000000E+00 -0.16030538716E+02  0.16030538716E+02  0.00000000000E+00 0. -1.
         13    1    1    2    0    0  0.19961959941E+01 -0.12355597541E+02 -0.47813760226E+01  0.13398444303E+02  0.10566000000E+00 0. -1.
        996    1    1    2    0    0 -0.19961959941E+01  0.12355597541E+02  0.88750781487E+02  0.10263209441E+03  0.50000000000E+02 0.  0.
<mgrwt>
<rscale>  0 0.51542658E+02</rscale>
<asrwt>0</asrwt>
<pdfrwt beam="1">  1       13 0.10000000E+01 0.51542658E+02</pdfrwt>
<pdfrwt beam="2">  1       22 0.16030562E+00 0.51542658E+02</pdfrwt>
<totfact> 0.67243477E-01</totfact>
</mgrwt>
</event>
<event>
 4    1  0.2451537E+000  0.5510994E+02  0.7957747E-01  0.1419580E+00
         13   -1    0    0    0    0  0.00000000000E+00  0.00000000000E+00  0.99999944176E+02  0.99999999996E+02  0.10566000000E+00 0. -1.
         22   -1    0    0    0    0 -0.00000000000E+00 -0.00000000000E+00 -0.19659960636E+02  0.19659960636E+02  0.00000000000E+00 0.  1.
         13    1    1    2    0    0  0.19082944536E+02  0.13150913167E+02  0.11800130069E+01  0.23205794190E+02  0.10566000000E+00 0.  1.
        996    1    1    2    0    0 -0.19082944536E+02 -0.13150913167E+02  0.79159970533E+02  0.96454166442E+02  0.50000000000E+02 0.  0.
<mgrwt>
<rscale>  0 0.55109938E+02</rscale>
<asrwt>0</asrwt>
<pdfrwt beam="1">  1       13 0.10000000E+01 0.55109938E+02</pdfrwt>
<pdfrwt beam="2">  1       22 0.19659983E+00 0.55109938E+02</pdfrwt>
<totfact> 0.47032099E-01</totfact>
</mgrwt>
</event>
<event>
 4    1  0.2451537E+000  0.6073739E+02  0.7957747E-01  0.1394763E+00
         13   -1    0    0    0    0  0.00000000000E+00  0.00000000000E+00  0.99999944177E+02  0.99999999997E+02  0.10566000000E+00 0.  1.
         22   -1    0    0    0    0 -0.00000000000E+00 -0.00000000000E+00 -0.54092490193E+02  0.54092490193E+02  0.00000000000E+00 0. -1.
         13    1    1    2    0    0 -0.16659087683E+01 -0.34442058240E+02 -0.37480466234E+02  0.50929629304E+02  0.10566000000E+00 0. -1.
        996    1    1    2    0    0  0.16659087683E+01  0.34442058240E+02  0.83387920219E+02  0.10316286089E+03  0.50000000000E+02 0.  0.
<mgrwt>
<rscale>  0 0.60737391E+02</rscale>
<asrwt>0</asrwt>
<pdfrwt beam="1">  1       13 0.10000000E+01 0.60737391E+02</pdfrwt>
<pdfrwt beam="2">  1       22 0.54092503E+00 0.60737391E+02</pdfrwt>
<totfact> 0.60582557E-02</totfact>
</mgrwt>
</event>
<event>
 4    1  0.2451537E+000  0.5129863E+02  0.7957747E-01  0.1438460E+00
         13   -1    0    0    0    0  0.00000000000E+00  0.00000000000E+00  0.99999944180E+02  0.10000000000E+03  0.10566000000E+00 0. -1.
         22   -1    0    0    0    0 -0.00000000000E+00 -0.00000000000E+00 -0.10481762894E+02  0.10481762894E+02  0.00000000000E+00 0. -1.
         13    1    1    2    0    0  0.11026743074E+02  0.31560350722E+01  0.28765742708E+02  0.30968189126E+02  0.10566000000E+00 0.  1.
        996    1    1    2    0    0 -0.11026743074E+02 -0.31560350722E+01  0.60752438578E+02  0.79513573768E+02  0.50000000000E+02 0.  0.
<mgrwt>
<rscale>  0 0.51298632E+02</rscale>
<asrwt>0</asrwt>
<pdfrwt beam="1">  1       13 0.10000000E+01 0.51298632E+02</pdfrwt>
<pdfrwt beam="2">  1       22 0.10481788E+00 0.51298632E+02</pdfrwt>
<totfact> 0.13141289E+00</totfact>
</mgrwt>
</event>
<event>
 4    1  0.2451537E+000  0.5590644E+02  0.7957747E-01  0.1415860E+00
         13   -1    0    0    0    0  0.00000000000E+00  0.00000000000E+00  0.99999944175E+02  0.99999999995E+02  0.10566000000E+00 0.  1.
         22   -1    0    0    0    0 -0.00000000000E+00 -0.00000000000E+00 -0.66705338961E+02  0.66705338961E+02  0.00000000000E+00 0. -1.
         13    1    1    2    0    0 -0.23945350945E+02  0.72215289806E+01 -0.56012421652E+02  0.61342749009E+02  0.10566000000E+00 0. -1.
        996    1    1    2    0    0  0.23945350945E+02 -0.72215289806E+01  0.89307026866E+02  0.10536258995E+03  0.50000000000E+02 0.  0.
<mgrwt>
<rscale>  0 0.55906442E+02</rscale>
<asrwt>0</asrwt>
<pdfrwt beam="1">  1       13 0.10000000E+01 0.55906442E+02</pdfrwt>
<pdfrwt beam="2">  1       22 0.66705348E+00 0.55906442E+02</pdfrwt>
<totfact> 0.86756558E-02</totfact>
</mgrwt>
</event>
<event>
 4    1  0.2451537E+000  0.5101094E+02  0.7957747E-01  0.1439964E+00
         13   -1    0    0    0    0  0.00000000000E+00  0.00000000000E+00  0.99999944183E+02  0.10000000000E+03  0.10566000000E+00 0. -1.
         22   -1    0    0    0    0 -0.00000000000E+00 -0.00000000000E+00 -0.32147309537E+02  0.32147309537E+02  0.00000000000E+00 0.  1.
         13    1    1    2    0    0 -0.53308088180E+01 -0.85847778262E+01 -0.24578198525E+02  0.26574704885E+02  0.10566000000E+00 0.  1.
        996    1    1    2    0    0  0.53308088180E+01  0.85847778262E+01  0.92430833171E+02  0.10557260466E+03  0.50000000000E+02 0.  0.
<mgrwt>
<rscale>  0 0.51010939E+02</rscale>
<asrwt>0</asrwt>
<pdfrwt beam="1">  1       13 0.10000000E+01 0.51010939E+02</pdfrwt>
<pdfrwt beam="2">  1       22 0.32147328E+00 0.51010939E+02</pdfrwt>
<totfact> 0.18225693E-01</totfact>
</mgrwt>
</event>
<event>
 4    1  0.2451537E+000  0.5676155E+02  0.7957747E-01  0.1411947E+00
         13   -1    0    0    0    0  0.00000000000E+00  0.00000000000E+00  0.99999944174E+02  0.99999999994E+02  0.10566000000E+00 0.  1.
         22   -1    0    0    0    0 -0.00000000000E+00 -0.00000000000E+00 -0.65764827720E+02  0.65764827720E+02  0.00000000000E+00 0. -1.
         13    1    1    2    0    0  0.24731068458E+00 -0.26866556945E+02 -0.54307515929E+02  0.60590349851E+02  0.10566000000E+00 0. -1.
        996    1    1    2    0    0 -0.24731068458E+00  0.26866556945E+02  0.88542632382E+02  0.10517447786E+03  0.50000000000E+02 0.  0.
<mgrwt>
<rscale>  0 0.56761545E+02</rscale>
<asrwt>0</asrwt>
<pdfrwt beam="1">  1       13 0.10000000E+01 0.56761545E+02</pdfrwt>
<pdfrwt beam="2">  1       22 0.65764837E+00 0.56761545E+02</pdfrwt>
<totfact> 0.87237958E-02</totfact>
</mgrwt>
</event>
<event>
 4    1  0.2451537E+000  0.5122031E+02  0.7957747E-01  0.1438869E+00
         13   -1    0    0    0    0  0.00000000000E+00  0.00000000000E+00  0.99999944186E+02  0.10000000001E+03  0.10566000000E+00 0.  1.
         22   -1    0    0    0    0 -0.00000000000E+00 -0.00000000000E+00 -0.97174378953E+01  0.97174378953E+01  0.00000000000E+00 0.  1.
         13    1    1    2    0    0  0.28597737430E+01 -0.10739710350E+02  0.15320890907E+02  0.18927771831E+02  0.10566000000E+00 0. -1.
        996    1    1    2    0    0 -0.28597737430E+01  0.10739710350E+02  0.74961615383E+02  0.90789666070E+02  0.50000000000E+02 0.  0.
<mgrwt>
<rscale>  0 0.51220305E+02</rscale>
<asrwt>0</asrwt>
<pdfrwt beam="1">  1       13 0.10000000E+01 0.51220305E+02</pdfrwt>
<pdfrwt beam="2">  1       22 0.97174631E-01 0.51220305E+02</pdfrwt>
<totfact> 0.14665338E+00</totfact>
</mgrwt>
</event>
<event>
 4    1  0.2451537E+000  0.6098327E+02  0.7957747E-01  0.1393751E+00
         13   -1    0    0    0    0  0.00000000000E+00  0.00000000000E+00  0.99999944177E+02  0.99999999997E+02  0.10566000000E+00 0. -1.
         22   -1    0    0    0    0 -0.00000000000E+00 -0.00000000000E+00 -0.32907761114E+02  0.32907761114E+02  0.00000000000E+00 0.  1.
         13    1    1    2    0    0 -0.16363485476E+02  0.30841452417E+02 -0.83517415558E+01  0.35898768714E+02  0.10566000000E+00 0.  1.
        996    1    1    2    0    0  0.16363485476E+02 -0.30841452417E+02  0.75443924619E+02  0.97008992397E+02  0.50000000000E+02 0.  0.
<mgrwt>
<rscale>  0 0.60983267E+02</rscale>
<asrwt>0</asrwt>
<pdfrwt beam="1">  1       13 0.10000000E+01 0.60983267E+02</pdfrwt>
<pdfrwt beam="2">  1       22 0.32907780E+00 0.60983267E+02</pdfrwt>
<totfact> 0.17672749E-01</totfact>
</mgrwt>
</event>
<event>
 4    1  0.2451537E+000  0.5147595E+02  0.7957747E-01  0.1437539E+00
         13   -1    0    0    0    0  0.00000000000E+00  0.00000000000E+00  0.99999944177E+02  0.99999999997E+02  0.10566000000E+00 0. -1.
         22   -1    0    0    0    0 -0.00000000000E+00 -0.00000000000E+00 -0.51503515353E+02  0.51503515353E+02  0.00000000000E+00 0.  1.
         13    1    1    2    0    0  0.27994567219E+01  0.11913702234E+02 -0.43987884353E+02  0.45658716504E+02  0.10566000000E+00 0.  1.
        996    1    1    2    0    0 -0.27994567219E+01 -0.11913702234E+02  0.92484313177E+02  0.10584479885E+03  0.50000000000E+02 0.  0.
<mgrwt>
<rscale>  0 0.51475948E+02</rscale>
<asrwt>0</asrwt>
<pdfrwt beam="1">  1       13 0.10000000E+01 0.51475948E+02</pdfrwt>
<pdfrwt beam="2">  1       22 0.51503529E+00 0.51475948E+02</pdfrwt>
<totfact> 0.67949392E-02</totfact>
</mgrwt>
</event>
<event>
 4    1  0.2451537E+000  0.5144634E+02  0.7957747E-01  0.1437693E+00
         13   -1    0    0    0    0  0.00000000000E+00  0.00000000000E+00  0.99999944184E+02  0.10000000000E+03  0.10566000000E+00 0.  1.
         22   -1    0    0    0    0 -0.00000000000E+00 -0.00000000000E+00 -0.18214371726E+02  0.18214371726E+02  0.00000000000E+00 0. -1.
         13    1    1    2    0    0  0.12113043462E+02  0.42556623618E-02 -0.81527354850E+01  0.14601510194E+02  0.10566000000E+00 0. -1.
        996    1    1    2    0    0 -0.12113043462E+02 -0.42556623618E-02  0.89938307943E+02  0.10361286154E+03  0.50000000000E+02 0.  0.
<mgrwt>
<rscale>  0 0.51446339E+02</rscale>
<asrwt>0</asrwt>
<pdfrwt beam="1">  1       13 0.10000000E+01 0.51446339E+02</pdfrwt>
<pdfrwt beam="2">  1       22 0.18214395E+00 0.51446339E+02</pdfrwt>
<totfact> 0.53727620E-01</totfact>
</mgrwt>
</event>
<event>
 4    1  0.2451537E+000  0.5141340E+02  0.7957747E-01  0.1437864E+00
         13   -1    0    0    0    0  0.00000000000E+00  0.00000000000E+00  0.99999944173E+02  0.99999999994E+02  0.10566000000E+00 0. -1.
         22   -1    0    0    0    0 -0.00000000000E+00 -0.00000000000E+00 -0.59296246688E+02  0.59296246688E+02  0.00000000000E+00 0.  1.
         13    1    1    2    0    0  0.62028214247E+01 -0.10240266781E+02 -0.51961866034E+02  0.53323397708E+02  0.10566000000E+00 0.  1.
        996    1    1    2    0    0 -0.62028214247E+01  0.10240266781E+02  0.92665563519E+02  0.10597284897E+03  0.50000000000E+02 0.  0.
<mgrwt>
<rscale>  0 0.51413403E+02</rscale>
<asrwt>0</asrwt>
<pdfrwt beam="1">  1       13 0.10000000E+01 0.51413403E+02</pdfrwt>
<pdfrwt beam="2">  1       22 0.59296258E+00 0.51413403E+02</pdfrwt>
<totfact> 0.61256246E-02</totfact>
</mgrwt>
</event>
<event>
 4    1  0.2451537E+000  0.5133643E+02  0.7957747E-01  0.1438264E+00
         13   -1    0    0    0    0  0.00000000000E+00  0.00000000000E+00  0.99999944186E+02  0.10000000001E+03  0.10566000000E+00 0.  1.
         22   -1    0    0    0    0 -0.00000000000E+00 -0.00000000000E+00 -0.19894322895E+02  0.19894322895E+02  0.00000000000E+00 0. -1.
         13    1    1    2    0    0 -0.65458481873E+01 -0.96218808384E+01 -0.10552838911E+02  0.15709942472E+02  0.10566000000E+00 0. -1.
        996    1    1    2    0    0  0.65458481873E+01  0.96218808384E+01  0.90658460201E+02  0.10418438043E+03  0.50000000000E+02 0.  0.
<mgrwt>
<rscale>  0 0.51336427E+02</rscale>
<asrwt>0</asrwt>
<pdfrwt beam="1">  1       13 0.10000000E+01 0.51336427E+02</pdfrwt>
<pdfrwt beam="2">  1       22 0.19894345E+00 0.51336427E+02</pdfrwt>
<totfact> 0.45702439E-01</totfact>
</mgrwt>
</event>
<event>
 4    1  0.2451537E+000  0.5324063E+02  0.7957747E-01  0.1428607E+00
         13   -1    0    0    0    0  0.00000000000E+00  0.00000000000E+00  0.99999944180E+02  0.10000000000E+03  0.10566000000E+00 0.  1.
         22   -1    0    0    0    0 -0.00000000000E+00 -0.00000000000E+00 -0.22564487017E+02  0.22564487017E+02  0.00000000000E+00 0. -1.
         13    1    1    2    0    0 -0.36200388589E+01  0.17929292319E+02 -0.95078987595E+01  0.20614934084E+02  0.10566000000E+00 0. -1.
        996    1    1    2    0    0  0.36200388589E+01 -0.17929292319E+02  0.86943355922E+02  0.10194955293E+03  0.50000000000E+02 0.  0.
<mgrwt>
<rscale>  0 0.53240626E+02</rscale>
<asrwt>0</asrwt>
<pdfrwt beam="1">  1       13 0.10000000E+01 0.53240626E+02</pdfrwt>
<pdfrwt beam="2">  1       22 0.22564509E+00 0.53240626E+02</pdfrwt>
<totfact> 0.36091388E-01</totfact>
</mgrwt>
</event>
<event>
 4    1  0.2451537E+000  0.5183823E+02  0.7957747E-01  0.1435671E+00
         13   -1    0    0    0    0  0.00000000000E+00  0.00000000000E+00  0.99999944180E+02  0.10000000000E+03  0.10566000000E+00 0. -1.
         22   -1    0    0    0    0 -0.00000000000E+00 -0.00000000000E+00 -0.22112927687E+02  0.22112927687E+02  0.00000000000E+00 0.  1.
         13    1    1    2    0    0  0.13160202747E+02 -0.37432084820E+01 -0.12098267177E+02  0.18264221276E+02  0.10566000000E+00 0.  1.
        996    1    1    2    0    0 -0.13160202747E+02  0.37432084820E+01  0.89985283671E+02  0.10384870641E+03  0.50000000000E+02 0.  0.
<mgrwt>
<rscale>  0 0.51838234E+02</rscale>
<asrwt>0</asrwt>
<pdfrwt beam="1">  1       13 0.10000000E+01 0.51838234E+02</pdfrwt>
<pdfrwt beam="2">  1       22 0.22112949E+00 0.51838234E+02</pdfrwt>
<totfact> 0.37439986E-01</totfact>
</mgrwt>
</event>
<event>
 4    1  0.2451537E+000  0.5148428E+02  0.7957747E-01  0.1437496E+00
         13   -1    0    0    0    0  0.00000000000E+00  0.00000000000E+00  0.99999944179E+02  0.99999999999E+02  0.10566000000E+00 0. -1.
         22   -1    0    0    0    0 -0.00000000000E+00 -0.00000000000E+00 -0.23420289772E+02  0.23420289772E+02  0.00000000000E+00 0. -1.
         13    1    1    2    0    0  0.81218290664E+01  0.92014641591E+01  0.70520593601E+02  0.71580698068E+02  0.10566000000E+00 0.  1.
        996    1    1    2    0    0 -0.81218290664E+01 -0.92014641591E+01  0.60590608068E+01  0.51839591703E+02  0.50000000000E+02 0.  0.
<mgrwt>
<rscale>  0 0.51484280E+02</rscale>
<asrwt>0</asrwt>
<pdfrwt beam="1">  1       13 0.10000000E+01 0.51484280E+02</pdfrwt>
<pdfrwt beam="2">  1       22 0.23420311E+00 0.51484280E+02</pdfrwt>
<totfact> 0.33475000E-01</totfact>
</mgrwt>
</event>
<event>
 4    1  0.2451537E+000  0.5199153E+02  0.7957747E-01  0.1434886E+00
         13   -1    0    0    0    0  0.00000000000E+00  0.00000000000E+00  0.99999944180E+02  0.10000000000E+03  0.10566000000E+00 0.  1.
         22   -1    0    0    0    0 -0.00000000000E+00 -0.00000000000E+00 -0.61732980595E+02  0.61732980595E+02  0.00000000000E+00 0. -1.
         13    1    1    2    0    0  0.40805476307E+01  0.13655355243E+02 -0.53987329009E+02  0.55836927327E+02  0.10566000000E+00 0. -1.
        996    1    1    2    0    0 -0.40805476307E+01 -0.13655355243E+02  0.92254292594E+02  0.10589605327E+03  0.50000000000E+02 0.  0.
<mgrwt>
<rscale>  0 0.51991534E+02</rscale>
<asrwt>0</asrwt>
<pdfrwt beam="1">  1       13 0.10000000E+01 0.51991534E+02</pdfrwt>
<pdfrwt beam="2">  1       22 0.61732991E+00 0.51991534E+02</pdfrwt>
<totfact> 0.71349865E-02</totfact>
</mgrwt>
</event>
<event>
 4    1  0.2451537E+000  0.5318302E+02  0.7957747E-01  0.1428892E+00
         13   -1    0    0    0    0  0.00000000000E+00  0.00000000000E+00  0.99999944180E+02  0.10000000000E+03  0.10566000000E+00 0.  1.
         22   -1    0    0    0    0 -0.00000000000E+00 -0.00000000000E+00 -0.22262242015E+02  0.22262242015E+02  0.00000000000E+00 0. -1.
         13    1    1    2    0    0 -0.24265419988E+01 -0.17959566797E+02 -0.92176716622E+01  0.20332505515E+02  0.10566000000E+00 0. -1.
        996    1    1    2    0    0  0.24265419988E+01  0.17959566797E+02  0.86955373827E+02  0.10192973650E+03  0.50000000000E+02 0.  0.
<mgrwt>
<rscale>  0 0.53183025E+02</rscale>
<asrwt>0</asrwt>
<pdfrwt beam="1">  1       13 0.10000000E+01 0.53183025E+02</pdfrwt>
<pdfrwt beam="2">  1       22 0.22262264E+00 0.53183025E+02</pdfrwt>
<totfact> 0.37041107E-01</totfact>
</mgrwt>
</event>
<event>
 4    1  0.2451537E+000  0.5255692E+02  0.7957747E-01  0.1432019E+00
         13   -1    0    0    0    0  0.00000000000E+00  0.00000000000E+00  0.99999944175E+02  0.99999999995E+02  0.10566000000E+00 0. -1.
         22   -1    0    0    0    0 -0.00000000000E+00 -0.00000000000E+00 -0.37559152951E+02  0.37559152951E+02  0.00000000000E+00 0.  1.
         13    1    1    2    0    0  0.12325354391E+02  0.10503094264E+02 -0.28352541099E+02  0.32651295545E+02  0.10566000000E+00 0.  1.
        996    1    1    2    0    0 -0.12325354391E+02 -0.10503094264E+02  0.90793332323E+02  0.10490785740E+03  0.50000000000E+02 0.  0.
<mgrwt>
<rscale>  0 0.52556915E+02</rscale>
<asrwt>0</asrwt>
<pdfrwt beam="1">  1       13 0.10000000E+01 0.52556915E+02</pdfrwt>
<pdfrwt beam="2">  1       22 0.37559170E+00 0.52556915E+02</pdfrwt>
<totfact> 0.13888819E-01</totfact>
</mgrwt>
</event>
<event>
 4    1  0.2451537E+000  0.5244069E+02  0.7957747E-01  0.1432605E+00
         13   -1    0    0    0    0  0.00000000000E+00  0.00000000000E+00  0.99999944173E+02  0.99999999993E+02  0.10566000000E+00 0.  1.
         22   -1    0    0    0    0 -0.00000000000E+00 -0.00000000000E+00 -0.62307707018E+02  0.62307707018E+02  0.00000000000E+00 0. -1.
         13    1    1    2    0    0 -0.12949322946E+02 -0.90741955576E+01 -0.54224882575E+02  0.56483405033E+02  0.10566000000E+00 0. -1.
        996    1    1    2    0    0  0.12949322946E+02  0.90741955576E+01  0.91917119730E+02  0.10582430198E+03  0.50000000000E+02 0.  0.
<mgrwt>
<rscale>  0 0.52440690E+02</rscale>
<asrwt>0</asrwt>
<pdfrwt beam="1">  1       13 0.10000000E+01 0.52440690E+02</pdfrwt>
<pdfrwt beam="2">  1       22 0.62307718E+00 0.52440690E+02</pdfrwt>
<totfact> 0.74729355E-02</totfact>
</mgrwt>
</event>
<event>
 4    1  0.2451537E+000  0.5285468E+02  0.7957747E-01  0.1430525E+00
         13   -1    0    0    0    0  0.00000000000E+00  0.00000000000E+00  0.99999944178E+02  0.99999999998E+02  0.10566000000E+00 0.  1.
         22   -1    0    0    0    0 -0.00000000000E+00 -0.00000000000E+00 -0.15087520412E+02  0.15087520412E+02  0.00000000000E+00 0. -1.
         13    1    1    2    0    0 -0.71323153263E+01  0.15580343143E+02  0.26946953931E+01  0.17346168501E+02  0.10566000000E+00 0. -1.
        996    1    1    2    0    0  0.71323153263E+01 -0.15580343143E+02  0.82217728372E+02  0.97741351909E+02  0.50000000000E+02 0.  0.
<mgrwt>
<rscale>  0 0.52854678E+02</rscale>
<asrwt>0</asrwt>
<pdfrwt beam="1">  1       13 0.10000000E+01 0.52854678E+02</pdfrwt>
<pdfrwt beam="2">  1       22 0.15087544E+00 0.52854678E+02</pdfrwt>
<totfact> 0.74694698E-01</totfact>
</mgrwt>
</event>
<event>
 4    1  0.2451537E+000  0.5180539E+02  0.7957747E-01  0.1435840E+00
         13   -1    0    0    0    0  0.00000000000E+00  0.00000000000E+00  0.99999944178E+02  0.99999999998E+02  0.10566000000E+00 0.  1.
         22   -1    0    0    0    0 -0.00000000000E+00 -0.00000000000E+00 -0.17257434535E+02  0.17257434535E+02  0.00000000000E+00 0. -1.
         13    1    1    2    0    0  0.13057273313E+02 -0.36478128781E+01 -0.57416338602E+01  0.14723330078E+02  0.10566000000E+00 0. -1.
        996    1    1    2    0    0 -0.13057273313E+02  0.36478128781E+01  0.88484143502E+02  0.10253410446E+03  0.50000000000E+02 0.  0.
<mgrwt>
<rscale>  0 0.51805395E+02</rscale>
<asrwt>0</asrwt>
<pdfrwt beam="1">  1       13 0.10000000E+01 0.51805395E+02</pdfrwt>
<pdfrwt beam="2">  1       22 0.17257458E+00 0.51805395E+02</pdfrwt>
<totfact> 0.59191253E-01</totfact>
</mgrwt>
</event>
<event>
 4    1  0.2451537E+000  0.5646082E+02  0.7957747E-01  0.1413314E+00
         13   -1    0    0    0    0  0.00000000000E+00  0.00000000000E+00  0.99999944170E+02  0.99999999990E+02  0.10566000000E+00 0.  1.
         22   -1    0    0    0    0 -0.00000000000E+00 -0.00000000000E+00 -0.35295730112E+02  0.35295730112E+02  0.00000000000E+00 0. -1.
         13    1    1    2    0    0 -0.82363307643E+01 -0.24899537689E+02 -0.20358000372E+02  0.33200654583E+02  0.10566000000E+00 0. -1.
        996    1    1    2    0    0  0.82363307643E+01  0.24899537689E+02  0.85062214430E+02  0.10209507552E+03  0.50000000000E+02 0.  0.
<mgrwt>
<rscale>  0 0.56460819E+02</rscale>
<asrwt>0</asrwt>
<pdfrwt beam="1">  1       13 0.10000000E+01 0.56460819E+02</pdfrwt>
<pdfrwt beam="2">  1       22 0.35295748E+00 0.56460819E+02</pdfrwt>
<totfact> 0.15553332E-01</totfact>
</mgrwt>
</event>
<event>
 4    1  0.2451537E+000  0.5663553E+02  0.7957747E-01  0.1412519E+00
         13   -1    0    0    0    0  0.00000000000E+00  0.00000000000E+00  0.99999944176E+02  0.99999999997E+02  0.10566000000E+00 0.  1.
         22   -1    0    0    0    0 -0.00000000000E+00 -0.00000000000E+00 -0.71579166021E+02  0.71579166021E+02  0.00000000000E+00 0. -1.
         13    1    1    2    0    0 -0.22892479660E+02  0.13546858862E+02 -0.60536514169E+02  0.66123095222E+02  0.10566000000E+00 0. -1.
        996    1    1    2    0    0  0.22892479660E+02 -0.13546858862E+02  0.88957292324E+02  0.10545607080E+03  0.50000000000E+02 0.  0.
<mgrwt>
<rscale>  0 0.56635528E+02</rscale>
<asrwt>0</asrwt>
<pdfrwt beam="1">  1       13 0.10000000E+01 0.56635528E+02</pdfrwt>
<pdfrwt beam="2">  1       22 0.71579174E+00 0.56635528E+02</pdfrwt>
<totfact> 0.66305100E-02</totfact>
</mgrwt>
</event>
<event>
 4    1  0.2451537E+000  0.5727499E+02  0.7957747E-01  0.1409637E+00
         13   -1    0    0    0    0  0.00000000000E+00  0.00000000000E+00  0.99999944181E+02  0.10000000000E+03  0.10566000000E+00 0.  1.
         22   -1    0    0    0    0 -0.00000000000E+00 -0.00000000000E+00 -0.20958779908E+02  0.20958779908E+02  0.00000000000E+00 0. -1.
         13    1    1    2    0    0  0.11808398864E+02  0.25317704206E+02  0.67714189774E+01  0.28745220629E+02  0.10566000000E+00 0. -1.
        996    1    1    2    0    0 -0.11808398864E+02 -0.25317704206E+02  0.72269745296E+02  0.92213559280E+02  0.50000000000E+02 0.  0.
<mgrwt>
<rscale>  0 0.57274990E+02</rscale>
<asrwt>0</asrwt>
<pdfrwt beam="1">  1       13 0.10000000E+01 0.57274990E+02</pdfrwt>
<pdfrwt beam="2">  1       22 0.20958802E+00 0.57274990E+02</pdfrwt>
<totfact> 0.41854479E-01</totfact>
</mgrwt>
</event>
<event>
 4    1  0.2451537E+000  0.5109411E+02  0.7957747E-01  0.1439528E+00
         13   -1    0    0    0    0  0.00000000000E+00  0.00000000000E+00  0.99999944181E+02  0.10000000000E+03  0.10566000000E+00 0. -1.
         22   -1    0    0    0    0 -0.00000000000E+00 -0.00000000000E+00 -0.12249510202E+02  0.12249510202E+02  0.00000000000E+00 0. -1.
         13    1    1    2    0    0  0.10503506244E+02  0.53296284003E+00 -0.21732855833E+00  0.10519795081E+02  0.10566000000E+00 0.  1.
        996    1    1    2    0    0 -0.10503506244E+02 -0.53296284003E+00  0.87967762538E+02  0.10172971512E+03  0.50000000000E+02 0.  0.
<mgrwt>
<rscale>  0 0.51094106E+02</rscale>
<asrwt>0</asrwt>
<pdfrwt beam="1">  1       13 0.10000000E+01 0.51094106E+02</pdfrwt>
<pdfrwt beam="2">  1       22 0.12249535E+00 0.51094106E+02</pdfrwt>
<totfact> 0.10393572E+00</totfact>
</mgrwt>
</event>
<event>
 4    1  0.2451537E+000  0.5545089E+02  0.7957747E-01  0.1417979E+00
         13   -1    0    0    0    0  0.00000000000E+00  0.00000000000E+00  0.99999944178E+02  0.99999999998E+02  0.10566000000E+00 0.  1.
         22   -1    0    0    0    0 -0.00000000000E+00 -0.00000000000E+00 -0.37907312166E+02  0.37907312166E+02  0.00000000000E+00 0. -1.
         13    1    1    2    0    0  0.23015260009E+02 -0.67155756652E+01 -0.25014104565E+02  0.34648488294E+02  0.10566000000E+00 0. -1.
        996    1    1    2    0    0 -0.23015260009E+02  0.67155756652E+01  0.87106736578E+02  0.10325882387E+03  0.50000000000E+02 0.  0.
<mgrwt>
<rscale>  0 0.55450890E+02</rscale>
<asrwt>0</asrwt>
<pdfrwt beam="1">  1       13 0.10000000E+01 0.55450890E+02</pdfrwt>
<pdfrwt beam="2">  1       22 0.37907330E+00 0.55450890E+02</pdfrwt>
<totfact> 0.13694826E-01</totfact>
</mgrwt>
</event>
<event>
 4    1  0.2451537E+000  0.5146721E+02  0.7957747E-01  0.1437585E+00
         13   -1    0    0    0    0  0.00000000000E+00  0.00000000000E+00  0.99999944178E+02  0.99999999998E+02  0.10566000000E+00 0.  1.
         22   -1    0    0    0    0 -0.00000000000E+00 -0.00000000000E+00 -0.11561918272E+02  0.11561918272E+02  0.00000000000E+00 0.  1.
         13    1    1    2    0    0 -0.11178115369E+02 -0.48911997066E+01  0.43124520634E+01  0.12941503182E+02  0.10566000000E+00 0. -1.
        996    1    1    2    0    0  0.11178115369E+02  0.48911997066E+01  0.84125573842E+02  0.98620415088E+02  0.50000000000E+02 0.  0.
<mgrwt>
<rscale>  0 0.51467214E+02</rscale>
<asrwt>0</asrwt>
<pdfrwt beam="1">  1       13 0.10000000E+01 0.51467214E+02</pdfrwt>
<pdfrwt beam="2">  1       22 0.11561943E+00 0.51467214E+02</pdfrwt>
<totfact> 0.11361190E+00</totfact>
</mgrwt>
</event>
<event>
 4    1  0.2451537E+000  0.5889792E+02  0.7957747E-01  0.1402516E+00
         13   -1    0    0    0    0  0.00000000000E+00  0.00000000000E+00  0.99999944177E+02  0.99999999997E+02  0.10566000000E+00 0.  1.
         22   -1    0    0    0    0 -0.00000000000E+00 -0.00000000000E+00 -0.39157482853E+02  0.39157482853E+02  0.00000000000E+00 0. -1.
         13    1    1    2    0    0 -0.30130388270E+02 -0.78181981625E+01 -0.21563213677E+02  0.37867504115E+02  0.10566000000E+00 0. -1.
        996    1    1    2    0    0  0.30130388270E+02  0.78181981625E+01  0.82405675001E+02  0.10128997873E+03  0.50000000000E+02 0.  0.
<mgrwt>
<rscale>  0 0.58897916E+02</rscale>
<asrwt>0</asrwt>
<pdfrwt beam="1">  1       13 0.10000000E+01 0.58897916E+02</pdfrwt>
<pdfrwt beam="2">  1       22 0.39157500E+00 0.58897916E+02</pdfrwt>
<totfact> 0.12939776E-01</totfact>
</mgrwt>
</event>
<event>
 4    1  0.2451537E+000  0.5163746E+02  0.7957747E-01  0.1436704E+00
         13   -1    0    0    0    0  0.00000000000E+00  0.00000000000E+00  0.99999944184E+02  0.10000000000E+03  0.10566000000E+00 0.  1.
         22   -1    0    0    0    0 -0.00000000000E+00 -0.00000000000E+00 -0.11653774143E+02  0.11653774143E+02  0.00000000000E+00 0.  1.
         13    1    1    2    0    0  0.73002792017E+01  0.10636402233E+02  0.54826484183E+01  0.14017764679E+02  0.10566000000E+00 0. -1.
        996    1    1    2    0    0 -0.73002792017E+01 -0.10636402233E+02  0.82863521623E+02  0.97636009467E+02  0.50000000000E+02 0.  0.
<mgrwt>
<rscale>  0 0.51637459E+02</rscale>
<asrwt>0</asrwt>
<pdfrwt beam="1">  1       13 0.10000000E+01 0.51637459E+02</pdfrwt>
<pdfrwt beam="2">  1       22 0.11653799E+00 0.51637459E+02</pdfrwt>
<totfact> 0.11230376E+00</totfact>
</mgrwt>
</event>
<event>
 4    1  0.2451537E+000  0.7025014E+02  0.7957747E-01  0.1359244E+00
         13   -1    0    0    0    0  0.00000000000E+00  0.00000000000E+00  0.99999944171E+02  0.99999999991E+02  0.10566000000E+00 0.  1.
         22   -1    0    0    0    0 -0.00000000000E+00 -0.00000000000E+00 -0.42910045418E+02  0.42910045418E+02  0.00000000000E+00 0. -1.
         13    1    1    2    0    0 -0.44209128420E+02  0.21923398101E+02 -0.44101670407E+01  0.49543346247E+02  0.10566000000E+00 0. -1.
        996    1    1    2    0    0  0.44209128420E+02 -0.21923398101E+02  0.61500065794E+02  0.93366699163E+02  0.50000000000E+02 0.  0.
<mgrwt>
<rscale>  0 0.70250142E+02</rscale>
<asrwt>0</asrwt>
<pdfrwt beam="1">  1       13 0.10000000E+01 0.70250142E+02</pdfrwt>
<pdfrwt beam="2">  1       22 0.42910061E+00 0.70250142E+02</pdfrwt>
<totfact> 0.10856195E-01</totfact>
</mgrwt>
</event>
<event>
 4    1  0.2451537E+000  0.8443983E+02  0.7957747E-01  0.1316904E+00
         13   -1    0    0    0    0  0.00000000000E+00  0.00000000000E+00  0.99999944177E+02  0.99999999997E+02  0.10566000000E+00 0. -1.
         22   -1    0    0    0    0 -0.00000000000E+00 -0.00000000000E+00 -0.60992250566E+02  0.60992250566E+02  0.00000000000E+00 0.  1.
         13    1    1    2    0    0 -0.29143008390E+02  0.61487961064E+02  0.16045153467E+00  0.68044993957E+02  0.10566000000E+00 0.  1.
        996    1    1    2    0    0  0.29143008390E+02 -0.61487961064E+02  0.38847242076E+02  0.92947256607E+02  0.50000000000E+02 0.  0.
<mgrwt>
<rscale>  0 0.84439826E+02</rscale>
<asrwt>0</asrwt>
<pdfrwt beam="1">  1       13 0.10000000E+01 0.84439826E+02</pdfrwt>
<pdfrwt beam="2">  1       22 0.60992261E+00 0.84439826E+02</pdfrwt>
<totfact> 0.67737911E-02</totfact>
</mgrwt>
</event>
<event>
 4    1  0.2451537E+000  0.5128291E+02  0.7957747E-01  0.1438542E+00
         13   -1    0    0    0    0  0.00000000000E+00  0.00000000000E+00  0.99999944184E+02  0.10000000000E+03  0.10566000000E+00 0.  1.
         22   -1    0    0    0    0 -0.00000000000E+00 -0.00000000000E+00 -0.11356204945E+02  0.11356204945E+02  0.00000000000E+00 0.  1.
         13    1    1    2    0    0 -0.10647622587E+02  0.40699944694E+01  0.34356624780E+01  0.11905950715E+02  0.10566000000E+00 0. -1.
        996    1    1    2    0    0  0.10647622587E+02 -0.40699944694E+01  0.85208076761E+02  0.99450254233E+02  0.50000000000E+02 0.  0.
<mgrwt>
<rscale>  0 0.51282909E+02</rscale>
<asrwt>0</asrwt>
<pdfrwt beam="1">  1       13 0.10000000E+01 0.51282909E+02</pdfrwt>
<pdfrwt beam="2">  1       22 0.11356230E+00 0.51282909E+02</pdfrwt>
<totfact> 0.11667635E+00</totfact>
</mgrwt>
</event>
<event>
 4    1  0.2451537E+000  0.5217327E+02  0.7957747E-01  0.1433960E+00
         13   -1    0    0    0    0  0.00000000000E+00  0.00000000000E+00  0.99999944174E+02  0.99999999994E+02  0.10566000000E+00 0. -1.
         22   -1    0    0    0    0 -0.00000000000E+00 -0.00000000000E+00 -0.33831057772E+02  0.33831057772E+02  0.00000000000E+00 0.  1.
         13    1    1    2    0    0 -0.89525643739E+01  0.11912249662E+02 -0.24817348733E+02  0.28947574390E+02  0.10566000000E+00 0.  1.
        996    1    1    2    0    0  0.89525643739E+01 -0.11912249662E+02  0.90986235136E+02  0.10488348338E+03  0.50000000000E+02 0.  0.
<mgrwt>
<rscale>  0 0.52173270E+02</rscale>
<asrwt>0</asrwt>
<pdfrwt beam="1">  1       13 0.10000000E+01 0.52173270E+02</pdfrwt>
<pdfrwt beam="2">  1       22 0.33831076E+00 0.52173270E+02</pdfrwt>
<totfact> 0.16677502E-01</totfact>
</mgrwt>
</event>
<event>
 4    1  0.2451537E+000  0.5158262E+02  0.7957747E-01  0.1436988E+00
         13   -1    0    0    0    0  0.00000000000E+00  0.00000000000E+00  0.99999944186E+02  0.10000000001E+03  0.10566000000E+00 0. -1.
         22   -1    0    0    0    0 -0.00000000000E+00 -0.00000000000E+00 -0.40898020509E+02  0.40898020509E+02  0.00000000000E+00 0.  1.
         13    1    1    2    0    0  0.12660932940E+02 -0.68393998082E+00 -0.32990527204E+02  0.35343359292E+02  0.10566000000E+00 0.  1.
        996    1    1    2    0    0 -0.12660932940E+02  0.68393998082E+00  0.92092450880E+02  0.10555466122E+03  0.50000000000E+02 0.  0.
<mgrwt>
<rscale>  0 0.51582623E+02</rscale>
<asrwt>0</asrwt>
<pdfrwt beam="1">  1       13 0.10000000E+01 0.51582623E+02</pdfrwt>
<pdfrwt beam="2">  1       22 0.40898037E+00 0.51582623E+02</pdfrwt>
<totfact> 0.11845916E-01</totfact>
</mgrwt>
</event>
<event>
 4    1  0.2451537E+000  0.5257338E+02  0.7957747E-01  0.1431936E+00
         13   -1    0    0    0    0  0.00000000000E+00  0.00000000000E+00  0.99999944175E+02  0.99999999995E+02  0.10566000000E+00 0. -1.
         22   -1    0    0    0    0 -0.00000000000E+00 -0.00000000000E+00 -0.11841238112E+02  0.11841238112E+02  0.00000000000E+00 0. -1.
         13    1    1    2    0    0  0.14730717875E+02 -0.68531719351E+01  0.21147968614E+02  0.26668478682E+02  0.10566000000E+00 0.  1.
        996    1    1    2    0    0 -0.14730717875E+02  0.68531719351E+01  0.67010737449E+02  0.85172759425E+02  0.50000000000E+02 0.  0.
<mgrwt>
<rscale>  0 0.52573377E+02</rscale>
<asrwt>0</asrwt>
<pdfrwt beam="1">  1       13 0.10000000E+01 0.52573377E+02</pdfrwt>
<pdfrwt beam="2">  1       22 0.11841263E+00 0.52573377E+02</pdfrwt>
<totfact> 0.10984508E+00</totfact>
</mgrwt>
</event>
<event>
 4    1  0.2451537E+000  0.5112045E+02  0.7957747E-01  0.1439390E+00
         13   -1    0    0    0    0  0.00000000000E+00  0.00000000000E+00  0.99999944173E+02  0.99999999993E+02  0.10566000000E+00 0. -1.
         22   -1    0    0    0    0 -0.00000000000E+00 -0.00000000000E+00 -0.10556308966E+02  0.10556308966E+02  0.00000000000E+00 0. -1.
         13    1    1    2    0    0  0.55316358605E+01  0.90940135398E+01  0.48081667381E+01  0.11680312880E+02  0.10566000000E+00 0.  1.
        996    1    1    2    0    0 -0.55316358605E+01 -0.90940135398E+01  0.84635468469E+02  0.98875996079E+02  0.50000000000E+02 0.  0.
<mgrwt>
<rscale>  0 0.51120447E+02</rscale>
<asrwt>0</asrwt>
<pdfrwt beam="1">  1       13 0.10000000E+01 0.51120447E+02</pdfrwt>
<pdfrwt beam="2">  1       22 0.10556334E+00 0.51120447E+02</pdfrwt>
<totfact> 0.12999736E+00</totfact>
</mgrwt>
</event>
<event>
 4    1  0.2451537E+000  0.5242515E+02  0.7957747E-01  0.1432683E+00
         13   -1    0    0    0    0  0.00000000000E+00  0.00000000000E+00  0.99999944177E+02  0.99999999997E+02  0.10566000000E+00 0. -1.
         22   -1    0    0    0    0 -0.00000000000E+00 -0.00000000000E+00 -0.42007136620E+02  0.42007136620E+02  0.00000000000E+00 0.  1.
         13    1    1    2    0    0  0.71465027761E+01  0.14047185331E+02 -0.33238376591E+02  0.36785822814E+02  0.10566000000E+00 0.  1.
        996    1    1    2    0    0 -0.71465027761E+01 -0.14047185331E+02  0.91231184147E+02  0.10522131380E+03  0.50000000000E+02 0.  0.
<mgrwt>
<rscale>  0 0.52425146E+02</rscale>
<asrwt>0</asrwt>
<pdfrwt beam="1">  1       13 0.10000000E+01 0.52425146E+02</pdfrwt>
<pdfrwt beam="2">  1       22 0.42007153E+00 0.52425146E+02</pdfrwt>
<totfact> 0.11234794E-01</totfact>
</mgrwt>
</event>
<event>
 4    1  0.2451537E+000  0.5264210E+02  0.7957747E-01  0.1431590E+00
         13   -1    0    0    0    0  0.00000000000E+00  0.00000000000E+00  0.99999944176E+02  0.99999999996E+02  0.10566000000E+00 0. -1.
         22   -1    0    0    0    0 -0.00000000000E+00 -0.00000000000E+00 -0.12155443043E+02  0.12155443043E+02  0.00000000000E+00 0.  1.
         13    1    1    2    0    0  0.10409444823E+02 -0.12760665913E+02  0.14964674536E+02  0.22251826534E+02  0.10566000000E+00 0.  1.
        996    1    1    2    0    0 -0.10409444823E+02  0.12760665913E+02  0.72879826596E+02  0.89903616506E+02  0.50000000000E+02 0.  0.
<mgrwt>
<rscale>  0 0.52642104E+02</rscale>
<asrwt>0</asrwt>
<pdfrwt beam="1">  1       13 0.10000000E+01 0.52642104E+02</pdfrwt>
<pdfrwt beam="2">  1       22 0.12155468E+00 0.52642104E+02</pdfrwt>
<totfact> 0.10554048E+00</totfact>
</mgrwt>
</event>
<event>
 4    1  0.2451537E+000  0.5111228E+02  0.7957747E-01  0.1439433E+00
         13   -1    0    0    0    0  0.00000000000E+00  0.00000000000E+00  0.99999944181E+02  0.10000000000E+03  0.10566000000E+00 0.  1.
         22   -1    0    0    0    0 -0.00000000000E+00 -0.00000000000E+00 -0.95226808607E+01  0.95226808607E+01  0.00000000000E+00 0.  1.
         13    1    1    2    0    0 -0.10227404470E+02  0.28044402429E+01  0.15509667077E+02  0.18788976133E+02  0.10566000000E+00 0. -1.
        996    1    1    2    0    0  0.10227404470E+02 -0.28044402429E+01  0.74967596243E+02  0.90733704729E+02  0.50000000000E+02 0.  0.
<mgrwt>
<rscale>  0 0.51112275E+02</rscale>
<asrwt>0</asrwt>
<pdfrwt beam="1">  1       13 0.10000000E+01 0.51112275E+02</pdfrwt>
<pdfrwt beam="2">  1       22 0.95227061E-01 0.51112275E+02</pdfrwt>
<totfact> 0.15093117E+00</totfact>
</mgrwt>
</event>
<event>
 4    1  0.2451537E+000  0.5266554E+02  0.7957747E-01  0.1431473E+00
         13   -1    0    0    0    0  0.00000000000E+00  0.00000000000E+00  0.99999944179E+02  0.99999999999E+02  0.10566000000E+00 0. -1.
         22   -1    0    0    0    0 -0.00000000000E+00 -0.00000000000E+00 -0.13013119139E+02  0.13013119139E+02  0.00000000000E+00 0. -1.
         13    1    1    2    0    0 -0.61286529950E+01 -0.15365511018E+02  0.87857116739E+01  0.18731236212E+02  0.10566000000E+00 0.  1.
        996    1    1    2    0    0  0.61286529950E+01  0.15365511018E+02  0.78201113366E+02  0.94281882926E+02  0.50000000000E+02 0.  0.
<mgrwt>
<rscale>  0 0.52665542E+02</rscale>
<asrwt>0</asrwt>
<pdfrwt beam="1">  1       13 0.10000000E+01 0.52665542E+02</pdfrwt>
<pdfrwt beam="2">  1       22 0.13013143E+00 0.52665542E+02</pdfrwt>
<totfact> 0.94911440E-01</totfact>
</mgrwt>
</event>
<event>
 4    1  0.2451537E+000  0.5778313E+02  0.7957747E-01  0.1407378E+00
         13   -1    0    0    0    0  0.00000000000E+00  0.00000000000E+00  0.99999944182E+02  0.10000000000E+03  0.10566000000E+00 0.  1.
         22   -1    0    0    0    0 -0.00000000000E+00 -0.00000000000E+00 -0.19006631774E+02  0.19006631774E+02  0.00000000000E+00 0.  1.
         13    1    1    2    0    0  0.16161833072E+02  0.24035072882E+02  0.32855137136E+02  0.43799095618E+02  0.10566000000E+00 0. -1.
        996    1    1    2    0    0 -0.16161833072E+02 -0.24035072882E+02  0.48138175272E+02  0.75207536159E+02  0.50000000000E+02 0.  0.
<mgrwt>
<rscale>  0 0.57783125E+02</rscale>
<asrwt>0</asrwt>
<pdfrwt beam="1">  1       13 0.10000000E+01 0.57783125E+02</pdfrwt>
<pdfrwt beam="2">  1       22 0.19006654E+00 0.57783125E+02</pdfrwt>
<totfact> 0.50284396E-01</totfact>
</mgrwt>
</event>
<event>
 4    1  0.2451537E+000  0.5898397E+02  0.7957747E-01  0.1402146E+00
         13   -1    0    0    0    0  0.00000000000E+00  0.00000000000E+00  0.99999944175E+02  0.99999999995E+02  0.10566000000E+00 0.  1.
         22   -1    0    0    0    0 -0.00000000000E+00 -0.00000000000E+00 -0.44123707992E+02  0.44123707992E+02  0.00000000000E+00 0. -1.
         13    1    1    2    0    0 -0.24458733062E+02 -0.19516115830E+02 -0.27726674438E+02  0.41807750950E+02  0.10566000000E+00 0. -1.
        996    1    1    2    0    0  0.24458733062E+02  0.19516115830E+02  0.83602910621E+02  0.10231595704E+03  0.50000000000E+02 0.  0.
<mgrwt>
<rscale>  0 0.58983967E+02</rscale>
<asrwt>0</asrwt>
<pdfrwt beam="1">  1       13 0.10000000E+01 0.58983967E+02</pdfrwt>
<pdfrwt beam="2">  1       22 0.44123724E+00 0.58983967E+02</pdfrwt>
<totfact> 0.10149025E-01</totfact>
</mgrwt>
</event>
<event>
 4    1  0.2451537E+000  0.5319653E+02  0.7957747E-01  0.1428825E+00
         13   -1    0    0    0    0  0.00000000000E+00  0.00000000000E+00  0.99999944179E+02  0.99999999999E+02  0.10566000000E+00 0.  1.
         22   -1    0    0    0    0 -0.00000000000E+00 -0.00000000000E+00 -0.15420981809E+02  0.15420981809E+02  0.00000000000E+00 0.  1.
         13    1    1    2    0    0 -0.18115554439E+02  0.13028263954E+01  0.35749675431E+01  0.18511137896E+02  0.10566000000E+00 0. -1.
        996    1    1    2    0    0  0.18115554439E+02 -0.13028263954E+01  0.81003994827E+02  0.96909843913E+02  0.50000000000E+02 0.  0.
<mgrwt>
<rscale>  0 0.53196529E+02</rscale>
<asrwt>0</asrwt>
<pdfrwt beam="1">  1       13 0.10000000E+01 0.53196529E+02</pdfrwt>
<pdfrwt beam="2">  1       22 0.15421005E+00 0.53196529E+02</pdfrwt>
<totfact> 0.72054602E-01</totfact>
</mgrwt>
</event>
<event>
 4    1  0.2451537E+000  0.6477558E+02  0.7957747E-01  0.1378818E+00
         13   -1    0    0    0    0  0.00000000000E+00  0.00000000000E+00  0.99999944177E+02  0.99999999998E+02  0.10566000000E+00 0. -1.
         22   -1    0    0    0    0 -0.00000000000E+00 -0.00000000000E+00 -0.74967010103E+02  0.74967010103E+02  0.00000000000E+00 0.  1.
         13    1    1    2    0    0  0.39126829192E+01 -0.40994718322E+02 -0.57077119517E+02  0.70382417934E+02  0.10566000000E+00 0.  1.
        996    1    1    2    0    0 -0.39126829192E+01  0.40994718322E+02  0.82110053591E+02  0.10458459217E+03  0.50000000000E+02 0.  0.
<mgrwt>
<rscale>  0 0.64775582E+02</rscale>
<asrwt>0</asrwt>
<pdfrwt beam="1">  1       13 0.10000000E+01 0.64775582E+02</pdfrwt>
<pdfrwt beam="2">  1       22 0.74967017E+00 0.64775582E+02</pdfrwt>
<totfact> 0.49163963E-02</totfact>
</mgrwt>
</event>
<event>
 4    1  0.2451537E+000  0.5461397E+02  0.7957747E-01  0.1421933E+00
         13   -1    0    0    0    0  0.00000000000E+00  0.00000000000E+00  0.99999944179E+02  0.99999999999E+02  0.10566000000E+00 0.  1.
         22   -1    0    0    0    0 -0.00000000000E+00 -0.00000000000E+00 -0.14925677677E+02  0.14925677677E+02  0.00000000000E+00 0.  1.
         13    1    1    2    0    0  0.21966225216E+02  0.41303455696E+00  0.17814167444E+02  0.28285002626E+02  0.10566000000E+00 0. -1.
        996    1    1    2    0    0 -0.21966225216E+02 -0.41303455696E+00  0.67260099058E+02  0.86640675050E+02  0.50000000000E+02 0.  0.
<mgrwt>
<rscale>  0 0.54613969E+02</rscale>
<asrwt>0</asrwt>
<pdfrwt beam="1">  1       13 0.10000000E+01 0.54613969E+02</pdfrwt>
<pdfrwt beam="2">  1       22 0.14925701E+00 0.54613969E+02</pdfrwt>
<totfact> 0.76313800E-01</totfact>
</mgrwt>
</event>
<event>
 4    1  0.2451537E+000  0.5299544E+02  0.7957747E-01  0.1429824E+00
         13   -1    0    0    0    0  0.00000000000E+00  0.00000000000E+00  0.99999944177E+02  0.99999999998E+02  0.10566000000E+00 0. -1.
         22   -1    0    0    0    0 -0.00000000000E+00 -0.00000000000E+00 -0.15465885243E+02  0.15465885243E+02  0.00000000000E+00 0. -1.
         13    1    1    2    0    0 -0.12259683981E+02  0.12578413633E+02  0.47959283475E+02  0.51074654931E+02  0.10566000000E+00 0.  1.
        996    1    1    2    0    0  0.12259683981E+02 -0.12578413633E+02  0.36574775460E+02  0.64391230310E+02  0.50000000000E+02 0.  0.
<mgrwt>
<rscale>  0 0.52995437E+02</rscale>
<asrwt>0</asrwt>
<pdfrwt beam="1">  1       13 0.10000000E+01 0.52995437E+02</pdfrwt>
<pdfrwt beam="2">  1       22 0.15465909E+00 0.52995437E+02</pdfrwt>
<totfact> 0.71673870E-01</totfact>
</mgrwt>
</event>
<event>
 4    1  0.2451537E+000  0.5114613E+02  0.7957747E-01  0.1439256E+00
         13   -1    0    0    0    0  0.00000000000E+00  0.00000000000E+00  0.99999944181E+02  0.10000000000E+03  0.10566000000E+00 0. -1.
         22   -1    0    0    0    0 -0.00000000000E+00 -0.00000000000E+00 -0.18900724243E+02  0.18900724243E+02  0.00000000000E+00 0.  1.
         13    1    1    2    0    0  0.42872467605E+01 -0.98765284697E+01 -0.98263908050E+01  0.14577222633E+02  0.10566000000E+00 0.  1.
        996    1    1    2    0    0 -0.42872467605E+01  0.98765284697E+01  0.90925610743E+02  0.10432350161E+03  0.50000000000E+02 0.  0.
<mgrwt>
<rscale>  0 0.51146127E+02</rscale>
<asrwt>0</asrwt>
<pdfrwt beam="1">  1       13 0.10000000E+01 0.51146127E+02</pdfrwt>
<pdfrwt beam="2">  1       22 0.18900747E+00 0.51146127E+02</pdfrwt>
<totfact> 0.50213043E-01</totfact>
</mgrwt>
</event>
