<event>
 5    1  0.1796476E-008  0.3012955E+03  0.7957747E-01  0.3886814E+00
         13   -1    0    0    0    0  0.00000000000E+00  0.00000000000E+00  0.14999999963E+04  0.15000000000E+04  0.10566000000E+00 0. -1.
        994   -1    0    0    0    0 -0.00000000000E+00 -0.00000000000E+00  0.11368683772E-12  0.17120000000E+03  0.17120000000E+03 0.  0.
         13    1    1    2    0    0 -0.90054668130E+02 -0.16736848784E+03  0.64583434128E+03  0.67321917791E+03  0.10566000000E+00 0. -1.
        994    1    1    2    0    0  0.20655484525E+02  0.21242065288E+03  0.20094894387E+03  0.33946885108E+03  0.17120000000E+03 0.  0.
        998    1    1    2    0    0  0.69399183605E+02 -0.45052165033E+02  0.65321671113E+03  0.65851197101E+03  0.10000000000E+02 0. -1.
</event>
<event>
 5    1  0.1796476E-008  0.3701536E+03  0.7957747E-01  0.3495185E+00
         13   -1    0    0    0    0  0.00000000000E+00  0.00000000000E+00  0.14999999963E+04  0.15000000000E+04  0.10566000000E+00 0.  1.
        994   -1    0    0    0    0 -0.00000000000E+00 -0.00000000000E+00  0.11368683772E-12  0.17120000000E+03  0.17120000000E+03 0.  0.
         13    1    1    2    0    0  0.22320554455E+02  0.92171406191E+02  0.32438627944E+03  0.33796485723E+03  0.10566000000E+00 0.  1.
        994    1    1    2    0    0 -0.20801498443E+02 -0.87662539579E+02  0.39980874805E+02  0.19754830683E+03  0.17120000000E+03 0.  0.
        998    1    1    2    0    0 -0.15190560124E+01 -0.45088666119E+01  0.11356328420E+04  0.11356868359E+04  0.10000000000E+02 0.  1.
</event>
<event>
 5    1  0.1796476E-008  0.3801089E+03  0.7957747E-01  0.3450685E+00
         13   -1    0    0    0    0  0.00000000000E+00  0.00000000000E+00  0.14999999963E+04  0.15000000000E+04  0.10566000000E+00 0. -1.
        994   -1    0    0    0    0 -0.00000000000E+00 -0.00000000000E+00  0.11368683772E-12  0.17120000000E+03  0.17120000000E+03 0.  0.
         13    1    1    2    0    0  0.93186667792E+02  0.16286776337E+03  0.10332912384E+04  0.10501906769E+04  0.10566000000E+00 0. -1.
        994    1    1    2    0    0 -0.10601848738E+03 -0.15625764689E+03  0.13423263047E+03  0.28806980224E+03  0.17120000000E+03 0.  0.
        998    1    1    2    0    0  0.12831819592E+02 -0.66101164813E+01  0.33247612745E+03  0.33293952087E+03  0.10000000000E+02 0. -1.
</event>
<event>
 5    1  0.1796476E-008  0.3818092E+03  0.7957747E-01  0.3443318E+00
         13   -1    0    0    0    0  0.00000000000E+00  0.00000000000E+00  0.14999999963E+04  0.15000000000E+04  0.10566000000E+00 0. -1.
        994   -1    0    0    0    0 -0.00000000000E+00 -0.00000000000E+00  0.11368683772E-12  0.17120000000E+03  0.17120000000E+03 0.  0.
         13    1    1    2    0    0  0.13330557521E+02  0.30918946675E+01  0.27830505801E+02  0.31013090682E+02  0.10566000000E+00 0. -1.
        994    1    1    2    0    0 -0.10191046628E+02  0.21123068271E+01  0.35826787702E+01  0.17155347522E+03  0.17120000000E+03 0.  0.
        998    1    1    2    0    0 -0.31395108931E+01 -0.52042014946E+01  0.14685868117E+04  0.14686334341E+04  0.10000000000E+02 0. -1.
</event>
<event>
 5    1  0.1796476E-008  0.3752958E+03  0.7957747E-01  0.3471901E+00
         13   -1    0    0    0    0  0.00000000000E+00  0.00000000000E+00  0.14999999963E+04  0.15000000000E+04  0.10566000000E+00 0. -1.
        994   -1    0    0    0    0 -0.00000000000E+00 -0.00000000000E+00  0.11368683772E-12  0.17120000000E+03  0.17120000000E+03 0.  0.
         13    1    1    2    0    0 -0.52214571467E+02 -0.12494246045E+03  0.73718127950E+03  0.74951533000E+03  0.10566000000E+00 0. -1.
        994    1    1    2    0    0  0.47026843512E+02  0.12029500595E+03  0.65467840099E+02  0.22422731893E+03  0.17120000000E+03 0.  0.
        998    1    1    2    0    0  0.51877279549E+01  0.46474545044E+01  0.69735087668E+03  0.69745735107E+03  0.10000000000E+02 0.  0.
</event>
<event>
 5    1  0.1796476E-008  0.3778921E+03  0.7957747E-01  0.3460388E+00
         13   -1    0    0    0    0  0.00000000000E+00  0.00000000000E+00  0.14999999963E+04  0.15000000000E+04  0.10566000000E+00 0.  1.
        994   -1    0    0    0    0 -0.00000000000E+00 -0.00000000000E+00  0.11368683772E-12  0.17120000000E+03  0.17120000000E+03 0.  0.
         13    1    1    2    0    0  0.12334635283E+02 -0.34843791294E+01  0.13719617690E+02  0.18775601164E+02  0.10566000000E+00 0.  1.
        994    1    1    2    0    0 -0.32648353284E+01 -0.17484547954E+01  0.52471826161E+01  0.17132042835E+03  0.17120000000E+03 0.  0.
        998    1    1    2    0    0 -0.90697999547E+01  0.52328339247E+01  0.14810331960E+04  0.14811039705E+04  0.10000000000E+02 0.  1.
</event>
<event>
 5    1  0.1796476E-008  0.3849228E+03  0.7957747E-01  0.3430000E+00
         13   -1    0    0    0    0  0.00000000000E+00  0.00000000000E+00  0.14999999963E+04  0.15000000000E+04  0.10566000000E+00 0. -1.
        994   -1    0    0    0    0 -0.00000000000E+00 -0.00000000000E+00  0.11368683772E-12  0.17120000000E+03  0.17120000000E+03 0.  0.
         13    1    1    2    0    0 -0.12509010870E+03 -0.73240920643E+02  0.38114192375E+03  0.40777560613E+03  0.10566000000E+00 0. -1.
        994    1    1    2    0    0  0.13458460597E+03  0.61141324753E+02  0.10494865986E+03  0.24934903040E+03  0.17120000000E+03 0.  0.
        998    1    1    2    0    0 -0.94944972715E+01  0.12099595890E+02  0.10139094127E+04  0.10140753635E+04  0.10000000000E+02 0. -1.
</event>
<event>
 5    1  0.1796476E-008  0.3777900E+03  0.7957747E-01  0.3460838E+00
         13   -1    0    0    0    0  0.00000000000E+00  0.00000000000E+00  0.14999999963E+04  0.15000000000E+04  0.10566000000E+00 0.  1.
        994   -1    0    0    0    0 -0.00000000000E+00 -0.00000000000E+00  0.11368683772E-12  0.17120000000E+03  0.17120000000E+03 0.  0.
         13    1    1    2    0    0 -0.16520430013E+02 -0.21977072767E+02  0.66463952444E+02  0.71926243290E+02  0.10566000000E+00 0.  1.
        994    1    1    2    0    0  0.15456249566E+02  0.26977278486E+02  0.85150848569E+01  0.17420854134E+03  0.17120000000E+03 0.  0.
        998    1    1    2    0    0  0.10641804469E+01 -0.50002057191E+01  0.14250209590E+04  0.14250652154E+04  0.10000000000E+02 0.  1.
</event>
<event>
 5    1  0.1796476E-008  0.3923930E+03  0.7957747E-01  0.3398910E+00
         13   -1    0    0    0    0  0.00000000000E+00  0.00000000000E+00  0.14999999963E+04  0.15000000000E+04  0.10566000000E+00 0.  1.
        994   -1    0    0    0    0 -0.00000000000E+00 -0.00000000000E+00  0.11368683772E-12  0.17120000000E+03  0.17120000000E+03 0.  0.
         13    1    1    2    0    0  0.59102222226E+01  0.38054775390E+02  0.21121105638E+02  0.43922760889E+02  0.10566000000E+00 0.  1.
        994    1    1    2    0    0  0.11930109603E+03 -0.48487317520E+02  0.89464497194E+02  0.23215750630E+03  0.17120000000E+03 0.  0.
        998    1    1    2    0    0 -0.12521131825E+03  0.10432542130E+02  0.13894143934E+04  0.13951197328E+04  0.10000000000E+02 0.  1.
</event>
<event>
 5    1  0.1796476E-008  0.3830665E+03  0.7957747E-01  0.3437914E+00
         13   -1    0    0    0    0  0.00000000000E+00  0.00000000000E+00  0.14999999963E+04  0.15000000000E+04  0.10566000000E+00 0. -1.
        994   -1    0    0    0    0 -0.00000000000E+00 -0.00000000000E+00  0.11368683772E-12  0.17120000000E+03  0.17120000000E+03 0.  0.
         13    1    1    2    0    0  0.30454209399E+02  0.40198123474E+01  0.18572513637E+03  0.18824838700E+03  0.10566000000E+00 0. -1.
        994    1    1    2    0    0 -0.16539392875E+02  0.73591117584E+01  0.36783765325E+01  0.17219372374E+03  0.17120000000E+03 0.  0.
        998    1    1    2    0    0 -0.13914816524E+02 -0.11378924106E+02  0.13105964834E+04  0.13107578893E+04  0.10000000000E+02 0. -1.
</event>
<event>
 5    1  0.1796476E-008  0.3684911E+03  0.7957747E-01  0.3502855E+00
         13   -1    0    0    0    0  0.00000000000E+00  0.00000000000E+00  0.14999999963E+04  0.15000000000E+04  0.10566000000E+00 0.  1.
        994   -1    0    0    0    0 -0.00000000000E+00 -0.00000000000E+00  0.11368683772E-12  0.17120000000E+03  0.17120000000E+03 0.  0.
         13    1    1    2    0    0 -0.52413752110E+02  0.70367565616E+02  0.24421852030E+03  0.25950239406E+03  0.10566000000E+00 0.  1.
        994    1    1    2    0    0  0.84119530804E+02 -0.98651191847E+02  0.71102581752E+02  0.22621487627E+03  0.17120000000E+03 0.  0.
        998    1    1    2    0    0 -0.31705778694E+02  0.28283626231E+02  0.11846788942E+04  0.11854827297E+04  0.10000000000E+02 0.  1.
</event>
<event>
 5    1  0.1796476E-008  0.3797070E+03  0.7957747E-01  0.3452435E+00
         13   -1    0    0    0    0  0.00000000000E+00  0.00000000000E+00  0.14999999963E+04  0.15000000000E+04  0.10566000000E+00 0. -1.
        994   -1    0    0    0    0 -0.00000000000E+00 -0.00000000000E+00  0.11368683772E-12  0.17120000000E+03  0.17120000000E+03 0.  0.
         13    1    1    2    0    0 -0.12561989326E+03 -0.29875770836E+02  0.71918260142E+03  0.73068224600E+03  0.10566000000E+00 0. -1.
        994    1    1    2    0    0  0.13750140716E+03  0.52016632810E+02  0.80362691344E+02  0.23954116394E+03  0.17120000000E+03 0.  0.
        998    1    1    2    0    0 -0.11881513901E+02 -0.22140861973E+02  0.70045470351E+03  0.70097659006E+03  0.10000000000E+02 0. -1.
</event>
<event>
 5    1  0.1796476E-008  0.3697977E+03  0.7957747E-01  0.3496821E+00
         13   -1    0    0    0    0  0.00000000000E+00  0.00000000000E+00  0.14999999963E+04  0.15000000000E+04  0.10566000000E+00 0.  1.
        994   -1    0    0    0    0 -0.00000000000E+00 -0.00000000000E+00  0.11368683772E-12  0.17120000000E+03  0.17120000000E+03 0.  0.
         13    1    1    2    0    0  0.87093356989E+02 -0.24059278603E+02  0.38563348104E+03  0.39607738459E+03  0.10566000000E+00 0.  1.
        994    1    1    2    0    0 -0.90040000722E+02 -0.47368588606E+02  0.46093904461E+02  0.20441397444E+03  0.17120000000E+03 0.  0.
        998    1    1    2    0    0  0.29466437330E+01  0.71427867209E+02  0.10682726108E+04  0.10707086410E+04  0.10000000000E+02 0.  1.
</event>
<event>
 5    1  0.1796476E-008  0.3804504E+03  0.7957747E-01  0.3449200E+00
         13   -1    0    0    0    0  0.00000000000E+00  0.00000000000E+00  0.14999999963E+04  0.15000000000E+04  0.10566000000E+00 0.  1.
        994   -1    0    0    0    0 -0.00000000000E+00 -0.00000000000E+00  0.11368683772E-12  0.17120000000E+03  0.17120000000E+03 0.  0.
         13    1    1    2    0    0  0.86000346644E+01 -0.11665404846E+02  0.24382969085E+02  0.28365165466E+02  0.10566000000E+00 0.  1.
        994    1    1    2    0    0 -0.19818719522E+02  0.13736228063E+02  0.58492687664E+01  0.17298878446E+03  0.17120000000E+03 0.  0.
        998    1    1    2    0    0  0.11218684858E+02 -0.20708232170E+01  0.14697677584E+04  0.14698460501E+04  0.10000000000E+02 0.  1.
</event>
<event>
 5    1  0.1796476E-008  0.3716023E+03  0.7957747E-01  0.3488559E+00
         13   -1    0    0    0    0  0.00000000000E+00  0.00000000000E+00  0.14999999963E+04  0.15000000000E+04  0.10566000000E+00 0. -1.
        994   -1    0    0    0    0 -0.00000000000E+00 -0.00000000000E+00  0.11368683772E-12  0.17120000000E+03  0.17120000000E+03 0.  0.
         13    1    1    2    0    0  0.27335180212E+02  0.46502301985E+02  0.17607132969E+03  0.18414885411E+03  0.10566000000E+00 0. -1.
        994    1    1    2    0    0  0.92192616206E+01 -0.34594089908E+02  0.12854269963E+02  0.17537507833E+03  0.17120000000E+03 0.  0.
        998    1    1    2    0    0 -0.36554441833E+02 -0.11908212077E+02  0.13110743966E+04  0.13116760676E+04  0.10000000000E+02 0. -1.
</event>
<event>
 5    1  0.1796476E-008  0.3825859E+03  0.7957747E-01  0.3439976E+00
         13   -1    0    0    0    0  0.00000000000E+00  0.00000000000E+00  0.14999999963E+04  0.15000000000E+04  0.10566000000E+00 0. -1.
        994   -1    0    0    0    0 -0.00000000000E+00 -0.00000000000E+00  0.11368683772E-12  0.17120000000E+03  0.17120000000E+03 0.  0.
         13    1    1    2    0    0 -0.37587830596E+02  0.69837814054E+01  0.21777355708E+03  0.22110393832E+03  0.10566000000E+00 0. -1.
        994    1    1    2    0    0  0.40715724773E+02 -0.33331969362E+01  0.83849052664E+01  0.17620620614E+03  0.17120000000E+03 0.  0.
        998    1    1    2    0    0 -0.31278941775E+01 -0.36505844691E+01  0.12738415339E+04  0.12738898555E+04  0.10000000000E+02 0.  0.
</event>
<event>
 5    1  0.1796476E-008  0.3849044E+03  0.7957747E-01  0.3430078E+00
         13   -1    0    0    0    0  0.00000000000E+00  0.00000000000E+00  0.14999999963E+04  0.15000000000E+04  0.10566000000E+00 0. -1.
        994   -1    0    0    0    0 -0.00000000000E+00 -0.00000000000E+00  0.11368683772E-12  0.17120000000E+03  0.17120000000E+03 0.  0.
         13    1    1    2    0    0 -0.57870317037E+00  0.12712562544E+02  0.51447285353E+02  0.52997910129E+02  0.10566000000E+00 0. -1.
        994    1    1    2    0    0  0.90338020518E+00  0.32464574023E+01  0.17149759748E+01  0.17124174936E+03  0.17120000000E+03 0.  0.
        998    1    1    2    0    0 -0.32467703481E+00 -0.15959019946E+02  0.14468377350E+04  0.14469603405E+04  0.10000000000E+02 0. -1.
</event>
<event>
 5    1  0.1796476E-008  0.3399491E+03  0.7957747E-01  0.3646530E+00
         13   -1    0    0    0    0  0.00000000000E+00  0.00000000000E+00  0.14999999963E+04  0.15000000000E+04  0.10566000000E+00 0. -1.
        994   -1    0    0    0    0 -0.00000000000E+00 -0.00000000000E+00  0.11368683772E-12  0.17120000000E+03  0.17120000000E+03 0.  0.
         13    1    1    2    0    0  0.18255340444E+03  0.44994819678E+02  0.10026679299E+04  0.10201437487E+04  0.10566000000E+00 0. -1.
        994    1    1    2    0    0 -0.15297471347E+03 -0.27614795669E+02  0.99697352017E+02  0.25181906580E+03  0.17120000000E+03 0.  0.
        998    1    1    2    0    0 -0.29578690973E+02 -0.17380024008E+02  0.39763471438E+03  0.39923718549E+03  0.10000000000E+02 0. -1.
</event>
<event>
 5    1  0.1796476E-008  0.3737186E+03  0.7957747E-01  0.3478974E+00
         13   -1    0    0    0    0  0.00000000000E+00  0.00000000000E+00  0.14999999963E+04  0.15000000000E+04  0.10566000000E+00 0. -1.
        994   -1    0    0    0    0 -0.00000000000E+00 -0.00000000000E+00  0.11368683772E-12  0.17120000000E+03  0.17120000000E+03 0.  0.
         13    1    1    2    0    0  0.12809363414E+02  0.67861130820E+01  0.10897519388E+02  0.18135551127E+02  0.10566000000E+00 0. -1.
        994    1    1    2    0    0 -0.15871992363E+02 -0.45899597686E+01  0.82707613023E+01  0.17219417343E+03  0.17120000000E+03 0.  0.
        998    1    1    2    0    0  0.30626289490E+01 -0.21961533134E+01  0.14808317156E+04  0.14808702754E+04  0.10000000000E+02 0. -1.
</event>
<event>
 5    1  0.1796476E-008  0.3832740E+03  0.7957747E-01  0.3437025E+00
         13   -1    0    0    0    0  0.00000000000E+00  0.00000000000E+00  0.14999999963E+04  0.15000000000E+04  0.10566000000E+00 0. -1.
        994   -1    0    0    0    0 -0.00000000000E+00 -0.00000000000E+00  0.11368683772E-12  0.17120000000E+03  0.17120000000E+03 0.  0.
         13    1    1    2    0    0  0.20289911491E+02 -0.10508482979E+02  0.11072573346E+03  0.11305886934E+03  0.10566000000E+00 0. -1.
        994    1    1    2    0    0 -0.11554002339E+01  0.93829761424E+01  0.27851213442E+01  0.17148344553E+03  0.17120000000E+03 0.  0.
        998    1    1    2    0    0 -0.19134511257E+02  0.11255068362E+01  0.13864891415E+04  0.13866576851E+04  0.10000000000E+02 0. -1.
</event>
<event>
 5    1  0.1796476E-008  0.3745414E+03  0.7957747E-01  0.3475276E+00
         13   -1    0    0    0    0  0.00000000000E+00  0.00000000000E+00  0.14999999963E+04  0.15000000000E+04  0.10566000000E+00 0. -1.
        994   -1    0    0    0    0 -0.00000000000E+00 -0.00000000000E+00  0.11368683772E-12  0.17120000000E+03  0.17120000000E+03 0.  0.
         13    1    1    2    0    0 -0.27266816368E+01 -0.22961486324E+02  0.35207014323E+02  0.42121368313E+02  0.10566000000E+00 0. -1.
        994    1    1    2    0    0 -0.59280578147E+01  0.23160366159E+02  0.88626460241E+01  0.17308821717E+03  0.17120000000E+03 0.  0.
        998    1    1    2    0    0  0.86547394515E+01 -0.19887983547E+00  0.14559303359E+04  0.14559904145E+04  0.10000000000E+02 0. -1.
</event>
<event>
 5    1  0.1796476E-008  0.3813250E+03  0.7957747E-01  0.3445409E+00
         13   -1    0    0    0    0  0.00000000000E+00  0.00000000000E+00  0.14999999963E+04  0.15000000000E+04  0.10566000000E+00 0.  1.
        994   -1    0    0    0    0 -0.00000000000E+00 -0.00000000000E+00  0.11368683772E-12  0.17120000000E+03  0.17120000000E+03 0.  0.
         13    1    1    2    0    0  0.22691102656E+02  0.13153540001E+02  0.11476859280E+03  0.11772740892E+03  0.10566000000E+00 0.  1.
        994    1    1    2    0    0  0.44776179441E+01  0.11553126441E+02  0.39769311617E+01  0.17169385480E+03  0.17120000000E+03 0.  0.
        998    1    1    2    0    0 -0.27168720600E+02 -0.24706666442E+02  0.13812544723E+04  0.13817787363E+04  0.10000000000E+02 0.  0.
</event>
<event>
 5    1  0.1796476E-008  0.3839915E+03  0.7957747E-01  0.3433961E+00
         13   -1    0    0    0    0  0.00000000000E+00  0.00000000000E+00  0.14999999963E+04  0.15000000000E+04  0.10566000000E+00 0. -1.
        994   -1    0    0    0    0 -0.00000000000E+00 -0.00000000000E+00  0.11368683772E-12  0.17120000000E+03  0.17120000000E+03 0.  0.
         13    1    1    2    0    0  0.59442449174E-01  0.12542936733E+02  0.35796967878E+02  0.37931027782E+02  0.10566000000E+00 0. -1.
        994    1    1    2    0    0 -0.13150340824E+02 -0.12170586356E+02  0.31916643697E+01  0.17216469254E+03  0.17120000000E+03 0.  0.
        998    1    1    2    0    0  0.13090898374E+02 -0.37235037688E+00  0.14610113640E+04  0.14611042797E+04  0.10000000000E+02 0. -1.
</event>
<event>
 5    1  0.1796476E-008  0.2625610E+03  0.7957747E-01  0.4205823E+00
         13   -1    0    0    0    0  0.00000000000E+00  0.00000000000E+00  0.14999999963E+04  0.15000000000E+04  0.10566000000E+00 0. -1.
        994   -1    0    0    0    0 -0.00000000000E+00 -0.00000000000E+00  0.11368683772E-12  0.17120000000E+03  0.17120000000E+03 0.  0.
         13    1    1    2    0    0  0.36336078544E+01 -0.15792988173E+03  0.56234484276E+03  0.58411196187E+03  0.10566000000E+00 0. -1.
        994    1    1    2    0    0 -0.12821343092E+03  0.64458446908E+02  0.11787007949E+03  0.25257943480E+03  0.17120000000E+03 0.  0.
        998    1    1    2    0    0  0.12457982306E+03  0.93471434819E+02  0.81978507403E+03  0.83450860334E+03  0.10000000000E+02 0. -1.
</event>
<event>
 5    1  0.1796476E-008  0.3854199E+03  0.7957747E-01  0.3427893E+00
         13   -1    0    0    0    0  0.00000000000E+00  0.00000000000E+00  0.14999999963E+04  0.15000000000E+04  0.10566000000E+00 0. -1.
        994   -1    0    0    0    0 -0.00000000000E+00 -0.00000000000E+00  0.11368683772E-12  0.17120000000E+03  0.17120000000E+03 0.  0.
         13    1    1    2    0    0 -0.64194525344E+01  0.10030636786E+02  0.52198337408E+02  0.53539710845E+02  0.10566000000E+00 0. -1.
        994    1    1    2    0    0 -0.17439377750E+01 -0.24325851521E+01  0.14512449543E+01  0.17123231267E+03  0.17120000000E+03 0.  0.
        998    1    1    2    0    0  0.81633903094E+01 -0.75980516343E+01  0.14463504139E+04  0.14464279765E+04  0.10000000000E+02 0. -1.
</event>
<event>
 5    1  0.1796476E-008  0.3965940E+03  0.7957747E-01  0.3381941E+00
         13   -1    0    0    0    0  0.00000000000E+00  0.00000000000E+00  0.14999999963E+04  0.15000000000E+04  0.10566000000E+00 0.  1.
        994   -1    0    0    0    0 -0.00000000000E+00 -0.00000000000E+00  0.11368683772E-12  0.17120000000E+03  0.17120000000E+03 0.  0.
         13    1    1    2    0    0  0.12050509790E+03  0.99221439019E+02  0.32472969369E+03  0.36029953887E+03  0.10566000000E+00 0.  1.
        994    1    1    2    0    0 -0.12823533475E+03 -0.10438567186E+03  0.14120926280E+03  0.27674928269E+03  0.17120000000E+03 0.  0.
        998    1    1    2    0    0  0.77302368543E+01  0.51642328380E+01  0.10340610398E+04  0.10341511784E+04  0.10000000000E+02 0.  0.
</event>
<event>
 5    1  0.1796476E-008  0.3862662E+03  0.7957747E-01  0.3424320E+00
         13   -1    0    0    0    0  0.00000000000E+00  0.00000000000E+00  0.14999999963E+04  0.15000000000E+04  0.10566000000E+00 0.  1.
        994   -1    0    0    0    0 -0.00000000000E+00 -0.00000000000E+00  0.11368683772E-12  0.17120000000E+03  0.17120000000E+03 0.  0.
         13    1    1    2    0    0  0.11349076675E+02  0.27083642763E+01  0.68946861003E+02  0.69927230637E+02  0.10566000000E+00 0.  1.
        994    1    1    2    0    0 -0.10406761728E+02  0.89088390706E+01  0.16177002001E+01  0.17175483998E+03  0.17120000000E+03 0.  0.
        998    1    1    2    0    0 -0.94231494691E+00 -0.11617203347E+02  0.14294354351E+04  0.14295179294E+04  0.10000000000E+02 0.  1.
</event>
<event>
 5    1  0.1796476E-008  0.3799341E+03  0.7957747E-01  0.3451446E+00
         13   -1    0    0    0    0  0.00000000000E+00  0.00000000000E+00  0.14999999963E+04  0.15000000000E+04  0.10566000000E+00 0. -1.
        994   -1    0    0    0    0 -0.00000000000E+00 -0.00000000000E+00  0.11368683772E-12  0.17120000000E+03  0.17120000000E+03 0.  0.
         13    1    1    2    0    0 -0.19280313358E+02  0.72655110659E+01  0.50731428551E+02  0.54755886817E+02  0.10566000000E+00 0. -1.
        994    1    1    2    0    0  0.80766292242E+00 -0.15983139514E+02  0.50232368563E+01  0.17201972555E+03  0.17120000000E+03 0.  0.
        998    1    1    2    0    0  0.18472650436E+02  0.87176284480E+01  0.14442453309E+04  0.14444243876E+04  0.10000000000E+02 0. -1.
</event>
<event>
 5    1  0.2531486E-008  0.3860573E+03  0.7957747E-01  0.3425201E+00
         13   -1    0    0    0    0  0.00000000000E+00  0.00000000000E+00  0.14999999963E+04  0.15000000000E+04  0.10566000000E+00 0. -1.
        994   -1    0    0    0    0 -0.00000000000E+00 -0.00000000000E+00  0.11368683772E-12  0.17120000000E+03  0.17120000000E+03 0.  0.
         13    1    1    2    0    0  0.88133361414E+01  0.74494328963E+01  0.61719944053E+02  0.62789581957E+02  0.10566000000E+00 0. -1.
        994    1    1    2    0    0 -0.47308824938E+01 -0.37885137197E+01  0.12265301820E+01  0.17131164135E+03  0.17120000000E+03 0.  0.
        998    1    1    2    0    0 -0.40824536476E+01 -0.36609191766E+01  0.14370535220E+04  0.14370987767E+04  0.10000000000E+02 0. -1.
</event>
<event>
 5    1  0.1796476E-008  0.3685402E+03  0.7957747E-01  0.3502627E+00
         13   -1    0    0    0    0  0.00000000000E+00  0.00000000000E+00  0.14999999963E+04  0.15000000000E+04  0.10566000000E+00 0. -1.
        994   -1    0    0    0    0 -0.00000000000E+00 -0.00000000000E+00  0.11368683772E-12  0.17120000000E+03  0.17120000000E+03 0.  0.
         13    1    1    2    0    0  0.89714868962E+02 -0.10061320559E+03  0.57526035888E+03  0.59084369042E+03  0.10566000000E+00 0. -1.
        994    1    1    2    0    0 -0.92253084553E+02  0.87668501586E+02  0.68633491159E+02  0.22409014679E+03  0.17120000000E+03 0.  0.
        998    1    1    2    0    0  0.25382155908E+01  0.12944704005E+02  0.85610614624E+03  0.85626616279E+03  0.10000000000E+02 0. -1.
</event>
<event>
 5    1  0.1796476E-008  0.3735904E+03  0.7957747E-01  0.3479551E+00
         13   -1    0    0    0    0  0.00000000000E+00  0.00000000000E+00  0.14999999963E+04  0.15000000000E+04  0.10566000000E+00 0.  1.
        994   -1    0    0    0    0 -0.00000000000E+00 -0.00000000000E+00  0.11368683772E-12  0.17120000000E+03  0.17120000000E+03 0.  0.
         13    1    1    2    0    0  0.13917660307E+02  0.86238895610E+01  0.14873225772E+02  0.22120053085E+02  0.10566000000E+00 0.  1.
        994    1    1    2    0    0 -0.88703820352E+01 -0.71897284236E+01  0.78498061867E+01  0.17175981873E+03  0.17120000000E+03 0.  0.
        998    1    1    2    0    0 -0.50472782721E+01 -0.14341611374E+01  0.14772769643E+04  0.14773201282E+04  0.10000000000E+02 0.  1.
</event>
<event>
 5    1  0.1796476E-008  0.3809828E+03  0.7957747E-01  0.3446890E+00
         13   -1    0    0    0    0  0.00000000000E+00  0.00000000000E+00  0.14999999963E+04  0.15000000000E+04  0.10566000000E+00 0. -1.
        994   -1    0    0    0    0 -0.00000000000E+00 -0.00000000000E+00  0.11368683772E-12  0.17120000000E+03  0.17120000000E+03 0.  0.
         13    1    1    2    0    0  0.15620695526E+02  0.18441033950E+02  0.79689858746E+02  0.83274021237E+02  0.10566000000E+00 0. -1.
        994    1    1    2    0    0 -0.74003348333E+01 -0.11285699979E+02  0.42449641297E+01  0.17178356062E+03  0.17120000000E+03 0.  0.
        998    1    1    2    0    0 -0.82203606928E+01 -0.71553339712E+01  0.14160651734E+04  0.14161424181E+04  0.10000000000E+02 0. -1.
</event>
<event>
 5    1  0.2662488E-008  0.3856507E+03  0.7957747E-01  0.3426917E+00
         13   -1    0    0    0    0  0.00000000000E+00  0.00000000000E+00  0.14999999963E+04  0.15000000000E+04  0.10566000000E+00 0. -1.
        994   -1    0    0    0    0 -0.00000000000E+00 -0.00000000000E+00  0.11368683772E-12  0.17120000000E+03  0.17120000000E+03 0.  0.
         13    1    1    2    0    0  0.76244960127E+01  0.70906804374E+01  0.42827937680E+02  0.44075549894E+02  0.10566000000E+00 0. -1.
        994    1    1    2    0    0 -0.17827784339E+01 -0.15318435513E+01  0.13255504863E+01  0.17122126599E+03  0.17120000000E+03 0.  0.
        998    1    1    2    0    0 -0.58417175788E+01 -0.55588368862E+01  0.14558465081E+04  0.14559031841E+04  0.10000000000E+02 0. -1.
</event>
<event>
 5    1  0.1796476E-008  0.3786997E+03  0.7957747E-01  0.3456840E+00
         13   -1    0    0    0    0  0.00000000000E+00  0.00000000000E+00  0.14999999963E+04  0.15000000000E+04  0.10566000000E+00 0.  1.
        994   -1    0    0    0    0 -0.00000000000E+00 -0.00000000000E+00  0.11368683772E-12  0.17120000000E+03  0.17120000000E+03 0.  0.
         13    1    1    2    0    0 -0.15147237616E+02 -0.15370509951E+02  0.79344457829E+01  0.22992563526E+02  0.10566000000E+00 0.  1.
        994    1    1    2    0    0  0.15001638449E+02  0.16861358758E+02  0.17453808405E+02  0.17356102674E+03  0.17120000000E+03 0.  0.
        998    1    1    2    0    0  0.14559916711E+00 -0.14908488065E+01  0.14746117421E+04  0.14746464097E+04  0.10000000000E+02 0.  1.
</event>
<event>
 5    1  0.1796476E-008  0.3790052E+03  0.7957747E-01  0.3455502E+00
         13   -1    0    0    0    0  0.00000000000E+00  0.00000000000E+00  0.14999999963E+04  0.15000000000E+04  0.10566000000E+00 0.  1.
        994   -1    0    0    0    0 -0.00000000000E+00 -0.00000000000E+00  0.11368683772E-12  0.17120000000E+03  0.17120000000E+03 0.  0.
         13    1    1    2    0    0 -0.28930179954E+02  0.57284551212E+02  0.11731177527E+03  0.13371813228E+03  0.10566000000E+00 0.  1.
        994    1    1    2    0    0  0.26925442110E+02 -0.54780805207E+02  0.29359371654E+02  0.18411227215E+03  0.17120000000E+03 0.  0.
        998    1    1    2    0    0  0.20047378438E+01 -0.25037460041E+01  0.13533288494E+04  0.13533695956E+04  0.10000000000E+02 0.  1.
</event>
<event>
 5    1  0.1796476E-008  0.3838641E+03  0.7957747E-01  0.3434504E+00
         13   -1    0    0    0    0  0.00000000000E+00  0.00000000000E+00  0.14999999963E+04  0.15000000000E+04  0.10566000000E+00 0.  1.
        994   -1    0    0    0    0 -0.00000000000E+00 -0.00000000000E+00  0.11368683772E-12  0.17120000000E+03  0.17120000000E+03 0.  0.
         13    1    1    2    0    0  0.15794816441E+02  0.16023972590E+02  0.12136330095E+03  0.12343138137E+03  0.10566000000E+00 0.  1.
        994    1    1    2    0    0  0.77442615253E+01 -0.17653909440E+02  0.34227938434E+01  0.17231595870E+03  0.17120000000E+03 0.  0.
        998    1    1    2    0    0 -0.23539077966E+02  0.16299368504E+01  0.13752139015E+04  0.13754526599E+04  0.10000000000E+02 0.  1.
</event>
<event>
 5    1  0.1796476E-008  0.3829950E+03  0.7957747E-01  0.3438221E+00
         13   -1    0    0    0    0  0.00000000000E+00  0.00000000000E+00  0.14999999963E+04  0.15000000000E+04  0.10566000000E+00 0.  1.
        994   -1    0    0    0    0 -0.00000000000E+00 -0.00000000000E+00  0.11368683772E-12  0.17120000000E+03  0.17120000000E+03 0.  0.
         13    1    1    2    0    0  0.27757324194E+02 -0.14341625115E+02  0.15844074219E+03  0.16149189208E+03  0.10566000000E+00 0.  1.
        994    1    1    2    0    0 -0.33995779894E+02  0.17598945936E+02  0.74949138992E+01  0.17558772646E+03  0.17120000000E+03 0.  0.
        998    1    1    2    0    0  0.62384557002E+01 -0.32573208208E+01  0.13340643402E+04  0.13341203815E+04  0.10000000000E+02 0.  1.
</event>
<event>
 5    1  0.1796476E-008  0.3772078E+03  0.7957747E-01  0.3463407E+00
         13   -1    0    0    0    0  0.00000000000E+00  0.00000000000E+00  0.14999999963E+04  0.15000000000E+04  0.10566000000E+00 0.  1.
        994   -1    0    0    0    0 -0.00000000000E+00 -0.00000000000E+00  0.11368683772E-12  0.17120000000E+03  0.17120000000E+03 0.  0.
         13    1    1    2    0    0 -0.18898885405E+01  0.10635431171E+02  0.72781000726E+01  0.13025589414E+02  0.10566000000E+00 0.  1.
        994    1    1    2    0    0 -0.19550092440E+02 -0.49894455835E+02  0.15300578290E+02  0.18004224652E+03  0.17120000000E+03 0.  0.
        998    1    1    2    0    0  0.21439980981E+02  0.39259024664E+02  0.14774213179E+04  0.14781321641E+04  0.10000000000E+02 0.  1.
</event>
<event>
 5    1  0.1796476E-008  0.3850883E+03  0.7957747E-01  0.3429298E+00
         13   -1    0    0    0    0  0.00000000000E+00  0.00000000000E+00  0.14999999963E+04  0.15000000000E+04  0.10566000000E+00 0.  1.
        994   -1    0    0    0    0 -0.00000000000E+00 -0.00000000000E+00  0.11368683772E-12  0.17120000000E+03  0.17120000000E+03 0.  0.
         13    1    1    2    0    0  0.13327899784E+02  0.53838839540E+01  0.69257443690E+02  0.70733470080E+02  0.10566000000E+00 0.  1.
        994    1    1    2    0    0 -0.17198436992E+01  0.30690844878E+01  0.16270216054E+01  0.17124387388E+03  0.17120000000E+03 0.  0.
        998    1    1    2    0    0 -0.11608056085E+02 -0.84529684418E+01  0.14291155310E+04  0.14292226560E+04  0.10000000000E+02 0.  1.
</event>
<event>
 5    1  0.1796476E-008  0.3826987E+03  0.7957747E-01  0.3439491E+00
         13   -1    0    0    0    0  0.00000000000E+00  0.00000000000E+00  0.14999999963E+04  0.15000000000E+04  0.10566000000E+00 0.  1.
        994   -1    0    0    0    0 -0.00000000000E+00 -0.00000000000E+00  0.11368683772E-12  0.17120000000E+03  0.17120000000E+03 0.  0.
         13    1    1    2    0    0 -0.13677010747E+01  0.15408084482E+02  0.41370827118E+02  0.44168271124E+02  0.10566000000E+00 0.  1.
        994    1    1    2    0    0  0.36879596225E+01 -0.14824097401E+02  0.35506148886E+01  0.17191684553E+03  0.17120000000E+03 0.  0.
        998    1    1    2    0    0 -0.23202585478E+01 -0.58398708028E+00  0.14550785543E+04  0.14551148833E+04  0.10000000000E+02 0.  1.
</event>
<event>
 5    1  0.1796476E-008  0.3743862E+03  0.7957747E-01  0.3475972E+00
         13   -1    0    0    0    0  0.00000000000E+00  0.00000000000E+00  0.14999999963E+04  0.15000000000E+04  0.10566000000E+00 0.  1.
        994   -1    0    0    0    0 -0.00000000000E+00 -0.00000000000E+00  0.11368683772E-12  0.17120000000E+03  0.17120000000E+03 0.  0.
         13    1    1    2    0    0  0.38984876533E+02 -0.65905852036E+01  0.10894625455E+03  0.11589889541E+03  0.10566000000E+00 0.  1.
        994    1    1    2    0    0 -0.25388541461E+02 -0.11018049890E+01  0.91971031356E+01  0.17331998938E+03  0.17120000000E+03 0.  0.
        998    1    1    2    0    0 -0.13596335071E+02  0.76923901926E+01  0.13818566386E+04  0.13819811152E+04  0.10000000000E+02 0.  1.
</event>
<event>
 5    1  0.1796476E-008  0.3808167E+03  0.7957747E-01  0.3447610E+00
         13   -1    0    0    0    0  0.00000000000E+00  0.00000000000E+00  0.14999999963E+04  0.15000000000E+04  0.10566000000E+00 0.  1.
        994   -1    0    0    0    0 -0.00000000000E+00 -0.00000000000E+00  0.11368683772E-12  0.17120000000E+03  0.17120000000E+03 0.  0.
         13    1    1    2    0    0 -0.13841037317E+03  0.60938924985E+02  0.90827409477E+03  0.92077838071E+03  0.10566000000E+00 0.  1.
        994    1    1    2    0    0  0.14501086493E+03 -0.61135502588E+02  0.91251669432E+02  0.24980393872E+03  0.17120000000E+03 0.  0.
        998    1    1    2    0    0 -0.66004917565E+01  0.19657760280E+00  0.50047423207E+03  0.50061768058E+03  0.10000000000E+02 0.  0.
</event>
<event>
 5    1  0.5233696E-008  0.3867413E+03  0.7957747E-01  0.3422320E+00
         13   -1    0    0    0    0  0.00000000000E+00  0.00000000000E+00  0.14999999963E+04  0.15000000000E+04  0.10566000000E+00 0.  1.
        994   -1    0    0    0    0 -0.00000000000E+00 -0.00000000000E+00  0.11368683772E-12  0.17120000000E+03  0.17120000000E+03 0.  0.
         13    1    1    2    0    0 -0.38461504155E+01 -0.92384800171E+01  0.57915300627E+02  0.58773596086E+02  0.10566000000E+00 0.  1.
        994    1    1    2    0    0  0.77063169794E+01  0.23052702865E+02  0.27025086491E+01  0.17293801775E+03  0.17120000000E+03 0.  0.
        998    1    1    2    0    0 -0.38601665639E+01 -0.13814222848E+02  0.14393821870E+04  0.14394883862E+04  0.10000000000E+02 0.  1.
</event>
<event>
 5    1  0.1796476E-008  0.3838379E+03  0.7957747E-01  0.3434616E+00
         13   -1    0    0    0    0  0.00000000000E+00  0.00000000000E+00  0.14999999963E+04  0.15000000000E+04  0.10566000000E+00 0. -1.
        994   -1    0    0    0    0 -0.00000000000E+00 -0.00000000000E+00  0.11368683772E-12  0.17120000000E+03  0.17120000000E+03 0.  0.
         13    1    1    2    0    0  0.12413588430E+02 -0.43553104502E+01  0.36973333888E+02  0.39244165040E+02  0.10566000000E+00 0. -1.
        994    1    1    2    0    0 -0.17105927410E+02  0.88704931970E+01  0.34348332335E+01  0.17231522417E+03  0.17120000000E+03 0.  0.
        998    1    1    2    0    0  0.46923389804E+01 -0.45151827469E+01  0.14595918292E+04  0.14596406108E+04  0.10000000000E+02 0. -1.
</event>
<event>
 5    1  0.1796476E-008  0.3826009E+03  0.7957747E-01  0.3439911E+00
         13   -1    0    0    0    0  0.00000000000E+00  0.00000000000E+00  0.14999999963E+04  0.15000000000E+04  0.10566000000E+00 0. -1.
        994   -1    0    0    0    0 -0.00000000000E+00 -0.00000000000E+00  0.11368683772E-12  0.17120000000E+03  0.17120000000E+03 0.  0.
         13    1    1    2    0    0  0.13008169176E+02 -0.11380164276E+01  0.29279380967E+02  0.32059333439E+02  0.10566000000E+00 0. -1.
        994    1    1    2    0    0 -0.73807733539E+01  0.53785225776E+01  0.31024141054E+01  0.17147148245E+03  0.17120000000E+03 0.  0.
        998    1    1    2    0    0 -0.56273958225E+01 -0.42405061500E+01  0.14676182012E+04  0.14676691841E+04  0.10000000000E+02 0. -1.
</event>
<event>
 5    1  0.1796476E-008  0.3821974E+03  0.7957747E-01  0.3441646E+00
         13   -1    0    0    0    0  0.00000000000E+00  0.00000000000E+00  0.14999999963E+04  0.15000000000E+04  0.10566000000E+00 0. -1.
        994   -1    0    0    0    0 -0.00000000000E+00 -0.00000000000E+00  0.11368683772E-12  0.17120000000E+03  0.17120000000E+03 0.  0.
         13    1    1    2    0    0 -0.26131051982E+02  0.20655370206E+02  0.18205163668E+03  0.18507373065E+03  0.10566000000E+00 0. -1.
        994    1    1    2    0    0  0.32333815713E+02  0.74739563576E+01  0.66917632422E+01  0.17451520094E+03  0.17120000000E+03 0.  0.
        998    1    1    2    0    0 -0.62027637311E+01 -0.28129326564E+02  0.13112565964E+04  0.13116110684E+04  0.10000000000E+02 0. -1.
</event>
<event>
 5    1  0.1796476E-008  0.3775349E+03  0.7957747E-01  0.3461963E+00
         13   -1    0    0    0    0  0.00000000000E+00  0.00000000000E+00  0.14999999963E+04  0.15000000000E+04  0.10566000000E+00 0. -1.
        994   -1    0    0    0    0 -0.00000000000E+00 -0.00000000000E+00  0.11368683772E-12  0.17120000000E+03  0.17120000000E+03 0.  0.
         13    1    1    2    0    0 -0.49602910320E+01 -0.26197748520E+03  0.11390865165E+04  0.11688348517E+04  0.10566000000E+00 0. -1.
        994    1    1    2    0    0  0.38038502983E+01  0.25809273829E+03  0.27024638166E+03  0.41105824117E+03  0.17120000000E+03 0.  0.
        998    1    1    2    0    0  0.11564407337E+01  0.38847469056E+01  0.90667098097E+02  0.91306907137E+02  0.10000000000E+02 0.  0.
</event>
<event>
 5    1  0.1796476E-008  0.3819195E+03  0.7957747E-01  0.3442843E+00
         13   -1    0    0    0    0  0.00000000000E+00  0.00000000000E+00  0.14999999963E+04  0.15000000000E+04  0.10566000000E+00 0.  1.
        994   -1    0    0    0    0 -0.00000000000E+00 -0.00000000000E+00  0.11368683772E-12  0.17120000000E+03  0.17120000000E+03 0.  0.
         13    1    1    2    0    0 -0.77389489753E+01 -0.28681154257E+02  0.15583227749E+03  0.15863861387E+03  0.10566000000E+00 0.  1.
        994    1    1    2    0    0  0.66681539470E+01 -0.11291837228E+00  0.33150912699E+01  0.17136191776E+03  0.17120000000E+03 0.  0.
        998    1    1    2    0    0  0.10707950283E+01  0.28794072629E+02  0.13408526275E+04  0.13411994684E+04  0.10000000000E+02 0.  1.
</event>
<event>
 5    1  0.1796476E-008  0.3813875E+03  0.7957747E-01  0.3445139E+00
         13   -1    0    0    0    0  0.00000000000E+00  0.00000000000E+00  0.14999999963E+04  0.15000000000E+04  0.10566000000E+00 0. -1.
        994   -1    0    0    0    0 -0.00000000000E+00 -0.00000000000E+00  0.11368683772E-12  0.17120000000E+03  0.17120000000E+03 0.  0.
         13    1    1    2    0    0 -0.37761074947E+02  0.62244443913E+01  0.22942620011E+03  0.23259629178E+03  0.10566000000E+00 0. -1.
        994    1    1    2    0    0  0.11147120542E+02 -0.15180929219E+02  0.46156666225E+01  0.17229469895E+03  0.17120000000E+03 0.  0.
        998    1    1    2    0    0  0.26613954405E+02  0.89564848277E+01  0.12659581295E+04  0.12663090093E+04  0.10000000000E+02 0. -1.
</event>
<event>
 5    1  0.1796476E-008  0.3844516E+03  0.7957747E-01  0.3432002E+00
         13   -1    0    0    0    0  0.00000000000E+00  0.00000000000E+00  0.14999999963E+04  0.15000000000E+04  0.10566000000E+00 0. -1.
        994   -1    0    0    0    0 -0.00000000000E+00 -0.00000000000E+00  0.11368683772E-12  0.17120000000E+03  0.17120000000E+03 0.  0.
         13    1    1    2    0    0 -0.85098155281E+01  0.53131013273E+01  0.25974791461E+02  0.27845052729E+02  0.10566000000E+00 0. -1.
        994    1    1    2    0    0  0.53217342462E+01 -0.43348448135E+01  0.20578982323E+01  0.17134989548E+03  0.17120000000E+03 0.  0.
        998    1    1    2    0    0  0.31880812819E+01 -0.97825651385E+00  0.14719673066E+04  0.14720050518E+04  0.10000000000E+02 0. -1.
</event>
<event>
 5    1  0.1796476E-008  0.3856901E+03  0.7957747E-01  0.3426751E+00
         13   -1    0    0    0    0  0.00000000000E+00  0.00000000000E+00  0.14999999963E+04  0.15000000000E+04  0.10566000000E+00 0. -1.
        994   -1    0    0    0    0 -0.00000000000E+00 -0.00000000000E+00  0.11368683772E-12  0.17120000000E+03  0.17120000000E+03 0.  0.
         13    1    1    2    0    0  0.11220580558E+02  0.30980213094E+01  0.52000795093E+02  0.53287831805E+02  0.10566000000E+00 0. -1.
        994    1    1    2    0    0 -0.11059549565E+02 -0.34369125239E+00  0.16897530492E+01  0.17156551817E+03  0.17120000000E+03 0.  0.
        998    1    1    2    0    0 -0.16103099296E+00 -0.27543300570E+01  0.14463094481E+04  0.14463466500E+04  0.10000000000E+02 0. -1.
</event>
<event>
 5    1  0.1796476E-008  0.3848766E+03  0.7957747E-01  0.3430196E+00
         13   -1    0    0    0    0  0.00000000000E+00  0.00000000000E+00  0.14999999963E+04  0.15000000000E+04  0.10566000000E+00 0. -1.
        994   -1    0    0    0    0 -0.00000000000E+00 -0.00000000000E+00  0.11368683772E-12  0.17120000000E+03  0.17120000000E+03 0.  0.
         13    1    1    2    0    0  0.34259441986E+02  0.15619661062E+01  0.19614606520E+03  0.19912166924E+03  0.10566000000E+00 0. -1.
        994    1    1    2    0    0 -0.77743337709E+02 -0.19752749642E+02  0.23154166385E+02  0.19047244708E+03  0.17120000000E+03 0.  0.
        998    1    1    2    0    0  0.43483895723E+02  0.18190783536E+02  0.12806997647E+04  0.12816058837E+04  0.10000000000E+02 0. -1.
</event>
<event>
 5    1  0.1796476E-008  0.3814202E+03  0.7957747E-01  0.3444998E+00
         13   -1    0    0    0    0  0.00000000000E+00  0.00000000000E+00  0.14999999963E+04  0.15000000000E+04  0.10566000000E+00 0.  1.
        994   -1    0    0    0    0 -0.00000000000E+00 -0.00000000000E+00  0.11368683772E-12  0.17120000000E+03  0.17120000000E+03 0.  0.
         13    1    1    2    0    0 -0.22274036071E+00  0.63949711380E+02  0.36703825808E+03  0.37256772439E+03  0.10566000000E+00 0.  1.
        994    1    1    2    0    0  0.71790262242E+02 -0.95349529633E+02  0.52365316959E+02  0.21516723955E+03  0.17120000000E+03 0.  0.
        998    1    1    2    0    0 -0.71567521881E+02  0.31399818253E+02  0.10805964212E+04  0.10834650361E+04  0.10000000000E+02 0.  1.
</event>
<event>
 5    1  0.1796476E-008  0.3766460E+03  0.7957747E-01  0.3465894E+00
         13   -1    0    0    0    0  0.00000000000E+00  0.00000000000E+00  0.14999999963E+04  0.15000000000E+04  0.10566000000E+00 0.  1.
        994   -1    0    0    0    0 -0.00000000000E+00 -0.00000000000E+00  0.11368683772E-12  0.17120000000E+03  0.17120000000E+03 0.  0.
         13    1    1    2    0    0 -0.14247037291E+03  0.69880801244E+02  0.51060521359E+03  0.53469508025E+03  0.10566000000E+00 0.  1.
        994    1    1    2    0    0  0.14569644222E+03 -0.69491543806E+02  0.11473603724E+03  0.26178297534E+03  0.17120000000E+03 0.  0.
        998    1    1    2    0    0 -0.32260693075E+01 -0.38925743816E+00  0.87465874545E+03  0.87472194441E+03  0.10000000000E+02 0.  0.
</event>
<event>
 5    1  0.1796476E-008  0.2986934E+03  0.7957747E-01  0.3905391E+00
         13   -1    0    0    0    0  0.00000000000E+00  0.00000000000E+00  0.14999999963E+04  0.15000000000E+04  0.10566000000E+00 0.  1.
        994   -1    0    0    0    0 -0.00000000000E+00 -0.00000000000E+00  0.11368683772E-12  0.17120000000E+03  0.17120000000E+03 0.  0.
         13    1    1    2    0    0 -0.17915063921E+03  0.90443300754E+02  0.74606521786E+03  0.77258544035E+03  0.10566000000E+00 0.  1.
        994    1    1    2    0    0  0.10568314846E+03 -0.47510333202E+02  0.83865183275E+02  0.22308959769E+03  0.17120000000E+03 0.  0.
        998    1    1    2    0    0  0.73467490743E+02 -0.42932967552E+02  0.67006959514E+03  0.67552496196E+03  0.10000000000E+02 0.  1.
</event>
<event>
 5    1  0.1796476E-008  0.3857823E+03  0.7957747E-01  0.3426361E+00
         13   -1    0    0    0    0  0.00000000000E+00  0.00000000000E+00  0.14999999963E+04  0.15000000000E+04  0.10566000000E+00 0. -1.
        994   -1    0    0    0    0 -0.00000000000E+00 -0.00000000000E+00  0.11368683772E-12  0.17120000000E+03  0.17120000000E+03 0.  0.
         13    1    1    2    0    0 -0.12839660401E+02 -0.90576563609E+00  0.64695684808E+02  0.65963778602E+02  0.10566000000E+00 0. -1.
        994    1    1    2    0    0  0.14508709351E+02 -0.60574731376E+01  0.20535598642E+01  0.17193269827E+03  0.17120000000E+03 0.  0.
        998    1    1    2    0    0 -0.16690489494E+01  0.69632387737E+01  0.14332507516E+04  0.14333035231E+04  0.10000000000E+02 0. -1.
</event>
<event>
 5    1  0.1796476E-008  0.3764218E+03  0.7957747E-01  0.3466888E+00
         13   -1    0    0    0    0  0.00000000000E+00  0.00000000000E+00  0.14999999963E+04  0.15000000000E+04  0.10566000000E+00 0.  1.
        994   -1    0    0    0    0 -0.00000000000E+00 -0.00000000000E+00  0.11368683772E-12  0.17120000000E+03  0.17120000000E+03 0.  0.
         13    1    1    2    0    0  0.30312255262E+02 -0.52123140849E+02  0.26348496945E+03  0.27029612450E+03  0.10566000000E+00 0.  1.
        994    1    1    2    0    0 -0.41402718012E+02  0.38916159830E+02  0.16952070233E+02  0.18117799325E+03  0.17120000000E+03 0.  0.
        998    1    1    2    0    0  0.11090462750E+02  0.13206981020E+02  0.12195629566E+04  0.12197258822E+04  0.10000000000E+02 0.  1.
</event>
<event>
 5    1  0.1796476E-008  0.3834735E+03  0.7957747E-01  0.3436172E+00
         13   -1    0    0    0    0  0.00000000000E+00  0.00000000000E+00  0.14999999963E+04  0.15000000000E+04  0.10566000000E+00 0.  1.
        994   -1    0    0    0    0 -0.00000000000E+00 -0.00000000000E+00  0.11368683772E-12  0.17120000000E+03  0.17120000000E+03 0.  0.
         13    1    1    2    0    0  0.27167328703E+01 -0.25960669388E+02  0.13905495194E+03  0.14148366625E+03  0.10566000000E+00 0.  1.
        994    1    1    2    0    0 -0.95581509885E+01  0.17564758192E+02  0.37126538154E+01  0.17240389433E+03  0.17120000000E+03 0.  0.
        998    1    1    2    0    0  0.68414181181E+01  0.83959111967E+01  0.13572323905E+04  0.13573124394E+04  0.10000000000E+02 0.  1.
</event>
<event>
 5    1  0.1796476E-008  0.3848492E+03  0.7957747E-01  0.3430312E+00
         13   -1    0    0    0    0  0.00000000000E+00  0.00000000000E+00  0.14999999963E+04  0.15000000000E+04  0.10566000000E+00 0.  1.
        994   -1    0    0    0    0 -0.00000000000E+00 -0.00000000000E+00  0.11368683772E-12  0.17120000000E+03  0.17120000000E+03 0.  0.
         13    1    1    2    0    0  0.74484067818E+00  0.15586404694E+02  0.67063660871E+02  0.68855185515E+02  0.10566000000E+00 0.  1.
        994    1    1    2    0    0 -0.11467668993E+02 -0.19774883506E+02  0.34262344684E+01  0.17275338646E+03  0.17120000000E+03 0.  0.
        998    1    1    2    0    0  0.10722828314E+02  0.41884788125E+01  0.14295101009E+04  0.14295914280E+04  0.10000000000E+02 0.  1.
</event>
<event>
 5    1  0.1796476E-008  0.3841413E+03  0.7957747E-01  0.3433322E+00
         13   -1    0    0    0    0  0.00000000000E+00  0.00000000000E+00  0.14999999963E+04  0.15000000000E+04  0.10566000000E+00 0. -1.
        994   -1    0    0    0    0 -0.00000000000E+00 -0.00000000000E+00  0.11368683772E-12  0.17120000000E+03  0.17120000000E+03 0.  0.
         13    1    1    2    0    0 -0.43172810101E+01 -0.20878796569E+02  0.11819138909E+03  0.12009903697E+03  0.10566000000E+00 0. -1.
        994    1    1    2    0    0  0.27984013747E+02 -0.27739669182E+00  0.46441582598E+01  0.17353440633E+03  0.17120000000E+03 0.  0.
        998    1    1    2    0    0 -0.23666732737E+02  0.21156193260E+02  0.13771644489E+04  0.13775665567E+04  0.10000000000E+02 0. -1.
</event>
<event>
 5    1  0.1796476E-008  0.3744621E+03  0.7957747E-01  0.3475632E+00
         13   -1    0    0    0    0  0.00000000000E+00  0.00000000000E+00  0.14999999963E+04  0.15000000000E+04  0.10566000000E+00 0. -1.
        994   -1    0    0    0    0 -0.00000000000E+00 -0.00000000000E+00  0.11368683772E-12  0.17120000000E+03  0.17120000000E+03 0.  0.
         13    1    1    2    0    0 -0.33957344215E+02 -0.11142614016E+02  0.88777916447E+02  0.95701560520E+02  0.10566000000E+00 0. -1.
        994    1    1    2    0    0 -0.50723406365E+01  0.10013496439E+03  0.41999914666E+02  0.20279588892E+03  0.17120000000E+03 0.  0.
        998    1    1    2    0    0  0.39029684851E+02 -0.88992350370E+02  0.13692221652E+04  0.13727025506E+04  0.10000000000E+02 0. -1.
</event>
<event>
 5    1  0.1796476E-008  0.3827083E+03  0.7957747E-01  0.3439450E+00
         13   -1    0    0    0    0  0.00000000000E+00  0.00000000000E+00  0.14999999963E+04  0.15000000000E+04  0.10566000000E+00 0.  1.
        994   -1    0    0    0    0 -0.00000000000E+00 -0.00000000000E+00  0.11368683772E-12  0.17120000000E+03  0.17120000000E+03 0.  0.
         13    1    1    2    0    0 -0.84427811099E+01  0.24719190921E+02  0.11359121376E+03  0.11655596922E+03  0.10566000000E+00 0.  1.
        994    1    1    2    0    0  0.93500700444E+01 -0.25555817180E+02  0.52296228609E+01  0.17342811928E+03  0.17120000000E+03 0.  0.
        998    1    1    2    0    0 -0.90728893449E+00  0.83662625958E+00  0.13811791597E+04  0.13812159115E+04  0.10000000000E+02 0.  1.
</event>
<event>
 5    1  0.1796476E-008  0.3804053E+03  0.7957747E-01  0.3449395E+00
         13   -1    0    0    0    0  0.00000000000E+00  0.00000000000E+00  0.14999999963E+04  0.15000000000E+04  0.10566000000E+00 0. -1.
        994   -1    0    0    0    0 -0.00000000000E+00 -0.00000000000E+00  0.11368683772E-12  0.17120000000E+03  0.17120000000E+03 0.  0.
         13    1    1    2    0    0  0.13839486768E+02 -0.15161757902E+02  0.51744497724E+02  0.55667894746E+02  0.10566000000E+00 0. -1.
        994    1    1    2    0    0 -0.17196357573E+02  0.54158057561E+01  0.50145647964E+01  0.17221971875E+03  0.17120000000E+03 0.  0.
        998    1    1    2    0    0  0.33568708051E+01  0.97459521461E+01  0.14432409338E+04  0.14433123865E+04  0.10000000000E+02 0. -1.
</event>
<event>
 5    1  0.1796476E-008  0.3794638E+03  0.7957747E-01  0.3453497E+00
         13   -1    0    0    0    0  0.00000000000E+00  0.00000000000E+00  0.14999999963E+04  0.15000000000E+04  0.10566000000E+00 0. -1.
        994   -1    0    0    0    0 -0.00000000000E+00 -0.00000000000E+00  0.11368683772E-12  0.17120000000E+03  0.17120000000E+03 0.  0.
         13    1    1    2    0    0  0.15787442324E+02 -0.25383502487E+02  0.94138861779E+02  0.98770957243E+02  0.10566000000E+00 0. -1.
        994    1    1    2    0    0 -0.15759462820E+02  0.26160777891E+02  0.75339947686E+01  0.17406593017E+03  0.17120000000E+03 0.  0.
        998    1    1    2    0    0 -0.27979504045E-01 -0.77727540403E+00  0.13983271397E+04  0.13983631126E+04  0.10000000000E+02 0. -1.
</event>
<event>
 5    1  0.1796476E-008  0.3888964E+03  0.7957747E-01  0.3413313E+00
         13   -1    0    0    0    0  0.00000000000E+00  0.00000000000E+00  0.14999999963E+04  0.15000000000E+04  0.10566000000E+00 0.  1.
        994   -1    0    0    0    0 -0.00000000000E+00 -0.00000000000E+00  0.11368683772E-12  0.17120000000E+03  0.17120000000E+03 0.  0.
         13    1    1    2    0    0  0.20750994764E+02 -0.17073789263E+02  0.77564721461E+01  0.27969484938E+02  0.10566000000E+00 0.  1.
        994    1    1    2    0    0 -0.25728439573E+02  0.97519865573E+01  0.24143463399E+02  0.17506970232E+03  0.17120000000E+03 0.  0.
        998    1    1    2    0    0  0.49774448089E+01  0.73218027060E+01  0.14681000607E+04  0.14681608127E+04  0.10000000000E+02 0.  1.
</event>
<event>
 5    1  0.1796476E-008  0.3833717E+03  0.7957747E-01  0.3436607E+00
         13   -1    0    0    0    0  0.00000000000E+00  0.00000000000E+00  0.14999999963E+04  0.15000000000E+04  0.10566000000E+00 0. -1.
        994   -1    0    0    0    0 -0.00000000000E+00 -0.00000000000E+00  0.11368683772E-12  0.17120000000E+03  0.17120000000E+03 0.  0.
         13    1    1    2    0    0 -0.46649532398E+02 -0.24774421819E+01  0.25247334371E+03  0.25675886945E+03  0.10566000000E+00 0. -1.
        994    1    1    2    0    0  0.85285195118E+02  0.22749761646E+02  0.28639798255E+02  0.19473262235E+03  0.17120000000E+03 0.  0.
        998    1    1    2    0    0 -0.38635662720E+02 -0.20272319464E+02  0.12188868543E+04  0.12197085082E+04  0.10000000000E+02 0. -1.
</event>
<event>
 5    1  0.1796476E-008  0.3826473E+03  0.7957747E-01  0.3439712E+00
         13   -1    0    0    0    0  0.00000000000E+00  0.00000000000E+00  0.14999999963E+04  0.15000000000E+04  0.10566000000E+00 0.  1.
        994   -1    0    0    0    0 -0.00000000000E+00 -0.00000000000E+00  0.11368683772E-12  0.17120000000E+03  0.17120000000E+03 0.  0.
         13    1    1    2    0    0 -0.46565959232E+01  0.15020466280E+02  0.41588008353E+02  0.44462027571E+02  0.10566000000E+00 0.  1.
        994    1    1    2    0    0  0.33465079723E+01 -0.19805670758E+02  0.41409027089E+01  0.17242404352E+03  0.17120000000E+03 0.  0.
        998    1    1    2    0    0  0.13100879509E+01  0.47852044777E+01  0.14542710852E+04  0.14543139289E+04  0.10000000000E+02 0.  1.
</event>
<event>
 5    1  0.1796476E-008  0.3852344E+03  0.7957747E-01  0.3428679E+00
         13   -1    0    0    0    0  0.00000000000E+00  0.00000000000E+00  0.14999999963E+04  0.15000000000E+04  0.10566000000E+00 0. -1.
        994   -1    0    0    0    0 -0.00000000000E+00 -0.00000000000E+00  0.11368683772E-12  0.17120000000E+03  0.17120000000E+03 0.  0.
         13    1    1    2    0    0  0.12350692713E+02  0.84653898675E+01  0.74881577570E+02  0.76364024642E+02  0.10566000000E+00 0. -1.
        994    1    1    2    0    0 -0.72266203018E+01 -0.46388339440E+01  0.17561684236E+01  0.17142423093E+03  0.17120000000E+03 0.  0.
        998    1    1    2    0    0 -0.51240724109E+01 -0.38265559235E+01  0.14233622503E+04  0.14234117444E+04  0.10000000000E+02 0. -1.
</event>
<event>
 5    1  0.1796476E-008  0.3843114E+03  0.7957747E-01  0.3432598E+00
         13   -1    0    0    0    0  0.00000000000E+00  0.00000000000E+00  0.14999999963E+04  0.15000000000E+04  0.10566000000E+00 0.  1.
        994   -1    0    0    0    0 -0.00000000000E+00 -0.00000000000E+00  0.11368683772E-12  0.17120000000E+03  0.17120000000E+03 0.  0.
         13    1    1    2    0    0  0.58543912800E+01  0.12570248013E+02  0.47461993955E+02  0.49446304883E+02  0.10566000000E+00 0.  1.
        994    1    1    2    0    0 -0.46739856469E+01 -0.12272688833E+02  0.25410581474E+01  0.17172175753E+03  0.17120000000E+03 0.  0.
        998    1    1    2    0    0 -0.11804056331E+01 -0.29755917934E+00  0.14499969442E+04  0.14500319376E+04  0.10000000000E+02 0.  0.
</event>
<event>
 5    1  0.1796476E-008  0.3821867E+03  0.7957747E-01  0.3441692E+00
         13   -1    0    0    0    0  0.00000000000E+00  0.00000000000E+00  0.14999999963E+04  0.15000000000E+04  0.10566000000E+00 0.  1.
        994   -1    0    0    0    0 -0.00000000000E+00 -0.00000000000E+00  0.11368683772E-12  0.17120000000E+03  0.17120000000E+03 0.  0.
         13    1    1    2    0    0 -0.21382901162E+02 -0.21843611937E+01  0.70499499726E+02  0.73703395591E+02  0.10566000000E+00 0.  1.
        994    1    1    2    0    0  0.26452958089E+02  0.32864897941E+01  0.53952399843E+01  0.17334678717E+03  0.17120000000E+03 0.  0.
        998    1    1    2    0    0 -0.50700569279E+01 -0.11021286004E+01  0.14241052566E+04  0.14241498172E+04  0.10000000000E+02 0.  1.
</event>
<event>
 5    1  0.1796476E-008  0.3817681E+03  0.7957747E-01  0.3443496E+00
         13   -1    0    0    0    0  0.00000000000E+00  0.00000000000E+00  0.14999999963E+04  0.15000000000E+04  0.10566000000E+00 0.  1.
        994   -1    0    0    0    0 -0.00000000000E+00 -0.00000000000E+00  0.11368683772E-12  0.17120000000E+03  0.17120000000E+03 0.  0.
         13    1    1    2    0    0 -0.41209658375E+02  0.45349714534E+01  0.23711686630E+03  0.24071398247E+03  0.10566000000E+00 0.  1.
        994    1    1    2    0    0  0.37169289853E+02  0.80433934098E+01  0.80648515508E+01  0.17555834961E+03  0.17120000000E+03 0.  0.
        998    1    1    2    0    0  0.40403685220E+01 -0.12578364863E+02  0.12548182784E+04  0.12549276679E+04  0.10000000000E+02 0.  1.
</event>
<event>
 5    1  0.1796476E-008  0.3782181E+03  0.7957747E-01  0.3458954E+00
         13   -1    0    0    0    0  0.00000000000E+00  0.00000000000E+00  0.14999999963E+04  0.15000000000E+04  0.10566000000E+00 0. -1.
        994   -1    0    0    0    0 -0.00000000000E+00 -0.00000000000E+00  0.11368683772E-12  0.17120000000E+03  0.17120000000E+03 0.  0.
         13    1    1    2    0    0 -0.97314580928E+01 -0.15202622016E+02  0.31914924895E+02  0.36665986798E+02  0.10566000000E+00 0. -1.
        994    1    1    2    0    0  0.14579468258E+02 -0.15666525132E+02  0.65770122582E+01  0.17265774815E+03  0.17120000000E+03 0.  0.
        998    1    1    2    0    0 -0.48480101649E+01  0.30869147147E+02  0.14615080591E+04  0.14618762651E+04  0.10000000000E+02 0. -1.
</event>
<event>
 5    1  0.1796476E-008  0.3829600E+03  0.7957747E-01  0.3438370E+00
         13   -1    0    0    0    0  0.00000000000E+00  0.00000000000E+00  0.14999999963E+04  0.15000000000E+04  0.10566000000E+00 0. -1.
        994   -1    0    0    0    0 -0.00000000000E+00 -0.00000000000E+00  0.11368683772E-12  0.17120000000E+03  0.17120000000E+03 0.  0.
         13    1    1    2    0    0  0.14305464079E+02 -0.78417700879E+01  0.56139490646E+02  0.58461895579E+02  0.10566000000E+00 0. -1.
        994    1    1    2    0    0  0.11563739213E+02 -0.10954447370E+02  0.34867674132E+01  0.17197475841E+03  0.17120000000E+03 0.  0.
        998    1    1    2    0    0 -0.25869203291E+02  0.18796217458E+02  0.14403737382E+04  0.14407633460E+04  0.10000000000E+02 0. -1.
</event>
<event>
 5    1  0.1796476E-008  0.3863050E+03  0.7957747E-01  0.3424157E+00
         13   -1    0    0    0    0  0.00000000000E+00  0.00000000000E+00  0.14999999963E+04  0.15000000000E+04  0.10566000000E+00 0.  1.
        994   -1    0    0    0    0 -0.00000000000E+00 -0.00000000000E+00  0.11368683772E-12  0.17120000000E+03  0.17120000000E+03 0.  0.
         13    1    1    2    0    0  0.44675043491E+02 -0.80360413351E+01  0.49051783656E+02  0.66832074000E+02  0.10566000000E+00 0.  1.
        994    1    1    2    0    0  0.37059392500E+01 -0.73495351143E+01  0.20086289578E+02  0.17257070632E+03  0.17120000000E+03 0.  0.
        998    1    1    2    0    0 -0.48380982741E+02  0.15385576449E+02  0.14308619230E+04  0.14317972197E+04  0.10000000000E+02 0.  1.
</event>
<event>
 5    1  0.1796476E-008  0.3833670E+03  0.7957747E-01  0.3436628E+00
         13   -1    0    0    0    0  0.00000000000E+00  0.00000000000E+00  0.14999999963E+04  0.15000000000E+04  0.10566000000E+00 0. -1.
        994   -1    0    0    0    0 -0.00000000000E+00 -0.00000000000E+00  0.11368683772E-12  0.17120000000E+03  0.17120000000E+03 0.  0.
         13    1    1    2    0    0  0.22719200459E+02  0.75539165044E+01  0.12768938810E+03  0.12991464398E+03  0.10566000000E+00 0. -1.
        994    1    1    2    0    0 -0.10991580283E+01 -0.50408479577E+01  0.25310881574E+01  0.17129642350E+03  0.17120000000E+03 0.  0.
        998    1    1    2    0    0 -0.21620042430E+02 -0.25130685467E+01  0.13697795200E+04  0.13699889325E+04  0.10000000000E+02 0. -1.
</event>
<event>
 5    1  0.1796476E-008  0.3854664E+03  0.7957747E-01  0.3427697E+00
         13   -1    0    0    0    0  0.00000000000E+00  0.00000000000E+00  0.14999999963E+04  0.15000000000E+04  0.10566000000E+00 0. -1.
        994   -1    0    0    0    0 -0.00000000000E+00 -0.00000000000E+00  0.11368683772E-12  0.17120000000E+03  0.17120000000E+03 0.  0.
         13    1    1    2    0    0 -0.15911309196E+02 -0.68021668714E+00  0.84457695905E+02  0.85946180931E+02  0.10566000000E+00 0. -1.
        994    1    1    2    0    0  0.20263253477E+02 -0.11060690422E+01  0.27522291567E+01  0.17242052545E+03  0.17120000000E+03 0.  0.
        998    1    1    2    0    0 -0.43519442813E+01  0.17862857293E+01  0.14127900712E+04  0.14128332936E+04  0.10000000000E+02 0. -1.
</event>
<event>
 5    1  0.1796476E-008  0.3763225E+03  0.7957747E-01  0.3467329E+00
         13   -1    0    0    0    0  0.00000000000E+00  0.00000000000E+00  0.14999999963E+04  0.15000000000E+04  0.10566000000E+00 0.  1.
        994   -1    0    0    0    0 -0.00000000000E+00 -0.00000000000E+00  0.11368683772E-12  0.17120000000E+03  0.17120000000E+03 0.  0.
         13    1    1    2    0    0  0.48735071492E+01 -0.15537004807E+02  0.19524097628E+02  0.25423436875E+02  0.10566000000E+00 0.  1.
        994    1    1    2    0    0 -0.27446566066E+01  0.11110119509E+02  0.64444962736E+01  0.17170305596E+03  0.17120000000E+03 0.  0.
        998    1    1    2    0    0 -0.21288505426E+01  0.44268852984E+01  0.14740314024E+04  0.14740735072E+04  0.10000000000E+02 0.  1.
</event>
<event>
 5    1  0.1796476E-008  0.3857527E+03  0.7957747E-01  0.3426486E+00
         13   -1    0    0    0    0  0.00000000000E+00  0.00000000000E+00  0.14999999963E+04  0.15000000000E+04  0.10566000000E+00 0. -1.
        994   -1    0    0    0    0 -0.00000000000E+00 -0.00000000000E+00  0.11368683772E-12  0.17120000000E+03  0.17120000000E+03 0.  0.
         13    1    1    2    0    0  0.79974967711E+01 -0.80248007922E+01  0.54188927959E+02  0.55360712240E+02  0.10566000000E+00 0. -1.
        994    1    1    2    0    0  0.32969681012E+01  0.30624180219E+01  0.13233108885E+01  0.17126423898E+03  0.17120000000E+03 0.  0.
        998    1    1    2    0    0 -0.11294464872E+02  0.49623827703E+01  0.14444877574E+04  0.14445750488E+04  0.10000000000E+02 0. -1.
</event>
<event>
 5    1  0.1796476E-008  0.3824602E+03  0.7957747E-01  0.3440515E+00
         13   -1    0    0    0    0  0.00000000000E+00  0.00000000000E+00  0.14999999963E+04  0.15000000000E+04  0.10566000000E+00 0. -1.
        994   -1    0    0    0    0 -0.00000000000E+00 -0.00000000000E+00  0.11368683772E-12  0.17120000000E+03  0.17120000000E+03 0.  0.
         13    1    1    2    0    0  0.22468095727E+02  0.15772591618E+02  0.13708784206E+02  0.30684391804E+02  0.10566000000E+00 0. -1.
        994    1    1    2    0    0 -0.11061884238E+02 -0.27243751233E+02  0.20852917467E+02  0.17495391231E+03  0.17120000000E+03 0.  0.
        998    1    1    2    0    0 -0.11406211489E+02  0.11471159615E+02  0.14654382946E+04  0.14655616959E+04  0.10000000000E+02 0. -1.
</event>
<event>
 5    1  0.1796476E-008  0.3730917E+03  0.7957747E-01  0.3481802E+00
         13   -1    0    0    0    0  0.00000000000E+00  0.00000000000E+00  0.14999999963E+04  0.15000000000E+04  0.10566000000E+00 0. -1.
        994   -1    0    0    0    0 -0.00000000000E+00 -0.00000000000E+00  0.11368683772E-12  0.17120000000E+03  0.17120000000E+03 0.  0.
         13    1    1    2    0    0 -0.57164753976E+01 -0.52709789498E+02  0.16665322940E+03  0.17488370431E+03  0.10566000000E+00 0. -1.
        994    1    1    2    0    0  0.23603986873E+02  0.45306926137E+02  0.16644108558E+02  0.17943336396E+03  0.17120000000E+03 0.  0.
        998    1    1    2    0    0 -0.17887511475E+02  0.74028633617E+01  0.13167026583E+04  0.13168829317E+04  0.10000000000E+02 0. -1.
</event>
<event>
 5    1  0.1796476E-008  0.3846777E+03  0.7957747E-01  0.3431040E+00
         13   -1    0    0    0    0  0.00000000000E+00  0.00000000000E+00  0.14999999963E+04  0.15000000000E+04  0.10566000000E+00 0. -1.
        994   -1    0    0    0    0 -0.00000000000E+00 -0.00000000000E+00  0.11368683772E-12  0.17120000000E+03  0.17120000000E+03 0.  0.
         13    1    1    2    0    0 -0.10258797088E+02  0.17152849475E+01  0.31332405787E+02  0.33013874910E+02  0.10566000000E+00 0. -1.
        994    1    1    2    0    0 -0.42152453765E+01 -0.93125263782E+00  0.18515979938E+01  0.17126442695E+03  0.17120000000E+03 0.  0.
        998    1    1    2    0    0  0.14474042464E+02 -0.78403230965E+00  0.14668159925E+04  0.14669216981E+04  0.10000000000E+02 0. -1.
</event>
<event>
 5    1  0.1796476E-008  0.3858860E+03  0.7957747E-01  0.3425923E+00
         13   -1    0    0    0    0  0.00000000000E+00  0.00000000000E+00  0.14999999963E+04  0.15000000000E+04  0.10566000000E+00 0.  1.
        994   -1    0    0    0    0 -0.00000000000E+00 -0.00000000000E+00  0.11368683772E-12  0.17120000000E+03  0.17120000000E+03 0.  0.
         13    1    1    2    0    0  0.83837904318E+00 -0.11932787553E+02  0.60335473880E+02  0.61509957491E+02  0.10566000000E+00 0.  1.
        994    1    1    2    0    0 -0.44803134328E+01  0.85206206085E+01  0.14948676912E+01  0.17147696292E+03  0.17120000000E+03 0.  0.
        998    1    1    2    0    0  0.36419343897E+01  0.34121669447E+01  0.14381696547E+04  0.14382130796E+04  0.10000000000E+02 0.  1.
</event>
<event>
 5    1  0.1796476E-008  0.3803833E+03  0.7957747E-01  0.3449491E+00
         13   -1    0    0    0    0  0.00000000000E+00  0.00000000000E+00  0.14999999963E+04  0.15000000000E+04  0.10566000000E+00 0. -1.
        994   -1    0    0    0    0 -0.00000000000E+00 -0.00000000000E+00  0.11368683772E-12  0.17120000000E+03  0.17120000000E+03 0.  0.
         13    1    1    2    0    0  0.15696739933E+02 -0.65171579825E-01  0.30235090817E+02  0.34067048194E+02  0.10566000000E+00 0. -1.
        994    1    1    2    0    0 -0.50652152069E+01  0.22278156665E+02  0.56844353973E+01  0.17281124233E+03  0.17120000000E+03 0.  0.
        998    1    1    2    0    0 -0.10631524726E+02 -0.22212985085E+02  0.14640804701E+04  0.14643217095E+04  0.10000000000E+02 0. -1.
</event>
<event>
 5    1  0.1796476E-008  0.3685543E+03  0.7957747E-01  0.3502562E+00
         13   -1    0    0    0    0  0.00000000000E+00  0.00000000000E+00  0.14999999963E+04  0.15000000000E+04  0.10566000000E+00 0. -1.
        994   -1    0    0    0    0 -0.00000000000E+00 -0.00000000000E+00  0.11368683772E-12  0.17120000000E+03  0.17120000000E+03 0.  0.
         13    1    1    2    0    0  0.18423641934E+03  0.59350386457E+02  0.76815690675E+03  0.79216827198E+03  0.10566000000E+00 0. -1.
        994    1    1    2    0    0 -0.17952843855E+03 -0.63370546419E+02  0.14933770021E+03  0.29640761648E+03  0.17120000000E+03 0.  0.
        998    1    1    2    0    0 -0.47079807939E+01  0.40201599615E+01  0.58250538931E+03  0.58262411154E+03  0.10000000000E+02 0.  0.
</event>
<event>
 5    1  0.1796476E-008  0.3797442E+03  0.7957747E-01  0.3452273E+00
         13   -1    0    0    0    0  0.00000000000E+00  0.00000000000E+00  0.14999999963E+04  0.15000000000E+04  0.10566000000E+00 0. -1.
        994   -1    0    0    0    0 -0.00000000000E+00 -0.00000000000E+00  0.11368683772E-12  0.17120000000E+03  0.17120000000E+03 0.  0.
         13    1    1    2    0    0  0.59447146840E+00 -0.15412894105E+02  0.26181491235E+02  0.30387371528E+02  0.10566000000E+00 0. -1.
        994    1    1    2    0    0 -0.18154783988E+01  0.10542098004E+02  0.46452565179E+01  0.17159676629E+03  0.17120000000E+03 0.  0.
        998    1    1    2    0    0  0.12210069304E+01  0.48707961010E+01  0.14691732485E+04  0.14692158622E+04  0.10000000000E+02 0. -1.
</event>
<event>
 5    1  0.1796476E-008  0.3824109E+03  0.7957747E-01  0.3440728E+00
         13   -1    0    0    0    0  0.00000000000E+00  0.00000000000E+00  0.14999999963E+04  0.15000000000E+04  0.10566000000E+00 0.  1.
        994   -1    0    0    0    0 -0.00000000000E+00 -0.00000000000E+00  0.11368683772E-12  0.17120000000E+03  0.17120000000E+03 0.  0.
         13    1    1    2    0    0  0.93818920650E+00 -0.20788474822E+02  0.71950070772E+02  0.74899030251E+02  0.10566000000E+00 0.  1.
        994    1    1    2    0    0 -0.41358249879E+01  0.16472332854E+02  0.38782530721E+01  0.17208405982E+03  0.17120000000E+03 0.  0.
        998    1    1    2    0    0  0.31976357814E+01  0.43161419685E+01  0.14241716724E+04  0.14242169099E+04  0.10000000000E+02 0.  1.
</event>
<event>
 5    1  0.1988389E-008  0.3856967E+03  0.7957747E-01  0.3426723E+00
         13   -1    0    0    0    0  0.00000000000E+00  0.00000000000E+00  0.14999999963E+04  0.15000000000E+04  0.10566000000E+00 0.  1.
        994   -1    0    0    0    0 -0.00000000000E+00 -0.00000000000E+00  0.11368683772E-12  0.17120000000E+03  0.17120000000E+03 0.  0.
         13    1    1    2    0    0  0.12516205667E+02 -0.81655571666E+01  0.73745530003E+02  0.75244575137E+02  0.10566000000E+00 0.  1.
        994    1    1    2    0    0 -0.47179683629E+02 -0.85008936919E+01  0.88621382350E+01  0.17800608202E+03  0.17120000000E+03 0.  0.
        998    1    1    2    0    0  0.34663477961E+02  0.16666450858E+02  0.14173923280E+04  0.14179493428E+04  0.10000000000E+02 0.  1.
</event>
<event>
 5    1  0.1796476E-008  0.3707535E+03  0.7957747E-01  0.3492435E+00
         13   -1    0    0    0    0  0.00000000000E+00  0.00000000000E+00  0.14999999963E+04  0.15000000000E+04  0.10566000000E+00 0. -1.
        994   -1    0    0    0    0 -0.00000000000E+00 -0.00000000000E+00  0.11368683772E-12  0.17120000000E+03  0.17120000000E+03 0.  0.
         13    1    1    2    0    0 -0.12344882729E+02  0.10182162343E+03  0.30832390438E+03  0.32493642501E+03  0.10566000000E+00 0. -1.
        994    1    1    2    0    0  0.17933678020E+02 -0.12481295804E+03  0.69357491169E+02  0.22365105160E+03  0.17120000000E+03 0.  0.
        998    1    1    2    0    0 -0.55887952912E+01  0.22991334607E+02  0.11223186007E+04  0.11226125234E+04  0.10000000000E+02 0. -1.
</event>
<event>
 5    1  0.1796476E-008  0.3775741E+03  0.7957747E-01  0.3461790E+00
         13   -1    0    0    0    0  0.00000000000E+00  0.00000000000E+00  0.14999999963E+04  0.15000000000E+04  0.10566000000E+00 0.  1.
        994   -1    0    0    0    0 -0.00000000000E+00 -0.00000000000E+00  0.11368683772E-12  0.17120000000E+03  0.17120000000E+03 0.  0.
         13    1    1    2    0    0 -0.63346880464E+02 -0.27413500330E+01  0.32768637264E+03  0.33376445623E+03  0.10566000000E+00 0.  1.
        994    1    1    2    0    0  0.52220679943E+02 -0.13691408516E+02  0.15248047152E+02  0.18015659028E+03  0.17120000000E+03 0.  0.
        998    1    1    2    0    0  0.11126200522E+02  0.16432758549E+02  0.11570655765E+04  0.11572789535E+04  0.10000000000E+02 0.  1.
</event>
<event>
 5    1  0.1796476E-008  0.3843113E+03  0.7957747E-01  0.3432598E+00
         13   -1    0    0    0    0  0.00000000000E+00  0.00000000000E+00  0.14999999963E+04  0.15000000000E+04  0.10566000000E+00 0.  1.
        994   -1    0    0    0    0 -0.00000000000E+00 -0.00000000000E+00  0.11368683772E-12  0.17120000000E+03  0.17120000000E+03 0.  0.
         13    1    1    2    0    0 -0.15910075060E+02  0.18242579217E+01  0.68767907080E+02  0.70608035050E+02  0.10566000000E+00 0.  1.
        994    1    1    2    0    0  0.78539980496E+00  0.37800438421E+01  0.20215791038E+01  0.17125545938E+03  0.17120000000E+03 0.  0.
        998    1    1    2    0    0  0.15124675255E+02 -0.56043017637E+01  0.14292105101E+04  0.14293365056E+04  0.10000000000E+02 0.  1.
</event>
<event>
 5    1  0.1796476E-008  0.3749927E+03  0.7957747E-01  0.3473256E+00
         13   -1    0    0    0    0  0.00000000000E+00  0.00000000000E+00  0.14999999963E+04  0.15000000000E+04  0.10566000000E+00 0.  1.
        994   -1    0    0    0    0 -0.00000000000E+00 -0.00000000000E+00  0.11368683772E-12  0.17120000000E+03  0.17120000000E+03 0.  0.
         13    1    1    2    0    0  0.39097240164E+02  0.57330047876E+02  0.25692018197E+03  0.26612651060E+03  0.10566000000E+00 0.  1.
        994    1    1    2    0    0 -0.34690906192E+01  0.40497284140E+02  0.19505101177E+02  0.17703658826E+03  0.17120000000E+03 0.  0.
        998    1    1    2    0    0 -0.35628149545E+02 -0.97827332016E+02  0.12235747131E+04  0.12280369011E+04  0.10000000000E+02 0.  1.
</event>
<event>
 5    1  0.1796476E-008  0.3805863E+03  0.7957747E-01  0.3448610E+00
         13   -1    0    0    0    0  0.00000000000E+00  0.00000000000E+00  0.14999999963E+04  0.15000000000E+04  0.10566000000E+00 0.  1.
        994   -1    0    0    0    0 -0.00000000000E+00 -0.00000000000E+00  0.11368683772E-12  0.17120000000E+03  0.17120000000E+03 0.  0.
         13    1    1    2    0    0  0.11217499051E+02 -0.12055484005E+02  0.34855893577E+02  0.38550116221E+02  0.10566000000E+00 0.  1.
        994    1    1    2    0    0 -0.28974585157E+01  0.54535776576E+00  0.38664840257E+01  0.17126903509E+03  0.17120000000E+03 0.  0.
        998    1    1    2    0    0 -0.83200405357E+01  0.11510126239E+02  0.14612776187E+04  0.14613808487E+04  0.10000000000E+02 0.  1.
</event>
<event>
 5    1  0.1796476E-008  0.3718665E+03  0.7957747E-01  0.3487357E+00
         13   -1    0    0    0    0  0.00000000000E+00  0.00000000000E+00  0.14999999963E+04  0.15000000000E+04  0.10566000000E+00 0. -1.
        994   -1    0    0    0    0 -0.00000000000E+00 -0.00000000000E+00  0.11368683772E-12  0.17120000000E+03  0.17120000000E+03 0.  0.
         13    1    1    2    0    0  0.25613727459E+02  0.13929462886E+02  0.48913782942E+02  0.56944378971E+02  0.10566000000E+00 0. -1.
        994    1    1    2    0    0 -0.16468675469E+01 -0.24004878268E+02  0.10288273761E+02  0.17318843763E+03  0.17120000000E+03 0.  0.
        998    1    1    2    0    0 -0.23966859912E+02  0.10075415383E+02  0.14407979396E+04  0.14410671834E+04  0.10000000000E+02 0. -1.
</event>
<event>
 5    1  0.1796476E-008  0.3837080E+03  0.7957747E-01  0.3435170E+00
         13   -1    0    0    0    0  0.00000000000E+00  0.00000000000E+00  0.14999999963E+04  0.15000000000E+04  0.10566000000E+00 0. -1.
        994   -1    0    0    0    0 -0.00000000000E+00 -0.00000000000E+00  0.11368683772E-12  0.17120000000E+03  0.17120000000E+03 0.  0.
         13    1    1    2    0    0  0.15195629649E+02  0.43123502150E+01  0.49691321703E+02  0.52141558679E+02  0.10566000000E+00 0. -1.
        994    1    1    2    0    0 -0.27536040070E+02 -0.99875423879E+01  0.51115782135E+01  0.17376292107E+03  0.17120000000E+03 0.  0.
        998    1    1    2    0    0  0.12340410421E+02  0.56751921730E+01  0.14451970964E+04  0.14452955203E+04  0.10000000000E+02 0. -1.
</event>
<event>
 5    1  0.1796476E-008  0.3816526E+03  0.7957747E-01  0.3443994E+00
         13   -1    0    0    0    0  0.00000000000E+00  0.00000000000E+00  0.14999999963E+04  0.15000000000E+04  0.10566000000E+00 0. -1.
        994   -1    0    0    0    0 -0.00000000000E+00 -0.00000000000E+00  0.11368683772E-12  0.17120000000E+03  0.17120000000E+03 0.  0.
         13    1    1    2    0    0  0.20345137252E+02  0.11247558828E+02  0.87439559766E+02  0.90477179252E+02  0.10566000000E+00 0. -1.
        994    1    1    2    0    0 -0.21078216610E+01  0.43457756641E+01  0.33788077021E+01  0.17130144489E+03  0.17120000000E+03 0.  0.
        998    1    1    2    0    0 -0.18237315591E+02 -0.15593334492E+02  0.14091816288E+04  0.14094213759E+04  0.10000000000E+02 0. -1.
</event>
<event>
 5    1  0.1796476E-008  0.3754624E+03  0.7957747E-01  0.3471157E+00
         13   -1    0    0    0    0  0.00000000000E+00  0.00000000000E+00  0.14999999963E+04  0.15000000000E+04  0.10566000000E+00 0. -1.
        994   -1    0    0    0    0 -0.00000000000E+00 -0.00000000000E+00  0.11368683772E-12  0.17120000000E+03  0.17120000000E+03 0.  0.
         13    1    1    2    0    0 -0.31094108418E+02 -0.35334609487E+01  0.66142032558E+02  0.73171774337E+02  0.10566000000E+00 0. -1.
        994    1    1    2    0    0  0.48041867361E+02  0.17645263843E+02  0.15383777182E+02  0.17934736395E+03  0.17120000000E+03 0.  0.
        998    1    1    2    0    0 -0.16947758944E+02 -0.14111802895E+02  0.14184741865E+04  0.14186808617E+04  0.10000000000E+02 0. -1.
</event>
<event>
 5    1  0.1796476E-008  0.3706043E+03  0.7957747E-01  0.3493118E+00
         13   -1    0    0    0    0  0.00000000000E+00  0.00000000000E+00  0.14999999963E+04  0.15000000000E+04  0.10566000000E+00 0. -1.
        994   -1    0    0    0    0 -0.00000000000E+00 -0.00000000000E+00  0.11368683772E-12  0.17120000000E+03  0.17120000000E+03 0.  0.
         13    1    1    2    0    0  0.40915034190E+02  0.81015833269E+02  0.29519533926E+03  0.30883313415E+03  0.10566000000E+00 0. -1.
        994    1    1    2    0    0 -0.45310762094E+02 -0.75128257428E+02  0.38736534425E+02  0.19623271726E+03  0.17120000000E+03 0.  0.
        998    1    1    2    0    0  0.43957279038E+01 -0.58875758416E+01  0.11660681226E+04  0.11661341486E+04  0.10000000000E+02 0. -1.
</event>
<event>
 5    1  0.1796476E-008  0.3827008E+03  0.7957747E-01  0.3439482E+00
         13   -1    0    0    0    0  0.00000000000E+00  0.00000000000E+00  0.14999999963E+04  0.15000000000E+04  0.10566000000E+00 0.  1.
        994   -1    0    0    0    0 -0.00000000000E+00 -0.00000000000E+00  0.11368683772E-12  0.17120000000E+03  0.17120000000E+03 0.  0.
         13    1    1    2    0    0  0.60606378714E+01 -0.13066207516E+02  0.37439999304E+02  0.40115107156E+02  0.10566000000E+00 0.  1.
        994    1    1    2    0    0 -0.39652499453E+01  0.11773923390E+01  0.28326610765E+01  0.17127338798E+03  0.17120000000E+03 0.  0.
        998    1    1    2    0    0 -0.20953879261E+01  0.11888815177E+02  0.14597273359E+04  0.14598115049E+04  0.10000000000E+02 0.  1.
</event>
<event>
 5    1  0.1796476E-008  0.3780039E+03  0.7957747E-01  0.3459896E+00
         13   -1    0    0    0    0  0.00000000000E+00  0.00000000000E+00  0.14999999963E+04  0.15000000000E+04  0.10566000000E+00 0. -1.
        994   -1    0    0    0    0 -0.00000000000E+00 -0.00000000000E+00  0.11368683772E-12  0.17120000000E+03  0.17120000000E+03 0.  0.
         13    1    1    2    0    0  0.12619890456E+02  0.11542659940E+02  0.27063165262E+02  0.32014382887E+02  0.10566000000E+00 0. -1.
        994    1    1    2    0    0 -0.44122500495E+01  0.25475843291E+01  0.52315332818E+01  0.17135567419E+03  0.17120000000E+03 0.  0.
        998    1    1    2    0    0 -0.82076404061E+01 -0.14090244269E+02  0.14677052977E+04  0.14678299429E+04  0.10000000000E+02 0.  1.
</event>
<event>
 5    1  0.2006141E-008  0.3863603E+03  0.7957747E-01  0.3423923E+00
         13   -1    0    0    0    0  0.00000000000E+00  0.00000000000E+00  0.14999999963E+04  0.15000000000E+04  0.10566000000E+00 0. -1.
        994   -1    0    0    0    0 -0.00000000000E+00 -0.00000000000E+00  0.11368683772E-12  0.17120000000E+03  0.17120000000E+03 0.  0.
         13    1    1    2    0    0  0.88104063674E+01  0.81580447041E+01  0.69273581852E+02  0.70306594715E+02  0.10566000000E+00 0. -1.
        994    1    1    2    0    0 -0.13286180333E+02 -0.15572084911E+02  0.23294085534E+01  0.17243514306E+03  0.17120000000E+03 0.  0.
        998    1    1    2    0    0  0.44757739655E+01  0.74140402073E+01  0.14283970059E+04  0.14284582622E+04  0.10000000000E+02 0. -1.
</event>
<event>
 5    1  0.1796476E-008  0.3808569E+03  0.7957747E-01  0.3447436E+00
         13   -1    0    0    0    0  0.00000000000E+00  0.00000000000E+00  0.14999999963E+04  0.15000000000E+04  0.10566000000E+00 0. -1.
        994   -1    0    0    0    0 -0.00000000000E+00 -0.00000000000E+00  0.11368683772E-12  0.17120000000E+03  0.17120000000E+03 0.  0.
         13    1    1    2    0    0 -0.83855190617E+01 -0.33876371159E+02  0.17299143380E+03  0.17647655025E+03  0.10566000000E+00 0. -1.
        994    1    1    2    0    0  0.11659226571E+02  0.10025464293E+02  0.44898153309E+01  0.17194780004E+03  0.17120000000E+03 0.  0.
        998    1    1    2    0    0 -0.32737075093E+01  0.23850906866E+02  0.13225187471E+04  0.13227756497E+04  0.10000000000E+02 0. -1.
</event>
<event>
 5    1  0.1796476E-008  0.3772441E+03  0.7957747E-01  0.3463247E+00
         13   -1    0    0    0    0  0.00000000000E+00  0.00000000000E+00  0.14999999963E+04  0.15000000000E+04  0.10566000000E+00 0. -1.
        994   -1    0    0    0    0 -0.00000000000E+00 -0.00000000000E+00  0.11368683772E-12  0.17120000000E+03  0.17120000000E+03 0.  0.
         13    1    1    2    0    0 -0.40079688405E+02  0.20749524093E+02  0.20398786349E+03  0.20892099891E+03  0.10566000000E+00 0. -1.
        994    1    1    2    0    0  0.20523643558E+01 -0.16659805369E+02  0.64819613773E+01  0.17214301362E+03  0.17120000000E+03 0.  0.
        998    1    1    2    0    0  0.38027324049E+02 -0.40897187233E+01  0.12895301714E+04  0.12901359875E+04  0.10000000000E+02 0. -1.
</event>
<event>
 5    1  0.1796476E-008  0.3782040E+03  0.7957747E-01  0.3459016E+00
         13   -1    0    0    0    0  0.00000000000E+00  0.00000000000E+00  0.14999999963E+04  0.15000000000E+04  0.10566000000E+00 0.  1.
        994   -1    0    0    0    0 -0.00000000000E+00 -0.00000000000E+00  0.11368683772E-12  0.17120000000E+03  0.17120000000E+03 0.  0.
         13    1    1    2    0    0  0.51446250749E+01 -0.16374094249E+02  0.27274486336E+02  0.32225562812E+02  0.10566000000E+00 0.  1.
        994    1    1    2    0    0  0.14528915663E+02  0.14924786629E+02  0.65028200071E+01  0.17258495101E+03  0.17120000000E+03 0.  0.
        998    1    1    2    0    0 -0.19673540738E+02  0.14493076198E+01  0.14662226899E+04  0.14663894862E+04  0.10000000000E+02 0.  1.
</event>
<event>
 5    1  0.1796476E-008  0.3831427E+03  0.7957747E-01  0.3437588E+00
         13   -1    0    0    0    0  0.00000000000E+00  0.00000000000E+00  0.14999999963E+04  0.15000000000E+04  0.10566000000E+00 0. -1.
        994   -1    0    0    0    0 -0.00000000000E+00 -0.00000000000E+00  0.11368683772E-12  0.17120000000E+03  0.17120000000E+03 0.  0.
         13    1    1    2    0    0  0.69946229043E+01  0.18077467742E+02  0.77323582359E+02  0.79716166129E+02  0.10566000000E+00 0. -1.
        994    1    1    2    0    0  0.24307353661E+01 -0.28456520980E+01  0.26014091976E+01  0.17126065964E+03  0.17120000000E+03 0.  0.
        998    1    1    2    0    0 -0.94253582704E+01 -0.15231815644E+02  0.14200750047E+04  0.14202231742E+04  0.10000000000E+02 0. -1.
</event>
<event>
 5    1  0.1796476E-008  0.3847631E+03  0.7957747E-01  0.3430678E+00
         13   -1    0    0    0    0  0.00000000000E+00  0.00000000000E+00  0.14999999963E+04  0.15000000000E+04  0.10566000000E+00 0. -1.
        994   -1    0    0    0    0 -0.00000000000E+00 -0.00000000000E+00  0.11368683772E-12  0.17120000000E+03  0.17120000000E+03 0.  0.
         13    1    1    2    0    0  0.95247734552E+01 -0.15870065285E+02  0.90148675257E+02  0.92029207843E+02  0.10566000000E+00 0. -1.
        994    1    1    2    0    0 -0.10399357794E+02  0.21137436789E+02  0.35763518979E+01  0.17285013211E+03  0.17120000000E+03 0.  0.
        998    1    1    2    0    0  0.87458433843E+00 -0.52673715043E+01  0.14062749691E+04  0.14063206601E+04  0.10000000000E+02 0. -1.
</event>
<event>
 5    1  0.1796476E-008  0.3840109E+03  0.7957747E-01  0.3433878E+00
         13   -1    0    0    0    0  0.00000000000E+00  0.00000000000E+00  0.14999999963E+04  0.15000000000E+04  0.10566000000E+00 0.  1.
        994   -1    0    0    0    0 -0.00000000000E+00 -0.00000000000E+00  0.11368683772E-12  0.17120000000E+03  0.17120000000E+03 0.  0.
         13    1    1    2    0    0  0.55506595830E+01 -0.27534271750E+02  0.14786567717E+02  0.31742710841E+02  0.10566000000E+00 0.  1.
        994    1    1    2    0    0  0.13951796586E+02 -0.13177031653E+02  0.19903640988E+02  0.17341822775E+03  0.17120000000E+03 0.  0.
        998    1    1    2    0    0 -0.19502456169E+02  0.40711303404E+02  0.14653097876E+04  0.14660390614E+04  0.10000000000E+02 0.  1.
</event>
<event>
 5    1  0.1796476E-008  0.3842066E+03  0.7957747E-01  0.3433044E+00
         13   -1    0    0    0    0  0.00000000000E+00  0.00000000000E+00  0.14999999963E+04  0.15000000000E+04  0.10566000000E+00 0. -1.
        994   -1    0    0    0    0 -0.00000000000E+00 -0.00000000000E+00  0.11368683772E-12  0.17120000000E+03  0.17120000000E+03 0.  0.
         13    1    1    2    0    0  0.97536820370E+01  0.23812416732E+02  0.15162705960E+03  0.15379512954E+03  0.10566000000E+00 0. -1.
        994    1    1    2    0    0 -0.20833847912E+02 -0.17665993955E+02  0.44885393836E+01  0.17342353804E+03  0.17120000000E+03 0.  0.
        998    1    1    2    0    0  0.11080165875E+02 -0.61464227770E+01  0.13438843973E+04  0.13439813324E+04  0.10000000000E+02 0. -1.
</event>
<event>
 5    1  0.1796476E-008  0.3843844E+03  0.7957747E-01  0.3432287E+00
         13   -1    0    0    0    0  0.00000000000E+00  0.00000000000E+00  0.14999999963E+04  0.15000000000E+04  0.10566000000E+00 0. -1.
        994   -1    0    0    0    0 -0.00000000000E+00 -0.00000000000E+00  0.11368683772E-12  0.17120000000E+03  0.17120000000E+03 0.  0.
         13    1    1    2    0    0  0.19501060279E+02  0.78135611048E+01  0.12230108454E+03  0.12409234277E+03  0.10566000000E+00 0. -1.
        994    1    1    2    0    0 -0.19016033417E+01 -0.65376507505E+01  0.20888361235E+01  0.17134806742E+03  0.17120000000E+03 0.  0.
        998    1    1    2    0    0 -0.17599456937E+02 -0.12759103543E+01  0.13756100756E+04  0.13757595898E+04  0.10000000000E+02 0. -1.
</event>
<event>
 5    1  0.1796476E-008  0.3712867E+03  0.7957747E-01  0.3489998E+00
         13   -1    0    0    0    0  0.00000000000E+00  0.00000000000E+00  0.14999999963E+04  0.15000000000E+04  0.10566000000E+00 0.  1.
        994   -1    0    0    0    0 -0.00000000000E+00 -0.00000000000E+00  0.11368683772E-12  0.17120000000E+03  0.17120000000E+03 0.  0.
         13    1    1    2    0    0  0.18003947583E+03  0.44878150637E+02  0.80433821653E+03  0.82546243948E+03  0.10566000000E+00 0.  1.
        994    1    1    2    0    0 -0.17544563848E+03 -0.52051566670E+02  0.13448106737E+03  0.28440312083E+03  0.17120000000E+03 0.  0.
        998    1    1    2    0    0 -0.45938373540E+01  0.71734160326E+01  0.56118071238E+03  0.56133443969E+03  0.10000000000E+02 0.  1.
</event>
<event>
 5    1  0.1796476E-008  0.3859598E+03  0.7957747E-01  0.3425612E+00
         13   -1    0    0    0    0  0.00000000000E+00  0.00000000000E+00  0.14999999963E+04  0.15000000000E+04  0.10566000000E+00 0. -1.
        994   -1    0    0    0    0 -0.00000000000E+00 -0.00000000000E+00  0.11368683772E-12  0.17120000000E+03  0.17120000000E+03 0.  0.
         13    1    1    2    0    0  0.89913424170E+01 -0.48077262600E+01  0.46787810977E+02  0.47885998897E+02  0.10566000000E+00 0. -1.
        994    1    1    2    0    0 -0.41600731979E+01 -0.22987586656E+01  0.12284166396E+01  0.17127036961E+03  0.17120000000E+03 0.  0.
        998    1    1    2    0    0 -0.48312692192E+01  0.71064849256E+01  0.14519837687E+04  0.14520436315E+04  0.10000000000E+02 0. -1.
</event>
<event>
 5    1  0.1796476E-008  0.3820007E+03  0.7957747E-01  0.3442493E+00
         13   -1    0    0    0    0  0.00000000000E+00  0.00000000000E+00  0.14999999963E+04  0.15000000000E+04  0.10566000000E+00 0.  1.
        994   -1    0    0    0    0 -0.00000000000E+00 -0.00000000000E+00  0.11368683772E-12  0.17120000000E+03  0.17120000000E+03 0.  0.
         13    1    1    2    0    0 -0.84780696329E+01  0.15800704305E+02  0.52388179880E+02  0.55372127252E+02  0.10566000000E+00 0.  1.
        994    1    1    2    0    0  0.17225804255E+02  0.61474875594E+01  0.42383213491E+01  0.17222637226E+03  0.17120000000E+03 0.  0.
        998    1    1    2    0    0 -0.87477346223E+01 -0.21948191864E+02  0.14433734950E+04  0.14436015005E+04  0.10000000000E+02 0.  1.
</event>
<event>
 5    1  0.1796476E-008  0.3751893E+03  0.7957747E-01  0.3472376E+00
         13   -1    0    0    0    0  0.00000000000E+00  0.00000000000E+00  0.14999999963E+04  0.15000000000E+04  0.10566000000E+00 0.  1.
        994   -1    0    0    0    0 -0.00000000000E+00 -0.00000000000E+00  0.11368683772E-12  0.17120000000E+03  0.17120000000E+03 0.  0.
         13    1    1    2    0    0 -0.48810859336E+02  0.37928626339E+02  0.32889318005E+03  0.33465178280E+03  0.10566000000E+00 0.  1.
        994    1    1    2    0    0  0.33384164429E+02  0.95732333645E+01  0.10689829214E+02  0.17501388996E+03  0.17120000000E+03 0.  0.
        998    1    1    2    0    0  0.15426694907E+02 -0.47501859704E+02  0.11604169870E+04  0.11615343272E+04  0.10000000000E+02 0.  1.
</event>
<event>
 5    1  0.1796476E-008  0.3840827E+03  0.7957747E-01  0.3433572E+00
         13   -1    0    0    0    0  0.00000000000E+00  0.00000000000E+00  0.14999999963E+04  0.15000000000E+04  0.10566000000E+00 0.  1.
        994   -1    0    0    0    0 -0.00000000000E+00 -0.00000000000E+00  0.11368683772E-12  0.17120000000E+03  0.17120000000E+03 0.  0.
         13    1    1    2    0    0 -0.26500617474E+01  0.16083831378E+02  0.65400176219E+02  0.67401088067E+02  0.10566000000E+00 0.  1.
        994    1    1    2    0    0  0.44479768832E+01 -0.42045815234E+01  0.22098302322E+01  0.17132363046E+03  0.17120000000E+03 0.  0.
        998    1    1    2    0    0 -0.17979151358E+01 -0.11879249854E+02  0.14323899898E+04  0.14324752815E+04  0.10000000000E+02 0.  1.
</event>
<event>
 5    1  0.1796476E-008  0.3859918E+03  0.7957747E-01  0.3425477E+00
         13   -1    0    0    0    0  0.00000000000E+00  0.00000000000E+00  0.14999999963E+04  0.15000000000E+04  0.10566000000E+00 0.  1.
        994   -1    0    0    0    0 -0.00000000000E+00 -0.00000000000E+00  0.11368683772E-12  0.17120000000E+03  0.17120000000E+03 0.  0.
         13    1    1    2    0    0 -0.14126693774E+01  0.11750714381E+02  0.61132385930E+02  0.62267605517E+02  0.10566000000E+00 0.  1.
        994    1    1    2    0    0 -0.87969232442E+01 -0.11640858158E+02  0.18367461119E+01  0.17183046608E+03  0.17120000000E+03 0.  0.
        998    1    1    2    0    0  0.10209592622E+02 -0.10985622257E+00  0.14370308642E+04  0.14371019284E+04  0.10000000000E+02 0.  1.
</event>
<event>
 5    1  0.1796476E-008  0.3747781E+03  0.7957747E-01  0.3474216E+00
         13   -1    0    0    0    0  0.00000000000E+00  0.00000000000E+00  0.14999999963E+04  0.15000000000E+04  0.10566000000E+00 0. -1.
        994   -1    0    0    0    0 -0.00000000000E+00 -0.00000000000E+00  0.11368683772E-12  0.17120000000E+03  0.17120000000E+03 0.  0.
         13    1    1    2    0    0  0.35002956618E+02  0.98196912653E+02  0.51663580911E+03  0.52704877483E+03  0.10566000000E+00 0. -1.
        994    1    1    2    0    0 -0.38491317388E+02 -0.19939111727E+02  0.20199353110E+02  0.17775433485E+03  0.17120000000E+03 0.  0.
        998    1    1    2    0    0  0.34883607702E+01 -0.78257800926E+02  0.96316483406E+03  0.96639689032E+03  0.10000000000E+02 0. -1.
</event>
<event>
 5    1  0.1796476E-008  0.3795683E+03  0.7957747E-01  0.3453040E+00
         13   -1    0    0    0    0  0.00000000000E+00  0.00000000000E+00  0.14999999963E+04  0.15000000000E+04  0.10566000000E+00 0.  1.
        994   -1    0    0    0    0 -0.00000000000E+00 -0.00000000000E+00  0.11368683772E-12  0.17120000000E+03  0.17120000000E+03 0.  0.
         13    1    1    2    0    0  0.36038286245E+02  0.37896336619E+02  0.27907468015E+03  0.28393234875E+03  0.10566000000E+00 0.  1.
        994    1    1    2    0    0 -0.19304570674E+02 -0.41595705883E+02  0.11423341250E+02  0.17760293332E+03  0.17120000000E+03 0.  0.
        998    1    1    2    0    0 -0.16733715571E+02  0.36993692642E+01  0.12095019749E+04  0.12096647179E+04  0.10000000000E+02 0.  1.
</event>
<event>
 5    1  0.1796476E-008  0.3729443E+03  0.7957747E-01  0.3482468E+00
         13   -1    0    0    0    0  0.00000000000E+00  0.00000000000E+00  0.14999999963E+04  0.15000000000E+04  0.10566000000E+00 0.  1.
        994   -1    0    0    0    0 -0.00000000000E+00 -0.00000000000E+00  0.11368683772E-12  0.17120000000E+03  0.17120000000E+03 0.  0.
         13    1    1    2    0    0  0.26887818888E+02 -0.36679006026E+02  0.12134505640E+03  0.12958756948E+03  0.10566000000E+00 0.  1.
        994    1    1    2    0    0 -0.35783481398E+02  0.29725069784E+02  0.15182019376E+02  0.17805608955E+03  0.17120000000E+03 0.  0.
        998    1    1    2    0    0  0.88956625104E+01  0.69539362413E+01  0.13634729205E+04  0.13635563410E+04  0.10000000000E+02 0.  1.
</event>
<event>
 5    1  0.1796476E-008  0.3685583E+03  0.7957747E-01  0.3502543E+00
         13   -1    0    0    0    0  0.00000000000E+00  0.00000000000E+00  0.14999999963E+04  0.15000000000E+04  0.10566000000E+00 0.  1.
        994   -1    0    0    0    0 -0.00000000000E+00 -0.00000000000E+00  0.11368683772E-12  0.17120000000E+03  0.17120000000E+03 0.  0.
         13    1    1    2    0    0 -0.49871384817E+02 -0.45279797988E+01  0.14495147143E+03  0.15335774469E+03  0.10566000000E+00 0.  1.
        994    1    1    2    0    0 -0.12199021948E+02 -0.12773228187E+02  0.11264414355E+02  0.17247695071E+03  0.17120000000E+03 0.  0.
        998    1    1    2    0    0  0.62070406765E+02  0.17301207986E+02  0.13437841105E+04  0.13453653046E+04  0.10000000000E+02 0.  1.
</event>
<event>
 5    1  0.1796476E-008  0.3758193E+03  0.7957747E-01  0.3469567E+00
         13   -1    0    0    0    0  0.00000000000E+00  0.00000000000E+00  0.14999999963E+04  0.15000000000E+04  0.10566000000E+00 0.  1.
        994   -1    0    0    0    0 -0.00000000000E+00 -0.00000000000E+00  0.11368683772E-12  0.17120000000E+03  0.17120000000E+03 0.  0.
         13    1    1    2    0    0 -0.16341896051E+02  0.12720645791E+02  0.31264429689E+02  0.37501308293E+02  0.10566000000E+00 0.  1.
        994    1    1    2    0    0  0.15578195217E+02 -0.11187128485E+02  0.75064879899E+01  0.17243439150E+03  0.17120000000E+03 0.  0.
        998    1    1    2    0    0  0.76370083458E+00 -0.15335173054E+01  0.14612290786E+04  0.14612643002E+04  0.10000000000E+02 0.  0.
</event>
<event>
 5    1  0.1796476E-008  0.3796533E+03  0.7957747E-01  0.3452670E+00
         13   -1    0    0    0    0  0.00000000000E+00  0.00000000000E+00  0.14999999963E+04  0.15000000000E+04  0.10566000000E+00 0.  1.
        994   -1    0    0    0    0 -0.00000000000E+00 -0.00000000000E+00  0.11368683772E-12  0.17120000000E+03  0.17120000000E+03 0.  0.
         13    1    1    2    0    0 -0.20482935782E+02  0.50111652500E+01  0.49010011159E+02  0.53354051330E+02  0.10566000000E+00 0.  1.
        994    1    1    2    0    0  0.19979750535E+02  0.10482373553E+01  0.56490693062E+01  0.17245765050E+03  0.17120000000E+03 0.  0.
        998    1    1    2    0    0  0.50318524666E+00 -0.60594026053E+01  0.14453409158E+04  0.14453882982E+04  0.10000000000E+02 0.  1.
</event>
<event>
 5    1  0.1796476E-008  0.3746072E+03  0.7957747E-01  0.3474981E+00
         13   -1    0    0    0    0  0.00000000000E+00  0.00000000000E+00  0.14999999963E+04  0.15000000000E+04  0.10566000000E+00 0.  1.
        994   -1    0    0    0    0 -0.00000000000E+00 -0.00000000000E+00  0.11368683772E-12  0.17120000000E+03  0.17120000000E+03 0.  0.
         13    1    1    2    0    0  0.28634146791E+02  0.55639825833E+01  0.62424240715E+02  0.68903332703E+02  0.10566000000E+00 0.  1.
        994    1    1    2    0    0 -0.12181442101E+01 -0.11526216613E+02  0.73379274753E+01  0.17174871972E+03  0.17120000000E+03 0.  0.
        998    1    1    2    0    0 -0.27416002581E+02  0.59622340293E+01  0.14302378281E+04  0.14305479476E+04  0.10000000000E+02 0.  1.
</event>
<event>
 5    1  0.1796476E-008  0.3779953E+03  0.7957747E-01  0.3459934E+00
         13   -1    0    0    0    0  0.00000000000E+00  0.00000000000E+00  0.14999999963E+04  0.15000000000E+04  0.10566000000E+00 0.  1.
        994   -1    0    0    0    0 -0.00000000000E+00 -0.00000000000E+00  0.11368683772E-12  0.17120000000E+03  0.17120000000E+03 0.  0.
         13    1    1    2    0    0 -0.12061765718E+02 -0.49851940927E+02  0.25786745189E+03  0.26291887744E+03  0.10566000000E+00 0.  1.
        994    1    1    2    0    0  0.22450712161E+02  0.22996028417E+02  0.86321489730E+01  0.17440414501E+03  0.17120000000E+03 0.  0.
        998    1    1    2    0    0 -0.10388946443E+02  0.26855912510E+02  0.12335003954E+04  0.12338769776E+04  0.10000000000E+02 0.  1.
</event>
<event>
 5    1  0.1796476E-008  0.3724804E+03  0.7957747E-01  0.3484569E+00
         13   -1    0    0    0    0  0.00000000000E+00  0.00000000000E+00  0.14999999963E+04  0.15000000000E+04  0.10566000000E+00 0. -1.
        994   -1    0    0    0    0 -0.00000000000E+00 -0.00000000000E+00  0.11368683772E-12  0.17120000000E+03  0.17120000000E+03 0.  0.
         13    1    1    2    0    0  0.46182477058E+02 -0.11321004837E+02  0.15833340884E+03  0.16531928459E+03  0.10566000000E+00 0. -1.
        994    1    1    2    0    0 -0.36531235599E+00  0.79151167123E+01  0.81935949130E+01  0.17157901248E+03  0.17120000000E+03 0.  0.
        998    1    1    2    0    0 -0.45817164702E+02  0.34058881244E+01  0.13334729925E+04  0.13343017029E+04  0.10000000000E+02 0. -1.
</event>
<event>
 5    1  0.1796476E-008  0.3801313E+03  0.7957747E-01  0.3450587E+00
         13   -1    0    0    0    0  0.00000000000E+00  0.00000000000E+00  0.14999999963E+04  0.15000000000E+04  0.10566000000E+00 0. -1.
        994   -1    0    0    0    0 -0.00000000000E+00 -0.00000000000E+00  0.11368683772E-12  0.17120000000E+03  0.17120000000E+03 0.  0.
         13    1    1    2    0    0 -0.64733782246E+01  0.12015394262E+02  0.20897604667E+02  0.24959875196E+02  0.10566000000E+00 0. -1.
        994    1    1    2    0    0  0.70187957280E+01 -0.13398514264E+02  0.48317127743E+01  0.17193478161E+03  0.17120000000E+03 0.  0.
        998    1    1    2    0    0 -0.54541750341E+00  0.13831200012E+01  0.14742706788E+04  0.14743053432E+04  0.10000000000E+02 0. -1.
</event>
<event>
 5    1  0.1796476E-008  0.4271194E+03  0.7957747E-01  0.3268581E+00
         13   -1    0    0    0    0  0.00000000000E+00  0.00000000000E+00  0.14999999963E+04  0.15000000000E+04  0.10566000000E+00 0. -1.
        994   -1    0    0    0    0 -0.00000000000E+00 -0.00000000000E+00  0.11368683772E-12  0.17120000000E+03  0.17120000000E+03 0.  0.
         13    1    1    2    0    0  0.11669893153E+03  0.46169688309E+02  0.17365032784E+03  0.21425388739E+03  0.10566000000E+00 0. -1.
        994    1    1    2    0    0 -0.66802805319E+02 -0.29933237255E+02  0.69161496470E+02  0.19862367957E+03  0.17120000000E+03 0.  0.
        998    1    1    2    0    0 -0.49896126214E+02 -0.16236451054E+02  0.12571881720E+04  0.12583224330E+04  0.10000000000E+02 0. -1.
</event>
<event>
 5    1  0.1796476E-008  0.3837212E+03  0.7957747E-01  0.3435114E+00
         13   -1    0    0    0    0  0.00000000000E+00  0.00000000000E+00  0.14999999963E+04  0.15000000000E+04  0.10566000000E+00 0.  1.
        994   -1    0    0    0    0 -0.00000000000E+00 -0.00000000000E+00  0.11368683772E-12  0.17120000000E+03  0.17120000000E+03 0.  0.
         13    1    1    2    0    0 -0.18840184500E+02 -0.14489292223E+02  0.11009913631E+03  0.11263535467E+03  0.10566000000E+00 0.  1.
        994    1    1    2    0    0  0.23061897955E+02  0.22353853714E+02  0.56803505303E+01  0.17427923656E+03  0.17120000000E+03 0.  0.
        998    1    1    2    0    0 -0.42217134548E+01 -0.78645614910E+01  0.13842205094E+04  0.13842854088E+04  0.10000000000E+02 0.  1.
</event>
<event>
 5    1  0.1796476E-008  0.3803944E+03  0.7957747E-01  0.3449443E+00
         13   -1    0    0    0    0  0.00000000000E+00  0.00000000000E+00  0.14999999963E+04  0.15000000000E+04  0.10566000000E+00 0. -1.
        994   -1    0    0    0    0 -0.00000000000E+00 -0.00000000000E+00  0.11368683772E-12  0.17120000000E+03  0.17120000000E+03 0.  0.
         13    1    1    2    0    0  0.15168044625E+02 -0.26088795434E+02  0.12004614722E+03  0.12378119183E+03  0.10566000000E+00 0. -1.
        994    1    1    2    0    0 -0.37564499897E+01  0.91769993753E+01  0.42625559278E+01  0.17153990095E+03  0.17120000000E+03 0.  0.
        998    1    1    2    0    0 -0.11411594635E+02  0.16911796058E+02  0.13756912931E+04  0.13758789072E+04  0.10000000000E+02 0. -1.
</event>
<event>
 5    1  0.1796476E-008  0.3793195E+03  0.7957747E-01  0.3454127E+00
         13   -1    0    0    0    0  0.00000000000E+00  0.00000000000E+00  0.14999999963E+04  0.15000000000E+04  0.10566000000E+00 0.  1.
        994   -1    0    0    0    0 -0.00000000000E+00 -0.00000000000E+00  0.11368683772E-12  0.17120000000E+03  0.17120000000E+03 0.  0.
         13    1    1    2    0    0  0.80411787697E+01  0.80372075993E+01  0.12402890729E+02  0.16825579469E+02  0.10566000000E+00 0.  1.
        994    1    1    2    0    0 -0.75442112919E+01 -0.73537579838E+01  0.48490297907E+01  0.17159238319E+03  0.17120000000E+03 0.  0.
        998    1    1    2    0    0 -0.49696747778E+00 -0.68344961551E+00  0.14827480758E+04  0.14827820373E+04  0.10000000000E+02 0.  1.
</event>
<event>
 5    1  0.1796476E-008  0.3805200E+03  0.7957747E-01  0.3448897E+00
         13   -1    0    0    0    0  0.00000000000E+00  0.00000000000E+00  0.14999999963E+04  0.15000000000E+04  0.10566000000E+00 0. -1.
        994   -1    0    0    0    0 -0.00000000000E+00 -0.00000000000E+00  0.11368683772E-12  0.17120000000E+03  0.17120000000E+03 0.  0.
         13    1    1    2    0    0  0.48515911582E+02 -0.32460930958E+02  0.34795686272E+03  0.35281935207E+03  0.10566000000E+00 0. -1.
        994    1    1    2    0    0 -0.25281092085E+02  0.71648164686E+02  0.23381568912E+02  0.18875574398E+03  0.17120000000E+03 0.  0.
        998    1    1    2    0    0 -0.23234819497E+02 -0.39187233728E+02  0.11286615646E+04  0.11296249040E+04  0.10000000000E+02 0. -1.
</event>
<event>
 5    1  0.1796476E-008  0.3795481E+03  0.7957747E-01  0.3453129E+00
         13   -1    0    0    0    0  0.00000000000E+00  0.00000000000E+00  0.14999999963E+04  0.15000000000E+04  0.10566000000E+00 0. -1.
        994   -1    0    0    0    0 -0.00000000000E+00 -0.00000000000E+00  0.11368683772E-12  0.17120000000E+03  0.17120000000E+03 0.  0.
         13    1    1    2    0    0  0.26025241527E+02 -0.44145584812E+01  0.84624841072E+02  0.88646355895E+02  0.10566000000E+00 0. -1.
        994    1    1    2    0    0 -0.59024887136E+00 -0.40776103749E+01  0.44182868527E+01  0.17130655726E+03  0.17120000000E+03 0.  0.
        998    1    1    2    0    0 -0.25434992655E+02  0.84921688562E+01  0.14109568684E+04  0.14112470868E+04  0.10000000000E+02 0. -1.
</event>
<event>
 5    1  0.1796476E-008  0.3839191E+03  0.7957747E-01  0.3434269E+00
         13   -1    0    0    0    0  0.00000000000E+00  0.00000000000E+00  0.14999999963E+04  0.15000000000E+04  0.10566000000E+00 0.  1.
        994   -1    0    0    0    0 -0.00000000000E+00 -0.00000000000E+00  0.11368683772E-12  0.17120000000E+03  0.17120000000E+03 0.  0.
         13    1    1    2    0    0  0.10070626410E+02  0.12415108363E+02  0.62016444362E+02  0.64043758223E+02  0.10566000000E+00 0.  1.
        994    1    1    2    0    0 -0.14329636813E+02  0.11547691755E+02  0.32862531151E+01  0.17221767370E+03  0.17120000000E+03 0.  0.
        998    1    1    2    0    0  0.42590104030E+01 -0.23962800119E+02  0.14346972988E+04  0.14349385681E+04  0.10000000000E+02 0.  1.
</event>
<event>
 5    1  0.1796476E-008  0.3806202E+03  0.7957747E-01  0.3448462E+00
         13   -1    0    0    0    0  0.00000000000E+00  0.00000000000E+00  0.14999999963E+04  0.15000000000E+04  0.10566000000E+00 0. -1.
        994   -1    0    0    0    0 -0.00000000000E+00 -0.00000000000E+00  0.11368683772E-12  0.17120000000E+03  0.17120000000E+03 0.  0.
         13    1    1    2    0    0 -0.56681147611E+01  0.60951106685E+02  0.36536300897E+03  0.37045553636E+03  0.10566000000E+00 0. -1.
        994    1    1    2    0    0  0.35638284810E+01 -0.62778812434E+02  0.17125340047E+02  0.18318459934E+03  0.17120000000E+03 0.  0.
        998    1    1    2    0    0  0.21042862801E+01  0.18277057490E+01  0.11175116473E+04  0.11175598643E+04  0.10000000000E+02 0.  1.
</event>
<event>
 5    1  0.1838859E-008  0.3856114E+03  0.7957747E-01  0.3427083E+00
         13   -1    0    0    0    0  0.00000000000E+00  0.00000000000E+00  0.14999999963E+04  0.15000000000E+04  0.10566000000E+00 0. -1.
        994   -1    0    0    0    0 -0.00000000000E+00 -0.00000000000E+00  0.11368683772E-12  0.17120000000E+03  0.17120000000E+03 0.  0.
         13    1    1    2    0    0  0.10884240721E+02 -0.17907328790E+01  0.46011881044E+02  0.47315724464E+02  0.10566000000E+00 0. -1.
        994    1    1    2    0    0 -0.81349904826E+01 -0.16153593770E+01  0.15526725016E+01  0.17140781268E+03  0.17120000000E+03 0.  0.
        998    1    1    2    0    0 -0.27492502386E+01  0.34060922560E+01  0.14524354427E+04  0.14524764629E+04  0.10000000000E+02 0. -1.
</event>
<event>
 5    1  0.1796476E-008  0.3726894E+03  0.7957747E-01  0.3483621E+00
         13   -1    0    0    0    0  0.00000000000E+00  0.00000000000E+00  0.14999999963E+04  0.15000000000E+04  0.10566000000E+00 0. -1.
        994   -1    0    0    0    0 -0.00000000000E+00 -0.00000000000E+00  0.11368683772E-12  0.17120000000E+03  0.17120000000E+03 0.  0.
         13    1    1    2    0    0 -0.17470776147E+02 -0.31282097484E+02  0.87918844686E+02  0.94939623220E+02  0.10566000000E+00 0. -1.
        994    1    1    2    0    0  0.62053257524E+01 -0.11313272581E+02  0.84406572814E+01  0.17189293441E+03  0.17120000000E+03 0.  0.
        998    1    1    2    0    0  0.11265450395E+02  0.42595370064E+02  0.14036404943E+04  0.14043674424E+04  0.10000000000E+02 0. -1.
</event>
<event>
 5    1  0.1796476E-008  0.3787065E+03  0.7957747E-01  0.3456810E+00
         13   -1    0    0    0    0  0.00000000000E+00  0.00000000000E+00  0.14999999963E+04  0.15000000000E+04  0.10566000000E+00 0. -1.
        994   -1    0    0    0    0 -0.00000000000E+00 -0.00000000000E+00  0.11368683772E-12  0.17120000000E+03  0.17120000000E+03 0.  0.
         13    1    1    2    0    0  0.12785412447E+02  0.75843103424E+02  0.17597989663E+03  0.19205358182E+03  0.10566000000E+00 0. -1.
        994    1    1    2    0    0 -0.13992603604E+02 -0.58019020570E+02  0.28578887148E+02  0.18354343490E+03  0.17120000000E+03 0.  0.
        998    1    1    2    0    0  0.12071911577E+01 -0.17824082855E+02  0.12954412125E+04  0.12956029833E+04  0.10000000000E+02 0.  0.
</event>
<event>
 5    1  0.1796476E-008  0.3838990E+03  0.7957747E-01  0.3434355E+00
         13   -1    0    0    0    0  0.00000000000E+00  0.00000000000E+00  0.14999999963E+04  0.15000000000E+04  0.10566000000E+00 0. -1.
        994   -1    0    0    0    0 -0.00000000000E+00 -0.00000000000E+00  0.11368683772E-12  0.17120000000E+03  0.17120000000E+03 0.  0.
         13    1    1    2    0    0  0.54707179114E+01 -0.23061992601E+02  0.11808982382E+03  0.12044501614E+03  0.10566000000E+00 0. -1.
        994    1    1    2    0    0 -0.76572679705E+01  0.24949243314E+02  0.44289038523E+01  0.17323438944E+03  0.17120000000E+03 0.  0.
        998    1    1    2    0    0  0.21865500591E+01 -0.18872507131E+01  0.13774812686E+04  0.13775205944E+04  0.10000000000E+02 0.  0.
</event>
<event>
 5    1  0.1796476E-008  0.3979860E+03  0.7957747E-01  0.3376397E+00
         13   -1    0    0    0    0  0.00000000000E+00  0.00000000000E+00  0.14999999963E+04  0.15000000000E+04  0.10566000000E+00 0. -1.
        994   -1    0    0    0    0 -0.00000000000E+00 -0.00000000000E+00  0.11368683772E-12  0.17120000000E+03  0.17120000000E+03 0.  0.
         13    1    1    2    0    0  0.54705285811E+02  0.45594809631E+01  0.46332282742E+02  0.71834175365E+02  0.10566000000E+00 0. -1.
        994    1    1    2    0    0 -0.50331929818E+02 -0.18113248684E+01  0.36494529760E+02  0.18214794745E+03  0.17120000000E+03 0.  0.
        998    1    1    2    0    0 -0.43733559931E+01 -0.27481560946E+01  0.14171731838E+04  0.14172178772E+04  0.10000000000E+02 0. -1.
</event>
<event>
 5    1  0.1796476E-008  0.3855765E+03  0.7957747E-01  0.3427231E+00
         13   -1    0    0    0    0  0.00000000000E+00  0.00000000000E+00  0.14999999963E+04  0.15000000000E+04  0.10566000000E+00 0.  1.
        994   -1    0    0    0    0 -0.00000000000E+00 -0.00000000000E+00  0.11368683772E-12  0.17120000000E+03  0.17120000000E+03 0.  0.
         13    1    1    2    0    0 -0.89192660898E+01  0.10422834341E+02  0.76289703779E+02  0.77513346270E+02  0.10566000000E+00 0.  1.
        994    1    1    2    0    0 -0.21021901262E+00  0.17172516668E+01  0.13539903549E+01  0.17121409532E+03  0.17120000000E+03 0.  0.
        998    1    1    2    0    0  0.91294851025E+01 -0.12140086008E+02  0.14223563021E+04  0.14224725584E+04  0.10000000000E+02 0.  1.
</event>
<event>
 5    1  0.1796476E-008  0.3842920E+03  0.7957747E-01  0.3432681E+00
         13   -1    0    0    0    0  0.00000000000E+00  0.00000000000E+00  0.14999999963E+04  0.15000000000E+04  0.10566000000E+00 0.  1.
        994   -1    0    0    0    0 -0.00000000000E+00 -0.00000000000E+00  0.11368683772E-12  0.17120000000E+03  0.17120000000E+03 0.  0.
         13    1    1    2    0    0 -0.18026484263E+02  0.20681590756E+01  0.87824222734E+02  0.89679076042E+02  0.10566000000E+00 0.  1.
        994    1    1    2    0    0  0.63066813246E+01  0.23305265597E+02  0.39058222980E+01  0.17293815392E+03  0.17120000000E+03 0.  0.
        998    1    1    2    0    0  0.11719802938E+02 -0.25373424672E+02  0.14082699512E+04  0.14085827700E+04  0.10000000000E+02 0.  1.
</event>
<event>
 5    1  0.1796476E-008  0.3860068E+03  0.7957747E-01  0.3425414E+00
         13   -1    0    0    0    0  0.00000000000E+00  0.00000000000E+00  0.14999999963E+04  0.15000000000E+04  0.10566000000E+00 0. -1.
        994   -1    0    0    0    0 -0.00000000000E+00 -0.00000000000E+00  0.11368683772E-12  0.17120000000E+03  0.17120000000E+03 0.  0.
         13    1    1    2    0    0  0.15045976523E+02  0.16955972140E+01  0.85026249322E+02  0.86363943271E+02  0.10566000000E+00 0. -1.
        994    1    1    2    0    0 -0.31573591917E+02 -0.76260800628E+01  0.45971662130E+01  0.17431472325E+03  0.17120000000E+03 0.  0.
        998    1    1    2    0    0  0.16527615394E+02  0.59304828488E+01  0.14103765807E+04  0.14105213335E+04  0.10000000000E+02 0. -1.
</event>
<event>
 5    1  0.1796476E-008  0.3799477E+03  0.7957747E-01  0.3451386E+00
         13   -1    0    0    0    0  0.00000000000E+00  0.00000000000E+00  0.14999999963E+04  0.15000000000E+04  0.10566000000E+00 0.  1.
        994   -1    0    0    0    0 -0.00000000000E+00 -0.00000000000E+00  0.11368683772E-12  0.17120000000E+03  0.17120000000E+03 0.  0.
         13    1    1    2    0    0 -0.21258477623E+02  0.15201080500E+02  0.77402959425E+02  0.81695930198E+02  0.10566000000E+00 0.  1.
        994    1    1    2    0    0  0.22371990625E+02 -0.12213831577E+02  0.63347835938E+01  0.17320292471E+03  0.17120000000E+03 0.  0.
        998    1    1    2    0    0 -0.11135130027E+01 -0.29872489234E+01  0.14162622533E+04  0.14163011451E+04  0.10000000000E+02 0.  1.
</event>
<event>
 5    1  0.1796476E-008  0.3857952E+03  0.7957747E-01  0.3426307E+00
         13   -1    0    0    0    0  0.00000000000E+00  0.00000000000E+00  0.14999999963E+04  0.15000000000E+04  0.10566000000E+00 0.  1.
        994   -1    0    0    0    0 -0.00000000000E+00 -0.00000000000E+00  0.11368683772E-12  0.17120000000E+03  0.17120000000E+03 0.  0.
         13    1    1    2    0    0 -0.10123824338E+02  0.12191044434E+02  0.89185404921E+02  0.90582343746E+02  0.10566000000E+00 0.  1.
        994    1    1    2    0    0  0.16134140808E+02 -0.21693372186E+02  0.36370712766E+01  0.17335968731E+03  0.17120000000E+03 0.  0.
        998    1    1    2    0    0 -0.60103164697E+01  0.95023277519E+01  0.14071775201E+04  0.14072579689E+04  0.10000000000E+02 0.  1.
</event>
<event>
 5    1  0.1796476E-008  0.3831477E+03  0.7957747E-01  0.3437566E+00
         13   -1    0    0    0    0  0.00000000000E+00  0.00000000000E+00  0.14999999963E+04  0.15000000000E+04  0.10566000000E+00 0. -1.
        994   -1    0    0    0    0 -0.00000000000E+00 -0.00000000000E+00  0.11368683772E-12  0.17120000000E+03  0.17120000000E+03 0.  0.
         13    1    1    2    0    0  0.21526591132E+00  0.12019063606E+02  0.27573395386E+02  0.30080018725E+02  0.10566000000E+00 0. -1.
        994    1    1    2    0    0 -0.29639039252E+01 -0.68372622724E+01  0.27363004487E+01  0.17138395556E+03  0.17120000000E+03 0.  0.
        998    1    1    2    0    0  0.27486380138E+01 -0.51818013336E+01  0.14696903004E+04  0.14697360257E+04  0.10000000000E+02 0. -1.
</event>
<event>
 5    1  0.1796476E-008  0.3831921E+03  0.7957747E-01  0.3437376E+00
         13   -1    0    0    0    0  0.00000000000E+00  0.00000000000E+00  0.14999999963E+04  0.15000000000E+04  0.10566000000E+00 0. -1.
        994   -1    0    0    0    0 -0.00000000000E+00 -0.00000000000E+00  0.11368683772E-12  0.17120000000E+03  0.17120000000E+03 0.  0.
         13    1    1    2    0    0  0.32068231897E+01 -0.23665903594E+02  0.10881072609E+03  0.11140082578E+03  0.10566000000E+00 0. -1.
        994    1    1    2    0    0  0.15638100360E+02  0.21769732373E+02  0.49107428429E+01  0.17335520421E+03  0.17120000000E+03 0.  0.
        998    1    1    2    0    0 -0.18844923550E+02  0.18961712217E+01  0.13862785273E+04  0.13864439700E+04  0.10000000000E+02 0. -1.
</event>
<event>
 5    1  0.1796476E-008  0.3831366E+03  0.7957747E-01  0.3437614E+00
         13   -1    0    0    0    0  0.00000000000E+00  0.00000000000E+00  0.14999999963E+04  0.15000000000E+04  0.10566000000E+00 0. -1.
        994   -1    0    0    0    0 -0.00000000000E+00 -0.00000000000E+00  0.11368683772E-12  0.17120000000E+03  0.17120000000E+03 0.  0.
         13    1    1    2    0    0 -0.17218686259E+02  0.65042567637E+01  0.66267610977E+02  0.68776419950E+02  0.10566000000E+00 0. -1.
        994    1    1    2    0    0  0.87878055209E+01 -0.40371335260E+01  0.28676141674E+01  0.17149690138E+03  0.17120000000E+03 0.  0.
        998    1    1    2    0    0  0.84308807382E+01 -0.24671232377E+01  0.14308647711E+04  0.14309266787E+04  0.10000000000E+02 0. -1.
</event>
<event>
 5    1  0.1796476E-008  0.3710502E+03  0.7957747E-01  0.3491078E+00
         13   -1    0    0    0    0  0.00000000000E+00  0.00000000000E+00  0.14999999963E+04  0.15000000000E+04  0.10566000000E+00 0.  1.
        994   -1    0    0    0    0 -0.00000000000E+00 -0.00000000000E+00  0.11368683772E-12  0.17120000000E+03  0.17120000000E+03 0.  0.
         13    1    1    2    0    0  0.17888401951E+03 -0.20882313706E+02  0.73969755757E+03  0.76130680497E+03  0.10566000000E+00 0.  1.
        994    1    1    2    0    0 -0.16446301073E+03  0.28140344867E+02  0.11672221886E+03  0.26603285001E+03  0.17120000000E+03 0.  0.
        998    1    1    2    0    0 -0.14421008784E+02 -0.72580311605E+01  0.64358021985E+03  0.64386034502E+03  0.10000000000E+02 0.  1.
</event>
<event>
 5    1  0.1796476E-008  0.3736293E+03  0.7957747E-01  0.3479376E+00
         13   -1    0    0    0    0  0.00000000000E+00  0.00000000000E+00  0.14999999963E+04  0.15000000000E+04  0.10566000000E+00 0.  1.
        994   -1    0    0    0    0 -0.00000000000E+00 -0.00000000000E+00  0.11368683772E-12  0.17120000000E+03  0.17120000000E+03 0.  0.
         13    1    1    2    0    0 -0.87703895424E+02 -0.12686057387E+02  0.36599545071E+03  0.37657083056E+03  0.10566000000E+00 0.  1.
        994    1    1    2    0    0  0.96437293225E+02  0.18027114848E+02  0.41002641467E+02  0.20153358281E+03  0.17120000000E+03 0.  0.
        998    1    1    2    0    0 -0.87333978017E+01 -0.53410574609E+01  0.10930019041E+04  0.10930955866E+04  0.10000000000E+02 0.  1.
</event>
<event>
 5    1  0.1796476E-008  0.2913886E+03  0.7957747E-01  0.3959482E+00
         13   -1    0    0    0    0  0.00000000000E+00  0.00000000000E+00  0.14999999963E+04  0.15000000000E+04  0.10566000000E+00 0. -1.
        994   -1    0    0    0    0 -0.00000000000E+00 -0.00000000000E+00  0.11368683772E-12  0.17120000000E+03  0.17120000000E+03 0.  0.
         13    1    1    2    0    0  0.17122752736E+02  0.13203006356E+03  0.71609337095E+03  0.72836450588E+03  0.10566000000E+00 0. -1.
        994    1    1    2    0    0  0.70026805339E+02 -0.10074495688E+03  0.68634034230E+02  0.22152510119E+03  0.17120000000E+03 0.  0.
        998    1    1    2    0    0 -0.87149558075E+02 -0.31285106683E+02  0.71527259110E+03  0.72131039294E+03  0.10000000000E+02 0. -1.
</event>
<event>
 5    1  0.1796476E-008  0.3787025E+03  0.7957747E-01  0.3456828E+00
         13   -1    0    0    0    0  0.00000000000E+00  0.00000000000E+00  0.14999999963E+04  0.15000000000E+04  0.10566000000E+00 0. -1.
        994   -1    0    0    0    0 -0.00000000000E+00 -0.00000000000E+00  0.11368683772E-12  0.17120000000E+03  0.17120000000E+03 0.  0.
         13    1    1    2    0    0  0.27244339228E+02 -0.15245518970E+02  0.96873616858E+02  0.10178009961E+03  0.10566000000E+00 0. -1.
        994    1    1    2    0    0 -0.24293418415E+02  0.95268321519E+01  0.70790320182E+01  0.17332190688E+03  0.17120000000E+03 0.  0.
        998    1    1    2    0    0 -0.29509208131E+01  0.57186868177E+01  0.13960473474E+04  0.13960979935E+04  0.10000000000E+02 0. -1.
</event>
<event>
 5    1  0.1796476E-008  0.3798539E+03  0.7957747E-01  0.3451795E+00
         13   -1    0    0    0    0  0.00000000000E+00  0.00000000000E+00  0.14999999963E+04  0.15000000000E+04  0.10566000000E+00 0. -1.
        994   -1    0    0    0    0 -0.00000000000E+00 -0.00000000000E+00  0.11368683772E-12  0.17120000000E+03  0.17120000000E+03 0.  0.
         13    1    1    2    0    0 -0.15276875094E+02 -0.12173911849E+02  0.44194763129E+02  0.48319512564E+02  0.10566000000E+00 0. -1.
        994    1    1    2    0    0  0.70798471625E+01  0.72796933820E+01  0.45518941537E+01  0.17156129491E+03  0.17120000000E+03 0.  0.
        998    1    1    2    0    0  0.81970279315E+01  0.48942184670E+01  0.14512533390E+04  0.14513191925E+04  0.10000000000E+02 0. -1.
</event>
<event>
 5    1  0.1796476E-008  0.3842340E+03  0.7957747E-01  0.3432927E+00
         13   -1    0    0    0    0  0.00000000000E+00  0.00000000000E+00  0.14999999963E+04  0.15000000000E+04  0.10566000000E+00 0. -1.
        994   -1    0    0    0    0 -0.00000000000E+00 -0.00000000000E+00  0.11368683772E-12  0.17120000000E+03  0.17120000000E+03 0.  0.
         13    1    1    2    0    0 -0.13863314492E+02  0.18302334846E+02  0.12703011005E+03  0.12908844631E+03  0.10566000000E+00 0. -1.
        994    1    1    2    0    0  0.13086219660E+02 -0.12306691359E+02  0.30755402501E+01  0.17216736841E+03  0.17120000000E+03 0.  0.
        998    1    1    2    0    0  0.77709483278E+00 -0.59956434872E+01  0.13698943460E+04  0.13699441853E+04  0.10000000000E+02 0. -1.
</event>
<event>
 5    1  0.1796476E-008  0.3823808E+03  0.7957747E-01  0.3440857E+00
         13   -1    0    0    0    0  0.00000000000E+00  0.00000000000E+00  0.14999999963E+04  0.15000000000E+04  0.10566000000E+00 0.  1.
        994   -1    0    0    0    0 -0.00000000000E+00 -0.00000000000E+00  0.11368683772E-12  0.17120000000E+03  0.17120000000E+03 0.  0.
         13    1    1    2    0    0  0.78997971624E+01 -0.17105530423E+02  0.59096805651E+02  0.62027812862E+02  0.10566000000E+00 0.  1.
        994    1    1    2    0    0 -0.17357858419E+02  0.72040240647E+01  0.41084769990E+01  0.17227742973E+03  0.17120000000E+03 0.  0.
        998    1    1    2    0    0  0.94580612569E+01  0.99015063583E+01  0.14367947136E+04  0.14368947574E+04  0.10000000000E+02 0.  1.
</event>
<event>
 5    1  0.1796476E-008  0.3737405E+03  0.7957747E-01  0.3478875E+00
         13   -1    0    0    0    0  0.00000000000E+00  0.00000000000E+00  0.14999999963E+04  0.15000000000E+04  0.10566000000E+00 0. -1.
        994   -1    0    0    0    0 -0.00000000000E+00 -0.00000000000E+00  0.11368683772E-12  0.17120000000E+03  0.17120000000E+03 0.  0.
         13    1    1    2    0    0 -0.18404294611E+01  0.43289679987E+02  0.25031702893E+03  0.25403938614E+03  0.10566000000E+00 0. -1.
        994    1    1    2    0    0  0.25841356632E+02  0.67940273528E+02  0.25584043618E+02  0.18774354787E+03  0.17120000000E+03 0.  0.
        998    1    1    2    0    0 -0.24000927171E+02 -0.11122995352E+03  0.12240989237E+04  0.12294170660E+04  0.10000000000E+02 0. -1.
</event>
<event>
 5    1  0.1796476E-008  0.3849759E+03  0.7957747E-01  0.3429774E+00
         13   -1    0    0    0    0  0.00000000000E+00  0.00000000000E+00  0.14999999963E+04  0.15000000000E+04  0.10566000000E+00 0.  1.
        994   -1    0    0    0    0 -0.00000000000E+00 -0.00000000000E+00  0.11368683772E-12  0.17120000000E+03  0.17120000000E+03 0.  0.
         13    1    1    2    0    0  0.10936374691E+02 -0.89420310161E+01  0.58828978457E+02  0.60501438664E+02  0.10566000000E+00 0.  1.
        994    1    1    2    0    0 -0.20280945634E+02 -0.12088724081E+01  0.30008445862E+01  0.17242744328E+03  0.17120000000E+03 0.  0.
        998    1    1    2    0    0  0.93445709427E+01  0.10150903424E+02  0.14381701732E+04  0.14382711181E+04  0.10000000000E+02 0.  1.
</event>
<event>
 5    1  0.1796476E-008  0.3762234E+03  0.7957747E-01  0.3467769E+00
         13   -1    0    0    0    0  0.00000000000E+00  0.00000000000E+00  0.14999999963E+04  0.15000000000E+04  0.10566000000E+00 0.  1.
        994   -1    0    0    0    0 -0.00000000000E+00 -0.00000000000E+00  0.11368683772E-12  0.17120000000E+03  0.17120000000E+03 0.  0.
         13    1    1    2    0    0 -0.22235413093E+02  0.26455571566E+02  0.10140422078E+03  0.10713140538E+03  0.10566000000E+00 0.  1.
        994    1    1    2    0    0  0.14675662478E+02 -0.81042738132E+00  0.67834933665E+01  0.17196362303E+03  0.17120000000E+03 0.  0.
        998    1    1    2    0    0  0.75597506150E+01 -0.25645144185E+02  0.13918122821E+04  0.13921049716E+04  0.10000000000E+02 0.  1.
</event>
<event>
 5    1  0.3664098E-008  0.3866625E+03  0.7957747E-01  0.3422652E+00
         13   -1    0    0    0    0  0.00000000000E+00  0.00000000000E+00  0.14999999963E+04  0.15000000000E+04  0.10566000000E+00 0. -1.
        994   -1    0    0    0    0 -0.00000000000E+00 -0.00000000000E+00  0.11368683772E-12  0.17120000000E+03  0.17120000000E+03 0.  0.
         13    1    1    2    0    0  0.10478890984E+02 -0.60431044534E+00  0.63159504468E+02  0.64025826945E+02  0.10566000000E+00 0. -1.
        994    1    1    2    0    0 -0.18916693492E+02  0.27173108216E+01  0.20025291322E+01  0.17227499875E+03  0.17120000000E+03 0.  0.
        998    1    1    2    0    0  0.84378025073E+01 -0.21130003762E+01  0.14348379627E+04  0.14348991743E+04  0.10000000000E+02 0. -1.
</event>
<event>
 5    1  0.1796476E-008  0.3830925E+03  0.7957747E-01  0.3437803E+00
         13   -1    0    0    0    0  0.00000000000E+00  0.00000000000E+00  0.14999999963E+04  0.15000000000E+04  0.10566000000E+00 0.  1.
        994   -1    0    0    0    0 -0.00000000000E+00 -0.00000000000E+00  0.11368683772E-12  0.17120000000E+03  0.17120000000E+03 0.  0.
         13    1    1    2    0    0 -0.13850448740E+02 -0.21456019166E+01  0.39830721300E+02  0.42224827546E+02  0.10566000000E+00 0.  1.
        994    1    1    2    0    0 -0.64947173959E+01 -0.20466592262E+01  0.27336112271E+01  0.17135717901E+03  0.17120000000E+03 0.  0.
        998    1    1    2    0    0  0.20345166136E+02  0.41922611429E+01  0.14574356638E+04  0.14576179934E+04  0.10000000000E+02 0.  1.
</event>
<event>
 5    1  0.1796476E-008  0.3842179E+03  0.7957747E-01  0.3432996E+00
         13   -1    0    0    0    0  0.00000000000E+00  0.00000000000E+00  0.14999999963E+04  0.15000000000E+04  0.10566000000E+00 0. -1.
        994   -1    0    0    0    0 -0.00000000000E+00 -0.00000000000E+00  0.11368683772E-12  0.17120000000E+03  0.17120000000E+03 0.  0.
         13    1    1    2    0    0 -0.81280305062E+01  0.10126011288E+02  0.42686921890E+02  0.44618218801E+02  0.10566000000E+00 0. -1.
        994    1    1    2    0    0 -0.52789635603E-01 -0.24242683147E+01  0.20383273287E+01  0.17122930427E+03  0.17120000000E+03 0.  0.
        998    1    1    2    0    0  0.81808201418E+01 -0.77017429730E+01  0.14552747471E+04  0.14553524769E+04  0.10000000000E+02 0. -1.
</event>
<event>
 5    1  0.1796476E-008  0.3841074E+03  0.7957747E-01  0.3433466E+00
         13   -1    0    0    0    0  0.00000000000E+00  0.00000000000E+00  0.14999999963E+04  0.15000000000E+04  0.10566000000E+00 0. -1.
        994   -1    0    0    0    0 -0.00000000000E+00 -0.00000000000E+00  0.11368683772E-12  0.17120000000E+03  0.17120000000E+03 0.  0.
         13    1    1    2    0    0 -0.17291084754E+02 -0.11071918928E+02  0.10770967120E+03  0.10964922906E+03  0.10566000000E+00 0. -1.
        994    1    1    2    0    0  0.42827996319E+01  0.16276167600E+01  0.21431643594E+01  0.17127470526E+03  0.17120000000E+03 0.  0.
        998    1    1    2    0    0  0.13008285122E+02  0.94443021685E+01  0.13901471607E+04  0.13902760657E+04  0.10000000000E+02 0. -1.
</event>
<event>
 5    1  0.1796476E-008  0.3809491E+03  0.7957747E-01  0.3447036E+00
         13   -1    0    0    0    0  0.00000000000E+00  0.00000000000E+00  0.14999999963E+04  0.15000000000E+04  0.10566000000E+00 0.  1.
        994   -1    0    0    0    0 -0.00000000000E+00 -0.00000000000E+00  0.11368683772E-12  0.17120000000E+03  0.17120000000E+03 0.  0.
         13    1    1    2    0    0 -0.13244159653E+02 -0.35064075559E+02  0.21609943594E+03  0.21932595500E+03  0.10566000000E+00 0.  1.
        994    1    1    2    0    0  0.71183972198E+01  0.46873475052E+01  0.38969331163E+01  0.17145631774E+03  0.17120000000E+03 0.  0.
        998    1    1    2    0    0  0.61257624334E+01  0.30376728054E+02  0.12800036272E+04  0.12804177273E+04  0.10000000000E+02 0.  1.
</event>
<event>
 5    1  0.1796476E-008  0.3726922E+03  0.7957747E-01  0.3483609E+00
         13   -1    0    0    0    0  0.00000000000E+00  0.00000000000E+00  0.14999999963E+04  0.15000000000E+04  0.10566000000E+00 0. -1.
        994   -1    0    0    0    0 -0.00000000000E+00 -0.00000000000E+00  0.11368683772E-12  0.17120000000E+03  0.17120000000E+03 0.  0.
         13    1    1    2    0    0 -0.37221815982E+02  0.21588353711E+02  0.65304691027E+02  0.78206358023E+02  0.10566000000E+00 0. -1.
        994    1    1    2    0    0  0.43729686044E+02 -0.31882950652E+02  0.22778900518E+02  0.18098929883E+03  0.17120000000E+03 0.  0.
        998    1    1    2    0    0 -0.65078700616E+01  0.10294596941E+02  0.14119164047E+04  0.14120043431E+04  0.10000000000E+02 0. -1.
</event>
<event>
 5    1  0.1796476E-008  0.3854376E+03  0.7957747E-01  0.3427818E+00
         13   -1    0    0    0    0  0.00000000000E+00  0.00000000000E+00  0.14999999963E+04  0.15000000000E+04  0.10566000000E+00 0.  1.
        994   -1    0    0    0    0 -0.00000000000E+00 -0.00000000000E+00  0.11368683772E-12  0.17120000000E+03  0.17120000000E+03 0.  0.
         13    1    1    2    0    0  0.98628223822E+01 -0.13501355302E+02  0.98888170071E+02  0.10029179031E+03  0.10566000000E+00 0.  1.
        994    1    1    2    0    0  0.17153073141E+01  0.15459665952E+02  0.22079783621E+01  0.17191933783E+03  0.17120000000E+03 0.  0.
        998    1    1    2    0    0 -0.11578129696E+02 -0.19583106507E+01  0.13989038478E+04  0.13989888719E+04  0.10000000000E+02 0.  1.
</event>
<event>
 5    1  0.1796476E-008  0.3786136E+03  0.7957747E-01  0.3457217E+00
         13   -1    0    0    0    0  0.00000000000E+00  0.00000000000E+00  0.14999999963E+04  0.15000000000E+04  0.10566000000E+00 0. -1.
        994   -1    0    0    0    0 -0.00000000000E+00 -0.00000000000E+00  0.11368683772E-12  0.17120000000E+03  0.17120000000E+03 0.  0.
         13    1    1    2    0    0  0.75213233697E+01 -0.92638688212E+01  0.12396446261E+02  0.17206760727E+02  0.10566000000E+00 0. -1.
        994    1    1    2    0    0 -0.57226699802E+01  0.15176766302E+02  0.57186311931E+01  0.17206169222E+03  0.17120000000E+03 0.  0.
        998    1    1    2    0    0 -0.17986533894E+01 -0.59128974812E+01  0.14818849188E+04  0.14819315471E+04  0.10000000000E+02 0. -1.
</event>
<event>
 5    1  0.1796476E-008  0.3847017E+03  0.7957747E-01  0.3430938E+00
         13   -1    0    0    0    0  0.00000000000E+00  0.00000000000E+00  0.14999999963E+04  0.15000000000E+04  0.10566000000E+00 0. -1.
        994   -1    0    0    0    0 -0.00000000000E+00 -0.00000000000E+00  0.11368683772E-12  0.17120000000E+03  0.17120000000E+03 0.  0.
         13    1    1    2    0    0 -0.58797603349E+01 -0.11621770439E+02  0.47743292270E+02  0.49488081904E+02  0.10566000000E+00 0. -1.
        994    1    1    2    0    0  0.69930274286E+01  0.51044015853E+01  0.20250731934E+01  0.17143073899E+03  0.17120000000E+03 0.  0.
        998    1    1    2    0    0 -0.11132670937E+01  0.65173688541E+01  0.14502316308E+04  0.14502811791E+04  0.10000000000E+02 0. -1.
</event>
<event>
 5    1  0.1796476E-008  0.3746499E+03  0.7957747E-01  0.3474790E+00
         13   -1    0    0    0    0  0.00000000000E+00  0.00000000000E+00  0.14999999963E+04  0.15000000000E+04  0.10566000000E+00 0. -1.
        994   -1    0    0    0    0 -0.00000000000E+00 -0.00000000000E+00  0.11368683772E-12  0.17120000000E+03  0.17120000000E+03 0.  0.
         13    1    1    2    0    0 -0.33859234603E+02  0.11930670124E+02  0.85656020312E+02  0.92874935463E+02  0.10566000000E+00 0. -1.
        994    1    1    2    0    0  0.35752238197E+02 -0.16446614836E+02  0.12147518858E+02  0.17608439991E+03  0.17120000000E+03 0.  0.
        998    1    1    2    0    0 -0.18930035940E+01  0.45159447115E+01  0.14021964571E+04  0.14022406646E+04  0.10000000000E+02 0. -1.
</event>
<event>
 5    1  0.1796476E-008  0.3753699E+03  0.7957747E-01  0.3471570E+00
         13   -1    0    0    0    0  0.00000000000E+00  0.00000000000E+00  0.14999999963E+04  0.15000000000E+04  0.10566000000E+00 0.  1.
        994   -1    0    0    0    0 -0.00000000000E+00 -0.00000000000E+00  0.11368683772E-12  0.17120000000E+03  0.17120000000E+03 0.  0.
         13    1    1    2    0    0  0.11285623247E+02 -0.13229292842E+02  0.20836621149E+02  0.27139554641E+02  0.10566000000E+00 0.  1.
        994    1    1    2    0    0 -0.23224177578E+00  0.79315677432E+01  0.67027117880E+01  0.17151481000E+03  0.17120000000E+03 0.  0.
        998    1    1    2    0    0 -0.11053381471E+02  0.52977250992E+01  0.14724606633E+04  0.14725456354E+04  0.10000000000E+02 0.  1.
</event>
<event>
 5    1  0.1796476E-008  0.3696389E+03  0.7957747E-01  0.3497552E+00
         13   -1    0    0    0    0  0.00000000000E+00  0.00000000000E+00  0.14999999963E+04  0.15000000000E+04  0.10566000000E+00 0.  1.
        994   -1    0    0    0    0 -0.00000000000E+00 -0.00000000000E+00  0.11368683772E-12  0.17120000000E+03  0.17120000000E+03 0.  0.
         13    1    1    2    0    0 -0.37689346237E+02 -0.36051644936E+02  0.13236663277E+03  0.14227137645E+03  0.10566000000E+00 0.  1.
        994    1    1    2    0    0  0.10942422222E+02  0.55793347300E+02  0.20733888923E+02  0.18158185030E+03  0.17120000000E+03 0.  0.
        998    1    1    2    0    0  0.26746924015E+02 -0.19741702364E+02  0.13468994746E+04  0.13473467733E+04  0.10000000000E+02 0.  1.
</event>
<event>
 5    1  0.1796476E-008  0.3796458E+03  0.7957747E-01  0.3452702E+00
         13   -1    0    0    0    0  0.00000000000E+00  0.00000000000E+00  0.14999999963E+04  0.15000000000E+04  0.10566000000E+00 0. -1.
        994   -1    0    0    0    0 -0.00000000000E+00 -0.00000000000E+00  0.11368683772E-12  0.17120000000E+03  0.17120000000E+03 0.  0.
         13    1    1    2    0    0 -0.41207276184E+02  0.13994127068E+01  0.19743582788E+03  0.20169510470E+03  0.10566000000E+00 0. -1.
        994    1    1    2    0    0  0.22357643183E+02 -0.16437731840E+02  0.68936051989E+01  0.17357138309E+03  0.17120000000E+03 0.  0.
        998    1    1    2    0    0  0.18849633001E+02  0.15038319133E+02  0.12956705632E+04  0.12959335122E+04  0.10000000000E+02 0. -1.
</event>
<event>
 5    1  0.1796476E-008  0.3827299E+03  0.7957747E-01  0.3439357E+00
         13   -1    0    0    0    0  0.00000000000E+00  0.00000000000E+00  0.14999999963E+04  0.15000000000E+04  0.10566000000E+00 0.  1.
        994   -1    0    0    0    0 -0.00000000000E+00 -0.00000000000E+00  0.11368683772E-12  0.17120000000E+03  0.17120000000E+03 0.  0.
         13    1    1    2    0    0 -0.10724342159E+02  0.72495798041E+01  0.31279008141E+02  0.33851963553E+02  0.10566000000E+00 0.  1.
        994    1    1    2    0    0 -0.11994436962E+02 -0.26500715042E+01  0.32614754745E+01  0.17167110013E+03  0.17120000000E+03 0.  0.
        998    1    1    2    0    0  0.22718779121E+02 -0.45995082999E+01  0.14654595127E+04  0.14656769363E+04  0.10000000000E+02 0.  1.
</event>
<event>
 5    1  0.1796476E-008  0.3847755E+03  0.7957747E-01  0.3430625E+00
         13   -1    0    0    0    0  0.00000000000E+00  0.00000000000E+00  0.14999999963E+04  0.15000000000E+04  0.10566000000E+00 0. -1.
        994   -1    0    0    0    0 -0.00000000000E+00 -0.00000000000E+00  0.11368683772E-12  0.17120000000E+03  0.17120000000E+03 0.  0.
         13    1    1    2    0    0 -0.86084091742E+01  0.10357416344E+02  0.79740971959E+02  0.80870356465E+02  0.10566000000E+00 0. -1.
        994    1    1    2    0    0 -0.32145133435E+02  0.36887088478E+02  0.96603654875E+01  0.17831637491E+03  0.17120000000E+03 0.  0.
        998    1    1    2    0    0  0.40753542609E+02 -0.47244504822E+02  0.14105986588E+04  0.14120132686E+04  0.10000000000E+02 0. -1.
</event>
<event>
 5    1  0.1796476E-008  0.3838980E+03  0.7957747E-01  0.3434359E+00
         13   -1    0    0    0    0  0.00000000000E+00  0.00000000000E+00  0.14999999963E+04  0.15000000000E+04  0.10566000000E+00 0.  1.
        994   -1    0    0    0    0 -0.00000000000E+00 -0.00000000000E+00  0.11368683772E-12  0.17120000000E+03  0.17120000000E+03 0.  0.
         13    1    1    2    0    0 -0.11945240091E+02 -0.70394783043E+01  0.44345420058E+02  0.46462570525E+02  0.10566000000E+00 0.  1.
        994    1    1    2    0    0  0.45906116704E+01  0.32540331315E+01  0.22827438268E+01  0.17130765706E+03  0.17120000000E+03 0.  0.
        998    1    1    2    0    0  0.73546284202E+01  0.37854451728E+01  0.14533718324E+04  0.14534297724E+04  0.10000000000E+02 0.  1.
</event>
<event>
 5    1  0.1796476E-008  0.3846828E+03  0.7957747E-01  0.3431019E+00
         13   -1    0    0    0    0  0.00000000000E+00  0.00000000000E+00  0.14999999963E+04  0.15000000000E+04  0.10566000000E+00 0. -1.
        994   -1    0    0    0    0 -0.00000000000E+00 -0.00000000000E+00  0.11368683772E-12  0.17120000000E+03  0.17120000000E+03 0.  0.
         13    1    1    2    0    0  0.11663824130E+02  0.79124912897E+01  0.58578020181E+02  0.60249879038E+02  0.10566000000E+00 0. -1.
        994    1    1    2    0    0 -0.16429485760E+01  0.29118772454E+01  0.18245181257E+01  0.17124236385E+03  0.17120000000E+03 0.  0.
        998    1    1    2    0    0 -0.10020875554E+02 -0.10824368535E+02  0.14395974580E+04  0.14397077571E+04  0.10000000000E+02 0. -1.
</event>
<event>
 5    1  0.1796476E-008  0.3853956E+03  0.7957747E-01  0.3427996E+00
         13   -1    0    0    0    0  0.00000000000E+00  0.00000000000E+00  0.14999999963E+04  0.15000000000E+04  0.10566000000E+00 0. -1.
        994   -1    0    0    0    0 -0.00000000000E+00 -0.00000000000E+00  0.11368683772E-12  0.17120000000E+03  0.17120000000E+03 0.  0.
         13    1    1    2    0    0  0.11834769315E+02 -0.18112587415E+01  0.48755358625E+02  0.50203969780E+02  0.10566000000E+00 0. -1.
        994    1    1    2    0    0 -0.12310768088E+02  0.44946427726E+01  0.19981902435E+01  0.17171252019E+03  0.17120000000E+03 0.  0.
        998    1    1    2    0    0  0.47599877330E+00 -0.26833840311E+01  0.14492464474E+04  0.14492835100E+04  0.10000000000E+02 0. -1.
</event>
<event>
 5    1  0.1796476E-008  0.3761022E+03  0.7957747E-01  0.3468308E+00
         13   -1    0    0    0    0  0.00000000000E+00  0.00000000000E+00  0.14999999963E+04  0.15000000000E+04  0.10566000000E+00 0. -1.
        994   -1    0    0    0    0 -0.00000000000E+00 -0.00000000000E+00  0.11368683772E-12  0.17120000000E+03  0.17120000000E+03 0.  0.
         13    1    1    2    0    0  0.25202173756E+02 -0.86669784352E+01  0.57779374527E+02  0.63629657881E+02  0.10566000000E+00 0. -1.
        994    1    1    2    0    0 -0.27663640776E+01  0.13161258257E+02  0.67265818322E+01  0.17185912368E+03  0.17120000000E+03 0.  0.
        998    1    1    2    0    0 -0.22435809678E+02 -0.44942798219E+01  0.14354940399E+04  0.14357112184E+04  0.10000000000E+02 0. -1.
</event>
<event>
 5    1  0.1796476E-008  0.3842638E+03  0.7957747E-01  0.3432800E+00
         13   -1    0    0    0    0  0.00000000000E+00  0.00000000000E+00  0.14999999963E+04  0.15000000000E+04  0.10566000000E+00 0. -1.
        994   -1    0    0    0    0 -0.00000000000E+00 -0.00000000000E+00  0.11368683772E-12  0.17120000000E+03  0.17120000000E+03 0.  0.
         13    1    1    2    0    0 -0.10917132315E+02 -0.35676444195E+01  0.33175630917E+02  0.35107627597E+02  0.10566000000E+00 0. -1.
        994    1    1    2    0    0  0.34228541954E+01  0.51333077739E+00  0.20355638871E+01  0.17124708161E+03  0.17120000000E+03 0.  0.
        998    1    1    2    0    0  0.74942781197E+01  0.30543136421E+01  0.14647888015E+04  0.14648452908E+04  0.10000000000E+02 0. -1.
</event>
<event>
 5    1  0.1796476E-008  0.3803429E+03  0.7957747E-01  0.3449667E+00
         13   -1    0    0    0    0  0.00000000000E+00  0.00000000000E+00  0.14999999963E+04  0.15000000000E+04  0.10566000000E+00 0.  1.
        994   -1    0    0    0    0 -0.00000000000E+00 -0.00000000000E+00  0.11368683772E-12  0.17120000000E+03  0.17120000000E+03 0.  0.
         13    1    1    2    0    0 -0.96963968712E+01  0.23765539367E+02  0.75934891031E+02  0.80155722276E+02  0.10566000000E+00 0.  1.
        994    1    1    2    0    0  0.15891959992E+02 -0.28384775150E+02  0.75018804430E+01  0.17442467733E+03  0.17120000000E+03 0.  0.
        998    1    1    2    0    0 -0.61955631206E+01  0.46192357833E+01  0.14165632248E+04  0.14166196004E+04  0.10000000000E+02 0.  1.
</event>
<event>
 5    1  0.1796476E-008  0.3694954E+03  0.7957747E-01  0.3498213E+00
         13   -1    0    0    0    0  0.00000000000E+00  0.00000000000E+00  0.14999999963E+04  0.15000000000E+04  0.10566000000E+00 0. -1.
        994   -1    0    0    0    0 -0.00000000000E+00 -0.00000000000E+00  0.11368683772E-12  0.17120000000E+03  0.17120000000E+03 0.  0.
         13    1    1    2    0    0  0.61151834958E+02  0.10000755325E+03  0.60963623737E+03  0.62080384237E+03  0.10566000000E+00 0. -1.
        994    1    1    2    0    0  0.34098998160E+02 -0.15657367443E+03  0.10454371395E+03  0.25674283890E+03  0.17120000000E+03 0.  0.
        998    1    1    2    0    0 -0.95250833118E+02  0.56566121178E+02  0.78582004495E+03  0.79365331873E+03  0.10000000000E+02 0. -1.
</event>
<event>
 5    1  0.1796476E-008  0.3855171E+03  0.7957747E-01  0.3427482E+00
         13   -1    0    0    0    0  0.00000000000E+00  0.00000000000E+00  0.14999999963E+04  0.15000000000E+04  0.10566000000E+00 0. -1.
        994   -1    0    0    0    0 -0.00000000000E+00 -0.00000000000E+00  0.11368683772E-12  0.17120000000E+03  0.17120000000E+03 0.  0.
         13    1    1    2    0    0  0.14785745121E+02 -0.29236969587E+01  0.88948234728E+02  0.90216217434E+02  0.10566000000E+00 0. -1.
        994    1    1    2    0    0 -0.85698586931E-01  0.77879065567E+01  0.15727808027E+01  0.17138428304E+03  0.17120000000E+03 0.  0.
        998    1    1    2    0    0 -0.14700046535E+02 -0.48642095980E+01  0.14094789807E+04  0.14095994995E+04  0.10000000000E+02 0. -1.
</event>
<event>
 5    1  0.1796476E-008  0.3807828E+03  0.7957747E-01  0.3447757E+00
         13   -1    0    0    0    0  0.00000000000E+00  0.00000000000E+00  0.14999999963E+04  0.15000000000E+04  0.10566000000E+00 0. -1.
        994   -1    0    0    0    0 -0.00000000000E+00 -0.00000000000E+00  0.11368683772E-12  0.17120000000E+03  0.17120000000E+03 0.  0.
         13    1    1    2    0    0 -0.20629825268E+02 -0.11817675098E+02  0.72540894197E+02  0.76337668488E+02  0.10566000000E+00 0. -1.
        994    1    1    2    0    0  0.52359956634E+01  0.32145283460E+02  0.72834029448E+01  0.17442254114E+03  0.17120000000E+03 0.  0.
        998    1    1    2    0    0  0.15393829605E+02 -0.20327608361E+02  0.14201756991E+04  0.14204397904E+04  0.10000000000E+02 0. -1.
</event>
<event>
 5    1  0.1796476E-008  0.3822596E+03  0.7957747E-01  0.3441378E+00
         13   -1    0    0    0    0  0.00000000000E+00  0.00000000000E+00  0.14999999963E+04  0.15000000000E+04  0.10566000000E+00 0.  1.
        994   -1    0    0    0    0 -0.00000000000E+00 -0.00000000000E+00  0.11368683772E-12  0.17120000000E+03  0.17120000000E+03 0.  0.
         13    1    1    2    0    0 -0.27654541358E+02  0.41776663073E+01  0.13034817051E+03  0.13331497768E+03  0.10566000000E+00 0.  1.
        994    1    1    2    0    0  0.15207998827E+02 -0.59284832868E+01  0.38814057129E+01  0.17202016002E+03  0.17120000000E+03 0.  0.
        998    1    1    2    0    0  0.12446542531E+02  0.17508169795E+01  0.13657704201E+04  0.13658648623E+04  0.10000000000E+02 0.  1.
</event>
<event>
 5    1  0.1796476E-008  0.3855086E+03  0.7957747E-01  0.3427518E+00
         13   -1    0    0    0    0  0.00000000000E+00  0.00000000000E+00  0.14999999963E+04  0.15000000000E+04  0.10566000000E+00 0.  1.
        994   -1    0    0    0    0 -0.00000000000E+00 -0.00000000000E+00  0.11368683772E-12  0.17120000000E+03  0.17120000000E+03 0.  0.
         13    1    1    2    0    0 -0.31406794196E+01 -0.10447046137E+02  0.47131216757E+02  0.48377343842E+02  0.10566000000E+00 0.  1.
        994    1    1    2    0    0  0.10624356165E+01 -0.73048230198E+01  0.15567590494E+01  0.17136613641E+03  0.17120000000E+03 0.  0.
        998    1    1    2    0    0  0.20782438031E+01  0.17751869156E+02  0.14513120205E+04  0.14514565197E+04  0.10000000000E+02 0.  1.
</event>
<event>
 5    1  0.1796476E-008  0.3842103E+03  0.7957747E-01  0.3433028E+00
         13   -1    0    0    0    0  0.00000000000E+00  0.00000000000E+00  0.14999999963E+04  0.15000000000E+04  0.10566000000E+00 0. -1.
        994   -1    0    0    0    0 -0.00000000000E+00 -0.00000000000E+00  0.11368683772E-12  0.17120000000E+03  0.17120000000E+03 0.  0.
         13    1    1    2    0    0 -0.90597177309E+01 -0.75915391218E+01  0.33762896060E+02  0.35772255534E+02  0.10566000000E+00 0. -1.
        994    1    1    2    0    0  0.78484655757E+01  0.62226842707E+01  0.23535422245E+01  0.17150889007E+03  0.17120000000E+03 0.  0.
        998    1    1    2    0    0  0.12112521552E+01  0.13688548512E+01  0.14638835580E+04  0.14639188544E+04  0.10000000000E+02 0. -1.
</event>
<event>
 5    1  0.1796476E-008  0.3712170E+03  0.7957747E-01  0.3490317E+00
         13   -1    0    0    0    0  0.00000000000E+00  0.00000000000E+00  0.14999999963E+04  0.15000000000E+04  0.10566000000E+00 0. -1.
        994   -1    0    0    0    0 -0.00000000000E+00 -0.00000000000E+00  0.11368683772E-12  0.17120000000E+03  0.17120000000E+03 0.  0.
         13    1    1    2    0    0 -0.55209614652E+02  0.23902460263E+02  0.13498148947E+03  0.14778174048E+03  0.10566000000E+00 0. -1.
        994    1    1    2    0    0  0.63626209675E+02 -0.23427606947E+02  0.27903881542E+02  0.18623966798E+03  0.17120000000E+03 0.  0.
        998    1    1    2    0    0 -0.84165950227E+01 -0.47485331534E+00  0.13371146253E+04  0.13371785915E+04  0.10000000000E+02 0. -1.
</event>
<event>
 5    1  0.1796476E-008  0.3838176E+03  0.7957747E-01  0.3434703E+00
         13   -1    0    0    0    0  0.00000000000E+00  0.00000000000E+00  0.14999999963E+04  0.15000000000E+04  0.10566000000E+00 0. -1.
        994   -1    0    0    0    0 -0.00000000000E+00 -0.00000000000E+00  0.11368683772E-12  0.17120000000E+03  0.17120000000E+03 0.  0.
         13    1    1    2    0    0  0.48179038704E+01  0.12122281742E+02  0.38267761301E+02  0.40430120348E+02  0.10566000000E+00 0. -1.
        994    1    1    2    0    0 -0.24093017860E+01 -0.51930480722E+01  0.23265385009E+01  0.17131148609E+03  0.17120000000E+03 0.  0.
        998    1    1    2    0    0 -0.24086020843E+01 -0.69292336695E+01  0.14594056965E+04  0.14594583936E+04  0.10000000000E+02 0. -1.
</event>
<event>
 5    1  0.1796476E-008  0.3691906E+03  0.7957747E-01  0.3499619E+00
         13   -1    0    0    0    0  0.00000000000E+00  0.00000000000E+00  0.14999999963E+04  0.15000000000E+04  0.10566000000E+00 0. -1.
        994   -1    0    0    0    0 -0.00000000000E+00 -0.00000000000E+00  0.11368683772E-12  0.17120000000E+03  0.17120000000E+03 0.  0.
         13    1    1    2    0    0  0.31369884583E+02  0.18939449564E+02  0.59140656463E+02  0.69572989151E+02  0.10566000000E+00 0. -1.
        994    1    1    2    0    0 -0.51025100151E+02  0.30213721328E+02  0.22872514368E+02  0.18261714518E+03  0.17120000000E+03 0.  0.
        998    1    1    2    0    0  0.19655215568E+02 -0.49153170892E+02  0.14179868254E+04  0.14190098657E+04  0.10000000000E+02 0. -1.
</event>
<event>
 5    1  0.1796476E-008  0.3836154E+03  0.7957747E-01  0.3435566E+00
         13   -1    0    0    0    0  0.00000000000E+00  0.00000000000E+00  0.14999999963E+04  0.15000000000E+04  0.10566000000E+00 0. -1.
        994   -1    0    0    0    0 -0.00000000000E+00 -0.00000000000E+00  0.11368683772E-12  0.17120000000E+03  0.17120000000E+03 0.  0.
         13    1    1    2    0    0  0.79701685069E+00  0.22356827454E+02  0.11496725559E+03  0.11712362695E+03  0.10566000000E+00 0. -1.
        994    1    1    2    0    0  0.58769853559E+01 -0.46251414108E+01  0.25039054249E+01  0.17138156386E+03  0.17120000000E+03 0.  0.
        998    1    1    2    0    0 -0.66740022066E+01 -0.17731686043E+02  0.13825288353E+04  0.13826948092E+04  0.10000000000E+02 0. -1.
</event>
<event>
 5    1  0.1796476E-008  0.3805549E+03  0.7957747E-01  0.3448746E+00
         13   -1    0    0    0    0  0.00000000000E+00  0.00000000000E+00  0.14999999963E+04  0.15000000000E+04  0.10566000000E+00 0.  1.
        994   -1    0    0    0    0 -0.00000000000E+00 -0.00000000000E+00  0.11368683772E-12  0.17120000000E+03  0.17120000000E+03 0.  0.
         13    1    1    2    0    0 -0.32709379744E+02 -0.17897335044E+02  0.18364004719E+03  0.18738702255E+03  0.10566000000E+00 0.  1.
        994    1    1    2    0    0  0.17124890906E+02  0.66891255240E+01  0.49819859507E+01  0.17225639748E+03  0.17120000000E+03 0.  0.
        998    1    1    2    0    0  0.15584488838E+02  0.11208209520E+02  0.13113779631E+04  0.13115565800E+04  0.10000000000E+02 0.  1.
</event>
<event>
 5    1  0.1796476E-008  0.3858487E+03  0.7957747E-01  0.3426081E+00
         13   -1    0    0    0    0  0.00000000000E+00  0.00000000000E+00  0.14999999963E+04  0.15000000000E+04  0.10566000000E+00 0. -1.
        994   -1    0    0    0    0 -0.00000000000E+00 -0.00000000000E+00  0.11368683772E-12  0.17120000000E+03  0.17120000000E+03 0.  0.
         13    1    1    2    0    0 -0.10740013856E+02 -0.80925049764E+01  0.74034983815E+02  0.75246438633E+02  0.10566000000E+00 0. -1.
        994    1    1    2    0    0  0.61960823723E+01  0.10650542483E+02  0.17074371116E+01  0.17165133508E+03  0.17120000000E+03 0.  0.
        998    1    1    2    0    0  0.45439314840E+01 -0.25580375071E+01  0.14242575754E+04  0.14243022263E+04  0.10000000000E+02 0. -1.
</event>
<event>
 5    1  0.1796476E-008  0.3794337E+03  0.7957747E-01  0.3453628E+00
         13   -1    0    0    0    0  0.00000000000E+00  0.00000000000E+00  0.14999999963E+04  0.15000000000E+04  0.10566000000E+00 0. -1.
        994   -1    0    0    0    0 -0.00000000000E+00 -0.00000000000E+00  0.11368683772E-12  0.17120000000E+03  0.17120000000E+03 0.  0.
         13    1    1    2    0    0  0.30291443174E+02  0.37358425378E+01  0.98851720935E+02  0.10345628036E+03  0.10566000000E+00 0. -1.
        994    1    1    2    0    0 -0.27636137185E+02 -0.91216849551E+01  0.72610829697E+01  0.17380772290E+03  0.17120000000E+03 0.  0.
        998    1    1    2    0    0 -0.26553059894E+01  0.53858424174E+01  0.13938871924E+04  0.13939359967E+04  0.10000000000E+02 0. -1.
</event>
<event>
 5    1  0.1796476E-008  0.3798094E+03  0.7957747E-01  0.3451989E+00
         13   -1    0    0    0    0  0.00000000000E+00  0.00000000000E+00  0.14999999963E+04  0.15000000000E+04  0.10566000000E+00 0.  1.
        994   -1    0    0    0    0 -0.00000000000E+00 -0.00000000000E+00  0.11368683772E-12  0.17120000000E+03  0.17120000000E+03 0.  0.
         13    1    1    2    0    0 -0.16860555928E+03  0.14373050669E+03  0.10550954498E+04  0.10781060767E+04  0.10566000000E+00 0.  1.
        994    1    1    2    0    0  0.17445364846E+03 -0.13691868191E+03  0.19155231368E+03  0.33938551795E+03  0.17120000000E+03 0.  0.
        998    1    1    2    0    0 -0.58480891710E+01 -0.68118247787E+01  0.25335223277E+03  0.25370840536E+03  0.10000000000E+02 0.  0.
</event>
<event>
 5    1  0.1796476E-008  0.3778157E+03  0.7957747E-01  0.3460725E+00
         13   -1    0    0    0    0  0.00000000000E+00  0.00000000000E+00  0.14999999963E+04  0.15000000000E+04  0.10566000000E+00 0.  1.
        994   -1    0    0    0    0 -0.00000000000E+00 -0.00000000000E+00  0.11368683772E-12  0.17120000000E+03  0.17120000000E+03 0.  0.
         13    1    1    2    0    0  0.13441224982E+02 -0.31961787783E+01  0.16654679670E+02  0.21639584255E+02  0.10566000000E+00 0.  1.
        994    1    1    2    0    0  0.11225019342E+02  0.11140386828E+02  0.60824807668E+01  0.17203646663E+03  0.17120000000E+03 0.  0.
        998    1    1    2    0    0 -0.24666244324E+02 -0.79442080498E+01  0.14772628358E+04  0.14775239491E+04  0.10000000000E+02 0.  1.
</event>
<event>
 5    1  0.1796476E-008  0.3795740E+03  0.7957747E-01  0.3453016E+00
         13   -1    0    0    0    0  0.00000000000E+00  0.00000000000E+00  0.14999999963E+04  0.15000000000E+04  0.10566000000E+00 0.  1.
        994   -1    0    0    0    0 -0.00000000000E+00 -0.00000000000E+00  0.11368683772E-12  0.17120000000E+03  0.17120000000E+03 0.  0.
         13    1    1    2    0    0 -0.28605401899E+02 -0.18967863762E+02  0.12196265546E+03  0.12670023428E+03  0.10566000000E+00 0.  1.
        994    1    1    2    0    0  0.30293795975E+02  0.22246708945E+02  0.90918343861E+01  0.17551276759E+03  0.17120000000E+03 0.  0.
        998    1    1    2    0    0 -0.16883940755E+01 -0.32788451824E+01  0.13689455064E+04  0.13689869981E+04  0.10000000000E+02 0.  1.
</event>
<event>
 5    1  0.1796476E-008  0.3799225E+03  0.7957747E-01  0.3451496E+00
         13   -1    0    0    0    0  0.00000000000E+00  0.00000000000E+00  0.14999999963E+04  0.15000000000E+04  0.10566000000E+00 0.  1.
        994   -1    0    0    0    0 -0.00000000000E+00 -0.00000000000E+00  0.11368683772E-12  0.17120000000E+03  0.17120000000E+03 0.  0.
         13    1    1    2    0    0  0.20145882434E+02 -0.10830688635E+02  0.57244574167E+02  0.61645055203E+02  0.10566000000E+00 0.  1.
        994    1    1    2    0    0 -0.17731010454E+02  0.33705438991E+02  0.90375085125E+01  0.17561765831E+03  0.17120000000E+03 0.  0.
        998    1    1    2    0    0 -0.24148719796E+01 -0.22874750356E+02  0.14337179136E+04  0.14339372865E+04  0.10000000000E+02 0.  1.
</event>
<event>
 5    1  0.1796476E-008  0.3691438E+03  0.7957747E-01  0.3499835E+00
         13   -1    0    0    0    0  0.00000000000E+00  0.00000000000E+00  0.14999999963E+04  0.15000000000E+04  0.10566000000E+00 0. -1.
        994   -1    0    0    0    0 -0.00000000000E+00 -0.00000000000E+00  0.11368683772E-12  0.17120000000E+03  0.17120000000E+03 0.  0.
         13    1    1    2    0    0  0.16241138809E+02 -0.31992339502E+02  0.61522735815E+02  0.71220380249E+02  0.10566000000E+00 0. -1.
        994    1    1    2    0    0 -0.10695060209E+02  0.27452253312E+02  0.12733355563E+02  0.17418263079E+03  0.17120000000E+03 0.  0.
        998    1    1    2    0    0 -0.55460786004E+01  0.45400861898E+01  0.14257439049E+04  0.14257969890E+04  0.10000000000E+02 0. -1.
</event>
<event>
 5    1  0.1796476E-008  0.3366226E+03  0.7957747E-01  0.3664919E+00
         13   -1    0    0    0    0  0.00000000000E+00  0.00000000000E+00  0.14999999963E+04  0.15000000000E+04  0.10566000000E+00 0. -1.
        994   -1    0    0    0    0 -0.00000000000E+00 -0.00000000000E+00  0.11368683772E-12  0.17120000000E+03  0.17120000000E+03 0.  0.
         13    1    1    2    0    0 -0.13406433305E+03 -0.19202150649E+03  0.83738564631E+03  0.86951724317E+03  0.10566000000E+00 0. -1.
        994    1    1    2    0    0  0.12107910964E+03  0.19492752030E+03  0.22599589430E+03  0.36474713597E+03  0.17120000000E+03 0.  0.
        998    1    1    2    0    0  0.12985223408E+02 -0.29060138041E+01  0.43661845567E+03  0.43693562086E+03  0.10000000000E+02 0.  1.
</event>
<event>
 5    1  0.1796476E-008  0.3742456E+03  0.7957747E-01  0.3476603E+00
         13   -1    0    0    0    0  0.00000000000E+00  0.00000000000E+00  0.14999999963E+04  0.15000000000E+04  0.10566000000E+00 0.  1.
        994   -1    0    0    0    0 -0.00000000000E+00 -0.00000000000E+00  0.11368683772E-12  0.17120000000E+03  0.17120000000E+03 0.  0.
         13    1    1    2    0    0  0.51376748982E+02  0.69490367041E+02  0.37834220367E+03  0.38808673733E+03  0.10566000000E+00 0.  1.
        994    1    1    2    0    0 -0.22094309760E+02 -0.98808205767E+02  0.42847877679E+02  0.20346154593E+03  0.17120000000E+03 0.  0.
        998    1    1    2    0    0 -0.29282439222E+02  0.29317838725E+02  0.10788099149E+04  0.10796517167E+04  0.10000000000E+02 0.  1.
</event>
<event>
 5    1  0.1796476E-008  0.3774616E+03  0.7957747E-01  0.3462286E+00
         13   -1    0    0    0    0  0.00000000000E+00  0.00000000000E+00  0.14999999963E+04  0.15000000000E+04  0.10566000000E+00 0. -1.
        994   -1    0    0    0    0 -0.00000000000E+00 -0.00000000000E+00  0.11368683772E-12  0.17120000000E+03  0.17120000000E+03 0.  0.
         13    1    1    2    0    0 -0.74711152840E+02  0.27173925097E+02  0.41905344029E+03  0.42652781333E+03  0.10566000000E+00 0. -1.
        994    1    1    2    0    0  0.74132347784E+02 -0.27397751769E+02  0.26775703144E+02  0.19045372159E+03  0.17120000000E+03 0.  0.
        998    1    1    2    0    0  0.57880505558E+00  0.22382667251E+00  0.10541708528E+04  0.10542184651E+04  0.10000000000E+02 0.  0.
</event>
<event>
 5    1  0.1796476E-008  0.3852485E+03  0.7957747E-01  0.3428619E+00
         13   -1    0    0    0    0  0.00000000000E+00  0.00000000000E+00  0.14999999963E+04  0.15000000000E+04  0.10566000000E+00 0.  1.
        994   -1    0    0    0    0 -0.00000000000E+00 -0.00000000000E+00  0.11368683772E-12  0.17120000000E+03  0.17120000000E+03 0.  0.
         13    1    1    2    0    0 -0.79909773811E+01 -0.10642929062E+02  0.56786665014E+02  0.58325501678E+02  0.10566000000E+00 0.  1.
        994    1    1    2    0    0  0.62537538717E+01  0.13873646893E+02  0.22682012747E+01  0.17189000044E+03  0.17120000000E+03 0.  0.
        998    1    1    2    0    0  0.17372235095E+01 -0.32307178308E+01  0.14409451300E+04  0.14409844979E+04  0.10000000000E+02 0.  1.
</event>
<event>
 5    1  0.1796476E-008  0.3837922E+03  0.7957747E-01  0.3434811E+00
         13   -1    0    0    0    0  0.00000000000E+00  0.00000000000E+00  0.14999999963E+04  0.15000000000E+04  0.10566000000E+00 0. -1.
        994   -1    0    0    0    0 -0.00000000000E+00 -0.00000000000E+00  0.11368683772E-12  0.17120000000E+03  0.17120000000E+03 0.  0.
         13    1    1    2    0    0 -0.11047235315E+02 -0.26299253737E+01  0.28463532823E+02  0.30645420218E+02  0.10566000000E+00 0. -1.
        994    1    1    2    0    0  0.53265438254E+01  0.18724561324E+01  0.23362559059E+01  0.17130900809E+03  0.17120000000E+03 0.  0.
        998    1    1    2    0    0  0.57206914895E+01  0.75746924124E+00  0.14692002076E+04  0.14692455717E+04  0.10000000000E+02 0. -1.
</event>
<event>
 5    1  0.1796476E-008  0.3816485E+03  0.7957747E-01  0.3444012E+00
         13   -1    0    0    0    0  0.00000000000E+00  0.00000000000E+00  0.14999999963E+04  0.15000000000E+04  0.10566000000E+00 0.  1.
        994   -1    0    0    0    0 -0.00000000000E+00 -0.00000000000E+00  0.11368683772E-12  0.17120000000E+03  0.17120000000E+03 0.  0.
         13    1    1    2    0    0  0.61740579495E+01  0.13020611897E+02  0.31538648406E+02  0.34674959741E+02  0.10566000000E+00 0.  1.
        994    1    1    2    0    0  0.20056225429E+01  0.24385699133E+01  0.33364349507E+01  0.17126161550E+03  0.17120000000E+03 0.  0.
        998    1    1    2    0    0 -0.81796804924E+01 -0.15459181811E+02  0.14651249129E+04  0.14652634248E+04  0.10000000000E+02 0.  1.
</event>
<event>
 5    1  0.1796476E-008  0.3837545E+03  0.7957747E-01  0.3434972E+00
         13   -1    0    0    0    0  0.00000000000E+00  0.00000000000E+00  0.14999999963E+04  0.15000000000E+04  0.10566000000E+00 0.  1.
        994   -1    0    0    0    0 -0.00000000000E+00 -0.00000000000E+00  0.11368683772E-12  0.17120000000E+03  0.17120000000E+03 0.  0.
         13    1    1    2    0    0  0.20362587620E+02 -0.13370337891E+02  0.14255407447E+03  0.14462045575E+03  0.10566000000E+00 0.  1.
        994    1    1    2    0    0 -0.23287866751E+01  0.54022367021E+01  0.23640449291E+01  0.17131735498E+03  0.17120000000E+03 0.  0.
        998    1    1    2    0    0 -0.18033800945E+02  0.79681011889E+01  0.13550818769E+04  0.13552621893E+04  0.10000000000E+02 0.  1.
</event>
<event>
 5    1  0.1796476E-008  0.3787874E+03  0.7957747E-01  0.3456456E+00
         13   -1    0    0    0    0  0.00000000000E+00  0.00000000000E+00  0.14999999963E+04  0.15000000000E+04  0.10566000000E+00 0. -1.
        994   -1    0    0    0    0 -0.00000000000E+00 -0.00000000000E+00  0.11368683772E-12  0.17120000000E+03  0.17120000000E+03 0.  0.
         13    1    1    2    0    0  0.40284946805E+02  0.67183971905E+01  0.20056081588E+03  0.20467697924E+03  0.10566000000E+00 0. -1.
        994    1    1    2    0    0 -0.18736804613E+01 -0.12966389909E+02  0.53228122747E+01  0.17178303256E+03  0.17120000000E+03 0.  0.
        998    1    1    2    0    0 -0.38411266343E+02  0.62479927181E+01  0.12941163681E+04  0.12947399882E+04  0.10000000000E+02 0. -1.
</event>
<event>
 5    1  0.1796476E-008  0.3821899E+03  0.7957747E-01  0.3441678E+00
         13   -1    0    0    0    0  0.00000000000E+00  0.00000000000E+00  0.14999999963E+04  0.15000000000E+04  0.10566000000E+00 0. -1.
        994   -1    0    0    0    0 -0.00000000000E+00 -0.00000000000E+00  0.11368683772E-12  0.17120000000E+03  0.17120000000E+03 0.  0.
         13    1    1    2    0    0  0.24840605584E+02  0.53461584539E+01  0.99334103933E+02  0.10253249467E+03  0.10566000000E+00 0. -1.
        994    1    1    2    0    0 -0.24918923412E+02 -0.76015944033E+01  0.52877014204E+01  0.17325165733E+03  0.17120000000E+03 0.  0.
        998    1    1    2    0    0  0.78317827417E-01  0.22554359494E+01  0.13953781909E+04  0.13954158480E+04  0.10000000000E+02 0.  0.
</event>
<event>
 5    1  0.1796476E-008  0.3800960E+03  0.7957747E-01  0.3450741E+00
         13   -1    0    0    0    0  0.00000000000E+00  0.00000000000E+00  0.14999999963E+04  0.15000000000E+04  0.10566000000E+00 0.  1.
        994   -1    0    0    0    0 -0.00000000000E+00 -0.00000000000E+00  0.11368683772E-12  0.17120000000E+03  0.17120000000E+03 0.  0.
         13    1    1    2    0    0  0.88597996018E+00 -0.13640605575E+02  0.21578799781E+02  0.25544213532E+02  0.10566000000E+00 0.  1.
        994    1    1    2    0    0 -0.16912725974E+02  0.16942011733E+01  0.50507701058E+01  0.17211583569E+03  0.17120000000E+03 0.  0.
        998    1    1    2    0    0  0.16026746014E+02  0.11946404401E+02  0.14733704264E+04  0.14735399508E+04  0.10000000000E+02 0.  1.
</event>
<event>
 5    1  0.1796476E-008  0.3738323E+03  0.7957747E-01  0.3478462E+00
         13   -1    0    0    0    0  0.00000000000E+00  0.00000000000E+00  0.14999999963E+04  0.15000000000E+04  0.10566000000E+00 0.  1.
        994   -1    0    0    0    0 -0.00000000000E+00 -0.00000000000E+00  0.11368683772E-12  0.17120000000E+03  0.17120000000E+03 0.  0.
         13    1    1    2    0    0  0.91462999810E+01 -0.97587954292E+02  0.46167929776E+03  0.47196911845E+03  0.10566000000E+00 0.  1.
        994    1    1    2    0    0 -0.38868844610E+01  0.95061485741E+02  0.38828894622E+02  0.19967202358E+03  0.17120000000E+03 0.  0.
        998    1    1    2    0    0 -0.52594155200E+01  0.25264685514E+01  0.99949180390E+03  0.99955885798E+03  0.10000000000E+02 0.  1.
</event>
<event>
 5    1  0.1796476E-008  0.3827714E+03  0.7957747E-01  0.3439179E+00
         13   -1    0    0    0    0  0.00000000000E+00  0.00000000000E+00  0.14999999963E+04  0.15000000000E+04  0.10566000000E+00 0.  1.
        994   -1    0    0    0    0 -0.00000000000E+00 -0.00000000000E+00  0.11368683772E-12  0.17120000000E+03  0.17120000000E+03 0.  0.
         13    1    1    2    0    0 -0.84320593037E+01 -0.26040210471E+02  0.12239899092E+03  0.12542215246E+03  0.10566000000E+00 0.  1.
        994    1    1    2    0    0  0.26876729214E+01  0.32868583364E+02  0.63516901016E+01  0.17446303713E+03  0.17120000000E+03 0.  0.
        998    1    1    2    0    0  0.57443863824E+01 -0.68283728925E+01  0.13712493153E+04  0.13713148104E+04  0.10000000000E+02 0.  1.
</event>
<event>
 5    1  0.1796476E-008  0.3719623E+03  0.7957747E-01  0.3486921E+00
         13   -1    0    0    0    0  0.00000000000E+00  0.00000000000E+00  0.14999999963E+04  0.15000000000E+04  0.10566000000E+00 0.  1.
        994   -1    0    0    0    0 -0.00000000000E+00 -0.00000000000E+00  0.11368683772E-12  0.17120000000E+03  0.17120000000E+03 0.  0.
         13    1    1    2    0    0 -0.17866423667E+02  0.48733959265E+02  0.12009140626E+03  0.13082876176E+03  0.10566000000E+00 0.  1.
        994    1    1    2    0    0  0.14772980775E+02 -0.15191517376E+00  0.12748860506E+02  0.17230855313E+03  0.17120000000E+03 0.  0.
        998    1    1    2    0    0  0.30934428915E+01 -0.48582044091E+02  0.13671597295E+04  0.13680626851E+04  0.10000000000E+02 0.  1.
</event>
<event>
 5    1  0.1796476E-008  0.3688472E+03  0.7957747E-01  0.3501206E+00
         13   -1    0    0    0    0  0.00000000000E+00  0.00000000000E+00  0.14999999963E+04  0.15000000000E+04  0.10566000000E+00 0. -1.
        994   -1    0    0    0    0 -0.00000000000E+00 -0.00000000000E+00  0.11368683772E-12  0.17120000000E+03  0.17120000000E+03 0.  0.
         13    1    1    2    0    0 -0.66284438646E+02 -0.27166439004E+02  0.22610375890E+03  0.23718044432E+03  0.10566000000E+00 0. -1.
        994    1    1    2    0    0  0.63786373097E+02  0.17313362463E+02  0.25194906979E+02  0.18523681397E+03  0.17120000000E+03 0.  0.
        998    1    1    2    0    0  0.24980655485E+01  0.98530765411E+01  0.12487013304E+04  0.12487827417E+04  0.10000000000E+02 0. -1.
</event>
<event>
 5    1  0.1796476E-008  0.3779773E+03  0.7957747E-01  0.3460013E+00
         13   -1    0    0    0    0  0.00000000000E+00  0.00000000000E+00  0.14999999963E+04  0.15000000000E+04  0.10566000000E+00 0. -1.
        994   -1    0    0    0    0 -0.00000000000E+00 -0.00000000000E+00  0.11368683772E-12  0.17120000000E+03  0.17120000000E+03 0.  0.
         13    1    1    2    0    0  0.15414301733E+02  0.24020464572E+02  0.78279311632E+02  0.83320136881E+02  0.10566000000E+00 0. -1.
        994    1    1    2    0    0 -0.44745839287E+01 -0.13960153354E+02  0.58812646724E+01  0.17192712717E+03  0.17120000000E+03 0.  0.
        998    1    1    2    0    0 -0.10939717805E+02 -0.10060311218E+02  0.14158394200E+04  0.14159527359E+04  0.10000000000E+02 0. -1.
</event>
<event>
 5    1  0.1796476E-008  0.2471749E+03  0.7957747E-01  0.4364328E+00
         13   -1    0    0    0    0  0.00000000000E+00  0.00000000000E+00  0.14999999963E+04  0.15000000000E+04  0.10566000000E+00 0. -1.
        994   -1    0    0    0    0 -0.00000000000E+00 -0.00000000000E+00  0.11368683772E-12  0.17120000000E+03  0.17120000000E+03 0.  0.
         13    1    1    2    0    0  0.12197477962E+03 -0.13648446160E+03  0.20275347185E+03  0.27315716471E+03  0.10566000000E+00 0. -1.
        994    1    1    2    0    0 -0.12772903482E+03  0.11523229388E+03  0.24273273788E+03  0.34325181708E+03  0.17120000000E+03 0.  0.
        998    1    1    2    0    0  0.57542552001E+01  0.21252167719E+02  0.10545137865E+04  0.10547910182E+04  0.10000000000E+02 0. -1.
</event>
<event>
 5    1  0.1796476E-008  0.3766394E+03  0.7957747E-01  0.3465923E+00
         13   -1    0    0    0    0  0.00000000000E+00  0.00000000000E+00  0.14999999963E+04  0.15000000000E+04  0.10566000000E+00 0. -1.
        994   -1    0    0    0    0 -0.00000000000E+00 -0.00000000000E+00  0.11368683772E-12  0.17120000000E+03  0.17120000000E+03 0.  0.
         13    1    1    2    0    0 -0.15109401683E+02  0.15357653741E+02  0.37746400384E+02  0.43462092145E+02  0.10566000000E+00 0. -1.
        994    1    1    2    0    0  0.12704493580E+02 -0.35404347445E+01  0.64274827263E+01  0.17182750469E+03  0.17120000000E+03 0.  0.
        998    1    1    2    0    0  0.24049081030E+01 -0.11817218997E+02  0.14558261132E+04  0.14559104032E+04  0.10000000000E+02 0. -1.
</event>
<event>
 5    1  0.1796476E-008  0.3817725E+03  0.7957747E-01  0.3443477E+00
         13   -1    0    0    0    0  0.00000000000E+00  0.00000000000E+00  0.14999999963E+04  0.15000000000E+04  0.10566000000E+00 0. -1.
        994   -1    0    0    0    0 -0.00000000000E+00 -0.00000000000E+00  0.11368683772E-12  0.17120000000E+03  0.17120000000E+03 0.  0.
         13    1    1    2    0    0 -0.36713871475E+01 -0.25373791348E+02  0.11359256394E+03  0.11644994684E+03  0.10566000000E+00 0. -1.
        994    1    1    2    0    0 -0.19607214468E+02 -0.10275828937E+01  0.45233016749E+01  0.17238155076E+03  0.17120000000E+03 0.  0.
        998    1    1    2    0    0  0.23278601616E+02  0.26401374241E+02  0.13818841307E+04  0.13823685024E+04  0.10000000000E+02 0. -1.
</event>
<event>
 5    1  0.1796476E-008  0.3834435E+03  0.7957747E-01  0.3436300E+00
         13   -1    0    0    0    0  0.00000000000E+00  0.00000000000E+00  0.14999999963E+04  0.15000000000E+04  0.10566000000E+00 0.  1.
        994   -1    0    0    0    0 -0.00000000000E+00 -0.00000000000E+00  0.11368683772E-12  0.17120000000E+03  0.17120000000E+03 0.  0.
         13    1    1    2    0    0 -0.15601048656E+02  0.16477258254E+02  0.11811727510E+03  0.12027715743E+03  0.10566000000E+00 0.  1.
        994    1    1    2    0    0 -0.23028639607E+01 -0.17580592260E+01  0.24326153690E+01  0.17124179271E+03  0.17120000000E+03 0.  0.
        998    1    1    2    0    0  0.17903912616E+02 -0.14719199028E+02  0.13794501058E+04  0.13796810499E+04  0.10000000000E+02 0.  1.
</event>
<event>
 5    1  0.1796476E-008  0.3760345E+03  0.7957747E-01  0.3468609E+00
         13   -1    0    0    0    0  0.00000000000E+00  0.00000000000E+00  0.14999999963E+04  0.15000000000E+04  0.10566000000E+00 0.  1.
        994   -1    0    0    0    0 -0.00000000000E+00 -0.00000000000E+00  0.11368683772E-12  0.17120000000E+03  0.17120000000E+03 0.  0.
         13    1    1    2    0    0  0.11365085453E+02 -0.32865346943E+02  0.91633168761E+02  0.98009922856E+02  0.10566000000E+00 0.  1.
        994    1    1    2    0    0 -0.63508917958E+01  0.32587735298E+02  0.98914211748E+01  0.17466990162E+03  0.17120000000E+03 0.  0.
        998    1    1    2    0    0 -0.50141936572E+01  0.27761164544E+00  0.13984754063E+04  0.13985201755E+04  0.10000000000E+02 0.  1.
</event>
<event>
 5    1  0.1796476E-008  0.3833953E+03  0.7957747E-01  0.3436506E+00
         13   -1    0    0    0    0  0.00000000000E+00  0.00000000000E+00  0.14999999963E+04  0.15000000000E+04  0.10566000000E+00 0. -1.
        994   -1    0    0    0    0 -0.00000000000E+00 -0.00000000000E+00  0.11368683772E-12  0.17120000000E+03  0.17120000000E+03 0.  0.
         13    1    1    2    0    0 -0.31067724698E+02  0.54757325956E+01  0.17580446445E+03  0.17861245212E+03  0.10566000000E+00 0. -1.
        994    1    1    2    0    0  0.37974602808E+02  0.59506424845E+01  0.73286384137E+01  0.17561500376E+03  0.17120000000E+03 0.  0.
        998    1    1    2    0    0 -0.69068781097E+01 -0.11426375080E+02  0.13168668934E+04  0.13169725441E+04  0.10000000000E+02 0. -1.
</event>
<event>
 5    1  0.1796476E-008  0.3763649E+03  0.7957747E-01  0.3467141E+00
         13   -1    0    0    0    0  0.00000000000E+00  0.00000000000E+00  0.14999999963E+04  0.15000000000E+04  0.10566000000E+00 0.  1.
        994   -1    0    0    0    0 -0.00000000000E+00 -0.00000000000E+00  0.11368683772E-12  0.17120000000E+03  0.17120000000E+03 0.  0.
         13    1    1    2    0    0  0.11572525068E+02  0.67246236698E+02  0.34381146560E+03  0.35051721032E+03  0.10566000000E+00 0.  1.
        994    1    1    2    0    0 -0.21241096964E+02 -0.50322768800E+02  0.16142292558E+02  0.18042610362E+03  0.17120000000E+03 0.  0.
        998    1    1    2    0    0  0.96685718961E+01 -0.16923467898E+02  0.11400462381E+04  0.11402566861E+04  0.10000000000E+02 0.  1.
</event>
<event>
 5    1  0.1796476E-008  0.3763044E+03  0.7957747E-01  0.3467409E+00
         13   -1    0    0    0    0  0.00000000000E+00  0.00000000000E+00  0.14999999963E+04  0.15000000000E+04  0.10566000000E+00 0.  1.
        994   -1    0    0    0    0 -0.00000000000E+00 -0.00000000000E+00  0.11368683772E-12  0.17120000000E+03  0.17120000000E+03 0.  0.
         13    1    1    2    0    0  0.20963207771E+02 -0.17278459074E+02  0.57468007599E+02  0.63565590451E+02  0.10566000000E+00 0.  1.
        994    1    1    2    0    0 -0.20446226541E+02  0.15511615408E+02  0.82427105527E+01  0.17330908998E+03  0.17120000000E+03 0.  0.
        998    1    1    2    0    0 -0.51698123011E+00  0.17668436662E+01  0.14342892781E+04  0.14343253196E+04  0.10000000000E+02 0.  1.
</event>
<event>
 5    1  0.1796476E-008  0.3807880E+03  0.7957747E-01  0.3447734E+00
         13   -1    0    0    0    0  0.00000000000E+00  0.00000000000E+00  0.14999999963E+04  0.15000000000E+04  0.10566000000E+00 0. -1.
        994   -1    0    0    0    0 -0.00000000000E+00 -0.00000000000E+00  0.11368683772E-12  0.17120000000E+03  0.17120000000E+03 0.  0.
         13    1    1    2    0    0 -0.21176317327E+02  0.28498394574E+01  0.62774713222E+02  0.66311641396E+02  0.10566000000E+00 0. -1.
        994    1    1    2    0    0  0.40254820277E+01  0.11302533065E+02  0.42160014849E+01  0.17167168208E+03  0.17120000000E+03 0.  0.
        998    1    1    2    0    0  0.17150835300E+02 -0.14152372522E+02  0.14330092816E+04  0.14332166765E+04  0.10000000000E+02 0. -1.
</event>
<event>
 5    1  0.1796476E-008  0.3826185E+03  0.7957747E-01  0.3439836E+00
         13   -1    0    0    0    0  0.00000000000E+00  0.00000000000E+00  0.14999999963E+04  0.15000000000E+04  0.10566000000E+00 0. -1.
        994   -1    0    0    0    0 -0.00000000000E+00 -0.00000000000E+00  0.11368683772E-12  0.17120000000E+03  0.17120000000E+03 0.  0.
         13    1    1    2    0    0  0.15912618689E+02 -0.31061915754E+00  0.49777459228E+02  0.52260066294E+02  0.10566000000E+00 0. -1.
        994    1    1    2    0    0  0.17104565862E+02  0.29387584633E+02  0.66585337594E+01  0.17467104046E+03  0.17120000000E+03 0.  0.
        998    1    1    2    0    0 -0.33017184552E+02 -0.29076965476E+02  0.14435640033E+04  0.14442688932E+04  0.10000000000E+02 0. -1.
</event>
<event>
 5    1  0.3079455E-008  0.3864187E+03  0.7957747E-01  0.3423678E+00
         13   -1    0    0    0    0  0.00000000000E+00  0.00000000000E+00  0.14999999963E+04  0.15000000000E+04  0.10566000000E+00 0.  1.
        994   -1    0    0    0    0 -0.00000000000E+00 -0.00000000000E+00  0.11368683772E-12  0.17120000000E+03  0.17120000000E+03 0.  0.
         13    1    1    2    0    0 -0.41171455876E+01 -0.91743833323E+01  0.60215924377E+02  0.61049888697E+02  0.10566000000E+00 0.  1.
        994    1    1    2    0    0 -0.45389735666E+00 -0.30804691014E+01  0.95915775307E+00  0.17123099981E+03  0.17120000000E+03 0.  0.
        998    1    1    2    0    0  0.45710429442E+01  0.12254852434E+02  0.14388249141E+04  0.14389191115E+04  0.10000000000E+02 0.  1.
</event>
<event>
 5    1  0.1796476E-008  0.3801516E+03  0.7957747E-01  0.3450499E+00
         13   -1    0    0    0    0  0.00000000000E+00  0.00000000000E+00  0.14999999963E+04  0.15000000000E+04  0.10566000000E+00 0.  1.
        994   -1    0    0    0    0 -0.00000000000E+00 -0.00000000000E+00  0.11368683772E-12  0.17120000000E+03  0.17120000000E+03 0.  0.
         13    1    1    2    0    0 -0.11973372914E+02  0.16956815352E+02  0.54029194320E+02  0.57879704981E+02  0.10566000000E+00 0.  1.
        994    1    1    2    0    0 -0.20305539563E+01 -0.36524825861E+01  0.41149911606E+01  0.17130042887E+03  0.17120000000E+03 0.  0.
        998    1    1    2    0    0  0.14003926870E+02 -0.13304332766E+02  0.14418558108E+04  0.14420198662E+04  0.10000000000E+02 0.  1.
</event>
<event>
 5    1  0.1796476E-008  0.3763962E+03  0.7957747E-01  0.3467002E+00
         13   -1    0    0    0    0  0.00000000000E+00  0.00000000000E+00  0.14999999963E+04  0.15000000000E+04  0.10566000000E+00 0. -1.
        994   -1    0    0    0    0 -0.00000000000E+00 -0.00000000000E+00  0.11368683772E-12  0.17120000000E+03  0.17120000000E+03 0.  0.
         13    1    1    2    0    0 -0.27164223180E+02  0.78041682370E+01  0.21770127734E+02  0.35675617562E+02  0.10566000000E+00 0. -1.
        994    1    1    2    0    0  0.22026224615E+02 -0.56875746206E+01  0.16214517159E+02  0.17346427195E+03  0.17120000000E+03 0.  0.
        998    1    1    2    0    0  0.51379985652E+01 -0.21165936163E+01  0.14620153514E+04  0.14620601105E+04  0.10000000000E+02 0. -1.
</event>
<event>
 5    1  0.1796476E-008  0.3832498E+03  0.7957747E-01  0.3437129E+00
         13   -1    0    0    0    0  0.00000000000E+00  0.00000000000E+00  0.14999999963E+04  0.15000000000E+04  0.10566000000E+00 0. -1.
        994   -1    0    0    0    0 -0.00000000000E+00 -0.00000000000E+00  0.11368683772E-12  0.17120000000E+03  0.17120000000E+03 0.  0.
         13    1    1    2    0    0  0.13149352514E+02  0.96847206336E+01  0.55086430222E+02  0.57456289855E+02  0.10566000000E+00 0. -1.
        994    1    1    2    0    0  0.12883538075E+01 -0.38044845871E+01  0.25549339096E+01  0.17126617192E+03  0.17120000000E+03 0.  0.
        998    1    1    2    0    0 -0.14437706322E+02 -0.58802360465E+01  0.14423586321E+04  0.14424775382E+04  0.10000000000E+02 0. -1.
</event>
<event>
 5    1  0.1796476E-008  0.3831111E+03  0.7957747E-01  0.3437723E+00
         13   -1    0    0    0    0  0.00000000000E+00  0.00000000000E+00  0.14999999963E+04  0.15000000000E+04  0.10566000000E+00 0.  1.
        994   -1    0    0    0    0 -0.00000000000E+00 -0.00000000000E+00  0.11368683772E-12  0.17120000000E+03  0.17120000000E+03 0.  0.
         13    1    1    2    0    0 -0.30625200678E+02  0.22255027226E+02  0.22839649838E+03  0.23151276594E+03  0.10566000000E+00 0.  1.
        994    1    1    2    0    0  0.29868740426E+02 -0.31291596881E+02  0.87876467063E+01  0.17679923197E+03  0.17120000000E+03 0.  0.
        998    1    1    2    0    0  0.75646025151E+00  0.90365696551E+01  0.12628158512E+04  0.12628880021E+04  0.10000000000E+02 0.  0.
</event>
<event>
 5    1  0.1796476E-008  0.3841576E+03  0.7957747E-01  0.3433253E+00
         13   -1    0    0    0    0  0.00000000000E+00  0.00000000000E+00  0.14999999963E+04  0.15000000000E+04  0.10566000000E+00 0. -1.
        994   -1    0    0    0    0 -0.00000000000E+00 -0.00000000000E+00  0.11368683772E-12  0.17120000000E+03  0.17120000000E+03 0.  0.
         13    1    1    2    0    0  0.14586955733E+01  0.22291885980E+02  0.11409261842E+03  0.11625916185E+03  0.10566000000E+00 0. -1.
        994    1    1    2    0    0  0.11629260847E+02 -0.23232408023E+02  0.42779843747E+01  0.17321294883E+03  0.17120000000E+03 0.  0.
        998    1    1    2    0    0 -0.13087956420E+02  0.94052204302E+00  0.13816293935E+04  0.13817278893E+04  0.10000000000E+02 0. -1.
</event>
<event>
 5    1  0.1796476E-008  0.3843050E+03  0.7957747E-01  0.3432625E+00
         13   -1    0    0    0    0  0.00000000000E+00  0.00000000000E+00  0.14999999963E+04  0.15000000000E+04  0.10566000000E+00 0.  1.
        994   -1    0    0    0    0 -0.00000000000E+00 -0.00000000000E+00  0.11368683772E-12  0.17120000000E+03  0.17120000000E+03 0.  0.
         13    1    1    2    0    0  0.15298261698E+02 -0.12388561383E+02  0.98568348436E+02  0.10051489313E+03  0.10566000000E+00 0.  1.
        994    1    1    2    0    0 -0.12792222949E+02  0.22623027075E+01  0.25320093601E+01  0.17171083266E+03  0.17120000000E+03 0.  0.
        998    1    1    2    0    0 -0.25060387495E+01  0.10126258676E+02  0.13988996385E+04  0.13989742742E+04  0.10000000000E+02 0.  1.
</event>
<event>
 5    1  0.1796476E-008  0.3819244E+03  0.7957747E-01  0.3442822E+00
         13   -1    0    0    0    0  0.00000000000E+00  0.00000000000E+00  0.14999999963E+04  0.15000000000E+04  0.10566000000E+00 0. -1.
        994   -1    0    0    0    0 -0.00000000000E+00 -0.00000000000E+00  0.11368683772E-12  0.17120000000E+03  0.17120000000E+03 0.  0.
         13    1    1    2    0    0  0.25957799775E+02 -0.11865986639E+02  0.13904992541E+03  0.14194894127E+03  0.10566000000E+00 0. -1.
        994    1    1    2    0    0 -0.81574209355E+01 -0.60474626484E+01  0.35074790707E+01  0.17153675329E+03  0.17120000000E+03 0.  0.
        998    1    1    2    0    0 -0.17800378840E+02  0.17913449287E+02  0.13574425918E+04  0.13577143054E+04  0.10000000000E+02 0. -1.
</event>
<event>
 5    1  0.1796476E-008  0.3771622E+03  0.7957747E-01  0.3463609E+00
         13   -1    0    0    0    0  0.00000000000E+00  0.00000000000E+00  0.14999999963E+04  0.15000000000E+04  0.10566000000E+00 0. -1.
        994   -1    0    0    0    0 -0.00000000000E+00 -0.00000000000E+00  0.11368683772E-12  0.17120000000E+03  0.17120000000E+03 0.  0.
         13    1    1    2    0    0 -0.30822503887E+01  0.14676447516E+02  0.83008514935E+00  0.15019939565E+02  0.10566000000E+00 0. -1.
        994    1    1    2    0    0 -0.27831972717E+01 -0.15824749206E+02  0.15703510622E+02  0.17266791572E+03  0.17120000000E+03 0.  0.
        998    1    1    2    0    0  0.58654476604E+01  0.11483016896E+01  0.14834664005E+04  0.14835121447E+04  0.10000000000E+02 0. -1.
</event>
<event>
 5    1  0.1796476E-008  0.3799227E+03  0.7957747E-01  0.3451495E+00
         13   -1    0    0    0    0  0.00000000000E+00  0.00000000000E+00  0.14999999963E+04  0.15000000000E+04  0.10566000000E+00 0.  1.
        994   -1    0    0    0    0 -0.00000000000E+00 -0.00000000000E+00  0.11368683772E-12  0.17120000000E+03  0.17120000000E+03 0.  0.
         13    1    1    2    0    0 -0.32681387261E+02 -0.11202135125E+01  0.13732135400E+03  0.14116123186E+03  0.10566000000E+00 0.  1.
        994    1    1    2    0    0  0.59580468814E+01  0.14751112878E+02  0.50189047941E+01  0.17201082251E+03  0.17120000000E+03 0.  0.
        998    1    1    2    0    0  0.26723340380E+02 -0.13630899365E+02  0.13576597375E+04  0.13580279456E+04  0.10000000000E+02 0.  1.
</event>
<event>
 5    1  0.1796476E-008  0.3770190E+03  0.7957747E-01  0.3464242E+00
         13   -1    0    0    0    0  0.00000000000E+00  0.00000000000E+00  0.14999999963E+04  0.15000000000E+04  0.10566000000E+00 0. -1.
        994   -1    0    0    0    0 -0.00000000000E+00 -0.00000000000E+00  0.11368683772E-12  0.17120000000E+03  0.17120000000E+03 0.  0.
         13    1    1    2    0    0  0.96352687316E+02  0.86609678310E+02  0.77985431661E+03  0.79054275219E+03  0.10566000000E+00 0. -1.
        994    1    1    2    0    0 -0.76131723548E+02 -0.99790841723E+02  0.60832194685E+02  0.22082628316E+03  0.17120000000E+03 0.  0.
        998    1    1    2    0    0 -0.20220963768E+02  0.13181163413E+02  0.65931348498E+03  0.65983096466E+03  0.10000000000E+02 0. -1.
</event>
<event>
 5    1  0.1796476E-008  0.3747230E+03  0.7957747E-01  0.3474463E+00
         13   -1    0    0    0    0  0.00000000000E+00  0.00000000000E+00  0.14999999963E+04  0.15000000000E+04  0.10566000000E+00 0. -1.
        994   -1    0    0    0    0 -0.00000000000E+00 -0.00000000000E+00  0.11368683772E-12  0.17120000000E+03  0.17120000000E+03 0.  0.
         13    1    1    2    0    0  0.24325307442E+02  0.22627450145E+02  0.73207872527E+02  0.80393568438E+02  0.10566000000E+00 0. -1.
        994    1    1    2    0    0 -0.30407973514E+02 -0.25559726490E+02  0.12208770914E+02  0.17617161678E+03  0.17120000000E+03 0.  0.
        998    1    1    2    0    0  0.60826660718E+01  0.29322763448E+01  0.14145833528E+04  0.14146348148E+04  0.10000000000E+02 0. -1.
</event>
<event>
 5    1  0.1796476E-008  0.3822043E+03  0.7957747E-01  0.3441616E+00
         13   -1    0    0    0    0  0.00000000000E+00  0.00000000000E+00  0.14999999963E+04  0.15000000000E+04  0.10566000000E+00 0. -1.
        994   -1    0    0    0    0 -0.00000000000E+00 -0.00000000000E+00  0.11368683772E-12  0.17120000000E+03  0.17120000000E+03 0.  0.
         13    1    1    2    0    0  0.15032582082E+02 -0.31566909965E+01  0.39191791540E+02  0.42094547274E+02  0.10566000000E+00 0. -1.
        994    1    1    2    0    0 -0.52238877630E+01 -0.15198555342E+02  0.38822047063E+01  0.17199650171E+03  0.17120000000E+03 0.  0.
        998    1    1    2    0    0 -0.98086943192E+01  0.18355246338E+02  0.14569260000E+04  0.14571089510E+04  0.10000000000E+02 0. -1.
</event>
<event>
 5    1  0.1796476E-008  0.3836579E+03  0.7957747E-01  0.3435384E+00
         13   -1    0    0    0    0  0.00000000000E+00  0.00000000000E+00  0.14999999963E+04  0.15000000000E+04  0.10566000000E+00 0. -1.
        994   -1    0    0    0    0 -0.00000000000E+00 -0.00000000000E+00  0.11368683772E-12  0.17120000000E+03  0.17120000000E+03 0.  0.
         13    1    1    2    0    0 -0.19999839411E+02  0.10603940831E+02  0.10831007677E+03  0.11065044524E+03  0.10566000000E+00 0. -1.
        994    1    1    2    0    0  0.18424148425E+02 -0.26808179191E+01  0.34437088770E+01  0.17224382474E+03  0.17120000000E+03 0.  0.
        998    1    1    2    0    0  0.15756909851E+01 -0.79231229120E+01  0.13882462106E+04  0.13883057300E+04  0.10000000000E+02 0. -1.
</event>
<event>
 5    1  0.1796476E-008  0.3770829E+03  0.7957747E-01  0.3463959E+00
         13   -1    0    0    0    0  0.00000000000E+00  0.00000000000E+00  0.14999999963E+04  0.15000000000E+04  0.10566000000E+00 0.  1.
        994   -1    0    0    0    0 -0.00000000000E+00 -0.00000000000E+00  0.11368683772E-12  0.17120000000E+03  0.17120000000E+03 0.  0.
         13    1    1    2    0    0 -0.13533112951E+03 -0.25588870869E+02  0.82112053883E+03  0.83259128951E+03  0.10566000000E+00 0.  1.
        994    1    1    2    0    0  0.12715620596E+03  0.27431902463E+02  0.65046079448E+02  0.22463668988E+03  0.17120000000E+03 0.  0.
        998    1    1    2    0    0  0.81749235458E+01 -0.18430315939E+01  0.61383337801E+03  0.61397202061E+03  0.10000000000E+02 0.  0.
</event>
<event>
 5    1  0.1796476E-008  0.3858325E+03  0.7957747E-01  0.3426149E+00
         13   -1    0    0    0    0  0.00000000000E+00  0.00000000000E+00  0.14999999963E+04  0.15000000000E+04  0.10566000000E+00 0. -1.
        994   -1    0    0    0    0 -0.00000000000E+00 -0.00000000000E+00  0.11368683772E-12  0.17120000000E+03  0.17120000000E+03 0.  0.
         13    1    1    2    0    0  0.29333167567E+01 -0.13031499115E+02  0.77729515889E+02  0.78868961707E+02  0.10566000000E+00 0. -1.
        994    1    1    2    0    0  0.38769372361E+00  0.27540176302E+01  0.12427710158E+01  0.17122709890E+03  0.17120000000E+03 0.  0.
        998    1    1    2    0    0 -0.33210104803E+01  0.10277481485E+02  0.14210277094E+04  0.14211039394E+04  0.10000000000E+02 0. -1.
</event>
<event>
 5    1  0.1796476E-008  0.3769170E+03  0.7957747E-01  0.3464693E+00
         13   -1    0    0    0    0  0.00000000000E+00  0.00000000000E+00  0.14999999963E+04  0.15000000000E+04  0.10566000000E+00 0.  1.
        994   -1    0    0    0    0 -0.00000000000E+00 -0.00000000000E+00  0.11368683772E-12  0.17120000000E+03  0.17120000000E+03 0.  0.
         13    1    1    2    0    0  0.16461245802E+02 -0.10306354042E+02  0.30824261616E+02  0.36432675104E+02  0.10566000000E+00 0.  1.
        994    1    1    2    0    0 -0.56732120513E+01  0.14733964417E+02  0.65399008029E+01  0.17205082198E+03  0.17120000000E+03 0.  0.
        998    1    1    2    0    0 -0.10788033751E+02 -0.44276103751E+01  0.14626358339E+04  0.14627165029E+04  0.10000000000E+02 0.  1.
</event>
<event>
 5    1  0.1968524E-008  0.3855732E+03  0.7957747E-01  0.3427245E+00
         13   -1    0    0    0    0  0.00000000000E+00  0.00000000000E+00  0.14999999963E+04  0.15000000000E+04  0.10566000000E+00 0.  1.
        994   -1    0    0    0    0 -0.00000000000E+00 -0.00000000000E+00  0.11368683772E-12  0.17120000000E+03  0.17120000000E+03 0.  0.
         13    1    1    2    0    0 -0.10518911447E+02  0.38491798485E+00  0.41537346573E+02  0.42850414050E+02  0.10566000000E+00 0.  1.
        994    1    1    2    0    0  0.61637463534E+01 -0.24682708650E+01  0.14905654737E+01  0.17133518587E+03  0.17120000000E+03 0.  0.
        998    1    1    2    0    0  0.43551650937E+01  0.20833528802E+01  0.14569720842E+04  0.14570144001E+04  0.10000000000E+02 0.  1.
</event>
<event>
 5    1  0.1796476E-008  0.3840544E+03  0.7957747E-01  0.3433692E+00
         13   -1    0    0    0    0  0.00000000000E+00  0.00000000000E+00  0.14999999963E+04  0.15000000000E+04  0.10566000000E+00 0. -1.
        994   -1    0    0    0    0 -0.00000000000E+00 -0.00000000000E+00  0.11368683772E-12  0.17120000000E+03  0.17120000000E+03 0.  0.
         13    1    1    2    0    0  0.13601469628E+02  0.11063091514E+02  0.74371132421E+02  0.76409871558E+02  0.10566000000E+00 0. -1.
        994    1    1    2    0    0 -0.42031072290E+01 -0.70939402128E+01  0.23246449539E+01  0.17141421782E+03  0.17120000000E+03 0.  0.
        998    1    1    2    0    0 -0.93983623985E+01 -0.39691513017E+01  0.14233042189E+04  0.14233759106E+04  0.10000000000E+02 0. -1.
</event>
<event>
 5    1  0.1796476E-008  0.2842096E+03  0.7957747E-01  0.4015623E+00
         13   -1    0    0    0    0  0.00000000000E+00  0.00000000000E+00  0.14999999963E+04  0.15000000000E+04  0.10566000000E+00 0.  1.
        994   -1    0    0    0    0 -0.00000000000E+00 -0.00000000000E+00  0.11368683772E-12  0.17120000000E+03  0.17120000000E+03 0.  0.
         13    1    1    2    0    0  0.17947481981E+03 -0.85902993987E+02  0.46962447435E+03  0.51003695297E+03  0.10566000000E+00 0.  1.
        994    1    1    2    0    0 -0.18784793998E+03  0.83298430237E+02  0.20836279038E+03  0.33904272511E+03  0.17120000000E+03 0.  0.
        998    1    1    2    0    0  0.83731201673E+01  0.26045637507E+01  0.82201273154E+03  0.82212032192E+03  0.10000000000E+02 0.  0.
</event>
<event>
 5    1  0.1796476E-008  0.3786475E+03  0.7957747E-01  0.3457069E+00
         13   -1    0    0    0    0  0.00000000000E+00  0.00000000000E+00  0.14999999963E+04  0.15000000000E+04  0.10566000000E+00 0.  1.
        994   -1    0    0    0    0 -0.00000000000E+00 -0.00000000000E+00  0.11368683772E-12  0.17120000000E+03  0.17120000000E+03 0.  0.
         13    1    1    2    0    0  0.13133893308E+02 -0.39840767730E+02  0.16370810608E+03  0.16899745882E+03  0.10566000000E+00 0.  1.
        994    1    1    2    0    0 -0.16549607973E+02  0.37634980853E+02  0.10514341045E+02  0.17638104398E+03  0.17120000000E+03 0.  0.
        998    1    1    2    0    0  0.34157146645E+01  0.22057868768E+01  0.13257775492E+04  0.13258214972E+04  0.10000000000E+02 0.  1.
</event>
<event>
 5    1  0.1796476E-008  0.3761723E+03  0.7957747E-01  0.3467996E+00
         13   -1    0    0    0    0  0.00000000000E+00  0.00000000000E+00  0.14999999963E+04  0.15000000000E+04  0.10566000000E+00 0.  1.
        994   -1    0    0    0    0 -0.00000000000E+00 -0.00000000000E+00  0.11368683772E-12  0.17120000000E+03  0.17120000000E+03 0.  0.
         13    1    1    2    0    0 -0.76102225124E+02  0.29467152813E+02  0.46346547476E+03  0.47059549427E+03  0.10566000000E+00 0.  1.
        994    1    1    2    0    0  0.56415109412E+02 -0.28593864048E+02  0.19744527087E+02  0.18357439903E+03  0.17120000000E+03 0.  0.
        998    1    1    2    0    0  0.19687115712E+02 -0.87328876555E+00  0.10167899944E+04  0.10170301067E+04  0.10000000000E+02 0.  1.
</event>
<event>
 5    1  0.1796476E-008  0.3856835E+03  0.7957747E-01  0.3426779E+00
         13   -1    0    0    0    0  0.00000000000E+00  0.00000000000E+00  0.14999999963E+04  0.15000000000E+04  0.10566000000E+00 0. -1.
        994   -1    0    0    0    0 -0.00000000000E+00 -0.00000000000E+00  0.11368683772E-12  0.17120000000E+03  0.17120000000E+03 0.  0.
         13    1    1    2    0    0  0.40278707905E+01 -0.10236551198E+02  0.49435124796E+02  0.50644382227E+02  0.10566000000E+00 0. -1.
        994    1    1    2    0    0 -0.29715173114E+01 -0.12703446080E+01  0.13254480353E+01  0.17123562860E+03  0.17120000000E+03 0.  0.
        998    1    1    2    0    0 -0.10563534790E+01  0.11506895806E+02  0.14492394234E+04  0.14493199892E+04  0.10000000000E+02 0. -1.
</event>
<event>
 5    1  0.1796476E-008  0.3811617E+03  0.7957747E-01  0.3446116E+00
         13   -1    0    0    0    0  0.00000000000E+00  0.00000000000E+00  0.14999999963E+04  0.15000000000E+04  0.10566000000E+00 0. -1.
        994   -1    0    0    0    0 -0.00000000000E+00 -0.00000000000E+00  0.11368683772E-12  0.17120000000E+03  0.17120000000E+03 0.  0.
         13    1    1    2    0    0 -0.15920041326E+02 -0.71377208268E+01  0.42991268632E+02  0.46396714507E+02  0.10566000000E+00 0. -1.
        994    1    1    2    0    0  0.20553858412E+01  0.22279607443E+01  0.35784841474E+01  0.17126422268E+03  0.17120000000E+03 0.  0.
        998    1    1    2    0    0  0.13864655485E+02  0.49097600825E+01  0.14534302435E+04  0.14535390628E+04  0.10000000000E+02 0. -1.
</event>
<event>
 5    1  0.1796476E-008  0.3839809E+03  0.7957747E-01  0.3434006E+00
         13   -1    0    0    0    0  0.00000000000E+00  0.00000000000E+00  0.14999999963E+04  0.15000000000E+04  0.10566000000E+00 0. -1.
        994   -1    0    0    0    0 -0.00000000000E+00 -0.00000000000E+00  0.11368683772E-12  0.17120000000E+03  0.17120000000E+03 0.  0.
         13    1    1    2    0    0 -0.81385031071E+01 -0.69929560363E+01  0.22556188763E+02  0.24978580474E+02  0.10566000000E+00 0. -1.
        994    1    1    2    0    0  0.33664554455E+02  0.39404838374E+02  0.11050563832E+02  0.17921383450E+03  0.17120000000E+03 0.  0.
        998    1    1    2    0    0 -0.25526051348E+02 -0.32411882338E+02  0.14663932437E+04  0.14670075850E+04  0.10000000000E+02 0. -1.
</event>
<event>
 5    1  0.1796476E-008  0.3844794E+03  0.7957747E-01  0.3431883E+00
         13   -1    0    0    0    0  0.00000000000E+00  0.00000000000E+00  0.14999999963E+04  0.15000000000E+04  0.10566000000E+00 0.  1.
        994   -1    0    0    0    0 -0.00000000000E+00 -0.00000000000E+00  0.11368683772E-12  0.17120000000E+03  0.17120000000E+03 0.  0.
         13    1    1    2    0    0 -0.47883511082E+01  0.94545805714E+01  0.29164470972E+02  0.31030548356E+02  0.10566000000E+00 0.  1.
        994    1    1    2    0    0  0.23342213668E+01 -0.81647165630E+01  0.21263979700E+01  0.17142366451E+03  0.17120000000E+03 0.  0.
        998    1    1    2    0    0  0.24541297414E+01 -0.12898640084E+01  0.14687091273E+04  0.14687457871E+04  0.10000000000E+02 0.  1.
</event>
<event>
 5    1  0.1796476E-008  0.3711300E+03  0.7957747E-01  0.3490714E+00
         13   -1    0    0    0    0  0.00000000000E+00  0.00000000000E+00  0.14999999963E+04  0.15000000000E+04  0.10566000000E+00 0. -1.
        994   -1    0    0    0    0 -0.00000000000E+00 -0.00000000000E+00  0.11368683772E-12  0.17120000000E+03  0.17120000000E+03 0.  0.
         13    1    1    2    0    0  0.21769455729E+01 -0.34410975283E+02  0.61876136515E+02  0.70834467218E+02  0.10566000000E+00 0. -1.
        994    1    1    2    0    0  0.14404730457E+02  0.40036940342E+02  0.14941076735E+02  0.17703990687E+03  0.17120000000E+03 0.  0.
        998    1    1    2    0    0 -0.16581676030E+02 -0.56259650586E+01  0.14231827830E+04  0.14233256259E+04  0.10000000000E+02 0. -1.
</event>
<event>
 5    1  0.1796476E-008  0.3768996E+03  0.7957747E-01  0.3464770E+00
         13   -1    0    0    0    0  0.00000000000E+00  0.00000000000E+00  0.14999999963E+04  0.15000000000E+04  0.10566000000E+00 0. -1.
        994   -1    0    0    0    0 -0.00000000000E+00 -0.00000000000E+00  0.11368683772E-12  0.17120000000E+03  0.17120000000E+03 0.  0.
         13    1    1    2    0    0 -0.75571530618E+01 -0.52599621692E+02  0.30378582262E+03  0.30839855375E+03  0.10566000000E+00 0. -1.
        994    1    1    2    0    0 -0.75770708751E+01  0.64404855477E+01  0.60405505950E+01  0.17159493031E+03  0.17120000000E+03 0.  0.
        998    1    1    2    0    0  0.15134223937E+02  0.46159136145E+02  0.11901736231E+04  0.11912065159E+04  0.10000000000E+02 0. -1.
</event>
<event>
 5    1  0.1796476E-008  0.3779316E+03  0.7957747E-01  0.3460215E+00
         13   -1    0    0    0    0  0.00000000000E+00  0.00000000000E+00  0.14999999963E+04  0.15000000000E+04  0.10566000000E+00 0. -1.
        994   -1    0    0    0    0 -0.00000000000E+00 -0.00000000000E+00  0.11368683772E-12  0.17120000000E+03  0.17120000000E+03 0.  0.
         13    1    1    2    0    0 -0.10998990911E+02  0.19793328265E+02  0.45137630934E+02  0.50499213214E+02  0.10566000000E+00 0. -1.
        994    1    1    2    0    0  0.92293284941E+01 -0.29288072390E+02  0.83614559151E+01  0.17413306875E+03  0.17120000000E+03 0.  0.
        998    1    1    2    0    0  0.17696624166E+01  0.94947441253E+01  0.14465009094E+04  0.14465677180E+04  0.10000000000E+02 0. -1.
</event>
<event>
 5    1  0.1796476E-008  0.3836093E+03  0.7957747E-01  0.3435592E+00
         13   -1    0    0    0    0  0.00000000000E+00  0.00000000000E+00  0.14999999963E+04  0.15000000000E+04  0.10566000000E+00 0.  1.
        994   -1    0    0    0    0 -0.00000000000E+00 -0.00000000000E+00  0.11368683772E-12  0.17120000000E+03  0.17120000000E+03 0.  0.
         13    1    1    2    0    0  0.86565757277E+01 -0.19524773021E+02  0.92380188761E+02  0.94817000082E+02  0.10566000000E+00 0.  1.
        994    1    1    2    0    0 -0.12233232669E+02  0.18824321629E+02  0.39889399124E+01  0.17271177930E+03  0.17120000000E+03 0.  0.
        998    1    1    2    0    0  0.35766569413E+01  0.70045139186E+00  0.14036308676E+04  0.14036712206E+04  0.10000000000E+02 0.  1.
</event>
<event>
 5    1  0.1796476E-008  0.3792064E+03  0.7957747E-01  0.3454621E+00
         13   -1    0    0    0    0  0.00000000000E+00  0.00000000000E+00  0.14999999963E+04  0.15000000000E+04  0.10566000000E+00 0. -1.
        994   -1    0    0    0    0 -0.00000000000E+00 -0.00000000000E+00  0.11368683772E-12  0.17120000000E+03  0.17120000000E+03 0.  0.
         13    1    1    2    0    0 -0.30282771869E+02 -0.42366800701E+01  0.95074482987E+02  0.99870737503E+02  0.10566000000E+00 0. -1.
        994    1    1    2    0    0  0.31334623609E+02  0.91954335032E+01  0.81168523280E+01  0.17447560840E+03  0.17120000000E+03 0.  0.
        998    1    1    2    0    0 -0.10518517394E+01 -0.49587534331E+01  0.13968086610E+04  0.13968536541E+04  0.10000000000E+02 0. -1.
</event>
<event>
 5    1  0.1796476E-008  0.3798868E+03  0.7957747E-01  0.3451652E+00
         13   -1    0    0    0    0  0.00000000000E+00  0.00000000000E+00  0.14999999963E+04  0.15000000000E+04  0.10566000000E+00 0. -1.
        994   -1    0    0    0    0 -0.00000000000E+00 -0.00000000000E+00  0.11368683772E-12  0.17120000000E+03  0.17120000000E+03 0.  0.
         13    1    1    2    0    0 -0.10289900917E+02 -0.18516026301E+02  0.53899060317E+02  0.57912392093E+02  0.10566000000E+00 0. -1.
        994    1    1    2    0    0  0.80934998970E+01  0.55299914907E+00  0.44104148906E+01  0.17144883292E+03  0.17120000000E+03 0.  0.
        998    1    1    2    0    0  0.21964010198E+01  0.17963027152E+02  0.14416905211E+04  0.14418387750E+04  0.10000000000E+02 0. -1.
</event>
<event>
 5    1  0.1796476E-008  0.3689604E+03  0.7957747E-01  0.3500682E+00
         13   -1    0    0    0    0  0.00000000000E+00  0.00000000000E+00  0.14999999963E+04  0.15000000000E+04  0.10566000000E+00 0. -1.
        994   -1    0    0    0    0 -0.00000000000E+00 -0.00000000000E+00  0.11368683772E-12  0.17120000000E+03  0.17120000000E+03 0.  0.
         13    1    1    2    0    0  0.31171126954E+01  0.12879637075E+03  0.72558304023E+03  0.73693214135E+03  0.10566000000E+00 0. -1.
        994    1    1    2    0    0  0.38718142811E+02 -0.90532155803E+02  0.44967915334E+02  0.20255053499E+03  0.17120000000E+03 0.  0.
        998    1    1    2    0    0 -0.41835255507E+02 -0.38264214949E+02  0.72944904071E+03  0.73171732366E+03  0.10000000000E+02 0. -1.
</event>
<event>
 5    1  0.1796476E-008  0.3754778E+03  0.7957747E-01  0.3471089E+00
         13   -1    0    0    0    0  0.00000000000E+00  0.00000000000E+00  0.14999999963E+04  0.15000000000E+04  0.10566000000E+00 0.  1.
        994   -1    0    0    0    0 -0.00000000000E+00 -0.00000000000E+00  0.11368683772E-12  0.17120000000E+03  0.17120000000E+03 0.  0.
         13    1    1    2    0    0 -0.21944160806E+01 -0.21818925165E+02  0.35844993777E+02  0.42020895995E+02  0.10566000000E+00 0.  1.
        994    1    1    2    0    0 -0.19192391230E+01  0.43557973269E+01  0.65104607015E+01  0.17138985544E+03  0.17120000000E+03 0.  0.
        998    1    1    2    0    0  0.41136552036E+01  0.17463127838E+02  0.14576445418E+04  0.14577892486E+04  0.10000000000E+02 0.  1.
</event>
<event>
 5    1  0.1796476E-008  0.3904753E+03  0.7957747E-01  0.3406778E+00
         13   -1    0    0    0    0  0.00000000000E+00  0.00000000000E+00  0.14999999963E+04  0.15000000000E+04  0.10566000000E+00 0. -1.
        994   -1    0    0    0    0 -0.00000000000E+00 -0.00000000000E+00  0.11368683772E-12  0.17120000000E+03  0.17120000000E+03 0.  0.
         13    1    1    2    0    0 -0.55869507876E+01 -0.29994974918E+02  0.11571830634E+02  0.32631747849E+02  0.10566000000E+00 0. -1.
        994    1    1    2    0    0 -0.18442512788E+02  0.31718586270E+02  0.27295016978E+02  0.17720229385E+03  0.17120000000E+03 0.  0.
        998    1    1    2    0    0  0.24029463576E+02 -0.17236113522E+01  0.14611331487E+04  0.14613659583E+04  0.10000000000E+02 0. -1.
</event>
<event>
 5    1  0.1796476E-008  0.3843781E+03  0.7957747E-01  0.3432314E+00
         13   -1    0    0    0    0  0.00000000000E+00  0.00000000000E+00  0.14999999963E+04  0.15000000000E+04  0.10566000000E+00 0.  1.
        994   -1    0    0    0    0 -0.00000000000E+00 -0.00000000000E+00  0.11368683772E-12  0.17120000000E+03  0.17120000000E+03 0.  0.
         13    1    1    2    0    0 -0.15765123274E+02 -0.98271757137E-01  0.68461966933E+02  0.70253831565E+02  0.10566000000E+00 0.  1.
        994    1    1    2    0    0 -0.12917860292E+01 -0.22742747822E+01  0.19617718579E+01  0.17123121674E+03  0.17120000000E+03 0.  0.
        998    1    1    2    0    0  0.17056909303E+02  0.23725465393E+01  0.14295762575E+04  0.14297149517E+04  0.10000000000E+02 0.  1.
</event>
<event>
 5    1  0.1796476E-008  0.3721806E+03  0.7957747E-01  0.3485929E+00
         13   -1    0    0    0    0  0.00000000000E+00  0.00000000000E+00  0.14999999963E+04  0.15000000000E+04  0.10566000000E+00 0.  1.
        994   -1    0    0    0    0 -0.00000000000E+00 -0.00000000000E+00  0.11368683772E-12  0.17120000000E+03  0.17120000000E+03 0.  0.
         13    1    1    2    0    0 -0.19474018781E+02 -0.22355389010E+02  0.49553116314E+02  0.57745331636E+02  0.10566000000E+00 0.  1.
        994    1    1    2    0    0  0.18099920912E+02  0.22074103496E+02  0.10935348336E+02  0.17390771986E+03  0.17120000000E+03 0.  0.
        998    1    1    2    0    0  0.13740978694E+01  0.28128551376E+00  0.14395115316E+04  0.14395469485E+04  0.10000000000E+02 0.  1.
</event>
<event>
 5    1  0.1796476E-008  0.3802956E+03  0.7957747E-01  0.3449872E+00
         13   -1    0    0    0    0  0.00000000000E+00  0.00000000000E+00  0.14999999963E+04  0.15000000000E+04  0.10566000000E+00 0. -1.
        994   -1    0    0    0    0 -0.00000000000E+00 -0.00000000000E+00  0.11368683772E-12  0.17120000000E+03  0.17120000000E+03 0.  0.
         13    1    1    2    0    0  0.52589473098E+02  0.69900547551E+01  0.31593801016E+03  0.32036128195E+03  0.10566000000E+00 0. -1.
        994    1    1    2    0    0 -0.44874315803E+02  0.16158199550E+02  0.11618697247E+02  0.17809892127E+03  0.17120000000E+03 0.  0.
        998    1    1    2    0    0 -0.77151572947E+01 -0.23148254305E+02  0.11724432889E+04  0.11727397968E+04  0.10000000000E+02 0. -1.
</event>
<event>
 5    1  0.1796476E-008  0.3839152E+03  0.7957747E-01  0.3434286E+00
         13   -1    0    0    0    0  0.00000000000E+00  0.00000000000E+00  0.14999999963E+04  0.15000000000E+04  0.10566000000E+00 0.  1.
        994   -1    0    0    0    0 -0.00000000000E+00 -0.00000000000E+00  0.11368683772E-12  0.17120000000E+03  0.17120000000E+03 0.  0.
         13    1    1    2    0    0  0.12181634870E+02 -0.85313891160E+01  0.51751681762E+02  0.53846304957E+02  0.10566000000E+00 0.  1.
        994    1    1    2    0    0 -0.95112950495E+01 -0.49964579365E+01  0.25507099740E+01  0.17155575026E+03  0.17120000000E+03 0.  0.
        998    1    1    2    0    0 -0.26703398206E+01  0.13527847052E+02  0.14456976045E+04  0.14457979448E+04  0.10000000000E+02 0.  1.
</event>
<event>
 5    1  0.1796476E-008  0.3857308E+03  0.7957747E-01  0.3426579E+00
         13   -1    0    0    0    0  0.00000000000E+00  0.00000000000E+00  0.14999999963E+04  0.15000000000E+04  0.10566000000E+00 0.  1.
        994   -1    0    0    0    0 -0.00000000000E+00 -0.00000000000E+00  0.11368683772E-12  0.17120000000E+03  0.17120000000E+03 0.  0.
         13    1    1    2    0    0 -0.89750213657E+01  0.82562196447E+01  0.57008171096E+02  0.58298018037E+02  0.10566000000E+00 0.  1.
        994    1    1    2    0    0  0.14742169795E+02 -0.41508733060E+01  0.20376941591E+01  0.17189576352E+03  0.17120000000E+03 0.  0.
        998    1    1    2    0    0 -0.57671484290E+01 -0.41053463387E+01  0.14409541310E+04  0.14410062184E+04  0.10000000000E+02 0.  1.
</event>
<event>
 5    1  0.1796476E-008  0.3809397E+03  0.7957747E-01  0.3447077E+00
         13   -1    0    0    0    0  0.00000000000E+00  0.00000000000E+00  0.14999999963E+04  0.15000000000E+04  0.10566000000E+00 0. -1.
        994   -1    0    0    0    0 -0.00000000000E+00 -0.00000000000E+00  0.11368683772E-12  0.17120000000E+03  0.17120000000E+03 0.  0.
         13    1    1    2    0    0  0.14071013651E+01 -0.16400326655E+02  0.35006040608E+02  0.38683131876E+02  0.10566000000E+00 0. -1.
        994    1    1    2    0    0 -0.12117509106E+02  0.15340117201E+02  0.49341154913E+01  0.17238311611E+03  0.17120000000E+03 0.  0.
        998    1    1    2    0    0  0.10710407741E+02  0.10602094547E+01  0.14600598402E+04  0.14601337520E+04  0.10000000000E+02 0. -1.
</event>
<event>
 5    1  0.1796476E-008  0.3843782E+03  0.7957747E-01  0.3432314E+00
         13   -1    0    0    0    0  0.00000000000E+00  0.00000000000E+00  0.14999999963E+04  0.15000000000E+04  0.10566000000E+00 0. -1.
        994   -1    0    0    0    0 -0.00000000000E+00 -0.00000000000E+00  0.11368683772E-12  0.17120000000E+03  0.17120000000E+03 0.  0.
         13    1    1    2    0    0 -0.27433105537E+01  0.18937166875E+02  0.99764372573E+02  0.10158288852E+03  0.10566000000E+00 0. -1.
        994    1    1    2    0    0  0.27313508057E+02 -0.13704329658E+01  0.44076399883E+01  0.17342656400E+03  0.17120000000E+03 0.  0.
        998    1    1    2    0    0 -0.24570197503E+02 -0.17566733909E+02  0.13958279837E+04  0.13961905475E+04  0.10000000000E+02 0. -1.
</event>
<event>
 5    1  0.1796476E-008  0.3744092E+03  0.7957747E-01  0.3475869E+00
         13   -1    0    0    0    0  0.00000000000E+00  0.00000000000E+00  0.14999999963E+04  0.15000000000E+04  0.10566000000E+00 0.  1.
        994   -1    0    0    0    0 -0.00000000000E+00 -0.00000000000E+00  0.11368683772E-12  0.17120000000E+03  0.17120000000E+03 0.  0.
         13    1    1    2    0    0 -0.59984389965E+02 -0.35669752307E+02  0.27367923393E+03  0.28243723643E+03  0.10566000000E+00 0.  1.
        994    1    1    2    0    0  0.63409343100E+02  0.39428771590E+02  0.26216099469E+02  0.18860566453E+03  0.17120000000E+03 0.  0.
        998    1    1    2    0    0 -0.34249531350E+01 -0.37590192834E+01  0.12001046629E+04  0.12001570990E+04  0.10000000000E+02 0. -1.
</event>
<event>
 5    1  0.1796476E-008  0.3848236E+03  0.7957747E-01  0.3430421E+00
         13   -1    0    0    0    0  0.00000000000E+00  0.00000000000E+00  0.14999999963E+04  0.15000000000E+04  0.10566000000E+00 0.  1.
        994   -1    0    0    0    0 -0.00000000000E+00 -0.00000000000E+00  0.11368683772E-12  0.17120000000E+03  0.17120000000E+03 0.  0.
         13    1    1    2    0    0 -0.11192068669E+02  0.72715274803E+01  0.50012678309E+02  0.51763082102E+02  0.10566000000E+00 0.  1.
        994    1    1    2    0    0  0.10632161162E+02 -0.11365830534E+02  0.25152179464E+01  0.17192437662E+03  0.17120000000E+03 0.  0.
        998    1    1    2    0    0  0.55990750712E+00  0.40943030539E+01  0.14474721000E+04  0.14475125413E+04  0.10000000000E+02 0.  1.
</event>
<event>
 5    1  0.1796476E-008  0.3858227E+03  0.7957747E-01  0.3426191E+00
         13   -1    0    0    0    0  0.00000000000E+00  0.00000000000E+00  0.14999999963E+04  0.15000000000E+04  0.10566000000E+00 0. -1.
        994   -1    0    0    0    0 -0.00000000000E+00 -0.00000000000E+00  0.11368683772E-12  0.17120000000E+03  0.17120000000E+03 0.  0.
         13    1    1    2    0    0 -0.10708706174E+02  0.71512188816E+01  0.65794747207E+02  0.67043092436E+02  0.10566000000E+00 0. -1.
        994    1    1    2    0    0  0.95350772029E+01 -0.10953552107E+02  0.19142779846E+01  0.17182550003E+03  0.17120000000E+03 0.  0.
        998    1    1    2    0    0  0.11736289712E+01  0.38023332257E+01  0.14322909711E+04  0.14323314075E+04  0.10000000000E+02 0. -1.
</event>
<event>
 5    1  0.1796476E-008  0.3838179E+03  0.7957747E-01  0.3434701E+00
         13   -1    0    0    0    0  0.00000000000E+00  0.00000000000E+00  0.14999999963E+04  0.15000000000E+04  0.10566000000E+00 0.  1.
        994   -1    0    0    0    0 -0.00000000000E+00 -0.00000000000E+00  0.11368683772E-12  0.17120000000E+03  0.17120000000E+03 0.  0.
         13    1    1    2    0    0 -0.86184085605E+01 -0.12693508226E+02  0.53855492256E+02  0.55998458259E+02  0.10566000000E+00 0.  1.
        994    1    1    2    0    0  0.40994325688E+01  0.35342776538E+01  0.23148970317E+01  0.17130118276E+03  0.17120000000E+03 0.  0.
        998    1    1    2    0    0  0.45189759916E+01  0.91592305726E+01  0.14438296070E+04  0.14439003590E+04  0.10000000000E+02 0.  1.
</event>
<event>
 5    1  0.1796476E-008  0.3833730E+03  0.7957747E-01  0.3436602E+00
         13   -1    0    0    0    0  0.00000000000E+00  0.00000000000E+00  0.14999999963E+04  0.15000000000E+04  0.10566000000E+00 0. -1.
        994   -1    0    0    0    0 -0.00000000000E+00 -0.00000000000E+00  0.11368683772E-12  0.17120000000E+03  0.17120000000E+03 0.  0.
         13    1    1    2    0    0 -0.29468474886E+02 -0.10485957947E+02  0.15060417944E+03  0.15381799750E+03  0.10566000000E+00 0. -1.
        994    1    1    2    0    0  0.58642881731E+02  0.19238398815E+01  0.13906301368E+02  0.18150899139E+03  0.17120000000E+03 0.  0.
        998    1    1    2    0    0 -0.29174406845E+02  0.85621180657E+01  0.13354895155E+04  0.13358730111E+04  0.10000000000E+02 0. -1.
</event>
<event>
 5    1  0.1796476E-008  0.3827886E+03  0.7957747E-01  0.3439105E+00
         13   -1    0    0    0    0  0.00000000000E+00  0.00000000000E+00  0.14999999963E+04  0.15000000000E+04  0.10566000000E+00 0.  1.
        994   -1    0    0    0    0 -0.00000000000E+00 -0.00000000000E+00  0.11368683772E-12  0.17120000000E+03  0.17120000000E+03 0.  0.
         13    1    1    2    0    0  0.11712528899E+02  0.64741111764E+01  0.33696414510E+02  0.36256819546E+02  0.10566000000E+00 0.  1.
        994    1    1    2    0    0  0.41603668606E+01  0.47694857983E+01  0.28647296298E+01  0.17134089799E+03  0.17120000000E+03 0.  0.
        998    1    1    2    0    0 -0.15872895759E+02 -0.11243596975E+02  0.14634388521E+04  0.14636022825E+04  0.10000000000E+02 0.  1.
</event>
<event>
 5    1  0.1796476E-008  0.3770619E+03  0.7957747E-01  0.3464052E+00
         13   -1    0    0    0    0  0.00000000000E+00  0.00000000000E+00  0.14999999963E+04  0.15000000000E+04  0.10566000000E+00 0. -1.
        994   -1    0    0    0    0 -0.00000000000E+00 -0.00000000000E+00  0.11368683772E-12  0.17120000000E+03  0.17120000000E+03 0.  0.
         13    1    1    2    0    0 -0.39540699960E+02  0.42242611976E+01  0.12775178303E+03  0.13379775995E+03  0.10566000000E+00 0. -1.
        994    1    1    2    0    0  0.38571414744E+02 -0.14923603442E+02  0.11419641199E+02  0.17649452167E+03  0.17120000000E+03 0.  0.
        998    1    1    2    0    0  0.96928521551E+00  0.10699342245E+02  0.13608285720E+04  0.13609077184E+04  0.10000000000E+02 0. -1.
</event>
<event>
 5    1  0.1796476E-008  0.3725432E+03  0.7957747E-01  0.3484284E+00
         13   -1    0    0    0    0  0.00000000000E+00  0.00000000000E+00  0.14999999963E+04  0.15000000000E+04  0.10566000000E+00 0. -1.
        994   -1    0    0    0    0 -0.00000000000E+00 -0.00000000000E+00  0.11368683772E-12  0.17120000000E+03  0.17120000000E+03 0.  0.
         13    1    1    2    0    0  0.12321033277E+02  0.12787436979E+02  0.72885526686E+01  0.19195326763E+02  0.10566000000E+00 0. -1.
        994    1    1    2    0    0 -0.99091850431E+01 -0.12622515267E+02  0.13198820450E+02  0.17245628055E+03  0.17120000000E+03 0.  0.
        998    1    1    2    0    0 -0.24118482344E+01 -0.16492171143E+00  0.14795126232E+04  0.14795483927E+04  0.10000000000E+02 0. -1.
</event>
<event>
 5    1  0.1796476E-008  0.3713326E+03  0.7957747E-01  0.3489789E+00
         13   -1    0    0    0    0  0.00000000000E+00  0.00000000000E+00  0.14999999963E+04  0.15000000000E+04  0.10566000000E+00 0. -1.
        994   -1    0    0    0    0 -0.00000000000E+00 -0.00000000000E+00  0.11368683772E-12  0.17120000000E+03  0.17120000000E+03 0.  0.
         13    1    1    2    0    0  0.21421468081E+02  0.23499700950E+02  0.38800675484E+02  0.50165912945E+02  0.10566000000E+00 0. -1.
        994    1    1    2    0    0 -0.10537918712E+02 -0.20664670333E+02  0.13537359308E+02  0.17329390188E+03  0.17120000000E+03 0.  0.
        998    1    1    2    0    0 -0.10883549369E+02 -0.28350306165E+01  0.14476619615E+04  0.14477401852E+04  0.10000000000E+02 0. -1.
</event>
<event>
 5    1  0.1796476E-008  0.3799349E+03  0.7957747E-01  0.3451442E+00
         13   -1    0    0    0    0  0.00000000000E+00  0.00000000000E+00  0.14999999963E+04  0.15000000000E+04  0.10566000000E+00 0. -1.
        994   -1    0    0    0    0 -0.00000000000E+00 -0.00000000000E+00  0.11368683772E-12  0.17120000000E+03  0.17120000000E+03 0.  0.
         13    1    1    2    0    0  0.17277812183E+02 -0.66215470859E+00  0.35679585064E+02  0.39648520743E+02  0.10566000000E+00 0. -1.
        994    1    1    2    0    0  0.97860285924E+00  0.39801835048E+01  0.42221716216E+01  0.17130109824E+03  0.17120000000E+03 0.  0.
        998    1    1    2    0    0 -0.18256415042E+02 -0.33180287962E+01  0.14600982396E+04  0.14602503810E+04  0.10000000000E+02 0. -1.
</event>
<event>
 5    1  0.1796476E-008  0.3806117E+03  0.7957747E-01  0.3448499E+00
         13   -1    0    0    0    0  0.00000000000E+00  0.00000000000E+00  0.14999999963E+04  0.15000000000E+04  0.10566000000E+00 0. -1.
        994   -1    0    0    0    0 -0.00000000000E+00 -0.00000000000E+00  0.11368683772E-12  0.17120000000E+03  0.17120000000E+03 0.  0.
         13    1    1    2    0    0 -0.69139899349E+01 -0.11462489885E+02  0.21631095725E+02  0.25438305712E+02  0.10566000000E+00 0. -1.
        994    1    1    2    0    0  0.51405169942E+01  0.12261934429E+02  0.44146718521E+01  0.17177225992E+03  0.17120000000E+03 0.  0.
        998    1    1    2    0    0  0.17734729407E+01 -0.79944454417E+00  0.14739542287E+04  0.14739894344E+04  0.10000000000E+02 0. -1.
</event>
<event>
 5    1  0.1796476E-008  0.3765427E+03  0.7957747E-01  0.3466352E+00
         13   -1    0    0    0    0  0.00000000000E+00  0.00000000000E+00  0.14999999963E+04  0.15000000000E+04  0.10566000000E+00 0.  1.
        994   -1    0    0    0    0 -0.00000000000E+00 -0.00000000000E+00  0.11368683772E-12  0.17120000000E+03  0.17120000000E+03 0.  0.
         13    1    1    2    0    0 -0.23497577598E+02  0.36757558883E+02  0.15101676266E+03  0.15719201015E+03  0.10566000000E+00 0.  1.
        994    1    1    2    0    0  0.49708167989E+02 -0.12045666732E+02  0.14786644568E+02  0.17928771544E+03  0.17120000000E+03 0.  0.
        998    1    1    2    0    0 -0.26210590392E+02 -0.24711892152E+02  0.13341965891E+04  0.13347202744E+04  0.10000000000E+02 0.  1.
</event>
<event>
 5    1  0.1796476E-008  0.3843270E+03  0.7957747E-01  0.3432532E+00
         13   -1    0    0    0    0  0.00000000000E+00  0.00000000000E+00  0.14999999963E+04  0.15000000000E+04  0.10566000000E+00 0.  1.
        994   -1    0    0    0    0 -0.00000000000E+00 -0.00000000000E+00  0.11368683772E-12  0.17120000000E+03  0.17120000000E+03 0.  0.
         13    1    1    2    0    0 -0.22080317342E+02  0.14647848475E+03  0.47963655649E+03  0.50199076127E+03  0.10566000000E+00 0.  1.
        994    1    1    2    0    0  0.41054705862E+01 -0.11669537345E+03  0.70850445402E+02  0.21900659964E+03  0.17120000000E+03 0.  0.
        998    1    1    2    0    0  0.17974846756E+02 -0.29783111304E+02  0.94951299438E+03  0.95020263909E+03  0.10000000000E+02 0.  1.
</event>
<event>
 5    1  0.1796476E-008  0.3755264E+03  0.7957747E-01  0.3470872E+00
         13   -1    0    0    0    0  0.00000000000E+00  0.00000000000E+00  0.14999999963E+04  0.15000000000E+04  0.10566000000E+00 0. -1.
        994   -1    0    0    0    0 -0.00000000000E+00 -0.00000000000E+00  0.11368683772E-12  0.17120000000E+03  0.17120000000E+03 0.  0.
         13    1    1    2    0    0  0.10016075856E+02 -0.77994225672E+02  0.37856837986E+03  0.38664900156E+03  0.10566000000E+00 0. -1.
        994    1    1    2    0    0 -0.29620674448E+01  0.72883894448E+02  0.24682693776E+02  0.18772189879E+03  0.17120000000E+03 0.  0.
        998    1    1    2    0    0 -0.70540084110E+01  0.51103312232E+01  0.10967489226E+04  0.10968290996E+04  0.10000000000E+02 0.  0.
</event>
<event>
 5    1  0.1796476E-008  0.3756378E+03  0.7957747E-01  0.3470375E+00
         13   -1    0    0    0    0  0.00000000000E+00  0.00000000000E+00  0.14999999963E+04  0.15000000000E+04  0.10566000000E+00 0.  1.
        994   -1    0    0    0    0 -0.00000000000E+00 -0.00000000000E+00  0.11368683772E-12  0.17120000000E+03  0.17120000000E+03 0.  0.
         13    1    1    2    0    0 -0.25485359877E+02 -0.19300481307E+02  0.76419265848E+02  0.82836752130E+02  0.10566000000E+00 0.  1.
        994    1    1    2    0    0  0.14490069662E+02  0.23702431833E+02  0.89737494821E+01  0.17367134356E+03  0.17120000000E+03 0.  0.
        998    1    1    2    0    0  0.10995290215E+02 -0.44019505262E+01  0.14146069809E+04  0.14146919043E+04  0.10000000000E+02 0.  1.
</event>
<event>
 5    1  0.1796476E-008  0.3853157E+03  0.7957747E-01  0.3428335E+00
         13   -1    0    0    0    0  0.00000000000E+00  0.00000000000E+00  0.14999999963E+04  0.15000000000E+04  0.10566000000E+00 0. -1.
        994   -1    0    0    0    0 -0.00000000000E+00 -0.00000000000E+00  0.11368683772E-12  0.17120000000E+03  0.17120000000E+03 0.  0.
         13    1    1    2    0    0 -0.21884959165E+01 -0.13666518666E+02  0.71844882215E+02  0.73165986028E+02  0.10566000000E+00 0. -1.
        994    1    1    2    0    0 -0.53185124029E+01 -0.36681323271E+01  0.16106511058E+01  0.17132943695E+03  0.17120000000E+03 0.  0.
        998    1    1    2    0    0  0.75070083194E+01  0.17334650993E+02  0.14265444630E+04  0.14267045770E+04  0.10000000000E+02 0. -1.
</event>
<event>
 5    1  0.1796476E-008  0.3823009E+03  0.7957747E-01  0.3441201E+00
         13   -1    0    0    0    0  0.00000000000E+00  0.00000000000E+00  0.14999999963E+04  0.15000000000E+04  0.10566000000E+00 0. -1.
        994   -1    0    0    0    0 -0.00000000000E+00 -0.00000000000E+00  0.11368683772E-12  0.17120000000E+03  0.17120000000E+03 0.  0.
         13    1    1    2    0    0 -0.44140797849E+01 -0.15272107603E+02  0.40467059101E+02  0.43477757616E+02  0.10566000000E+00 0. -1.
        994    1    1    2    0    0  0.57370467526E+01  0.15737382069E+02  0.39075925430E+01  0.17206187311E+03  0.17120000000E+03 0.  0.
        998    1    1    2    0    0 -0.13229669676E+01 -0.46527446609E+00  0.14556253446E+04  0.14556603693E+04  0.10000000000E+02 0. -1.
</event>
<event>
 5    1  0.2617896E-008  0.3860193E+03  0.7957747E-01  0.3425361E+00
         13   -1    0    0    0    0  0.00000000000E+00  0.00000000000E+00  0.14999999963E+04  0.15000000000E+04  0.10566000000E+00 0. -1.
        994   -1    0    0    0    0 -0.00000000000E+00 -0.00000000000E+00  0.11368683772E-12  0.17120000000E+03  0.17120000000E+03 0.  0.
         13    1    1    2    0    0 -0.11134333074E+02 -0.59963699633E+00  0.59849811659E+02  0.60879750798E+02  0.10566000000E+00 0. -1.
        994    1    1    2    0    0 -0.16046495677E+01 -0.20402245508E+01  0.11470046777E+01  0.17122351777E+03  0.17120000000E+03 0.  0.
        998    1    1    2    0    0  0.12738982642E+02  0.26398615471E+01  0.14390031799E+04  0.14390967314E+04  0.10000000000E+02 0. -1.
</event>
<event>
 5    1  0.1796476E-008  0.3687851E+03  0.7957747E-01  0.3501493E+00
         13   -1    0    0    0    0  0.00000000000E+00  0.00000000000E+00  0.14999999963E+04  0.15000000000E+04  0.10566000000E+00 0. -1.
        994   -1    0    0    0    0 -0.00000000000E+00 -0.00000000000E+00  0.11368683772E-12  0.17120000000E+03  0.17120000000E+03 0.  0.
         13    1    1    2    0    0 -0.59425394184E+02 -0.19178576373E+02  0.17472985631E+03  0.18555249692E+03  0.10566000000E+00 0. -1.
        994    1    1    2    0    0  0.41836083815E+02  0.66394235165E+02  0.31604797636E+02  0.19096270737E+03  0.17120000000E+03 0.  0.
        998    1    1    2    0    0  0.17589310369E+02 -0.47215658793E+02  0.12936653423E+04  0.12946847957E+04  0.10000000000E+02 0. -1.
</event>
<event>
 5    1  0.1796476E-008  0.3825685E+03  0.7957747E-01  0.3440050E+00
         13   -1    0    0    0    0  0.00000000000E+00  0.00000000000E+00  0.14999999963E+04  0.15000000000E+04  0.10566000000E+00 0.  1.
        994   -1    0    0    0    0 -0.00000000000E+00 -0.00000000000E+00  0.11368683772E-12  0.17120000000E+03  0.17120000000E+03 0.  0.
         13    1    1    2    0    0 -0.24200023983E+02  0.12608283381E+02  0.15508724007E+03  0.15746959442E+03  0.10566000000E+00 0.  1.
        994    1    1    2    0    0 -0.51610433889E+01  0.29144023056E+01  0.29586292182E+01  0.17132811677E+03  0.17120000000E+03 0.  0.
        998    1    1    2    0    0  0.29361067372E+02 -0.15522685687E+02  0.13419541270E+04  0.13424022888E+04  0.10000000000E+02 0.  1.
</event>
<event>
 5    1  0.1796476E-008  0.3695916E+03  0.7957747E-01  0.3497770E+00
         13   -1    0    0    0    0  0.00000000000E+00  0.00000000000E+00  0.14999999963E+04  0.15000000000E+04  0.10566000000E+00 0.  1.
        994   -1    0    0    0    0 -0.00000000000E+00 -0.00000000000E+00  0.11368683772E-12  0.17120000000E+03  0.17120000000E+03 0.  0.
         13    1    1    2    0    0  0.16574679649E+02 -0.26334596830E+02  0.46393911083E+02  0.55862663249E+02  0.10566000000E+00 0.  1.
        994    1    1    2    0    0 -0.14008853746E+02  0.24690690612E+02  0.12278124142E+02  0.17397146467E+03  0.17120000000E+03 0.  0.
        998    1    1    2    0    0 -0.25658259032E+01  0.16439062175E+01  0.14413279611E+04  0.14413658721E+04  0.10000000000E+02 0.  1.
</event>
<event>
 5    1  0.1796476E-008  0.3694172E+03  0.7957747E-01  0.3498574E+00
         13   -1    0    0    0    0  0.00000000000E+00  0.00000000000E+00  0.14999999963E+04  0.15000000000E+04  0.10566000000E+00 0. -1.
        994   -1    0    0    0    0 -0.00000000000E+00 -0.00000000000E+00  0.11368683772E-12  0.17120000000E+03  0.17120000000E+03 0.  0.
         13    1    1    2    0    0 -0.21598688203E+02  0.19977882063E+01  0.17511138584E+02  0.27877331801E+02  0.10566000000E+00 0. -1.
        994    1    1    2    0    0  0.16305173677E+02 -0.96379749468E+01  0.11883575459E+02  0.17265401419E+03  0.17120000000E+03 0.  0.
        998    1    1    2    0    0  0.52935145259E+01  0.76401867405E+01  0.14706052822E+04  0.14706686540E+04  0.10000000000E+02 0. -1.
</event>
<event>
 5    1  0.1796476E-008  0.3624296E+03  0.7957747E-01  0.3531423E+00
         13   -1    0    0    0    0  0.00000000000E+00  0.00000000000E+00  0.14999999963E+04  0.15000000000E+04  0.10566000000E+00 0.  1.
        994   -1    0    0    0    0 -0.00000000000E+00 -0.00000000000E+00  0.11368683772E-12  0.17120000000E+03  0.17120000000E+03 0.  0.
         13    1    1    2    0    0 -0.48499532744E+02 -0.24833453249E+03  0.11370699415E+04  0.11648821003E+04  0.10566000000E+00 0.  1.
        994    1    1    2    0    0  0.22867936887E+02  0.20962299926E+03  0.20191105973E+03  0.33844092600E+03  0.17120000000E+03 0.  0.
        998    1    1    2    0    0  0.25631595857E+02  0.38711533230E+02  0.16101899506E+03  0.16787697365E+03  0.10000000000E+02 0. -1.
</event>
<event>
 5    1  0.1796476E-008  0.3853016E+03  0.7957747E-01  0.3428394E+00
         13   -1    0    0    0    0  0.00000000000E+00  0.00000000000E+00  0.14999999963E+04  0.15000000000E+04  0.10566000000E+00 0. -1.
        994   -1    0    0    0    0 -0.00000000000E+00 -0.00000000000E+00  0.11368683772E-12  0.17120000000E+03  0.17120000000E+03 0.  0.
         13    1    1    2    0    0  0.10433854816E+02 -0.27432264886E+01  0.38671782680E+02  0.40148581016E+02  0.10566000000E+00 0. -1.
        994    1    1    2    0    0 -0.88669892687E+01  0.75817384378E+01  0.19277912028E+01  0.17160787463E+03  0.17120000000E+03 0.  0.
        998    1    1    2    0    0 -0.15668655474E+01 -0.48385119491E+01  0.14594004224E+04  0.14594435444E+04  0.10000000000E+02 0. -1.
</event>
<event>
 5    1  0.1796476E-008  0.3833145E+03  0.7957747E-01  0.3436852E+00
         13   -1    0    0    0    0  0.00000000000E+00  0.00000000000E+00  0.14999999963E+04  0.15000000000E+04  0.10566000000E+00 0.  1.
        994   -1    0    0    0    0 -0.00000000000E+00 -0.00000000000E+00  0.11368683772E-12  0.17120000000E+03  0.17120000000E+03 0.  0.
         13    1    1    2    0    0  0.18777432421E+02 -0.13737624169E+02  0.12878735681E+03  0.13087210827E+03  0.10566000000E+00 0.  1.
        994    1    1    2    0    0 -0.28445665431E+01 -0.16339168690E+02  0.33793409518E+01  0.17203464749E+03  0.17120000000E+03 0.  0.
        998    1    1    2    0    0 -0.15932865878E+02  0.30076792859E+02  0.13678332985E+04  0.13682932442E+04  0.10000000000E+02 0.  1.
</event>
<event>
 5    1  0.1796476E-008  0.3850703E+03  0.7957747E-01  0.3429374E+00
         13   -1    0    0    0    0  0.00000000000E+00  0.00000000000E+00  0.14999999963E+04  0.15000000000E+04  0.10566000000E+00 0. -1.
        994   -1    0    0    0    0 -0.00000000000E+00 -0.00000000000E+00  0.11368683772E-12  0.17120000000E+03  0.17120000000E+03 0.  0.
         13    1    1    2    0    0  0.12037903047E+02 -0.46706939345E+01  0.50983665850E+02  0.52593458141E+02  0.10566000000E+00 0. -1.
        994    1    1    2    0    0 -0.12339192579E+02  0.40127037623E+01  0.21489689344E+01  0.17170444238E+03  0.17120000000E+03 0.  0.
        998    1    1    2    0    0  0.30128953183E+00  0.65799017216E+00  0.14468673615E+04  0.14469020995E+04  0.10000000000E+02 0. -1.
</event>
<event>
 5    1  0.1796476E-008  0.3826196E+03  0.7957747E-01  0.3439831E+00
         13   -1    0    0    0    0  0.00000000000E+00  0.00000000000E+00  0.14999999963E+04  0.15000000000E+04  0.10566000000E+00 0.  1.
        994   -1    0    0    0    0 -0.00000000000E+00 -0.00000000000E+00  0.11368683772E-12  0.17120000000E+03  0.17120000000E+03 0.  0.
         13    1    1    2    0    0 -0.21632177443E+02  0.22645045082E+02  0.15291542764E+03  0.15608936012E+03  0.10566000000E+00 0.  1.
        994    1    1    2    0    0  0.17812628897E+02 -0.31948504893E+02  0.72637104442E+01  0.17521472028E+03  0.17120000000E+03 0.  0.
        998    1    1    2    0    0  0.38195485458E+01  0.93034598114E+01  0.13398208582E+04  0.13398959196E+04  0.10000000000E+02 0.  1.
</event>
<event>
 5    1  0.1796476E-008  0.3752031E+03  0.7957747E-01  0.3472315E+00
         13   -1    0    0    0    0  0.00000000000E+00  0.00000000000E+00  0.14999999963E+04  0.15000000000E+04  0.10566000000E+00 0. -1.
        994   -1    0    0    0    0 -0.00000000000E+00 -0.00000000000E+00  0.11368683772E-12  0.17120000000E+03  0.17120000000E+03 0.  0.
         13    1    1    2    0    0 -0.41964668487E+02 -0.14632758296E+02  0.13448601776E+03  0.14163915826E+03  0.10566000000E+00 0. -1.
        994    1    1    2    0    0  0.44746496571E+02  0.11694496845E+02  0.13875283091E+02  0.17787909853E+03  0.17120000000E+03 0.  0.
        998    1    1    2    0    0 -0.27818280840E+01  0.29382614516E+01  0.13516386954E+04  0.13516817432E+04  0.10000000000E+02 0. -1.
</event>
<event>
 5    1  0.1796476E-008  0.3788683E+03  0.7957747E-01  0.3456101E+00
         13   -1    0    0    0    0  0.00000000000E+00  0.00000000000E+00  0.14999999963E+04  0.15000000000E+04  0.10566000000E+00 0. -1.
        994   -1    0    0    0    0 -0.00000000000E+00 -0.00000000000E+00  0.11368683772E-12  0.17120000000E+03  0.17120000000E+03 0.  0.
         13    1    1    2    0    0 -0.36433999292E+02 -0.12578961840E+02  0.16910130460E+03  0.17343854522E+03  0.10566000000E+00 0. -1.
        994    1    1    2    0    0  0.11569641742E+02 -0.20039969565E+01  0.51682834926E+01  0.17168000398E+03  0.17120000000E+03 0.  0.
        998    1    1    2    0    0  0.24864357550E+02  0.14582958797E+02  0.13257304082E+04  0.13260814508E+04  0.10000000000E+02 0. -1.
</event>
<event>
 5    1  0.1796476E-008  0.3837803E+03  0.7957747E-01  0.3434861E+00
         13   -1    0    0    0    0  0.00000000000E+00  0.00000000000E+00  0.14999999963E+04  0.15000000000E+04  0.10566000000E+00 0.  1.
        994   -1    0    0    0    0 -0.00000000000E+00 -0.00000000000E+00  0.11368683772E-12  0.17120000000E+03  0.17120000000E+03 0.  0.
         13    1    1    2    0    0 -0.10901530288E+02 -0.67107656884E+01  0.36448473388E+02  0.38631335922E+02  0.10566000000E+00 0.  1.
        994    1    1    2    0    0  0.61047658060E+01  0.11923527096E+01  0.23646484047E+01  0.17132927780E+03  0.17120000000E+03 0.  0.
        998    1    1    2    0    0  0.47967644818E+01  0.55184129787E+01  0.14611868745E+04  0.14612393863E+04  0.10000000000E+02 0.  1.
</event>
<event>
 5    1  0.1796476E-008  0.3812912E+03  0.7957747E-01  0.3445555E+00
         13   -1    0    0    0    0  0.00000000000E+00  0.00000000000E+00  0.14999999963E+04  0.15000000000E+04  0.10566000000E+00 0. -1.
        994   -1    0    0    0    0 -0.00000000000E+00 -0.00000000000E+00  0.11368683772E-12  0.17120000000E+03  0.17120000000E+03 0.  0.
         13    1    1    2    0    0  0.15433407917E+01  0.10276330864E+02  0.13974916069E+02  0.17415347254E+02  0.10566000000E+00 0. -1.
        994    1    1    2    0    0  0.30168257539E+01 -0.95216346571E+01  0.38149101369E+01  0.17153354279E+03  0.17120000000E+03 0.  0.
        998    1    1    2    0    0 -0.45601665456E+01 -0.75469620652E+00  0.14822101701E+04  0.14822511100E+04  0.10000000000E+02 0. -1.
</event>
<event>
 5    1  0.1796476E-008  0.3818601E+03  0.7957747E-01  0.3443099E+00
         13   -1    0    0    0    0  0.00000000000E+00  0.00000000000E+00  0.14999999963E+04  0.15000000000E+04  0.10566000000E+00 0. -1.
        994   -1    0    0    0    0 -0.00000000000E+00 -0.00000000000E+00  0.11368683772E-12  0.17120000000E+03  0.17120000000E+03 0.  0.
         13    1    1    2    0    0  0.28053338743E+02 -0.81953238229E+01  0.12969822448E+03  0.13295034315E+03  0.10566000000E+00 0. -1.
        994    1    1    2    0    0 -0.20831281539E+02  0.29198800515E+01  0.46685958591E+01  0.17255058324E+03  0.17120000000E+03 0.  0.
        998    1    1    2    0    0 -0.72220572036E+01  0.52754437714E+01  0.13656331759E+04  0.13656990736E+04  0.10000000000E+02 0. -1.
</event>
<event>
 5    1  0.1796476E-008  0.3751222E+03  0.7957747E-01  0.3472676E+00
         13   -1    0    0    0    0  0.00000000000E+00  0.00000000000E+00  0.14999999963E+04  0.15000000000E+04  0.10566000000E+00 0. -1.
        994   -1    0    0    0    0 -0.00000000000E+00 -0.00000000000E+00  0.11368683772E-12  0.17120000000E+03  0.17120000000E+03 0.  0.
         13    1    1    2    0    0  0.14033152475E+03 -0.29476048521E+02  0.83428533263E+03  0.84651863634E+03  0.10566000000E+00 0. -1.
        994    1    1    2    0    0 -0.12396515854E+03  0.39601870832E+02  0.66528113538E+02  0.22510241802E+03  0.17120000000E+03 0.  0.
        998    1    1    2    0    0 -0.16366366208E+02 -0.10125822311E+02  0.59918655011E+03  0.59957894564E+03  0.10000000000E+02 0. -1.
</event>
<event>
 5    1  0.1796476E-008  0.3839764E+03  0.7957747E-01  0.3434025E+00
         13   -1    0    0    0    0  0.00000000000E+00  0.00000000000E+00  0.14999999963E+04  0.15000000000E+04  0.10566000000E+00 0.  1.
        994   -1    0    0    0    0 -0.00000000000E+00 -0.00000000000E+00  0.11368683772E-12  0.17120000000E+03  0.17120000000E+03 0.  0.
         13    1    1    2    0    0 -0.15463457508E+02 -0.75716962727E+01  0.74431454307E+02  0.76397000314E+02  0.10566000000E+00 0.  1.
        994    1    1    2    0    0 -0.19015330278E+01 -0.59751788670E-01  0.21511228456E+01  0.17122408338E+03  0.17120000000E+03 0.  0.
        998    1    1    2    0    0  0.17364990536E+02  0.76314480613E+01  0.14234174191E+04  0.14235789163E+04  0.10000000000E+02 0.  1.
</event>
<event>
 5    1  0.1796476E-008  0.3810467E+03  0.7957747E-01  0.3446614E+00
         13   -1    0    0    0    0  0.00000000000E+00  0.00000000000E+00  0.14999999963E+04  0.15000000000E+04  0.10566000000E+00 0. -1.
        994   -1    0    0    0    0 -0.00000000000E+00 -0.00000000000E+00  0.11368683772E-12  0.17120000000E+03  0.17120000000E+03 0.  0.
         13    1    1    2    0    0  0.13239480903E+02 -0.81696900197E+01  0.30324132364E+02  0.34082133990E+02  0.10566000000E+00 0. -1.
        994    1    1    2    0    0 -0.29674185223E+02  0.68785722088E+01  0.67029869858E+01  0.17401793603E+03  0.17120000000E+03 0.  0.
        998    1    1    2    0    0  0.16434704319E+02  0.12911178109E+01  0.14629728769E+04  0.14630999300E+04  0.10000000000E+02 0. -1.
</event>
<event>
 5    1  0.1796476E-008  0.3804092E+03  0.7957747E-01  0.3449379E+00
         13   -1    0    0    0    0  0.00000000000E+00  0.00000000000E+00  0.14999999963E+04  0.15000000000E+04  0.10566000000E+00 0. -1.
        994   -1    0    0    0    0 -0.00000000000E+00 -0.00000000000E+00  0.11368683772E-12  0.17120000000E+03  0.17120000000E+03 0.  0.
         13    1    1    2    0    0  0.35939321952E+01 -0.39187660222E+02  0.18044511205E+03  0.18468632512E+03  0.10566000000E+00 0. -1.
        994    1    1    2    0    0  0.61062529215E+01  0.35268823135E+02  0.82156517870E+01  0.17509458342E+03  0.17120000000E+03 0.  0.
        998    1    1    2    0    0 -0.97001851167E+01  0.39188370870E+01  0.13113392324E+04  0.13114190915E+04  0.10000000000E+02 0. -1.
</event>
<event>
 5    1  0.1796476E-008  0.3856347E+03  0.7957747E-01  0.3426985E+00
         13   -1    0    0    0    0  0.00000000000E+00  0.00000000000E+00  0.14999999963E+04  0.15000000000E+04  0.10566000000E+00 0.  1.
        994   -1    0    0    0    0 -0.00000000000E+00 -0.00000000000E+00  0.11368683772E-12  0.17120000000E+03  0.17120000000E+03 0.  0.
         13    1    1    2    0    0  0.12156284919E+02 -0.92506728151E+01  0.91636024956E+02  0.92900605188E+02  0.10566000000E+00 0.  1.
        994    1    1    2    0    0 -0.34832702505E+01  0.66547683126E+01  0.15005091730E+01  0.17137126550E+03  0.17120000000E+03 0.  0.
        998    1    1    2    0    0 -0.86730146684E+01  0.25959045026E+01  0.14068634622E+04  0.14069281293E+04  0.10000000000E+02 0.  1.
</event>
<event>
 5    1  0.1796476E-008  0.3836316E+03  0.7957747E-01  0.3435497E+00
         13   -1    0    0    0    0  0.00000000000E+00  0.00000000000E+00  0.14999999963E+04  0.15000000000E+04  0.10566000000E+00 0. -1.
        994   -1    0    0    0    0 -0.00000000000E+00 -0.00000000000E+00  0.11368683772E-12  0.17120000000E+03  0.17120000000E+03 0.  0.
         13    1    1    2    0    0 -0.89394409262E+01 -0.49202549247E+01  0.22328195346E+02  0.24549582157E+02  0.10566000000E+00 0. -1.
        994    1    1    2    0    0 -0.48749779229E+01  0.73973470194E+01  0.25703811299E+01  0.17144833919E+03  0.17120000000E+03 0.  0.
        998    1    1    2    0    0  0.13814418849E+02 -0.24770920947E+01  0.14751014198E+04  0.14752020787E+04  0.10000000000E+02 0. -1.
</event>
<event>
 5    1  0.1796476E-008  0.3831341E+03  0.7957747E-01  0.3437624E+00
         13   -1    0    0    0    0  0.00000000000E+00  0.00000000000E+00  0.14999999963E+04  0.15000000000E+04  0.10566000000E+00 0.  1.
        994   -1    0    0    0    0 -0.00000000000E+00 -0.00000000000E+00  0.11368683772E-12  0.17120000000E+03  0.17120000000E+03 0.  0.
         13    1    1    2    0    0 -0.44660501729E+01 -0.11726899435E+02  0.30641943731E+02  0.33112016764E+02  0.10566000000E+00 0.  1.
        994    1    1    2    0    0  0.19084480885E+01  0.14784992460E+01  0.25786257408E+01  0.17123643726E+03  0.17120000000E+03 0.  0.
        998    1    1    2    0    0  0.25576020844E+01  0.10248400189E+02  0.14667794268E+04  0.14668515460E+04  0.10000000000E+02 0.  1.
</event>
<event>
 5    1  0.1796476E-008  0.3794773E+03  0.7957747E-01  0.3453438E+00
         13   -1    0    0    0    0  0.00000000000E+00  0.00000000000E+00  0.14999999963E+04  0.15000000000E+04  0.10566000000E+00 0.  1.
        994   -1    0    0    0    0 -0.00000000000E+00 -0.00000000000E+00  0.11368683772E-12  0.17120000000E+03  0.17120000000E+03 0.  0.
         13    1    1    2    0    0 -0.88015305900E+02 -0.26608014796E+02  0.54321962009E+03  0.55094668285E+03  0.10566000000E+00 0.  1.
        994    1    1    2    0    0  0.94604783704E+02  0.30895403753E+02  0.38312661721E+02  0.20169752383E+03  0.17120000000E+03 0.  0.
        998    1    1    2    0    0 -0.65894778042E+01 -0.42873889572E+01  0.91846771446E+03  0.91855579332E+03  0.10000000000E+02 0.  1.
</event>
<event>
 5    1  0.1796476E-008  0.3853202E+03  0.7957747E-01  0.3428315E+00
         13   -1    0    0    0    0  0.00000000000E+00  0.00000000000E+00  0.14999999963E+04  0.15000000000E+04  0.10566000000E+00 0.  1.
        994   -1    0    0    0    0 -0.00000000000E+00 -0.00000000000E+00  0.11368683772E-12  0.17120000000E+03  0.17120000000E+03 0.  0.
         13    1    1    2    0    0 -0.10806471813E+02  0.94497577664E+01  0.74258448163E+02  0.75633365934E+02  0.10566000000E+00 0.  1.
        994    1    1    2    0    0  0.20575348751E+00 -0.24065969351E+01  0.14904072344E+01  0.17122352454E+03  0.17120000000E+03 0.  0.
        998    1    1    2    0    0  0.10600718325E+02 -0.70431608313E+01  0.14242511409E+04  0.14243431095E+04  0.10000000000E+02 0.  1.
</event>
<event>
 5    1  0.1796476E-008  0.3821210E+03  0.7957747E-01  0.3441975E+00
         13   -1    0    0    0    0  0.00000000000E+00  0.00000000000E+00  0.14999999963E+04  0.15000000000E+04  0.10566000000E+00 0.  1.
        994   -1    0    0    0    0 -0.00000000000E+00 -0.00000000000E+00  0.11368683772E-12  0.17120000000E+03  0.17120000000E+03 0.  0.
         13    1    1    2    0    0  0.26150117773E+02 -0.21607104307E+02  0.16478227727E+03  0.16823764645E+03  0.10566000000E+00 0.  1.
        994    1    1    2    0    0 -0.24953337547E+02  0.27325234337E+02  0.76253710488E+01  0.17531949056E+03  0.17120000000E+03 0.  0.
        998    1    1    2    0    0 -0.11967802263E+01 -0.57181300295E+01  0.13275923480E+04  0.13276428630E+04  0.10000000000E+02 0.  1.
</event>
<event>
 5    1  0.2090951E-008  0.3857469E+03  0.7957747E-01  0.3426510E+00
         13   -1    0    0    0    0  0.00000000000E+00  0.00000000000E+00  0.14999999963E+04  0.15000000000E+04  0.10566000000E+00 0. -1.
        994   -1    0    0    0    0 -0.00000000000E+00 -0.00000000000E+00  0.11368683772E-12  0.17120000000E+03  0.17120000000E+03 0.  0.
         13    1    1    2    0    0  0.43915941914E+01  0.91068604781E+01  0.41017855181E+02  0.42245669778E+02  0.10566000000E+00 0. -1.
        994    1    1    2    0    0 -0.41443827361E+01 -0.47789638129E+01  0.13910315470E+01  0.17132247188E+03  0.17120000000E+03 0.  0.
        998    1    1    2    0    0 -0.24721145531E+00 -0.43278966652E+01  0.14575911096E+04  0.14576318583E+04  0.10000000000E+02 0. -1.
</event>
<event>
 5    1  0.1796476E-008  0.3715544E+03  0.7957747E-01  0.3488778E+00
         13   -1    0    0    0    0  0.00000000000E+00  0.00000000000E+00  0.14999999963E+04  0.15000000000E+04  0.10566000000E+00 0. -1.
        994   -1    0    0    0    0 -0.00000000000E+00 -0.00000000000E+00  0.11368683772E-12  0.17120000000E+03  0.17120000000E+03 0.  0.
         13    1    1    2    0    0 -0.13351888338E+02 -0.69604870913E+02  0.18825265319E+03  0.20115214036E+03  0.10566000000E+00 0. -1.
        994    1    1    2    0    0  0.78180210314E+01  0.65772108369E+02  0.27348231463E+02  0.18559218048E+03  0.17120000000E+03 0.  0.
        998    1    1    2    0    0  0.55338673068E+01  0.38327625440E+01  0.12843991116E+04  0.12844556792E+04  0.10000000000E+02 0. -1.
</event>
<event>
 5    1  0.1796476E-008  0.3830218E+03  0.7957747E-01  0.3438105E+00
         13   -1    0    0    0    0  0.00000000000E+00  0.00000000000E+00  0.14999999963E+04  0.15000000000E+04  0.10566000000E+00 0.  1.
        994   -1    0    0    0    0 -0.00000000000E+00 -0.00000000000E+00  0.11368683772E-12  0.17120000000E+03  0.17120000000E+03 0.  0.
         13    1    1    2    0    0  0.34777792444E+02 -0.48612558752E+01  0.18285824067E+03  0.18619955424E+03  0.10566000000E+00 0.  1.
        994    1    1    2    0    0 -0.47638365048E+02  0.38166291562E+02  0.15047645773E+02  0.18237859326E+03  0.17120000000E+03 0.  0.
        998    1    1    2    0    0  0.12860572604E+02 -0.33305035686E+02  0.13020941098E+04  0.13026218525E+04  0.10000000000E+02 0.  1.
</event>
<event>
 5    1  0.1796476E-008  0.3762519E+03  0.7957747E-01  0.3467643E+00
         13   -1    0    0    0    0  0.00000000000E+00  0.00000000000E+00  0.14999999963E+04  0.15000000000E+04  0.10566000000E+00 0. -1.
        994   -1    0    0    0    0 -0.00000000000E+00 -0.00000000000E+00  0.11368683772E-12  0.17120000000E+03  0.17120000000E+03 0.  0.
         13    1    1    2    0    0  0.14687396598E+02 -0.95600674645E+01  0.24408907385E+02  0.30048634453E+02  0.10566000000E+00 0. -1.
        994    1    1    2    0    0  0.21350415151E+01 -0.20572564211E+02  0.74866250908E+01  0.17260729520E+03  0.17120000000E+03 0.  0.
        998    1    1    2    0    0 -0.16822438114E+02  0.30132631675E+02  0.14681044638E+04  0.14685440703E+04  0.10000000000E+02 0. -1.
</event>
<event>
 5    1  0.1796476E-008  0.3846917E+03  0.7957747E-01  0.3430981E+00
         13   -1    0    0    0    0  0.00000000000E+00  0.00000000000E+00  0.14999999963E+04  0.15000000000E+04  0.10566000000E+00 0.  1.
        994   -1    0    0    0    0 -0.00000000000E+00 -0.00000000000E+00  0.11368683772E-12  0.17120000000E+03  0.17120000000E+03 0.  0.
         13    1    1    2    0    0 -0.26878301047E+02  0.29090990826E+01  0.11475625249E+03  0.11789789894E+03  0.10566000000E+00 0.  1.
        994    1    1    2    0    0  0.99904305961E+02  0.21930673818E+02  0.37017158948E+02  0.20283376164E+03  0.17120000000E+03 0.  0.
        998    1    1    2    0    0 -0.73026004914E+02 -0.24839772901E+02  0.13482265848E+04  0.13504683394E+04  0.10000000000E+02 0.  1.
</event>
<event>
 5    1  0.1796476E-008  0.3838815E+03  0.7957747E-01  0.3434430E+00
         13   -1    0    0    0    0  0.00000000000E+00  0.00000000000E+00  0.14999999963E+04  0.15000000000E+04  0.10566000000E+00 0.  1.
        994   -1    0    0    0    0 -0.00000000000E+00 -0.00000000000E+00  0.11368683772E-12  0.17120000000E+03  0.17120000000E+03 0.  0.
         13    1    1    2    0    0  0.34089179685E+01  0.20418501339E+02  0.87279157628E+02  0.89700604451E+02  0.10566000000E+00 0.  1.
        994    1    1    2    0    0 -0.55224996582E+01 -0.30250988660E+02  0.53138693663E+01  0.17402096864E+03  0.17120000000E+03 0.  0.
        998    1    1    2    0    0  0.21135816898E+01  0.98324873208E+01  0.14074069693E+04  0.14074784269E+04  0.10000000000E+02 0.  1.
</event>
<event>
 5    1  0.1796476E-008  0.3698430E+03  0.7957747E-01  0.3496613E+00
         13   -1    0    0    0    0  0.00000000000E+00  0.00000000000E+00  0.14999999963E+04  0.15000000000E+04  0.10566000000E+00 0. -1.
        994   -1    0    0    0    0 -0.00000000000E+00 -0.00000000000E+00  0.11368683772E-12  0.17120000000E+03  0.17120000000E+03 0.  0.
         13    1    1    2    0    0  0.31351714782E-01 -0.61654262682E+02  0.20061428960E+03  0.20987461362E+03  0.10566000000E+00 0. -1.
        994    1    1    2    0    0 -0.21845969381E+02  0.36303328736E+02  0.15587303329E+02  0.17705248397E+03  0.17120000000E+03 0.  0.
        998    1    1    2    0    0  0.21814617666E+02  0.25350933946E+02  0.12837984034E+04  0.12842729024E+04  0.10000000000E+02 0. -1.
</event>
<event>
 5    1  0.1796476E-008  0.3861420E+03  0.7957747E-01  0.3424843E+00
         13   -1    0    0    0    0  0.00000000000E+00  0.00000000000E+00  0.14999999963E+04  0.15000000000E+04  0.10566000000E+00 0.  1.
        994   -1    0    0    0    0 -0.00000000000E+00 -0.00000000000E+00  0.11368683772E-12  0.17120000000E+03  0.17120000000E+03 0.  0.
         13    1    1    2    0    0  0.11879531607E+02  0.34959068467E+01  0.64957506942E+02  0.66127403609E+02  0.10566000000E+00 0.  1.
        994    1    1    2    0    0 -0.25718331029E+02  0.29255025472E+01  0.32625164036E+01  0.17317642775E+03  0.17120000000E+03 0.  0.
        998    1    1    2    0    0  0.13838799421E+02 -0.64214093939E+01  0.14317799729E+04  0.14318961686E+04  0.10000000000E+02 0.  1.
</event>
<event>
 5    1  0.1796476E-008  0.3799553E+03  0.7957747E-01  0.3451353E+00
         13   -1    0    0    0    0  0.00000000000E+00  0.00000000000E+00  0.14999999963E+04  0.15000000000E+04  0.10566000000E+00 0.  1.
        994   -1    0    0    0    0 -0.00000000000E+00 -0.00000000000E+00  0.11368683772E-12  0.17120000000E+03  0.17120000000E+03 0.  0.
         13    1    1    2    0    0  0.35897578807E+02 -0.25116806294E+02  0.19453037814E+03  0.19940303234E+03  0.10566000000E+00 0.  1.
        994    1    1    2    0    0 -0.42112435629E+02  0.24722144707E+02  0.12170112891E+02  0.17844380998E+03  0.17120000000E+03 0.  0.
        998    1    1    2    0    0  0.62148568224E+01  0.39466158676E+00  0.12932995052E+04  0.12933531577E+04  0.10000000000E+02 0.  1.
</event>
<event>
 5    1  0.1796476E-008  0.3755050E+03  0.7957747E-01  0.3470967E+00
         13   -1    0    0    0    0  0.00000000000E+00  0.00000000000E+00  0.14999999963E+04  0.15000000000E+04  0.10566000000E+00 0.  1.
        994   -1    0    0    0    0 -0.00000000000E+00 -0.00000000000E+00  0.11368683772E-12  0.17120000000E+03  0.17120000000E+03 0.  0.
         13    1    1    2    0    0  0.23805810887E+02 -0.23365345526E+02  0.80816851503E+02  0.87430147286E+02  0.10566000000E+00 0.  1.
        994    1    1    2    0    0 -0.27636883907E+02  0.17135181716E+02  0.10016247759E+02  0.17454849476E+03  0.17120000000E+03 0.  0.
        998    1    1    2    0    0  0.38310730203E+01  0.62301638098E+01  0.14091668970E+04  0.14092213580E+04  0.10000000000E+02 0.  1.
</event>
<event>
 5    1  0.1872894E-008  0.3858251E+03  0.7957747E-01  0.3426181E+00
         13   -1    0    0    0    0  0.00000000000E+00  0.00000000000E+00  0.14999999963E+04  0.15000000000E+04  0.10566000000E+00 0. -1.
        994   -1    0    0    0    0 -0.00000000000E+00 -0.00000000000E+00  0.11368683772E-12  0.17120000000E+03  0.17120000000E+03 0.  0.
         13    1    1    2    0    0 -0.70995534866E+01 -0.12021303521E+02  0.83144326682E+02  0.84308395914E+02  0.10566000000E+00 0. -1.
        994    1    1    2    0    0  0.26086238954E+01  0.45831757247E+01  0.13122821834E+01  0.17128622975E+03  0.17120000000E+03 0.  0.
        998    1    1    2    0    0  0.44909295912E+01  0.74381277965E+01  0.14155433874E+04  0.14156053743E+04  0.10000000000E+02 0. -1.
</event>
<event>
 5    1  0.1796476E-008  0.3825871E+03  0.7957747E-01  0.3439970E+00
         13   -1    0    0    0    0  0.00000000000E+00  0.00000000000E+00  0.14999999963E+04  0.15000000000E+04  0.10566000000E+00 0. -1.
        994   -1    0    0    0    0 -0.00000000000E+00 -0.00000000000E+00  0.11368683772E-12  0.17120000000E+03  0.17120000000E+03 0.  0.
         13    1    1    2    0    0  0.15627303572E+02  0.27409756655E+02  0.16154967726E+03  0.16460199502E+03  0.10566000000E+00 0. -1.
        994    1    1    2    0    0 -0.26017020616E+02 -0.18704161890E+02  0.62434869676E+01  0.17428468712E+03  0.17120000000E+03 0.  0.
        998    1    1    2    0    0  0.10389717044E+02 -0.87055947651E+01  0.13322068320E+04  0.13323133179E+04  0.10000000000E+02 0. -1.
</event>
<event>
 5    1  0.2457072E-008  0.3863607E+03  0.7957747E-01  0.3423922E+00
         13   -1    0    0    0    0  0.00000000000E+00  0.00000000000E+00  0.14999999963E+04  0.15000000000E+04  0.10566000000E+00 0. -1.
        994   -1    0    0    0    0 -0.00000000000E+00 -0.00000000000E+00  0.11368683772E-12  0.17120000000E+03  0.17120000000E+03 0.  0.
         13    1    1    2    0    0 -0.99352006561E+01 -0.19203209408E+01  0.55605054982E+02  0.56518396547E+02  0.10566000000E+00 0. -1.
        994    1    1    2    0    0  0.45034226897E+01 -0.54851605767E+00  0.10234678762E+01  0.17126315766E+03  0.17120000000E+03 0.  0.
        998    1    1    2    0    0  0.54317779664E+01  0.24688369984E+01  0.14433714734E+04  0.14434184458E+04  0.10000000000E+02 0. -1.
</event>
<event>
 5    1  0.1796476E-008  0.3771738E+03  0.7957747E-01  0.3463557E+00
         13   -1    0    0    0    0  0.00000000000E+00  0.00000000000E+00  0.14999999963E+04  0.15000000000E+04  0.10566000000E+00 0. -1.
        994   -1    0    0    0    0 -0.00000000000E+00 -0.00000000000E+00  0.11368683772E-12  0.17120000000E+03  0.17120000000E+03 0.  0.
         13    1    1    2    0    0 -0.97966544282E+01  0.36250818681E+01  0.78980329020E+01  0.13096020170E+02  0.10566000000E+00 0. -1.
        994    1    1    2    0    0 -0.22479473700E+02  0.29432071989E+02  0.10208955122E+02  0.17545722089E+03  0.17120000000E+03 0.  0.
        998    1    1    2    0    0  0.32276128128E+02 -0.33057153857E+02  0.14818930083E+04  0.14826467589E+04  0.10000000000E+02 0. -1.
</event>
<event>
 5    1  0.1796476E-008  0.3815001E+03  0.7957747E-01  0.3444653E+00
         13   -1    0    0    0    0  0.00000000000E+00  0.00000000000E+00  0.14999999963E+04  0.15000000000E+04  0.10566000000E+00 0.  1.
        994   -1    0    0    0    0 -0.00000000000E+00 -0.00000000000E+00  0.11368683772E-12  0.17120000000E+03  0.17120000000E+03 0.  0.
         13    1    1    2    0    0 -0.34458496486E+02 -0.95328375506E+01  0.19907856415E+03  0.20226356280E+03  0.10566000000E+00 0.  1.
        994    1    1    2    0    0  0.15150347198E+02 -0.27339985686E+01  0.41665885935E+01  0.17194129297E+03  0.17120000000E+03 0.  0.
        998    1    1    2    0    0  0.19308149288E+02  0.12266836119E+02  0.12967548435E+04  0.12969951442E+04  0.10000000000E+02 0.  1.
</event>
<event>
 5    1  0.1796476E-008  0.3470685E+03  0.7957747E-01  0.3608409E+00
         13   -1    0    0    0    0  0.00000000000E+00  0.00000000000E+00  0.14999999963E+04  0.15000000000E+04  0.10566000000E+00 0.  1.
        994   -1    0    0    0    0 -0.00000000000E+00 -0.00000000000E+00  0.11368683772E-12  0.17120000000E+03  0.17120000000E+03 0.  0.
         13    1    1    2    0    0 -0.19192441031E+03  0.18227566210E+03  0.82302739673E+03  0.86454236634E+03  0.10566000000E+00 0.  1.
        994    1    1    2    0    0  0.17040619380E+03 -0.21287266627E+03  0.34296037572E+03  0.47040865452E+03  0.17120000000E+03 0.  0.
        998    1    1    2    0    0  0.21518216505E+02  0.30597004169E+02  0.33401222383E+03  0.33624897914E+03  0.10000000000E+02 0.  1.
</event>
<event>
 5    1  0.1796476E-008  0.3714339E+03  0.7957747E-01  0.3489327E+00
         13   -1    0    0    0    0  0.00000000000E+00  0.00000000000E+00  0.14999999963E+04  0.15000000000E+04  0.10566000000E+00 0. -1.
        994   -1    0    0    0    0 -0.00000000000E+00 -0.00000000000E+00  0.11368683772E-12  0.17120000000E+03  0.17120000000E+03 0.  0.
         13    1    1    2    0    0 -0.18946387025E+02 -0.69551021874E+02  0.24992899974E+03  0.26011694736E+03  0.10566000000E+00 0. -1.
        994    1    1    2    0    0  0.14638229705E+02  0.72050011086E+02  0.27355913545E+02  0.18831693464E+03  0.17120000000E+03 0.  0.
        998    1    1    2    0    0  0.43081573201E+01 -0.24989892123E+01  0.12227150830E+04  0.12227661180E+04  0.10000000000E+02 0. -1.
</event>
<event>
 5    1  0.1796476E-008  0.3782931E+03  0.7957747E-01  0.3458624E+00
         13   -1    0    0    0    0  0.00000000000E+00  0.00000000000E+00  0.14999999963E+04  0.15000000000E+04  0.10566000000E+00 0.  1.
        994   -1    0    0    0    0 -0.00000000000E+00 -0.00000000000E+00  0.11368683772E-12  0.17120000000E+03  0.17120000000E+03 0.  0.
         13    1    1    2    0    0 -0.45580834850E+02 -0.25791486815E+01  0.18580184988E+03  0.19132852139E+03  0.10566000000E+00 0.  1.
        994    1    1    2    0    0  0.42601557753E+02  0.12599963593E+02  0.11661278562E+02  0.17725427279E+03  0.17120000000E+03 0.  0.
        998    1    1    2    0    0  0.29792770975E+01 -0.10020814911E+02  0.13025368678E+04  0.13026172058E+04  0.10000000000E+02 0.  1.
</event>
<event>
 5    1  0.1796476E-008  0.3848676E+03  0.7957747E-01  0.3430234E+00
         13   -1    0    0    0    0  0.00000000000E+00  0.00000000000E+00  0.14999999963E+04  0.15000000000E+04  0.10566000000E+00 0.  1.
        994   -1    0    0    0    0 -0.00000000000E+00 -0.00000000000E+00  0.11368683772E-12  0.17120000000E+03  0.17120000000E+03 0.  0.
         13    1    1    2    0    0 -0.55570350536E+01  0.10046008931E+02  0.40537148981E+02  0.42131633550E+02  0.10566000000E+00 0.  1.
        994    1    1    2    0    0 -0.24521502544E+01  0.59547616000E+00  0.17168238066E+01  0.17122720320E+03  0.17120000000E+03 0.  0.
        998    1    1    2    0    0  0.80091853080E+01 -0.10641485091E+02  0.14577460235E+04  0.14578411632E+04  0.10000000000E+02 0.  1.
</event>
<event>
 5    1  0.1796476E-008  0.3769074E+03  0.7957747E-01  0.3464736E+00
         13   -1    0    0    0    0  0.00000000000E+00  0.00000000000E+00  0.14999999963E+04  0.15000000000E+04  0.10566000000E+00 0.  1.
        994   -1    0    0    0    0 -0.00000000000E+00 -0.00000000000E+00  0.11368683772E-12  0.17120000000E+03  0.17120000000E+03 0.  0.
         13    1    1    2    0    0 -0.15506059053E+02  0.61363346601E+02  0.29212737814E+03  0.29890519299E+03  0.10566000000E+00 0.  1.
        994    1    1    2    0    0  0.34305304982E+02 -0.52977029897E+02  0.19276876454E+02  0.18347876611E+03  0.17120000000E+03 0.  0.
        998    1    1    2    0    0 -0.18799245929E+02 -0.83863167033E+01  0.11885957417E+04  0.11888160409E+04  0.10000000000E+02 0.  1.
</event>
<event>
 5    1  0.1796476E-008  0.3740807E+03  0.7957747E-01  0.3477344E+00
         13   -1    0    0    0    0  0.00000000000E+00  0.00000000000E+00  0.14999999963E+04  0.15000000000E+04  0.10566000000E+00 0.  1.
        994   -1    0    0    0    0 -0.00000000000E+00 -0.00000000000E+00  0.11368683772E-12  0.17120000000E+03  0.17120000000E+03 0.  0.
         13    1    1    2    0    0 -0.13382243643E+02  0.17542762979E+00  0.92001722936E+01  0.16240983777E+02  0.10566000000E+00 0.  1.
        994    1    1    2    0    0  0.14447686572E+02  0.49219919056E+01  0.79462899860E+01  0.17206261993E+03  0.17120000000E+03 0.  0.
        998    1    1    2    0    0 -0.10654429295E+01 -0.50974195354E+01  0.14828535340E+04  0.14828963963E+04  0.10000000000E+02 0.  1.
</event>
<event>
 5    1  0.1796476E-008  0.4090463E+03  0.7957747E-01  0.3333681E+00
         13   -1    0    0    0    0  0.00000000000E+00  0.00000000000E+00  0.14999999963E+04  0.15000000000E+04  0.10566000000E+00 0.  1.
        994   -1    0    0    0    0 -0.00000000000E+00 -0.00000000000E+00  0.11368683772E-12  0.17120000000E+03  0.17120000000E+03 0.  0.
         13    1    1    2    0    0  0.82793913494E+02  0.38665806042E+02  0.11440612095E+03  0.14641942612E+03  0.10566000000E+00 0.  1.
        994    1    1    2    0    0 -0.55642960078E+02 -0.47407486903E+02  0.55370224154E+02  0.19421356941E+03  0.17120000000E+03 0.  0.
        998    1    1    2    0    0 -0.27150953415E+02  0.87416808619E+01  0.13302236512E+04  0.13305670045E+04  0.10000000000E+02 0.  1.
</event>
<event>
 5    1  0.1796476E-008  0.3688985E+03  0.7957747E-01  0.3500969E+00
         13   -1    0    0    0    0  0.00000000000E+00  0.00000000000E+00  0.14999999963E+04  0.15000000000E+04  0.10566000000E+00 0. -1.
        994   -1    0    0    0    0 -0.00000000000E+00 -0.00000000000E+00  0.11368683772E-12  0.17120000000E+03  0.17120000000E+03 0.  0.
         13    1    1    2    0    0 -0.12655133446E+02  0.51655104269E+01  0.43006529708E+01  0.14329748097E+02  0.10566000000E+00 0. -1.
        994    1    1    2    0    0  0.97262868565E+01  0.10597134722E+01  0.10690980222E+02  0.17181228334E+03  0.17120000000E+03 0.  0.
        998    1    1    2    0    0  0.29288465893E+01 -0.62252238991E+01  0.14850083631E+04  0.14850579686E+04  0.10000000000E+02 0. -1.
</event>
<event>
 5    1  0.1796476E-008  0.3808371E+03  0.7957747E-01  0.3447522E+00
         13   -1    0    0    0    0  0.00000000000E+00  0.00000000000E+00  0.14999999963E+04  0.15000000000E+04  0.10566000000E+00 0. -1.
        994   -1    0    0    0    0 -0.00000000000E+00 -0.00000000000E+00  0.11368683772E-12  0.17120000000E+03  0.17120000000E+03 0.  0.
         13    1    1    2    0    0 -0.27782284403E+02  0.20923932049E+02  0.28761970865E+02  0.45132343072E+02  0.10566000000E+00 0. -1.
        994    1    1    2    0    0  0.26502632965E+02 -0.21738537206E+02  0.21070211281E+02  0.17586457107E+03  0.17120000000E+03 0.  0.
        998    1    1    2    0    0  0.12796514382E+01  0.81460515668E+00  0.14501678141E+04  0.14502030859E+04  0.10000000000E+02 0. -1.
</event>
<event>
 5    1  0.1796476E-008  0.3790592E+03  0.7957747E-01  0.3455265E+00
         13   -1    0    0    0    0  0.00000000000E+00  0.00000000000E+00  0.14999999963E+04  0.15000000000E+04  0.10566000000E+00 0. -1.
        994   -1    0    0    0    0 -0.00000000000E+00 -0.00000000000E+00  0.11368683772E-12  0.17120000000E+03  0.17120000000E+03 0.  0.
         13    1    1    2    0    0  0.21319144029E+02 -0.29221026254E+01  0.57854584080E+02  0.61726887570E+02  0.10566000000E+00 0. -1.
        994    1    1    2    0    0  0.37866297722E+02  0.52669395211E+02  0.18851245802E+02  0.18404545950E+03  0.17120000000E+03 0.  0.
        998    1    1    2    0    0 -0.59185441751E+02 -0.49747292585E+02  0.14232941664E+04  0.14254276529E+04  0.10000000000E+02 0. -1.
</event>
<event>
 5    1  0.1796476E-008  0.3734220E+03  0.7957747E-01  0.3480310E+00
         13   -1    0    0    0    0  0.00000000000E+00  0.00000000000E+00  0.14999999963E+04  0.15000000000E+04  0.10566000000E+00 0. -1.
        994   -1    0    0    0    0 -0.00000000000E+00 -0.00000000000E+00  0.11368683772E-12  0.17120000000E+03  0.17120000000E+03 0.  0.
         13    1    1    2    0    0 -0.12057547606E+02  0.16756000220E+02  0.29572627603E+02  0.36065211285E+02  0.10566000000E+00 0. -1.
        994    1    1    2    0    0 -0.39343021124E+02  0.30320176146E+02  0.15969989819E+02  0.17897392818E+03  0.17120000000E+03 0.  0.
        998    1    1    2    0    0  0.51400568730E+02 -0.47076176366E+02  0.14544573789E+04  0.14561608605E+04  0.10000000000E+02 0. -1.
</event>
<event>
 5    1  0.1796476E-008  0.3818809E+03  0.7957747E-01  0.3443009E+00
         13   -1    0    0    0    0  0.00000000000E+00  0.00000000000E+00  0.14999999963E+04  0.15000000000E+04  0.10566000000E+00 0. -1.
        994   -1    0    0    0    0 -0.00000000000E+00 -0.00000000000E+00  0.11368683772E-12  0.17120000000E+03  0.17120000000E+03 0.  0.
         13    1    1    2    0    0 -0.29279046437E+02 -0.19320545543E+02  0.19612022449E+03  0.19923277757E+03  0.10566000000E+00 0. -1.
        994    1    1    2    0    0  0.18365065046E+02  0.46755471239E+01  0.43807539536E+01  0.17230138525E+03  0.17120000000E+03 0.  0.
        998    1    1    2    0    0  0.10913981391E+02  0.14644998419E+02  0.12994990178E+04  0.12996658372E+04  0.10000000000E+02 0. -1.
</event>
<event>
 5    1  0.1796476E-008  0.3843482E+03  0.7957747E-01  0.3432441E+00
         13   -1    0    0    0    0  0.00000000000E+00  0.00000000000E+00  0.14999999963E+04  0.15000000000E+04  0.10566000000E+00 0. -1.
        994   -1    0    0    0    0 -0.00000000000E+00 -0.00000000000E+00  0.11368683772E-12  0.17120000000E+03  0.17120000000E+03 0.  0.
         13    1    1    2    0    0 -0.10387566400E+02 -0.29567149267E+01  0.30183979663E+02  0.32058189144E+02  0.10566000000E+00 0. -1.
        994    1    1    2    0    0  0.11399408988E+01 -0.14828580844E+01  0.19656116036E+01  0.17122149971E+03  0.17120000000E+03 0.  0.
        998    1    1    2    0    0  0.92476255009E+01  0.44395730111E+01  0.14678504050E+04  0.14679203111E+04  0.10000000000E+02 0. -1.
</event>
<event>
 5    1  0.1796476E-008  0.3775117E+03  0.7957747E-01  0.3462065E+00
         13   -1    0    0    0    0  0.00000000000E+00  0.00000000000E+00  0.14999999963E+04  0.15000000000E+04  0.10566000000E+00 0. -1.
        994   -1    0    0    0    0 -0.00000000000E+00 -0.00000000000E+00  0.11368683772E-12  0.17120000000E+03  0.17120000000E+03 0.  0.
         13    1    1    2    0    0 -0.13857175214E+03 -0.33365608852E+02  0.79392055655E+03  0.80661344870E+03  0.10566000000E+00 0. -1.
        994    1    1    2    0    0  0.14061276419E+03  0.29234806987E+02  0.78410693008E+02  0.23682124096E+03  0.17120000000E+03 0.  0.
        998    1    1    2    0    0 -0.20410120572E+01  0.41308018649E+01  0.62766874672E+03  0.62776531034E+03  0.10000000000E+02 0. -1.
</event>
<event>
 5    1  0.1796476E-008  0.3820529E+03  0.7957747E-01  0.3442268E+00
         13   -1    0    0    0    0  0.00000000000E+00  0.00000000000E+00  0.14999999963E+04  0.15000000000E+04  0.10566000000E+00 0. -1.
        994   -1    0    0    0    0 -0.00000000000E+00 -0.00000000000E+00  0.11368683772E-12  0.17120000000E+03  0.17120000000E+03 0.  0.
         13    1    1    2    0    0  0.10506787809E+02  0.15340303557E+02  0.53956039193E+02  0.57069981888E+02  0.10566000000E+00 0. -1.
        994    1    1    2    0    0 -0.84362623804E+01 -0.12801053345E+02  0.38812148889E+01  0.17192888448E+03  0.17120000000E+03 0.  0.
        998    1    1    2    0    0 -0.20705254284E+01 -0.25392502116E+01  0.14421627422E+04  0.14422011336E+04  0.10000000000E+02 0. -1.
</event>
<event>
 5    1  0.1796476E-008  0.3824909E+03  0.7957747E-01  0.3440384E+00
         13   -1    0    0    0    0  0.00000000000E+00  0.00000000000E+00  0.14999999963E+04  0.15000000000E+04  0.10566000000E+00 0. -1.
        994   -1    0    0    0    0 -0.00000000000E+00 -0.00000000000E+00  0.11368683772E-12  0.17120000000E+03  0.17120000000E+03 0.  0.
         13    1    1    2    0    0  0.15203339518E+02  0.12638971005E+02  0.62903554823E+02  0.65937496873E+02  0.10566000000E+00 0. -1.
        994    1    1    2    0    0 -0.18585887270E+02 -0.17812134882E+02  0.50814072721E+01  0.17319921494E+03  0.17120000000E+03 0.  0.
        998    1    1    2    0    0  0.33825477519E+01  0.51731638772E+01  0.14320150342E+04  0.14320632882E+04  0.10000000000E+02 0. -1.
</event>
<event>
 5    1  0.1796476E-008  0.3736597E+03  0.7957747E-01  0.3479239E+00
         13   -1    0    0    0    0  0.00000000000E+00  0.00000000000E+00  0.14999999963E+04  0.15000000000E+04  0.10566000000E+00 0. -1.
        994   -1    0    0    0    0 -0.00000000000E+00 -0.00000000000E+00  0.11368683772E-12  0.17120000000E+03  0.17120000000E+03 0.  0.
         13    1    1    2    0    0 -0.97226591068E+01 -0.73306507429E+02  0.37796958444E+03  0.38513555024E+03  0.10566000000E+00 0. -1.
        994    1    1    2    0    0  0.28348233386E+02  0.36810880946E+02  0.14775753111E+02  0.17800681496E+03  0.17120000000E+03 0.  0.
        998    1    1    2    0    0 -0.18625574279E+02  0.36495626483E+02  0.11072546587E+04  0.11080576348E+04  0.10000000000E+02 0. -1.
</event>
<event>
 5    1  0.1796476E-008  0.3724949E+03  0.7957747E-01  0.3484503E+00
         13   -1    0    0    0    0  0.00000000000E+00  0.00000000000E+00  0.14999999963E+04  0.15000000000E+04  0.10566000000E+00 0.  1.
        994   -1    0    0    0    0 -0.00000000000E+00 -0.00000000000E+00  0.11368683772E-12  0.17120000000E+03  0.17120000000E+03 0.  0.
         13    1    1    2    0    0  0.22766507132E+02  0.24508799341E+02  0.71851844363E+02  0.79257137183E+02  0.10566000000E+00 0.  1.
        994    1    1    2    0    0 -0.78302971435E+01  0.44223574136E+01  0.82480706382E+01  0.17163432485E+03  0.17120000000E+03 0.  0.
        998    1    1    2    0    0 -0.14936209989E+02 -0.28931156755E+02  0.14199000813E+04  0.14203085380E+04  0.10000000000E+02 0.  1.
</event>
<event>
 5    1  0.1796476E-008  0.3695076E+03  0.7957747E-01  0.3498157E+00
         13   -1    0    0    0    0  0.00000000000E+00  0.00000000000E+00  0.14999999963E+04  0.15000000000E+04  0.10566000000E+00 0.  1.
        994   -1    0    0    0    0 -0.00000000000E+00 -0.00000000000E+00  0.11368683772E-12  0.17120000000E+03  0.17120000000E+03 0.  0.
         13    1    1    2    0    0 -0.58706403931E+02  0.15126421969E+02  0.16308936936E+03  0.17399254026E+03  0.10566000000E+00 0.  1.
        994    1    1    2    0    0  0.47512167215E+02  0.70637070562E+01  0.18774812822E+02  0.17879942838E+03  0.17120000000E+03 0.  0.
        998    1    1    2    0    0  0.11194236717E+02 -0.22190129025E+02  0.13181358141E+04  0.13184080314E+04  0.10000000000E+02 0.  1.
</event>
<event>
 5    1  0.1796476E-008  0.3825894E+03  0.7957747E-01  0.3439961E+00
         13   -1    0    0    0    0  0.00000000000E+00  0.00000000000E+00  0.14999999963E+04  0.15000000000E+04  0.10566000000E+00 0. -1.
        994   -1    0    0    0    0 -0.00000000000E+00 -0.00000000000E+00  0.11368683772E-12  0.17120000000E+03  0.17120000000E+03 0.  0.
         13    1    1    2    0    0  0.16097949458E+02  0.13317630339E+02  0.71662042968E+02  0.74645581390E+02  0.10566000000E+00 0. -1.
        994    1    1    2    0    0 -0.29525242748E+02 -0.42451002025E+01  0.57864611974E+01  0.17387548409E+03  0.17120000000E+03 0.  0.
        998    1    1    2    0    0  0.13427293290E+02 -0.90725301369E+01  0.14225514921E+04  0.14226789345E+04  0.10000000000E+02 0. -1.
</event>
<event>
 5    1  0.1796476E-008  0.3817044E+03  0.7957747E-01  0.3443771E+00
         13   -1    0    0    0    0  0.00000000000E+00  0.00000000000E+00  0.14999999963E+04  0.15000000000E+04  0.10566000000E+00 0.  1.
        994   -1    0    0    0    0 -0.00000000000E+00 -0.00000000000E+00  0.11368683772E-12  0.17120000000E+03  0.17120000000E+03 0.  0.
         13    1    1    2    0    0  0.11922556402E+02  0.65935275019E+01  0.27432489554E+02  0.30629636029E+02  0.10566000000E+00 0.  1.
        994    1    1    2    0    0 -0.30689225962E+01 -0.56849064207E+01  0.34139963126E+01  0.17135586310E+03  0.17120000000E+03 0.  0.
        998    1    1    2    0    0 -0.88536338055E+01 -0.90862108123E+00  0.14691535104E+04  0.14692145009E+04  0.10000000000E+02 0.  1.
</event>
<event>
 5    1  0.1796476E-008  0.3810159E+03  0.7957747E-01  0.3446747E+00
         13   -1    0    0    0    0  0.00000000000E+00  0.00000000000E+00  0.14999999963E+04  0.15000000000E+04  0.10566000000E+00 0.  1.
        994   -1    0    0    0    0 -0.00000000000E+00 -0.00000000000E+00  0.11368683772E-12  0.17120000000E+03  0.17120000000E+03 0.  0.
         13    1    1    2    0    0  0.16670781119E+02  0.27859686712E+02  0.12977625232E+03  0.13377579720E+03  0.10566000000E+00 0.  1.
        994    1    1    2    0    0 -0.23325996261E+02 -0.28784814240E+02  0.82081233893E+01  0.17535529910E+03  0.17120000000E+03 0.  0.
        998    1    1    2    0    0  0.66552151418E+01  0.92512752889E+00  0.13620156206E+04  0.13620689037E+04  0.10000000000E+02 0.  1.
</event>
<event>
 5    1  0.1796476E-008  0.3814770E+03  0.7957747E-01  0.3444753E+00
         13   -1    0    0    0    0  0.00000000000E+00  0.00000000000E+00  0.14999999963E+04  0.15000000000E+04  0.10566000000E+00 0. -1.
        994   -1    0    0    0    0 -0.00000000000E+00 -0.00000000000E+00  0.11368683772E-12  0.17120000000E+03  0.17120000000E+03 0.  0.
         13    1    1    2    0    0  0.11511208363E+02 -0.33059675395E+01  0.19426411644E+02  0.22821787238E+02  0.10566000000E+00 0. -1.
        994    1    1    2    0    0 -0.14182135750E+02  0.48358505921E+01  0.41366937803E+01  0.17190424852E+03  0.17120000000E+03 0.  0.
        998    1    1    2    0    0  0.26709273872E+01 -0.15298830527E+01  0.14764368909E+04  0.14764739642E+04  0.10000000000E+02 0. -1.
</event>
<event>
 5    1  0.1796476E-008  0.3725878E+03  0.7957747E-01  0.3484082E+00
         13   -1    0    0    0    0  0.00000000000E+00  0.00000000000E+00  0.14999999963E+04  0.15000000000E+04  0.10566000000E+00 0.  1.
        994   -1    0    0    0    0 -0.00000000000E+00 -0.00000000000E+00  0.11368683772E-12  0.17120000000E+03  0.17120000000E+03 0.  0.
         13    1    1    2    0    0 -0.93163153878E+02  0.11961230650E+03  0.55229047179E+03  0.57272266718E+03  0.10566000000E+00 0.  1.
        994    1    1    2    0    0  0.96013408126E+02 -0.11531012317E+03  0.96606517610E+02  0.24729993589E+03  0.17120000000E+03 0.  0.
        998    1    1    2    0    0 -0.28502542479E+01 -0.43021833350E+01  0.85110300688E+03  0.85117739693E+03  0.10000000000E+02 0.  0.
</event>
<event>
 5    1  0.1796476E-008  0.3816089E+03  0.7957747E-01  0.3444183E+00
         13   -1    0    0    0    0  0.00000000000E+00  0.00000000000E+00  0.14999999963E+04  0.15000000000E+04  0.10566000000E+00 0.  1.
        994   -1    0    0    0    0 -0.00000000000E+00 -0.00000000000E+00  0.11368683772E-12  0.17120000000E+03  0.17120000000E+03 0.  0.
         13    1    1    2    0    0 -0.38476529298E+02  0.33514350762E+02  0.30473970599E+03  0.30898212664E+03  0.10566000000E+00 0.  1.
        994    1    1    2    0    0  0.31171872458E+02 -0.47115076262E+02  0.14009339679E+02  0.18082371980E+03  0.17120000000E+03 0.  0.
        998    1    1    2    0    0  0.73046568395E+01  0.13600725500E+02  0.11812509506E+04  0.11813941536E+04  0.10000000000E+02 0.  1.
</event>
<event>
 5    1  0.1796476E-008  0.3854219E+03  0.7957747E-01  0.3427885E+00
         13   -1    0    0    0    0  0.00000000000E+00  0.00000000000E+00  0.14999999963E+04  0.15000000000E+04  0.10566000000E+00 0.  1.
        994   -1    0    0    0    0 -0.00000000000E+00 -0.00000000000E+00  0.11368683772E-12  0.17120000000E+03  0.17120000000E+03 0.  0.
         13    1    1    2    0    0 -0.11211546486E+02 -0.76753535169E+01  0.63518539229E+02  0.64955568014E+02  0.10566000000E+00 0.  1.
        994    1    1    2    0    0  0.91844660487E+01  0.96534835970E+01  0.20041168739E+01  0.17172944024E+03  0.17120000000E+03 0.  0.
        998    1    1    2    0    0  0.20270804373E+01 -0.19781300801E+01  0.14344773402E+04  0.14345149917E+04  0.10000000000E+02 0.  1.
</event>
<event>
 5    1  0.1799666E-008  0.3851012E+03  0.7957747E-01  0.3429243E+00
         13   -1    0    0    0    0  0.00000000000E+00  0.00000000000E+00  0.14999999963E+04  0.15000000000E+04  0.10566000000E+00 0.  1.
        994   -1    0    0    0    0 -0.00000000000E+00 -0.00000000000E+00  0.11368683772E-12  0.17120000000E+03  0.17120000000E+03 0.  0.
         13    1    1    2    0    0  0.81047909677E+01  0.82034358748E+01  0.40873353221E+02  0.42469120127E+02  0.10566000000E+00 0.  1.
        994    1    1    2    0    0 -0.88231677635E+01 -0.97852876136E+01  0.21508480350E+01  0.17171973180E+03  0.17120000000E+03 0.  0.
        998    1    1    2    0    0  0.71837679579E+00  0.15818517388E+01  0.14569757950E+04  0.14570111481E+04  0.10000000000E+02 0.  1.
</event>
<event>
 5    1  0.1796476E-008  0.3838750E+03  0.7957747E-01  0.3434457E+00
         13   -1    0    0    0    0  0.00000000000E+00  0.00000000000E+00  0.14999999963E+04  0.15000000000E+04  0.10566000000E+00 0. -1.
        994   -1    0    0    0    0 -0.00000000000E+00 -0.00000000000E+00  0.11368683772E-12  0.17120000000E+03  0.17120000000E+03 0.  0.
         13    1    1    2    0    0  0.17438103335E+02  0.10024601187E+02  0.92692121324E+02  0.94849462816E+02  0.10566000000E+00 0. -1.
        994    1    1    2    0    0 -0.75630270401E+01 -0.98191127102E+01  0.26969003176E+01  0.17166923901E+03  0.17120000000E+03 0.  0.
        998    1    1    2    0    0 -0.98750762946E+01 -0.20548847707E+00  0.14046109746E+04  0.14046812982E+04  0.10000000000E+02 0. -1.
</event>
<event>
 5    1  0.1796476E-008  0.3804942E+03  0.7957747E-01  0.3449010E+00
         13   -1    0    0    0    0  0.00000000000E+00  0.00000000000E+00  0.14999999963E+04  0.15000000000E+04  0.10566000000E+00 0.  1.
        994   -1    0    0    0    0 -0.00000000000E+00 -0.00000000000E+00  0.11368683772E-12  0.17120000000E+03  0.17120000000E+03 0.  0.
         13    1    1    2    0    0 -0.49297377805E+02 -0.22860213727E+02  0.31352797102E+03  0.31820216939E+03  0.10566000000E+00 0.  1.
        994    1    1    2    0    0  0.49924208450E+02  0.13191085486E+02  0.12834797555E+02  0.17927800577E+03  0.17120000000E+03 0.  0.
        998    1    1    2    0    0 -0.62683064481E+00  0.96691282412E+01  0.11736372277E+04  0.11737198248E+04  0.10000000000E+02 0.  1.
</event>
<event>
 5    1  0.1796476E-008  0.3843447E+03  0.7957747E-01  0.3432456E+00
         13   -1    0    0    0    0  0.00000000000E+00  0.00000000000E+00  0.14999999963E+04  0.15000000000E+04  0.10566000000E+00 0. -1.
        994   -1    0    0    0    0 -0.00000000000E+00 -0.00000000000E+00  0.11368683772E-12  0.17120000000E+03  0.17120000000E+03 0.  0.
         13    1    1    2    0    0  0.10510289859E+02  0.66797863591E+01  0.40356648915E+02  0.42234535801E+02  0.10566000000E+00 0. -1.
        994    1    1    2    0    0  0.64078150305E+00 -0.55619893826E+01  0.20591690363E+01  0.17130390102E+03  0.17120000000E+03 0.  0.
        998    1    1    2    0    0 -0.11151071362E+02 -0.11177969766E+01  0.14575841783E+04  0.14576615632E+04  0.10000000000E+02 0. -1.
</event>
<event>
 5    1  0.1796476E-008  0.3750636E+03  0.7957747E-01  0.3472938E+00
         13   -1    0    0    0    0  0.00000000000E+00  0.00000000000E+00  0.14999999963E+04  0.15000000000E+04  0.10566000000E+00 0. -1.
        994   -1    0    0    0    0 -0.00000000000E+00 -0.00000000000E+00  0.11368683772E-12  0.17120000000E+03  0.17120000000E+03 0.  0.
         13    1    1    2    0    0 -0.28937537644E+02  0.35413095584E+01  0.63203973646E+02  0.69603702538E+02  0.10566000000E+00 0. -1.
        994    1    1    2    0    0  0.98299293732E+01 -0.64793760008E+01  0.71172649455E+01  0.17175187127E+03  0.17120000000E+03 0.  0.
        998    1    1    2    0    0  0.19107608271E+02  0.29380664424E+01  0.14296787577E+04  0.14298444262E+04  0.10000000000E+02 0. -1.
</event>
<event>
 5    1  0.1796476E-008  0.3849941E+03  0.7957747E-01  0.3429697E+00
         13   -1    0    0    0    0  0.00000000000E+00  0.00000000000E+00  0.14999999963E+04  0.15000000000E+04  0.10566000000E+00 0.  1.
        994   -1    0    0    0    0 -0.00000000000E+00 -0.00000000000E+00  0.11368683772E-12  0.17120000000E+03  0.17120000000E+03 0.  0.
         13    1    1    2    0    0  0.57145817502E+01  0.90341034523E+01  0.36580063212E+02  0.38110151645E+02  0.10566000000E+00 0.  1.
        994    1    1    2    0    0  0.18713699175E+00  0.34173065589E+01  0.16715964753E+01  0.17124236403E+03  0.17120000000E+03 0.  0.
        998    1    1    2    0    0 -0.59017187420E+01 -0.12451410011E+02  0.14617483366E+04  0.14618474843E+04  0.10000000000E+02 0.  1.
</event>
<event>
 5    1  0.1796476E-008  0.3837615E+03  0.7957747E-01  0.3434942E+00
         13   -1    0    0    0    0  0.00000000000E+00  0.00000000000E+00  0.14999999963E+04  0.15000000000E+04  0.10566000000E+00 0. -1.
        994   -1    0    0    0    0 -0.00000000000E+00 -0.00000000000E+00  0.11368683772E-12  0.17120000000E+03  0.17120000000E+03 0.  0.
         13    1    1    2    0    0  0.10842037864E+02  0.15696296183E+02  0.78781210198E+02  0.81058088697E+02  0.10566000000E+00 0. -1.
        994    1    1    2    0    0 -0.87712900522E+01 -0.13133925236E+02  0.30703195469E+01  0.17195436134E+03  0.17120000000E+03 0.  0.
        998    1    1    2    0    0 -0.20707478119E+01 -0.25623709474E+01  0.14181484665E+04  0.14181875500E+04  0.10000000000E+02 0. -1.
</event>
<event>
 5    1  0.1796476E-008  0.3686652E+03  0.7957747E-01  0.3502048E+00
         13   -1    0    0    0    0  0.00000000000E+00  0.00000000000E+00  0.14999999963E+04  0.15000000000E+04  0.10566000000E+00 0.  1.
        994   -1    0    0    0    0 -0.00000000000E+00 -0.00000000000E+00  0.11368683772E-12  0.17120000000E+03  0.17120000000E+03 0.  0.
         13    1    1    2    0    0  0.94302731433E+02  0.12749875963E+03  0.70650095720E+03  0.72408048762E+03  0.10566000000E+00 0.  1.
        994    1    1    2    0    0 -0.10987405938E+03 -0.10318493141E+03  0.93603451656E+02  0.24655726547E+03  0.17120000000E+03 0.  0.
        998    1    1    2    0    0  0.15571327948E+02 -0.24313828219E+02  0.69989558742E+03  0.70056224690E+03  0.10000000000E+02 0.  1.
</event>
<event>
 5    1  0.1796476E-008  0.3820507E+03  0.7957747E-01  0.3442278E+00
         13   -1    0    0    0    0  0.00000000000E+00  0.00000000000E+00  0.14999999963E+04  0.15000000000E+04  0.10566000000E+00 0.  1.
        994   -1    0    0    0    0 -0.00000000000E+00 -0.00000000000E+00  0.11368683772E-12  0.17120000000E+03  0.17120000000E+03 0.  0.
         13    1    1    2    0    0 -0.26932441301E+02  0.90021157444E+02  0.28895534167E+03  0.30384924852E+03  0.10566000000E+00 0.  1.
        994    1    1    2    0    0 -0.65410714994E+02 -0.51566973692E+02  0.43250592946E+02  0.19523772228E+03  0.17120000000E+03 0.  0.
        998    1    1    2    0    0  0.92343156295E+02 -0.38454183751E+02  0.11677940617E+04  0.11721130292E+04  0.10000000000E+02 0.  1.
</event>
<event>
 5    1  0.1796476E-008  0.3854927E+03  0.7957747E-01  0.3427585E+00
         13   -1    0    0    0    0  0.00000000000E+00  0.00000000000E+00  0.14999999963E+04  0.15000000000E+04  0.10566000000E+00 0.  1.
        994   -1    0    0    0    0 -0.00000000000E+00 -0.00000000000E+00  0.11368683772E-12  0.17120000000E+03  0.17120000000E+03 0.  0.
         13    1    1    2    0    0 -0.10334541818E+02  0.12187174862E+02  0.87593099794E+02  0.89038712262E+02  0.10566000000E+00 0.  1.
        994    1    1    2    0    0  0.79217305857E+01 -0.16111737425E+02  0.24448015228E+01  0.17215620510E+03  0.17120000000E+03 0.  0.
        998    1    1    2    0    0  0.24128112324E+01  0.39245625629E+01  0.14099620950E+04  0.14100050826E+04  0.10000000000E+02 0.  1.
</event>
<event>
 5    1  0.1796476E-008  0.3804823E+03  0.7957747E-01  0.3449061E+00
         13   -1    0    0    0    0  0.00000000000E+00  0.00000000000E+00  0.14999999963E+04  0.15000000000E+04  0.10566000000E+00 0.  1.
        994   -1    0    0    0    0 -0.00000000000E+00 -0.00000000000E+00  0.11368683772E-12  0.17120000000E+03  0.17120000000E+03 0.  0.
         13    1    1    2    0    0  0.15326770700E+01  0.15963815297E+02  0.32090491590E+02  0.35874828395E+02  0.10566000000E+00 0.  1.
        994    1    1    2    0    0 -0.36486712823E+01 -0.52062706808E+01  0.40248169630E+01  0.17136527422E+03  0.17120000000E+03 0.  0.
        998    1    1    2    0    0  0.21159942123E+01 -0.10757544616E+02  0.14638846877E+04  0.14639598974E+04  0.10000000000E+02 0.  1.
</event>
<event>
 5    1  0.1796476E-008  0.3786460E+03  0.7957747E-01  0.3457076E+00
         13   -1    0    0    0    0  0.00000000000E+00  0.00000000000E+00  0.14999999963E+04  0.15000000000E+04  0.10566000000E+00 0.  1.
        994   -1    0    0    0    0 -0.00000000000E+00 -0.00000000000E+00  0.11368683772E-12  0.17120000000E+03  0.17120000000E+03 0.  0.
         13    1    1    2    0    0 -0.20651174725E+02  0.19979949847E+02  0.82210816901E+02  0.87087880862E+02  0.10566000000E+00 0.  1.
        994    1    1    2    0    0  0.12266643245E+02 -0.19809919133E+02  0.66433908055E+01  0.17290598045E+03  0.17120000000E+03 0.  0.
        998    1    1    2    0    0  0.83845314799E+01 -0.17003071440E+00  0.14111457886E+04  0.14112061387E+04  0.10000000000E+02 0.  1.
</event>
<event>
 5    1  0.1796476E-008  0.3788237E+03  0.7957747E-01  0.3456296E+00
         13   -1    0    0    0    0  0.00000000000E+00  0.00000000000E+00  0.14999999963E+04  0.15000000000E+04  0.10566000000E+00 0. -1.
        994   -1    0    0    0    0 -0.00000000000E+00 -0.00000000000E+00  0.11368683772E-12  0.17120000000E+03  0.17120000000E+03 0.  0.
         13    1    1    2    0    0  0.20745576102E+02  0.57169026317E+01  0.46781869204E+02  0.51493847728E+02  0.10566000000E+00 0. -1.
        994    1    1    2    0    0 -0.15778236897E+02 -0.45275776069E+01  0.56328955213E+01  0.17207736990E+03  0.17120000000E+03 0.  0.
        998    1    1    2    0    0 -0.49673392053E+01 -0.11893250248E+01  0.14475852316E+04  0.14476287824E+04  0.10000000000E+02 0. -1.
</event>
<event>
 5    1  0.1796476E-008  0.3808761E+03  0.7957747E-01  0.3447353E+00
         13   -1    0    0    0    0  0.00000000000E+00  0.00000000000E+00  0.14999999963E+04  0.15000000000E+04  0.10566000000E+00 0. -1.
        994   -1    0    0    0    0 -0.00000000000E+00 -0.00000000000E+00  0.11368683772E-12  0.17120000000E+03  0.17120000000E+03 0.  0.
         13    1    1    2    0    0  0.15306922279E+02 -0.11761952449E+02  0.46615806869E+02  0.50454831375E+02  0.10566000000E+00 0. -1.
        994    1    1    2    0    0 -0.22417160906E+02  0.14261226405E+02  0.60481179087E+01  0.17335492901E+03  0.17120000000E+03 0.  0.
        998    1    1    2    0    0  0.71102386271E+01 -0.24992739564E+01  0.14473360715E+04  0.14473902396E+04  0.10000000000E+02 0. -1.
</event>
<event>
 5    1  0.1796476E-008  0.3746328E+03  0.7957747E-01  0.3474866E+00
         13   -1    0    0    0    0  0.00000000000E+00  0.00000000000E+00  0.14999999963E+04  0.15000000000E+04  0.10566000000E+00 0. -1.
        994   -1    0    0    0    0 -0.00000000000E+00 -0.00000000000E+00  0.11368683772E-12  0.17120000000E+03  0.17120000000E+03 0.  0.
         13    1    1    2    0    0 -0.63449855698E+02 -0.18235651513E+03  0.10347952751E+04  0.10526542905E+04  0.10566000000E+00 0. -1.
        994    1    1    2    0    0  0.42174140064E+02  0.17350809947E+03  0.12453552141E+03  0.27695171920E+03  0.17120000000E+03 0.  0.
        998    1    1    2    0    0  0.21275715634E+02  0.88484156635E+01  0.34066919974E+03  0.34159399027E+03  0.10000000000E+02 0.  1.
</event>
<event>
 5    1  0.2102530E-008  0.3862764E+03  0.7957747E-01  0.3424277E+00
         13   -1    0    0    0    0  0.00000000000E+00  0.00000000000E+00  0.14999999963E+04  0.15000000000E+04  0.10566000000E+00 0.  1.
        994   -1    0    0    0    0 -0.00000000000E+00 -0.00000000000E+00  0.11368683772E-12  0.17120000000E+03  0.17120000000E+03 0.  0.
         13    1    1    2    0    0 -0.78558394200E+01  0.70768440217E+01  0.61965538650E+02  0.62861236693E+02  0.10566000000E+00 0.  1.
        994    1    1    2    0    0 -0.66299271827E+01 -0.23153258559E+01  0.11592889666E+01  0.17134789354E+03  0.17120000000E+03 0.  0.
        998    1    1    2    0    0  0.14485766603E+02 -0.47615181657E+01  0.14368751687E+04  0.14369908698E+04  0.10000000000E+02 0.  1.
</event>
<event>
 5    1  0.1796476E-008  0.3845640E+03  0.7957747E-01  0.3431524E+00
         13   -1    0    0    0    0  0.00000000000E+00  0.00000000000E+00  0.14999999963E+04  0.15000000000E+04  0.10566000000E+00 0. -1.
        994   -1    0    0    0    0 -0.00000000000E+00 -0.00000000000E+00  0.11368683772E-12  0.17120000000E+03  0.17120000000E+03 0.  0.
         13    1    1    2    0    0 -0.85744133708E+00 -0.99865408179E+01  0.27289077917E+02  0.29071827269E+02  0.10566000000E+00 0. -1.
        994    1    1    2    0    0 -0.24529123814E+01  0.22873338393E+01  0.18838268937E+01  0.17124321148E+03  0.17120000000E+03 0.  0.
        998    1    1    2    0    0  0.33103537185E+01  0.76992069786E+01  0.14708270915E+04  0.14708849612E+04  0.10000000000E+02 0. -1.
</event>
<event>
 5    1  0.1796476E-008  0.3790772E+03  0.7957747E-01  0.3455186E+00
         13   -1    0    0    0    0  0.00000000000E+00  0.00000000000E+00  0.14999999963E+04  0.15000000000E+04  0.10566000000E+00 0.  1.
        994   -1    0    0    0    0 -0.00000000000E+00 -0.00000000000E+00  0.11368683772E-12  0.17120000000E+03  0.17120000000E+03 0.  0.
         13    1    1    2    0    0 -0.32293473748E+01  0.12577827366E+02  0.16124021286E+02  0.20703276363E+02  0.10566000000E+00 0.  1.
        994    1    1    2    0    0  0.74004028330E+01 -0.13486343316E+02  0.53935853155E+01  0.17197435326E+03  0.17120000000E+03 0.  0.
        998    1    1    2    0    0 -0.41710554581E+01  0.90851595026E+00  0.14784823897E+04  0.14785223704E+04  0.10000000000E+02 0.  1.
</event>
<event>
 5    1  0.1796476E-008  0.3851015E+03  0.7957747E-01  0.3429242E+00
         13   -1    0    0    0    0  0.00000000000E+00  0.00000000000E+00  0.14999999963E+04  0.15000000000E+04  0.10566000000E+00 0. -1.
        994   -1    0    0    0    0 -0.00000000000E+00 -0.00000000000E+00  0.11368683772E-12  0.17120000000E+03  0.17120000000E+03 0.  0.
         13    1    1    2    0    0  0.96231814176E+01 -0.11239588540E+02  0.63526164576E+02  0.65226671852E+02  0.10566000000E+00 0. -1.
        994    1    1    2    0    0 -0.16895577050E+02  0.16897737019E+02  0.34592049756E+01  0.17289418770E+03  0.17120000000E+03 0.  0.
        998    1    1    2    0    0  0.72723956322E+01 -0.56581484789E+01  0.14330146267E+04  0.14330791405E+04  0.10000000000E+02 0. -1.
</event>
<event>
 5    1  0.1796476E-008  0.3798963E+03  0.7957747E-01  0.3451610E+00
         13   -1    0    0    0    0  0.00000000000E+00  0.00000000000E+00  0.14999999963E+04  0.15000000000E+04  0.10566000000E+00 0.  1.
        994   -1    0    0    0    0 -0.00000000000E+00 -0.00000000000E+00  0.11368683772E-12  0.17120000000E+03  0.17120000000E+03 0.  0.
         13    1    1    2    0    0 -0.33507392585E+01  0.17436422641E+02  0.38611703670E+02  0.42498601300E+02  0.10566000000E+00 0.  1.
        994    1    1    2    0    0  0.13677883339E+01  0.90285961112E+01  0.44643830369E+01  0.17150147844E+03  0.17120000000E+03 0.  0.
        998    1    1    2    0    0  0.19829509246E+01 -0.26465018753E+02  0.14569239096E+04  0.14571999203E+04  0.10000000000E+02 0.  1.
</event>
<event>
 5    1  0.1796476E-008  0.3691855E+03  0.7957747E-01  0.3499643E+00
         13   -1    0    0    0    0  0.00000000000E+00  0.00000000000E+00  0.14999999963E+04  0.15000000000E+04  0.10566000000E+00 0.  1.
        994   -1    0    0    0    0 -0.00000000000E+00 -0.00000000000E+00  0.11368683772E-12  0.17120000000E+03  0.17120000000E+03 0.  0.
         13    1    1    2    0    0  0.80131277621E+01  0.72817337169E+02  0.24851535901E+03  0.25908776435E+03  0.10566000000E+00 0.  1.
        994    1    1    2    0    0  0.87331427199E+01 -0.61037777409E+02  0.22996192121E+02  0.18341249386E+03  0.17120000000E+03 0.  0.
        998    1    1    2    0    0 -0.16746270482E+02 -0.11779559760E+02  0.12284884451E+04  0.12286997418E+04  0.10000000000E+02 0.  1.
</event>
<event>
 5    1  0.1796476E-008  0.3828501E+03  0.7957747E-01  0.3438842E+00
         13   -1    0    0    0    0  0.00000000000E+00  0.00000000000E+00  0.14999999963E+04  0.15000000000E+04  0.10566000000E+00 0.  1.
        994   -1    0    0    0    0 -0.00000000000E+00 -0.00000000000E+00  0.11368683772E-12  0.17120000000E+03  0.17120000000E+03 0.  0.
         13    1    1    2    0    0  0.15536008605E+02  0.87934661756E+01  0.69514851116E+02  0.71770594957E+02  0.10566000000E+00 0.  1.
        994    1    1    2    0    0  0.23550531521E+02  0.24065538169E+01  0.45594859222E+01  0.17288912039E+03  0.17120000000E+03 0.  0.
        998    1    1    2    0    0 -0.39086540127E+02 -0.11200019993E+02  0.14259256592E+04  0.14265402847E+04  0.10000000000E+02 0.  1.
</event>
<event>
 5    1  0.1796476E-008  0.3843611E+03  0.7957747E-01  0.3432386E+00
         13   -1    0    0    0    0  0.00000000000E+00  0.00000000000E+00  0.14999999963E+04  0.15000000000E+04  0.10566000000E+00 0. -1.
        994   -1    0    0    0    0 -0.00000000000E+00 -0.00000000000E+00  0.11368683772E-12  0.17120000000E+03  0.17120000000E+03 0.  0.
         13    1    1    2    0    0 -0.93787178807E+01 -0.64717454633E+01  0.31174380236E+02  0.33191821064E+02  0.10566000000E+00 0. -1.
        994    1    1    2    0    0  0.19943419211E+02  0.74973465810E+01  0.34450874799E+01  0.17255508918E+03  0.17120000000E+03 0.  0.
        998    1    1    2    0    0 -0.10564701330E+02 -0.10256011177E+01  0.14653805286E+04  0.14654530898E+04  0.10000000000E+02 0. -1.
</event>
<event>
 5    1  0.1796476E-008  0.3796456E+03  0.7957747E-01  0.3452703E+00
         13   -1    0    0    0    0  0.00000000000E+00  0.00000000000E+00  0.14999999963E+04  0.15000000000E+04  0.10566000000E+00 0.  1.
        994   -1    0    0    0    0 -0.00000000000E+00 -0.00000000000E+00  0.11368683772E-12  0.17120000000E+03  0.17120000000E+03 0.  0.
         13    1    1    2    0    0  0.33021279695E+02 -0.11756691103E+02  0.15112563482E+03  0.15513733710E+03  0.10566000000E+00 0.  1.
        994    1    1    2    0    0 -0.94501079175E+01  0.21272377444E+01  0.46262244871E+01  0.17153621085E+03  0.17120000000E+03 0.  0.
        998    1    1    2    0    0 -0.23571171778E+02  0.96294533584E+01  0.13442481370E+04  0.13445264520E+04  0.10000000000E+02 0.  1.
</event>
<event>
 5    1  0.1796476E-008  0.3724771E+03  0.7957747E-01  0.3484583E+00
         13   -1    0    0    0    0  0.00000000000E+00  0.00000000000E+00  0.14999999963E+04  0.15000000000E+04  0.10566000000E+00 0. -1.
        994   -1    0    0    0    0 -0.00000000000E+00 -0.00000000000E+00  0.11368683772E-12  0.17120000000E+03  0.17120000000E+03 0.  0.
         13    1    1    2    0    0  0.13743061655E+02  0.11378675449E+02  0.16179505741E+02  0.24085962067E+02  0.10566000000E+00 0. -1.
        994    1    1    2    0    0 -0.20903530015E+02 -0.69050182741E+01  0.96433208365E+01  0.17287877395E+03  0.17120000000E+03 0.  0.
        998    1    1    2    0    0  0.71604683600E+01 -0.44736571745E+01  0.14741771697E+04  0.14742352640E+04  0.10000000000E+02 0. -1.
</event>
<event>
 5    1  0.1796476E-008  0.3909187E+03  0.7957747E-01  0.3404952E+00
         13   -1    0    0    0    0  0.00000000000E+00  0.00000000000E+00  0.14999999963E+04  0.15000000000E+04  0.10566000000E+00 0. -1.
        994   -1    0    0    0    0 -0.00000000000E+00 -0.00000000000E+00  0.11368683772E-12  0.17120000000E+03  0.17120000000E+03 0.  0.
         13    1    1    2    0    0  0.36965790421E+02  0.62466633094E+02  0.10287478366E+03  0.12590386090E+03  0.10566000000E+00 0. -1.
        994    1    1    2    0    0 -0.47188145642E+02 -0.56457466810E+02  0.43203426573E+02  0.19128550054E+03  0.17120000000E+03 0.  0.
        998    1    1    2    0    0  0.10222355221E+02 -0.60091662835E+01  0.13539217860E+04  0.13540106386E+04  0.10000000000E+02 0. -1.
</event>
<event>
 5    1  0.1796476E-008  0.3818631E+03  0.7957747E-01  0.3443086E+00
         13   -1    0    0    0    0  0.00000000000E+00  0.00000000000E+00  0.14999999963E+04  0.15000000000E+04  0.10566000000E+00 0. -1.
        994   -1    0    0    0    0 -0.00000000000E+00 -0.00000000000E+00  0.11368683772E-12  0.17120000000E+03  0.17120000000E+03 0.  0.
         13    1    1    2    0    0 -0.13507397983E+02 -0.13682857682E+02  0.54911702901E+02  0.58180552370E+02  0.10566000000E+00 0. -1.
        994    1    1    2    0    0  0.13573192810E+02  0.14888136872E+02  0.45453200777E+01  0.17244125990E+03  0.17120000000E+03 0.  0.
        998    1    1    2    0    0 -0.65794827164E-01 -0.12052791893E+01  0.14405429733E+04  0.14405781877E+04  0.10000000000E+02 0. -1.
</event>
<event>
 5    1  0.1796476E-008  0.3808490E+03  0.7957747E-01  0.3447470E+00
         13   -1    0    0    0    0  0.00000000000E+00  0.00000000000E+00  0.14999999963E+04  0.15000000000E+04  0.10566000000E+00 0. -1.
        994   -1    0    0    0    0 -0.00000000000E+00 -0.00000000000E+00  0.11368683772E-12  0.17120000000E+03  0.17120000000E+03 0.  0.
         13    1    1    2    0    0 -0.16555294250E+02  0.84512313794E-01  0.38028860495E+02  0.41476382492E+02  0.10566000000E+00 0. -1.
        994    1    1    2    0    0 -0.78528083782E+01  0.11857163607E+01  0.39154712011E+01  0.17142882907E+03  0.17120000000E+03 0.  0.
        998    1    1    2    0    0  0.24408102628E+02 -0.12702286745E+01  0.14580556646E+04  0.14582947884E+04  0.10000000000E+02 0. -1.
</event>
<event>
 5    1  0.1796476E-008  0.3845643E+03  0.7957747E-01  0.3431522E+00
         13   -1    0    0    0    0  0.00000000000E+00  0.00000000000E+00  0.14999999963E+04  0.15000000000E+04  0.10566000000E+00 0.  1.
        994   -1    0    0    0    0 -0.00000000000E+00 -0.00000000000E+00  0.11368683772E-12  0.17120000000E+03  0.17120000000E+03 0.  0.
         13    1    1    2    0    0 -0.72171761522E+00 -0.20368679480E+02  0.11794102383E+03  0.11968918183E+03  0.10566000000E+00 0.  1.
        994    1    1    2    0    0  0.31602732896E+01  0.66331152236E+01  0.20244447145E+01  0.17136955366E+03  0.17120000000E+03 0.  0.
        998    1    1    2    0    0 -0.24385556744E+01  0.13735564256E+02  0.13800345277E+04  0.13801412645E+04  0.10000000000E+02 0.  1.
</event>
<event>
 5    1  0.1796476E-008  0.3820225E+03  0.7957747E-01  0.3442399E+00
         13   -1    0    0    0    0  0.00000000000E+00  0.00000000000E+00  0.14999999963E+04  0.15000000000E+04  0.10566000000E+00 0. -1.
        994   -1    0    0    0    0 -0.00000000000E+00 -0.00000000000E+00  0.11368683772E-12  0.17120000000E+03  0.17120000000E+03 0.  0.
         13    1    1    2    0    0  0.20369299615E+03 -0.63818293592E+01  0.93229286563E+03  0.95430684944E+03  0.10566000000E+00 0. -1.
        994    1    1    2    0    0 -0.22658732862E+03 -0.66829556992E+01  0.19836018748E+03  0.34647176417E+03  0.17120000000E+03 0.  0.
        998    1    1    2    0    0  0.22894332466E+02  0.13064785058E+02  0.36934694317E+03  0.37042138639E+03  0.10000000000E+02 0.  1.
</event>
<event>
 5    1  0.1796476E-008  0.3700120E+03  0.7957747E-01  0.3495836E+00
         13   -1    0    0    0    0  0.00000000000E+00  0.00000000000E+00  0.14999999963E+04  0.15000000000E+04  0.10566000000E+00 0.  1.
        994   -1    0    0    0    0 -0.00000000000E+00 -0.00000000000E+00  0.11368683772E-12  0.17120000000E+03  0.17120000000E+03 0.  0.
         13    1    1    2    0    0  0.49211690484E+02  0.41482099903E+01  0.95504202218E+02  0.10751772845E+03  0.10566000000E+00 0.  1.
        994    1    1    2    0    0 -0.64836269944E+02 -0.92855891635E+01  0.26097864706E+02  0.18514994628E+03  0.17120000000E+03 0.  0.
        998    1    1    2    0    0  0.15624579459E+02  0.51373791732E+01  0.13783979294E+04  0.13785323253E+04  0.10000000000E+02 0.  1.
</event>
<event>
 5    1  0.1796476E-008  0.3849103E+03  0.7957747E-01  0.3430053E+00
         13   -1    0    0    0    0  0.00000000000E+00  0.00000000000E+00  0.14999999963E+04  0.15000000000E+04  0.10566000000E+00 0.  1.
        994   -1    0    0    0    0 -0.00000000000E+00 -0.00000000000E+00  0.11368683772E-12  0.17120000000E+03  0.17120000000E+03 0.  0.
         13    1    1    2    0    0  0.13559315114E+02 -0.11454068386E+02  0.89879072459E+02  0.91615007172E+02  0.10566000000E+00 0.  1.
        994    1    1    2    0    0 -0.19635341012E+02  0.42987345285E+01  0.30049064768E+01  0.17240213223E+03  0.17120000000E+03 0.  0.
        998    1    1    2    0    0  0.60760258979E+01  0.71553338572E+01  0.14071160173E+04  0.14071828606E+04  0.10000000000E+02 0.  1.
</event>
<event>
 5    1  0.1796476E-008  0.3853008E+03  0.7957747E-01  0.3428398E+00
         13   -1    0    0    0    0  0.00000000000E+00  0.00000000000E+00  0.14999999963E+04  0.15000000000E+04  0.10566000000E+00 0. -1.
        994   -1    0    0    0    0 -0.00000000000E+00 -0.00000000000E+00  0.11368683772E-12  0.17120000000E+03  0.17120000000E+03 0.  0.
         13    1    1    2    0    0 -0.47087602249E+00  0.11036247971E+02  0.40081694751E+02  0.41576121893E+02  0.10566000000E+00 0. -1.
        994    1    1    2    0    0  0.39264005993E+01 -0.12670563853E+02  0.20592101467E+01  0.17172547905E+03  0.17120000000E+03 0.  0.
        998    1    1    2    0    0 -0.34555245768E+01  0.16343158817E+01  0.14578590914E+04  0.14578983991E+04  0.10000000000E+02 0. -1.
</event>
<event>
 5    1  0.1796476E-008  0.3817034E+03  0.7957747E-01  0.3443775E+00
         13   -1    0    0    0    0  0.00000000000E+00  0.00000000000E+00  0.14999999963E+04  0.15000000000E+04  0.10566000000E+00 0.  1.
        994   -1    0    0    0    0 -0.00000000000E+00 -0.00000000000E+00  0.11368683772E-12  0.17120000000E+03  0.17120000000E+03 0.  0.
         13    1    1    2    0    0  0.17030446914E+02  0.15750376421E+02  0.83698812781E+02  0.86853974604E+02  0.10566000000E+00 0.  1.
        994    1    1    2    0    0 -0.65978873285E+01 -0.52028258763E+01  0.35104519436E+01  0.17144201582E+03  0.17120000000E+03 0.  0.
        998    1    1    2    0    0 -0.10432559585E+02 -0.10547550545E+02  0.14127907316E+04  0.14129040096E+04  0.10000000000E+02 0.  1.
</event>
<event>
 5    1  0.1796476E-008  0.3827121E+03  0.7957747E-01  0.3439434E+00
         13   -1    0    0    0    0  0.00000000000E+00  0.00000000000E+00  0.14999999963E+04  0.15000000000E+04  0.10566000000E+00 0.  1.
        994   -1    0    0    0    0 -0.00000000000E+00 -0.00000000000E+00  0.11368683772E-12  0.17120000000E+03  0.17120000000E+03 0.  0.
         13    1    1    2    0    0  0.58151181278E+00 -0.11476781804E+02  0.23086600216E+02  0.25788698109E+02  0.10566000000E+00 0.  1.
        994    1    1    2    0    0  0.63181449408E+00  0.42561644628E+01  0.28316688698E+01  0.17127747217E+03  0.17120000000E+03 0.  0.
        998    1    1    2    0    0 -0.12133263069E+01  0.72206173413E+01  0.14740817272E+04  0.14741338297E+04  0.10000000000E+02 0.  1.
</event>
<event>
 5    1  0.1796476E-008  0.3825533E+03  0.7957747E-01  0.3440116E+00
         13   -1    0    0    0    0  0.00000000000E+00  0.00000000000E+00  0.14999999963E+04  0.15000000000E+04  0.10566000000E+00 0.  1.
        994   -1    0    0    0    0 -0.00000000000E+00 -0.00000000000E+00  0.11368683772E-12  0.17120000000E+03  0.17120000000E+03 0.  0.
         13    1    1    2    0    0 -0.12288537971E+02  0.28499595304E+02  0.15783099501E+03  0.16085356461E+03  0.10566000000E+00 0.  1.
        994    1    1    2    0    0  0.99372405070E+01 -0.24714241865E+02  0.52054382319E+01  0.17333804858E+03  0.17120000000E+03 0.  0.
        998    1    1    2    0    0  0.23512974635E+01 -0.37853534391E+01  0.13369635630E+04  0.13370083868E+04  0.10000000000E+02 0.  1.
</event>
<event>
 5    1  0.1796476E-008  0.3876412E+03  0.7957747E-01  0.3418547E+00
         13   -1    0    0    0    0  0.00000000000E+00  0.00000000000E+00  0.14999999963E+04  0.15000000000E+04  0.10566000000E+00 0.  1.
        994   -1    0    0    0    0 -0.00000000000E+00 -0.00000000000E+00  0.11368683772E-12  0.17120000000E+03  0.17120000000E+03 0.  0.
         13    1    1    2    0    0  0.11621032283E+03 -0.10806498899E+03  0.34870246107E+03  0.38311394976E+03  0.10566000000E+00 0.  1.
        994    1    1    2    0    0 -0.96074657883E+02  0.17794462221E+03  0.19501643801E+03  0.32899161016E+03  0.17120000000E+03 0.  0.
        998    1    1    2    0    0 -0.20135664950E+02 -0.69879633222E+02  0.95628109720E+03  0.95909444008E+03  0.10000000000E+02 0.  1.
</event>
<event>
 5    1  0.1796476E-008  0.3834198E+03  0.7957747E-01  0.3436402E+00
         13   -1    0    0    0    0  0.00000000000E+00  0.00000000000E+00  0.14999999963E+04  0.15000000000E+04  0.10566000000E+00 0. -1.
        994   -1    0    0    0    0 -0.00000000000E+00 -0.00000000000E+00  0.11368683772E-12  0.17120000000E+03  0.17120000000E+03 0.  0.
         13    1    1    2    0    0 -0.26957874594E+02  0.68535116905E+01  0.14511604416E+03  0.14775782572E+03  0.10566000000E+00 0. -1.
        994    1    1    2    0    0  0.25184786984E+02 -0.18304222900E+02  0.56274858991E+01  0.17409889910E+03  0.17120000000E+03 0.  0.
        998    1    1    2    0    0  0.17730876101E+01  0.11450711210E+02  0.13492564662E+04  0.13493432752E+04  0.10000000000E+02 0. -1.
</event>
<event>
 5    1  0.1796476E-008  0.3816868E+03  0.7957747E-01  0.3443847E+00
         13   -1    0    0    0    0  0.00000000000E+00  0.00000000000E+00  0.14999999963E+04  0.15000000000E+04  0.10566000000E+00 0.  1.
        994   -1    0    0    0    0 -0.00000000000E+00 -0.00000000000E+00  0.11368683772E-12  0.17120000000E+03  0.17120000000E+03 0.  0.
         13    1    1    2    0    0  0.27800844663E+02 -0.18022577615E+02  0.17499042206E+03  0.17809929603E+03  0.10566000000E+00 0.  1.
        994    1    1    2    0    0 -0.13658913866E+02  0.21502136754E+01  0.39199423978E+01  0.17180219817E+03  0.17120000000E+03 0.  0.
        998    1    1    2    0    0 -0.14141930797E+02  0.15872363940E+02  0.13210896318E+04  0.13212985058E+04  0.10000000000E+02 0.  1.
</event>
<event>
 5    1  0.1796476E-008  0.3859698E+03  0.7957747E-01  0.3425569E+00
         13   -1    0    0    0    0  0.00000000000E+00  0.00000000000E+00  0.14999999963E+04  0.15000000000E+04  0.10566000000E+00 0.  1.
        994   -1    0    0    0    0 -0.00000000000E+00 -0.00000000000E+00  0.11368683772E-12  0.17120000000E+03  0.17120000000E+03 0.  0.
         13    1    1    2    0    0 -0.11314316958E+02 -0.22148269393E+01  0.55454804586E+02  0.56640672157E+02  0.10566000000E+00 0.  1.
        994    1    1    2    0    0  0.16794541700E+02 -0.48439014506E+01  0.21516366447E+01  0.17210342690E+03  0.17120000000E+03 0.  0.
        998    1    1    2    0    0 -0.54802247420E+01  0.70587283899E+01  0.14423935550E+04  0.14424559009E+04  0.10000000000E+02 0.  1.
</event>
<event>
 5    1  0.1796476E-008  0.3828198E+03  0.7957747E-01  0.3438972E+00
         13   -1    0    0    0    0  0.00000000000E+00  0.00000000000E+00  0.14999999963E+04  0.15000000000E+04  0.10566000000E+00 0. -1.
        994   -1    0    0    0    0 -0.00000000000E+00 -0.00000000000E+00  0.11368683772E-12  0.17120000000E+03  0.17120000000E+03 0.  0.
         13    1    1    2    0    0  0.10685792343E+02  0.63203633074E+01  0.26962695306E+02  0.29683855082E+02  0.10566000000E+00 0. -1.
        994    1    1    2    0    0 -0.11305731169E+02 -0.71250415059E+01  0.33081677202E+01  0.17175264117E+03  0.17120000000E+03 0.  0.
        998    1    1    2    0    0  0.61993882679E+00  0.80467819850E+00  0.14697291333E+04  0.14697635038E+04  0.10000000000E+02 0. -1.
</event>
<event>
 5    1  0.1796476E-008  0.3767396E+03  0.7957747E-01  0.3465479E+00
         13   -1    0    0    0    0  0.00000000000E+00  0.00000000000E+00  0.14999999963E+04  0.15000000000E+04  0.10566000000E+00 0.  1.
        994   -1    0    0    0    0 -0.00000000000E+00 -0.00000000000E+00  0.11368683772E-12  0.17120000000E+03  0.17120000000E+03 0.  0.
         13    1    1    2    0    0 -0.48422708091E+02  0.41472569739E+02  0.26634437775E+03  0.27386871202E+03  0.10566000000E+00 0.  1.
        994    1    1    2    0    0  0.53568334752E+02 -0.51230655653E+02  0.24586342807E+02  0.18817033459E+03  0.17120000000E+03 0.  0.
        998    1    1    2    0    0 -0.51456266613E+01  0.97580859135E+01  0.12090692757E+04  0.12091609534E+04  0.10000000000E+02 0.  1.
</event>
<event>
 5    1  0.1796476E-008  0.3732095E+03  0.7957747E-01  0.3481270E+00
         13   -1    0    0    0    0  0.00000000000E+00  0.00000000000E+00  0.14999999963E+04  0.15000000000E+04  0.10566000000E+00 0.  1.
        994   -1    0    0    0    0 -0.00000000000E+00 -0.00000000000E+00  0.11368683772E-12  0.17120000000E+03  0.17120000000E+03 0.  0.
         13    1    1    2    0    0 -0.46854358454E+02  0.36576484785E+02  0.28264997900E+03  0.28883246344E+03  0.10566000000E+00 0.  1.
        994    1    1    2    0    0  0.12742250907E+01 -0.67737543136E+01  0.77635809741E+01  0.17151449089E+03  0.17120000000E+03 0.  0.
        998    1    1    2    0    0  0.45580133364E+02 -0.29802730471E+02  0.12095864363E+04  0.12108530457E+04  0.10000000000E+02 0.  1.
</event>
<event>
 5    1  0.1796476E-008  0.4469023E+03  0.7957747E-01  0.3203227E+00
         13   -1    0    0    0    0  0.00000000000E+00  0.00000000000E+00  0.14999999963E+04  0.15000000000E+04  0.10566000000E+00 0.  1.
        994   -1    0    0    0    0 -0.00000000000E+00 -0.00000000000E+00  0.11368683772E-12  0.17120000000E+03  0.17120000000E+03 0.  0.
         13    1    1    2    0    0 -0.22539366996E+02 -0.41564235841E+02 -0.36654351245E+01  0.47424206312E+02  0.10566000000E+00 0.  1.
        994    1    1    2    0    0  0.24599820868E+01  0.61862113612E+02  0.78441579802E+02  0.19823091095E+03  0.17120000000E+03 0.  0.
        998    1    1    2    0    0  0.20079384910E+02 -0.20297877771E+02  0.14252238516E+04  0.14255448827E+04  0.10000000000E+02 0.  1.
</event>
<event>
 5    1  0.1796476E-008  0.3736738E+03  0.7957747E-01  0.3479175E+00
         13   -1    0    0    0    0  0.00000000000E+00  0.00000000000E+00  0.14999999963E+04  0.15000000000E+04  0.10566000000E+00 0. -1.
        994   -1    0    0    0    0 -0.00000000000E+00 -0.00000000000E+00  0.11368683772E-12  0.17120000000E+03  0.17120000000E+03 0.  0.
         13    1    1    2    0    0  0.62610281071E+02  0.45408623904E+02  0.46520011526E+03  0.47158578098E+03  0.10566000000E+00 0. -1.
        994    1    1    2    0    0 -0.30361073344E+02 -0.98198192006E+01  0.10845936683E+02  0.17448581021E+03  0.17120000000E+03 0.  0.
        998    1    1    2    0    0 -0.32249207727E+02 -0.35588804703E+02  0.10239539443E+04  0.10251284088E+04  0.10000000000E+02 0. -1.
</event>
<event>
 5    1  0.1796476E-008  0.3855364E+03  0.7957747E-01  0.3427400E+00
         13   -1    0    0    0    0  0.00000000000E+00  0.00000000000E+00  0.14999999963E+04  0.15000000000E+04  0.10566000000E+00 0. -1.
        994   -1    0    0    0    0 -0.00000000000E+00 -0.00000000000E+00  0.11368683772E-12  0.17120000000E+03  0.17120000000E+03 0.  0.
         13    1    1    2    0    0 -0.29318068509E+00  0.14571612986E+02  0.83832716901E+02  0.85090266464E+02  0.10566000000E+00 0. -1.
        994    1    1    2    0    0  0.17952568748E+02 -0.10901630259E+01  0.24267351219E+01  0.17215926412E+03  0.17120000000E+03 0.  0.
        998    1    1    2    0    0 -0.17659388062E+02 -0.13481449960E+02  0.14137405443E+04  0.14139504694E+04  0.10000000000E+02 0. -1.
</event>
<event>
 5    1  0.1796476E-008  0.3793188E+03  0.7957747E-01  0.3454130E+00
         13   -1    0    0    0    0  0.00000000000E+00  0.00000000000E+00  0.14999999963E+04  0.15000000000E+04  0.10566000000E+00 0. -1.
        994   -1    0    0    0    0 -0.00000000000E+00 -0.00000000000E+00  0.11368683772E-12  0.17120000000E+03  0.17120000000E+03 0.  0.
         13    1    1    2    0    0  0.32496545307E+02 -0.75459021667E+01  0.13135816519E+03  0.13552839121E+03  0.10566000000E+00 0. -1.
        994    1    1    2    0    0 -0.17152036658E+01  0.32650791103E+02  0.80674110885E+01  0.17448077030E+03  0.17120000000E+03 0.  0.
        998    1    1    2    0    0 -0.30781341641E+02 -0.25104888936E+02  0.13605744200E+04  0.13611908385E+04  0.10000000000E+02 0. -1.
</event>
<event>
 5    1  0.1796476E-008  0.3824224E+03  0.7957747E-01  0.3440678E+00
         13   -1    0    0    0    0  0.00000000000E+00  0.00000000000E+00  0.14999999963E+04  0.15000000000E+04  0.10566000000E+00 0. -1.
        994   -1    0    0    0    0 -0.00000000000E+00 -0.00000000000E+00  0.11368683772E-12  0.17120000000E+03  0.17120000000E+03 0.  0.
         13    1    1    2    0    0 -0.14354956366E+02 -0.15087964707E+00  0.33886413248E+02  0.36802006790E+02  0.10566000000E+00 0. -1.
        994    1    1    2    0    0  0.13248146134E+02  0.51801291500E+00  0.34984889134E+01  0.17174824930E+03  0.17120000000E+03 0.  0.
        998    1    1    2    0    0  0.11068102322E+01 -0.36713326793E+00  0.14626150941E+04  0.14626497439E+04  0.10000000000E+02 0.  0.
</event>
<event>
 5    1  0.1796476E-008  0.3856886E+03  0.7957747E-01  0.3426757E+00
         13   -1    0    0    0    0  0.00000000000E+00  0.00000000000E+00  0.14999999963E+04  0.15000000000E+04  0.10566000000E+00 0.  1.
        994   -1    0    0    0    0 -0.00000000000E+00 -0.00000000000E+00  0.11368683772E-12  0.17120000000E+03  0.17120000000E+03 0.  0.
         13    1    1    2    0    0 -0.13709274419E+02  0.18683721722E+01  0.75985136706E+02  0.77234624256E+02  0.10566000000E+00 0.  1.
        994    1    1    2    0    0  0.65247371128E+01 -0.47321875110E+01  0.15018693637E+01  0.17139621176E+03  0.17120000000E+03 0.  0.
        998    1    1    2    0    0  0.71845373058E+01  0.28638153388E+01  0.14225129902E+04  0.14225691640E+04  0.10000000000E+02 0.  1.
</event>
<event>
 5    1  0.1796476E-008  0.3838911E+03  0.7957747E-01  0.3434389E+00
         13   -1    0    0    0    0  0.00000000000E+00  0.00000000000E+00  0.14999999963E+04  0.15000000000E+04  0.10566000000E+00 0. -1.
        994   -1    0    0    0    0 -0.00000000000E+00 -0.00000000000E+00  0.11368683772E-12  0.17120000000E+03  0.17120000000E+03 0.  0.
         13    1    1    2    0    0  0.14623905881E+02  0.10011104796E+02  0.70757795434E+02  0.72943523504E+02  0.10566000000E+00 0. -1.
        994    1    1    2    0    0 -0.83301900025E+01 -0.11413955303E+02  0.28410025365E+01  0.17180565106E+03  0.17120000000E+03 0.  0.
        998    1    1    2    0    0 -0.62937158783E+01  0.14028505067E+01  0.14264011983E+04  0.14264508254E+04  0.10000000000E+02 0. -1.
</event>
<event>
 5    1  0.1796476E-008  0.3753542E+03  0.7957747E-01  0.3471640E+00
         13   -1    0    0    0    0  0.00000000000E+00  0.00000000000E+00  0.14999999963E+04  0.15000000000E+04  0.10566000000E+00 0.  1.
        994   -1    0    0    0    0 -0.00000000000E+00 -0.00000000000E+00  0.11368683772E-12  0.17120000000E+03  0.17120000000E+03 0.  0.
         13    1    1    2    0    0 -0.21657256383E+02  0.29796315832E+02  0.10397642737E+03  0.11030850287E+03  0.10566000000E+00 0.  1.
        994    1    1    2    0    0 -0.31981034189E+00 -0.23038056549E+02  0.83013476186E+01  0.17294278447E+03  0.17120000000E+03 0.  0.
        998    1    1    2    0    0  0.21977066725E+02 -0.67582592826E+01  0.13877222213E+04  0.13879487127E+04  0.10000000000E+02 0.  1.
</event>
<event>
 5    1  0.1796476E-008  0.3854056E+03  0.7957747E-01  0.3427954E+00
         13   -1    0    0    0    0  0.00000000000E+00  0.00000000000E+00  0.14999999963E+04  0.15000000000E+04  0.10566000000E+00 0. -1.
        994   -1    0    0    0    0 -0.00000000000E+00 -0.00000000000E+00  0.11368683772E-12  0.17120000000E+03  0.17120000000E+03 0.  0.
         13    1    1    2    0    0  0.14634007391E+02  0.70222806184E+01  0.90049900091E+02  0.91501159926E+02  0.10566000000E+00 0. -1.
        994    1    1    2    0    0 -0.11241642972E+02 -0.88938766333E+01  0.21040415059E+01  0.17181193954E+03  0.17120000000E+03 0.  0.
        998    1    1    2    0    0 -0.33923644192E+01  0.18715960149E+01  0.14078460547E+04  0.14078869005E+04  0.10000000000E+02 0. -1.
</event>
<event>
 5    1  0.1796476E-008  0.3908963E+03  0.7957747E-01  0.3405044E+00
         13   -1    0    0    0    0  0.00000000000E+00  0.00000000000E+00  0.14999999963E+04  0.15000000000E+04  0.10566000000E+00 0. -1.
        994   -1    0    0    0    0 -0.00000000000E+00 -0.00000000000E+00  0.11368683772E-12  0.17120000000E+03  0.17120000000E+03 0.  0.
         13    1    1    2    0    0  0.12945836711E+02 -0.64093568992E+01 -0.55770666920E+01  0.15485134192E+02  0.10566000000E+00 0. -1.
        994    1    1    2    0    0 -0.22631202496E+02 -0.10049989979E+02  0.24764299229E+02  0.17474519776E+03  0.17120000000E+03 0.  0.
        998    1    1    2    0    0  0.96853657845E+01  0.16459346878E+02  0.14808127637E+04  0.14809696680E+04  0.10000000000E+02 0. -1.
</event>
<event>
 5    1  0.1796476E-008  0.3797637E+03  0.7957747E-01  0.3452188E+00
         13   -1    0    0    0    0  0.00000000000E+00  0.00000000000E+00  0.14999999963E+04  0.15000000000E+04  0.10566000000E+00 0. -1.
        994   -1    0    0    0    0 -0.00000000000E+00 -0.00000000000E+00  0.11368683772E-12  0.17120000000E+03  0.17120000000E+03 0.  0.
         13    1    1    2    0    0 -0.61855140875E+01 -0.28464711150E+02  0.10805347880E+03  0.11191097270E+03  0.10566000000E+00 0. -1.
        994    1    1    2    0    0 -0.10053409123E+02  0.22561041075E+01  0.46077280922E+01  0.17157165325E+03  0.17120000000E+03 0.  0.
        998    1    1    2    0    0  0.16238923211E+02  0.26208607043E+02  0.13873387894E+04  0.13877173741E+04  0.10000000000E+02 0. -1.
</event>
<event>
 5    1  0.1796476E-008  0.3810346E+03  0.7957747E-01  0.3446666E+00
         13   -1    0    0    0    0  0.00000000000E+00  0.00000000000E+00  0.14999999963E+04  0.15000000000E+04  0.10566000000E+00 0. -1.
        994   -1    0    0    0    0 -0.00000000000E+00 -0.00000000000E+00  0.11368683772E-12  0.17120000000E+03  0.17120000000E+03 0.  0.
         13    1    1    2    0    0 -0.20245797315E+02 -0.41149055842E+01  0.60492900530E+02  0.63923602335E+02  0.10566000000E+00 0. -1.
        994    1    1    2    0    0 -0.18975373269E+01  0.25038468108E+02  0.57152368376E+01  0.17312605080E+03  0.17120000000E+03 0.  0.
        998    1    1    2    0    0  0.22143334642E+02 -0.20923562524E+02  0.14337918589E+04  0.14341503469E+04  0.10000000000E+02 0. -1.
</event>
<event>
 5    1  0.1796476E-008  0.3803194E+03  0.7957747E-01  0.3449769E+00
         13   -1    0    0    0    0  0.00000000000E+00  0.00000000000E+00  0.14999999963E+04  0.15000000000E+04  0.10566000000E+00 0.  1.
        994   -1    0    0    0    0 -0.00000000000E+00 -0.00000000000E+00  0.11368683772E-12  0.17120000000E+03  0.17120000000E+03 0.  0.
         13    1    1    2    0    0  0.86529025667E+00  0.36288516546E+02  0.20887850156E+03  0.21200906758E+03  0.10566000000E+00 0.  1.
        994    1    1    2    0    0  0.39507118785E+01  0.84450837746E+01  0.42623370734E+01  0.17150666192E+03  0.17120000000E+03 0.  0.
        998    1    1    2    0    0 -0.48160021352E+01 -0.44733600321E+02  0.12868591576E+04  0.12876842705E+04  0.10000000000E+02 0.  1.
</event>
<event>
 5    1  0.1796476E-008  0.3851964E+03  0.7957747E-01  0.3428840E+00
         13   -1    0    0    0    0  0.00000000000E+00  0.00000000000E+00  0.14999999963E+04  0.15000000000E+04  0.10566000000E+00 0.  1.
        994   -1    0    0    0    0 -0.00000000000E+00 -0.00000000000E+00  0.11368683772E-12  0.17120000000E+03  0.17120000000E+03 0.  0.
         13    1    1    2    0    0 -0.15369925156E+02  0.81819610210E+01  0.10369981275E+03  0.10515151646E+03  0.10566000000E+00 0.  1.
        994    1    1    2    0    0  0.11938454846E+02  0.95438440469E+01  0.23008034543E+01  0.17189632154E+03  0.17120000000E+03 0.  0.
        998    1    1    2    0    0  0.34314703100E+01 -0.17725805068E+02  0.13939993801E+04  0.13941521620E+04  0.10000000000E+02 0.  1.
</event>
<event>
 5    1  0.1796476E-008  0.3815340E+03  0.7957747E-01  0.3444506E+00
         13   -1    0    0    0    0  0.00000000000E+00  0.00000000000E+00  0.14999999963E+04  0.15000000000E+04  0.10566000000E+00 0. -1.
        994   -1    0    0    0    0 -0.00000000000E+00 -0.00000000000E+00  0.11368683772E-12  0.17120000000E+03  0.17120000000E+03 0.  0.
         13    1    1    2    0    0 -0.38651736081E+01 -0.93077916144E+01  0.13541723288E+02  0.16880876322E+02  0.10566000000E+00 0. -1.
        994    1    1    2    0    0  0.99863788759E+01  0.83927122133E+01  0.39269549019E+01  0.17174116093E+03  0.17120000000E+03 0.  0.
        998    1    1    2    0    0 -0.61212052678E+01  0.91507940109E+00  0.14825313181E+04  0.14825779628E+04  0.10000000000E+02 0. -1.
</event>
<event>
 5    1  0.1796476E-008  0.3760479E+03  0.7957747E-01  0.3468549E+00
         13   -1    0    0    0    0  0.00000000000E+00  0.00000000000E+00  0.14999999963E+04  0.15000000000E+04  0.10566000000E+00 0. -1.
        994   -1    0    0    0    0 -0.00000000000E+00 -0.00000000000E+00  0.11368683772E-12  0.17120000000E+03  0.17120000000E+03 0.  0.
         13    1    1    2    0    0 -0.27426646374E+01 -0.60517708291E+02  0.30612979419E+03  0.31206630270E+03  0.10566000000E+00 0. -1.
        994    1    1    2    0    0 -0.36255899433E+02  0.34607243766E+02  0.14698698693E+02  0.17899062352E+03  0.17120000000E+03 0.  0.
        998    1    1    2    0    0  0.38998564070E+02  0.25910464525E+02  0.11791715034E+04  0.11801430738E+04  0.10000000000E+02 0. -1.
</event>
<event>
 5    1  0.1796476E-008  0.3789588E+03  0.7957747E-01  0.3455705E+00
         13   -1    0    0    0    0  0.00000000000E+00  0.00000000000E+00  0.14999999963E+04  0.15000000000E+04  0.10566000000E+00 0.  1.
        994   -1    0    0    0    0 -0.00000000000E+00 -0.00000000000E+00  0.11368683772E-12  0.17120000000E+03  0.17120000000E+03 0.  0.
         13    1    1    2    0    0 -0.27829169292E+01 -0.17490979990E+02  0.31455584015E+02  0.36099084994E+02  0.10566000000E+00 0.  1.
        994    1    1    2    0    0 -0.38023960835E+01  0.16332505294E+02  0.56035248513E+01  0.17211057038E+03  0.17120000000E+03 0.  0.
        998    1    1    2    0    0  0.65853130127E+01  0.11584746955E+01  0.14629408874E+04  0.14629903446E+04  0.10000000000E+02 0.  1.
</event>
<event>
 5    1  0.1796476E-008  0.3685859E+03  0.7957747E-01  0.3502415E+00
         13   -1    0    0    0    0  0.00000000000E+00  0.00000000000E+00  0.14999999963E+04  0.15000000000E+04  0.10566000000E+00 0.  1.
        994   -1    0    0    0    0 -0.00000000000E+00 -0.00000000000E+00  0.11368683772E-12  0.17120000000E+03  0.17120000000E+03 0.  0.
         13    1    1    2    0    0 -0.90857670564E+01  0.17707644610E+02  0.15003831223E+02  0.24924645555E+02  0.10566000000E+00 0.  1.
        994    1    1    2    0    0 -0.62469129916E+01 -0.32536336881E+02  0.13833526557E+02  0.17492410811E+03  0.17120000000E+03 0.  0.
        998    1    1    2    0    0  0.15332680048E+02  0.14828692271E+02  0.14711626385E+04  0.14713512463E+04  0.10000000000E+02 0.  1.
</event>
<event>
 5    1  0.1796476E-008  0.3838000E+03  0.7957747E-01  0.3434778E+00
         13   -1    0    0    0    0  0.00000000000E+00  0.00000000000E+00  0.14999999963E+04  0.15000000000E+04  0.10566000000E+00 0.  1.
        994   -1    0    0    0    0 -0.00000000000E+00 -0.00000000000E+00  0.11368683772E-12  0.17120000000E+03  0.17120000000E+03 0.  0.
         13    1    1    2    0    0  0.12929668214E+02 -0.44482302472E+01  0.41100283372E+02  0.43315211298E+02  0.10566000000E+00 0.  1.
        994    1    1    2    0    0 -0.10553560889E+02  0.25319804881E+01  0.26160671989E+01  0.17156361030E+03  0.17120000000E+03 0.  0.
        998    1    1    2    0    0 -0.23761073250E+01  0.19162497591E+01  0.14562836457E+04  0.14563211784E+04  0.10000000000E+02 0.  1.
</event>
<event>
 5    1  0.1796476E-008  0.3864087E+03  0.7957747E-01  0.3423719E+00
         13   -1    0    0    0    0  0.00000000000E+00  0.00000000000E+00  0.14999999963E+04  0.15000000000E+04  0.10566000000E+00 0.  1.
        994   -1    0    0    0    0 -0.00000000000E+00 -0.00000000000E+00  0.11368683772E-12  0.17120000000E+03  0.17120000000E+03 0.  0.
         13    1    1    2    0    0  0.38892833837E+02  0.58676833789E+02  0.11365578611E+03  0.13369095791E+03  0.10566000000E+00 0.  1.
        994    1    1    2    0    0 -0.26166299931E+02 -0.54372828549E+02  0.33532918469E+02  0.18459408538E+03  0.17120000000E+03 0.  0.
        998    1    1    2    0    0 -0.12726533906E+02 -0.43040052395E+01  0.13528112917E+04  0.13529149567E+04  0.10000000000E+02 0.  1.
</event>
<event>
 5    1  0.1796476E-008  0.3777228E+03  0.7957747E-01  0.3461134E+00
         13   -1    0    0    0    0  0.00000000000E+00  0.00000000000E+00  0.14999999963E+04  0.15000000000E+04  0.10566000000E+00 0.  1.
        994   -1    0    0    0    0 -0.00000000000E+00 -0.00000000000E+00  0.11368683772E-12  0.17120000000E+03  0.17120000000E+03 0.  0.
         13    1    1    2    0    0  0.17989095229E+02  0.47999213040E+02  0.21434136165E+03  0.22038548609E+03  0.10566000000E+00 0.  1.
        994    1    1    2    0    0 -0.12366149786E+02 -0.49136162039E+02  0.13983696630E+02  0.17908731907E+03  0.17120000000E+03 0.  0.
        998    1    1    2    0    0 -0.56229454426E+01  0.11369489995E+01  0.12716749380E+04  0.12717271948E+04  0.10000000000E+02 0.  1.
</event>
<event>
 5    1  0.1796476E-008  0.3757435E+03  0.7957747E-01  0.3469904E+00
         13   -1    0    0    0    0  0.00000000000E+00  0.00000000000E+00  0.14999999963E+04  0.15000000000E+04  0.10566000000E+00 0. -1.
        994   -1    0    0    0    0 -0.00000000000E+00 -0.00000000000E+00  0.11368683772E-12  0.17120000000E+03  0.17120000000E+03 0.  0.
         13    1    1    2    0    0 -0.36896254989E+02 -0.76112007030E+01  0.11946044685E+03  0.12526002369E+03  0.10566000000E+00 0. -1.
        994    1    1    2    0    0  0.11635287796E+02 -0.23446831162E+02  0.86239946643E+01  0.17340399966E+03  0.17120000000E+03 0.  0.
        998    1    1    2    0    0  0.25260967193E+02  0.31058031865E+02  0.13719155548E+04  0.13725359767E+04  0.10000000000E+02 0. -1.
</event>
<event>
 5    1  0.1796476E-008  0.3779842E+03  0.7957747E-01  0.3459983E+00
         13   -1    0    0    0    0  0.00000000000E+00  0.00000000000E+00  0.14999999963E+04  0.15000000000E+04  0.10566000000E+00 0.  1.
        994   -1    0    0    0    0 -0.00000000000E+00 -0.00000000000E+00  0.11368683772E-12  0.17120000000E+03  0.17120000000E+03 0.  0.
         13    1    1    2    0    0  0.40713158137E+02 -0.74606083152E+02  0.47782800482E+03  0.48532797390E+03  0.10566000000E+00 0.  1.
        994    1    1    2    0    0 -0.30884650841E+02  0.79215890424E+02  0.29881614334E+02  0.19347188382E+03  0.17120000000E+03 0.  0.
        998    1    1    2    0    0 -0.98285072962E+01 -0.46098072718E+01  0.99229037712E+03  0.99240014228E+03  0.10000000000E+02 0.  1.
</event>
<event>
 5    1  0.1796476E-008  0.3785885E+03  0.7957747E-01  0.3457328E+00
         13   -1    0    0    0    0  0.00000000000E+00  0.00000000000E+00  0.14999999963E+04  0.15000000000E+04  0.10566000000E+00 0.  1.
        994   -1    0    0    0    0 -0.00000000000E+00 -0.00000000000E+00  0.11368683772E-12  0.17120000000E+03  0.17120000000E+03 0.  0.
         13    1    1    2    0    0 -0.73735267668E+02 -0.45636405214E+02  0.20093090954E+03  0.21884426598E+03  0.10566000000E+00 0.  1.
        994    1    1    2    0    0  0.97109550976E+02  0.16194528268E+02  0.51384013513E+02  0.20406441258E+03  0.17120000000E+03 0.  0.
        998    1    1    2    0    0 -0.23374283308E+02  0.29441876946E+02  0.12476850732E+04  0.12482913214E+04  0.10000000000E+02 0.  1.
</event>
<event>
 5    1  0.1796476E-008  0.3819284E+03  0.7957747E-01  0.3442804E+00
         13   -1    0    0    0    0  0.00000000000E+00  0.00000000000E+00  0.14999999963E+04  0.15000000000E+04  0.10566000000E+00 0.  1.
        994   -1    0    0    0    0 -0.00000000000E+00 -0.00000000000E+00  0.11368683772E-12  0.17120000000E+03  0.17120000000E+03 0.  0.
         13    1    1    2    0    0 -0.46286229438E+02 -0.52711607546E+02  0.18129778147E+03  0.19439605278E+03  0.10566000000E+00 0.  1.
        994    1    1    2    0    0 -0.10261952453E+03  0.60353417186E+02  0.71143867149E+02  0.22032746450E+03  0.17120000000E+03 0.  0.
        998    1    1    2    0    0  0.14890575396E+03 -0.76418096399E+01  0.12475583477E+04  0.12564764827E+04  0.10000000000E+02 0.  1.
</event>
<event>
 5    1  0.1796476E-008  0.3721370E+03  0.7957747E-01  0.3486127E+00
         13   -1    0    0    0    0  0.00000000000E+00  0.00000000000E+00  0.14999999963E+04  0.15000000000E+04  0.10566000000E+00 0. -1.
        994   -1    0    0    0    0 -0.00000000000E+00 -0.00000000000E+00  0.11368683772E-12  0.17120000000E+03  0.17120000000E+03 0.  0.
         13    1    1    2    0    0  0.13264706467E+01 -0.33055502681E+02  0.45654095585E+02  0.56380257091E+02  0.10566000000E+00 0. -1.
        994    1    1    2    0    0  0.41649475729E+02 -0.21672185479E+02  0.19878520225E+02  0.17863078687E+03  0.17120000000E+03 0.  0.
        998    1    1    2    0    0 -0.42975946376E+02  0.54727688159E+02  0.14344673805E+04  0.14361889560E+04  0.10000000000E+02 0. -1.
</event>
<event>
 5    1  0.1796476E-008  0.3844074E+03  0.7957747E-01  0.3432189E+00
         13   -1    0    0    0    0  0.00000000000E+00  0.00000000000E+00  0.14999999963E+04  0.15000000000E+04  0.10566000000E+00 0. -1.
        994   -1    0    0    0    0 -0.00000000000E+00 -0.00000000000E+00  0.11368683772E-12  0.17120000000E+03  0.17120000000E+03 0.  0.
         13    1    1    2    0    0 -0.12200275771E+02  0.89809258850E+01  0.62342653529E+02  0.64157005632E+02  0.10566000000E+00 0. -1.
        994    1    1    2    0    0  0.26777124919E+01  0.11806003841E+01  0.19528568933E+01  0.17123614575E+03  0.17120000000E+03 0.  0.
        998    1    1    2    0    0  0.95225632795E+01 -0.10161526269E+02  0.14357044859E+04  0.14358068486E+04  0.10000000000E+02 0. -1.
</event>
<event>
 5    1  0.1796476E-008  0.3761607E+03  0.7957747E-01  0.3468048E+00
         13   -1    0    0    0    0  0.00000000000E+00  0.00000000000E+00  0.14999999963E+04  0.15000000000E+04  0.10566000000E+00 0.  1.
        994   -1    0    0    0    0 -0.00000000000E+00 -0.00000000000E+00  0.11368683772E-12  0.17120000000E+03  0.17120000000E+03 0.  0.
         13    1    1    2    0    0  0.39299394201E+01  0.16064840122E+02  0.20985151726E+02  0.26719118043E+02  0.10566000000E+00 0.  1.
        994    1    1    2    0    0 -0.19368906650E+02  0.15685123310E+02  0.81900254328E+01  0.17319842423E+03  0.17120000000E+03 0.  0.
        998    1    1    2    0    0  0.15438967229E+02 -0.31749963431E+02  0.14708248191E+04  0.14712824577E+04  0.10000000000E+02 0.  1.
</event>
<event>
 5    1  0.1796476E-008  0.3769936E+03  0.7957747E-01  0.3464354E+00
         13   -1    0    0    0    0  0.00000000000E+00  0.00000000000E+00  0.14999999963E+04  0.15000000000E+04  0.10566000000E+00 0.  1.
        994   -1    0    0    0    0 -0.00000000000E+00 -0.00000000000E+00  0.11368683772E-12  0.17120000000E+03  0.17120000000E+03 0.  0.
         13    1    1    2    0    0 -0.24567703862E+03 -0.72129332599E+02  0.98031036111E+03  0.10131970505E+04  0.10566000000E+00 0.  1.
        994    1    1    2    0    0  0.24683905770E+03  0.68380771941E+02  0.27466144380E+03  0.41273938398E+03  0.17120000000E+03 0.  0.
        998    1    1    2    0    0 -0.11620190728E+01  0.37485606584E+01  0.24502819137E+03  0.24526356550E+03  0.10000000000E+02 0.  0.
</event>
<event>
 5    1  0.1796476E-008  0.3706858E+03  0.7957747E-01  0.3492745E+00
         13   -1    0    0    0    0  0.00000000000E+00  0.00000000000E+00  0.14999999963E+04  0.15000000000E+04  0.10566000000E+00 0.  1.
        994   -1    0    0    0    0 -0.00000000000E+00 -0.00000000000E+00  0.11368683772E-12  0.17120000000E+03  0.17120000000E+03 0.  0.
         13    1    1    2    0    0  0.40015326168E+02  0.17903786211E+02  0.97458377314E+02  0.10686401809E+03  0.10566000000E+00 0.  1.
        994    1    1    2    0    0 -0.48174165533E+02 -0.60193806031E+01  0.17085684896E+02  0.17876896765E+03  0.17120000000E+03 0.  0.
        998    1    1    2    0    0  0.81588393650E+01 -0.11884405608E+02  0.13854559341E+04  0.13855670143E+04  0.10000000000E+02 0.  1.
</event>
<event>
 5    1  0.1796476E-008  0.3841303E+03  0.7957747E-01  0.3433369E+00
         13   -1    0    0    0    0  0.00000000000E+00  0.00000000000E+00  0.14999999963E+04  0.15000000000E+04  0.10566000000E+00 0. -1.
        994   -1    0    0    0    0 -0.00000000000E+00 -0.00000000000E+00  0.11368683772E-12  0.17120000000E+03  0.17120000000E+03 0.  0.
         13    1    1    2    0    0 -0.74677930582E+01 -0.14950522523E+02  0.73831093154E+02  0.75698926923E+02  0.10566000000E+00 0. -1.
        994    1    1    2    0    0 -0.30935900938E+01 -0.31090914652E+01  0.21259766817E+01  0.17126936832E+03  0.17120000000E+03 0.  0.
        998    1    1    2    0    0  0.10561383152E+02  0.18059613988E+02  0.14240429264E+04  0.14242317048E+04  0.10000000000E+02 0. -1.
</event>
<event>
 5    1  0.1796476E-008  0.3795394E+03  0.7957747E-01  0.3453167E+00
         13   -1    0    0    0    0  0.00000000000E+00  0.00000000000E+00  0.14999999963E+04  0.15000000000E+04  0.10566000000E+00 0.  1.
        994   -1    0    0    0    0 -0.00000000000E+00 -0.00000000000E+00  0.11368683772E-12  0.17120000000E+03  0.17120000000E+03 0.  0.
         13    1    1    2    0    0  0.22191834527E+01  0.18727275456E+02  0.37834829141E+02  0.42274354890E+02  0.10566000000E+00 0.  1.
        994    1    1    2    0    0 -0.40741980108E+01 -0.21740490589E+02  0.60055576711E+01  0.17272740009E+03  0.17120000000E+03 0.  0.
        998    1    1    2    0    0  0.18550145581E+01  0.30132151330E+01  0.14561596095E+04  0.14561982450E+04  0.10000000000E+02 0.  1.
</event>
<event>
 5    1  0.1796476E-008  0.3851808E+03  0.7957747E-01  0.3428906E+00
         13   -1    0    0    0    0  0.00000000000E+00  0.00000000000E+00  0.14999999963E+04  0.15000000000E+04  0.10566000000E+00 0. -1.
        994   -1    0    0    0    0 -0.00000000000E+00 -0.00000000000E+00  0.11368683772E-12  0.17120000000E+03  0.17120000000E+03 0.  0.
         13    1    1    2    0    0 -0.57348565931E+01  0.92297417321E+01  0.40598442044E+02  0.42027626308E+02  0.10566000000E+00 0. -1.
        994    1    1    2    0    0 -0.89796502842E+00  0.40877071426E+01  0.15979966683E+01  0.17125860353E+03  0.17120000000E+03 0.  0.
        998    1    1    2    0    0  0.66328216215E+01 -0.13317448875E+02  0.14578035576E+04  0.14579137702E+04  0.10000000000E+02 0. -1.
</event>
<event>
 5    1  0.1796476E-008  0.3832298E+03  0.7957747E-01  0.3437215E+00
         13   -1    0    0    0    0  0.00000000000E+00  0.00000000000E+00  0.14999999963E+04  0.15000000000E+04  0.10566000000E+00 0. -1.
        994   -1    0    0    0    0 -0.00000000000E+00 -0.00000000000E+00  0.11368683772E-12  0.17120000000E+03  0.17120000000E+03 0.  0.
         13    1    1    2    0    0 -0.91733514241E+01 -0.91735362537E+01  0.34165720529E+02  0.36546022589E+02  0.10566000000E+00 0. -1.
        994    1    1    2    0    0  0.57550123975E+01 -0.90796642516E+01  0.28939135068E+01  0.17156157847E+03  0.17120000000E+03 0.  0.
        998    1    1    2    0    0  0.34183390266E+01  0.18253200505E+02  0.14629403622E+04  0.14630923989E+04  0.10000000000E+02 0. -1.
</event>
<event>
 5    1  0.1796476E-008  0.3819720E+03  0.7957747E-01  0.3442617E+00
         13   -1    0    0    0    0  0.00000000000E+00  0.00000000000E+00  0.14999999963E+04  0.15000000000E+04  0.10566000000E+00 0. -1.
        994   -1    0    0    0    0 -0.00000000000E+00 -0.00000000000E+00  0.11368683772E-12  0.17120000000E+03  0.17120000000E+03 0.  0.
         13    1    1    2    0    0 -0.99616005242E+01  0.18569915572E+02  0.69964953073E+02  0.73069700094E+02  0.10566000000E+00 0. -1.
        994    1    1    2    0    0  0.40732388872E+01 -0.12016910139E+02  0.36759134129E+01  0.17170890991E+03  0.17120000000E+03 0.  0.
        998    1    1    2    0    0  0.58883616370E+01 -0.65530054329E+01  0.14263591298E+04  0.14264213900E+04  0.10000000000E+02 0. -1.
</event>
<event>
 5    1  0.1796476E-008  0.3763202E+03  0.7957747E-01  0.3467339E+00
         13   -1    0    0    0    0  0.00000000000E+00  0.00000000000E+00  0.14999999963E+04  0.15000000000E+04  0.10566000000E+00 0. -1.
        994   -1    0    0    0    0 -0.00000000000E+00 -0.00000000000E+00  0.11368683772E-12  0.17120000000E+03  0.17120000000E+03 0.  0.
         13    1    1    2    0    0  0.41297961385E+02 -0.31437623062E+02  0.20113591730E+03  0.20772461132E+03  0.10566000000E+00 0. -1.
        994    1    1    2    0    0 -0.35719702794E+02  0.29339093552E+02  0.13267570122E+02  0.17782617354E+03  0.17120000000E+03 0.  0.
        998    1    1    2    0    0 -0.55782585919E+01  0.20985295096E+01  0.12855965089E+04  0.12856492151E+04  0.10000000000E+02 0. -1.
</event>
<event>
 5    1  0.1796476E-008  0.3798691E+03  0.7957747E-01  0.3451729E+00
         13   -1    0    0    0    0  0.00000000000E+00  0.00000000000E+00  0.14999999963E+04  0.15000000000E+04  0.10566000000E+00 0. -1.
        994   -1    0    0    0    0 -0.00000000000E+00 -0.00000000000E+00  0.11368683772E-12  0.17120000000E+03  0.17120000000E+03 0.  0.
         13    1    1    2    0    0  0.14965840698E+02  0.54027964559E+02  0.32633614448E+03  0.33111672821E+03  0.10566000000E+00 0. -1.
        994    1    1    2    0    0  0.33717300012E+01 -0.49018273642E+02  0.12315678433E+02  0.17853648268E+03  0.17120000000E+03 0.  0.
        998    1    1    2    0    0 -0.18337570699E+02 -0.50096909168E+01  0.11613481734E+04  0.11615467891E+04  0.10000000000E+02 0. -1.
</event>
<event>
 5    1  0.1796476E-008  0.3688248E+03  0.7957747E-01  0.3501309E+00
         13   -1    0    0    0    0  0.00000000000E+00  0.00000000000E+00  0.14999999963E+04  0.15000000000E+04  0.10566000000E+00 0.  1.
        994   -1    0    0    0    0 -0.00000000000E+00 -0.00000000000E+00  0.11368683772E-12  0.17120000000E+03  0.17120000000E+03 0.  0.
         13    1    1    2    0    0  0.90959880232E+02 -0.38641068536E+02  0.33601192304E+03  0.35024399435E+03  0.10566000000E+00 0.  1.
        994    1    1    2    0    0 -0.10503718412E+03  0.30303449448E+02  0.53167357626E+02  0.20996980024E+03  0.17120000000E+03 0.  0.
        998    1    1    2    0    0  0.14077303886E+02  0.83376190873E+01  0.11108207156E+04  0.11109862054E+04  0.10000000000E+02 0.  1.
</event>
<event>
 5    1  0.1796476E-008  0.3829449E+03  0.7957747E-01  0.3438435E+00
         13   -1    0    0    0    0  0.00000000000E+00  0.00000000000E+00  0.14999999963E+04  0.15000000000E+04  0.10566000000E+00 0. -1.
        994   -1    0    0    0    0 -0.00000000000E+00 -0.00000000000E+00  0.11368683772E-12  0.17120000000E+03  0.17120000000E+03 0.  0.
         13    1    1    2    0    0  0.33426229705E+02 -0.28865074798E+01  0.19430471644E+03  0.19718006682E+03  0.10566000000E+00 0. -1.
        994    1    1    2    0    0 -0.33575027002E+02 -0.28531537720E+02  0.91078447133E+01  0.17701334390E+03  0.17120000000E+03 0.  0.
        998    1    1    2    0    0  0.14879729672E+00  0.31418045199E+02  0.12965874351E+04  0.12970065893E+04  0.10000000000E+02 0. -1.
</event>
<event>
 5    1  0.1796476E-008  0.3846801E+03  0.7957747E-01  0.3431030E+00
         13   -1    0    0    0    0  0.00000000000E+00  0.00000000000E+00  0.14999999963E+04  0.15000000000E+04  0.10566000000E+00 0. -1.
        994   -1    0    0    0    0 -0.00000000000E+00 -0.00000000000E+00  0.11368683772E-12  0.17120000000E+03  0.17120000000E+03 0.  0.
         13    1    1    2    0    0  0.40090441831E+01  0.21814185766E+02  0.12516832226E+03  0.12711825674E+03  0.10566000000E+00 0. -1.
        994    1    1    2    0    0 -0.33090326423E+01 -0.24713980633E+02  0.38384957788E+01  0.17304885029E+03  0.17120000000E+03 0.  0.
        998    1    1    2    0    0 -0.70001154080E+00  0.28997948668E+01  0.13709931782E+04  0.13710328930E+04  0.10000000000E+02 0.  0.
</event>
<event>
 5    1  0.1796476E-008  0.3852276E+03  0.7957747E-01  0.3428707E+00
         13   -1    0    0    0    0  0.00000000000E+00  0.00000000000E+00  0.14999999963E+04  0.15000000000E+04  0.10566000000E+00 0. -1.
        994   -1    0    0    0    0 -0.00000000000E+00 -0.00000000000E+00  0.11368683772E-12  0.17120000000E+03  0.17120000000E+03 0.  0.
         13    1    1    2    0    0 -0.78030463407E+01 -0.80040879507E+01  0.40859311326E+02  0.42360918807E+02  0.10566000000E+00 0. -1.
        994    1    1    2    0    0  0.99730439111E+01  0.28463162848E+01  0.18707156576E+01  0.17152405866E+03  0.17120000000E+03 0.  0.
        998    1    1    2    0    0 -0.21699975705E+01  0.51577716660E+01  0.14572699693E+04  0.14573150225E+04  0.10000000000E+02 0. -1.
</event>
<event>
 5    1  0.1796476E-008  0.3834667E+03  0.7957747E-01  0.3436201E+00
         13   -1    0    0    0    0  0.00000000000E+00  0.00000000000E+00  0.14999999963E+04  0.15000000000E+04  0.10566000000E+00 0. -1.
        994   -1    0    0    0    0 -0.00000000000E+00 -0.00000000000E+00  0.11368683772E-12  0.17120000000E+03  0.17120000000E+03 0.  0.
         13    1    1    2    0    0  0.12654192598E+02 -0.33385977460E+01  0.34338783176E+02  0.36748306346E+02  0.10566000000E+00 0. -1.
        994    1    1    2    0    0 -0.14027251000E+02  0.21557860788E+01  0.30592926553E+01  0.17181446521E+03  0.17120000000E+03 0.  0.
        998    1    1    2    0    0  0.13730584022E+01  0.11828116672E+01  0.14626019204E+04  0.14626372284E+04  0.10000000000E+02 0. -1.
</event>
<event>
 5    1  0.1796476E-008  0.3745992E+03  0.7957747E-01  0.3475017E+00
         13   -1    0    0    0    0  0.00000000000E+00  0.00000000000E+00  0.14999999963E+04  0.15000000000E+04  0.10566000000E+00 0.  1.
        994   -1    0    0    0    0 -0.00000000000E+00 -0.00000000000E+00  0.11368683772E-12  0.17120000000E+03  0.17120000000E+03 0.  0.
         13    1    1    2    0    0  0.11397170837E+02 -0.28412710110E+02  0.70059334954E+02  0.76455864243E+02  0.10566000000E+00 0.  1.
        994    1    1    2    0    0  0.59571472919E+01  0.31278854031E+01  0.70387948189E+01  0.17147669201E+03  0.17120000000E+03 0.  0.
        998    1    1    2    0    0 -0.17354318129E+02  0.25284824707E+02  0.14229018665E+04  0.14232674437E+04  0.10000000000E+02 0.  1.
</event>
<event>
 5    1  0.1796476E-008  0.3720167E+03  0.7957747E-01  0.3486674E+00
         13   -1    0    0    0    0  0.00000000000E+00  0.00000000000E+00  0.14999999963E+04  0.15000000000E+04  0.10566000000E+00 0.  1.
        994   -1    0    0    0    0 -0.00000000000E+00 -0.00000000000E+00  0.11368683772E-12  0.17120000000E+03  0.17120000000E+03 0.  0.
         13    1    1    2    0    0 -0.75955156008E+01  0.19890267947E+02  0.13476221721E+02  0.25197903329E+02  0.10566000000E+00 0.  1.
        994    1    1    2    0    0  0.50750476897E+01 -0.21080978214E+02  0.13666234208E+02  0.17310797125E+03  0.17120000000E+03 0.  0.
        998    1    1    2    0    0  0.25204679111E+01  0.11907102666E+01  0.14728575403E+04  0.14728941254E+04  0.10000000000E+02 0.  1.
</event>
<event>
 5    1  0.1796476E-008  0.3845208E+03  0.7957747E-01  0.3431707E+00
         13   -1    0    0    0    0  0.00000000000E+00  0.00000000000E+00  0.14999999963E+04  0.15000000000E+04  0.10566000000E+00 0. -1.
        994   -1    0    0    0    0 -0.00000000000E+00 -0.00000000000E+00  0.11368683772E-12  0.17120000000E+03  0.17120000000E+03 0.  0.
         13    1    1    2    0    0 -0.99953331244E+01 -0.90810216108E+01  0.46681780466E+02  0.48596002194E+02  0.10566000000E+00 0. -1.
        994    1    1    2    0    0  0.94047526930E+01  0.14501712063E+02  0.28528894668E+01  0.17209395110E+03  0.17120000000E+03 0.  0.
        998    1    1    2    0    0  0.59058043136E+00 -0.54206904519E+01  0.14504653263E+04  0.14505100467E+04  0.10000000000E+02 0. -1.
</event>
<event>
 5    1  0.1796476E-008  0.3852523E+03  0.7957747E-01  0.3428603E+00
         13   -1    0    0    0    0  0.00000000000E+00  0.00000000000E+00  0.14999999963E+04  0.15000000000E+04  0.10566000000E+00 0. -1.
        994   -1    0    0    0    0 -0.00000000000E+00 -0.00000000000E+00  0.11368683772E-12  0.17120000000E+03  0.17120000000E+03 0.  0.
         13    1    1    2    0    0  0.53814118825E+01  0.13375214947E+02  0.66410092028E+02  0.67957100114E+02  0.10566000000E+00 0. -1.
        994    1    1    2    0    0 -0.51831322078E+01 -0.14968966812E+02  0.23299340786E+01  0.17194709483E+03  0.17120000000E+03 0.  0.
        998    1    1    2    0    0 -0.19827967474E+00  0.15937518648E+01  0.14312599702E+04  0.14312958051E+04  0.10000000000E+02 0. -1.
</event>
<event>
 5    1  0.1796476E-008  0.3855749E+03  0.7957747E-01  0.3427238E+00
         13   -1    0    0    0    0  0.00000000000E+00  0.00000000000E+00  0.14999999963E+04  0.15000000000E+04  0.10566000000E+00 0.  1.
        994   -1    0    0    0    0 -0.00000000000E+00 -0.00000000000E+00  0.11368683772E-12  0.17120000000E+03  0.17120000000E+03 0.  0.
         13    1    1    2    0    0  0.13750794669E+02 -0.39960826543E+01  0.77927938389E+02  0.79232744344E+02  0.10566000000E+00 0.  1.
        994    1    1    2    0    0 -0.92352044114E+01 -0.53757590231E+01  0.17198900238E+01  0.17154179026E+03  0.17120000000E+03 0.  0.
        998    1    1    2    0    0 -0.45155902576E+01  0.93718416774E+01  0.14203521679E+04  0.14204254654E+04  0.10000000000E+02 0.  1.
</event>
<event>
 5    1  0.1796476E-008  0.3798634E+03  0.7957747E-01  0.3451753E+00
         13   -1    0    0    0    0  0.00000000000E+00  0.00000000000E+00  0.14999999963E+04  0.15000000000E+04  0.10566000000E+00 0.  1.
        994   -1    0    0    0    0 -0.00000000000E+00 -0.00000000000E+00  0.11368683772E-12  0.17120000000E+03  0.17120000000E+03 0.  0.
         13    1    1    2    0    0 -0.23247812391E+02 -0.10642888208E+01  0.62039779734E+02  0.66261141894E+02  0.10566000000E+00 0.  1.
        994    1    1    2    0    0  0.18551008341E+02 -0.53905151381E+01  0.54512197543E+01  0.17237271640E+03  0.17120000000E+03 0.  0.
        998    1    1    2    0    0  0.46968040507E+01  0.64548039589E+01  0.14325089968E+04  0.14325661417E+04  0.10000000000E+02 0.  1.
</event>
<event>
 5    1  0.1796476E-008  0.3846792E+03  0.7957747E-01  0.3431034E+00
         13   -1    0    0    0    0  0.00000000000E+00  0.00000000000E+00  0.14999999963E+04  0.15000000000E+04  0.10566000000E+00 0. -1.
        994   -1    0    0    0    0 -0.00000000000E+00 -0.00000000000E+00  0.11368683772E-12  0.17120000000E+03  0.17120000000E+03 0.  0.
         13    1    1    2    0    0 -0.49838378631E+01  0.10595533754E+02  0.38177930325E+02  0.39933313202E+02  0.10566000000E+00 0. -1.
        994    1    1    2    0    0  0.33650349866E+01 -0.62281067858E+01  0.19545004517E+01  0.17135744176E+03  0.17120000000E+03 0.  0.
        998    1    1    2    0    0  0.16188028764E+01 -0.43674269686E+01  0.14598675655E+04  0.14599092450E+04  0.10000000000E+02 0. -1.
</event>
<event>
 5    1  0.1796476E-008  0.3850653E+03  0.7957747E-01  0.3429395E+00
         13   -1    0    0    0    0  0.00000000000E+00  0.00000000000E+00  0.14999999963E+04  0.15000000000E+04  0.10566000000E+00 0. -1.
        994   -1    0    0    0    0 -0.00000000000E+00 -0.00000000000E+00  0.11368683772E-12  0.17120000000E+03  0.17120000000E+03 0.  0.
         13    1    1    2    0    0 -0.13879673834E+02  0.40702657134E+01  0.70063398539E+02  0.71540921070E+02  0.10566000000E+00 0. -1.
        994    1    1    2    0    0 -0.84073226081E+00 -0.12947915228E+01  0.16055598619E+01  0.17121448869E+03  0.17120000000E+03 0.  0.
        998    1    1    2    0    0  0.14720406095E+02 -0.27754741905E+01  0.14283310379E+04  0.14284445902E+04  0.10000000000E+02 0. -1.
</event>
<event>
 5    1  0.1796476E-008  0.3780735E+03  0.7957747E-01  0.3459590E+00
         13   -1    0    0    0    0  0.00000000000E+00  0.00000000000E+00  0.14999999963E+04  0.15000000000E+04  0.10566000000E+00 0.  1.
        994   -1    0    0    0    0 -0.00000000000E+00 -0.00000000000E+00  0.11368683772E-12  0.17120000000E+03  0.17120000000E+03 0.  0.
         13    1    1    2    0    0  0.23669018878E+02  0.31315183618E+02  0.15960781597E+03  0.16436401450E+03  0.10566000000E+00 0.  1.
        994    1    1    2    0    0  0.67964795437E+01 -0.20135207493E+02  0.66296924952E+01  0.17264127993E+03  0.17120000000E+03 0.  0.
        998    1    1    2    0    0 -0.30465498422E+02 -0.11179976125E+02  0.13337624878E+04  0.13341947056E+04  0.10000000000E+02 0.  1.
</event>
<event>
 5    1  0.1796476E-008  0.3820020E+03  0.7957747E-01  0.3442487E+00
         13   -1    0    0    0    0  0.00000000000E+00  0.00000000000E+00  0.14999999963E+04  0.15000000000E+04  0.10566000000E+00 0. -1.
        994   -1    0    0    0    0 -0.00000000000E+00 -0.00000000000E+00  0.11368683772E-12  0.17120000000E+03  0.17120000000E+03 0.  0.
         13    1    1    2    0    0  0.54242776324E+02  0.47917902810E+02  0.42430909961E+03  0.43043771601E+03  0.10566000000E+00 0. -1.
        994    1    1    2    0    0 -0.71903447374E+02 -0.68637023809E+02  0.36666417134E+02  0.20133308950E+03  0.17120000000E+03 0.  0.
        998    1    1    2    0    0  0.17660671049E+02  0.20719120999E+02  0.10390244795E+04  0.10394291945E+04  0.10000000000E+02 0. -1.
</event>
<event>
 5    1  0.1796476E-008  0.3856570E+03  0.7957747E-01  0.3426891E+00
         13   -1    0    0    0    0  0.00000000000E+00  0.00000000000E+00  0.14999999963E+04  0.15000000000E+04  0.10566000000E+00 0. -1.
        994   -1    0    0    0    0 -0.00000000000E+00 -0.00000000000E+00  0.11368683772E-12  0.17120000000E+03  0.17120000000E+03 0.  0.
         13    1    1    2    0    0 -0.11296064801E+02 -0.10027799590E+02  0.87193134761E+02  0.88491873966E+02  0.10566000000E+00 0. -1.
        994    1    1    2    0    0  0.72955552483E+01  0.83708375633E+01  0.17090399010E+01  0.17156822802E+03  0.17120000000E+03 0.  0.
        998    1    1    2    0    0  0.40005095528E+01  0.16569620268E+01  0.14110978216E+04  0.14111398980E+04  0.10000000000E+02 0. -1.
</event>
<event>
 5    1  0.1796476E-008  0.3857765E+03  0.7957747E-01  0.3426386E+00
         13   -1    0    0    0    0  0.00000000000E+00  0.00000000000E+00  0.14999999963E+04  0.15000000000E+04  0.10566000000E+00 0.  1.
        994   -1    0    0    0    0 -0.00000000000E+00 -0.00000000000E+00  0.11368683772E-12  0.17120000000E+03  0.17120000000E+03 0.  0.
         13    1    1    2    0    0  0.72183238633E+01 -0.98500954317E+01  0.64436079253E+02  0.65583138480E+02  0.10566000000E+00 0.  1.
        994    1    1    2    0    0 -0.18209802733E+01 -0.22951140728E+01  0.12732903899E+01  0.17122980110E+03  0.17120000000E+03 0.  0.
        998    1    1    2    0    0 -0.53973435900E+01  0.12145209504E+02  0.14342906266E+04  0.14343870604E+04  0.10000000000E+02 0.  1.
</event>
<event>
 5    1  0.1796476E-008  0.3780076E+03  0.7957747E-01  0.3459880E+00
         13   -1    0    0    0    0  0.00000000000E+00  0.00000000000E+00  0.14999999963E+04  0.15000000000E+04  0.10566000000E+00 0. -1.
        994   -1    0    0    0    0 -0.00000000000E+00 -0.00000000000E+00  0.11368683772E-12  0.17120000000E+03  0.17120000000E+03 0.  0.
         13    1    1    2    0    0  0.11440100186E+02 -0.16105445643E+02  0.34263908617E+02  0.39551079244E+02  0.10566000000E+00 0. -1.
        994    1    1    2    0    0 -0.66261588806E+01  0.30400876016E+02  0.84069902477E+01  0.17420745314E+03  0.17120000000E+03 0.  0.
        998    1    1    2    0    0 -0.48139413056E+01 -0.14295430373E+02  0.14573290974E+04  0.14574414676E+04  0.10000000000E+02 0. -1.
</event>
<event>
 5    1  0.1796476E-008  0.3840155E+03  0.7957747E-01  0.3433858E+00
         13   -1    0    0    0    0  0.00000000000E+00  0.00000000000E+00  0.14999999963E+04  0.15000000000E+04  0.10566000000E+00 0. -1.
        994   -1    0    0    0    0 -0.00000000000E+00 -0.00000000000E+00  0.11368683772E-12  0.17120000000E+03  0.17120000000E+03 0.  0.
         13    1    1    2    0    0 -0.13118229276E+02  0.99789264953E+01  0.67203269969E+02  0.69195068986E+02  0.10566000000E+00 0. -1.
        994    1    1    2    0    0 -0.39931656876E+01 -0.75372176264E+01  0.23597691258E+01  0.17142859602E+03  0.17120000000E+03 0.  0.
        998    1    1    2    0    0  0.17111394964E+02 -0.24417088689E+01  0.14304369572E+04  0.14305763350E+04  0.10000000000E+02 0. -1.
</event>
<event>
 5    1  0.1796476E-008  0.3853788E+03  0.7957747E-01  0.3428067E+00
         13   -1    0    0    0    0  0.00000000000E+00  0.00000000000E+00  0.14999999963E+04  0.15000000000E+04  0.10566000000E+00 0.  1.
        994   -1    0    0    0    0 -0.00000000000E+00 -0.00000000000E+00  0.11368683772E-12  0.17120000000E+03  0.17120000000E+03 0.  0.
         13    1    1    2    0    0  0.87119114553E+01 -0.13874812544E+02  0.90898065450E+02  0.92362748394E+02  0.10566000000E+00 0.  1.
        994    1    1    2    0    0 -0.66632457705E+01  0.12361931928E+02  0.20902532999E+01  0.17178773345E+03  0.17120000000E+03 0.  0.
        998    1    1    2    0    0 -0.20486656848E+01  0.15128806159E+01  0.14070116775E+04  0.14070495182E+04  0.10000000000E+02 0.  1.
</event>
<event>
 5    1  0.1796476E-008  0.3832871E+03  0.7957747E-01  0.3436969E+00
         13   -1    0    0    0    0  0.00000000000E+00  0.00000000000E+00  0.14999999963E+04  0.15000000000E+04  0.10566000000E+00 0.  1.
        994   -1    0    0    0    0 -0.00000000000E+00 -0.00000000000E+00  0.11368683772E-12  0.17120000000E+03  0.17120000000E+03 0.  0.
         13    1    1    2    0    0 -0.14038861200E+02 -0.15419787279E+02  0.94917114203E+02  0.97180909629E+02  0.10566000000E+00 0.  1.
        994    1    1    2    0    0 -0.70637258860E+01  0.56096082607E+01  0.27520719385E+01  0.17145955158E+03  0.17120000000E+03 0.  0.
        998    1    1    2    0    0  0.21102587086E+02  0.98101790185E+01  0.14023308101E+04  0.14025595388E+04  0.10000000000E+02 0.  1.
</event>
<event>
 5    1  0.1796476E-008  0.3799966E+03  0.7957747E-01  0.3451174E+00
         13   -1    0    0    0    0  0.00000000000E+00  0.00000000000E+00  0.14999999963E+04  0.15000000000E+04  0.10566000000E+00 0.  1.
        994   -1    0    0    0    0 -0.00000000000E+00 -0.00000000000E+00  0.11368683772E-12  0.17120000000E+03  0.17120000000E+03 0.  0.
         13    1    1    2    0    0 -0.17507485731E+01 -0.16612205892E+02  0.30029394693E+02  0.34362860981E+02  0.10566000000E+00 0.  1.
        994    1    1    2    0    0 -0.17267947810E+02  0.34904196226E+02  0.92211183450E+01  0.17581511300E+03  0.17120000000E+03 0.  0.
        998    1    1    2    0    0  0.19018696383E+02 -0.18291990334E+02  0.14607494832E+04  0.14610220260E+04  0.10000000000E+02 0.  1.
</event>
<event>
 5    1  0.1796476E-008  0.3746834E+03  0.7957747E-01  0.3474640E+00
         13   -1    0    0    0    0  0.00000000000E+00  0.00000000000E+00  0.14999999963E+04  0.15000000000E+04  0.10566000000E+00 0. -1.
        994   -1    0    0    0    0 -0.00000000000E+00 -0.00000000000E+00  0.11368683772E-12  0.17120000000E+03  0.17120000000E+03 0.  0.
         13    1    1    2    0    0  0.35243092899E+02  0.78297065905E+02  0.38948055784E+03  0.39883282491E+03  0.10566000000E+00 0. -1.
        994    1    1    2    0    0 -0.73222707265E+02 -0.65560834334E+02  0.40457987890E+02  0.20150949517E+03  0.17120000000E+03 0.  0.
        998    1    1    2    0    0  0.37979614366E+02 -0.12736231571E+02  0.10700614505E+04  0.10708576799E+04  0.10000000000E+02 0. -1.
</event>
<event>
 5    1  0.1796476E-008  0.3689496E+03  0.7957747E-01  0.3500732E+00
         13   -1    0    0    0    0  0.00000000000E+00  0.00000000000E+00  0.14999999963E+04  0.15000000000E+04  0.10566000000E+00 0.  1.
        994   -1    0    0    0    0 -0.00000000000E+00 -0.00000000000E+00  0.11368683772E-12  0.17120000000E+03  0.17120000000E+03 0.  0.
         13    1    1    2    0    0  0.26644735458E+02  0.10865742889E+01  0.34883600476E+02  0.43908989029E+02  0.10566000000E+00 0.  1.
        994    1    1    2    0    0  0.12900587993E+02 -0.76318410520E+00  0.10398881941E+02  0.17200169873E+03  0.17120000000E+03 0.  0.
        998    1    1    2    0    0 -0.39545323451E+02 -0.32339018369E+00  0.14547175139E+04  0.14552893122E+04  0.10000000000E+02 0.  1.
</event>
<event>
 5    1  0.1796476E-008  0.3803900E+03  0.7957747E-01  0.3449462E+00
         13   -1    0    0    0    0  0.00000000000E+00  0.00000000000E+00  0.14999999963E+04  0.15000000000E+04  0.10566000000E+00 0. -1.
        994   -1    0    0    0    0 -0.00000000000E+00 -0.00000000000E+00  0.11368683772E-12  0.17120000000E+03  0.17120000000E+03 0.  0.
         13    1    1    2    0    0  0.53038755010E+01  0.15767002272E+02  0.33442941395E+02  0.37351987219E+02  0.10566000000E+00 0. -1.
        994    1    1    2    0    0 -0.14421958296E+00 -0.13552735042E+02  0.45499461988E+01  0.17179592381E+03  0.17120000000E+03 0.  0.
        998    1    1    2    0    0 -0.51596559181E+01 -0.22142672305E+01  0.14620071087E+04  0.14620520890E+04  0.10000000000E+02 0. -1.
</event>
<event>
 5    1  0.1796476E-008  0.3850202E+03  0.7957747E-01  0.3429587E+00
         13   -1    0    0    0    0  0.00000000000E+00  0.00000000000E+00  0.14999999963E+04  0.15000000000E+04  0.10566000000E+00 0.  1.
        994   -1    0    0    0    0 -0.00000000000E+00 -0.00000000000E+00  0.11368683772E-12  0.17120000000E+03  0.17120000000E+03 0.  0.
         13    1    1    2    0    0 -0.17884562991E+02 -0.16553068580E+01  0.98752346385E+02  0.10037247987E+03  0.10566000000E+00 0.  1.
        994    1    1    2    0    0  0.12728539946E+02 -0.59599119166E+00  0.21542533960E+01  0.17168707506E+03  0.17120000000E+03 0.  0.
        998    1    1    2    0    0  0.51560230458E+01  0.22512980497E+01  0.13990933965E+04  0.13991404451E+04  0.10000000000E+02 0.  1.
</event>
<event>
 5    1  0.1796476E-008  0.3826632E+03  0.7957747E-01  0.3439644E+00
         13   -1    0    0    0    0  0.00000000000E+00  0.00000000000E+00  0.14999999963E+04  0.15000000000E+04  0.10566000000E+00 0.  1.
        994   -1    0    0    0    0 -0.00000000000E+00 -0.00000000000E+00  0.11368683772E-12  0.17120000000E+03  0.17120000000E+03 0.  0.
         13    1    1    2    0    0 -0.53711466364E+01  0.16531091012E+02  0.52278763703E+02  0.55092708089E+02  0.10566000000E+00 0.  1.
        994    1    1    2    0    0  0.24515197700E+01 -0.15169850323E+02  0.35776448511E+01  0.17192548924E+03  0.17120000000E+03 0.  0.
        998    1    1    2    0    0  0.29196268664E+01 -0.13612406888E+01  0.14441435877E+04  0.14441818027E+04  0.10000000000E+02 0.  1.
</event>
<event>
 5    1  0.1796476E-008  0.3847766E+03  0.7957747E-01  0.3430620E+00
         13   -1    0    0    0    0  0.00000000000E+00  0.00000000000E+00  0.14999999963E+04  0.15000000000E+04  0.10566000000E+00 0. -1.
        994   -1    0    0    0    0 -0.00000000000E+00 -0.00000000000E+00  0.11368683772E-12  0.17120000000E+03  0.17120000000E+03 0.  0.
         13    1    1    2    0    0  0.68727033004E+01  0.90629606537E+01  0.37084979503E+02  0.38790181428E+02  0.10566000000E+00 0. -1.
        994    1    1    2    0    0 -0.32742787656E+01 -0.58452730247E+01  0.18888546351E+01  0.17134145993E+03  0.17120000000E+03 0.  0.
        998    1    1    2    0    0 -0.35984245348E+01 -0.32176876290E+01  0.14610261621E+04  0.14610683586E+04  0.10000000000E+02 0. -1.
</event>
<event>
 5    1  0.1796476E-008  0.3785074E+03  0.7957747E-01  0.3457684E+00
         13   -1    0    0    0    0  0.00000000000E+00  0.00000000000E+00  0.14999999963E+04  0.15000000000E+04  0.10566000000E+00 0. -1.
        994   -1    0    0    0    0 -0.00000000000E+00 -0.00000000000E+00  0.11368683772E-12  0.17120000000E+03  0.17120000000E+03 0.  0.
         13    1    1    2    0    0  0.29712187189E+02  0.98487748730E+01  0.11257432526E+03  0.11684520660E+03  0.10566000000E+00 0. -1.
        994    1    1    2    0    0  0.75776672016E+01 -0.90979785997E+00  0.50842346617E+01  0.17144543801E+03  0.17120000000E+03 0.  0.
        998    1    1    2    0    0 -0.37289854391E+02 -0.89389770131E+01  0.13823414364E+04  0.13829093554E+04  0.10000000000E+02 0. -1.
</event>
<event>
 5    1  0.1796476E-008  0.3848563E+03  0.7957747E-01  0.3430282E+00
         13   -1    0    0    0    0  0.00000000000E+00  0.00000000000E+00  0.14999999963E+04  0.15000000000E+04  0.10566000000E+00 0. -1.
        994   -1    0    0    0    0 -0.00000000000E+00 -0.00000000000E+00  0.11368683772E-12  0.17120000000E+03  0.17120000000E+03 0.  0.
         13    1    1    2    0    0  0.58980026811E+01 -0.94555443944E+01  0.37181420269E+02  0.38815756243E+02  0.10566000000E+00 0. -1.
        994    1    1    2    0    0 -0.24729736681E+01  0.12490971062E+01  0.17267356671E+01  0.17123112293E+03  0.17120000000E+03 0.  0.
        998    1    1    2    0    0 -0.34250290129E+01  0.82064472882E+01  0.14610918403E+04  0.14611531208E+04  0.10000000000E+02 0. -1.
</event>
<event>
 5    1  0.1796476E-008  0.3802248E+03  0.7957747E-01  0.3450180E+00
         13   -1    0    0    0    0  0.00000000000E+00  0.00000000000E+00  0.14999999963E+04  0.15000000000E+04  0.10566000000E+00 0.  1.
        994   -1    0    0    0    0 -0.00000000000E+00 -0.00000000000E+00  0.11368683772E-12  0.17120000000E+03  0.17120000000E+03 0.  0.
         13    1    1    2    0    0  0.93023572630E+01 -0.19328542358E+02  0.62970586670E+02  0.66523923141E+02  0.10566000000E+00 0.  1.
        994    1    1    2    0    0  0.21301520777E+02 -0.60661683682E+01  0.56600950506E+01  0.17271951211E+03  0.17120000000E+03 0.  0.
        998    1    1    2    0    0 -0.30603878040E+02  0.25394710727E+02  0.14313693146E+04  0.14319565648E+04  0.10000000000E+02 0.  1.
</event>
<event>
 5    1  0.1796476E-008  0.3863495E+03  0.7957747E-01  0.3423969E+00
         13   -1    0    0    0    0  0.00000000000E+00  0.00000000000E+00  0.14999999963E+04  0.15000000000E+04  0.10566000000E+00 0.  1.
        994   -1    0    0    0    0 -0.00000000000E+00 -0.00000000000E+00  0.11368683772E-12  0.17120000000E+03  0.17120000000E+03 0.  0.
         13    1    1    2    0    0  0.16443766881E+02  0.27448448445E+01  0.95954801758E+02  0.97392334333E+02  0.10566000000E+00 0.  1.
        994    1    1    2    0    0 -0.61206705451E+02  0.12993976042E+02  0.13887283432E+02  0.18280426922E+03  0.17120000000E+03 0.  0.
        998    1    1    2    0    0  0.44762938569E+02 -0.15738820886E+02  0.13901579111E+04  0.13910033964E+04  0.10000000000E+02 0.  1.
</event>
<event>
 5    1  0.1796476E-008  0.3822340E+03  0.7957747E-01  0.3441488E+00
         13   -1    0    0    0    0  0.00000000000E+00  0.00000000000E+00  0.14999999963E+04  0.15000000000E+04  0.10566000000E+00 0. -1.
        994   -1    0    0    0    0 -0.00000000000E+00 -0.00000000000E+00  0.11368683772E-12  0.17120000000E+03  0.17120000000E+03 0.  0.
         13    1    1    2    0    0 -0.22040213749E+02 -0.23774051762E+01  0.80599082390E+02  0.83592142715E+02  0.10566000000E+00 0. -1.
        994    1    1    2    0    0  0.14093085418E+02  0.11508949026E+01  0.36734249599E+01  0.17182221529E+03  0.17120000000E+03 0.  0.
        998    1    1    2    0    0  0.79471283306E+01  0.12265102736E+01  0.14157274889E+04  0.14157856420E+04  0.10000000000E+02 0. -1.
</event>
<event>
 5    1  0.1796476E-008  0.3815772E+03  0.7957747E-01  0.3444320E+00
         13   -1    0    0    0    0  0.00000000000E+00  0.00000000000E+00  0.14999999963E+04  0.15000000000E+04  0.10566000000E+00 0.  1.
        994   -1    0    0    0    0 -0.00000000000E+00 -0.00000000000E+00  0.11368683772E-12  0.17120000000E+03  0.17120000000E+03 0.  0.
         13    1    1    2    0    0  0.16437290778E+02 -0.23793683045E+01  0.41055446503E+02  0.44287772277E+02  0.10566000000E+00 0.  1.
        994    1    1    2    0    0 -0.26777090436E+01  0.15526481074E+02  0.41650810754E+01  0.17197392140E+03  0.17120000000E+03 0.  0.
        998    1    1    2    0    0 -0.13759581734E+02 -0.13147112770E+02  0.14547794687E+04  0.14549383063E+04  0.10000000000E+02 0.  1.
</event>
<event>
 5    1  0.1796476E-008  0.3862971E+03  0.7957747E-01  0.3424190E+00
         13   -1    0    0    0    0  0.00000000000E+00  0.00000000000E+00  0.14999999963E+04  0.15000000000E+04  0.10566000000E+00 0.  1.
        994   -1    0    0    0    0 -0.00000000000E+00 -0.00000000000E+00  0.11368683772E-12  0.17120000000E+03  0.17120000000E+03 0.  0.
         13    1    1    2    0    0 -0.10781590333E+02  0.89318838186E+00  0.59021049047E+02  0.60004465419E+02  0.10566000000E+00 0.  1.
        994    1    1    2    0    0  0.98238283041E+01 -0.28876903353E+01  0.13309441020E+01  0.17151110101E+03  0.17120000000E+03 0.  0.
        998    1    1    2    0    0  0.95776202892E+00  0.19945019534E+01  0.14396480031E+04  0.14396844336E+04  0.10000000000E+02 0.  1.
</event>
<event>
 5    1  0.1796476E-008  0.3837345E+03  0.7957747E-01  0.3435057E+00
         13   -1    0    0    0    0  0.00000000000E+00  0.00000000000E+00  0.14999999963E+04  0.15000000000E+04  0.10566000000E+00 0.  1.
        994   -1    0    0    0    0 -0.00000000000E+00 -0.00000000000E+00  0.11368683772E-12  0.17120000000E+03  0.17120000000E+03 0.  0.
         13    1    1    2    0    0 -0.16553131807E+02 -0.10893178991E+02  0.92874514896E+02  0.94965015676E+02  0.10566000000E+00 0.  1.
        994    1    1    2    0    0 -0.58175368344E+00  0.36248514292E+01  0.23042425031E+01  0.17125486130E+03  0.17120000000E+03 0.  0.
        998    1    1    2    0    0  0.17134885490E+02  0.72683275619E+01  0.14048212389E+04  0.14049801230E+04  0.10000000000E+02 0.  1.
</event>
<event>
 5    1  0.1796476E-008  0.3850958E+03  0.7957747E-01  0.3429266E+00
         13   -1    0    0    0    0  0.00000000000E+00  0.00000000000E+00  0.14999999963E+04  0.15000000000E+04  0.10566000000E+00 0.  1.
        994   -1    0    0    0    0 -0.00000000000E+00 -0.00000000000E+00  0.11368683772E-12  0.17120000000E+03  0.17120000000E+03 0.  0.
         13    1    1    2    0    0 -0.13955799898E+01  0.14490464479E+02  0.70781122456E+02  0.72262712823E+02  0.10566000000E+00 0.  1.
        994    1    1    2    0    0 -0.35549658310E+01 -0.18963563542E+01  0.16359634796E+01  0.17125521985E+03  0.17120000000E+03 0.  0.
        998    1    1    2    0    0  0.49505458207E+01 -0.12594108125E+02  0.14275829103E+04  0.14276820673E+04  0.10000000000E+02 0.  1.
</event>
<event>
 5    1  0.1796476E-008  0.3784185E+03  0.7957747E-01  0.3458074E+00
         13   -1    0    0    0    0  0.00000000000E+00  0.00000000000E+00  0.14999999963E+04  0.15000000000E+04  0.10566000000E+00 0.  1.
        994   -1    0    0    0    0 -0.00000000000E+00 -0.00000000000E+00  0.11368683772E-12  0.17120000000E+03  0.17120000000E+03 0.  0.
         13    1    1    2    0    0  0.10902735723E+03 -0.44492167403E+02  0.66021220195E+03  0.67063155335E+03  0.10566000000E+00 0.  1.
        994    1    1    2    0    0 -0.11890224920E+03  0.42224993503E+02  0.60446393505E+02  0.22109704075E+03  0.17120000000E+03 0.  0.
        998    1    1    2    0    0  0.98748919790E+01  0.22671739004E+01  0.77934140082E+03  0.77947140589E+03  0.10000000000E+02 0.  1.
</event>
<event>
 5    1  0.1796476E-008  0.3857725E+03  0.7957747E-01  0.3426402E+00
         13   -1    0    0    0    0  0.00000000000E+00  0.00000000000E+00  0.14999999963E+04  0.15000000000E+04  0.10566000000E+00 0.  1.
        994   -1    0    0    0    0 -0.00000000000E+00 -0.00000000000E+00  0.11368683772E-12  0.17120000000E+03  0.17120000000E+03 0.  0.
         13    1    1    2    0    0 -0.14641391461E+02 -0.17969416352E+01  0.80617606806E+02  0.81956140919E+02  0.10566000000E+00 0.  1.
        994    1    1    2    0    0  0.20707633467E+02  0.94353909778E+00  0.26579366670E+01  0.17247086994E+03  0.17120000000E+03 0.  0.
        998    1    1    2    0    0 -0.60662420058E+01  0.85340253739E+00  0.14167244528E+04  0.14167729891E+04  0.10000000000E+02 0.  1.
</event>
<event>
 5    1  0.1796476E-008  0.3700632E+03  0.7957747E-01  0.3495601E+00
         13   -1    0    0    0    0  0.00000000000E+00  0.00000000000E+00  0.14999999963E+04  0.15000000000E+04  0.10566000000E+00 0.  1.
        994   -1    0    0    0    0 -0.00000000000E+00 -0.00000000000E+00  0.11368683772E-12  0.17120000000E+03  0.17120000000E+03 0.  0.
         13    1    1    2    0    0 -0.38523314323E+02  0.82199433160E+01  0.84993766484E+02  0.93677984178E+02  0.10566000000E+00 0.  1.
        994    1    1    2    0    0  0.85134012708E+01 -0.88161415252E+01  0.97554427266E+01  0.17191512736E+03  0.17120000000E+03 0.  0.
        998    1    1    2    0    0  0.30009913052E+02  0.59619820921E+00  0.14052507871E+04  0.14056068885E+04  0.10000000000E+02 0.  1.
</event>
<event>
 5    1  0.1796476E-008  0.3806919E+03  0.7957747E-01  0.3448151E+00
         13   -1    0    0    0    0  0.00000000000E+00  0.00000000000E+00  0.14999999963E+04  0.15000000000E+04  0.10566000000E+00 0.  1.
        994   -1    0    0    0    0 -0.00000000000E+00 -0.00000000000E+00  0.11368683772E-12  0.17120000000E+03  0.17120000000E+03 0.  0.
         13    1    1    2    0    0  0.42614882509E+02  0.19741801682E+02  0.24003582749E+03  0.24458735983E+03  0.10566000000E+00 0.  1.
        994    1    1    2    0    0 -0.52513076940E+02 -0.62529826313E+01  0.13169089729E+02  0.17966521078E+03  0.17120000000E+03 0.  0.
        998    1    1    2    0    0  0.98981944310E+01 -0.13488819050E+02  0.12467950791E+04  0.12469474294E+04  0.10000000000E+02 0.  1.
</event>
<event>
 5    1  0.1796476E-008  0.3836934E+03  0.7957747E-01  0.3435233E+00
         13   -1    0    0    0    0  0.00000000000E+00  0.00000000000E+00  0.14999999963E+04  0.15000000000E+04  0.10566000000E+00 0.  1.
        994   -1    0    0    0    0 -0.00000000000E+00 -0.00000000000E+00  0.11368683772E-12  0.17120000000E+03  0.17120000000E+03 0.  0.
         13    1    1    2    0    0  0.10290010569E+02 -0.60609795850E+01  0.30361044843E+02  0.32625511475E+02  0.10566000000E+00 0.  1.
        994    1    1    2    0    0 -0.82840089300E+01  0.58649629635E+01  0.26205699201E+01  0.17152064010E+03  0.17120000000E+03 0.  0.
        998    1    1    2    0    0 -0.20060016390E+01  0.19601662153E+00  0.14670183815E+04  0.14670538484E+04  0.10000000000E+02 0.  1.
</event>
<event>
 5    1  0.1796476E-008  0.3699549E+03  0.7957747E-01  0.3496098E+00
         13   -1    0    0    0    0  0.00000000000E+00  0.00000000000E+00  0.14999999963E+04  0.15000000000E+04  0.10566000000E+00 0. -1.
        994   -1    0    0    0    0 -0.00000000000E+00 -0.00000000000E+00  0.11368683772E-12  0.17120000000E+03  0.17120000000E+03 0.  0.
         13    1    1    2    0    0 -0.14800613248E+02  0.13380731538E+02  0.17283156940E+02  0.26397363634E+02  0.10566000000E+00 0. -1.
        994    1    1    2    0    0 -0.56432985114E+01 -0.31278480021E+02  0.12794044724E+02  0.17459472418E+03  0.17120000000E+03 0.  0.
        998    1    1    2    0    0  0.20443911760E+02  0.17897748483E+02  0.14699227946E+04  0.14702079122E+04  0.10000000000E+02 0. -1.
</event>
<event>
 5    1  0.1796476E-008  0.3813362E+03  0.7957747E-01  0.3445361E+00
         13   -1    0    0    0    0  0.00000000000E+00  0.00000000000E+00  0.14999999963E+04  0.15000000000E+04  0.10566000000E+00 0.  1.
        994   -1    0    0    0    0 -0.00000000000E+00 -0.00000000000E+00  0.11368683772E-12  0.17120000000E+03  0.17120000000E+03 0.  0.
         13    1    1    2    0    0  0.97575421408E+01 -0.33075658611E+02  0.14231546911E+03  0.14643398763E+03  0.10566000000E+00 0.  1.
        994    1    1    2    0    0 -0.13740535610E+02  0.46389839287E+02  0.11290472526E+02  0.17826310408E+03  0.17120000000E+03 0.  0.
        998    1    1    2    0    0  0.39829934691E+01 -0.13314180676E+02  0.13463940546E+04  0.13465029083E+04  0.10000000000E+02 0.  1.
</event>
<event>
 5    1  0.1796476E-008  0.3739516E+03  0.7957747E-01  0.3477925E+00
         13   -1    0    0    0    0  0.00000000000E+00  0.00000000000E+00  0.14999999963E+04  0.15000000000E+04  0.10566000000E+00 0.  1.
        994   -1    0    0    0    0 -0.00000000000E+00 -0.00000000000E+00  0.11368683772E-12  0.17120000000E+03  0.17120000000E+03 0.  0.
         13    1    1    2    0    0  0.58175816952E+01 -0.94209506526E+01 -0.13678295681E+01  0.11157091455E+02  0.10566000000E+00 0.  1.
        994    1    1    2    0    0 -0.41425030503E+01  0.54699478573E+01  0.13210689187E+02  0.17184598619E+03  0.17120000000E+03 0.  0.
        998    1    1    2    0    0 -0.16750786449E+01  0.39510027953E+01  0.14881571367E+04  0.14881969224E+04  0.10000000000E+02 0.  1.
</event>
<event>
 5    1  0.1796476E-008  0.3722339E+03  0.7957747E-01  0.3485687E+00
         13   -1    0    0    0    0  0.00000000000E+00  0.00000000000E+00  0.14999999963E+04  0.15000000000E+04  0.10566000000E+00 0.  1.
        994   -1    0    0    0    0 -0.00000000000E+00 -0.00000000000E+00  0.11368683772E-12  0.17120000000E+03  0.17120000000E+03 0.  0.
         13    1    1    2    0    0  0.23881088133E+02 -0.12106531604E+01  0.31301410779E+02  0.39389865858E+02  0.10566000000E+00 0.  1.
        994    1    1    2    0    0 -0.24303670204E+02  0.13091233443E+01  0.10141355212E+02  0.17321855927E+03  0.17120000000E+03 0.  0.
        998    1    1    2    0    0  0.42258207085E+00 -0.98470183907E-01  0.14585572303E+04  0.14585915749E+04  0.10000000000E+02 0.  0.
</event>
<event>
 5    1  0.1796476E-008  0.3737132E+03  0.7957747E-01  0.3478998E+00
         13   -1    0    0    0    0  0.00000000000E+00  0.00000000000E+00  0.14999999963E+04  0.15000000000E+04  0.10566000000E+00 0. -1.
        994   -1    0    0    0    0 -0.00000000000E+00 -0.00000000000E+00  0.11368683772E-12  0.17120000000E+03  0.17120000000E+03 0.  0.
         13    1    1    2    0    0  0.24310856079E+02  0.66037724635E+02  0.30294572519E+03  0.31101145055E+03  0.10566000000E+00 0. -1.
        994    1    1    2    0    0 -0.24926351111E+02 -0.48661369620E+02  0.17615920630E+02  0.18057965703E+03  0.17120000000E+03 0.  0.
        998    1    1    2    0    0  0.61549503154E+00 -0.17376355015E+02  0.11794383505E+04  0.11796088924E+04  0.10000000000E+02 0.  1.
</event>
<event>
 5    1  0.1796476E-008  0.3703575E+03  0.7957747E-01  0.3494249E+00
         13   -1    0    0    0    0  0.00000000000E+00  0.00000000000E+00  0.14999999963E+04  0.15000000000E+04  0.10566000000E+00 0.  1.
        994   -1    0    0    0    0 -0.00000000000E+00 -0.00000000000E+00  0.11368683772E-12  0.17120000000E+03  0.17120000000E+03 0.  0.
         13    1    1    2    0    0  0.29205129332E+02 -0.87527290997E+02  0.35161643238E+03  0.36352179155E+03  0.10566000000E+00 0.  1.
        994    1    1    2    0    0 -0.12601378212E+02  0.94017927692E+02  0.40830860992E+02  0.19993690172E+03  0.17120000000E+03 0.  0.
        998    1    1    2    0    0 -0.16603751120E+02 -0.64906366953E+01  0.11075527029E+04  0.11077413067E+04  0.10000000000E+02 0.  1.
</event>
<event>
 5    1  0.1796476E-008  0.3805340E+03  0.7957747E-01  0.3448837E+00
         13   -1    0    0    0    0  0.00000000000E+00  0.00000000000E+00  0.14999999963E+04  0.15000000000E+04  0.10566000000E+00 0. -1.
        994   -1    0    0    0    0 -0.00000000000E+00 -0.00000000000E+00  0.11368683772E-12  0.17120000000E+03  0.17120000000E+03 0.  0.
         13    1    1    2    0    0  0.50105710286E+02 -0.78420074984E+01  0.28352730581E+03  0.28802747020E+03  0.10566000000E+00 0. -1.
        994    1    1    2    0    0 -0.43420420686E+02  0.24790623421E+02  0.12251552371E+02  0.17877205732E+03  0.17120000000E+03 0.  0.
        998    1    1    2    0    0 -0.66852896002E+01 -0.16948615922E+02  0.12042211381E+04  0.12044004725E+04  0.10000000000E+02 0. -1.
</event>
<event>
 5    1  0.1796476E-008  0.3839651E+03  0.7957747E-01  0.3434073E+00
         13   -1    0    0    0    0  0.00000000000E+00  0.00000000000E+00  0.14999999963E+04  0.15000000000E+04  0.10566000000E+00 0.  1.
        994   -1    0    0    0    0 -0.00000000000E+00 -0.00000000000E+00  0.11368683772E-12  0.17120000000E+03  0.17120000000E+03 0.  0.
         13    1    1    2    0    0 -0.73441949616E+01  0.20464680285E+02  0.11797551665E+03  0.11996238590E+03  0.10566000000E+00 0.  1.
        994    1    1    2    0    0  0.14227738478E+02  0.51935435954E+00  0.28139274743E+01  0.17181401706E+03  0.17120000000E+03 0.  0.
        998    1    1    2    0    0 -0.68835435163E+01 -0.20984034645E+02  0.13792105522E+04  0.13794235970E+04  0.10000000000E+02 0.  1.
</event>
<event>
 5    1  0.1796476E-008  0.3781922E+03  0.7957747E-01  0.3459068E+00
         13   -1    0    0    0    0  0.00000000000E+00  0.00000000000E+00  0.14999999963E+04  0.15000000000E+04  0.10566000000E+00 0.  1.
        994   -1    0    0    0    0 -0.00000000000E+00 -0.00000000000E+00  0.11368683772E-12  0.17120000000E+03  0.17120000000E+03 0.  0.
         13    1    1    2    0    0 -0.11948895257E+02  0.44842166100E+02  0.27731040544E+03  0.28116661979E+03  0.10566000000E+00 0.  1.
        994    1    1    2    0    0  0.39961629432E+02  0.12592507344E+02  0.10975110568E+02  0.17659387339E+03  0.17120000000E+03 0.  0.
        998    1    1    2    0    0 -0.28012734175E+02 -0.57434673444E+02  0.12117144803E+04  0.12134395068E+04  0.10000000000E+02 0.  1.
</event>
<event>
 5    1  0.1796476E-008  0.3787222E+03  0.7957747E-01  0.3456741E+00
         13   -1    0    0    0    0  0.00000000000E+00  0.00000000000E+00  0.14999999963E+04  0.15000000000E+04  0.10566000000E+00 0. -1.
        994   -1    0    0    0    0 -0.00000000000E+00 -0.00000000000E+00  0.11368683772E-12  0.17120000000E+03  0.17120000000E+03 0.  0.
         13    1    1    2    0    0 -0.18626213363E+02  0.24796305618E+02  0.10427482410E+03  0.10878898245E+03  0.10566000000E+00 0. -1.
        994    1    1    2    0    0  0.94016767408E+01 -0.32903536473E+01  0.51127056489E+01  0.17156572418E+03  0.17120000000E+03 0.  0.
        998    1    1    2    0    0  0.92245366223E+01 -0.21505951970E+02  0.13906124665E+04  0.13908452934E+04  0.10000000000E+02 0. -1.
</event>
<event>
 5    1  0.1796476E-008  0.3766191E+03  0.7957747E-01  0.3466013E+00
         13   -1    0    0    0    0  0.00000000000E+00  0.00000000000E+00  0.14999999963E+04  0.15000000000E+04  0.10566000000E+00 0. -1.
        994   -1    0    0    0    0 -0.00000000000E+00 -0.00000000000E+00  0.11368683772E-12  0.17120000000E+03  0.17120000000E+03 0.  0.
         13    1    1    2    0    0  0.29128141801E+02  0.58076650717E+02  0.15082737254E+03  0.16422622652E+03  0.10566000000E+00 0. -1.
        994    1    1    2    0    0 -0.79291063448E+02  0.12039576105E+02  0.37879544462E+02  0.19281162834E+03  0.17120000000E+03 0.  0.
        998    1    1    2    0    0  0.50162921647E+02 -0.70116226822E+02  0.13112930793E+04  0.13141621451E+04  0.10000000000E+02 0. -1.
</event>
<event>
 5    1  0.1796476E-008  0.3813696E+03  0.7957747E-01  0.3445217E+00
         13   -1    0    0    0    0  0.00000000000E+00  0.00000000000E+00  0.14999999963E+04  0.15000000000E+04  0.10566000000E+00 0. -1.
        994   -1    0    0    0    0 -0.00000000000E+00 -0.00000000000E+00  0.11368683772E-12  0.17120000000E+03  0.17120000000E+03 0.  0.
         13    1    1    2    0    0 -0.17667932683E+02 -0.11958543138E+02  0.67249077016E+02  0.70552194316E+02  0.10566000000E+00 0. -1.
        994    1    1    2    0    0  0.34275791907E+01  0.55667667086E+01  0.35856217762E+01  0.17136228837E+03  0.17120000000E+03 0.  0.
        998    1    1    2    0    0  0.14240353493E+02  0.63917764295E+01  0.14291652975E+04  0.14292855173E+04  0.10000000000E+02 0. -1.
</event>
<event>
 5    1  0.1796476E-008  0.3844184E+03  0.7957747E-01  0.3432142E+00
         13   -1    0    0    0    0  0.00000000000E+00  0.00000000000E+00  0.14999999963E+04  0.15000000000E+04  0.10566000000E+00 0.  1.
        994   -1    0    0    0    0 -0.00000000000E+00 -0.00000000000E+00  0.11368683772E-12  0.17120000000E+03  0.17120000000E+03 0.  0.
         13    1    1    2    0    0  0.11636239382E+02  0.49667816409E+01  0.43851886052E+02  0.45640662366E+02  0.10566000000E+00 0.  1.
        994    1    1    2    0    0 -0.24160129166E+01  0.14112984483E+02  0.25949325268E+01  0.17181730741E+03  0.17120000000E+03 0.  0.
        998    1    1    2    0    0 -0.92202264650E+01 -0.19079766123E+02  0.14535531777E+04  0.14537420302E+04  0.10000000000E+02 0.  1.
</event>
<event>
 5    1  0.1796476E-008  0.3841348E+03  0.7957747E-01  0.3433350E+00
         13   -1    0    0    0    0  0.00000000000E+00  0.00000000000E+00  0.14999999963E+04  0.15000000000E+04  0.10566000000E+00 0. -1.
        994   -1    0    0    0    0 -0.00000000000E+00 -0.00000000000E+00  0.11368683772E-12  0.17120000000E+03  0.17120000000E+03 0.  0.
         13    1    1    2    0    0 -0.31716637771E+01 -0.10479443158E+02  0.29109894379E+02  0.31101049738E+02  0.10566000000E+00 0. -1.
        994    1    1    2    0    0  0.33859546534E+01  0.15148872891E+01  0.21056918163E+01  0.17125312701E+03  0.17120000000E+03 0.  0.
        998    1    1    2    0    0 -0.21429087627E+00  0.89645558692E+01  0.14687844101E+04  0.14688458233E+04  0.10000000000E+02 0. -1.
</event>
<event>
 5    1  0.1796476E-008  0.3853762E+03  0.7957747E-01  0.3428078E+00
         13   -1    0    0    0    0  0.00000000000E+00  0.00000000000E+00  0.14999999963E+04  0.15000000000E+04  0.10566000000E+00 0. -1.
        994   -1    0    0    0    0 -0.00000000000E+00 -0.00000000000E+00  0.11368683772E-12  0.17120000000E+03  0.17120000000E+03 0.  0.
         13    1    1    2    0    0  0.96502809268E+01 -0.78924668917E+01  0.55635227332E+02  0.57014986099E+02  0.10566000000E+00 0. -1.
        994    1    1    2    0    0  0.62638381696E+00  0.64845738293E+01  0.15829169705E+01  0.17133122214E+03  0.17120000000E+03 0.  0.
        998    1    1    2    0    0 -0.10276664744E+02  0.14078930624E+01  0.14427818520E+04  0.14428537918E+04  0.10000000000E+02 0. -1.
</event>
<event>
 5    1  0.1796476E-008  0.3836167E+03  0.7957747E-01  0.3435560E+00
         13   -1    0    0    0    0  0.00000000000E+00  0.00000000000E+00  0.14999999963E+04  0.15000000000E+04  0.10566000000E+00 0. -1.
        994   -1    0    0    0    0 -0.00000000000E+00 -0.00000000000E+00  0.11368683772E-12  0.17120000000E+03  0.17120000000E+03 0.  0.
         13    1    1    2    0    0  0.15837964438E+02 -0.12347504896E+02  0.85189599982E+02  0.87524745666E+02  0.10566000000E+00 0. -1.
        994    1    1    2    0    0 -0.11331637368E+02  0.99482042437E+01  0.30699799423E+01  0.17189019038E+03  0.17120000000E+03 0.  0.
        998    1    1    2    0    0 -0.45063270701E+01  0.23993006525E+01  0.14117404164E+04  0.14117850640E+04  0.10000000000E+02 0. -1.
</event>
<event>
 5    1  0.1796476E-008  0.3909381E+03  0.7957747E-01  0.3404872E+00
         13   -1    0    0    0    0  0.00000000000E+00  0.00000000000E+00  0.14999999963E+04  0.15000000000E+04  0.10566000000E+00 0. -1.
        994   -1    0    0    0    0 -0.00000000000E+00 -0.00000000000E+00  0.11368683772E-12  0.17120000000E+03  0.17120000000E+03 0.  0.
         13    1    1    2    0    0  0.48029368526E+01  0.64081588416E+02  0.80490878947E+02  0.10299665497E+03  0.10566000000E+00 0. -1.
        994    1    1    2    0    0 -0.15250910818E+02 -0.61731895842E+02  0.37902854898E+02  0.18651939217E+03  0.17120000000E+03 0.  0.
        998    1    1    2    0    0  0.10447973966E+02 -0.23496925740E+01  0.13816062624E+04  0.13816839529E+04  0.10000000000E+02 0. -1.
</event>
<event>
 5    1  0.1796476E-008  0.3826761E+03  0.7957747E-01  0.3439588E+00
         13   -1    0    0    0    0  0.00000000000E+00  0.00000000000E+00  0.14999999963E+04  0.15000000000E+04  0.10566000000E+00 0. -1.
        994   -1    0    0    0    0 -0.00000000000E+00 -0.00000000000E+00  0.11368683772E-12  0.17120000000E+03  0.17120000000E+03 0.  0.
         13    1    1    2    0    0 -0.23963825930E+01 -0.10574719715E+02  0.19920576953E+02  0.22680562091E+02  0.10566000000E+00 0. -1.
        994    1    1    2    0    0 -0.34469874261E+01  0.10263873237E+02  0.31768744966E+01  0.17157144677E+03  0.17120000000E+03 0.  0.
        998    1    1    2    0    0  0.58433700191E+01  0.31084647887E+00  0.14769025448E+04  0.14769479911E+04  0.10000000000E+02 0. -1.
</event>
<event>
 5    1  0.1796476E-008  0.3799861E+03  0.7957747E-01  0.3451219E+00
         13   -1    0    0    0    0  0.00000000000E+00  0.00000000000E+00  0.14999999963E+04  0.15000000000E+04  0.10566000000E+00 0.  1.
        994   -1    0    0    0    0 -0.00000000000E+00 -0.00000000000E+00  0.11368683772E-12  0.17120000000E+03  0.17120000000E+03 0.  0.
         13    1    1    2    0    0 -0.31348658268E+02  0.61568226158E+01  0.12893679556E+03  0.13283581314E+03  0.10566000000E+00 0.  1.
        994    1    1    2    0    0  0.50565677338E+01 -0.26746746056E+02  0.66211650125E+01  0.17347690661E+03  0.17120000000E+03 0.  0.
        998    1    1    2    0    0  0.26292090534E+02  0.20589923440E+02  0.13644420357E+04  0.13648872802E+04  0.10000000000E+02 0. -1.
</event>
<event>
 5    1  0.1796476E-008  0.3830099E+03  0.7957747E-01  0.3438157E+00
         13   -1    0    0    0    0  0.00000000000E+00  0.00000000000E+00  0.14999999963E+04  0.15000000000E+04  0.10566000000E+00 0.  1.
        994   -1    0    0    0    0 -0.00000000000E+00 -0.00000000000E+00  0.11368683772E-12  0.17120000000E+03  0.17120000000E+03 0.  0.
         13    1    1    2    0    0  0.20333026380E+02  0.23184090542E+02  0.17065085403E+03  0.17341470284E+03  0.10566000000E+00 0.  1.
        994    1    1    2    0    0 -0.11972739732E+02 -0.22893466659E+02  0.48338511833E+01  0.17320584121E+03  0.17120000000E+03 0.  0.
        998    1    1    2    0    0 -0.83602866479E+01 -0.29062388234E+00  0.13245152911E+04  0.13245794559E+04  0.10000000000E+02 0.  1.
</event>
<event>
 5    1  0.1796476E-008  0.4118045E+03  0.7957747E-01  0.3323382E+00
         13   -1    0    0    0    0  0.00000000000E+00  0.00000000000E+00  0.14999999963E+04  0.15000000000E+04  0.10566000000E+00 0. -1.
        994   -1    0    0    0    0 -0.00000000000E+00 -0.00000000000E+00  0.11368683772E-12  0.17120000000E+03  0.17120000000E+03 0.  0.
         13    1    1    2    0    0 -0.34326574798E+02  0.11939354949E+02  0.48976345040E+01  0.36672331828E+02  0.10566000000E+00 0. -1.
        994    1    1    2    0    0  0.25858201408E+02 -0.12100758255E+02  0.38393528702E+02  0.17775988855E+03  0.17120000000E+03 0.  0.
        998    1    1    2    0    0  0.84683733897E+01  0.16140330607E+00  0.14567088331E+04  0.14567677796E+04  0.10000000000E+02 0. -1.
</event>
<event>
 5    1  0.1796476E-008  0.3801754E+03  0.7957747E-01  0.3450395E+00
         13   -1    0    0    0    0  0.00000000000E+00  0.00000000000E+00  0.14999999963E+04  0.15000000000E+04  0.10566000000E+00 0. -1.
        994   -1    0    0    0    0 -0.00000000000E+00 -0.00000000000E+00  0.11368683772E-12  0.17120000000E+03  0.17120000000E+03 0.  0.
         13    1    1    2    0    0 -0.20431613817E+02  0.48367907329E+02  0.29737431396E+03  0.30197416954E+03  0.10566000000E+00 0. -1.
        994    1    1    2    0    0  0.36666897316E+02 -0.33493539381E+02  0.12328780518E+02  0.17868328788E+03  0.17120000000E+03 0.  0.
        998    1    1    2    0    0 -0.16235283499E+02 -0.14874367947E+02  0.11902969018E+04  0.11905425426E+04  0.10000000000E+02 0. -1.
</event>
<event>
 5    1  0.1796476E-008  0.3857363E+03  0.7957747E-01  0.3426555E+00
         13   -1    0    0    0    0  0.00000000000E+00  0.00000000000E+00  0.14999999963E+04  0.15000000000E+04  0.10566000000E+00 0.  1.
        994   -1    0    0    0    0 -0.00000000000E+00 -0.00000000000E+00  0.11368683772E-12  0.17120000000E+03  0.17120000000E+03 0.  0.
         13    1    1    2    0    0  0.14322734057E+01 -0.11932900885E+02  0.60634678116E+02  0.61814406774E+02  0.10566000000E+00 0.  1.
        994    1    1    2    0    0  0.31573457702E+01  0.92298419367E+00  0.13004999248E+01  0.17123653825E+03  0.17120000000E+03 0.  0.
        998    1    1    2    0    0 -0.45896191759E+01  0.11009916692E+02  0.14380648182E+04  0.14381490550E+04  0.10000000000E+02 0.  1.
</event>
<event>
 5    1  0.1796476E-008  0.3741525E+03  0.7957747E-01  0.3477022E+00
         13   -1    0    0    0    0  0.00000000000E+00  0.00000000000E+00  0.14999999963E+04  0.15000000000E+04  0.10566000000E+00 0.  1.
        994   -1    0    0    0    0 -0.00000000000E+00 -0.00000000000E+00  0.11368683772E-12  0.17120000000E+03  0.17120000000E+03 0.  0.
         13    1    1    2    0    0 -0.75990941004E+02  0.34832938859E+02  0.21740470800E+03  0.23292225091E+03  0.10566000000E+00 0.  1.
        994    1    1    2    0    0  0.78281715646E+02 -0.42313357238E+02  0.41804681456E+02  0.19742218365E+03  0.17120000000E+03 0.  0.
        998    1    1    2    0    0 -0.22907746425E+01  0.74804183786E+01  0.12407906068E+04  0.12408555654E+04  0.10000000000E+02 0.  1.
</event>
<event>
 5    1  0.1796476E-008  0.3809714E+03  0.7957747E-01  0.3446940E+00
         13   -1    0    0    0    0  0.00000000000E+00  0.00000000000E+00  0.14999999963E+04  0.15000000000E+04  0.10566000000E+00 0.  1.
        994   -1    0    0    0    0 -0.00000000000E+00 -0.00000000000E+00  0.11368683772E-12  0.17120000000E+03  0.17120000000E+03 0.  0.
         13    1    1    2    0    0  0.22083357004E+02 -0.12841604012E+02  0.93338893870E+02  0.96771595642E+02  0.10566000000E+00 0.  1.
        994    1    1    2    0    0 -0.25445155538E+01  0.61941720169E+01  0.37930384080E+01  0.17137289595E+03  0.17120000000E+03 0.  0.
        998    1    1    2    0    0 -0.19538841451E+02  0.66474319952E+01  0.14028680640E+04  0.14030555084E+04  0.10000000000E+02 0.  1.
</event>
<event>
 5    1  0.1796476E-008  0.3827489E+03  0.7957747E-01  0.3439276E+00
         13   -1    0    0    0    0  0.00000000000E+00  0.00000000000E+00  0.14999999963E+04  0.15000000000E+04  0.10566000000E+00 0. -1.
        994   -1    0    0    0    0 -0.00000000000E+00 -0.00000000000E+00  0.11368683772E-12  0.17120000000E+03  0.17120000000E+03 0.  0.
         13    1    1    2    0    0  0.28085525617E+02  0.18581337714E+01  0.13330220705E+03  0.13624147305E+03  0.10566000000E+00 0. -1.
        994    1    1    2    0    0 -0.26116280277E+02 -0.22529671339E+02  0.67030048857E+01  0.17476846529E+03  0.17120000000E+03 0.  0.
        998    1    1    2    0    0 -0.19692453399E+01  0.20671537568E+02  0.13599947843E+04  0.13601900617E+04  0.10000000000E+02 0. -1.
</event>
<event>
 5    1  0.1796476E-008  0.3822432E+03  0.7957747E-01  0.3441449E+00
         13   -1    0    0    0    0  0.00000000000E+00  0.00000000000E+00  0.14999999963E+04  0.15000000000E+04  0.10566000000E+00 0. -1.
        994   -1    0    0    0    0 -0.00000000000E+00 -0.00000000000E+00  0.11368683772E-12  0.17120000000E+03  0.17120000000E+03 0.  0.
         13    1    1    2    0    0 -0.22601884455E+01  0.29656474197E+02  0.12940616523E+03  0.13278020062E+03  0.10566000000E+00 0. -1.
        994    1    1    2    0    0  0.28180876681E+00 -0.36321064767E+02  0.73952981496E+01  0.17516686215E+03  0.17120000000E+03 0.  0.
        998    1    1    2    0    0  0.19783796787E+01  0.66645905699E+01  0.13631985329E+04  0.13632529372E+04  0.10000000000E+02 0. -1.
</event>
<event>
 5    1  0.1796476E-008  0.3816957E+03  0.7957747E-01  0.3443808E+00
         13   -1    0    0    0    0  0.00000000000E+00  0.00000000000E+00  0.14999999963E+04  0.15000000000E+04  0.10566000000E+00 0.  1.
        994   -1    0    0    0    0 -0.00000000000E+00 -0.00000000000E+00  0.11368683772E-12  0.17120000000E+03  0.17120000000E+03 0.  0.
         13    1    1    2    0    0  0.18692263191E+02 -0.33254433937E+02  0.20998100361E+03  0.21341811339E+03  0.10566000000E+00 0.  1.
        994    1    1    2    0    0 -0.98232499238E+01  0.26662007542E+02  0.59681087372E+01  0.17364451390E+03  0.17120000000E+03 0.  0.
        998    1    1    2    0    0 -0.88690132671E+01  0.65924263954E+01  0.12840508839E+04  0.12841373727E+04  0.10000000000E+02 0.  1.
</event>
<event>
 5    1  0.1796476E-008  0.3753049E+03  0.7957747E-01  0.3471860E+00
         13   -1    0    0    0    0  0.00000000000E+00  0.00000000000E+00  0.14999999963E+04  0.15000000000E+04  0.10566000000E+00 0.  1.
        994   -1    0    0    0    0 -0.00000000000E+00 -0.00000000000E+00  0.11368683772E-12  0.17120000000E+03  0.17120000000E+03 0.  0.
         13    1    1    2    0    0  0.22143594896E+01  0.16665181232E+02  0.19288953497E+02  0.25587234014E+02  0.10566000000E+00 0.  1.
        994    1    1    2    0    0 -0.10265183425E+02 -0.12111316879E+01  0.68850997241E+01  0.17164989202E+03  0.17120000000E+03 0.  0.
        998    1    1    2    0    0  0.80508239353E+01 -0.15454049544E+02  0.14738259431E+04  0.14739628740E+04  0.10000000000E+02 0.  1.
</event>
<event>
 5    1  0.1796476E-008  0.4049290E+03  0.7957747E-01  0.3349312E+00
         13   -1    0    0    0    0  0.00000000000E+00  0.00000000000E+00  0.14999999963E+04  0.15000000000E+04  0.10566000000E+00 0.  1.
        994   -1    0    0    0    0 -0.00000000000E+00 -0.00000000000E+00  0.11368683772E-12  0.17120000000E+03  0.17120000000E+03 0.  0.
         13    1    1    2    0    0 -0.13549584499E+03 -0.88982261151E+02  0.37149866008E+03  0.40532484800E+03  0.10566000000E+00 0.  1.
        994    1    1    2    0    0  0.16261678692E+03 -0.17817354550E+02  0.14819260845E+03  0.27934238259E+03  0.17120000000E+03 0.  0.
        998    1    1    2    0    0 -0.27120941936E+02  0.10679961570E+03  0.98030872775E+03  0.98653276940E+03  0.10000000000E+02 0.  1.
</event>
<event>
 5    1  0.1796476E-008  0.3783215E+03  0.7957747E-01  0.3458500E+00
         13   -1    0    0    0    0  0.00000000000E+00  0.00000000000E+00  0.14999999963E+04  0.15000000000E+04  0.10566000000E+00 0.  1.
        994   -1    0    0    0    0 -0.00000000000E+00 -0.00000000000E+00  0.11368683772E-12  0.17120000000E+03  0.17120000000E+03 0.  0.
         13    1    1    2    0    0  0.14507311354E+02  0.24366300191E+02  0.79466097409E+02  0.84374465741E+02  0.10566000000E+00 0.  1.
        994    1    1    2    0    0 -0.37848866310E+02  0.33493327377E+01  0.98514733541E+01  0.17564238167E+03  0.17120000000E+03 0.  0.
        998    1    1    2    0    0  0.23341554957E+02 -0.27715632929E+02  0.14106824255E+04  0.14111831526E+04  0.10000000000E+02 0.  1.
</event>
<event>
 5    1  0.1796476E-008  0.3794178E+03  0.7957747E-01  0.3453698E+00
         13   -1    0    0    0    0  0.00000000000E+00  0.00000000000E+00  0.14999999963E+04  0.15000000000E+04  0.10566000000E+00 0.  1.
        994   -1    0    0    0    0 -0.00000000000E+00 -0.00000000000E+00  0.11368683772E-12  0.17120000000E+03  0.17120000000E+03 0.  0.
         13    1    1    2    0    0 -0.23729543831E+02 -0.47985240099E+02  0.27579686262E+03  0.28094411386E+03  0.10566000000E+00 0.  1.
        994    1    1    2    0    0  0.21411685908E+02  0.44038186144E+02  0.12500743746E+02  0.17850358743E+03  0.17120000000E+03 0.  0.
        998    1    1    2    0    0  0.23178579226E+01  0.39470539548E+01  0.12117023899E+04  0.12117522987E+04  0.10000000000E+02 0.  0.
</event>
<event>
 5    1  0.1796476E-008  0.3836204E+03  0.7957747E-01  0.3435544E+00
         13   -1    0    0    0    0  0.00000000000E+00  0.00000000000E+00  0.14999999963E+04  0.15000000000E+04  0.10566000000E+00 0. -1.
        994   -1    0    0    0    0 -0.00000000000E+00 -0.00000000000E+00  0.11368683772E-12  0.17120000000E+03  0.17120000000E+03 0.  0.
         13    1    1    2    0    0 -0.16877170374E+02 -0.18658453813E+02  0.13945173415E+03  0.14170311959E+03  0.10566000000E+00 0. -1.
        994    1    1    2    0    0 -0.46621719950E+00  0.17090657380E+02  0.32828275524E+01  0.17208290120E+03  0.17120000000E+03 0.  0.
        998    1    1    2    0    0  0.17343387573E+02  0.15677964336E+01  0.13572654346E+04  0.13574139792E+04  0.10000000000E+02 0. -1.
</event>
<event>
 5    1  0.2423203E-008  0.3860492E+03  0.7957747E-01  0.3425235E+00
         13   -1    0    0    0    0  0.00000000000E+00  0.00000000000E+00  0.14999999963E+04  0.15000000000E+04  0.10566000000E+00 0.  1.
        994   -1    0    0    0    0 -0.00000000000E+00 -0.00000000000E+00  0.11368683772E-12  0.17120000000E+03  0.17120000000E+03 0.  0.
         13    1    1    2    0    0 -0.91917950689E+01  0.58402259019E+01  0.56817588951E+02  0.57851939582E+02  0.10566000000E+00 0.  1.
        994    1    1    2    0    0 -0.86886712861E+00 -0.22717634456E+01  0.11295301784E+01  0.17122100244E+03  0.17120000000E+03 0.  0.
        998    1    1    2    0    0  0.10060662197E+02 -0.35684624563E+01  0.14420528771E+04  0.14421270580E+04  0.10000000000E+02 0.  1.
</event>
<event>
 5    1  0.1796476E-008  0.3783961E+03  0.7957747E-01  0.3458172E+00
         13   -1    0    0    0    0  0.00000000000E+00  0.00000000000E+00  0.14999999963E+04  0.15000000000E+04  0.10566000000E+00 0. -1.
        994   -1    0    0    0    0 -0.00000000000E+00 -0.00000000000E+00  0.11368683772E-12  0.17120000000E+03  0.17120000000E+03 0.  0.
         13    1    1    2    0    0  0.43584747676E+00 -0.13140586962E+02  0.15289994526E+02  0.20165814771E+02  0.10566000000E+00 0. -1.
        994    1    1    2    0    0  0.22391733932E+01  0.10621322188E+02  0.53410798771E+01  0.17162690208E+03  0.17120000000E+03 0.  0.
        998    1    1    2    0    0 -0.26750208700E+01  0.25192647731E+01  0.14793689219E+04  0.14794072832E+04  0.10000000000E+02 0. -1.
</event>
<event>
 5    1  0.1796476E-008  0.3779319E+03  0.7957747E-01  0.3460213E+00
         13   -1    0    0    0    0  0.00000000000E+00  0.00000000000E+00  0.14999999963E+04  0.15000000000E+04  0.10566000000E+00 0. -1.
        994   -1    0    0    0    0 -0.00000000000E+00 -0.00000000000E+00  0.11368683772E-12  0.17120000000E+03  0.17120000000E+03 0.  0.
         13    1    1    2    0    0 -0.31496845905E+02 -0.19569236175E+02  0.13794473875E+03  0.14284176007E+03  0.10566000000E+00 0. -1.
        994    1    1    2    0    0  0.12181228999E+02  0.41166260403E+01  0.57374390284E+01  0.17177801709E+03  0.17120000000E+03 0.  0.
        998    1    1    2    0    0  0.19315616906E+02  0.15452610135E+02  0.13563178185E+04  0.13565802228E+04  0.10000000000E+02 0. -1.
</event>
<event>
 5    1  0.2812188E-008  0.3862423E+03  0.7957747E-01  0.3424421E+00
         13   -1    0    0    0    0  0.00000000000E+00  0.00000000000E+00  0.14999999963E+04  0.15000000000E+04  0.10566000000E+00 0.  1.
        994   -1    0    0    0    0 -0.00000000000E+00 -0.00000000000E+00  0.11368683772E-12  0.17120000000E+03  0.17120000000E+03 0.  0.
         13    1    1    2    0    0 -0.84076883396E+01 -0.73407847823E+01  0.60486030296E+02  0.61507295254E+02  0.10566000000E+00 0.  1.
        994    1    1    2    0    0  0.79449682629E+01  0.84041646686E+01  0.14528355051E+01  0.17159633806E+03  0.17120000000E+03 0.  0.
        998    1    1    2    0    0  0.46272007668E+00 -0.10633798864E+01  0.14380611305E+04  0.14380963667E+04  0.10000000000E+02 0.  1.
</event>
<event>
 5    1  0.1796476E-008  0.3798159E+03  0.7957747E-01  0.3451961E+00
         13   -1    0    0    0    0  0.00000000000E+00  0.00000000000E+00  0.14999999963E+04  0.15000000000E+04  0.10566000000E+00 0. -1.
        994   -1    0    0    0    0 -0.00000000000E+00 -0.00000000000E+00  0.11368683772E-12  0.17120000000E+03  0.17120000000E+03 0.  0.
         13    1    1    2    0    0 -0.72431550616E+01 -0.14352720176E+02  0.30835852630E+02  0.34775348210E+02  0.10566000000E+00 0. -1.
        994    1    1    2    0    0 -0.42982251547E+01 -0.92880280392E+01  0.45765646354E+01  0.17156668426E+03  0.17120000000E+03 0.  0.
        998    1    1    2    0    0  0.11541380216E+02  0.23640748215E+02  0.14645875790E+04  0.14648579675E+04  0.10000000000E+02 0. -1.
</event>
<event>
 5    1  0.1796476E-008  0.3800016E+03  0.7957747E-01  0.3451151E+00
         13   -1    0    0    0    0  0.00000000000E+00  0.00000000000E+00  0.14999999963E+04  0.15000000000E+04  0.10566000000E+00 0. -1.
        994   -1    0    0    0    0 -0.00000000000E+00 -0.00000000000E+00  0.11368683772E-12  0.17120000000E+03  0.17120000000E+03 0.  0.
         13    1    1    2    0    0  0.20547248200E+00  0.23512678865E+02  0.70478585629E+02  0.74297580598E+02  0.10566000000E+00 0. -1.
        994    1    1    2    0    0  0.21458586169E+02  0.16522595627E+01  0.56822810039E+01  0.17264104147E+03  0.17120000000E+03 0.  0.
        998    1    1    2    0    0 -0.21664058651E+02 -0.25164938427E+02  0.14238391296E+04  0.14242613779E+04  0.10000000000E+02 0. -1.
</event>
<event>
 5    1  0.1796476E-008  0.3826167E+03  0.7957747E-01  0.3439843E+00
         13   -1    0    0    0    0  0.00000000000E+00  0.00000000000E+00  0.14999999963E+04  0.15000000000E+04  0.10566000000E+00 0. -1.
        994   -1    0    0    0    0 -0.00000000000E+00 -0.00000000000E+00  0.11368683772E-12  0.17120000000E+03  0.17120000000E+03 0.  0.
         13    1    1    2    0    0  0.90837140109E+01 -0.63901454163E+01  0.20566320823E+02  0.23373757398E+02  0.10566000000E+00 0. -1.
        994    1    1    2    0    0 -0.87543921724E+01  0.79117190158E+01  0.32796228490E+01  0.17163749767E+03  0.17120000000E+03 0.  0.
        998    1    1    2    0    0 -0.32932183849E+00 -0.15215735995E+01  0.14761540526E+04  0.14761887449E+04  0.10000000000E+02 0. -1.
</event>
<event>
 5    1  0.1796476E-008  0.3828377E+03  0.7957747E-01  0.3438895E+00
         13   -1    0    0    0    0  0.00000000000E+00  0.00000000000E+00  0.14999999963E+04  0.15000000000E+04  0.10566000000E+00 0. -1.
        994   -1    0    0    0    0 -0.00000000000E+00 -0.00000000000E+00  0.11368683772E-12  0.17120000000E+03  0.17120000000E+03 0.  0.
         13    1    1    2    0    0 -0.11541292083E+02 -0.93905730916E+01  0.36092535564E+02  0.39039295247E+02  0.10566000000E+00 0. -1.
        994    1    1    2    0    0  0.38446990474E+02  0.11014430504E+02  0.80229124014E+01  0.17599231767E+03  0.17120000000E+03 0.  0.
        998    1    1    2    0    0 -0.26905698390E+02 -0.16238574122E+01  0.14558845483E+04  0.14561683871E+04  0.10000000000E+02 0. -1.
</event>
<event>
 5    1  0.1796476E-008  0.3827645E+03  0.7957747E-01  0.3439209E+00
         13   -1    0    0    0    0  0.00000000000E+00  0.00000000000E+00  0.14999999963E+04  0.15000000000E+04  0.10566000000E+00 0.  1.
        994   -1    0    0    0    0 -0.00000000000E+00 -0.00000000000E+00  0.11368683772E-12  0.17120000000E+03  0.17120000000E+03 0.  0.
         13    1    1    2    0    0  0.46836642931E+00 -0.15341722539E+02  0.37775441747E+02  0.40774783638E+02  0.10566000000E+00 0.  1.
        994    1    1    2    0    0 -0.21870390107E+01  0.37602141761E+02  0.74580528123E+01  0.17545303291E+03  0.17120000000E+03 0.  0.
        998    1    1    2    0    0  0.17186725814E+01 -0.22260419222E+02  0.14547665017E+04  0.14549721835E+04  0.10000000000E+02 0.  1.
</event>
<event>
 5    1  0.1796476E-008  0.3849239E+03  0.7957747E-01  0.3429995E+00
         13   -1    0    0    0    0  0.00000000000E+00  0.00000000000E+00  0.14999999963E+04  0.15000000000E+04  0.10566000000E+00 0.  1.
        994   -1    0    0    0    0 -0.00000000000E+00 -0.00000000000E+00  0.11368683772E-12  0.17120000000E+03  0.17120000000E+03 0.  0.
         13    1    1    2    0    0  0.11832600063E+02  0.39507440831E+01  0.44978762158E+02  0.46676750233E+02  0.10566000000E+00 0.  1.
        994    1    1    2    0    0 -0.13373320839E+02 -0.69308028565E+01  0.24145843104E+01  0.17187830566E+03  0.17120000000E+03 0.  0.
        998    1    1    2    0    0  0.15407207765E+01  0.29800587734E+01  0.14526066498E+04  0.14526449441E+04  0.10000000000E+02 0.  1.
</event>
<event>
 5    1  0.1796476E-008  0.3838163E+03  0.7957747E-01  0.3434708E+00
         13   -1    0    0    0    0  0.00000000000E+00  0.00000000000E+00  0.14999999963E+04  0.15000000000E+04  0.10566000000E+00 0.  1.
        994   -1    0    0    0    0 -0.00000000000E+00 -0.00000000000E+00  0.11368683772E-12  0.17120000000E+03  0.17120000000E+03 0.  0.
         13    1    1    2    0    0 -0.97510158820E+01 -0.53928964486E+01  0.27483582754E+02  0.29656772040E+02  0.10566000000E+00 0.  1.
        994    1    1    2    0    0  0.54320453241E+01  0.24249059295E+01  0.23357775320E+01  0.17131924335E+03  0.17120000000E+03 0.  0.
        998    1    1    2    0    0  0.43189705580E+01  0.29679905190E+01  0.14701806360E+04  0.14702239846E+04  0.10000000000E+02 0.  1.
</event>
<event>
 5    1  0.1796476E-008  0.3808881E+03  0.7957747E-01  0.3447301E+00
         13   -1    0    0    0    0  0.00000000000E+00  0.00000000000E+00  0.14999999963E+04  0.15000000000E+04  0.10566000000E+00 0. -1.
        994   -1    0    0    0    0 -0.00000000000E+00 -0.00000000000E+00  0.11368683772E-12  0.17120000000E+03  0.17120000000E+03 0.  0.
         13    1    1    2    0    0 -0.29463189790E+02 -0.10812986062E+02  0.12129786076E+03  0.12529238768E+03  0.10566000000E+00 0. -1.
        994    1    1    2    0    0  0.31824462131E+02  0.10878211447E+02  0.74649099662E+01  0.17463188928E+03  0.17120000000E+03 0.  0.
        998    1    1    2    0    0 -0.23612723414E+01 -0.65225385611E-01  0.13712372256E+04  0.13712757230E+04  0.10000000000E+02 0. -1.
</event>
<event>
 5    1  0.1796476E-008  0.3766214E+03  0.7957747E-01  0.3466003E+00
         13   -1    0    0    0    0  0.00000000000E+00  0.00000000000E+00  0.14999999963E+04  0.15000000000E+04  0.10566000000E+00 0. -1.
        994   -1    0    0    0    0 -0.00000000000E+00 -0.00000000000E+00  0.11368683772E-12  0.17120000000E+03  0.17120000000E+03 0.  0.
         13    1    1    2    0    0  0.33078244029E+02  0.22073424222E+02  0.14921485119E+03  0.15442308527E+03  0.10566000000E+00 0. -1.
        994    1    1    2    0    0  0.29111720775E+00 -0.56445290878E+01  0.59564508736E+01  0.17139680500E+03  0.17120000000E+03 0.  0.
        998    1    1    2    0    0 -0.33369361237E+02 -0.16428895134E+02  0.13448286942E+04  0.13453801097E+04  0.10000000000E+02 0. -1.
</event>
<event>
 5    1  0.1796476E-008  0.3814160E+03  0.7957747E-01  0.3445016E+00
         13   -1    0    0    0    0  0.00000000000E+00  0.00000000000E+00  0.14999999963E+04  0.15000000000E+04  0.10566000000E+00 0.  1.
        994   -1    0    0    0    0 -0.00000000000E+00 -0.00000000000E+00  0.11368683772E-12  0.17120000000E+03  0.17120000000E+03 0.  0.
         13    1    1    2    0    0  0.85147613231E+01  0.20091816834E+02  0.67931456935E+02  0.71350376800E+02  0.10566000000E+00 0.  1.
        994    1    1    2    0    0 -0.39867005121E+01 -0.15153239441E+02  0.42374129849E+01  0.17196775894E+03  0.17120000000E+03 0.  0.
        998    1    1    2    0    0 -0.45280608110E+01 -0.49385773934E+01  0.14278311264E+04  0.14278818643E+04  0.10000000000E+02 0.  1.
</event>
<event>
 5    1  0.1796476E-008  0.4216975E+03  0.7957747E-01  0.3287535E+00
         13   -1    0    0    0    0  0.00000000000E+00  0.00000000000E+00  0.14999999963E+04  0.15000000000E+04  0.10566000000E+00 0.  1.
        994   -1    0    0    0    0 -0.00000000000E+00 -0.00000000000E+00  0.11368683772E-12  0.17120000000E+03  0.17120000000E+03 0.  0.
         13    1    1    2    0    0  0.78140885343E+02  0.98330195009E+02  0.16632026347E+03  0.20841608963E+03  0.10566000000E+00 0.  1.
        994    1    1    2    0    0 -0.99808149380E+02 -0.61550443079E+02  0.10361640720E+03  0.23193948255E+03  0.17120000000E+03 0.  0.
        998    1    1    2    0    0  0.21667264038E+02 -0.36779751930E+02  0.12300633256E+04  0.12308444278E+04  0.10000000000E+02 0.  1.
</event>
<event>
 5    1  0.1796476E-008  0.3852161E+03  0.7957747E-01  0.3428756E+00
         13   -1    0    0    0    0  0.00000000000E+00  0.00000000000E+00  0.14999999963E+04  0.15000000000E+04  0.10566000000E+00 0. -1.
        994   -1    0    0    0    0 -0.00000000000E+00 -0.00000000000E+00  0.11368683772E-12  0.17120000000E+03  0.17120000000E+03 0.  0.
         13    1    1    2    0    0 -0.11106945780E+02  0.43861387192E+01  0.46529577740E+02  0.48037643844E+02  0.10566000000E+00 0. -1.
        994    1    1    2    0    0  0.92021799408E+01 -0.19186452796E+01  0.18133107869E+01  0.17146745875E+03  0.17120000000E+03 0.  0.
        998    1    1    2    0    0  0.19047658396E+01 -0.24674934396E+01  0.14516571078E+04  0.14516948974E+04  0.10000000000E+02 0. -1.
</event>
<event>
 5    1  0.1796476E-008  0.3729225E+03  0.7957747E-01  0.3482566E+00
         13   -1    0    0    0    0  0.00000000000E+00  0.00000000000E+00  0.14999999963E+04  0.15000000000E+04  0.10566000000E+00 0.  1.
        994   -1    0    0    0    0 -0.00000000000E+00 -0.00000000000E+00  0.11368683772E-12  0.17120000000E+03  0.17120000000E+03 0.  0.
         13    1    1    2    0    0  0.48071805337E+01  0.12527273796E+02  0.80588750465E+01  0.15652418487E+02  0.10566000000E+00 0.  1.
        994    1    1    2    0    0 -0.44696557827E+01 -0.11509159452E+02  0.82714379176E+01  0.17184381065E+03  0.17120000000E+03 0.  0.
        998    1    1    2    0    0 -0.33752475105E+00 -0.10181143440E+01  0.14836696833E+04  0.14837037709E+04  0.10000000000E+02 0.  1.
</event>
<event>
 5    1  0.1796476E-008  0.3861920E+03  0.7957747E-01  0.3424632E+00
         13   -1    0    0    0    0  0.00000000000E+00  0.00000000000E+00  0.14999999963E+04  0.15000000000E+04  0.10566000000E+00 0.  1.
        994   -1    0    0    0    0 -0.00000000000E+00 -0.00000000000E+00  0.11368683772E-12  0.17120000000E+03  0.17120000000E+03 0.  0.
         13    1    1    2    0    0  0.11024149018E+02 -0.87467214339E+00  0.65590318643E+02  0.66516148240E+02  0.10566000000E+00 0.  1.
        994    1    1    2    0    0  0.43673286586E+01  0.15309432653E+01  0.11096303483E+01  0.17126613392E+03  0.17120000000E+03 0.  0.
        998    1    1    2    0    0 -0.15391477677E+02 -0.65627112195E+00  0.14333000473E+04  0.14334177178E+04  0.10000000000E+02 0.  1.
</event>
<event>
 5    1  0.2368539E-008  0.3861629E+03  0.7957747E-01  0.3424755E+00
         13   -1    0    0    0    0  0.00000000000E+00  0.00000000000E+00  0.14999999963E+04  0.15000000000E+04  0.10566000000E+00 0.  1.
        994   -1    0    0    0    0 -0.00000000000E+00 -0.00000000000E+00  0.11368683772E-12  0.17120000000E+03  0.17120000000E+03 0.  0.
         13    1    1    2    0    0 -0.12075227211E+02  0.29725763647E+00  0.67856390657E+02  0.68923148444E+02  0.10566000000E+00 0.  1.
        994    1    1    2    0    0  0.12419766701E+02  0.26672200372E+01  0.15827423854E+01  0.17167792444E+03  0.17120000000E+03 0.  0.
        998    1    1    2    0    0 -0.34453949012E+00 -0.29644776736E+01  0.14305608632E+04  0.14305989271E+04  0.10000000000E+02 0.  1.
</event>
<event>
 5    1  0.1796476E-008  0.3851222E+03  0.7957747E-01  0.3429154E+00
         13   -1    0    0    0    0  0.00000000000E+00  0.00000000000E+00  0.14999999963E+04  0.15000000000E+04  0.10566000000E+00 0.  1.
        994   -1    0    0    0    0 -0.00000000000E+00 -0.00000000000E+00  0.11368683772E-12  0.17120000000E+03  0.17120000000E+03 0.  0.
         13    1    1    2    0    0  0.11143490378E+02 -0.10451656757E+02  0.72200917211E+02  0.73799716239E+02  0.10566000000E+00 0.  1.
        994    1    1    2    0    0 -0.13378387884E+02  0.70975293035E+01  0.23238215362E+01  0.17188425271E+03  0.17120000000E+03 0.  0.
        998    1    1    2    0    0  0.22348975066E+01  0.33541274536E+01  0.14254752575E+04  0.14255160310E+04  0.10000000000E+02 0.  1.
</event>
<event>
 5    1  0.1796476E-008  0.3853838E+03  0.7957747E-01  0.3428046E+00
         13   -1    0    0    0    0  0.00000000000E+00  0.00000000000E+00  0.14999999963E+04  0.15000000000E+04  0.10566000000E+00 0.  1.
        994   -1    0    0    0    0 -0.00000000000E+00 -0.00000000000E+00  0.11368683772E-12  0.17120000000E+03  0.17120000000E+03 0.  0.
         13    1    1    2    0    0  0.73171259395E+01 -0.12813377082E+02  0.85694576335E+02  0.86955704480E+02  0.10566000000E+00 0.  1.
        994    1    1    2    0    0  0.49148908091E+01 -0.37474966847E+01  0.15652055966E+01  0.17131867893E+03  0.17120000000E+03 0.  0.
        998    1    1    2    0    0 -0.12232016749E+02  0.16560873766E+02  0.14127402143E+04  0.14129256166E+04  0.10000000000E+02 0.  1.
</event>
<event>
 5    1  0.1796476E-008  0.3833247E+03  0.7957747E-01  0.3436808E+00
         13   -1    0    0    0    0  0.00000000000E+00  0.00000000000E+00  0.14999999963E+04  0.15000000000E+04  0.10566000000E+00 0. -1.
        994   -1    0    0    0    0 -0.00000000000E+00 -0.00000000000E+00  0.11368683772E-12  0.17120000000E+03  0.17120000000E+03 0.  0.
         13    1    1    2    0    0  0.89117884816E+01 -0.29854229787E+02  0.16123649770E+03  0.16421910475E+03  0.10566000000E+00 0. -1.
        994    1    1    2    0    0 -0.92066799504E+01  0.42027035239E+02  0.86090253637E+01  0.17673310376E+03  0.17120000000E+03 0.  0.
        998    1    1    2    0    0  0.29489146888E+00 -0.12172805451E+02  0.13301544732E+04  0.13302477915E+04  0.10000000000E+02 0. -1.
</event>
<event>
 5    1  0.1796476E-008  0.3856562E+03  0.7957747E-01  0.3426894E+00
         13   -1    0    0    0    0  0.00000000000E+00  0.00000000000E+00  0.14999999963E+04  0.15000000000E+04  0.10566000000E+00 0. -1.
        994   -1    0    0    0    0 -0.00000000000E+00 -0.00000000000E+00  0.11368683772E-12  0.17120000000E+03  0.17120000000E+03 0.  0.
         13    1    1    2    0    0  0.10726866734E+02 -0.56695939499E+01  0.62091118401E+02  0.63265536541E+02  0.10566000000E+00 0. -1.
        994    1    1    2    0    0  0.31296849696E+01 -0.39514898035E+01  0.13880803342E+01  0.17127981774E+03  0.17120000000E+03 0.  0.
        998    1    1    2    0    0 -0.13856551703E+02  0.96210837535E+01  0.14365207975E+04  0.14366546457E+04  0.10000000000E+02 0. -1.
</event>
<event>
 5    1  0.1796476E-008  0.3849763E+03  0.7957747E-01  0.3429773E+00
         13   -1    0    0    0    0  0.00000000000E+00  0.00000000000E+00  0.14999999963E+04  0.15000000000E+04  0.10566000000E+00 0.  1.
        994   -1    0    0    0    0 -0.00000000000E+00 -0.00000000000E+00  0.11368683772E-12  0.17120000000E+03  0.17120000000E+03 0.  0.
         13    1    1    2    0    0 -0.40207182765E+01  0.18007052524E+02  0.11152522144E+03  0.11304117080E+03  0.10566000000E+00 0.  1.
        994    1    1    2    0    0  0.62703320246E+01 -0.18131275339E+01  0.17820296319E+01  0.17133365147E+03  0.17120000000E+03 0.  0.
        998    1    1    2    0    0 -0.22496137482E+01 -0.16193924990E+02  0.13866927452E+04  0.13868251777E+04  0.10000000000E+02 0.  1.
</event>
<event>
 5    1  0.1796476E-008  0.3687301E+03  0.7957747E-01  0.3501748E+00
         13   -1    0    0    0    0  0.00000000000E+00  0.00000000000E+00  0.14999999963E+04  0.15000000000E+04  0.10566000000E+00 0. -1.
        994   -1    0    0    0    0 -0.00000000000E+00 -0.00000000000E+00  0.11368683772E-12  0.17120000000E+03  0.17120000000E+03 0.  0.
         13    1    1    2    0    0 -0.25815643294E+02  0.35789914790E+02  0.89449336072E+02  0.99742470027E+02  0.10566000000E+00 0. -1.
        994    1    1    2    0    0  0.23191111343E+02 -0.24851353740E+02  0.14300994771E+02  0.17512674233E+03  0.17120000000E+03 0.  0.
        998    1    1    2    0    0  0.26245319512E+01 -0.10938561050E+02  0.13962496654E+04  0.13963307876E+04  0.10000000000E+02 0. -1.
</event>
<event>
 5    1  0.1796476E-008  0.3776464E+03  0.7957747E-01  0.3461471E+00
         13   -1    0    0    0    0  0.00000000000E+00  0.00000000000E+00  0.14999999963E+04  0.15000000000E+04  0.10566000000E+00 0. -1.
        994   -1    0    0    0    0 -0.00000000000E+00 -0.00000000000E+00  0.11368683772E-12  0.17120000000E+03  0.17120000000E+03 0.  0.
         13    1    1    2    0    0  0.33874878098E+02 -0.17699074539E+02  0.13928102559E+03  0.14442984408E+03  0.10566000000E+00 0. -1.
        994    1    1    2    0    0 -0.98129891661E+01  0.18919159567E+02  0.68578483916E+01  0.17265775233E+03  0.17120000000E+03 0.  0.
        998    1    1    2    0    0 -0.24061888932E+02 -0.12200850288E+01  0.13538611223E+04  0.13541124036E+04  0.10000000000E+02 0. -1.
</event>
<event>
 5    1  0.1796476E-008  0.3754576E+03  0.7957747E-01  0.3471179E+00
         13   -1    0    0    0    0  0.00000000000E+00  0.00000000000E+00  0.14999999963E+04  0.15000000000E+04  0.10566000000E+00 0.  1.
        994   -1    0    0    0    0 -0.00000000000E+00 -0.00000000000E+00  0.11368683772E-12  0.17120000000E+03  0.17120000000E+03 0.  0.
         13    1    1    2    0    0 -0.10471085520E+02 -0.65439826135E+01  0.88659537660E+01  0.15201435479E+02  0.10566000000E+00 0.  1.
        994    1    1    2    0    0  0.10405219592E+02  0.52020633110E+01  0.69033648262E+01  0.17173359166E+03  0.17120000000E+03 0.  0.
        998    1    1    2    0    0  0.65865927866E-01  0.13419193025E+01  0.14842306777E+04  0.14842649729E+04  0.10000000000E+02 0.  1.
</event>
<event>
 5    1  0.1796476E-008  0.3791173E+03  0.7957747E-01  0.3455011E+00
         13   -1    0    0    0    0  0.00000000000E+00  0.00000000000E+00  0.14999999963E+04  0.15000000000E+04  0.10566000000E+00 0. -1.
        994   -1    0    0    0    0 -0.00000000000E+00 -0.00000000000E+00  0.11368683772E-12  0.17120000000E+03  0.17120000000E+03 0.  0.
         13    1    1    2    0    0  0.11426096332E+03 -0.29291101622E+02  0.71074971190E+03  0.72047116563E+03  0.10566000000E+00 0. -1.
        994    1    1    2    0    0 -0.11712751569E+03  0.34309242876E+02  0.56260454290E+02  0.21764801353E+03  0.17120000000E+03 0.  0.
        998    1    1    2    0    0  0.28665523669E+01 -0.50181412543E+01  0.73298983009E+03  0.73308082083E+03  0.10000000000E+02 0.  0.
</event>
<event>
 5    1  0.1796476E-008  0.3795528E+03  0.7957747E-01  0.3453108E+00
         13   -1    0    0    0    0  0.00000000000E+00  0.00000000000E+00  0.14999999963E+04  0.15000000000E+04  0.10566000000E+00 0.  1.
        994   -1    0    0    0    0 -0.00000000000E+00 -0.00000000000E+00  0.11368683772E-12  0.17120000000E+03  0.17120000000E+03 0.  0.
         13    1    1    2    0    0 -0.11270031699E+02 -0.28334533105E+02  0.10017700752E+03  0.10471534454E+03  0.10566000000E+00 0.  1.
        994    1    1    2    0    0  0.91826775527E+01  0.26662950391E+02  0.70259824365E+01  0.17364918347E+03  0.17120000000E+03 0.  0.
        998    1    1    2    0    0  0.20873541458E+01  0.16715827142E+01  0.13927970063E+04  0.13928354720E+04  0.10000000000E+02 0.  1.
</event>
<event>
 5    1  0.1796476E-008  0.2473394E+03  0.7957747E-01  0.4362512E+00
         13   -1    0    0    0    0  0.00000000000E+00  0.00000000000E+00  0.14999999963E+04  0.15000000000E+04  0.10566000000E+00 0.  1.
        994   -1    0    0    0    0 -0.00000000000E+00 -0.00000000000E+00  0.11368683772E-12  0.17120000000E+03  0.17120000000E+03 0.  0.
         13    1    1    2    0    0  0.11981886165E+03  0.11517078700E+03  0.32678661771E+03  0.36662020466E+03  0.10566000000E+00 0.  1.
        994    1    1    2    0    0 -0.10022174165E+03 -0.97099889949E+02  0.12072744904E+03  0.25170884585E+03  0.17120000000E+03 0.  0.
        998    1    1    2    0    0 -0.19597120007E+02 -0.18070897049E+02  0.10524859295E+04  0.10528709495E+04  0.10000000000E+02 0.  1.
</event>
<event>
 5    1  0.1796476E-008  0.3849528E+03  0.7957747E-01  0.3429872E+00
         13   -1    0    0    0    0  0.00000000000E+00  0.00000000000E+00  0.14999999963E+04  0.15000000000E+04  0.10566000000E+00 0. -1.
        994   -1    0    0    0    0 -0.00000000000E+00 -0.00000000000E+00  0.11368683772E-12  0.17120000000E+03  0.17120000000E+03 0.  0.
         13    1    1    2    0    0  0.17197952737E+02  0.73505774507E+01  0.10775494032E+03  0.10936607744E+03  0.10566000000E+00 0. -1.
        994    1    1    2    0    0 -0.64475214560E+01 -0.95678926175E+01  0.20915113923E+01  0.17160107669E+03  0.17120000000E+03 0.  0.
        998    1    1    2    0    0 -0.10750431281E+02  0.22173151668E+01  0.13901535446E+04  0.13902328459E+04  0.10000000000E+02 0. -1.
</event>
<event>
 5    1  0.1796476E-008  0.3845431E+03  0.7957747E-01  0.3431612E+00
         13   -1    0    0    0    0  0.00000000000E+00  0.00000000000E+00  0.14999999963E+04  0.15000000000E+04  0.10566000000E+00 0.  1.
        994   -1    0    0    0    0 -0.00000000000E+00 -0.00000000000E+00  0.11368683772E-12  0.17120000000E+03  0.17120000000E+03 0.  0.
         13    1    1    2    0    0 -0.45451155835E+00  0.14460200095E+02  0.57128387149E+02  0.58931890770E+02  0.10566000000E+00 0.  1.
        994    1    1    2    0    0 -0.40926802738E+01 -0.65399209109E+01  0.20531898921E+01  0.17138604432E+03  0.17120000000E+03 0.  0.
        998    1    1    2    0    0  0.45471918321E+01 -0.79202791841E+01  0.14408184192E+04  0.14408820649E+04  0.10000000000E+02 0.  1.
</event>
<event>
 5    1  0.1796476E-008  0.3840023E+03  0.7957747E-01  0.3433914E+00
         13   -1    0    0    0    0  0.00000000000E+00  0.00000000000E+00  0.14999999963E+04  0.15000000000E+04  0.10566000000E+00 0. -1.
        994   -1    0    0    0    0 -0.00000000000E+00 -0.00000000000E+00  0.11368683772E-12  0.17120000000E+03  0.17120000000E+03 0.  0.
         13    1    1    2    0    0  0.13285956164E+02 -0.32033869222E+01  0.41551961746E+02  0.43741913630E+02  0.10566000000E+00 0. -1.
        994    1    1    2    0    0 -0.19470249994E+02 -0.14649041676E+00  0.33780816601E+01  0.17233677359E+03  0.17120000000E+03 0.  0.
        998    1    1    2    0    0  0.61842938300E+01  0.33498773389E+01  0.14550699529E+04  0.14551213128E+04  0.10000000000E+02 0. -1.
</event>
<event>
 5    1  0.1796476E-008  0.3817745E+03  0.7957747E-01  0.3443468E+00
         13   -1    0    0    0    0  0.00000000000E+00  0.00000000000E+00  0.14999999963E+04  0.15000000000E+04  0.10566000000E+00 0. -1.
        994   -1    0    0    0    0 -0.00000000000E+00 -0.00000000000E+00  0.11368683772E-12  0.17120000000E+03  0.17120000000E+03 0.  0.
         13    1    1    2    0    0  0.75623108077E+01  0.16877375507E+02  0.50745870711E+02  0.54011007276E+02  0.10566000000E+00 0. -1.
        994    1    1    2    0    0 -0.69352324303E+01 -0.14882234144E+02  0.41364999933E+01  0.17203525503E+03  0.17120000000E+03 0.  0.
        998    1    1    2    0    0 -0.62707837739E+00 -0.19951413637E+01  0.14451176256E+04  0.14451537377E+04  0.10000000000E+02 0.  0.
</event>
<event>
 5    1  0.1796476E-008  0.3782966E+03  0.7957747E-01  0.3458609E+00
         13   -1    0    0    0    0  0.00000000000E+00  0.00000000000E+00  0.14999999963E+04  0.15000000000E+04  0.10566000000E+00 0. -1.
        994   -1    0    0    0    0 -0.00000000000E+00 -0.00000000000E+00  0.11368683772E-12  0.17120000000E+03  0.17120000000E+03 0.  0.
         13    1    1    2    0    0 -0.53514976786E+02  0.30935170466E+02  0.11502365765E+03  0.13058059004E+03  0.10566000000E+00 0. -1.
        994    1    1    2    0    0  0.39504863368E+02 -0.32114098210E+02  0.24787794931E+02  0.18032144717E+03  0.17120000000E+03 0.  0.
        998    1    1    2    0    0  0.14010113419E+02  0.11789277435E+01  0.13601885437E+04  0.13602979628E+04  0.10000000000E+02 0. -1.
</event>
<event>
 5    1  0.1796476E-008  0.3697873E+03  0.7957747E-01  0.3496869E+00
         13   -1    0    0    0    0  0.00000000000E+00  0.00000000000E+00  0.14999999963E+04  0.15000000000E+04  0.10566000000E+00 0.  1.
        994   -1    0    0    0    0 -0.00000000000E+00 -0.00000000000E+00  0.11368683772E-12  0.17120000000E+03  0.17120000000E+03 0.  0.
         13    1    1    2    0    0  0.10987304457E+03 -0.36974918016E+02  0.66192602647E+03  0.67200097185E+03  0.10566000000E+00 0.  1.
        994    1    1    2    0    0 -0.96720211661E+02 -0.26384570047E+02  0.45009508547E+02  0.20343608515E+03  0.17120000000E+03 0.  0.
        998    1    1    2    0    0 -0.13152832907E+02  0.63359488063E+02  0.79306446126E+03  0.79576294300E+03  0.10000000000E+02 0.  1.
</event>
<event>
 5    1  0.1796476E-008  0.3737821E+03  0.7957747E-01  0.3478688E+00
         13   -1    0    0    0    0  0.00000000000E+00  0.00000000000E+00  0.14999999963E+04  0.15000000000E+04  0.10566000000E+00 0. -1.
        994   -1    0    0    0    0 -0.00000000000E+00 -0.00000000000E+00  0.11368683772E-12  0.17120000000E+03  0.17120000000E+03 0.  0.
         13    1    1    2    0    0 -0.15331091781E+02 -0.54977919117E+02  0.19552787736E+03  0.20368793767E+03  0.10566000000E+00 0. -1.
        994    1    1    2    0    0 -0.32315301689E+02 -0.58062357422E+02  0.28766455141E+02  0.18588293363E+03  0.17120000000E+03 0.  0.
        998    1    1    2    0    0  0.47646393470E+02  0.11304027654E+03  0.12757056638E+04  0.12816291287E+04  0.10000000000E+02 0. -1.
</event>
<event>
 5    1  0.1796476E-008  0.3860589E+03  0.7957747E-01  0.3425193E+00
         13   -1    0    0    0    0  0.00000000000E+00  0.00000000000E+00  0.14999999963E+04  0.15000000000E+04  0.10566000000E+00 0. -1.
        994   -1    0    0    0    0 -0.00000000000E+00 -0.00000000000E+00  0.11368683772E-12  0.17120000000E+03  0.17120000000E+03 0.  0.
         13    1    1    2    0    0  0.10879025654E+02  0.68226019492E+01  0.75814070658E+02  0.76893989169E+02  0.10566000000E+00 0. -1.
        994    1    1    2    0    0 -0.36127949496E+01 -0.94357428066E+01  0.14399445680E+01  0.17150393281E+03  0.17120000000E+03 0.  0.
        998    1    1    2    0    0 -0.72662307042E+01  0.26131408574E+01  0.14227459811E+04  0.14228020780E+04  0.10000000000E+02 0. -1.
</event>
<event>
 5    1  0.1796476E-008  0.3747651E+03  0.7957747E-01  0.3474274E+00
         13   -1    0    0    0    0  0.00000000000E+00  0.00000000000E+00  0.14999999963E+04  0.15000000000E+04  0.10566000000E+00 0.  1.
        994   -1    0    0    0    0 -0.00000000000E+00 -0.00000000000E+00  0.11368683772E-12  0.17120000000E+03  0.17120000000E+03 0.  0.
         13    1    1    2    0    0 -0.24093714509E+02 -0.12219994428E+02  0.53751854458E+02  0.60159025627E+02  0.10566000000E+00 0.  1.
        994    1    1    2    0    0 -0.58476313611E+01  0.15158658628E+02  0.76979236764E+01  0.17214144693E+03  0.17120000000E+03 0.  0.
        998    1    1    2    0    0  0.29941345870E+02 -0.29386642001E+01  0.14385502181E+04  0.14388995274E+04  0.10000000000E+02 0.  1.
</event>
<event>
 5    1  0.1796476E-008  0.3845930E+03  0.7957747E-01  0.3431400E+00
         13   -1    0    0    0    0  0.00000000000E+00  0.00000000000E+00  0.14999999963E+04  0.15000000000E+04  0.10566000000E+00 0.  1.
        994   -1    0    0    0    0 -0.00000000000E+00 -0.00000000000E+00  0.11368683772E-12  0.17120000000E+03  0.17120000000E+03 0.  0.
         13    1    1    2    0    0  0.64819294839E+01 -0.12729781330E+02  0.57974598850E+02  0.59708692988E+02  0.10566000000E+00 0.  1.
        994    1    1    2    0    0 -0.13816614103E+01  0.12382134710E+01  0.18436626974E+01  0.17121997913E+03  0.17120000000E+03 0.  0.
        998    1    1    2    0    0 -0.51002680736E+01  0.11491567859E+02  0.14401817347E+04  0.14402713279E+04  0.10000000000E+02 0.  1.
</event>
<event>
 5    1  0.1796476E-008  0.3864226E+03  0.7957747E-01  0.3423661E+00
         13   -1    0    0    0    0  0.00000000000E+00  0.00000000000E+00  0.14999999963E+04  0.15000000000E+04  0.10566000000E+00 0. -1.
        994   -1    0    0    0    0 -0.00000000000E+00 -0.00000000000E+00  0.11368683772E-12  0.17120000000E+03  0.17120000000E+03 0.  0.
         13    1    1    2    0    0 -0.10029846259E+02  0.80900475726E+00  0.49036517675E+02  0.50058401237E+02  0.10566000000E+00 0. -1.
        994    1    1    2    0    0  0.25261940608E+02  0.92521256182E+00  0.30201550083E+01  0.17308259011E+03  0.17120000000E+03 0.  0.
        998    1    1    2    0    0 -0.15232094349E+02 -0.17342173191E+01  0.14479433236E+04  0.14480590087E+04  0.10000000000E+02 0. -1.
</event>
<event>
 5    1  0.1796476E-008  0.3772150E+03  0.7957747E-01  0.3463376E+00
         13   -1    0    0    0    0  0.00000000000E+00  0.00000000000E+00  0.14999999963E+04  0.15000000000E+04  0.10566000000E+00 0.  1.
        994   -1    0    0    0    0 -0.00000000000E+00 -0.00000000000E+00  0.11368683772E-12  0.17120000000E+03  0.17120000000E+03 0.  0.
         13    1    1    2    0    0  0.37754912506E+02  0.54730159689E+02  0.28098097507E+03  0.28874061598E+03  0.10566000000E+00 0.  1.
        994    1    1    2    0    0 -0.87686123131E+02 -0.45230956899E+02  0.39129143728E+02  0.20143293063E+03  0.17120000000E+03 0.  0.
        998    1    1    2    0    0  0.49931210625E+02 -0.94992027892E+01  0.11798898775E+04  0.11810264534E+04  0.10000000000E+02 0.  1.
</event>
<event>
 5    1  0.1796476E-008  0.3855097E+03  0.7957747E-01  0.3427513E+00
         13   -1    0    0    0    0  0.00000000000E+00  0.00000000000E+00  0.14999999963E+04  0.15000000000E+04  0.10566000000E+00 0. -1.
        994   -1    0    0    0    0 -0.00000000000E+00 -0.00000000000E+00  0.11368683772E-12  0.17120000000E+03  0.17120000000E+03 0.  0.
         13    1    1    2    0    0 -0.13104748930E+02 -0.51838031241E+01  0.74301926258E+02  0.75626673000E+02  0.10566000000E+00 0. -1.
        994    1    1    2    0    0  0.12230056406E+02 -0.13663036460E+02  0.24820589437E+01  0.17219713546E+03  0.17120000000E+03 0.  0.
        998    1    1    2    0    0  0.87469252408E+00  0.18846839584E+02  0.14232160111E+04  0.14233761915E+04  0.10000000000E+02 0. -1.
</event>
<event>
 5    1  0.1796476E-008  0.3839467E+03  0.7957747E-01  0.3434152E+00
         13   -1    0    0    0    0  0.00000000000E+00  0.00000000000E+00  0.14999999963E+04  0.15000000000E+04  0.10566000000E+00 0.  1.
        994   -1    0    0    0    0 -0.00000000000E+00 -0.00000000000E+00  0.11368683772E-12  0.17120000000E+03  0.17120000000E+03 0.  0.
         13    1    1    2    0    0 -0.27477977574E+01 -0.12781085430E+02  0.41316008625E+02  0.43335092823E+02  0.10566000000E+00 0.  1.
        994    1    1    2    0    0 -0.48440489930E+01 -0.21714644095E+01  0.22469666312E+01  0.17129701961E+03  0.17120000000E+03 0.  0.
        998    1    1    2    0    0  0.75918467504E+01  0.14952549840E+02  0.14564370210E+04  0.14565678876E+04  0.10000000000E+02 0.  1.
</event>
<event>
 5    1  0.1796476E-008  0.3813075E+03  0.7957747E-01  0.3445485E+00
         13   -1    0    0    0    0  0.00000000000E+00  0.00000000000E+00  0.14999999963E+04  0.15000000000E+04  0.10566000000E+00 0.  1.
        994   -1    0    0    0    0 -0.00000000000E+00 -0.00000000000E+00  0.11368683772E-12  0.17120000000E+03  0.17120000000E+03 0.  0.
         13    1    1    2    0    0  0.47230247609E+02  0.52795735920E+02  0.13837607534E+03  0.15545428720E+03  0.10566000000E+00 0.  1.
        994    1    1    2    0    0 -0.48309566302E+02 -0.27341147394E+02  0.28353226326E+02  0.18219412169E+03  0.17120000000E+03 0.  0.
        998    1    1    2    0    0  0.10793186928E+01 -0.25454588526E+02  0.13332706946E+04  0.13335515911E+04  0.10000000000E+02 0.  1.
</event>
<event>
 5    1  0.1796476E-008  0.3854309E+03  0.7957747E-01  0.3427847E+00
         13   -1    0    0    0    0  0.00000000000E+00  0.00000000000E+00  0.14999999963E+04  0.15000000000E+04  0.10566000000E+00 0. -1.
        994   -1    0    0    0    0 -0.00000000000E+00 -0.00000000000E+00  0.11368683772E-12  0.17120000000E+03  0.17120000000E+03 0.  0.
         13    1    1    2    0    0 -0.51694898606E+01 -0.85958659791E+01  0.35619775432E+02  0.37005298313E+02  0.10566000000E+00 0. -1.
        994    1    1    2    0    0  0.65542776328E+01  0.35286368467E+01  0.15983374092E+01  0.17136920527E+03  0.17120000000E+03 0.  0.
        998    1    1    2    0    0 -0.13847877721E+01  0.50672291324E+01  0.14627818834E+04  0.14628254964E+04  0.10000000000E+02 0. -1.
</event>
<event>
 5    1  0.1796476E-008  0.3786969E+03  0.7957747E-01  0.3456852E+00
         13   -1    0    0    0    0  0.00000000000E+00  0.00000000000E+00  0.14999999963E+04  0.15000000000E+04  0.10566000000E+00 0.  1.
        994   -1    0    0    0    0 -0.00000000000E+00 -0.00000000000E+00  0.11368683772E-12  0.17120000000E+03  0.17120000000E+03 0.  0.
         13    1    1    2    0    0  0.22813998137E+02 -0.23362440720E+02  0.11046643454E+03  0.11519169445E+03  0.10566000000E+00 0.  1.
        994    1    1    2    0    0 -0.15763365654E+02  0.99168083981E+01  0.59576591315E+01  0.17231297249E+03  0.17120000000E+03 0.  0.
        998    1    1    2    0    0 -0.70506324823E+01  0.13445632322E+02  0.13835759026E+04  0.13836953331E+04  0.10000000000E+02 0.  1.
</event>
<event>
 5    1  0.1796476E-008  0.3846256E+03  0.7957747E-01  0.3431262E+00
         13   -1    0    0    0    0  0.00000000000E+00  0.00000000000E+00  0.14999999963E+04  0.15000000000E+04  0.10566000000E+00 0. -1.
        994   -1    0    0    0    0 -0.00000000000E+00 -0.00000000000E+00  0.11368683772E-12  0.17120000000E+03  0.17120000000E+03 0.  0.
         13    1    1    2    0    0 -0.41321188896E+01  0.19246874642E+02  0.10411441366E+03  0.10595913781E+03  0.10566000000E+00 0. -1.
        994    1    1    2    0    0  0.29501904297E+02 -0.10618380999E+02  0.50598791105E+01  0.17412109220E+03  0.17120000000E+03 0.  0.
        998    1    1    2    0    0 -0.25369785407E+02 -0.86284936435E+01  0.13908257035E+04  0.13911197700E+04  0.10000000000E+02 0. -1.
</event>
<event>
 5    1  0.1796476E-008  0.3845265E+03  0.7957747E-01  0.3431683E+00
         13   -1    0    0    0    0  0.00000000000E+00  0.00000000000E+00  0.14999999963E+04  0.15000000000E+04  0.10566000000E+00 0.  1.
        994   -1    0    0    0    0 -0.00000000000E+00 -0.00000000000E+00  0.11368683772E-12  0.17120000000E+03  0.17120000000E+03 0.  0.
         13    1    1    2    0    0 -0.13261583735E+02  0.49935548352E+01  0.56029175200E+02  0.57793467025E+02  0.10566000000E+00 0.  1.
        994    1    1    2    0    0  0.15148405451E+01  0.15957987077E+00  0.18730274678E+01  0.17121702147E+03  0.17120000000E+03 0.  0.
        998    1    1    2    0    0  0.11746743190E+02 -0.51531347060E+01  0.14420977936E+04  0.14421895115E+04  0.10000000000E+02 0.  1.
</event>
<event>
 5    1  0.1796476E-008  0.3436856E+03  0.7957747E-01  0.3626318E+00
         13   -1    0    0    0    0  0.00000000000E+00  0.00000000000E+00  0.14999999963E+04  0.15000000000E+04  0.10566000000E+00 0. -1.
        994   -1    0    0    0    0 -0.00000000000E+00 -0.00000000000E+00  0.11368683772E-12  0.17120000000E+03  0.17120000000E+03 0.  0.
         13    1    1    2    0    0  0.21498393533E+03 -0.78476002507E+02  0.10891564228E+04  0.11129412833E+04  0.10566000000E+00 0. -1.
        994    1    1    2    0    0 -0.15287274966E+03  0.34225292049E+02  0.12774077241E+03  0.26489355059E+03  0.17120000000E+03 0.  0.
        998    1    1    2    0    0 -0.62111185669E+02  0.44250710458E+02  0.28310280102E+03  0.29336516615E+03  0.10000000000E+02 0.  1.
</event>
<event>
 5    1  0.1796476E-008  0.3730409E+03  0.7957747E-01  0.3482031E+00
         13   -1    0    0    0    0  0.00000000000E+00  0.00000000000E+00  0.14999999963E+04  0.15000000000E+04  0.10566000000E+00 0.  1.
        994   -1    0    0    0    0 -0.00000000000E+00 -0.00000000000E+00  0.11368683772E-12  0.17120000000E+03  0.17120000000E+03 0.  0.
         13    1    1    2    0    0  0.20241890226E+01 -0.10577152114E+02  0.40182079313E+01  0.11494809570E+02  0.10566000000E+00 0.  1.
        994    1    1    2    0    0 -0.84582079888E+01  0.29275879740E+01  0.79623934084E+01  0.17161862301E+03  0.17120000000E+03 0.  0.
        998    1    1    2    0    0  0.64340189662E+01  0.76495641401E+01  0.14880193949E+04  0.14880865674E+04  0.10000000000E+02 0.  1.
</event>
<event>
 5    1  0.1796476E-008  0.3854469E+03  0.7957747E-01  0.3427779E+00
         13   -1    0    0    0    0  0.00000000000E+00  0.00000000000E+00  0.14999999963E+04  0.15000000000E+04  0.10566000000E+00 0.  1.
        994   -1    0    0    0    0 -0.00000000000E+00 -0.00000000000E+00  0.11368683772E-12  0.17120000000E+03  0.17120000000E+03 0.  0.
         13    1    1    2    0    0 -0.80377990238E+01  0.81906742966E+01  0.48077204586E+02  0.49427948808E+02  0.10566000000E+00 0.  1.
        994    1    1    2    0    0  0.70397755748E-01 -0.49207953079E+01  0.14879628369E+01  0.17127718241E+03  0.17120000000E+03 0.  0.
        998    1    1    2    0    0  0.79674012680E+01 -0.32698789887E+01  0.14504348289E+04  0.14504948688E+04  0.10000000000E+02 0.  1.
</event>
<event>
 5    1  0.1796476E-008  0.3849703E+03  0.7957747E-01  0.3429798E+00
         13   -1    0    0    0    0  0.00000000000E+00  0.00000000000E+00  0.14999999963E+04  0.15000000000E+04  0.10566000000E+00 0. -1.
        994   -1    0    0    0    0 -0.00000000000E+00 -0.00000000000E+00  0.11368683772E-12  0.17120000000E+03  0.17120000000E+03 0.  0.
         13    1    1    2    0    0  0.54005928331E+01  0.14320229297E+02  0.74178338388E+02  0.75740823999E+02  0.10566000000E+00 0. -1.
        994    1    1    2    0    0  0.48761662627E+01 -0.61874294644E+01  0.18490320533E+01  0.17139113221E+03  0.17120000000E+03 0.  0.
        998    1    1    2    0    0 -0.10276759096E+02 -0.81327998325E+01  0.14239726258E+04  0.14240680438E+04  0.10000000000E+02 0. -1.
</event>
<event>
 5    1  0.1796476E-008  0.3852724E+03  0.7957747E-01  0.3428518E+00
         13   -1    0    0    0    0  0.00000000000E+00  0.00000000000E+00  0.14999999963E+04  0.15000000000E+04  0.10566000000E+00 0.  1.
        994   -1    0    0    0    0 -0.00000000000E+00 -0.00000000000E+00  0.11368683772E-12  0.17120000000E+03  0.17120000000E+03 0.  0.
         13    1    1    2    0    0 -0.16283451286E+02 -0.97791196240E+01  0.11228607525E+03  0.11388132342E+03  0.10566000000E+00 0.  1.
        994    1    1    2    0    0  0.15426146970E+02  0.14537914420E+02  0.29726712487E+01  0.17253287727E+03  0.17120000000E+03 0.  0.
        998    1    1    2    0    0  0.85730431546E+00 -0.47587947956E+01  0.13847412498E+04  0.13847857993E+04  0.10000000000E+02 0.  1.
</event>
<event>
 5    1  0.1796476E-008  0.3717419E+03  0.7957747E-01  0.3487924E+00
         13   -1    0    0    0    0  0.00000000000E+00  0.00000000000E+00  0.14999999963E+04  0.15000000000E+04  0.10566000000E+00 0. -1.
        994   -1    0    0    0    0 -0.00000000000E+00 -0.00000000000E+00  0.11368683772E-12  0.17120000000E+03  0.17120000000E+03 0.  0.
         13    1    1    2    0    0 -0.68190348805E+02  0.90267660473E+02  0.51347391393E+03  0.52578859407E+03  0.10566000000E+00 0. -1.
        994    1    1    2    0    0  0.64956389898E+02 -0.86309591339E+02  0.49600654329E+02  0.20841867252E+03  0.17120000000E+03 0.  0.
        998    1    1    2    0    0  0.32339589063E+01 -0.39580691338E+01  0.93692542801E+03  0.93699273341E+03  0.10000000000E+02 0.  0.
</event>
<event>
 5    1  0.1796476E-008  0.3809174E+03  0.7957747E-01  0.3447174E+00
         13   -1    0    0    0    0  0.00000000000E+00  0.00000000000E+00  0.14999999963E+04  0.15000000000E+04  0.10566000000E+00 0. -1.
        994   -1    0    0    0    0 -0.00000000000E+00 -0.00000000000E+00  0.11368683772E-12  0.17120000000E+03  0.17120000000E+03 0.  0.
         13    1    1    2    0    0 -0.10012263863E+02 -0.36767897266E-01  0.12057713516E+02  0.15673110694E+02  0.10566000000E+00 0. -1.
        994    1    1    2    0    0  0.75518513422E+01  0.48100741004E+01  0.39379990573E+01  0.17147919730E+03  0.17120000000E+03 0.  0.
        998    1    1    2    0    0  0.24604125207E+01 -0.47733062031E+01  0.14840042837E+04  0.14840476920E+04  0.10000000000E+02 0. -1.
</event>
<event>
 5    1  0.1796476E-008  0.3840070E+03  0.7957747E-01  0.3433894E+00
         13   -1    0    0    0    0  0.00000000000E+00  0.00000000000E+00  0.14999999963E+04  0.15000000000E+04  0.10566000000E+00 0. -1.
        994   -1    0    0    0    0 -0.00000000000E+00 -0.00000000000E+00  0.11368683772E-12  0.17120000000E+03  0.17120000000E+03 0.  0.
         13    1    1    2    0    0  0.16045338209E+02 -0.23959218959E+02  0.16117118413E+03  0.16373044558E+03  0.10566000000E+00 0. -1.
        994    1    1    2    0    0 -0.31237512349E+02  0.26873189088E+02  0.77461506587E+01  0.17625944888E+03  0.17120000000E+03 0.  0.
        998    1    1    2    0    0  0.15192174140E+02 -0.29139701287E+01  0.13310826615E+04  0.13312101055E+04  0.10000000000E+02 0. -1.
</event>
<event>
 5    1  0.1796476E-008  0.3859316E+03  0.7957747E-01  0.3425731E+00
         13   -1    0    0    0    0  0.00000000000E+00  0.00000000000E+00  0.14999999963E+04  0.15000000000E+04  0.10566000000E+00 0.  1.
        994   -1    0    0    0    0 -0.00000000000E+00 -0.00000000000E+00  0.11368683772E-12  0.17120000000E+03  0.17120000000E+03 0.  0.
         13    1    1    2    0    0 -0.23333183472E+00 -0.11138870602E+02  0.55198388472E+02  0.56311651866E+02  0.10566000000E+00 0.  1.
        994    1    1    2    0    0  0.11125336701E+01  0.34380438529E+01  0.12111171766E+01  0.17124241496E+03  0.17120000000E+03 0.  0.
        998    1    1    2    0    0 -0.87920183543E+00  0.77008267487E+01  0.14435904906E+04  0.14436459332E+04  0.10000000000E+02 0.  1.
</event>
<event>
 5    1  0.1796476E-008  0.3835303E+03  0.7957747E-01  0.3435929E+00
         13   -1    0    0    0    0  0.00000000000E+00  0.00000000000E+00  0.14999999963E+04  0.15000000000E+04  0.10566000000E+00 0. -1.
        994   -1    0    0    0    0 -0.00000000000E+00 -0.00000000000E+00  0.11368683772E-12  0.17120000000E+03  0.17120000000E+03 0.  0.
         13    1    1    2    0    0  0.16020887571E+02 -0.17926242819E+01  0.52477251403E+02  0.54897681365E+02  0.10566000000E+00 0. -1.
        994    1    1    2    0    0 -0.18338046182E+02 -0.93401939499E+00  0.34764459685E+01  0.17221696202E+03  0.17120000000E+03 0.  0.
        998    1    1    2    0    0  0.23171586106E+01  0.27266436769E+01  0.14440462989E+04  0.14440853566E+04  0.10000000000E+02 0. -1.
</event>
<event>
 5    1  0.1796476E-008  0.3793389E+03  0.7957747E-01  0.3454042E+00
         13   -1    0    0    0    0  0.00000000000E+00  0.00000000000E+00  0.14999999963E+04  0.15000000000E+04  0.10566000000E+00 0.  1.
        994   -1    0    0    0    0 -0.00000000000E+00 -0.00000000000E+00  0.11368683772E-12  0.17120000000E+03  0.17120000000E+03 0.  0.
         13    1    1    2    0    0 -0.27131686381E+01 -0.27646970035E+02  0.18770354232E+02  0.33526908570E+02  0.10566000000E+00 0.  1.
        994    1    1    2    0    0  0.21731851734E+02 -0.11956354419E+02  0.18191565567E+02  0.17394137187E+03  0.17120000000E+03 0.  0.
        998    1    1    2    0    0 -0.19018683096E+02  0.39603324455E+02  0.14630380765E+04  0.14637317196E+04  0.10000000000E+02 0.  1.
</event>
<event>
 5    1  0.1796476E-008  0.3795205E+03  0.7957747E-01  0.3453249E+00
         13   -1    0    0    0    0  0.00000000000E+00  0.00000000000E+00  0.14999999963E+04  0.15000000000E+04  0.10566000000E+00 0.  1.
        994   -1    0    0    0    0 -0.00000000000E+00 -0.00000000000E+00  0.11368683772E-12  0.17120000000E+03  0.17120000000E+03 0.  0.
         13    1    1    2    0    0  0.11215367253E+01 -0.16890197884E+02  0.30998061712E+02  0.35318941421E+02  0.10566000000E+00 0.  1.
        994    1    1    2    0    0  0.29748289168E+01  0.11738837789E+02  0.48665659328E+01  0.17169674832E+03  0.17120000000E+03 0.  0.
        998    1    1    2    0    0 -0.40963656421E+01  0.51513600958E+01  0.14641353686E+04  0.14641843103E+04  0.10000000000E+02 0.  1.
</event>
<event>
 5    1  0.1796476E-008  0.3729559E+03  0.7957747E-01  0.3482415E+00
         13   -1    0    0    0    0  0.00000000000E+00  0.00000000000E+00  0.14999999963E+04  0.15000000000E+04  0.10566000000E+00 0. -1.
        994   -1    0    0    0    0 -0.00000000000E+00 -0.00000000000E+00  0.11368683772E-12  0.17120000000E+03  0.17120000000E+03 0.  0.
         13    1    1    2    0    0 -0.10675054046E+02 -0.84694009424E+00  0.38228103949E+01  0.11370977520E+02  0.10566000000E+00 0. -1.
        994    1    1    2    0    0  0.84671726912E+01  0.14455224306E+01  0.79847386685E+01  0.17160121969E+03  0.17120000000E+03 0.  0.
        998    1    1    2    0    0  0.22078813546E+01 -0.59858233635E+00  0.14881924472E+04  0.14882278028E+04  0.10000000000E+02 0. -1.
</event>
<event>
 5    1  0.1796476E-008  0.3835337E+03  0.7957747E-01  0.3435915E+00
         13   -1    0    0    0    0  0.00000000000E+00  0.00000000000E+00  0.14999999963E+04  0.15000000000E+04  0.10566000000E+00 0. -1.
        994   -1    0    0    0    0 -0.00000000000E+00 -0.00000000000E+00  0.11368683772E-12  0.17120000000E+03  0.17120000000E+03 0.  0.
         13    1    1    2    0    0 -0.17015059298E+02  0.21428110681E+02  0.15773047411E+03  0.16008619490E+03  0.10566000000E+00 0. -1.
        994    1    1    2    0    0  0.12038557220E+02 -0.11604441310E+02  0.32843129756E+01  0.17204597243E+03  0.17120000000E+03 0.  0.
        998    1    1    2    0    0  0.49765020783E+01 -0.98236693708E+01  0.13389852092E+04  0.13390678327E+04  0.10000000000E+02 0. -1.
</event>
<event>
 5    1  0.1796476E-008  0.3826891E+03  0.7957747E-01  0.3439532E+00
         13   -1    0    0    0    0  0.00000000000E+00  0.00000000000E+00  0.14999999963E+04  0.15000000000E+04  0.10566000000E+00 0. -1.
        994   -1    0    0    0    0 -0.00000000000E+00 -0.00000000000E+00  0.11368683772E-12  0.17120000000E+03  0.17120000000E+03 0.  0.
         13    1    1    2    0    0  0.17593113757E+02 -0.16858109398E+02  0.11371761504E+03  0.11629884195E+03  0.10566000000E+00 0. -1.
        994    1    1    2    0    0 -0.42495209494E+01  0.15697041684E+01  0.28498164205E+01  0.17128363568E+03  0.17120000000E+03 0.  0.
        998    1    1    2    0    0 -0.13343592807E+02  0.15288405230E+02  0.13834325648E+04  0.13836175224E+04  0.10000000000E+02 0. -1.
</event>
<event>
 5    1  0.1796476E-008  0.4288573E+03  0.7957747E-01  0.3262604E+00
         13   -1    0    0    0    0  0.00000000000E+00  0.00000000000E+00  0.14999999963E+04  0.15000000000E+04  0.10566000000E+00 0.  1.
        994   -1    0    0    0    0 -0.00000000000E+00 -0.00000000000E+00  0.11368683772E-12  0.17120000000E+03  0.17120000000E+03 0.  0.
         13    1    1    2    0    0  0.26050056680E+02 -0.22641823407E+02 -0.56289606241E+01  0.34970758956E+02  0.10566000000E+00 0.  1.
        994    1    1    2    0    0 -0.14459752205E+02  0.31301987055E+02  0.51610362760E+02  0.18210427884E+03  0.17120000000E+03 0.  0.
        998    1    1    2    0    0 -0.11590304476E+02 -0.86601636480E+01  0.14540185941E+04  0.14541249622E+04  0.10000000000E+02 0.  1.
</event>
<event>
 5    1  0.1796476E-008  0.3807300E+03  0.7957747E-01  0.3447986E+00
         13   -1    0    0    0    0  0.00000000000E+00  0.00000000000E+00  0.14999999963E+04  0.15000000000E+04  0.10566000000E+00 0.  1.
        994   -1    0    0    0    0 -0.00000000000E+00 -0.00000000000E+00  0.11368683772E-12  0.17120000000E+03  0.17120000000E+03 0.  0.
         13    1    1    2    0    0  0.23680777430E+02  0.21284827182E+02  0.16372526220E+03  0.16679267290E+03  0.10566000000E+00 0.  1.
        994    1    1    2    0    0  0.84709173829E+00  0.13582059367E+02  0.43829091683E+01  0.17179592485E+03  0.17120000000E+03 0.  0.
        998    1    1    2    0    0 -0.24527869168E+02 -0.34866886549E+02  0.13318918249E+04  0.13326114023E+04  0.10000000000E+02 0.  1.
</event>
<event>
 5    1  0.1796476E-008  0.3691069E+03  0.7957747E-01  0.3500006E+00
         13   -1    0    0    0    0  0.00000000000E+00  0.00000000000E+00  0.14999999963E+04  0.15000000000E+04  0.10566000000E+00 0.  1.
        994   -1    0    0    0    0 -0.00000000000E+00 -0.00000000000E+00  0.11368683772E-12  0.17120000000E+03  0.17120000000E+03 0.  0.
         13    1    1    2    0    0 -0.53685903605E+01  0.13991002717E+02  0.61547351803E+01  0.16200674327E+02  0.10566000000E+00 0.  1.
        994    1    1    2    0    0 -0.45909543939E+01 -0.25175759706E+01  0.10562899840E+02  0.17160544835E+03  0.17120000000E+03 0.  0.
        998    1    1    2    0    0  0.99595447544E+01 -0.11473426747E+02  0.14832823613E+04  0.14833938773E+04  0.10000000000E+02 0.  1.
</event>
<event>
 5    1  0.1796476E-008  0.3690778E+03  0.7957747E-01  0.3500140E+00
         13   -1    0    0    0    0  0.00000000000E+00  0.00000000000E+00  0.14999999963E+04  0.15000000000E+04  0.10566000000E+00 0. -1.
        994   -1    0    0    0    0 -0.00000000000E+00 -0.00000000000E+00  0.11368683772E-12  0.17120000000E+03  0.17120000000E+03 0.  0.
         13    1    1    2    0    0 -0.17813777675E+02 -0.77530024431E+01  0.15201068709E+02  0.24668266576E+02  0.10566000000E+00 0. -1.
        994    1    1    2    0    0  0.16422128503E+01  0.23867115718E+02  0.11739667292E+02  0.17326163991E+03  0.17120000000E+03 0.  0.
        998    1    1    2    0    0  0.16171564825E+02 -0.16114113275E+02  0.14730592603E+04  0.14732700935E+04  0.10000000000E+02 0. -1.
</event>
<event>
 5    1  0.1796476E-008  0.3883903E+03  0.7957747E-01  0.3415420E+00
         13   -1    0    0    0    0  0.00000000000E+00  0.00000000000E+00  0.14999999963E+04  0.15000000000E+04  0.10566000000E+00 0. -1.
        994   -1    0    0    0    0 -0.00000000000E+00 -0.00000000000E+00  0.11368683772E-12  0.17120000000E+03  0.17120000000E+03 0.  0.
         13    1    1    2    0    0  0.66185177766E+02 -0.48889862668E+02  0.13763708007E+03  0.16035795397E+03  0.10566000000E+00 0. -1.
        994    1    1    2    0    0 -0.64914010764E+02  0.60480358204E+02  0.51087961083E+02  0.19947712222E+03  0.17120000000E+03 0.  0.
        998    1    1    2    0    0 -0.12711670021E+01 -0.11590495535E+02  0.13112749551E+04  0.13113649238E+04  0.10000000000E+02 0. -1.
</event>
<event>
 5    1  0.1796476E-008  0.3841688E+03  0.7957747E-01  0.3433205E+00
         13   -1    0    0    0    0  0.00000000000E+00  0.00000000000E+00  0.14999999963E+04  0.15000000000E+04  0.10566000000E+00 0. -1.
        994   -1    0    0    0    0 -0.00000000000E+00 -0.00000000000E+00  0.11368683772E-12  0.17120000000E+03  0.17120000000E+03 0.  0.
         13    1    1    2    0    0 -0.14599347550E+02 -0.28279492164E+01  0.58194301526E+02  0.60064349991E+02  0.10566000000E+00 0. -1.
        994    1    1    2    0    0 -0.43029139342E+01 -0.29273779417E+01  0.21327193024E+01  0.17129236148E+03  0.17120000000E+03 0.  0.
        998    1    1    2    0    0  0.18902261485E+02  0.57553271581E+01  0.14396729754E+04  0.14398432885E+04  0.10000000000E+02 0. -1.
</event>
<event>
 5    1  0.1796476E-008  0.3719806E+03  0.7957747E-01  0.3486838E+00
         13   -1    0    0    0    0  0.00000000000E+00  0.00000000000E+00  0.14999999963E+04  0.15000000000E+04  0.10566000000E+00 0. -1.
        994   -1    0    0    0    0 -0.00000000000E+00 -0.00000000000E+00  0.11368683772E-12  0.17120000000E+03  0.17120000000E+03 0.  0.
         13    1    1    2    0    0 -0.35001961438E+02 -0.78198264181E+02  0.46140429733E+03  0.46929099990E+03  0.10566000000E+00 0. -1.
        994    1    1    2    0    0  0.74436793428E+00  0.49592642317E+02  0.16733278707E+02  0.17902353720E+03  0.17120000000E+03 0.  0.
        998    1    1    2    0    0  0.34257593504E+02  0.28605621864E+02  0.10218624202E+04  0.10228854629E+04  0.10000000000E+02 0.  1.
</event>
<event>
 5    1  0.1796476E-008  0.3702120E+03  0.7957747E-01  0.3494917E+00
         13   -1    0    0    0    0  0.00000000000E+00  0.00000000000E+00  0.14999999963E+04  0.15000000000E+04  0.10566000000E+00 0. -1.
        994   -1    0    0    0    0 -0.00000000000E+00 -0.00000000000E+00  0.11368683772E-12  0.17120000000E+03  0.17120000000E+03 0.  0.
         13    1    1    2    0    0  0.31023412680E+01 -0.50727631721E+02  0.10576526148E+03  0.11734231479E+03  0.10566000000E+00 0. -1.
        994    1    1    2    0    0 -0.53694520577E+01  0.50246597898E+02  0.20038721922E+02  0.17962333365E+03  0.17120000000E+03 0.  0.
        998    1    1    2    0    0  0.22671107897E+01  0.48103382308E+00  0.13741960129E+04  0.13742343516E+04  0.10000000000E+02 0. -1.
</event>
<event>
 5    1  0.1796476E-008  0.3862688E+03  0.7957747E-01  0.3424309E+00
         13   -1    0    0    0    0  0.00000000000E+00  0.00000000000E+00  0.14999999963E+04  0.15000000000E+04  0.10566000000E+00 0.  1.
        994   -1    0    0    0    0 -0.00000000000E+00 -0.00000000000E+00  0.11368683772E-12  0.17120000000E+03  0.17120000000E+03 0.  0.
         13    1    1    2    0    0  0.47193525602E+01  0.89313608795E+01  0.55284001102E+02  0.56199407805E+02  0.10566000000E+00 0.  1.
        994    1    1    2    0    0  0.57928252671E+01 -0.98615270139E+00  0.11146155655E+01  0.17130444153E+03  0.17120000000E+03 0.  0.
        998    1    1    2    0    0 -0.10512177827E+02 -0.79452081781E+01  0.14436013796E+04  0.14436961507E+04  0.10000000000E+02 0.  1.
</event>
<event>
 5    1  0.1796476E-008  0.3739813E+03  0.7957747E-01  0.3477791E+00
         13   -1    0    0    0    0  0.00000000000E+00  0.00000000000E+00  0.14999999963E+04  0.15000000000E+04  0.10566000000E+00 0. -1.
        994   -1    0    0    0    0 -0.00000000000E+00 -0.00000000000E+00  0.11368683772E-12  0.17120000000E+03  0.17120000000E+03 0.  0.
         13    1    1    2    0    0  0.49032830237E+02 -0.35021584352E+02  0.17412251826E+03  0.18425360876E+03  0.10566000000E+00 0. -1.
        994    1    1    2    0    0  0.44992725039E+02  0.27512669993E+02  0.22986982859E+02  0.18060767895E+03  0.17120000000E+03 0.  0.
        998    1    1    2    0    0 -0.94025555276E+02  0.75089143594E+01  0.13028904952E+04  0.13063387123E+04  0.10000000000E+02 0. -1.
</event>
<event>
 5    1  0.1796476E-008  0.3688885E+03  0.7957747E-01  0.3501015E+00
         13   -1    0    0    0    0  0.00000000000E+00  0.00000000000E+00  0.14999999963E+04  0.15000000000E+04  0.10566000000E+00 0.  1.
        994   -1    0    0    0    0 -0.00000000000E+00 -0.00000000000E+00  0.11368683772E-12  0.17120000000E+03  0.17120000000E+03 0.  0.
         13    1    1    2    0    0  0.34538358728E+02  0.10581357043E+02  0.63887978860E+02  0.73393108309E+02  0.10566000000E+00 0.  1.
        994    1    1    2    0    0 -0.15385141425E+01  0.10741726905E+02  0.10762427143E+02  0.17188083535E+03  0.17120000000E+03 0.  0.
        998    1    1    2    0    0 -0.32999844585E+02 -0.21323083948E+02  0.14253495903E+04  0.14259260563E+04  0.10000000000E+02 0.  1.
</event>
<event>
 5    1  0.1796476E-008  0.3847464E+03  0.7957747E-01  0.3430748E+00
         13   -1    0    0    0    0  0.00000000000E+00  0.00000000000E+00  0.14999999963E+04  0.15000000000E+04  0.10566000000E+00 0.  1.
        994   -1    0    0    0    0 -0.00000000000E+00 -0.00000000000E+00  0.11368683772E-12  0.17120000000E+03  0.17120000000E+03 0.  0.
         13    1    1    2    0    0 -0.15243279304E+02 -0.97084702824E+01  0.99627915837E+02  0.10125386283E+03  0.10566000000E+00 0.  1.
        994    1    1    2    0    0  0.21822037885E+01  0.11108384556E+01  0.17758205954E+01  0.17122671963E+03  0.17120000000E+03 0.  0.
        998    1    1    2    0    0  0.13061075515E+02  0.85976318268E+01  0.13985962598E+04  0.13987194175E+04  0.10000000000E+02 0.  1.
</event>
<event>
 5    1  0.1796476E-008  0.3699140E+03  0.7957747E-01  0.3496286E+00
         13   -1    0    0    0    0  0.00000000000E+00  0.00000000000E+00  0.14999999963E+04  0.15000000000E+04  0.10566000000E+00 0.  1.
        994   -1    0    0    0    0 -0.00000000000E+00 -0.00000000000E+00  0.11368683772E-12  0.17120000000E+03  0.17120000000E+03 0.  0.
         13    1    1    2    0    0  0.30084698715E+02  0.90402313384E+01  0.46958005514E+02  0.56496728448E+02  0.10566000000E+00 0.  1.
        994    1    1    2    0    0 -0.39503121835E+02 -0.26883660857E+01  0.14755797530E+02  0.17633745350E+03  0.17120000000E+03 0.  0.
        998    1    1    2    0    0  0.94184231202E+01 -0.63518652527E+01  0.14382861932E+04  0.14383658180E+04  0.10000000000E+02 0.  1.
</event>
<event>
 5    1  0.1796476E-008  0.3742134E+03  0.7957747E-01  0.3476748E+00
         13   -1    0    0    0    0  0.00000000000E+00  0.00000000000E+00  0.14999999963E+04  0.15000000000E+04  0.10566000000E+00 0. -1.
        994   -1    0    0    0    0 -0.00000000000E+00 -0.00000000000E+00  0.11368683772E-12  0.17120000000E+03  0.17120000000E+03 0.  0.
         13    1    1    2    0    0 -0.12639496757E+02 -0.24455288790E+02  0.50652291475E+02  0.57649664559E+02  0.10566000000E+00 0. -1.
        994    1    1    2    0    0  0.49443916296E+01  0.18502741347E+02  0.83343219221E+01  0.17246941575E+03  0.17120000000E+03 0.  0.
        998    1    1    2    0    0  0.76951051271E+01  0.59525474432E+01  0.14410133829E+04  0.14410809197E+04  0.10000000000E+02 0. -1.
</event>
<event>
 5    1  0.1796476E-008  0.3854746E+03  0.7957747E-01  0.3427662E+00
         13   -1    0    0    0    0  0.00000000000E+00  0.00000000000E+00  0.14999999963E+04  0.15000000000E+04  0.10566000000E+00 0. -1.
        994   -1    0    0    0    0 -0.00000000000E+00 -0.00000000000E+00  0.11368683772E-12  0.17120000000E+03  0.17120000000E+03 0.  0.
         13    1    1    2    0    0  0.13820090189E+02 -0.34251237648E+01  0.76466540724E+02  0.77780906268E+02  0.10566000000E+00 0. -1.
        994    1    1    2    0    0  0.67083403217E+00  0.17965426612E+02  0.24566906160E+01  0.17215888563E+03  0.17120000000E+03 0.  0.
        998    1    1    2    0    0 -0.14490924221E+02 -0.14540302847E+02  0.14210767649E+04  0.14212602081E+04  0.10000000000E+02 0. -1.
</event>
<event>
 5    1  0.1796476E-008  0.3772150E+03  0.7957747E-01  0.3463375E+00
         13   -1    0    0    0    0  0.00000000000E+00  0.00000000000E+00  0.14999999963E+04  0.15000000000E+04  0.10566000000E+00 0.  1.
        994   -1    0    0    0    0 -0.00000000000E+00 -0.00000000000E+00  0.11368683772E-12  0.17120000000E+03  0.17120000000E+03 0.  0.
         13    1    1    2    0    0 -0.16852015931E+02  0.16097458878E+02  0.52439004396E+02  0.57384483698E+02  0.10566000000E+00 0.  1.
        994    1    1    2    0    0 -0.27025499742E+01  0.22819318064E+02  0.73292309401E+01  0.17289066684E+03  0.17120000000E+03 0.  0.
        998    1    1    2    0    0  0.19554565905E+02 -0.38916776942E+02  0.14402317609E+04  0.14409248495E+04  0.10000000000E+02 0.  1.
</event>
<event>
 5    1  0.2123587E-008  0.3859569E+03  0.7957747E-01  0.3425624E+00
         13   -1    0    0    0    0  0.00000000000E+00  0.00000000000E+00  0.14999999963E+04  0.15000000000E+04  0.10566000000E+00 0.  1.
        994   -1    0    0    0    0 -0.00000000000E+00 -0.00000000000E+00  0.11368683772E-12  0.17120000000E+03  0.17120000000E+03 0.  0.
         13    1    1    2    0    0 -0.11434095359E+01  0.12515940618E+02  0.64038297059E+02  0.65260024588E+02  0.10566000000E+00 0.  1.
        994    1    1    2    0    0  0.13271613635E+01 -0.18692469239E+02  0.23079380357E+01  0.17223802235E+03  0.17120000000E+03 0.  0.
        998    1    1    2    0    0 -0.18375182756E+00  0.61765286211E+01  0.14336537612E+04  0.14337019531E+04  0.10000000000E+02 0.  1.
</event>
<event>
 5    1  0.1796476E-008  0.3781594E+03  0.7957747E-01  0.3459212E+00
         13   -1    0    0    0    0  0.00000000000E+00  0.00000000000E+00  0.14999999963E+04  0.15000000000E+04  0.10566000000E+00 0.  1.
        994   -1    0    0    0    0 -0.00000000000E+00 -0.00000000000E+00  0.11368683772E-12  0.17120000000E+03  0.17120000000E+03 0.  0.
         13    1    1    2    0    0  0.51427877255E+02  0.24708544404E+02  0.22039759181E+03  0.22766301493E+03  0.10566000000E+00 0.  1.
        994    1    1    2    0    0 -0.65124640266E+02 -0.70003685862E+02  0.36455635865E+02  0.19944971344E+03  0.17120000000E+03 0.  0.
        998    1    1    2    0    0  0.13696763011E+02  0.45295141458E+02  0.12431467686E+04  0.12440872716E+04  0.10000000000E+02 0.  1.
</event>
<event>
 5    1  0.1796476E-008  0.3791238E+03  0.7957747E-01  0.3454983E+00
         13   -1    0    0    0    0  0.00000000000E+00  0.00000000000E+00  0.14999999963E+04  0.15000000000E+04  0.10566000000E+00 0.  1.
        994   -1    0    0    0    0 -0.00000000000E+00 -0.00000000000E+00  0.11368683772E-12  0.17120000000E+03  0.17120000000E+03 0.  0.
         13    1    1    2    0    0  0.90139711162E+01  0.52799197271E+02  0.30060938157E+03  0.30534409829E+03  0.10566000000E+00 0.  1.
        994    1    1    2    0    0 -0.25314289617E+02 -0.31532508997E+02  0.10077613173E+02  0.17619906546E+03  0.17120000000E+03 0.  0.
        998    1    1    2    0    0  0.16300318501E+02 -0.21266688274E+02  0.11893130015E+04  0.11896568363E+04  0.10000000000E+02 0.  1.
</event>
<event>
 5    1  0.1796476E-008  0.3813355E+03  0.7957747E-01  0.3445364E+00
         13   -1    0    0    0    0  0.00000000000E+00  0.00000000000E+00  0.14999999963E+04  0.15000000000E+04  0.10566000000E+00 0. -1.
        994   -1    0    0    0    0 -0.00000000000E+00 -0.00000000000E+00  0.11368683772E-12  0.17120000000E+03  0.17120000000E+03 0.  0.
         13    1    1    2    0    0 -0.17491101935E+02  0.34674639717E+02  0.22057740208E+03  0.22397024525E+03  0.10566000000E+00 0. -1.
        994    1    1    2    0    0  0.12038034782E+02 -0.16711461429E+02  0.48735786460E+01  0.17250327241E+03  0.17120000000E+03 0.  0.
        998    1    1    2    0    0  0.54530671528E+01 -0.17963178288E+02  0.12745490156E+04  0.12747264823E+04  0.10000000000E+02 0. -1.
</event>
<event>
 5    1  0.1796476E-008  0.3778102E+03  0.7957747E-01  0.3460749E+00
         13   -1    0    0    0    0  0.00000000000E+00  0.00000000000E+00  0.14999999963E+04  0.15000000000E+04  0.10566000000E+00 0.  1.
        994   -1    0    0    0    0 -0.00000000000E+00 -0.00000000000E+00  0.11368683772E-12  0.17120000000E+03  0.17120000000E+03 0.  0.
         13    1    1    2    0    0 -0.16664462865E+02  0.58455911137E+01  0.27767350185E+02  0.32907630701E+02  0.10566000000E+00 0.  1.
        994    1    1    2    0    0  0.86805410492E+01 -0.48352534759E+01  0.55751558553E+01  0.17157871031E+03  0.17120000000E+03 0.  0.
        998    1    1    2    0    0  0.79839218155E+01 -0.10103376378E+01  0.14666574902E+04  0.14667136590E+04  0.10000000000E+02 0.  1.
</event>
<event>
 5    1  0.1796476E-008  0.3801462E+03  0.7957747E-01  0.3450522E+00
         13   -1    0    0    0    0  0.00000000000E+00  0.00000000000E+00  0.14999999963E+04  0.15000000000E+04  0.10566000000E+00 0.  1.
        994   -1    0    0    0    0 -0.00000000000E+00 -0.00000000000E+00  0.11368683772E-12  0.17120000000E+03  0.17120000000E+03 0.  0.
         13    1    1    2    0    0 -0.45578897745E+01 -0.10726551578E+02  0.14928102066E+02  0.18939183279E+02  0.10566000000E+00 0.  1.
        994    1    1    2    0    0  0.36368582418E+01  0.93617442723E+01  0.43964465352E+01  0.17155068562E+03  0.17120000000E+03 0.  0.
        998    1    1    2    0    0  0.92103153269E+00  0.13648073054E+01  0.14806754477E+04  0.14807101311E+04  0.10000000000E+02 0.  1.
</event>
<event>
 5    1  0.1796476E-008  0.3766140E+03  0.7957747E-01  0.3466036E+00
         13   -1    0    0    0    0  0.00000000000E+00  0.00000000000E+00  0.14999999963E+04  0.15000000000E+04  0.10566000000E+00 0. -1.
        994   -1    0    0    0    0 -0.00000000000E+00 -0.00000000000E+00  0.11368683772E-12  0.17120000000E+03  0.17120000000E+03 0.  0.
         13    1    1    2    0    0 -0.91082446534E+01  0.16556289839E+02  0.28249429175E+02  0.33986942590E+02  0.10566000000E+00 0. -1.
        994    1    1    2    0    0  0.37987092257E+01 -0.10352994922E+02  0.62634922078E+01  0.17166911787E+03  0.17120000000E+03 0.  0.
        998    1    1    2    0    0  0.53095354276E+01 -0.62032949172E+01  0.14654870749E+04  0.14655439395E+04  0.10000000000E+02 0. -1.
</event>
<event>
 5    1  0.1796476E-008  0.3808008E+03  0.7957747E-01  0.3447679E+00
         13   -1    0    0    0    0  0.00000000000E+00  0.00000000000E+00  0.14999999963E+04  0.15000000000E+04  0.10566000000E+00 0. -1.
        994   -1    0    0    0    0 -0.00000000000E+00 -0.00000000000E+00  0.11368683772E-12  0.17120000000E+03  0.17120000000E+03 0.  0.
         13    1    1    2    0    0 -0.87360393788E+01 -0.29456962066E+02  0.12167131430E+03  0.12549083985E+03  0.10566000000E+00 0. -1.
        994    1    1    2    0    0  0.18356272342E+02  0.19092947758E+02  0.60718263809E+01  0.17334301389E+03  0.17120000000E+03 0.  0.
        998    1    1    2    0    0 -0.96202329634E+01  0.10364014308E+02  0.13722568556E+04  0.13723661463E+04  0.10000000000E+02 0. -1.
</event>
<event>
 5    1  0.1796476E-008  0.3766406E+03  0.7957747E-01  0.3465918E+00
         13   -1    0    0    0    0  0.00000000000E+00  0.00000000000E+00  0.14999999963E+04  0.15000000000E+04  0.10566000000E+00 0. -1.
        994   -1    0    0    0    0 -0.00000000000E+00 -0.00000000000E+00  0.11368683772E-12  0.17120000000E+03  0.17120000000E+03 0.  0.
         13    1    1    2    0    0 -0.41257043791E+01 -0.10863425119E+02  0.88460474219E+01  0.14604765009E+02  0.10566000000E+00 0. -1.
        994    1    1    2    0    0  0.66955788064E+01  0.10737585817E+02  0.63801615087E+01  0.17178554359E+03  0.17120000000E+03 0.  0.
        998    1    1    2    0    0 -0.25698744273E+01  0.12583930254E+00  0.14847737873E+04  0.14848096914E+04  0.10000000000E+02 0. -1.
</event>
<event>
 5    1  0.1899942E-008  0.3859528E+03  0.7957747E-01  0.3425641E+00
         13   -1    0    0    0    0  0.00000000000E+00  0.00000000000E+00  0.14999999963E+04  0.15000000000E+04  0.10566000000E+00 0.  1.
        994   -1    0    0    0    0 -0.00000000000E+00 -0.00000000000E+00  0.11368683772E-12  0.17120000000E+03  0.17120000000E+03 0.  0.
         13    1    1    2    0    0 -0.69422560208E+01  0.89730988095E+01  0.55022761551E+02  0.56180306814E+02  0.10566000000E+00 0.  1.
        994    1    1    2    0    0  0.90360144252E+01 -0.65443885567E+01  0.15660525507E+01  0.17157030949E+03  0.17120000000E+03 0.  0.
        998    1    1    2    0    0 -0.20937584044E+01 -0.24287102527E+01  0.14434111822E+04  0.14434493837E+04  0.10000000000E+02 0.  1.
</event>
<event>
 5    1  0.1796476E-008  0.3845277E+03  0.7957747E-01  0.3431678E+00
         13   -1    0    0    0    0  0.00000000000E+00  0.00000000000E+00  0.14999999963E+04  0.15000000000E+04  0.10566000000E+00 0. -1.
        994   -1    0    0    0    0 -0.00000000000E+00 -0.00000000000E+00  0.11368683772E-12  0.17120000000E+03  0.17120000000E+03 0.  0.
         13    1    1    2    0    0  0.17215192593E+02 -0.11773220240E+02  0.12357099626E+03  0.12531868915E+03  0.10566000000E+00 0. -1.
        994    1    1    2    0    0 -0.16652715860E+02 -0.12750769397E+02  0.33150041828E+01  0.17251180921E+03  0.17120000000E+03 0.  0.
        998    1    1    2    0    0 -0.56247673371E+00  0.24523989637E+02  0.13731139958E+04  0.13733695016E+04  0.10000000000E+02 0. -1.
</event>
<event>
 5    1  0.1796476E-008  0.2895056E+03  0.7957747E-01  0.3973910E+00
         13   -1    0    0    0    0  0.00000000000E+00  0.00000000000E+00  0.14999999963E+04  0.15000000000E+04  0.10566000000E+00 0.  1.
        994   -1    0    0    0    0 -0.00000000000E+00 -0.00000000000E+00  0.11368683772E-12  0.17120000000E+03  0.17120000000E+03 0.  0.
         13    1    1    2    0    0  0.20051198037E+03  0.28996720419E+02  0.54337532118E+03  0.57991604124E+03  0.10566000000E+00 0.  1.
        994    1    1    2    0    0 -0.18209984156E+03 -0.48730723709E+02  0.17465807068E+03  0.30878781936E+03  0.17120000000E+03 0.  0.
        998    1    1    2    0    0 -0.18412138806E+02  0.19734003289E+02  0.78196660442E+03  0.78249613940E+03  0.10000000000E+02 0.  1.
</event>
<event>
 5    1  0.1796476E-008  0.3769991E+03  0.7957747E-01  0.3464330E+00
         13   -1    0    0    0    0  0.00000000000E+00  0.00000000000E+00  0.14999999963E+04  0.15000000000E+04  0.10566000000E+00 0.  1.
        994   -1    0    0    0    0 -0.00000000000E+00 -0.00000000000E+00  0.11368683772E-12  0.17120000000E+03  0.17120000000E+03 0.  0.
         13    1    1    2    0    0  0.24676679352E+02  0.21722599979E+02  0.84959286914E+02  0.91098306519E+02  0.10566000000E+00 0.  1.
        994    1    1    2    0    0 -0.13811544422E+02 -0.50252994792E+02  0.14882116896E+02  0.17957460747E+03  0.17120000000E+03 0.  0.
        998    1    1    2    0    0 -0.10865134930E+02  0.28530394813E+02  0.14001585925E+04  0.14005270860E+04  0.10000000000E+02 0.  1.
</event>
<event>
 5    1  0.1796476E-008  0.4068063E+03  0.7957747E-01  0.3342146E+00
         13   -1    0    0    0    0  0.00000000000E+00  0.00000000000E+00  0.14999999963E+04  0.15000000000E+04  0.10566000000E+00 0.  1.
        994   -1    0    0    0    0 -0.00000000000E+00 -0.00000000000E+00  0.11368683772E-12  0.17120000000E+03  0.17120000000E+03 0.  0.
         13    1    1    2    0    0 -0.86725622954E+02  0.10509231203E+03  0.25120591226E+03  0.28577989650E+03  0.10566000000E+00 0.  1.
        994    1    1    2    0    0  0.93614480113E+02 -0.73328497005E+02  0.91531607236E+02  0.22765810876E+03  0.17120000000E+03 0.  0.
        998    1    1    2    0    0 -0.68888571594E+01 -0.31763815030E+02  0.11572624768E+04  0.11577619947E+04  0.10000000000E+02 0.  1.
</event>
<event>
 5    1  0.1796476E-008  0.3851627E+03  0.7957747E-01  0.3428982E+00
         13   -1    0    0    0    0  0.00000000000E+00  0.00000000000E+00  0.14999999963E+04  0.15000000000E+04  0.10566000000E+00 0. -1.
        994   -1    0    0    0    0 -0.00000000000E+00 -0.00000000000E+00  0.11368683772E-12  0.17120000000E+03  0.17120000000E+03 0.  0.
         13    1    1    2    0    0 -0.11657618849E+02 -0.36948255232E+01  0.48452973827E+02  0.49972528950E+02  0.10566000000E+00 0. -1.
        994    1    1    2    0    0  0.61752753565E+01  0.55499823713E+01  0.17760070983E+01  0.17141041547E+03  0.17120000000E+03 0.  0.
        998    1    1    2    0    0  0.54823434921E+01 -0.18551568481E+01  0.14497710154E+04  0.14498170556E+04  0.10000000000E+02 0. -1.
</event>
<event>
 5    1  0.1796476E-008  0.3774989E+03  0.7957747E-01  0.3462122E+00
         13   -1    0    0    0    0  0.00000000000E+00  0.00000000000E+00  0.14999999963E+04  0.15000000000E+04  0.10566000000E+00 0.  1.
        994   -1    0    0    0    0 -0.00000000000E+00 -0.00000000000E+00  0.11368683772E-12  0.17120000000E+03  0.17120000000E+03 0.  0.
         13    1    1    2    0    0 -0.26153026383E+02 -0.13277816610E+02  0.73308651394E+02  0.78958538083E+02  0.10566000000E+00 0.  1.
        994    1    1    2    0    0  0.29448120461E+02  0.14574598011E+02  0.90488253500E+01  0.17455925053E+03  0.17120000000E+03 0.  0.
        998    1    1    2    0    0 -0.32950940783E+01 -0.12967814014E+01  0.14176425195E+04  0.14176822114E+04  0.10000000000E+02 0.  1.
</event>
<event>
 5    1  0.1796476E-008  0.3983598E+03  0.7957747E-01  0.3374915E+00
         13   -1    0    0    0    0  0.00000000000E+00  0.00000000000E+00  0.14999999963E+04  0.15000000000E+04  0.10566000000E+00 0. -1.
        994   -1    0    0    0    0 -0.00000000000E+00 -0.00000000000E+00  0.11368683772E-12  0.17120000000E+03  0.17120000000E+03 0.  0.
         13    1    1    2    0    0  0.35945865731E+02  0.22988556309E+01  0.13344398294E+02  0.38411900893E+02  0.10566000000E+00 0. -1.
        994    1    1    2    0    0 -0.31207218326E+02 -0.23459865816E+01  0.30619436333E+02  0.17670988657E+03  0.17120000000E+03 0.  0.
        998    1    1    2    0    0 -0.47386474047E+01  0.47130950678E-01  0.14560361617E+04  0.14560782125E+04  0.10000000000E+02 0. -1.
</event>
<event>
 5    1  0.1796476E-008  0.4118905E+03  0.7957747E-01  0.3323063E+00
         13   -1    0    0    0    0  0.00000000000E+00  0.00000000000E+00  0.14999999963E+04  0.15000000000E+04  0.10566000000E+00 0. -1.
        994   -1    0    0    0    0 -0.00000000000E+00 -0.00000000000E+00  0.11368683772E-12  0.17120000000E+03  0.17120000000E+03 0.  0.
         13    1    1    2    0    0  0.88434245809E+01 -0.48255092613E+02  0.26656855948E+02  0.55833316707E+02  0.10566000000E+00 0. -1.
        994    1    1    2    0    0  0.14970125209E+02 -0.46365879271E+02  0.44918193362E+02  0.18357827623E+03  0.17120000000E+03 0.  0.
        998    1    1    2    0    0 -0.23813549790E+02  0.94620971884E+02  0.14284249470E+04  0.14317884071E+04  0.10000000000E+02 0. -1.
</event>
<event>
 5    1  0.1796476E-008  0.3835717E+03  0.7957747E-01  0.3435752E+00
         13   -1    0    0    0    0  0.00000000000E+00  0.00000000000E+00  0.14999999963E+04  0.15000000000E+04  0.10566000000E+00 0. -1.
        994   -1    0    0    0    0 -0.00000000000E+00 -0.00000000000E+00  0.11368683772E-12  0.17120000000E+03  0.17120000000E+03 0.  0.
         13    1    1    2    0    0 -0.99601066048E+01  0.17951442712E+01  0.21351547040E+02  0.23628922776E+02  0.10566000000E+00 0. -1.
        994    1    1    2    0    0  0.33052215456E+01  0.10585014942E+01  0.23807215429E+01  0.17125172335E+03  0.17120000000E+03 0.  0.
        998    1    1    2    0    0  0.66548850592E+01 -0.28536457654E+01  0.14762677277E+04  0.14763193539E+04  0.10000000000E+02 0. -1.
</event>
<event>
 5    1  0.1796476E-008  0.3787697E+03  0.7957747E-01  0.3456533E+00
         13   -1    0    0    0    0  0.00000000000E+00  0.00000000000E+00  0.14999999963E+04  0.15000000000E+04  0.10566000000E+00 0. -1.
        994   -1    0    0    0    0 -0.00000000000E+00 -0.00000000000E+00  0.11368683772E-12  0.17120000000E+03  0.17120000000E+03 0.  0.
         13    1    1    2    0    0 -0.20371507711E+02 -0.36283010661E+02  0.21834425327E+03  0.22227388351E+03  0.10566000000E+00 0. -1.
        994    1    1    2    0    0  0.56691481074E+01 -0.45994137849E+01  0.49343706206E+01  0.17142660780E+03  0.17120000000E+03 0.  0.
        998    1    1    2    0    0  0.14702359604E+02  0.40882424446E+02  0.12767213724E+04  0.12774995087E+04  0.10000000000E+02 0. -1.
</event>
<event>
 5    1  0.1796476E-008  0.3713829E+03  0.7957747E-01  0.3489559E+00
         13   -1    0    0    0    0  0.00000000000E+00  0.00000000000E+00  0.14999999963E+04  0.15000000000E+04  0.10566000000E+00 0. -1.
        994   -1    0    0    0    0 -0.00000000000E+00 -0.00000000000E+00  0.11368683772E-12  0.17120000000E+03  0.17120000000E+03 0.  0.
         13    1    1    2    0    0  0.99781301691E+01  0.18319627751E+02  0.21504626721E+02  0.29960506956E+02  0.10566000000E+00 0. -1.
        994    1    1    2    0    0 -0.15700185522E+02 -0.15285641732E+02  0.10202069968E+02  0.17289785684E+03  0.17120000000E+03 0.  0.
        998    1    1    2    0    0  0.57220553532E+01 -0.30339860185E+01  0.14682932996E+04  0.14683416362E+04  0.10000000000E+02 0. -1.
</event>
<event>
 5    1  0.1796476E-008  0.3828985E+03  0.7957747E-01  0.3438634E+00
         13   -1    0    0    0    0  0.00000000000E+00  0.00000000000E+00  0.14999999963E+04  0.15000000000E+04  0.10566000000E+00 0. -1.
        994   -1    0    0    0    0 -0.00000000000E+00 -0.00000000000E+00  0.11368683772E-12  0.17120000000E+03  0.17120000000E+03 0.  0.
         13    1    1    2    0    0  0.17722146476E+02  0.96236880151E+01  0.80452370959E+02  0.82941455278E+02  0.10566000000E+00 0. -1.
        994    1    1    2    0    0 -0.11106700469E+02  0.17821163779E+02  0.41385739519E+01  0.17253266493E+03  0.17120000000E+03 0.  0.
        998    1    1    2    0    0 -0.66154460068E+01 -0.27444851794E+02  0.14154090514E+04  0.14157258798E+04  0.10000000000E+02 0. -1.
</event>
<event>
 5    1  0.2600398E-008  0.3861893E+03  0.7957747E-01  0.3424644E+00
         13   -1    0    0    0    0  0.00000000000E+00  0.00000000000E+00  0.14999999963E+04  0.15000000000E+04  0.10566000000E+00 0.  1.
        994   -1    0    0    0    0 -0.00000000000E+00 -0.00000000000E+00  0.11368683772E-12  0.17120000000E+03  0.17120000000E+03 0.  0.
         13    1    1    2    0    0 -0.13802948150E+01  0.12001448368E+02  0.71817035742E+02  0.72826078869E+02  0.10566000000E+00 0.  1.
        994    1    1    2    0    0  0.46455352623E+00 -0.68738031784E+01  0.11963288550E+01  0.17134274476E+03  0.17120000000E+03 0.  0.
        998    1    1    2    0    0  0.91574128878E+00 -0.51276451897E+01  0.14269866317E+04  0.14270311764E+04  0.10000000000E+02 0.  1.
</event>
<event>
 5    1  0.1796476E-008  0.3823274E+03  0.7957747E-01  0.3441087E+00
         13   -1    0    0    0    0  0.00000000000E+00  0.00000000000E+00  0.14999999963E+04  0.15000000000E+04  0.10566000000E+00 0. -1.
        994   -1    0    0    0    0 -0.00000000000E+00 -0.00000000000E+00  0.11368683772E-12  0.17120000000E+03  0.17120000000E+03 0.  0.
         13    1    1    2    0    0  0.82245745363E+01  0.99752058418E+01  0.26922205716E+02  0.29865777782E+02  0.10566000000E+00 0. -1.
        994    1    1    2    0    0 -0.88175433727E+01 -0.70549286254E+01  0.33860476997E+01  0.17160543817E+03  0.17120000000E+03 0.  0.
        998    1    1    2    0    0  0.59296883638E+00 -0.29202772164E+01  0.14696917429E+04  0.14697287841E+04  0.10000000000E+02 0. -1.
</event>
<event>
 5    1  0.1796476E-008  0.3812434E+03  0.7957747E-01  0.3445762E+00
         13   -1    0    0    0    0  0.00000000000E+00  0.00000000000E+00  0.14999999963E+04  0.15000000000E+04  0.10566000000E+00 0.  1.
        994   -1    0    0    0    0 -0.00000000000E+00 -0.00000000000E+00  0.11368683772E-12  0.17120000000E+03  0.17120000000E+03 0.  0.
         13    1    1    2    0    0 -0.12904422443E+01  0.13576652735E+02  0.24843904823E+02  0.28341162847E+02  0.10566000000E+00 0.  1.
        994    1    1    2    0    0 -0.47417710899E+01 -0.13811338951E+02  0.42170187516E+01  0.17187338573E+03  0.17120000000E+03 0.  0.
        998    1    1    2    0    0  0.60322133343E+01  0.23468621647E+00  0.14709390727E+04  0.14709854514E+04  0.10000000000E+02 0.  1.
</event>
<event>
 5    1  0.1796476E-008  0.3788055E+03  0.7957747E-01  0.3456376E+00
         13   -1    0    0    0    0  0.00000000000E+00  0.00000000000E+00  0.14999999963E+04  0.15000000000E+04  0.10566000000E+00 0. -1.
        994   -1    0    0    0    0 -0.00000000000E+00 -0.00000000000E+00  0.11368683772E-12  0.17120000000E+03  0.17120000000E+03 0.  0.
         13    1    1    2    0    0  0.10889374025E+02  0.37197831803E+01  0.11873511532E+02  0.16535014173E+02  0.10566000000E+00 0. -1.
        994    1    1    2    0    0 -0.89310797359E+01 -0.77680070699E+00  0.50070870944E+01  0.17150766317E+03  0.17120000000E+03 0.  0.
        998    1    1    2    0    0 -0.19582942886E+01 -0.29429824733E+01  0.14831193977E+04  0.14831573227E+04  0.10000000000E+02 0. -1.
</event>
<event>
 5    1  0.1796476E-008  0.3687629E+03  0.7957747E-01  0.3501596E+00
         13   -1    0    0    0    0  0.00000000000E+00  0.00000000000E+00  0.14999999963E+04  0.15000000000E+04  0.10566000000E+00 0.  1.
        994   -1    0    0    0    0 -0.00000000000E+00 -0.00000000000E+00  0.11368683772E-12  0.17120000000E+03  0.17120000000E+03 0.  0.
         13    1    1    2    0    0  0.36333203346E+02  0.25159248497E+02  0.92554259506E+02  0.10256408517E+03  0.10566000000E+00 0.  1.
        994    1    1    2    0    0 -0.31945457375E+02 -0.15840984113E+02  0.14345093715E+02  0.17546130838E+03  0.17120000000E+03 0.  0.
        998    1    1    2    0    0 -0.43877459705E+01 -0.93182643835E+01  0.13931006431E+04  0.13931746064E+04  0.10000000000E+02 0.  1.
</event>
<event>
 5    1  0.1796476E-008  0.4270901E+03  0.7957747E-01  0.3268682E+00
         13   -1    0    0    0    0  0.00000000000E+00  0.00000000000E+00  0.14999999963E+04  0.15000000000E+04  0.10566000000E+00 0.  1.
        994   -1    0    0    0    0 -0.00000000000E+00 -0.00000000000E+00  0.11368683772E-12  0.17120000000E+03  0.17120000000E+03 0.  0.
         13    1    1    2    0    0 -0.10138593730E+03  0.99495651557E+02  0.17972816137E+03  0.22908669999E+03  0.10566000000E+00 0.  1.
        994    1    1    2    0    0  0.13309669873E+03 -0.67205942684E+02  0.15265511468E+03  0.27357703482E+03  0.17120000000E+03 0.  0.
        998    1    1    2    0    0 -0.31710761427E+02 -0.32289708873E+02  0.11676167202E+04  0.11685362652E+04  0.10000000000E+02 0.  1.
</event>
<event>
 5    1  0.1796476E-008  0.3834312E+03  0.7957747E-01  0.3436353E+00
         13   -1    0    0    0    0  0.00000000000E+00  0.00000000000E+00  0.14999999963E+04  0.15000000000E+04  0.10566000000E+00 0. -1.
        994   -1    0    0    0    0 -0.00000000000E+00 -0.00000000000E+00  0.11368683772E-12  0.17120000000E+03  0.17120000000E+03 0.  0.
         13    1    1    2    0    0 -0.55941014303E+01 -0.11569600453E+02  0.34332996913E+02  0.36659452622E+02  0.10566000000E+00 0. -1.
        994    1    1    2    0    0 -0.14510802163E+01  0.36142462995E+01  0.24611891953E+01  0.17126198020E+03  0.17120000000E+03 0.  0.
        998    1    1    2    0    0  0.70451816466E+01  0.79553541538E+01  0.14632058102E+04  0.14632785672E+04  0.10000000000E+02 0. -1.
</event>
<event>
 5    1  0.1796476E-008  0.3855361E+03  0.7957747E-01  0.3427402E+00
         13   -1    0    0    0    0  0.00000000000E+00  0.00000000000E+00  0.14999999963E+04  0.15000000000E+04  0.10566000000E+00 0.  1.
        994   -1    0    0    0    0 -0.00000000000E+00 -0.00000000000E+00  0.11368683772E-12  0.17120000000E+03  0.17120000000E+03 0.  0.
         13    1    1    2    0    0 -0.84304471721E+01  0.78773128141E+01  0.49329607810E+02  0.50661088297E+02  0.10566000000E+00 0.  1.
        994    1    1    2    0    0  0.11005539137E+02  0.18013017026E+01  0.17725915743E+01  0.17157199265E+03  0.17120000000E+03 0.  0.
        998    1    1    2    0    0 -0.25750919653E+01 -0.96786145167E+01  0.14488977969E+04  0.14489669191E+04  0.10000000000E+02 0.  1.
</event>
<event>
 5    1  0.1796476E-008  0.3697755E+03  0.7957747E-01  0.3496923E+00
         13   -1    0    0    0    0  0.00000000000E+00  0.00000000000E+00  0.14999999963E+04  0.15000000000E+04  0.10566000000E+00 0.  1.
        994   -1    0    0    0    0 -0.00000000000E+00 -0.00000000000E+00  0.11368683772E-12  0.17120000000E+03  0.17120000000E+03 0.  0.
         13    1    1    2    0    0 -0.37044181718E+02  0.33627381043E+02  0.13151118049E+03  0.14070633928E+03  0.10566000000E+00 0.  1.
        994    1    1    2    0    0  0.25883743658E+02 -0.13306200773E+02  0.12323023452E+02  0.17409284900E+03  0.17120000000E+03 0.  0.
        998    1    1    2    0    0  0.11160438060E+02 -0.20321180270E+02  0.13561657923E+04  0.13564008117E+04  0.10000000000E+02 0.  1.
</event>
<event>
 5    1  0.1796476E-008  0.3849695E+03  0.7957747E-01  0.3429802E+00
         13   -1    0    0    0    0  0.00000000000E+00  0.00000000000E+00  0.14999999963E+04  0.15000000000E+04  0.10566000000E+00 0.  1.
        994   -1    0    0    0    0 -0.00000000000E+00 -0.00000000000E+00  0.11368683772E-12  0.17120000000E+03  0.17120000000E+03 0.  0.
         13    1    1    2    0    0 -0.10017258521E+02 -0.33924391224E+01  0.32269700725E+02  0.33958781786E+02  0.10566000000E+00 0.  1.
        994    1    1    2    0    0  0.21553467077E+02 -0.91287165260E+01  0.34493446978E+01  0.17282714887E+03  0.17120000000E+03 0.  0.
        998    1    1    2    0    0 -0.11536208556E+02  0.12521155648E+02  0.14642809509E+04  0.14644140693E+04  0.10000000000E+02 0.  1.
</event>
<event>
 5    1  0.1796476E-008  0.3685061E+03  0.7957747E-01  0.3502785E+00
         13   -1    0    0    0    0  0.00000000000E+00  0.00000000000E+00  0.14999999963E+04  0.15000000000E+04  0.10566000000E+00 0.  1.
        994   -1    0    0    0    0 -0.00000000000E+00 -0.00000000000E+00  0.11368683772E-12  0.17120000000E+03  0.17120000000E+03 0.  0.
         13    1    1    2    0    0 -0.40323311341E+02 -0.81354197915E+02  0.32010020403E+03  0.33272905906E+03  0.10566000000E+00 0.  1.
        994    1    1    2    0    0  0.34412179345E+02  0.81436442433E+02  0.37850292574E+02  0.19636236119E+03  0.17120000000E+03 0.  0.
        998    1    1    2    0    0  0.59111319958E+01 -0.82244517796E-01  0.11420494997E+04  0.11421085798E+04  0.10000000000E+02 0.  1.
</event>
<event>
 5    1  0.1796476E-008  0.3816395E+03  0.7957747E-01  0.3444050E+00
         13   -1    0    0    0    0  0.00000000000E+00  0.00000000000E+00  0.14999999963E+04  0.15000000000E+04  0.10566000000E+00 0. -1.
        994   -1    0    0    0    0 -0.00000000000E+00 -0.00000000000E+00  0.11368683772E-12  0.17120000000E+03  0.17120000000E+03 0.  0.
         13    1    1    2    0    0 -0.15527998412E+01 -0.12517774683E+02  0.22843521899E+02  0.26094894657E+02  0.10566000000E+00 0. -1.
        994    1    1    2    0    0 -0.16405411936E+02  0.94471027347E+01  0.45002970845E+01  0.17230228659E+03  0.17120000000E+03 0.  0.
        998    1    1    2    0    0  0.17958211777E+02  0.30706719488E+01  0.14726561773E+04  0.14728028188E+04  0.10000000000E+02 0. -1.
</event>
<event>
 5    1  0.1796476E-008  0.3833720E+03  0.7957747E-01  0.3436606E+00
         13   -1    0    0    0    0  0.00000000000E+00  0.00000000000E+00  0.14999999963E+04  0.15000000000E+04  0.10566000000E+00 0.  1.
        994   -1    0    0    0    0 -0.00000000000E+00 -0.00000000000E+00  0.11368683772E-12  0.17120000000E+03  0.17120000000E+03 0.  0.
         13    1    1    2    0    0 -0.48100887867E+01  0.10711562686E+02  0.27649491695E+02  0.30039641881E+02  0.10566000000E+00 0.  1.
        994    1    1    2    0    0 -0.14319350670E+02 -0.13078753011E+02  0.36849875701E+01  0.17233431671E+03  0.17120000000E+03 0.  0.
        998    1    1    2    0    0  0.19129439457E+02  0.23671903243E+01  0.14686655170E+04  0.14688260414E+04  0.10000000000E+02 0.  1.
</event>
<event>
 5    1  0.1796476E-008  0.3811534E+03  0.7957747E-01  0.3446152E+00
         13   -1    0    0    0    0  0.00000000000E+00  0.00000000000E+00  0.14999999963E+04  0.15000000000E+04  0.10566000000E+00 0. -1.
        994   -1    0    0    0    0 -0.00000000000E+00 -0.00000000000E+00  0.11368683772E-12  0.17120000000E+03  0.17120000000E+03 0.  0.
         13    1    1    2    0    0 -0.23745244262E+02  0.15641677832E+02  0.10610740088E+03  0.10985121937E+03  0.10566000000E+00 0. -1.
        994    1    1    2    0    0  0.26239044468E+02 -0.10816078006E+02  0.62390917947E+01  0.17364861435E+03  0.17120000000E+03 0.  0.
        998    1    1    2    0    0 -0.24938002056E+01 -0.48255998258E+01  0.13876535036E+04  0.13877001663E+04  0.10000000000E+02 0. -1.
</event>
<event>
 5    1  0.1796476E-008  0.4009254E+03  0.7957747E-01  0.3364817E+00
         13   -1    0    0    0    0  0.00000000000E+00  0.00000000000E+00  0.14999999963E+04  0.15000000000E+04  0.10566000000E+00 0.  1.
        994   -1    0    0    0    0 -0.00000000000E+00 -0.00000000000E+00  0.11368683772E-12  0.17120000000E+03  0.17120000000E+03 0.  0.
         13    1    1    2    0    0  0.53573676432E+02 -0.21354754647E+02  0.72396895999E+02  0.92560715570E+02  0.10566000000E+00 0.  1.
        994    1    1    2    0    0  0.86291539390E+02 -0.15971292319E+03  0.17379280465E+03  0.30408522909E+03  0.17120000000E+03 0.  0.
        998    1    1    2    0    0 -0.13986521582E+03  0.18106767783E+03  0.12538102956E+04  0.12745540553E+04  0.10000000000E+02 0.  1.
</event>
<event>
 5    1  0.1796476E-008  0.3854854E+03  0.7957747E-01  0.3427616E+00
         13   -1    0    0    0    0  0.00000000000E+00  0.00000000000E+00  0.14999999963E+04  0.15000000000E+04  0.10566000000E+00 0.  1.
        994   -1    0    0    0    0 -0.00000000000E+00 -0.00000000000E+00  0.11368683772E-12  0.17120000000E+03  0.17120000000E+03 0.  0.
         13    1    1    2    0    0 -0.80224262371E+00 -0.18721327716E+02  0.10720970858E+03  0.10883503334E+03  0.10566000000E+00 0.  1.
        994    1    1    2    0    0  0.24246871880E+00  0.31672992298E+02  0.46904045791E+01  0.17416853082E+03  0.17120000000E+03 0.  0.
        998    1    1    2    0    0  0.55977390490E+00 -0.12951664582E+02  0.13880998831E+04  0.13881964358E+04  0.10000000000E+02 0.  1.
</event>
<event>
 5    1  0.1796476E-008  0.3791788E+03  0.7957747E-01  0.3454742E+00
         13   -1    0    0    0    0  0.00000000000E+00  0.00000000000E+00  0.14999999963E+04  0.15000000000E+04  0.10566000000E+00 0. -1.
        994   -1    0    0    0    0 -0.00000000000E+00 -0.00000000000E+00  0.11368683772E-12  0.17120000000E+03  0.17120000000E+03 0.  0.
         13    1    1    2    0    0  0.29885694356E+02  0.10426129506E+02  0.10407241361E+03  0.10877930567E+03  0.10566000000E+00 0. -1.
        994    1    1    2    0    0 -0.25055385271E+02 -0.11843565201E+02  0.71270014050E+01  0.17357498817E+03  0.17120000000E+03 0.  0.
        998    1    1    2    0    0 -0.48303090848E+01  0.14174356949E+01  0.13888005813E+04  0.13888457062E+04  0.10000000000E+02 0. -1.
</event>
<event>
 5    1  0.1796476E-008  0.3791391E+03  0.7957747E-01  0.3454916E+00
         13   -1    0    0    0    0  0.00000000000E+00  0.00000000000E+00  0.14999999963E+04  0.15000000000E+04  0.10566000000E+00 0. -1.
        994   -1    0    0    0    0 -0.00000000000E+00 -0.00000000000E+00  0.11368683772E-12  0.17120000000E+03  0.17120000000E+03 0.  0.
         13    1    1    2    0    0  0.19890117858E+02 -0.10748926305E+02  0.54083424280E+02  0.58618974326E+02  0.10566000000E+00 0. -1.
        994    1    1    2    0    0 -0.32719659635E+02 -0.27505574287E+02  0.10718234680E+02  0.17678080580E+03  0.17120000000E+03 0.  0.
        998    1    1    2    0    0  0.12829541777E+02  0.38254500592E+02  0.14351983373E+04  0.14358002199E+04  0.10000000000E+02 0. -1.
</event>
<event>
 5    1  0.1796476E-008  0.3790270E+03  0.7957747E-01  0.3455406E+00
         13   -1    0    0    0    0  0.00000000000E+00  0.00000000000E+00  0.14999999963E+04  0.15000000000E+04  0.10566000000E+00 0. -1.
        994   -1    0    0    0    0 -0.00000000000E+00 -0.00000000000E+00  0.11368683772E-12  0.17120000000E+03  0.17120000000E+03 0.  0.
         13    1    1    2    0    0 -0.54265280995E+01  0.11311001502E+02  0.15227836352E+02  0.19730284493E+02  0.10566000000E+00 0. -1.
        994    1    1    2    0    0  0.31854437552E+01 -0.19612920091E+01  0.46720393654E+01  0.17130458742E+03  0.17120000000E+03 0.  0.
        998    1    1    2    0    0  0.22410843443E+01 -0.93497094931E+01  0.14801001206E+04  0.14801651281E+04  0.10000000000E+02 0. -1.
</event>
<event>
 5    1  0.4966162E-008  0.3861191E+03  0.7957747E-01  0.3424940E+00
         13   -1    0    0    0    0  0.00000000000E+00  0.00000000000E+00  0.14999999963E+04  0.15000000000E+04  0.10566000000E+00 0.  1.
        994   -1    0    0    0    0 -0.00000000000E+00 -0.00000000000E+00  0.11368683772E-12  0.17120000000E+03  0.17120000000E+03 0.  0.
         13    1    1    2    0    0 -0.75294820995E+01  0.66768980898E+01  0.46240603750E+02  0.47323130370E+02  0.10566000000E+00 0.  1.
        994    1    1    2    0    0  0.86809505689E+01 -0.77919392835E+01  0.15215320712E+01  0.17160369542E+03  0.17120000000E+03 0.  0.
        998    1    1    2    0    0 -0.11514684694E+01  0.11150411937E+01  0.14522378605E+04  0.14522731742E+04  0.10000000000E+02 0.  1.
</event>
<event>
 5    1  0.1796476E-008  0.3827190E+03  0.7957747E-01  0.3439404E+00
         13   -1    0    0    0    0  0.00000000000E+00  0.00000000000E+00  0.14999999963E+04  0.15000000000E+04  0.10566000000E+00 0. -1.
        994   -1    0    0    0    0 -0.00000000000E+00 -0.00000000000E+00  0.11368683772E-12  0.17120000000E+03  0.17120000000E+03 0.  0.
         13    1    1    2    0    0 -0.23004487760E+02  0.25912068130E+02  0.19285233434E+03  0.19594049034E+03  0.10566000000E+00 0. -1.
        994    1    1    2    0    0  0.20341110341E+02 -0.26799318030E+02  0.65262931030E+01  0.17459666869E+03  0.17120000000E+03 0.  0.
        998    1    1    2    0    0  0.26633774187E+01  0.88724989974E+00  0.13006213688E+04  0.13006628410E+04  0.10000000000E+02 0.  0.
</event>
<event>
 5    1  0.1796476E-008  0.3824160E+03  0.7957747E-01  0.3440706E+00
         13   -1    0    0    0    0  0.00000000000E+00  0.00000000000E+00  0.14999999963E+04  0.15000000000E+04  0.10566000000E+00 0. -1.
        994   -1    0    0    0    0 -0.00000000000E+00 -0.00000000000E+00  0.11368683772E-12  0.17120000000E+03  0.17120000000E+03 0.  0.
         13    1    1    2    0    0 -0.24156875265E+02  0.40712659230E+02  0.24079513307E+03  0.24540452832E+03  0.10566000000E+00 0. -1.
        994    1    1    2    0    0  0.53246619439E+02 -0.61237681132E+02  0.25074303193E+02  0.19111100636E+03  0.17120000000E+03 0.  0.
        998    1    1    2    0    0 -0.29089744174E+02  0.20525021903E+02  0.12341305600E+04  0.12346844653E+04  0.10000000000E+02 0. -1.
</event>
<event>
 5    1  0.1796476E-008  0.3840684E+03  0.7957747E-01  0.3433633E+00
         13   -1    0    0    0    0  0.00000000000E+00  0.00000000000E+00  0.14999999963E+04  0.15000000000E+04  0.10566000000E+00 0.  1.
        994   -1    0    0    0    0 -0.00000000000E+00 -0.00000000000E+00  0.11368683772E-12  0.17120000000E+03  0.17120000000E+03 0.  0.
         13    1    1    2    0    0 -0.50038679048E+01  0.93028430594E+01  0.25687192343E+02  0.27774531454E+02  0.10566000000E+00 0.  1.
        994    1    1    2    0    0  0.39705953368E+01 -0.10342422611E+02  0.24982959681E+01  0.17157625948E+03  0.17120000000E+03 0.  0.
        998    1    1    2    0    0  0.10332725681E+01  0.10395795514E+01  0.14718145080E+04  0.14718492091E+04  0.10000000000E+02 0.  1.
</event>
<event>
 5    1  0.1796476E-008  0.3838890E+03  0.7957747E-01  0.3434398E+00
         13   -1    0    0    0    0  0.00000000000E+00  0.00000000000E+00  0.14999999963E+04  0.15000000000E+04  0.10566000000E+00 0. -1.
        994   -1    0    0    0    0 -0.00000000000E+00 -0.00000000000E+00  0.11368683772E-12  0.17120000000E+03  0.17120000000E+03 0.  0.
         13    1    1    2    0    0 -0.11872978420E+02 -0.12657514268E+02  0.70135367814E+02  0.72250683502E+02  0.10566000000E+00 0. -1.
        994    1    1    2    0    0  0.21872770745E+01  0.78514100443E+01  0.24020183720E+01  0.17141073045E+03  0.17120000000E+03 0.  0.
        998    1    1    2    0    0  0.96857013453E+01  0.48061042242E+01  0.14274626101E+04  0.14275385860E+04  0.10000000000E+02 0. -1.
</event>
<event>
 5    1  0.1796476E-008  0.3821620E+03  0.7957747E-01  0.3441798E+00
         13   -1    0    0    0    0  0.00000000000E+00  0.00000000000E+00  0.14999999963E+04  0.15000000000E+04  0.10566000000E+00 0.  1.
        994   -1    0    0    0    0 -0.00000000000E+00 -0.00000000000E+00  0.11368683772E-12  0.17120000000E+03  0.17120000000E+03 0.  0.
         13    1    1    2    0    0  0.62780687321E+00  0.12230846112E+02  0.23943157084E+02  0.26893747847E+02  0.10566000000E+00 0.  1.
        994    1    1    2    0    0 -0.93008153162E+01 -0.15410571776E+01  0.33407958048E+01  0.17149192675E+03  0.17120000000E+03 0.  0.
        998    1    1    2    0    0  0.86730084430E+01 -0.10689788934E+02  0.14727160434E+04  0.14728143254E+04  0.10000000000E+02 0.  1.
</event>
<event>
 5    1  0.1796476E-008  0.3857802E+03  0.7957747E-01  0.3426370E+00
         13   -1    0    0    0    0  0.00000000000E+00  0.00000000000E+00  0.14999999963E+04  0.15000000000E+04  0.10566000000E+00 0. -1.
        994   -1    0    0    0    0 -0.00000000000E+00 -0.00000000000E+00  0.11368683772E-12  0.17120000000E+03  0.17120000000E+03 0.  0.
         13    1    1    2    0    0 -0.72622259410E+00 -0.14527844724E+02  0.86859861684E+02  0.88069474890E+02  0.10566000000E+00 0. -1.
        994    1    1    2    0    0  0.15342292542E+01  0.79285070267E+01  0.14572375292E+01  0.17139655371E+03  0.17120000000E+03 0.  0.
        998    1    1    2    0    0 -0.80800666008E+00  0.65993376973E+01  0.14116828971E+04  0.14117339714E+04  0.10000000000E+02 0. -1.
</event>
<event>
 5    1  0.1796476E-008  0.3827519E+03  0.7957747E-01  0.3439263E+00
         13   -1    0    0    0    0  0.00000000000E+00  0.00000000000E+00  0.14999999963E+04  0.15000000000E+04  0.10566000000E+00 0.  1.
        994   -1    0    0    0    0 -0.00000000000E+00 -0.00000000000E+00  0.11368683772E-12  0.17120000000E+03  0.17120000000E+03 0.  0.
         13    1    1    2    0    0 -0.11899744750E+02 -0.82146836723E+01  0.36104559499E+02  0.38892612841E+02  0.10566000000E+00 0.  1.
        994    1    1    2    0    0  0.13677910407E+02  0.97639345437E+01  0.36865393912E+01  0.17206234400E+03  0.17120000000E+03 0.  0.
        998    1    1    2    0    0 -0.17781656569E+01 -0.15492508714E+01  0.14602088974E+04  0.14602450432E+04  0.10000000000E+02 0.  1.
</event>
<event>
 5    1  0.1796476E-008  0.3845684E+03  0.7957747E-01  0.3431505E+00
         13   -1    0    0    0    0  0.00000000000E+00  0.00000000000E+00  0.14999999963E+04  0.15000000000E+04  0.10566000000E+00 0.  1.
        994   -1    0    0    0    0 -0.00000000000E+00 -0.00000000000E+00  0.11368683772E-12  0.17120000000E+03  0.17120000000E+03 0.  0.
         13    1    1    2    0    0 -0.79043030045E+01 -0.65846090797E+01  0.28188705012E+02  0.30007488016E+02  0.10566000000E+00 0.  1.
        994    1    1    2    0    0  0.79939661061E+01  0.25329259687E+01  0.20762083840E+01  0.17141782244E+03  0.17120000000E+03 0.  0.
        998    1    1    2    0    0 -0.89663101582E-01  0.40516831110E+01  0.14697350829E+04  0.14697746895E+04  0.10000000000E+02 0.  1.
</event>
<event>
 5    1  0.1796476E-008  0.3854742E+03  0.7957747E-01  0.3427664E+00
         13   -1    0    0    0    0  0.00000000000E+00  0.00000000000E+00  0.14999999963E+04  0.15000000000E+04  0.10566000000E+00 0.  1.
        994   -1    0    0    0    0 -0.00000000000E+00 -0.00000000000E+00  0.11368683772E-12  0.17120000000E+03  0.17120000000E+03 0.  0.
         13    1    1    2    0    0  0.76805850775E+01 -0.91088191136E+01  0.53871493928E+02  0.55173462777E+02  0.10566000000E+00 0.  1.
        994    1    1    2    0    0  0.24715240801E+01  0.15421063627E+01  0.14227514675E+01  0.17123069452E+03  0.17120000000E+03 0.  0.
        998    1    1    2    0    0 -0.10152109158E+02  0.75667127508E+01  0.14447057509E+04  0.14447958427E+04  0.10000000000E+02 0.  1.
</event>
<event>
 5    1  0.1796476E-008  0.3821164E+03  0.7957747E-01  0.3441995E+00
         13   -1    0    0    0    0  0.00000000000E+00  0.00000000000E+00  0.14999999963E+04  0.15000000000E+04  0.10566000000E+00 0.  1.
        994   -1    0    0    0    0 -0.00000000000E+00 -0.00000000000E+00  0.11368683772E-12  0.17120000000E+03  0.17120000000E+03 0.  0.
         13    1    1    2    0    0 -0.13968578005E+02 -0.47849690687E+01  0.34807763319E+02  0.37810165984E+02  0.10566000000E+00 0.  1.
        994    1    1    2    0    0  0.55999815201E+01  0.50856731313E+01  0.32586055634E+01  0.17139802325E+03  0.17120000000E+03 0.  0.
        998    1    1    2    0    0  0.83685964845E+01 -0.30070406255E+00  0.14619336274E+04  0.14619918108E+04  0.10000000000E+02 0.  1.
</event>
<event>
 5    1  0.1796476E-008  0.3719372E+03  0.7957747E-01  0.3487035E+00
         13   -1    0    0    0    0  0.00000000000E+00  0.00000000000E+00  0.14999999963E+04  0.15000000000E+04  0.10566000000E+00 0.  1.
        994   -1    0    0    0    0 -0.00000000000E+00 -0.00000000000E+00  0.11368683772E-12  0.17120000000E+03  0.17120000000E+03 0.  0.
         13    1    1    2    0    0 -0.98990180531E+00 -0.12019457046E+02  0.46854555420E+00  0.12069712185E+02  0.10566000000E+00 0.  1.
        994    1    1    2    0    0 -0.46863161622E+00  0.15915437513E+02  0.12859674168E+02  0.17241905923E+03  0.17120000000E+03 0.  0.
        998    1    1    2    0    0  0.14585334215E+01 -0.38959804670E+01  0.14866717766E+04  0.14867112286E+04  0.10000000000E+02 0.  1.
</event>
<event>
 5    1  0.1796476E-008  0.3748128E+03  0.7957747E-01  0.3474060E+00
         13   -1    0    0    0    0  0.00000000000E+00  0.00000000000E+00  0.14999999963E+04  0.15000000000E+04  0.10566000000E+00 0.  1.
        994   -1    0    0    0    0 -0.00000000000E+00 -0.00000000000E+00  0.11368683772E-12  0.17120000000E+03  0.17120000000E+03 0.  0.
         13    1    1    2    0    0  0.92244753526E+01  0.59260609111E+01  0.57597184959E+01  0.12385259975E+02  0.10566000000E+00 0.  1.
        994    1    1    2    0    0 -0.38488484089E+01 -0.84714161185E+01  0.70694055144E+01  0.17159835378E+03  0.17120000000E+03 0.  0.
        998    1    1    2    0    0 -0.53756269437E+01  0.25453552074E+01  0.14871708723E+04  0.14872163862E+04  0.10000000000E+02 0.  1.
</event>
<event>
 5    1  0.1796476E-008  0.3840480E+03  0.7957747E-01  0.3433720E+00
         13   -1    0    0    0    0  0.00000000000E+00  0.00000000000E+00  0.14999999963E+04  0.15000000000E+04  0.10566000000E+00 0.  1.
        994   -1    0    0    0    0 -0.00000000000E+00 -0.00000000000E+00  0.11368683772E-12  0.17120000000E+03  0.17120000000E+03 0.  0.
         13    1    1    2    0    0 -0.18786333068E+02 -0.96671526833E+01  0.10716707298E+03  0.10922990820E+03  0.10566000000E+00 0.  1.
        994    1    1    2    0    0  0.20937152819E+01  0.21673443749E+02  0.36691336006E+01  0.17261814606E+03  0.17120000000E+03 0.  0.
        998    1    1    2    0    0  0.16692617786E+02 -0.12006291066E+02  0.13891637897E+04  0.13893519457E+04  0.10000000000E+02 0.  1.
</event>
<event>
 5    1  0.1796476E-008  0.3841772E+03  0.7957747E-01  0.3433169E+00
         13   -1    0    0    0    0  0.00000000000E+00  0.00000000000E+00  0.14999999963E+04  0.15000000000E+04  0.10566000000E+00 0.  1.
        994   -1    0    0    0    0 -0.00000000000E+00 -0.00000000000E+00  0.11368683772E-12  0.17120000000E+03  0.17120000000E+03 0.  0.
         13    1    1    2    0    0 -0.23633287730E+02  0.73533547120E+01  0.14951928744E+03  0.15155405832E+03  0.10566000000E+00 0.  1.
        994    1    1    2    0    0  0.13185193264E+02 -0.90377647280E+01  0.28822515242E+01  0.17196882824E+03  0.17120000000E+03 0.  0.
        998    1    1    2    0    0  0.10448094466E+02  0.16844100160E+01  0.13475984573E+04  0.13476771134E+04  0.10000000000E+02 0.  1.
</event>
<event>
 5    1  0.1796476E-008  0.3802972E+03  0.7957747E-01  0.3449865E+00
         13   -1    0    0    0    0  0.00000000000E+00  0.00000000000E+00  0.14999999963E+04  0.15000000000E+04  0.10566000000E+00 0.  1.
        994   -1    0    0    0    0 -0.00000000000E+00 -0.00000000000E+00  0.11368683772E-12  0.17120000000E+03  0.17120000000E+03 0.  0.
         13    1    1    2    0    0 -0.12211499660E+02  0.35578296918E+01  0.18605101210E+02  0.22537520519E+02  0.10566000000E+00 0.  1.
        994    1    1    2    0    0  0.10031668665E+02 -0.35242372136E+00  0.43197680917E+01  0.17154841583E+03  0.17120000000E+03 0.  0.
        998    1    1    2    0    0  0.21798309956E+01 -0.32054059705E+01  0.14770751270E+04  0.14771140636E+04  0.10000000000E+02 0.  1.
</event>
<event>
 5    1  0.1796476E-008  0.3847401E+03  0.7957747E-01  0.3430775E+00
         13   -1    0    0    0    0  0.00000000000E+00  0.00000000000E+00  0.14999999963E+04  0.15000000000E+04  0.10566000000E+00 0.  1.
        994   -1    0    0    0    0 -0.00000000000E+00 -0.00000000000E+00  0.11368683772E-12  0.17120000000E+03  0.17120000000E+03 0.  0.
         13    1    1    2    0    0 -0.16287892387E+02 -0.11114848257E+02  0.11391716912E+03  0.11561127918E+03  0.10566000000E+00 0.  1.
        994    1    1    2    0    0  0.69982633920E+01  0.49711254850E+01  0.20018022231E+01  0.17142676276E+03  0.17120000000E+03 0.  0.
        998    1    1    2    0    0  0.92896289948E+01  0.61437227715E+01  0.13840810249E+04  0.13841619581E+04  0.10000000000E+02 0.  1.
</event>
<event>
 5    1  0.1796476E-008  0.3738544E+03  0.7957747E-01  0.3478362E+00
         13   -1    0    0    0    0  0.00000000000E+00  0.00000000000E+00  0.14999999963E+04  0.15000000000E+04  0.10566000000E+00 0.  1.
        994   -1    0    0    0    0 -0.00000000000E+00 -0.00000000000E+00  0.11368683772E-12  0.17120000000E+03  0.17120000000E+03 0.  0.
         13    1    1    2    0    0 -0.49376576241E+02  0.24255270242E+02  0.25177989620E+03  0.25771979302E+03  0.10566000000E+00 0.  1.
        994    1    1    2    0    0  0.39200718567E+01  0.35497222992E+01  0.73636312603E+01  0.17143987447E+03  0.17120000000E+03 0.  0.
        998    1    1    2    0    0  0.45456504384E+02 -0.27804992542E+02  0.12408564688E+04  0.12420403325E+04  0.10000000000E+02 0.  1.
</event>
<event>
 5    1  0.1796476E-008  0.3778023E+03  0.7957747E-01  0.3460784E+00
         13   -1    0    0    0    0  0.00000000000E+00  0.00000000000E+00  0.14999999963E+04  0.15000000000E+04  0.10566000000E+00 0.  1.
        994   -1    0    0    0    0 -0.00000000000E+00 -0.00000000000E+00  0.11368683772E-12  0.17120000000E+03  0.17120000000E+03 0.  0.
         13    1    1    2    0    0  0.57974670047E+00  0.14548412488E+02  0.18124906397E+02  0.23248995852E+02  0.10566000000E+00 0.  1.
        994    1    1    2    0    0  0.13883024609E+01 -0.64654444264E+01  0.53939404019E+01  0.17141255482E+03  0.17120000000E+03 0.  0.
        998    1    1    2    0    0 -0.19680491614E+01 -0.80829680616E+01  0.14764811495E+04  0.14765384493E+04  0.10000000000E+02 0.  1.
</event>
<event>
 5    1  0.1796476E-008  0.3828870E+03  0.7957747E-01  0.3438683E+00
         13   -1    0    0    0    0  0.00000000000E+00  0.00000000000E+00  0.14999999963E+04  0.15000000000E+04  0.10566000000E+00 0. -1.
        994   -1    0    0    0    0 -0.00000000000E+00 -0.00000000000E+00  0.11368683772E-12  0.17120000000E+03  0.17120000000E+03 0.  0.
         13    1    1    2    0    0 -0.12163384119E+01 -0.14151019709E+02  0.36802761363E+02  0.39448513862E+02  0.10566000000E+00 0. -1.
        994    1    1    2    0    0  0.33384660901E+01  0.87415796900E+01  0.29728575367E+01  0.17148130643E+03  0.17120000000E+03 0.  0.
        998    1    1    2    0    0 -0.21221276782E+01  0.54094400193E+01  0.14602243774E+04  0.14602701797E+04  0.10000000000E+02 0. -1.
</event>
<event>
 5    1  0.1796476E-008  0.3835426E+03  0.7957747E-01  0.3435877E+00
         13   -1    0    0    0    0  0.00000000000E+00  0.00000000000E+00  0.14999999963E+04  0.15000000000E+04  0.10566000000E+00 0.  1.
        994   -1    0    0    0    0 -0.00000000000E+00 -0.00000000000E+00  0.11368683772E-12  0.17120000000E+03  0.17120000000E+03 0.  0.
         13    1    1    2    0    0  0.80727766166E+00  0.18992829509E+02  0.86146110007E+02  0.88218720821E+02  0.10566000000E+00 0.  1.
        994    1    1    2    0    0  0.13386161456E+01  0.75441341987E+01  0.25494579381E+01  0.17139033109E+03  0.17120000000E+03 0.  0.
        998    1    1    2    0    0 -0.21458938073E+01 -0.26536963708E+02  0.14113044283E+04  0.14115909481E+04  0.10000000000E+02 0.  1.
</event>
<event>
 5    1  0.1796476E-008  0.3781709E+03  0.7957747E-01  0.3459162E+00
         13   -1    0    0    0    0  0.00000000000E+00  0.00000000000E+00  0.14999999963E+04  0.15000000000E+04  0.10566000000E+00 0.  1.
        994   -1    0    0    0    0 -0.00000000000E+00 -0.00000000000E+00  0.11368683772E-12  0.17120000000E+03  0.17120000000E+03 0.  0.
         13    1    1    2    0    0 -0.62417350143E+02  0.29893362024E+02  0.12818256816E+03  0.14567196242E+03  0.10566000000E+00 0.  1.
        994    1    1    2    0    0  0.90925411654E+02 -0.18298811113E+02  0.46981831772E+02  0.20029730275E+03  0.17120000000E+03 0.  0.
        998    1    1    2    0    0 -0.28508061511E+02 -0.11594550912E+02  0.13248355963E+04  0.13252307348E+04  0.10000000000E+02 0.  1.
</event>
<event>
 5    1  0.1796476E-008  0.3803009E+03  0.7957747E-01  0.3449850E+00
         13   -1    0    0    0    0  0.00000000000E+00  0.00000000000E+00  0.14999999963E+04  0.15000000000E+04  0.10566000000E+00 0.  1.
        994   -1    0    0    0    0 -0.00000000000E+00 -0.00000000000E+00  0.11368683772E-12  0.17120000000E+03  0.17120000000E+03 0.  0.
         13    1    1    2    0    0 -0.38791436216E+02  0.10300500933E+02  0.17750338649E+03  0.18198444775E+03  0.10566000000E+00 0.  1.
        994    1    1    2    0    0  0.37816021196E+02 -0.18714426030E+02  0.99497617374E+01  0.17660328128E+03  0.17120000000E+03 0.  0.
        998    1    1    2    0    0  0.97541502044E+00  0.84139250973E+01  0.13125468481E+04  0.13126122710E+04  0.10000000000E+02 0.  1.
</event>
<event>
 5    1  0.1796476E-008  0.3840778E+03  0.7957747E-01  0.3433593E+00
         13   -1    0    0    0    0  0.00000000000E+00  0.00000000000E+00  0.14999999963E+04  0.15000000000E+04  0.10566000000E+00 0.  1.
        994   -1    0    0    0    0 -0.00000000000E+00 -0.00000000000E+00  0.11368683772E-12  0.17120000000E+03  0.17120000000E+03 0.  0.
         13    1    1    2    0    0 -0.11925071369E+02 -0.40398518519E+01  0.33957782492E+02  0.36216983391E+02  0.10566000000E+00 0.  1.
        994    1    1    2    0    0  0.31387819684E+02  0.69726433017E+01  0.55061955310E+01  0.17428015139E+03  0.17120000000E+03 0.  0.
        998    1    1    2    0    0 -0.19462748315E+02 -0.29327914498E+01  0.14605360183E+04  0.14607028652E+04  0.10000000000E+02 0.  1.
</event>
<event>
 5    1  0.1796476E-008  0.3831575E+03  0.7957747E-01  0.3437524E+00
         13   -1    0    0    0    0  0.00000000000E+00  0.00000000000E+00  0.14999999963E+04  0.15000000000E+04  0.10566000000E+00 0. -1.
        994   -1    0    0    0    0 -0.00000000000E+00 -0.00000000000E+00  0.11368683772E-12  0.17120000000E+03  0.17120000000E+03 0.  0.
         13    1    1    2    0    0 -0.14446987872E+03 -0.13198349452E+03  0.10996946247E+04  0.11169688749E+04  0.10566000000E+00 0. -1.
        994    1    1    2    0    0  0.14663597350E+03  0.13625227230E+03  0.14887368154E+03  0.30255512470E+03  0.17120000000E+03 0.  0.
        998    1    1    2    0    0 -0.21660947830E+01 -0.42687777771E+01  0.25143169006E+03  0.25167600044E+03  0.10000000000E+02 0. -1.
</event>
<event>
 5    1  0.1796476E-008  0.3834756E+03  0.7957747E-01  0.3436163E+00
         13   -1    0    0    0    0  0.00000000000E+00  0.00000000000E+00  0.14999999963E+04  0.15000000000E+04  0.10566000000E+00 0.  1.
        994   -1    0    0    0    0 -0.00000000000E+00 -0.00000000000E+00  0.11368683772E-12  0.17120000000E+03  0.17120000000E+03 0.  0.
         13    1    1    2    0    0 -0.14614205758E+02  0.80346639598E+01  0.64035383437E+02  0.66171537165E+02  0.10566000000E+00 0.  1.
        994    1    1    2    0    0 -0.62543512483E+01  0.70434541862E+01  0.26821585917E+01  0.17147991466E+03  0.17120000000E+03 0.  0.
        998    1    1    2    0    0  0.20868557006E+02 -0.15078118146E+02  0.14332824543E+04  0.14335485482E+04  0.10000000000E+02 0.  1.
</event>
<event>
 5    1  0.1796476E-008  0.3840005E+03  0.7957747E-01  0.3433922E+00
         13   -1    0    0    0    0  0.00000000000E+00  0.00000000000E+00  0.14999999963E+04  0.15000000000E+04  0.10566000000E+00 0. -1.
        994   -1    0    0    0    0 -0.00000000000E+00 -0.00000000000E+00  0.11368683772E-12  0.17120000000E+03  0.17120000000E+03 0.  0.
         13    1    1    2    0    0  0.10489254421E+02  0.76998725597E+01  0.40488744841E+02  0.42528368398E+02  0.10566000000E+00 0. -1.
        994    1    1    2    0    0  0.28698323777E+01 -0.73880839544E+01  0.23344687718E+01  0.17139926915E+03  0.17120000000E+03 0.  0.
        998    1    1    2    0    0 -0.13359086799E+02 -0.31178860525E+00  0.14571767827E+04  0.14572723624E+04  0.10000000000E+02 0. -1.
</event>
<event>
 5    1  0.1796476E-008  0.3838525E+03  0.7957747E-01  0.3434554E+00
         13   -1    0    0    0    0  0.00000000000E+00  0.00000000000E+00  0.14999999963E+04  0.15000000000E+04  0.10566000000E+00 0. -1.
        994   -1    0    0    0    0 -0.00000000000E+00 -0.00000000000E+00  0.11368683772E-12  0.17120000000E+03  0.17120000000E+03 0.  0.
         13    1    1    2    0    0  0.88406052764E+01  0.75840402542E+01  0.29908716139E+02  0.32096984802E+02  0.10566000000E+00 0. -1.
        994    1    1    2    0    0 -0.10693585234E+02 -0.34191264866E+01  0.26170980776E+01  0.17158768136E+03  0.17120000000E+03 0.  0.
        998    1    1    2    0    0  0.18529799580E+01 -0.41649137676E+01  0.14674741821E+04  0.14675153338E+04  0.10000000000E+02 0. -1.
</event>
<event>
 5    1  0.1796476E-008  0.3850251E+03  0.7957747E-01  0.3429566E+00
         13   -1    0    0    0    0  0.00000000000E+00  0.00000000000E+00  0.14999999963E+04  0.15000000000E+04  0.10566000000E+00 0. -1.
        994   -1    0    0    0    0 -0.00000000000E+00 -0.00000000000E+00  0.11368683772E-12  0.17120000000E+03  0.17120000000E+03 0.  0.
         13    1    1    2    0    0  0.16359618530E+02 -0.11447850654E+02  0.11542157910E+03  0.11713599997E+03  0.10566000000E+00 0. -1.
        994    1    1    2    0    0 -0.20530712406E+02  0.64220202713E+01  0.31408374314E+01  0.17257478772E+03  0.17120000000E+03 0.  0.
        998    1    1    2    0    0  0.41710938763E+01  0.50258303822E+01  0.13814375797E+04  0.13814892123E+04  0.10000000000E+02 0. -1.
</event>
<event>
 5    1  0.1796476E-008  0.3849957E+03  0.7957747E-01  0.3429691E+00
         13   -1    0    0    0    0  0.00000000000E+00  0.00000000000E+00  0.14999999963E+04  0.15000000000E+04  0.10566000000E+00 0. -1.
        994   -1    0    0    0    0 -0.00000000000E+00 -0.00000000000E+00  0.11368683772E-12  0.17120000000E+03  0.17120000000E+03 0.  0.
         13    1    1    2    0    0 -0.31645724119E+01 -0.97509360281E+01  0.31767424686E+02  0.33380768523E+02  0.10566000000E+00 0. -1.
        994    1    1    2    0    0  0.68891741773E+01  0.66580015828E+01  0.19342082515E+01  0.17147877673E+03  0.17120000000E+03 0.  0.
        998    1    1    2    0    0 -0.37246017655E+01  0.30929344453E+01  0.14662983633E+04  0.14663404548E+04  0.10000000000E+02 0. -1.
</event>
<event>
 5    1  0.1796476E-008  0.3832020E+03  0.7957747E-01  0.3437334E+00
         13   -1    0    0    0    0  0.00000000000E+00  0.00000000000E+00  0.14999999963E+04  0.15000000000E+04  0.10566000000E+00 0. -1.
        994   -1    0    0    0    0 -0.00000000000E+00 -0.00000000000E+00  0.11368683772E-12  0.17120000000E+03  0.17120000000E+03 0.  0.
         13    1    1    2    0    0 -0.57470820760E+02 -0.35731901749E+02  0.11471944639E+03  0.13319244192E+03  0.10566000000E+00 0. -1.
        994    1    1    2    0    0  0.53796604096E+02  0.27951691185E+02  0.31700286986E+02  0.18436301106E+03  0.17120000000E+03 0.  0.
        998    1    1    2    0    0  0.36742166644E+01  0.77802105638E+01  0.13535802629E+04  0.13536445470E+04  0.10000000000E+02 0. -1.
</event>
<event>
 5    1  0.1796476E-008  0.3838631E+03  0.7957747E-01  0.3434508E+00
         13   -1    0    0    0    0  0.00000000000E+00  0.00000000000E+00  0.14999999963E+04  0.15000000000E+04  0.10566000000E+00 0. -1.
        994   -1    0    0    0    0 -0.00000000000E+00 -0.00000000000E+00  0.11368683772E-12  0.17120000000E+03  0.17120000000E+03 0.  0.
         13    1    1    2    0    0 -0.91711868990E+01  0.13253202414E+02  0.61349385159E+02  0.63431193168E+02  0.10566000000E+00 0. -1.
        994    1    1    2    0    0 -0.62291917932E+01 -0.71696627160E+01  0.24934515080E+01  0.17148138148E+03  0.17120000000E+03 0.  0.
        998    1    1    2    0    0  0.15400378692E+02 -0.60835396979E+01  0.14361571596E+04  0.14362874254E+04  0.10000000000E+02 0. -1.
</event>
<event>
 5    1  0.1796476E-008  0.3848648E+03  0.7957747E-01  0.3430246E+00
         13   -1    0    0    0    0  0.00000000000E+00  0.00000000000E+00  0.14999999963E+04  0.15000000000E+04  0.10566000000E+00 0. -1.
        994   -1    0    0    0    0 -0.00000000000E+00 -0.00000000000E+00  0.11368683772E-12  0.17120000000E+03  0.17120000000E+03 0.  0.
         13    1    1    2    0    0 -0.13194460516E+02  0.10744274277E+02  0.87198301845E+02  0.88843053902E+02  0.10566000000E+00 0. -1.
        994    1    1    2    0    0  0.67290237745E+01 -0.42126567171E+01  0.19046745367E+01  0.17139455657E+03  0.17120000000E+03 0.  0.
        998    1    1    2    0    0  0.64654367412E+01 -0.65316175596E+01  0.14108970199E+04  0.14109623895E+04  0.10000000000E+02 0. -1.
</event>
<event>
 5    1  0.1796476E-008  0.3797124E+03  0.7957747E-01  0.3452412E+00
         13   -1    0    0    0    0  0.00000000000E+00  0.00000000000E+00  0.14999999963E+04  0.15000000000E+04  0.10566000000E+00 0.  1.
        994   -1    0    0    0    0 -0.00000000000E+00 -0.00000000000E+00  0.11368683772E-12  0.17120000000E+03  0.17120000000E+03 0.  0.
         13    1    1    2    0    0  0.14214714163E+03 -0.16571860528E+03  0.96036918974E+03  0.98487433603E+03  0.10566000000E+00 0.  1.
        994    1    1    2    0    0 -0.12721331130E+03  0.20272726394E+03  0.22870277614E+03  0.37268749634E+03  0.17120000000E+03 0.  0.
        998    1    1    2    0    0 -0.14933830323E+02 -0.37008658653E+02  0.31092803040E+03  0.31363816762E+03  0.10000000000E+02 0.  1.
</event>
<event>
 5    1  0.1796476E-008  0.3791162E+03  0.7957747E-01  0.3455016E+00
         13   -1    0    0    0    0  0.00000000000E+00  0.00000000000E+00  0.14999999963E+04  0.15000000000E+04  0.10566000000E+00 0. -1.
        994   -1    0    0    0    0 -0.00000000000E+00 -0.00000000000E+00  0.11368683772E-12  0.17120000000E+03  0.17120000000E+03 0.  0.
         13    1    1    2    0    0  0.19326081127E+02  0.34025090591E+02  0.14549436864E+03  0.15066461652E+03  0.10566000000E+00 0. -1.
        994    1    1    2    0    0 -0.14796962908E+02 -0.43558968688E+02  0.11708352495E+02  0.17765939148E+03  0.17120000000E+03 0.  0.
        998    1    1    2    0    0 -0.45291182186E+01  0.95338780969E+01  0.13427972751E+04  0.13428759920E+04  0.10000000000E+02 0. -1.
</event>
<event>
 5    1  0.1796476E-008  0.3840638E+03  0.7957747E-01  0.3433652E+00
         13   -1    0    0    0    0  0.00000000000E+00  0.00000000000E+00  0.14999999963E+04  0.15000000000E+04  0.10566000000E+00 0.  1.
        994   -1    0    0    0    0 -0.00000000000E+00 -0.00000000000E+00  0.11368683772E-12  0.17120000000E+03  0.17120000000E+03 0.  0.
         13    1    1    2    0    0 -0.17421422768E+02 -0.83631972540E+01  0.81672235525E+02  0.83927434486E+02  0.10566000000E+00 0.  1.
        994    1    1    2    0    0  0.21266473644E+02  0.14880763996E+02  0.43211148603E+01  0.17321031168E+03  0.17120000000E+03 0.  0.
        998    1    1    2    0    0 -0.38450508756E+01 -0.65175667416E+01  0.14140066459E+04  0.14140622538E+04  0.10000000000E+02 0.  1.
</event>
<event>
 5    1  0.1796476E-008  0.3816370E+03  0.7957747E-01  0.3444061E+00
         13   -1    0    0    0    0  0.00000000000E+00  0.00000000000E+00  0.14999999963E+04  0.15000000000E+04  0.10566000000E+00 0.  1.
        994   -1    0    0    0    0 -0.00000000000E+00 -0.00000000000E+00  0.11368683772E-12  0.17120000000E+03  0.17120000000E+03 0.  0.
         13    1    1    2    0    0  0.11517685650E+03 -0.64547813227E+02  0.33005807950E+03  0.35548625216E+03  0.10566000000E+00 0.  1.
        994    1    1    2    0    0 -0.12875123119E+03  0.82831728172E+02  0.10854667716E+03  0.25402715573E+03  0.17120000000E+03 0.  0.
        998    1    1    2    0    0  0.13574374684E+02 -0.18283914945E+02  0.10613952396E+04  0.10616865921E+04  0.10000000000E+02 0.  1.
</event>
<event>
 5    1  0.1796476E-008  0.3768228E+03  0.7957747E-01  0.3465110E+00
         13   -1    0    0    0    0  0.00000000000E+00  0.00000000000E+00  0.14999999963E+04  0.15000000000E+04  0.10566000000E+00 0.  1.
        994   -1    0    0    0    0 -0.00000000000E+00 -0.00000000000E+00  0.11368683772E-12  0.17120000000E+03  0.17120000000E+03 0.  0.
         13    1    1    2    0    0 -0.13440886374E+02 -0.46811477121E+01  0.15010923860E+02  0.20685975190E+02  0.10566000000E+00 0.  1.
        994    1    1    2    0    0  0.14490954741E+02 -0.16863355444E+01  0.64649958971E+01  0.17194204741E+03  0.17120000000E+03 0.  0.
        998    1    1    2    0    0 -0.10500683675E+01  0.63674832565E+01  0.14785240765E+04  0.14785719774E+04  0.10000000000E+02 0.  1.
</event>
<event>
 5    1  0.1796476E-008  0.3127921E+03  0.7957747E-01  0.3808725E+00
         13   -1    0    0    0    0  0.00000000000E+00  0.00000000000E+00  0.14999999963E+04  0.15000000000E+04  0.10566000000E+00 0. -1.
        994   -1    0    0    0    0 -0.00000000000E+00 -0.00000000000E+00  0.11368683772E-12  0.17120000000E+03  0.17120000000E+03 0.  0.
         13    1    1    2    0    0 -0.14080036823E+02  0.21061980771E+03  0.68284052310E+03  0.71472382218E+03  0.10566000000E+00 0. -1.
        994    1    1    2    0    0  0.14123704048E+02 -0.21100522920E+03  0.19623308343E+03  0.33546914731E+03  0.17120000000E+03 0.  0.
        998    1    1    2    0    0 -0.43667224836E-01  0.38542149125E+00  0.62092638975E+03  0.62100703051E+03  0.10000000000E+02 0.  0.
</event>
<event>
 5    1  0.1796476E-008  0.3749504E+03  0.7957747E-01  0.3473445E+00
         13   -1    0    0    0    0  0.00000000000E+00  0.00000000000E+00  0.14999999963E+04  0.15000000000E+04  0.10566000000E+00 0.  1.
        994   -1    0    0    0    0 -0.00000000000E+00 -0.00000000000E+00  0.11368683772E-12  0.17120000000E+03  0.17120000000E+03 0.  0.
         13    1    1    2    0    0 -0.49766094979E+01  0.25902897654E+02  0.20106137183E+02  0.33166167481E+02  0.10566000000E+00 0.  1.
        994    1    1    2    0    0  0.48099061641E+01 -0.15068251508E+02  0.14471292168E+02  0.17253708499E+03  0.17120000000E+03 0.  0.
        998    1    1    2    0    0  0.16670333379E+00 -0.10834646145E+02  0.14654225669E+04  0.14654967475E+04  0.10000000000E+02 0.  1.
</event>
<event>
 5    1  0.1796476E-008  0.3845030E+03  0.7957747E-01  0.3431783E+00
         13   -1    0    0    0    0  0.00000000000E+00  0.00000000000E+00  0.14999999963E+04  0.15000000000E+04  0.10566000000E+00 0.  1.
        994   -1    0    0    0    0 -0.00000000000E+00 -0.00000000000E+00  0.11368683772E-12  0.17120000000E+03  0.17120000000E+03 0.  0.
         13    1    1    2    0    0 -0.19791995890E+02  0.81941074393E+00  0.10396552530E+03  0.10583589254E+03  0.10566000000E+00 0.  1.
        994    1    1    2    0    0  0.12857877758E+02 -0.20842586079E+01  0.24361622231E+01  0.17171209637E+03  0.17120000000E+03 0.  0.
        998    1    1    2    0    0  0.69341181323E+01  0.12648478640E+01  0.13935983088E+04  0.13936520111E+04  0.10000000000E+02 0.  1.
</event>
<event>
 5    1  0.1796476E-008  0.3822127E+03  0.7957747E-01  0.3441580E+00
         13   -1    0    0    0    0  0.00000000000E+00  0.00000000000E+00  0.14999999963E+04  0.15000000000E+04  0.10566000000E+00 0.  1.
        994   -1    0    0    0    0 -0.00000000000E+00 -0.00000000000E+00  0.11368683772E-12  0.17120000000E+03  0.17120000000E+03 0.  0.
         13    1    1    2    0    0  0.12323884197E+02  0.96887175709E+01  0.39593329446E+02  0.42583943812E+02  0.10566000000E+00 0.  1.
        994    1    1    2    0    0 -0.96357594458E+01 -0.51801734658E+01  0.34176048106E+01  0.17158322202E+03  0.17120000000E+03 0.  0.
        998    1    1    2    0    0 -0.26881247508E+01 -0.45085441051E+01  0.14569890620E+04  0.14570328342E+04  0.10000000000E+02 0.  1.
</event>
<event>
 5    1  0.1796476E-008  0.3827985E+03  0.7957747E-01  0.3439063E+00
         13   -1    0    0    0    0  0.00000000000E+00  0.00000000000E+00  0.14999999963E+04  0.15000000000E+04  0.10566000000E+00 0.  1.
        994   -1    0    0    0    0 -0.00000000000E+00 -0.00000000000E+00  0.11368683772E-12  0.17120000000E+03  0.17120000000E+03 0.  0.
         13    1    1    2    0    0  0.12036993678E+02 -0.46809572869E+01  0.29368305170E+02  0.32082847295E+02  0.10566000000E+00 0.  1.
        994    1    1    2    0    0 -0.10811437179E+02  0.36204446254E+01  0.31577988669E+01  0.17160829376E+03  0.17120000000E+03 0.  0.
        998    1    1    2    0    0 -0.12255564990E+01  0.10605126615E+01  0.14674738922E+04  0.14675088589E+04  0.10000000000E+02 0.  1.
</event>
<event>
 5    1  0.1796476E-008  0.3817722E+03  0.7957747E-01  0.3443478E+00
         13   -1    0    0    0    0  0.00000000000E+00  0.00000000000E+00  0.14999999963E+04  0.15000000000E+04  0.10566000000E+00 0.  1.
        994   -1    0    0    0    0 -0.00000000000E+00 -0.00000000000E+00  0.11368683772E-12  0.17120000000E+03  0.17120000000E+03 0.  0.
         13    1    1    2    0    0 -0.22580443193E+01  0.35274801113E+02  0.17639975783E+03  0.17990635365E+03  0.10566000000E+00 0.  1.
        994    1    1    2    0    0  0.83004380463E+01 -0.31139668629E+02  0.67005481932E+01  0.17433563485E+03  0.17120000000E+03 0.  0.
        998    1    1    2    0    0 -0.60423937270E+01 -0.41351324838E+01  0.13168996903E+04  0.13169580115E+04  0.10000000000E+02 0.  1.
</event>
<event>
 5    1  0.1796476E-008  0.3829455E+03  0.7957747E-01  0.3438432E+00
         13   -1    0    0    0    0  0.00000000000E+00  0.00000000000E+00  0.14999999963E+04  0.15000000000E+04  0.10566000000E+00 0.  1.
        994   -1    0    0    0    0 -0.00000000000E+00 -0.00000000000E+00  0.11368683772E-12  0.17120000000E+03  0.17120000000E+03 0.  0.
         13    1    1    2    0    0  0.12598910001E+02 -0.22541724935E+02  0.13898638457E+03  0.14136508818E+03  0.10566000000E+00 0.  1.
        994    1    1    2    0    0 -0.40166597157E+01 -0.53310817515E+00  0.27079469339E+01  0.17126935142E+03  0.17120000000E+03 0.  0.
        998    1    1    2    0    0 -0.85822502855E+01  0.23074833110E+02  0.13583056648E+04  0.13585655604E+04  0.10000000000E+02 0.  1.
</event>
<event>
 5    1  0.1796476E-008  0.3856577E+03  0.7957747E-01  0.3426888E+00
         13   -1    0    0    0    0  0.00000000000E+00  0.00000000000E+00  0.14999999963E+04  0.15000000000E+04  0.10566000000E+00 0.  1.
        994   -1    0    0    0    0 -0.00000000000E+00 -0.00000000000E+00  0.11368683772E-12  0.17120000000E+03  0.17120000000E+03 0.  0.
         13    1    1    2    0    0 -0.53212184776E+01 -0.10610033687E+02  0.57714661336E+02  0.58922673718E+02  0.10566000000E+00 0.  1.
        994    1    1    2    0    0 -0.37367372368E+01  0.89087165300E+00  0.13523862627E+01  0.17124843300E+03  0.17120000000E+03 0.  0.
        998    1    1    2    0    0  0.90579557144E+01  0.97191620338E+01  0.14409329487E+04  0.14410288933E+04  0.10000000000E+02 0.  1.
</event>
<event>
 5    1  0.1796476E-008  0.3791092E+03  0.7957747E-01  0.3455046E+00
         13   -1    0    0    0    0  0.00000000000E+00  0.00000000000E+00  0.14999999963E+04  0.15000000000E+04  0.10566000000E+00 0. -1.
        994   -1    0    0    0    0 -0.00000000000E+00 -0.00000000000E+00  0.11368683772E-12  0.17120000000E+03  0.17120000000E+03 0.  0.
         13    1    1    2    0    0  0.12188334344E+02  0.24817006885E+02  0.79549860066E+02  0.84217757779E+02  0.10566000000E+00 0. -1.
        994    1    1    2    0    0 -0.94925688958E+01 -0.21361820679E+02  0.64177171366E+01  0.17290767288E+03  0.17120000000E+03 0.  0.
        998    1    1    2    0    0 -0.26957654480E+01 -0.34551862063E+01  0.14140324191E+04  0.14140745693E+04  0.10000000000E+02 0. -1.
</event>
<event>
 5    1  0.1796476E-008  0.3827737E+03  0.7957747E-01  0.3439169E+00
         13   -1    0    0    0    0  0.00000000000E+00  0.00000000000E+00  0.14999999963E+04  0.15000000000E+04  0.10566000000E+00 0.  1.
        994   -1    0    0    0    0 -0.00000000000E+00 -0.00000000000E+00  0.11368683772E-12  0.17120000000E+03  0.17120000000E+03 0.  0.
         13    1    1    2    0    0  0.13822265414E+02 -0.62847302332E+01  0.41953424431E+02  0.44616743951E+02  0.10566000000E+00 0.  1.
        994    1    1    2    0    0 -0.61410254705E+01  0.26127474915E+00  0.28646681314E+01  0.17133425455E+03  0.17120000000E+03 0.  0.
        998    1    1    2    0    0 -0.76812399438E+01  0.60234554840E+01  0.14551819037E+04  0.14552490015E+04  0.10000000000E+02 0.  1.
</event>
<event>
 5    1  0.1796476E-008  0.3852061E+03  0.7957747E-01  0.3428799E+00
         13   -1    0    0    0    0  0.00000000000E+00  0.00000000000E+00  0.14999999963E+04  0.15000000000E+04  0.10566000000E+00 0. -1.
        994   -1    0    0    0    0 -0.00000000000E+00 -0.00000000000E+00  0.11368683772E-12  0.17120000000E+03  0.17120000000E+03 0.  0.
         13    1    1    2    0    0 -0.12908024631E+02 -0.56096813992E+01  0.66899963450E+02  0.68364478342E+02  0.10566000000E+00 0. -1.
        994    1    1    2    0    0  0.28560654681E+01  0.57059868273E+01  0.16616652024E+01  0.17132692878E+03  0.17120000000E+03 0.  0.
        998    1    1    2    0    0  0.10051959163E+02 -0.96305428061E-01  0.14314383676E+04  0.14315085929E+04  0.10000000000E+02 0. -1.
</event>
<event>
 5    1  0.1796476E-008  0.3726945E+03  0.7957747E-01  0.3483598E+00
         13   -1    0    0    0    0  0.00000000000E+00  0.00000000000E+00  0.14999999963E+04  0.15000000000E+04  0.10566000000E+00 0. -1.
        994   -1    0    0    0    0 -0.00000000000E+00 -0.00000000000E+00  0.11368683772E-12  0.17120000000E+03  0.17120000000E+03 0.  0.
         13    1    1    2    0    0  0.98269601016E+01  0.26889313099E+02  0.27566240151E+02  0.39743088253E+02  0.10566000000E+00 0. -1.
        994    1    1    2    0    0 -0.10978500508E+02 -0.25946412737E+02  0.15177151943E+02  0.17416523691E+03  0.17120000000E+03 0.  0.
        998    1    1    2    0    0  0.11515404067E+01 -0.94290036159E+00  0.14572566042E+04  0.14572916748E+04  0.10000000000E+02 0.  0.
</event>
<event>
 5    1  0.1796476E-008  0.3714742E+03  0.7957747E-01  0.3489143E+00
         13   -1    0    0    0    0  0.00000000000E+00  0.00000000000E+00  0.14999999963E+04  0.15000000000E+04  0.10566000000E+00 0.  1.
        994   -1    0    0    0    0 -0.00000000000E+00 -0.00000000000E+00  0.11368683772E-12  0.17120000000E+03  0.17120000000E+03 0.  0.
         13    1    1    2    0    0 -0.19629381263E+03 -0.46452154449E+02  0.90886467955E+03  0.93098017188E+03  0.10566000000E+00 0.  1.
        994    1    1    2    0    0  0.18178540856E+03  0.72128040452E+02  0.15428494668E+03  0.30226093654E+03  0.17120000000E+03 0.  0.
        998    1    1    2    0    0  0.14508404070E+02 -0.25675886003E+02  0.43685037004E+03  0.43795889159E+03  0.10000000000E+02 0.  1.
</event>
<event>
 5    1  0.1796476E-008  0.3770194E+03  0.7957747E-01  0.3464240E+00
         13   -1    0    0    0    0  0.00000000000E+00  0.00000000000E+00  0.14999999963E+04  0.15000000000E+04  0.10566000000E+00 0. -1.
        994   -1    0    0    0    0 -0.00000000000E+00 -0.00000000000E+00  0.11368683772E-12  0.17120000000E+03  0.17120000000E+03 0.  0.
         13    1    1    2    0    0  0.11887710497E+02 -0.18748254311E+01  0.10593474888E+02  0.16033262472E+02  0.10566000000E+00 0. -1.
        994    1    1    2    0    0  0.30633925620E+01 -0.45274357447E+01  0.57462335624E+01  0.17138360846E+03  0.17120000000E+03 0.  0.
        998    1    1    2    0    0 -0.14951103059E+02  0.64022611758E+01  0.14836602878E+04  0.14837831291E+04  0.10000000000E+02 0. -1.
</event>
<event>
 5    1  0.1796476E-008  0.4411579E+03  0.7957747E-01  0.3221617E+00
         13   -1    0    0    0    0  0.00000000000E+00  0.00000000000E+00  0.14999999963E+04  0.15000000000E+04  0.10566000000E+00 0.  1.
        994   -1    0    0    0    0 -0.00000000000E+00 -0.00000000000E+00  0.11368683772E-12  0.17120000000E+03  0.17120000000E+03 0.  0.
         13    1    1    2    0    0 -0.68456672121E+02 -0.85960942169E+02  0.96262535584E+02  0.14608930987E+03  0.10566000000E+00 0.  1.
        994    1    1    2    0    0  0.69751408984E+02  0.52465511055E+02  0.92256476569E+02  0.21316328571E+03  0.17120000000E+03 0.  0.
        998    1    1    2    0    0 -0.12947368633E+01  0.33495431114E+02  0.13114809841E+04  0.13119474044E+04  0.10000000000E+02 0.  1.
</event>
<event>
 5    1  0.1796476E-008  0.3790914E+03  0.7957747E-01  0.3455124E+00
         13   -1    0    0    0    0  0.00000000000E+00  0.00000000000E+00  0.14999999963E+04  0.15000000000E+04  0.10566000000E+00 0.  1.
        994   -1    0    0    0    0 -0.00000000000E+00 -0.00000000000E+00  0.11368683772E-12  0.17120000000E+03  0.17120000000E+03 0.  0.
         13    1    1    2    0    0 -0.13135405179E+02 -0.34839060294E+01  0.18153690058E+02  0.22676950791E+02  0.10566000000E+00 0.  1.
        994    1    1    2    0    0  0.87214613804E+01  0.45207711468E+01  0.49161310724E+01  0.17155206092E+03  0.17120000000E+03 0.  0.
        998    1    1    2    0    0  0.44139437988E+01 -0.10368651175E+01  0.14769301751E+04  0.14769709883E+04  0.10000000000E+02 0.  1.
</event>
<event>
 5    1  0.1796476E-008  0.3813674E+03  0.7957747E-01  0.3445226E+00
         13   -1    0    0    0    0  0.00000000000E+00  0.00000000000E+00  0.14999999963E+04  0.15000000000E+04  0.10566000000E+00 0.  1.
        994   -1    0    0    0    0 -0.00000000000E+00 -0.00000000000E+00  0.11368683772E-12  0.17120000000E+03  0.17120000000E+03 0.  0.
         13    1    1    2    0    0 -0.91533897735E+01  0.25869678920E+02  0.14177343992E+03  0.14440479307E+03  0.10566000000E+00 0.  1.
        994    1    1    2    0    0 -0.40057517261E+02  0.75123645705E+01  0.89920308334E+01  0.17621389539E+03  0.17120000000E+03 0.  0.
        998    1    1    2    0    0  0.49210907034E+02 -0.33382043490E+02  0.13492345255E+04  0.13505813115E+04  0.10000000000E+02 0.  1.
</event>
<event>
 5    1  0.1796476E-008  0.3749191E+03  0.7957747E-01  0.3473585E+00
         13   -1    0    0    0    0  0.00000000000E+00  0.00000000000E+00  0.14999999963E+04  0.15000000000E+04  0.10566000000E+00 0. -1.
        994   -1    0    0    0    0 -0.00000000000E+00 -0.00000000000E+00  0.11368683772E-12  0.17120000000E+03  0.17120000000E+03 0.  0.
         13    1    1    2    0    0 -0.19210589512E+02 -0.25022901679E+02  0.71408287795E+02  0.78066299309E+02  0.10566000000E+00 0. -1.
        994    1    1    2    0    0  0.22572218714E+02  0.86146102968E+01  0.87075052711E+01  0.17311550253E+03  0.17120000000E+03 0.  0.
        998    1    1    2    0    0 -0.33616292018E+01  0.16408291383E+02  0.14198842032E+04  0.14200181982E+04  0.10000000000E+02 0. -1.
</event>
<event>
 5    1  0.1796476E-008  0.3806685E+03  0.7957747E-01  0.3448253E+00
         13   -1    0    0    0    0  0.00000000000E+00  0.00000000000E+00  0.14999999963E+04  0.15000000000E+04  0.10566000000E+00 0. -1.
        994   -1    0    0    0    0 -0.00000000000E+00 -0.00000000000E+00  0.11368683772E-12  0.17120000000E+03  0.17120000000E+03 0.  0.
         13    1    1    2    0    0  0.78661612295E+02 -0.15170150615E+03  0.10337547262E+04  0.10477832988E+04  0.10566000000E+00 0. -1.
        994    1    1    2    0    0 -0.85484810264E+02  0.14637108079E+03  0.10646603546E+03  0.26339438639E+03  0.17120000000E+03 0.  0.
        998    1    1    2    0    0  0.68231979690E+01  0.53304253525E+01  0.35977923465E+03  0.36002231480E+03  0.10000000000E+02 0. -1.
</event>
<event>
 5    1  0.1796476E-008  0.3796574E+03  0.7957747E-01  0.3452651E+00
         13   -1    0    0    0    0  0.00000000000E+00  0.00000000000E+00  0.14999999963E+04  0.15000000000E+04  0.10566000000E+00 0.  1.
        994   -1    0    0    0    0 -0.00000000000E+00 -0.00000000000E+00  0.11368683772E-12  0.17120000000E+03  0.17120000000E+03 0.  0.
         13    1    1    2    0    0  0.24975983381E+02 -0.14075981800E+03  0.79209679899E+03  0.80489407765E+03  0.10566000000E+00 0.  1.
        994    1    1    2    0    0 -0.29729442616E+02  0.15242035010E+03  0.89763494993E+02  0.24795710902E+03  0.17120000000E+03 0.  0.
        998    1    1    2    0    0  0.47534592351E+01 -0.11660532098E+02  0.61813970230E+03  0.61834881333E+03  0.10000000000E+02 0.  1.
</event>
<event>
 5    1  0.1796476E-008  0.3851075E+03  0.7957747E-01  0.3429216E+00
         13   -1    0    0    0    0  0.00000000000E+00  0.00000000000E+00  0.14999999963E+04  0.15000000000E+04  0.10566000000E+00 0. -1.
        994   -1    0    0    0    0 -0.00000000000E+00 -0.00000000000E+00  0.11368683772E-12  0.17120000000E+03  0.17120000000E+03 0.  0.
         13    1    1    2    0    0  0.35966910679E+01  0.14858790886E+02  0.77688326844E+02  0.79178324971E+02  0.10566000000E+00 0. -1.
        994    1    1    2    0    0  0.12616607559E+01 -0.39564739627E+01  0.16334751075E+01  0.17125814934E+03  0.17120000000E+03 0.  0.
        998    1    1    2    0    0 -0.48583518239E+01 -0.10902316923E+02  0.14206781943E+04  0.14207635257E+04  0.10000000000E+02 0. -1.
</event>
<event>
 5    1  0.1796476E-008  0.3783599E+03  0.7957747E-01  0.3458331E+00
         13   -1    0    0    0    0  0.00000000000E+00  0.00000000000E+00  0.14999999963E+04  0.15000000000E+04  0.10566000000E+00 0. -1.
        994   -1    0    0    0    0 -0.00000000000E+00 -0.00000000000E+00  0.11368683772E-12  0.17120000000E+03  0.17120000000E+03 0.  0.
         13    1    1    2    0    0 -0.21883584720E+02  0.15363057437E+02  0.66982662846E+02  0.72122140151E+02  0.10566000000E+00 0. -1.
        994    1    1    2    0    0  0.25892418635E+02 -0.13107755180E+02  0.77994148875E+01  0.17381743716E+03  0.17120000000E+03 0.  0.
        998    1    1    2    0    0 -0.40088339150E+01 -0.22553022572E+01  0.14252179185E+04  0.14252604227E+04  0.10000000000E+02 0. -1.
</event>
<event>
 5    1  0.1796476E-008  0.3822756E+03  0.7957747E-01  0.3441309E+00
         13   -1    0    0    0    0  0.00000000000E+00  0.00000000000E+00  0.14999999963E+04  0.15000000000E+04  0.10566000000E+00 0. -1.
        994   -1    0    0    0    0 -0.00000000000E+00 -0.00000000000E+00  0.11368683772E-12  0.17120000000E+03  0.17120000000E+03 0.  0.
         13    1    1    2    0    0 -0.70591218523E+01 -0.12159802642E+02  0.31990948218E+02  0.34944583751E+02  0.10566000000E+00 0. -1.
        994    1    1    2    0    0  0.12941627362E+02  0.36630275287E+01  0.35892703451E+01  0.17176503239E+03  0.17120000000E+03 0.  0.
        998    1    1    2    0    0 -0.58825055095E+01  0.84967751131E+01  0.14644197777E+04  0.14644903839E+04  0.10000000000E+02 0. -1.
</event>
<event>
 5    1  0.1796476E-008  0.3805877E+03  0.7957747E-01  0.3448603E+00
         13   -1    0    0    0    0  0.00000000000E+00  0.00000000000E+00  0.14999999963E+04  0.15000000000E+04  0.10566000000E+00 0.  1.
        994   -1    0    0    0    0 -0.00000000000E+00 -0.00000000000E+00  0.11368683772E-12  0.17120000000E+03  0.17120000000E+03 0.  0.
         13    1    1    2    0    0 -0.17093135205E+02  0.25945764803E+02  0.99177059477E+02  0.10393006434E+03  0.10566000000E+00 0.  1.
        994    1    1    2    0    0  0.63827469335E+02 -0.34126786998E+02  0.21517301269E+02  0.18711231303E+03  0.17120000000E+03 0.  0.
        998    1    1    2    0    0 -0.46734334130E+02  0.81810221949E+01  0.13793056355E+04  0.13801576226E+04  0.10000000000E+02 0.  1.
</event>
<event>
 5    1  0.1796476E-008  0.3807724E+03  0.7957747E-01  0.3447802E+00
         13   -1    0    0    0    0  0.00000000000E+00  0.00000000000E+00  0.14999999963E+04  0.15000000000E+04  0.10566000000E+00 0.  1.
        994   -1    0    0    0    0 -0.00000000000E+00 -0.00000000000E+00  0.11368683772E-12  0.17120000000E+03  0.17120000000E+03 0.  0.
         13    1    1    2    0    0 -0.17013579065E+01 -0.20231513428E+02  0.57895114064E+02  0.61351969413E+02  0.10566000000E+00 0.  1.
        994    1    1    2    0    0 -0.17769248199E+01 -0.46709308094E+01  0.38270578342E+01  0.17131567771E+03  0.17120000000E+03 0.  0.
        998    1    1    2    0    0  0.34782827264E+01  0.24902444237E+02  0.14382778244E+04  0.14385323529E+04  0.10000000000E+02 0.  1.
</event>
<event>
 5    1  0.1796476E-008  0.3841393E+03  0.7957747E-01  0.3433331E+00
         13   -1    0    0    0    0  0.00000000000E+00  0.00000000000E+00  0.14999999963E+04  0.15000000000E+04  0.10566000000E+00 0. -1.
        994   -1    0    0    0    0 -0.00000000000E+00 -0.00000000000E+00  0.11368683772E-12  0.17120000000E+03  0.17120000000E+03 0.  0.
         13    1    1    2    0    0  0.15827268719E+02 -0.61922349345E+01  0.66946214838E+02  0.69069914244E+02  0.10566000000E+00 0. -1.
        994    1    1    2    0    0 -0.17475293564E+02  0.56463912374E+01  0.31711090948E+01  0.17221139205E+03  0.17120000000E+03 0.  0.
        998    1    1    2    0    0  0.16480248448E+01  0.54584369715E+00  0.14298826723E+04  0.14299186937E+04  0.10000000000E+02 0. -1.
</event>
<event>
 5    1  0.1796476E-008  0.3758034E+03  0.7957747E-01  0.3469637E+00
         13   -1    0    0    0    0  0.00000000000E+00  0.00000000000E+00  0.14999999963E+04  0.15000000000E+04  0.10566000000E+00 0.  1.
        994   -1    0    0    0    0 -0.00000000000E+00 -0.00000000000E+00  0.11368683772E-12  0.17120000000E+03  0.17120000000E+03 0.  0.
         13    1    1    2    0    0 -0.17781669548E+02 -0.10604692736E+02  0.31529227770E+02  0.37719367011E+02  0.10566000000E+00 0.  1.
        994    1    1    2    0    0  0.15242080538E+02  0.44278970543E+01  0.71212159561E+01  0.17208160566E+03  0.17120000000E+03 0.  0.
        998    1    1    2    0    0  0.25395890100E+01  0.61767956814E+01  0.14613495526E+04  0.14613990273E+04  0.10000000000E+02 0.  1.
</event>
<event>
 5    1  0.1796476E-008  0.3836999E+03  0.7957747E-01  0.3435205E+00
         13   -1    0    0    0    0  0.00000000000E+00  0.00000000000E+00  0.14999999963E+04  0.15000000000E+04  0.10566000000E+00 0.  1.
        994   -1    0    0    0    0 -0.00000000000E+00 -0.00000000000E+00  0.11368683772E-12  0.17120000000E+03  0.17120000000E+03 0.  0.
         13    1    1    2    0    0 -0.18200345159E+02 -0.13899468074E+02  0.11162776865E+03  0.11395269928E+03  0.10566000000E+00 0.  1.
        994    1    1    2    0    0  0.13393827323E+02  0.11930951306E+02  0.33402738599E+01  0.17216950845E+03  0.17120000000E+03 0.  0.
        998    1    1    2    0    0  0.48065178358E+01  0.19685167686E+01  0.13850319538E+04  0.13850777923E+04  0.10000000000E+02 0.  1.
</event>
<event>
 5    1  0.1796476E-008  0.3894025E+03  0.7957747E-01  0.3411213E+00
         13   -1    0    0    0    0  0.00000000000E+00  0.00000000000E+00  0.14999999963E+04  0.15000000000E+04  0.10566000000E+00 0. -1.
        994   -1    0    0    0    0 -0.00000000000E+00 -0.00000000000E+00  0.11368683772E-12  0.17120000000E+03  0.17120000000E+03 0.  0.
         13    1    1    2    0    0 -0.28753793811E+02 -0.12902915960E+02  0.14039392311E+02  0.34501907183E+02  0.10566000000E+00 0. -1.
        994    1    1    2    0    0  0.22584950159E+02  0.14276428770E+02  0.24274979496E+02  0.17496459934E+03  0.17120000000E+03 0.  0.
        998    1    1    2    0    0  0.61688436520E+01 -0.13735128095E+01  0.14616856245E+04  0.14617334935E+04  0.10000000000E+02 0. -1.
</event>
<event>
 5    1  0.1796476E-008  0.3780352E+03  0.7957747E-01  0.3459759E+00
         13   -1    0    0    0    0  0.00000000000E+00  0.00000000000E+00  0.14999999963E+04  0.15000000000E+04  0.10566000000E+00 0.  1.
        994   -1    0    0    0    0 -0.00000000000E+00 -0.00000000000E+00  0.11368683772E-12  0.17120000000E+03  0.17120000000E+03 0.  0.
         13    1    1    2    0    0 -0.14455152089E+03 -0.75487751721E+02  0.92136943301E+03  0.93568968472E+03  0.10566000000E+00 0.  1.
        994    1    1    2    0    0  0.13822919902E+03  0.81631596414E+02  0.97409228125E+02  0.25410436186E+03  0.17120000000E+03 0.  0.
        998    1    1    2    0    0  0.63223218721E+01 -0.61438446927E+01  0.48122133515E+03  0.48140595342E+03  0.10000000000E+02 0.  1.
</event>
<event>
 5    1  0.1796476E-008  0.3793873E+03  0.7957747E-01  0.3453831E+00
         13   -1    0    0    0    0  0.00000000000E+00  0.00000000000E+00  0.14999999963E+04  0.15000000000E+04  0.10566000000E+00 0. -1.
        994   -1    0    0    0    0 -0.00000000000E+00 -0.00000000000E+00  0.11368683772E-12  0.17120000000E+03  0.17120000000E+03 0.  0.
         13    1    1    2    0    0 -0.43813502374E+02  0.18777041574E+01  0.19097147727E+03  0.19594199411E+03  0.10566000000E+00 0. -1.
        994    1    1    2    0    0  0.42877467220E+02  0.47678321573E+01  0.10702581016E+02  0.17687621281E+03  0.17120000000E+03 0.  0.
        998    1    1    2    0    0  0.93603515394E+00 -0.66455363147E+01  0.12983259380E+04  0.12983817931E+04  0.10000000000E+02 0. -1.
</event>
<event>
 5    1  0.1796476E-008  0.3771946E+03  0.7957747E-01  0.3463465E+00
         13   -1    0    0    0    0  0.00000000000E+00  0.00000000000E+00  0.14999999963E+04  0.15000000000E+04  0.10566000000E+00 0. -1.
        994   -1    0    0    0    0 -0.00000000000E+00 -0.00000000000E+00  0.11368683772E-12  0.17120000000E+03  0.17120000000E+03 0.  0.
         13    1    1    2    0    0  0.81240493902E+02  0.18244049164E+02  0.41664468015E+03  0.42488311786E+03  0.10566000000E+00 0. -1.
        994    1    1    2    0    0 -0.83659905418E+02 -0.42308537535E+02  0.35811523621E+02  0.19844620769E+03  0.17120000000E+03 0.  0.
        998    1    1    2    0    0  0.24194115154E+01  0.24064488371E+02  0.10475437925E+04  0.10478706745E+04  0.10000000000E+02 0. -1.
</event>
<event>
 5    1  0.1796476E-008  0.3834784E+03  0.7957747E-01  0.3436151E+00
         13   -1    0    0    0    0  0.00000000000E+00  0.00000000000E+00  0.14999999963E+04  0.15000000000E+04  0.10566000000E+00 0.  1.
        994   -1    0    0    0    0 -0.00000000000E+00 -0.00000000000E+00  0.11368683772E-12  0.17120000000E+03  0.17120000000E+03 0.  0.
         13    1    1    2    0    0 -0.18805831408E+02  0.12489845005E+02  0.11279670788E+03  0.11503375155E+03  0.10566000000E+00 0.  1.
        994    1    1    2    0    0  0.52930383219E+01 -0.16824853801E+01  0.24894035104E+01  0.17130815550E+03  0.17120000000E+03 0.  0.
        998    1    1    2    0    0  0.13512793086E+02 -0.10807359625E+02  0.13847138849E+04  0.13848580930E+04  0.10000000000E+02 0.  1.
</event>
<event>
 5    1  0.1796476E-008  0.3736263E+03  0.7957747E-01  0.3479389E+00
         13   -1    0    0    0    0  0.00000000000E+00  0.00000000000E+00  0.14999999963E+04  0.15000000000E+04  0.10566000000E+00 0.  1.
        994   -1    0    0    0    0 -0.00000000000E+00 -0.00000000000E+00  0.11368683772E-12  0.17120000000E+03  0.17120000000E+03 0.  0.
         13    1    1    2    0    0  0.93646714072E+02  0.59294929940E+02  0.36807607643E+03  0.38440292009E+03  0.10566000000E+00 0.  1.
        994    1    1    2    0    0 -0.85840182927E+02 -0.58346397846E+02  0.52067096554E+02  0.20686532259E+03  0.17120000000E+03 0.  0.
        998    1    1    2    0    0 -0.78065311451E+01 -0.94853209352E+00  0.10798568233E+04  0.10799317573E+04  0.10000000000E+02 0.  1.
</event>
<event>
 5    1  0.1796476E-008  0.3837616E+03  0.7957747E-01  0.3434941E+00
         13   -1    0    0    0    0  0.00000000000E+00  0.00000000000E+00  0.14999999963E+04  0.15000000000E+04  0.10566000000E+00 0.  1.
        994   -1    0    0    0    0 -0.00000000000E+00 -0.00000000000E+00  0.11368683772E-12  0.17120000000E+03  0.17120000000E+03 0.  0.
         13    1    1    2    0    0  0.50857074597E+01  0.87281866207E+01  0.21818975011E+02  0.24044219609E+02  0.10566000000E+00 0.  1.
        994    1    1    2    0    0 -0.89965035866E+01 -0.52855264061E+01  0.26057950898E+01  0.17153747122E+03  0.17120000000E+03 0.  0.
        998    1    1    2    0    0  0.39107961269E+01 -0.34426602146E+01  0.14755752262E+04  0.14756183092E+04  0.10000000000E+02 0.  1.
</event>
<event>
 5    1  0.1796476E-008  0.3708271E+03  0.7957747E-01  0.3492098E+00
         13   -1    0    0    0    0  0.00000000000E+00  0.00000000000E+00  0.14999999963E+04  0.15000000000E+04  0.10566000000E+00 0. -1.
        994   -1    0    0    0    0 -0.00000000000E+00 -0.00000000000E+00  0.11368683772E-12  0.17120000000E+03  0.17120000000E+03 0.  0.
         13    1    1    2    0    0 -0.55134900650E+02 -0.30758178440E+02  0.18793337920E+03  0.19825460648E+03  0.10566000000E+00 0. -1.
        994    1    1    2    0    0  0.71478495747E+02  0.16889059746E+02  0.27672858670E+02  0.18833385994E+03  0.17120000000E+03 0.  0.
        998    1    1    2    0    0 -0.16343595097E+02  0.13869118694E+02  0.12843937584E+04  0.12846115336E+04  0.10000000000E+02 0. -1.
</event>
<event>
 5    1  0.1796476E-008  0.3840500E+03  0.7957747E-01  0.3433711E+00
         13   -1    0    0    0    0  0.00000000000E+00  0.00000000000E+00  0.14999999963E+04  0.15000000000E+04  0.10566000000E+00 0. -1.
        994   -1    0    0    0    0 -0.00000000000E+00 -0.00000000000E+00  0.11368683772E-12  0.17120000000E+03  0.17120000000E+03 0.  0.
         13    1    1    2    0    0 -0.54137012052E+01  0.11188216474E+02  0.37684439803E+02  0.39681387525E+02  0.10566000000E+00 0. -1.
        994    1    1    2    0    0  0.94799944409E+00  0.11803498130E+01  0.21100912934E+01  0.17121969634E+03  0.17120000000E+03 0.  0.
        998    1    1    2    0    0  0.44657017611E+01 -0.12368566287E+02  0.14602054652E+04  0.14602989161E+04  0.10000000000E+02 0. -1.
</event>
<event>
 5    1  0.1796476E-008  0.3846285E+03  0.7957747E-01  0.3431249E+00
         13   -1    0    0    0    0  0.00000000000E+00  0.00000000000E+00  0.14999999963E+04  0.15000000000E+04  0.10566000000E+00 0.  1.
        994   -1    0    0    0    0 -0.00000000000E+00 -0.00000000000E+00  0.11368683772E-12  0.17120000000E+03  0.17120000000E+03 0.  0.
         13    1    1    2    0    0  0.83179437030E+01  0.10423175404E+02  0.47211775038E+02  0.49059083147E+02  0.10566000000E+00 0.  1.
        994    1    1    2    0    0 -0.76231407190E+01 -0.13358776243E+02  0.25940181087E+01  0.17190909838E+03  0.17120000000E+03 0.  0.
        998    1    1    2    0    0 -0.69480298403E+00  0.29356008395E+01  0.14501942031E+04  0.14502318185E+04  0.10000000000E+02 0.  1.
</event>
<event>
 5    1  0.1796476E-008  0.3821937E+03  0.7957747E-01  0.3441662E+00
         13   -1    0    0    0    0  0.00000000000E+00  0.00000000000E+00  0.14999999963E+04  0.15000000000E+04  0.10566000000E+00 0. -1.
        994   -1    0    0    0    0 -0.00000000000E+00 -0.00000000000E+00  0.11368683772E-12  0.17120000000E+03  0.17120000000E+03 0.  0.
         13    1    1    2    0    0 -0.27659998218E+02  0.27701699333E+01  0.12033176355E+03  0.12350098715E+03  0.10566000000E+00 0. -1.
        994    1    1    2    0    0  0.25211049237E+02  0.42077941424E+01  0.52011074184E+01  0.17317561622E+03  0.17120000000E+03 0.  0.
        998    1    1    2    0    0  0.24489489810E+01 -0.69779640757E+01  0.13744671253E+04  0.13745233966E+04  0.10000000000E+02 0. -1.
</event>
<event>
 5    1  0.1796476E-008  0.3778214E+03  0.7957747E-01  0.3460700E+00
         13   -1    0    0    0    0  0.00000000000E+00  0.00000000000E+00  0.14999999963E+04  0.15000000000E+04  0.10566000000E+00 0.  1.
        994   -1    0    0    0    0 -0.00000000000E+00 -0.00000000000E+00  0.11368683772E-12  0.17120000000E+03  0.17120000000E+03 0.  0.
         13    1    1    2    0    0  0.36901951037E+02  0.48545349401E+02  0.29772527338E+03  0.30390583166E+03  0.10566000000E+00 0.  1.
        994    1    1    2    0    0 -0.32434468487E+02 -0.45316421481E+02  0.15766197454E+02  0.18073069962E+03  0.17120000000E+03 0.  0.
        998    1    1    2    0    0 -0.44674825499E+01 -0.32289279194E+01  0.11865085254E+04  0.11865634687E+04  0.10000000000E+02 0.  0.
</event>
<event>
 5    1  0.1796476E-008  0.3857594E+03  0.7957747E-01  0.3426458E+00
         13   -1    0    0    0    0  0.00000000000E+00  0.00000000000E+00  0.14999999963E+04  0.15000000000E+04  0.10566000000E+00 0.  1.
        994   -1    0    0    0    0 -0.00000000000E+00 -0.00000000000E+00  0.11368683772E-12  0.17120000000E+03  0.17120000000E+03 0.  0.
         13    1    1    2    0    0  0.59320951765E+01  0.17281634035E+02  0.10911326048E+03  0.11063254225E+03  0.10566000000E+00 0.  1.
        994    1    1    2    0    0  0.23380057453E+02 -0.47574202194E+02  0.10526610241E+02  0.17952766172E+03  0.17120000000E+03 0.  0.
        998    1    1    2    0    0 -0.29312152630E+02  0.30292568159E+02  0.13803601256E+04  0.13810397960E+04  0.10000000000E+02 0.  1.
</event>
<event>
 5    1  0.1796476E-008  0.3697762E+03  0.7957747E-01  0.3496920E+00
         13   -1    0    0    0    0  0.00000000000E+00  0.00000000000E+00  0.14999999963E+04  0.15000000000E+04  0.10566000000E+00 0. -1.
        994   -1    0    0    0    0 -0.00000000000E+00 -0.00000000000E+00  0.11368683772E-12  0.17120000000E+03  0.17120000000E+03 0.  0.
         13    1    1    2    0    0  0.10673348138E+02 -0.13942702004E+02  0.76390365735E+01  0.19149029831E+02  0.10566000000E+00 0. -1.
        994    1    1    2    0    0 -0.42702875744E+02  0.73781103830E+02  0.36657231011E+02  0.19473155744E+03  0.17120000000E+03 0.  0.
        998    1    1    2    0    0  0.32029527606E+02 -0.59838401826E+02  0.14557037287E+04  0.14573194127E+04  0.10000000000E+02 0. -1.
</event>
<event>
 5    1  0.1796476E-008  0.3831293E+03  0.7957747E-01  0.3437645E+00
         13   -1    0    0    0    0  0.00000000000E+00  0.00000000000E+00  0.14999999963E+04  0.15000000000E+04  0.10566000000E+00 0. -1.
        994   -1    0    0    0    0 -0.00000000000E+00 -0.00000000000E+00  0.11368683772E-12  0.17120000000E+03  0.17120000000E+03 0.  0.
         13    1    1    2    0    0  0.18977325654E+02 -0.72972371608E+01  0.83620536466E+02  0.86056922104E+02  0.10566000000E+00 0. -1.
        994    1    1    2    0    0 -0.10109808198E+02 -0.11042136789E+02  0.33036956513E+01  0.17188511108E+03  0.17120000000E+03 0.  0.
        998    1    1    2    0    0 -0.88675174559E+01  0.18339373950E+02  0.14130757642E+04  0.14132579668E+04  0.10000000000E+02 0. -1.
</event>
<event>
 5    1  0.1796476E-008  0.3843943E+03  0.7957747E-01  0.3432245E+00
         13   -1    0    0    0    0  0.00000000000E+00  0.00000000000E+00  0.14999999963E+04  0.15000000000E+04  0.10566000000E+00 0. -1.
        994   -1    0    0    0    0 -0.00000000000E+00 -0.00000000000E+00  0.11368683772E-12  0.17120000000E+03  0.17120000000E+03 0.  0.
         13    1    1    2    0    0 -0.99570264978E+01  0.71710442614E+01  0.37411300953E+02  0.39372361569E+02  0.10566000000E+00 0. -1.
        994    1    1    2    0    0  0.16020613285E+02 -0.37946939414E+01  0.28248273071E+01  0.17201302102E+03  0.17120000000E+03 0.  0.
        998    1    1    2    0    0 -0.60635867870E+01 -0.33763503200E+01  0.14597638680E+04  0.14598146174E+04  0.10000000000E+02 0. -1.
</event>
<event>
 5    1  0.1796476E-008  0.3737578E+03  0.7957747E-01  0.3478797E+00
         13   -1    0    0    0    0  0.00000000000E+00  0.00000000000E+00  0.14999999963E+04  0.15000000000E+04  0.10566000000E+00 0.  1.
        994   -1    0    0    0    0 -0.00000000000E+00 -0.00000000000E+00  0.11368683772E-12  0.17120000000E+03  0.17120000000E+03 0.  0.
         13    1    1    2    0    0 -0.27065002332E+02  0.53677947467E+02  0.15941094821E+03  0.17036929878E+03  0.10566000000E+00 0.  1.
        994    1    1    2    0    0 -0.42447794827E+02 -0.19993413915E+02  0.20780174510E+02  0.17872550892E+03  0.17120000000E+03 0.  0.
        998    1    1    2    0    0  0.69512797159E+02 -0.33684533553E+02  0.13198088736E+04  0.13221051923E+04  0.10000000000E+02 0.  1.
</event>
<event>
 5    1  0.1796476E-008  0.3822388E+03  0.7957747E-01  0.3441468E+00
         13   -1    0    0    0    0  0.00000000000E+00  0.00000000000E+00  0.14999999963E+04  0.15000000000E+04  0.10566000000E+00 0. -1.
        994   -1    0    0    0    0 -0.00000000000E+00 -0.00000000000E+00  0.11368683772E-12  0.17120000000E+03  0.17120000000E+03 0.  0.
         13    1    1    2    0    0 -0.57181259213E+01 -0.25137853992E+02  0.10888578269E+03  0.11189608351E+03  0.10566000000E+00 0. -1.
        994    1    1    2    0    0 -0.21516446052E+01  0.17678584197E+02  0.40604093318E+01  0.17217168419E+03  0.17120000000E+03 0.  0.
        998    1    1    2    0    0  0.78697705265E+01  0.74592697948E+01  0.13870538043E+04  0.13871322323E+04  0.10000000000E+02 0. -1.
</event>
<event>
 5    1  0.1796476E-008  0.3859158E+03  0.7957747E-01  0.3425798E+00
         13   -1    0    0    0    0  0.00000000000E+00  0.00000000000E+00  0.14999999963E+04  0.15000000000E+04  0.10566000000E+00 0. -1.
        994   -1    0    0    0    0 -0.00000000000E+00 -0.00000000000E+00  0.11368683772E-12  0.17120000000E+03  0.17120000000E+03 0.  0.
         13    1    1    2    0    0 -0.37806856918E+01  0.10798415343E+02  0.61240116824E+02  0.62299778739E+02  0.10566000000E+00 0. -1.
        994    1    1    2    0    0  0.11756053728E+02  0.80686780489E+01  0.18430761728E+01  0.17180263471E+03  0.17120000000E+03 0.  0.
        998    1    1    2    0    0 -0.79753680363E+01 -0.18867093391E+02  0.14369168033E+04  0.14370975865E+04  0.10000000000E+02 0. -1.
</event>
<event>
 5    1  0.1796476E-008  0.3838135E+03  0.7957747E-01  0.3434720E+00
         13   -1    0    0    0    0  0.00000000000E+00  0.00000000000E+00  0.14999999963E+04  0.15000000000E+04  0.10566000000E+00 0. -1.
        994   -1    0    0    0    0 -0.00000000000E+00 -0.00000000000E+00  0.11368683772E-12  0.17120000000E+03  0.17120000000E+03 0.  0.
         13    1    1    2    0    0  0.27229441697E+02  0.40443707687E+01  0.16391871351E+03  0.16621418481E+03  0.10566000000E+00 0. -1.
        994    1    1    2    0    0 -0.20189035172E+02 -0.48197053960E+01  0.36439774677E+01  0.17249216003E+03  0.17120000000E+03 0.  0.
        998    1    1    2    0    0 -0.70404065251E+01  0.77533462736E+00  0.13324373053E+04  0.13324936552E+04  0.10000000000E+02 0. -1.
</event>
<event>
 5    1  0.1796476E-008  0.3745420E+03  0.7957747E-01  0.3475273E+00
         13   -1    0    0    0    0  0.00000000000E+00  0.00000000000E+00  0.14999999963E+04  0.15000000000E+04  0.10566000000E+00 0.  1.
        994   -1    0    0    0    0 -0.00000000000E+00 -0.00000000000E+00  0.11368683772E-12  0.17120000000E+03  0.17120000000E+03 0.  0.
         13    1    1    2    0    0 -0.34849883638E+02 -0.13794261978E+03  0.47535942689E+03  0.49619479707E+03  0.10566000000E+00 0.  1.
        994    1    1    2    0    0  0.26524125912E+02  0.14260357422E+03  0.92405250152E+02  0.24266742446E+03  0.17120000000E+03 0.  0.
        998    1    1    2    0    0  0.83257577255E+01 -0.46609544383E+01  0.93223531924E+03  0.93233777847E+03  0.10000000000E+02 0.  0.
</event>
<event>
 5    1  0.1796476E-008  0.3851095E+03  0.7957747E-01  0.3429208E+00
         13   -1    0    0    0    0  0.00000000000E+00  0.00000000000E+00  0.14999999963E+04  0.15000000000E+04  0.10566000000E+00 0. -1.
        994   -1    0    0    0    0 -0.00000000000E+00 -0.00000000000E+00  0.11368683772E-12  0.17120000000E+03  0.17120000000E+03 0.  0.
         13    1    1    2    0    0 -0.25326417089E+01  0.99312739013E+01  0.33540912301E+02  0.35072046381E+02  0.10566000000E+00 0. -1.
        994    1    1    2    0    0  0.30211498350E+01 -0.40498393576E+01  0.16597360611E+01  0.17128258309E+03  0.17120000000E+03 0.  0.
        998    1    1    2    0    0 -0.48850812612E+00 -0.58814345437E+01  0.14647993479E+04  0.14648453705E+04  0.10000000000E+02 0. -1.
</event>
<event>
 5    1  0.1796476E-008  0.3798005E+03  0.7957747E-01  0.3452028E+00
         13   -1    0    0    0    0  0.00000000000E+00  0.00000000000E+00  0.14999999963E+04  0.15000000000E+04  0.10566000000E+00 0.  1.
        994   -1    0    0    0    0 -0.00000000000E+00 -0.00000000000E+00  0.11368683772E-12  0.17120000000E+03  0.17120000000E+03 0.  0.
         13    1    1    2    0    0  0.34831936046E+02 -0.15439072717E+02  0.20516539071E+03  0.20867313542E+03  0.10566000000E+00 0.  1.
        994    1    1    2    0    0  0.12164263553E+01 -0.32983961796E+01  0.42752402965E+01  0.17128945324E+03  0.17120000000E+03 0.  0.
        998    1    1    2    0    0 -0.36048362401E+02  0.18737468897E+02  0.12905593653E+04  0.12912374113E+04  0.10000000000E+02 0.  1.
</event>
<event>
 5    1  0.1796476E-008  0.3777290E+03  0.7957747E-01  0.3461107E+00
         13   -1    0    0    0    0  0.00000000000E+00  0.00000000000E+00  0.14999999963E+04  0.15000000000E+04  0.10566000000E+00 0.  1.
        994   -1    0    0    0    0 -0.00000000000E+00 -0.00000000000E+00  0.11368683772E-12  0.17120000000E+03  0.17120000000E+03 0.  0.
         13    1    1    2    0    0  0.90379118384E+01 -0.88558163462E+01  0.12669496774E+02  0.17906329777E+02  0.10566000000E+00 0.  1.
        994    1    1    2    0    0 -0.10784150182E+02  0.91758866835E+01  0.59595476241E+01  0.17188790242E+03  0.17120000000E+03 0.  0.
        998    1    1    2    0    0  0.17462383432E+01 -0.32007033728E+00  0.14813709519E+04  0.14814057678E+04  0.10000000000E+02 0.  1.
</event>
<event>
 5    1  0.1796476E-008  0.3715263E+03  0.7957747E-01  0.3488906E+00
         13   -1    0    0    0    0  0.00000000000E+00  0.00000000000E+00  0.14999999963E+04  0.15000000000E+04  0.10566000000E+00 0. -1.
        994   -1    0    0    0    0 -0.00000000000E+00 -0.00000000000E+00  0.11368683772E-12  0.17120000000E+03  0.17120000000E+03 0.  0.
         13    1    1    2    0    0  0.18562153555E+01 -0.54608834840E+02  0.15778625244E+03  0.16697928914E+03  0.10566000000E+00 0. -1.
        994    1    1    2    0    0  0.22199517589E+02  0.53368620035E+02  0.20054079462E+02  0.18180383464E+03  0.17120000000E+03 0.  0.
        998    1    1    2    0    0 -0.24055732945E+02  0.12402148051E+01  0.13221596644E+04  0.13224168762E+04  0.10000000000E+02 0. -1.
</event>
<event>
 5    1  0.1796476E-008  0.3849007E+03  0.7957747E-01  0.3430094E+00
         13   -1    0    0    0    0  0.00000000000E+00  0.00000000000E+00  0.14999999963E+04  0.15000000000E+04  0.10566000000E+00 0. -1.
        994   -1    0    0    0    0 -0.00000000000E+00 -0.00000000000E+00  0.11368683772E-12  0.17120000000E+03  0.17120000000E+03 0.  0.
         13    1    1    2    0    0  0.12342234509E+02 -0.65125933635E+00  0.47126585392E+02  0.48720438280E+02  0.10566000000E+00 0. -1.
        994    1    1    2    0    0 -0.71997246592E+00  0.95618215456E+01  0.19819986532E+01  0.17147978047E+03  0.17120000000E+03 0.  0.
        998    1    1    2    0    0 -0.11622262044E+02 -0.89105622093E+01  0.14508914122E+04  0.14509997812E+04  0.10000000000E+02 0. -1.
</event>
<event>
 5    1  0.1796476E-008  0.3795546E+03  0.7957747E-01  0.3453100E+00
         13   -1    0    0    0    0  0.00000000000E+00  0.00000000000E+00  0.14999999963E+04  0.15000000000E+04  0.10566000000E+00 0. -1.
        994   -1    0    0    0    0 -0.00000000000E+00 -0.00000000000E+00  0.11368683772E-12  0.17120000000E+03  0.17120000000E+03 0.  0.
         13    1    1    2    0    0 -0.86698411455E+01  0.51293567509E+01  0.94703301290E+01  0.13826596217E+02  0.10566000000E+00 0. -1.
        994    1    1    2    0    0  0.10826720178E+02 -0.16130349478E+02  0.56226803290E+01  0.17239043065E+03  0.17120000000E+03 0.  0.
        998    1    1    2    0    0 -0.21568790324E+01  0.11000992727E+02  0.14849069858E+04  0.14849829731E+04  0.10000000000E+02 0. -1.
</event>
<event>
 5    1  0.1796476E-008  0.3827912E+03  0.7957747E-01  0.3439094E+00
         13   -1    0    0    0    0  0.00000000000E+00  0.00000000000E+00  0.14999999963E+04  0.15000000000E+04  0.10566000000E+00 0. -1.
        994   -1    0    0    0    0 -0.00000000000E+00 -0.00000000000E+00  0.11368683772E-12  0.17120000000E+03  0.17120000000E+03 0.  0.
         13    1    1    2    0    0  0.19651589411E+02  0.10674485484E+02  0.83590258015E+02  0.86530179740E+02  0.10566000000E+00 0. -1.
        994    1    1    2    0    0 -0.36415612882E+02  0.58400830212E+01  0.72493524712E+01  0.17527748441E+03  0.17120000000E+03 0.  0.
        998    1    1    2    0    0  0.16764023471E+02 -0.16514568505E+02  0.14091603858E+04  0.14093923358E+04  0.10000000000E+02 0. -1.
</event>
<event>
 5    1  0.1796476E-008  0.3837625E+03  0.7957747E-01  0.3434938E+00
         13   -1    0    0    0    0  0.00000000000E+00  0.00000000000E+00  0.14999999963E+04  0.15000000000E+04  0.10566000000E+00 0. -1.
        994   -1    0    0    0    0 -0.00000000000E+00 -0.00000000000E+00  0.11368683772E-12  0.17120000000E+03  0.17120000000E+03 0.  0.
         13    1    1    2    0    0 -0.16115146008E+02 -0.19588390687E+02  0.13469964273E+03  0.13706716564E+03  0.10566000000E+00 0. -1.
        994    1    1    2    0    0  0.19866556698E+02  0.13250427305E+02  0.41309684551E+01  0.17290679223E+03  0.17120000000E+03 0.  0.
        998    1    1    2    0    0 -0.37514106903E+01  0.63379633824E+01  0.13611693851E+04  0.13612260421E+04  0.10000000000E+02 0. -1.
</event>
<event>
 5    1  0.1796476E-008  0.3853484E+03  0.7957747E-01  0.3428196E+00
         13   -1    0    0    0    0  0.00000000000E+00  0.00000000000E+00  0.14999999963E+04  0.15000000000E+04  0.10566000000E+00 0.  1.
        994   -1    0    0    0    0 -0.00000000000E+00 -0.00000000000E+00  0.11368683772E-12  0.17120000000E+03  0.17120000000E+03 0.  0.
         13    1    1    2    0    0 -0.19931917725E+01 -0.10941813149E+02  0.44784859004E+02  0.46145323148E+02  0.10566000000E+00 0.  1.
        994    1    1    2    0    0 -0.16819944114E+01 -0.15063909073E+01  0.14740276215E+01  0.17122123430E+03  0.17120000000E+03 0.  0.
        998    1    1    2    0    0  0.36751861838E+01  0.12448204056E+02  0.14537411097E+04  0.14538334425E+04  0.10000000000E+02 0.  1.
</event>
<event>
 5    1  0.1796476E-008  0.3859219E+03  0.7957747E-01  0.3425772E+00
         13   -1    0    0    0    0  0.00000000000E+00  0.00000000000E+00  0.14999999963E+04  0.15000000000E+04  0.10566000000E+00 0.  1.
        994   -1    0    0    0    0 -0.00000000000E+00 -0.00000000000E+00  0.11368683772E-12  0.17120000000E+03  0.17120000000E+03 0.  0.
         13    1    1    2    0    0 -0.11030628185E+02  0.16765048510E+01  0.54848834400E+02  0.55972236205E+02  0.10566000000E+00 0.  1.
        994    1    1    2    0    0  0.39360536967E+01 -0.18442324609E+01  0.12350892776E+01  0.17125962501E+03  0.17120000000E+03 0.  0.
        998    1    1    2    0    0  0.70945744884E+01  0.16772760987E+00  0.14439160726E+04  0.14439681388E+04  0.10000000000E+02 0.  1.
</event>
<event>
 5    1  0.1796476E-008  0.3822527E+03  0.7957747E-01  0.3441408E+00
         13   -1    0    0    0    0  0.00000000000E+00  0.00000000000E+00  0.14999999963E+04  0.15000000000E+04  0.10566000000E+00 0.  1.
        994   -1    0    0    0    0 -0.00000000000E+00 -0.00000000000E+00  0.11368683772E-12  0.17120000000E+03  0.17120000000E+03 0.  0.
         13    1    1    2    0    0 -0.55355543347E+02 -0.63795437588E+01  0.78777234564E+02  0.96492479538E+02  0.10566000000E+00 0.  1.
        994    1    1    2    0    0  0.52625840834E+02  0.11101628717E+02  0.28216208503E+02  0.18165439633E+03  0.17120000000E+03 0.  0.
        998    1    1    2    0    0  0.27297025132E+01 -0.47220849582E+01  0.13930065532E+04  0.13930531241E+04  0.10000000000E+02 0.  1.
</event>
<event>
 5    1  0.1796476E-008  0.3848638E+03  0.7957747E-01  0.3430250E+00
         13   -1    0    0    0    0  0.00000000000E+00  0.00000000000E+00  0.14999999963E+04  0.15000000000E+04  0.10566000000E+00 0. -1.
        994   -1    0    0    0    0 -0.00000000000E+00 -0.00000000000E+00  0.11368683772E-12  0.17120000000E+03  0.17120000000E+03 0.  0.
         13    1    1    2    0    0 -0.99728829603E+01  0.13359517602E+02  0.83702233096E+02  0.85346412311E+02  0.10566000000E+00 0. -1.
        994    1    1    2    0    0  0.63040615583E+01 -0.47653266549E+01  0.19032515826E+01  0.17139285836E+03  0.17120000000E+03 0.  0.
        998    1    1    2    0    0  0.36688214020E+01 -0.85941909474E+01  0.14143945116E+04  0.14144607293E+04  0.10000000000E+02 0. -1.
</event>
<event>
 5    1  0.1796476E-008  0.3817773E+03  0.7957747E-01  0.3443456E+00
         13   -1    0    0    0    0  0.00000000000E+00  0.00000000000E+00  0.14999999963E+04  0.15000000000E+04  0.10566000000E+00 0.  1.
        994   -1    0    0    0    0 -0.00000000000E+00 -0.00000000000E+00  0.11368683772E-12  0.17120000000E+03  0.17120000000E+03 0.  0.
         13    1    1    2    0    0 -0.15334800895E+02 -0.21975134978E+02  0.11308020064E+03  0.11621189964E+03  0.10566000000E+00 0.  1.
        994    1    1    2    0    0  0.21113126626E+02 -0.33590597030E+00  0.47219098727E+01  0.17256191173E+03  0.17120000000E+03 0.  0.
        998    1    1    2    0    0 -0.57783257310E+01  0.22311040949E+02  0.13821978858E+04  0.13824261886E+04  0.10000000000E+02 0.  1.
</event>
<event>
 5    1  0.1796476E-008  0.3779384E+03  0.7957747E-01  0.3460185E+00
         13   -1    0    0    0    0  0.00000000000E+00  0.00000000000E+00  0.14999999963E+04  0.15000000000E+04  0.10566000000E+00 0. -1.
        994   -1    0    0    0    0 -0.00000000000E+00 -0.00000000000E+00  0.11368683772E-12  0.17120000000E+03  0.17120000000E+03 0.  0.
         13    1    1    2    0    0  0.22933625446E+02 -0.20204216270E+01  0.48552597320E+02  0.53734524751E+02  0.10566000000E+00 0. -1.
        994    1    1    2    0    0 -0.17676609292E+02  0.14768469092E+02  0.69653376782E+01  0.17288298391E+03  0.17120000000E+03 0.  0.
        998    1    1    2    0    0 -0.52570161546E+01 -0.12748047465E+02  0.14444820613E+04  0.14445824913E+04  0.10000000000E+02 0. -1.
</event>
<event>
 5    1  0.1796476E-008  0.3749316E+03  0.7957747E-01  0.3473529E+00
         13   -1    0    0    0    0  0.00000000000E+00  0.00000000000E+00  0.14999999963E+04  0.15000000000E+04  0.10566000000E+00 0.  1.
        994   -1    0    0    0    0 -0.00000000000E+00 -0.00000000000E+00  0.11368683772E-12  0.17120000000E+03  0.17120000000E+03 0.  0.
         13    1    1    2    0    0  0.24723789339E+02  0.50910504139E+02  0.10689433679E+03  0.12095269982E+03  0.10566000000E+00 0.  1.
        994    1    1    2    0    0 -0.20747967409E+01 -0.58783015223E+02  0.25983032248E+02  0.18287784345E+03  0.17120000000E+03 0.  0.
        998    1    1    2    0    0 -0.22648992598E+02  0.78725110840E+01  0.13671226272E+04  0.13673694567E+04  0.10000000000E+02 0.  1.
</event>
<event>
 5    1  0.1796476E-008  0.3823324E+03  0.7957747E-01  0.3441065E+00
         13   -1    0    0    0    0  0.00000000000E+00  0.00000000000E+00  0.14999999963E+04  0.15000000000E+04  0.10566000000E+00 0. -1.
        994   -1    0    0    0    0 -0.00000000000E+00 -0.00000000000E+00  0.11368683772E-12  0.17120000000E+03  0.17120000000E+03 0.  0.
         13    1    1    2    0    0  0.25218039660E+02  0.12294042876E+02  0.12554553226E+03  0.12864208039E+03  0.10566000000E+00 0. -1.
        994    1    1    2    0    0 -0.23990485477E+02 -0.66006098516E+01  0.50168719174E+01  0.17307143163E+03  0.17120000000E+03 0.  0.
        998    1    1    2    0    0 -0.12275541831E+01 -0.56934330246E+01  0.13694375921E+04  0.13694864880E+04  0.10000000000E+02 0. -1.
</event>
<event>
 5    1  0.1796476E-008  0.3292208E+03  0.7957747E-01  0.3707231E+00
         13   -1    0    0    0    0  0.00000000000E+00  0.00000000000E+00  0.14999999963E+04  0.15000000000E+04  0.10566000000E+00 0. -1.
        994   -1    0    0    0    0 -0.00000000000E+00 -0.00000000000E+00  0.11368683772E-12  0.17120000000E+03  0.17120000000E+03 0.  0.
         13    1    1    2    0    0 -0.12653843207E+03  0.12553926061E+03  0.98479766741E+03  0.10007989497E+04  0.10566000000E+00 0. -1.
        994    1    1    2    0    0  0.42204028465E+02 -0.18364988137E+03  0.16023936285E+03  0.30082312470E+03  0.17120000000E+03 0.  0.
        998    1    1    2    0    0  0.84334403605E+02  0.58110620762E+02  0.35496296602E+03  0.36957792564E+03  0.10000000000E+02 0. -1.
</event>
<event>
 5    1  0.1796476E-008  0.3717111E+03  0.7957747E-01  0.3488064E+00
         13   -1    0    0    0    0  0.00000000000E+00  0.00000000000E+00  0.14999999963E+04  0.15000000000E+04  0.10566000000E+00 0. -1.
        994   -1    0    0    0    0 -0.00000000000E+00 -0.00000000000E+00  0.11368683772E-12  0.17120000000E+03  0.17120000000E+03 0.  0.
         13    1    1    2    0    0  0.57131853025E+02 -0.39869885475E+02  0.21089567614E+03  0.22210505122E+03  0.10566000000E+00 0. -1.
        994    1    1    2    0    0 -0.78011571415E+02  0.57303057885E+02  0.41306305476E+02  0.20096043538E+03  0.17120000000E+03 0.  0.
        998    1    1    2    0    0  0.20879718390E+02 -0.17433172410E+02  0.12477980147E+04  0.12481345134E+04  0.10000000000E+02 0. -1.
</event>
<event>
 5    1  0.1796476E-008  0.3761463E+03  0.7957747E-01  0.3468112E+00
         13   -1    0    0    0    0  0.00000000000E+00  0.00000000000E+00  0.14999999963E+04  0.15000000000E+04  0.10566000000E+00 0.  1.
        994   -1    0    0    0    0 -0.00000000000E+00 -0.00000000000E+00  0.11368683772E-12  0.17120000000E+03  0.17120000000E+03 0.  0.
         13    1    1    2    0    0 -0.11803443944E+02  0.26675360558E+01  0.92287872285E+01  0.15219024781E+02  0.10566000000E+00 0.  1.
        994    1    1    2    0    0  0.13741764302E+02  0.12508581383E+02  0.72613700219E+01  0.17235854545E+03  0.17120000000E+03 0.  0.
        998    1    1    2    0    0 -0.19383203584E+01 -0.15176117439E+02  0.14835098390E+04  0.14836224298E+04  0.10000000000E+02 0.  1.
</event>
<event>
 5    1  0.1796476E-008  0.3851644E+03  0.7957747E-01  0.3428975E+00
         13   -1    0    0    0    0  0.00000000000E+00  0.00000000000E+00  0.14999999963E+04  0.15000000000E+04  0.10566000000E+00 0.  1.
        994   -1    0    0    0    0 -0.00000000000E+00 -0.00000000000E+00  0.11368683772E-12  0.17120000000E+03  0.17120000000E+03 0.  0.
         13    1    1    2    0    0  0.90655146427E+01  0.75077982091E+01  0.45631452017E+02  0.47125271001E+02  0.10566000000E+00 0.  1.
        994    1    1    2    0    0 -0.35110813371E+01 -0.24358027727E+01  0.16085817975E+01  0.17126087809E+03  0.17120000000E+03 0.  0.
        998    1    1    2    0    0 -0.55544333056E+01 -0.50719954364E+01  0.14527599625E+04  0.14528138509E+04  0.10000000000E+02 0.  1.
</event>
<event>
 5    1  0.1796476E-008  0.3992845E+03  0.7957747E-01  0.3371261E+00
         13   -1    0    0    0    0  0.00000000000E+00  0.00000000000E+00  0.14999999963E+04  0.15000000000E+04  0.10566000000E+00 0.  1.
        994   -1    0    0    0    0 -0.00000000000E+00 -0.00000000000E+00  0.11368683772E-12  0.17120000000E+03  0.17120000000E+03 0.  0.
         13    1    1    2    0    0  0.54343235745E+01 -0.44953774366E+02  0.26411114655E+02  0.52420719604E+02  0.10566000000E+00 0.  1.
        994    1    1    2    0    0  0.44111787718E+00  0.46645023132E+02  0.35892324861E+02  0.18103494622E+03  0.17120000000E+03 0.  0.
        998    1    1    2    0    0 -0.58754414517E+01 -0.16912487662E+01  0.14376965568E+04  0.14377443342E+04  0.10000000000E+02 0.  1.
</event>
<event>
 5    1  0.1796476E-008  0.3804428E+03  0.7957747E-01  0.3449233E+00
         13   -1    0    0    0    0  0.00000000000E+00  0.00000000000E+00  0.14999999963E+04  0.15000000000E+04  0.10566000000E+00 0.  1.
        994   -1    0    0    0    0 -0.00000000000E+00 -0.00000000000E+00  0.11368683772E-12  0.17120000000E+03  0.17120000000E+03 0.  0.
         13    1    1    2    0    0 -0.16294885309E+02  0.42876527623E+02  0.24630435908E+03  0.25053895580E+03  0.10566000000E+00 0.  1.
        994    1    1    2    0    0  0.17780092999E+02 -0.31946529130E+02  0.83846989142E+01  0.17526110694E+03  0.17120000000E+03 0.  0.
        998    1    1    2    0    0 -0.14852076897E+01 -0.10929998493E+02  0.12453109383E+04  0.12453999373E+04  0.10000000000E+02 0.  1.
</event>
<event>
 5    1  0.1796476E-008  0.3857035E+03  0.7957747E-01  0.3426694E+00
         13   -1    0    0    0    0  0.00000000000E+00  0.00000000000E+00  0.14999999963E+04  0.15000000000E+04  0.10566000000E+00 0.  1.
        994   -1    0    0    0    0 -0.00000000000E+00 -0.00000000000E+00  0.11368683772E-12  0.17120000000E+03  0.17120000000E+03 0.  0.
         13    1    1    2    0    0  0.41766476324E+01 -0.93163405419E+01  0.40234742591E+02  0.41510050132E+02  0.10566000000E+00 0.  1.
        994    1    1    2    0    0 -0.79327473711E+00  0.10543130084E+02  0.16481230590E+01  0.17153408753E+03  0.17120000000E+03 0.  0.
        998    1    1    2    0    0 -0.33833728953E+01 -0.12267895423E+01  0.14581171306E+04  0.14581558623E+04  0.10000000000E+02 0.  1.
</event>
<event>
 5    1  0.1796476E-008  0.3829744E+03  0.7957747E-01  0.3438309E+00
         13   -1    0    0    0    0  0.00000000000E+00  0.00000000000E+00  0.14999999963E+04  0.15000000000E+04  0.10566000000E+00 0. -1.
        994   -1    0    0    0    0 -0.00000000000E+00 -0.00000000000E+00  0.11368683772E-12  0.17120000000E+03  0.17120000000E+03 0.  0.
         13    1    1    2    0    0  0.16723830484E+02  0.43079648830E+01  0.58393959096E+02  0.60894258271E+02  0.10566000000E+00 0. -1.
        994    1    1    2    0    0 -0.35105634168E+00 -0.53537259612E+01  0.27344463111E+01  0.17130587503E+03  0.17120000000E+03 0.  0.
        998    1    1    2    0    0 -0.16372774142E+02  0.10457610782E+01  0.14388715909E+04  0.14389998667E+04  0.10000000000E+02 0. -1.
</event>
<event>
 5    1  0.1796476E-008  0.3835409E+03  0.7957747E-01  0.3435884E+00
         13   -1    0    0    0    0  0.00000000000E+00  0.00000000000E+00  0.14999999963E+04  0.15000000000E+04  0.10566000000E+00 0.  1.
        994   -1    0    0    0    0 -0.00000000000E+00 -0.00000000000E+00  0.11368683772E-12  0.17120000000E+03  0.17120000000E+03 0.  0.
         13    1    1    2    0    0  0.31778105093E+01 -0.16079570958E+02  0.57103887719E+02  0.59409731850E+02  0.10566000000E+00 0.  1.
        994    1    1    2    0    0 -0.41800409269E+01  0.76286421441E+01  0.26063623628E+01  0.17144066626E+03  0.17120000000E+03 0.  0.
        998    1    1    2    0    0  0.10022304176E+01  0.84509288135E+01  0.14402897462E+04  0.14403496019E+04  0.10000000000E+02 0.  1.
</event>
<event>
 5    1  0.1796476E-008  0.3855016E+03  0.7957747E-01  0.3427548E+00
         13   -1    0    0    0    0  0.00000000000E+00  0.00000000000E+00  0.14999999963E+04  0.15000000000E+04  0.10566000000E+00 0. -1.
        994   -1    0    0    0    0 -0.00000000000E+00 -0.00000000000E+00  0.11368683772E-12  0.17120000000E+03  0.17120000000E+03 0.  0.
         13    1    1    2    0    0 -0.91240871460E+01 -0.11339462212E+02  0.80644063815E+02  0.81946986291E+02  0.10566000000E+00 0. -1.
        994    1    1    2    0    0  0.27478082715E+01  0.24598464042E+01  0.14259758067E+01  0.17124565601E+03  0.17120000000E+03 0.  0.
        998    1    1    2    0    0  0.63762788745E+01  0.88796158082E+01  0.14179299567E+04  0.14180073577E+04  0.10000000000E+02 0. -1.
</event>
<event>
 5    1  0.1796476E-008  0.3817055E+03  0.7957747E-01  0.3443766E+00
         13   -1    0    0    0    0  0.00000000000E+00  0.00000000000E+00  0.14999999963E+04  0.15000000000E+04  0.10566000000E+00 0. -1.
        994   -1    0    0    0    0 -0.00000000000E+00 -0.00000000000E+00  0.11368683772E-12  0.17120000000E+03  0.17120000000E+03 0.  0.
         13    1    1    2    0    0 -0.25680155931E+02  0.64868807154E+01  0.10233941875E+03  0.10571148388E+03  0.10566000000E+00 0. -1.
        994    1    1    2    0    0  0.19909136116E+02 -0.12771141140E+02  0.51366817464E+01  0.17290257733E+03  0.17120000000E+03 0.  0.
        998    1    1    2    0    0  0.57710198152E+01  0.62842604247E+01  0.13925238958E+04  0.13925859388E+04  0.10000000000E+02 0. -1.
</event>
<event>
 5    1  0.1796476E-008  0.3733787E+03  0.7957747E-01  0.3480506E+00
         13   -1    0    0    0    0  0.00000000000E+00  0.00000000000E+00  0.14999999963E+04  0.15000000000E+04  0.10566000000E+00 0. -1.
        994   -1    0    0    0    0 -0.00000000000E+00 -0.00000000000E+00  0.11368683772E-12  0.17120000000E+03  0.17120000000E+03 0.  0.
         13    1    1    2    0    0 -0.20896572539E+02  0.25543285890E+02  0.69858324102E+02  0.77261392741E+02  0.10566000000E+00 0. -1.
        994    1    1    2    0    0  0.21093473594E+02 -0.90746048414E+01  0.93179469394E+01  0.17298423979E+03  0.17120000000E+03 0.  0.
        998    1    1    2    0    0 -0.19690105535E+00 -0.16468681049E+02  0.14208237252E+04  0.14209543675E+04  0.10000000000E+02 0. -1.
</event>
<event>
 5    1  0.1796476E-008  0.3862128E+03  0.7957747E-01  0.3424545E+00
         13   -1    0    0    0    0  0.00000000000E+00  0.00000000000E+00  0.14999999963E+04  0.15000000000E+04  0.10566000000E+00 0.  1.
        994   -1    0    0    0    0 -0.00000000000E+00 -0.00000000000E+00  0.11368683772E-12  0.17120000000E+03  0.17120000000E+03 0.  0.
         13    1    1    2    0    0  0.11713533687E+02 -0.40989890981E+01  0.74120713864E+02  0.75152511407E+02  0.10566000000E+00 0.  1.
        994    1    1    2    0    0 -0.53625336723E+01  0.19896698626E+02  0.24214582670E+01  0.17245271481E+03  0.17120000000E+03 0.  0.
        998    1    1    2    0    0 -0.63510000152E+01 -0.15797709528E+02  0.14234578241E+04  0.14235947738E+04  0.10000000000E+02 0.  1.
</event>
<event>
 5    1  0.1796476E-008  0.3815874E+03  0.7957747E-01  0.3444275E+00
         13   -1    0    0    0    0  0.00000000000E+00  0.00000000000E+00  0.14999999963E+04  0.15000000000E+04  0.10566000000E+00 0. -1.
        994   -1    0    0    0    0 -0.00000000000E+00 -0.00000000000E+00  0.11368683772E-12  0.17120000000E+03  0.17120000000E+03 0.  0.
         13    1    1    2    0    0 -0.10037875081E+02  0.23989332757E+02  0.89185081400E+02  0.92899068513E+02  0.10566000000E+00 0. -1.
        994    1    1    2    0    0  0.14660402112E+02 -0.35427936977E+02  0.82380898861E+01  0.17563420007E+03  0.17120000000E+03 0.  0.
        998    1    1    2    0    0 -0.46225270316E+01  0.11438604220E+02  0.14025768250E+04  0.14026667314E+04  0.10000000000E+02 0. -1.
</event>
<event>
 5    1  0.1796476E-008  0.3759902E+03  0.7957747E-01  0.3468806E+00
         13   -1    0    0    0    0  0.00000000000E+00  0.00000000000E+00  0.14999999963E+04  0.15000000000E+04  0.10566000000E+00 0.  1.
        994   -1    0    0    0    0 -0.00000000000E+00 -0.00000000000E+00  0.11368683772E-12  0.17120000000E+03  0.17120000000E+03 0.  0.
         13    1    1    2    0    0  0.25284721695E+02  0.77862181820E+01  0.55171183572E+02  0.61186706117E+02  0.10566000000E+00 0.  1.
        994    1    1    2    0    0 -0.19240072538E+02  0.19241259470E+02  0.86836192491E+01  0.17356627466E+03  0.17120000000E+03 0.  0.
        998    1    1    2    0    0 -0.60446491568E+01 -0.27027477652E+02  0.14361451935E+04  0.14364470192E+04  0.10000000000E+02 0.  1.
</event>
<event>
 5    1  0.1796476E-008  0.3744381E+03  0.7957747E-01  0.3475740E+00
         13   -1    0    0    0    0  0.00000000000E+00  0.00000000000E+00  0.14999999963E+04  0.15000000000E+04  0.10566000000E+00 0. -1.
        994   -1    0    0    0    0 -0.00000000000E+00 -0.00000000000E+00  0.11368683772E-12  0.17120000000E+03  0.17120000000E+03 0.  0.
         13    1    1    2    0    0  0.40157975078E+02  0.23916466963E+02  0.80721285673E+02  0.93276993300E+02  0.10566000000E+00 0. -1.
        994    1    1    2    0    0 -0.20260469573E+02  0.14742850537E+00  0.14764142079E+02  0.17302580228E+03  0.17120000000E+03 0.  0.
        998    1    1    2    0    0 -0.19897505506E+02 -0.24063895469E+02  0.14045145685E+04  0.14048972044E+04  0.10000000000E+02 0. -1.
</event>
<event>
 5    1  0.1796476E-008  0.3831474E+03  0.7957747E-01  0.3437568E+00
         13   -1    0    0    0    0  0.00000000000E+00  0.00000000000E+00  0.14999999963E+04  0.15000000000E+04  0.10566000000E+00 0. -1.
        994   -1    0    0    0    0 -0.00000000000E+00 -0.00000000000E+00  0.11368683772E-12  0.17120000000E+03  0.17120000000E+03 0.  0.
         13    1    1    2    0    0 -0.18906809246E+02  0.41054137224E+00  0.73620610631E+02  0.76010798271E+02  0.10566000000E+00 0. -1.
        994    1    1    2    0    0  0.13438482410E+01  0.20728273394E+01  0.25729336743E+01  0.17123715289E+03  0.17120000000E+03 0.  0.
        998    1    1    2    0    0  0.17562961005E+02 -0.24833687116E+01  0.14238064520E+04  0.14239520488E+04  0.10000000000E+02 0. -1.
</event>
<event>
 5    1  0.1796476E-008  0.3831460E+03  0.7957747E-01  0.3437573E+00
         13   -1    0    0    0    0  0.00000000000E+00  0.00000000000E+00  0.14999999963E+04  0.15000000000E+04  0.10566000000E+00 0.  1.
        994   -1    0    0    0    0 -0.00000000000E+00 -0.00000000000E+00  0.11368683772E-12  0.17120000000E+03  0.17120000000E+03 0.  0.
         13    1    1    2    0    0  0.25070998676E+02 -0.24285618597E+01  0.13327056329E+03  0.13563003757E+03  0.10566000000E+00 0.  1.
        994    1    1    2    0    0 -0.50112610602E+01  0.16720424947E+01  0.26457400432E+01  0.17130192178E+03  0.17120000000E+03 0.  0.
        998    1    1    2    0    0 -0.20059737616E+02  0.75651936494E+00  0.13640836929E+04  0.13642680407E+04  0.10000000000E+02 0.  1.
</event>
<event>
 5    1  0.1796476E-008  0.3848989E+03  0.7957747E-01  0.3430101E+00
         13   -1    0    0    0    0  0.00000000000E+00  0.00000000000E+00  0.14999999963E+04  0.15000000000E+04  0.10566000000E+00 0. -1.
        994   -1    0    0    0    0 -0.00000000000E+00 -0.00000000000E+00  0.11368683772E-12  0.17120000000E+03  0.17120000000E+03 0.  0.
         13    1    1    2    0    0 -0.19079758926E+02  0.41204947582E+01  0.11672196561E+03  0.11834290894E+03  0.10566000000E+00 0. -1.
        994    1    1    2    0    0  0.94114371909E+01  0.15972081157E+01  0.19801720706E+01  0.17147736674E+03  0.17120000000E+03 0.  0.
        998    1    1    2    0    0  0.96683217350E+01 -0.57177028739E+01  0.13812978586E+04  0.13813797243E+04  0.10000000000E+02 0. -1.
</event>
<event>
 5    1  0.1796476E-008  0.3833876E+03  0.7957747E-01  0.3436539E+00
         13   -1    0    0    0    0  0.00000000000E+00  0.00000000000E+00  0.14999999963E+04  0.15000000000E+04  0.10566000000E+00 0. -1.
        994   -1    0    0    0    0 -0.00000000000E+00 -0.00000000000E+00  0.11368683772E-12  0.17120000000E+03  0.17120000000E+03 0.  0.
         13    1    1    2    0    0  0.27995159671E+02  0.15332087209E+02  0.18930546435E+03  0.19197752957E+03  0.10566000000E+00 0. -1.
        994    1    1    2    0    0 -0.23549894596E+02 -0.18695051392E+02  0.54274131471E+01  0.17390514453E+03  0.17120000000E+03 0.  0.
        998    1    1    2    0    0 -0.44452650747E+01  0.33629641827E+01  0.13052671188E+04  0.13053173259E+04  0.10000000000E+02 0. -1.
</event>
<event>
 5    1  0.1796476E-008  0.3859700E+03  0.7957747E-01  0.3425569E+00
         13   -1    0    0    0    0  0.00000000000E+00  0.00000000000E+00  0.14999999963E+04  0.15000000000E+04  0.10566000000E+00 0.  1.
        994   -1    0    0    0    0 -0.00000000000E+00 -0.00000000000E+00  0.11368683772E-12  0.17120000000E+03  0.17120000000E+03 0.  0.
         13    1    1    2    0    0  0.54043333410E+01  0.13235392452E+02  0.83493962477E+02  0.84709122097E+02  0.10566000000E+00 0.  1.
        994    1    1    2    0    0 -0.39929924993E+01 -0.17945587362E+02  0.22581497846E+01  0.17219909214E+03  0.17120000000E+03 0.  0.
        998    1    1    2    0    0 -0.14113408417E+01  0.47101949094E+01  0.14142478840E+04  0.14142917858E+04  0.10000000000E+02 0.  1.
</event>
<event>
 5    1  0.1796476E-008  0.3838131E+03  0.7957747E-01  0.3434722E+00
         13   -1    0    0    0    0  0.00000000000E+00  0.00000000000E+00  0.14999999963E+04  0.15000000000E+04  0.10566000000E+00 0. -1.
        994   -1    0    0    0    0 -0.00000000000E+00 -0.00000000000E+00  0.11368683772E-12  0.17120000000E+03  0.17120000000E+03 0.  0.
         13    1    1    2    0    0 -0.84581282419E+01 -0.78272554335E+01  0.29952645476E+02  0.32093270261E+02  0.10566000000E+00 0. -1.
        994    1    1    2    0    0  0.42029351533E+01 -0.19532692571E+01  0.22914910191E+01  0.17127805130E+03  0.17120000000E+03 0.  0.
        998    1    1    2    0    0  0.42551930886E+01  0.97805246906E+01  0.14677558598E+04  0.14678286784E+04  0.10000000000E+02 0. -1.
</event>
<event>
 5    1  0.1796476E-008  0.3827813E+03  0.7957747E-01  0.3439137E+00
         13   -1    0    0    0    0  0.00000000000E+00  0.00000000000E+00  0.14999999963E+04  0.15000000000E+04  0.10566000000E+00 0. -1.
        994   -1    0    0    0    0 -0.00000000000E+00 -0.00000000000E+00  0.11368683772E-12  0.17120000000E+03  0.17120000000E+03 0.  0.
         13    1    1    2    0    0 -0.10360296011E+02 -0.23460401521E+01  0.18737063571E+02  0.21538996103E+02  0.10566000000E+00 0. -1.
        994    1    1    2    0    0  0.23976379390E+02 -0.55314391097E+01  0.47438823177E+01  0.17302429889E+03  0.17120000000E+03 0.  0.
        998    1    1    2    0    0 -0.13616083379E+02  0.78774792619E+01  0.14765190504E+04  0.14766367050E+04  0.10000000000E+02 0. -1.
</event>
<event>
 5    1  0.1796476E-008  0.3737427E+03  0.7957747E-01  0.3478865E+00
         13   -1    0    0    0    0  0.00000000000E+00  0.00000000000E+00  0.14999999963E+04  0.15000000000E+04  0.10566000000E+00 0.  1.
        994   -1    0    0    0    0 -0.00000000000E+00 -0.00000000000E+00  0.11368683772E-12  0.17120000000E+03  0.17120000000E+03 0.  0.
         13    1    1    2    0    0  0.54672384909E+01  0.18534521893E+02  0.23469126385E+02  0.30401155501E+02  0.10566000000E+00 0.  1.
        994    1    1    2    0    0 -0.41792816998E+01  0.73078074445E+01  0.75677526920E+01  0.17157383637E+03  0.17120000000E+03 0.  0.
        998    1    1    2    0    0 -0.12879567912E+01 -0.25842329337E+02  0.14689631172E+04  0.14692250081E+04  0.10000000000E+02 0.  1.
</event>
<event>
 5    1  0.1796476E-008  0.3814145E+03  0.7957747E-01  0.3445023E+00
         13   -1    0    0    0    0  0.00000000000E+00  0.00000000000E+00  0.14999999963E+04  0.15000000000E+04  0.10566000000E+00 0.  1.
        994   -1    0    0    0    0 -0.00000000000E+00 -0.00000000000E+00  0.11368683772E-12  0.17120000000E+03  0.17120000000E+03 0.  0.
         13    1    1    2    0    0 -0.17155694040E+02 -0.27495508351E+02  0.16455661028E+03  0.16771764954E+03  0.10566000000E+00 0.  1.
        994    1    1    2    0    0  0.73783468607E+01  0.55270937651E+01  0.37036780182E+01  0.17148803456E+03  0.17120000000E+03 0.  0.
        998    1    1    2    0    0  0.97773471790E+01  0.21968414586E+02  0.13317397080E+04  0.13319943159E+04  0.10000000000E+02 0.  1.
</event>
<event>
 5    1  0.1796476E-008  0.2400256E+03  0.7957747E-01  0.4446107E+00
         13   -1    0    0    0    0  0.00000000000E+00  0.00000000000E+00  0.14999999963E+04  0.15000000000E+04  0.10566000000E+00 0.  1.
        994   -1    0    0    0    0 -0.00000000000E+00 -0.00000000000E+00  0.11368683772E-12  0.17120000000E+03  0.17120000000E+03 0.  0.
         13    1    1    2    0    0  0.63757580360E+01 -0.46217354569E+02 -0.28409121603E+02  0.54624019517E+02  0.10566000000E+00 0.  1.
        994    1    1    2    0    0  0.43403128317E+02  0.45793639224E+02  0.14719378588E+03  0.23442768510E+03  0.17120000000E+03 0.  0.
        998    1    1    2    0    0 -0.49778886353E+02  0.42371534584E+00  0.13812153320E+04  0.13821482954E+04  0.10000000000E+02 0.  1.
</event>
<event>
 5    1  0.1796476E-008  0.3841785E+03  0.7957747E-01  0.3433164E+00
         13   -1    0    0    0    0  0.00000000000E+00  0.00000000000E+00  0.14999999963E+04  0.15000000000E+04  0.10566000000E+00 0. -1.
        994   -1    0    0    0    0 -0.00000000000E+00 -0.00000000000E+00  0.11368683772E-12  0.17120000000E+03  0.17120000000E+03 0.  0.
         13    1    1    2    0    0  0.23728226158E+02  0.71532945906E+01  0.14572525443E+03  0.14781765552E+03  0.10566000000E+00 0. -1.
        994    1    1    2    0    0 -0.19982259054E+02  0.14745881028E+01  0.33634817368E+01  0.17240132858E+03  0.17120000000E+03 0.  0.
        998    1    1    2    0    0 -0.37459671044E+01 -0.86278826933E+01  0.13509112601E+04  0.13509810159E+04  0.10000000000E+02 0. -1.
</event>
<event>
 5    1  0.1796476E-008  0.3849262E+03  0.7957747E-01  0.3429985E+00
         13   -1    0    0    0    0  0.00000000000E+00  0.00000000000E+00  0.14999999963E+04  0.15000000000E+04  0.10566000000E+00 0. -1.
        994   -1    0    0    0    0 -0.00000000000E+00 -0.00000000000E+00  0.11368683772E-12  0.17120000000E+03  0.17120000000E+03 0.  0.
         13    1    1    2    0    0 -0.12877953982E+02  0.22386590948E+01  0.53466364444E+02  0.55041044542E+02  0.10566000000E+00 0. -1.
        994    1    1    2    0    0  0.13612756953E+01  0.15290017187E+01  0.16805778126E+01  0.17122048727E+03  0.17120000000E+03 0.  0.
        998    1    1    2    0    0  0.11516678286E+02 -0.37676608135E+01  0.14448530540E+04  0.14449384682E+04  0.10000000000E+02 0. -1.
</event>
<event>
 5    1  0.1796476E-008  0.3827748E+03  0.7957747E-01  0.3439165E+00
         13   -1    0    0    0    0  0.00000000000E+00  0.00000000000E+00  0.14999999963E+04  0.15000000000E+04  0.10566000000E+00 0. -1.
        994   -1    0    0    0    0 -0.00000000000E+00 -0.00000000000E+00  0.11368683772E-12  0.17120000000E+03  0.17120000000E+03 0.  0.
         13    1    1    2    0    0  0.24734414189E+02  0.32775927955E+01  0.11572865799E+03  0.11838778359E+03  0.10566000000E+00 0. -1.
        994    1    1    2    0    0 -0.13355268753E+02  0.11912108152E+02  0.38005518495E+01  0.17217475343E+03  0.17120000000E+03 0.  0.
        998    1    1    2    0    0 -0.11379145436E+02 -0.15189700948E+02  0.13804707864E+04  0.13806374630E+04  0.10000000000E+02 0. -1.
</event>
<event>
 5    1  0.1796476E-008  0.3854132E+03  0.7957747E-01  0.3427922E+00
         13   -1    0    0    0    0  0.00000000000E+00  0.00000000000E+00  0.14999999963E+04  0.15000000000E+04  0.10566000000E+00 0. -1.
        994   -1    0    0    0    0 -0.00000000000E+00 -0.00000000000E+00  0.11368683772E-12  0.17120000000E+03  0.17120000000E+03 0.  0.
         13    1    1    2    0    0  0.34109418595E+00  0.10236543526E+02  0.36434829942E+02  0.37847208161E+02  0.10566000000E+00 0. -1.
        994    1    1    2    0    0  0.84795178922E+01 -0.94422694102E+01  0.19542739313E+01  0.17168086050E+03  0.17120000000E+03 0.  0.
        998    1    1    2    0    0 -0.88206120782E+01 -0.79427411598E+00  0.14616108924E+04  0.14616719313E+04  0.10000000000E+02 0. -1.
</event>
<event>
 5    1  0.1796476E-008  0.3780017E+03  0.7957747E-01  0.3459906E+00
         13   -1    0    0    0    0  0.00000000000E+00  0.00000000000E+00  0.14999999963E+04  0.15000000000E+04  0.10566000000E+00 0.  1.
        994   -1    0    0    0    0 -0.00000000000E+00 -0.00000000000E+00  0.11368683772E-12  0.17120000000E+03  0.17120000000E+03 0.  0.
         13    1    1    2    0    0 -0.17862453572E+02 -0.34876592180E+02  0.16312680819E+03  0.16776713219E+03  0.10566000000E+00 0.  1.
        994    1    1    2    0    0  0.32641037218E+01  0.54912345213E+01  0.52826198594E+01  0.17140056623E+03  0.17120000000E+03 0.  0.
        998    1    1    2    0    0  0.14598349850E+02  0.29385357659E+02  0.13315905682E+04  0.13320323016E+04  0.10000000000E+02 0.  1.
</event>
<event>
 5    1  0.1796476E-008  0.3854640E+03  0.7957747E-01  0.3427707E+00
         13   -1    0    0    0    0  0.00000000000E+00  0.00000000000E+00  0.14999999963E+04  0.15000000000E+04  0.10566000000E+00 0. -1.
        994   -1    0    0    0    0 -0.00000000000E+00 -0.00000000000E+00  0.11368683772E-12  0.17120000000E+03  0.17120000000E+03 0.  0.
         13    1    1    2    0    0 -0.14069347087E+02 -0.67029185285E+01  0.86547787686E+02  0.87939788273E+02  0.10566000000E+00 0. -1.
        994    1    1    2    0    0  0.80108339692E+01  0.88203546209E+01  0.18662916745E+01  0.17162428488E+03  0.17120000000E+03 0.  0.
        998    1    1    2    0    0  0.60585131180E+01 -0.21174360924E+01  0.14115859169E+04  0.14116359268E+04  0.10000000000E+02 0. -1.
</event>
<event>
 5    1  0.1796476E-008  0.3837212E+03  0.7957747E-01  0.3435114E+00
         13   -1    0    0    0    0  0.00000000000E+00  0.00000000000E+00  0.14999999963E+04  0.15000000000E+04  0.10566000000E+00 0.  1.
        994   -1    0    0    0    0 -0.00000000000E+00 -0.00000000000E+00  0.11368683772E-12  0.17120000000E+03  0.17120000000E+03 0.  0.
         13    1    1    2    0    0 -0.24022823441E+02  0.15829352484E+02  0.15922478413E+03  0.16180298975E+03  0.10566000000E+00 0.  1.
        994    1    1    2    0    0  0.31047239546E+02 -0.13145117681E+02  0.60292759757E+01  0.17459243217E+03  0.17120000000E+03 0.  0.
        998    1    1    2    0    0 -0.70244161047E+01 -0.26842348035E+01  0.13347459362E+04  0.13348045781E+04  0.10000000000E+02 0.  1.
</event>
<event>
 5    1  0.1796476E-008  0.3731776E+03  0.7957747E-01  0.3481414E+00
         13   -1    0    0    0    0  0.00000000000E+00  0.00000000000E+00  0.14999999963E+04  0.15000000000E+04  0.10566000000E+00 0.  1.
        994   -1    0    0    0    0 -0.00000000000E+00 -0.00000000000E+00  0.11368683772E-12  0.17120000000E+03  0.17120000000E+03 0.  0.
         13    1    1    2    0    0  0.27411597806E+02 -0.61791796045E+01  0.27106907823E+02  0.39043226950E+02  0.10566000000E+00 0.  1.
        994    1    1    2    0    0 -0.53994250953E+01 -0.60478668014E+01  0.12861422807E+02  0.17187375216E+03  0.17120000000E+03 0.  0.
        998    1    1    2    0    0 -0.22012172711E+02  0.12227046406E+02  0.14600316656E+04  0.14602830209E+04  0.10000000000E+02 0.  1.
</event>
<event>
 5    1  0.1796476E-008  0.3766878E+03  0.7957747E-01  0.3465709E+00
         13   -1    0    0    0    0  0.00000000000E+00  0.00000000000E+00  0.14999999963E+04  0.15000000000E+04  0.10566000000E+00 0.  1.
        994   -1    0    0    0    0 -0.00000000000E+00 -0.00000000000E+00  0.11368683772E-12  0.17120000000E+03  0.17120000000E+03 0.  0.
         13    1    1    2    0    0  0.18932868768E+01  0.17145236275E+02  0.22841619755E+02  0.28623319500E+02  0.10566000000E+00 0.  1.
        994    1    1    2    0    0 -0.59064884680E+01 -0.16419888819E+02  0.68444268479E+01  0.17222306911E+03  0.17120000000E+03 0.  0.
        998    1    1    2    0    0  0.40132015911E+01 -0.72534745651E+00  0.14703139497E+04  0.14703536114E+04  0.10000000000E+02 0.  1.
</event>
<event>
 5    1  0.1796476E-008  0.3856313E+03  0.7957747E-01  0.3426999E+00
         13   -1    0    0    0    0  0.00000000000E+00  0.00000000000E+00  0.14999999963E+04  0.15000000000E+04  0.10566000000E+00 0. -1.
        994   -1    0    0    0    0 -0.00000000000E+00 -0.00000000000E+00  0.11368683772E-12  0.17120000000E+03  0.17120000000E+03 0.  0.
         13    1    1    2    0    0 -0.10485177520E+02  0.10841016414E+01  0.44052062189E+02  0.45295800811E+02  0.10566000000E+00 0. -1.
        994    1    1    2    0    0  0.42875370679E+00 -0.16700934468E+01  0.13268105196E+01  0.17121382382E+03  0.17120000000E+03 0.  0.
        998    1    1    2    0    0  0.10056423813E+02  0.58599180541E+00  0.14546211236E+04  0.14546903754E+04  0.10000000000E+02 0. -1.
</event>
<event>
 5    1  0.1796476E-008  0.3813618E+03  0.7957747E-01  0.3445250E+00
         13   -1    0    0    0    0  0.00000000000E+00  0.00000000000E+00  0.14999999963E+04  0.15000000000E+04  0.10566000000E+00 0.  1.
        994   -1    0    0    0    0 -0.00000000000E+00 -0.00000000000E+00  0.11368683772E-12  0.17120000000E+03  0.17120000000E+03 0.  0.
         13    1    1    2    0    0 -0.10413288982E+02  0.12282942129E+02  0.35970934241E+02  0.39410995026E+02  0.10566000000E+00 0.  1.
        994    1    1    2    0    0  0.14212857264E+01 -0.16733840929E+02  0.43864578643E+01  0.17207766415E+03  0.17120000000E+03 0.  0.
        998    1    1    2    0    0  0.89920032557E+01  0.44508987997E+01  0.14596426042E+04  0.14597113408E+04  0.10000000000E+02 0.  1.
</event>
<event>
 5    1  0.1796476E-008  0.3770608E+03  0.7957747E-01  0.3464057E+00
         13   -1    0    0    0    0  0.00000000000E+00  0.00000000000E+00  0.14999999963E+04  0.15000000000E+04  0.10566000000E+00 0.  1.
        994   -1    0    0    0    0 -0.00000000000E+00 -0.00000000000E+00  0.11368683772E-12  0.17120000000E+03  0.17120000000E+03 0.  0.
         13    1    1    2    0    0  0.23806013950E+02 -0.63455136964E+02  0.32989895859E+03  0.33678867967E+03  0.10566000000E+00 0.  1.
        994    1    1    2    0    0 -0.32024082755E+02  0.56048249692E+02  0.19822585347E+02  0.18403620041E+03  0.17120000000E+03 0.  0.
        998    1    1    2    0    0  0.82180688050E+01  0.74068872729E+01  0.11502784523E+04  0.11503751199E+04  0.10000000000E+02 0.  1.
</event>
<event>
 5    1  0.1796476E-008  0.3817809E+03  0.7957747E-01  0.3443441E+00
         13   -1    0    0    0    0  0.00000000000E+00  0.00000000000E+00  0.14999999963E+04  0.15000000000E+04  0.10566000000E+00 0. -1.
        994   -1    0    0    0    0 -0.00000000000E+00 -0.00000000000E+00  0.11368683772E-12  0.17120000000E+03  0.17120000000E+03 0.  0.
         13    1    1    2    0    0  0.10212451772E+02  0.30439004953E+02  0.17710322586E+03  0.17998997463E+03  0.10566000000E+00 0. -1.
        994    1    1    2    0    0 -0.35044600052E+01 -0.35873283775E+01  0.33204641538E+01  0.17130562059E+03  0.17120000000E+03 0.  0.
        998    1    1    2    0    0 -0.67079917666E+01 -0.26851676576E+02  0.13195763063E+04  0.13199044048E+04  0.10000000000E+02 0. -1.
</event>
<event>
 5    1  0.1796476E-008  0.3831229E+03  0.7957747E-01  0.3437672E+00
         13   -1    0    0    0    0  0.00000000000E+00  0.00000000000E+00  0.14999999963E+04  0.15000000000E+04  0.10566000000E+00 0. -1.
        994   -1    0    0    0    0 -0.00000000000E+00 -0.00000000000E+00  0.11368683772E-12  0.17120000000E+03  0.17120000000E+03 0.  0.
         13    1    1    2    0    0 -0.64072276502E+01  0.19743711204E+02  0.96063145773E+02  0.98280241342E+02  0.10566000000E+00 0. -1.
        994    1    1    2    0    0 -0.14724501285E+02  0.47909601710E+01  0.33586696787E+01  0.17193162856E+03  0.17120000000E+03 0.  0.
        998    1    1    2    0    0  0.21131728935E+02 -0.24534671375E+02  0.14005781808E+04  0.14009881301E+04  0.10000000000E+02 0. -1.
</event>
<event>
 5    1  0.1796476E-008  0.3856454E+03  0.7957747E-01  0.3426940E+00
         13   -1    0    0    0    0  0.00000000000E+00  0.00000000000E+00  0.14999999963E+04  0.15000000000E+04  0.10566000000E+00 0.  1.
        994   -1    0    0    0    0 -0.00000000000E+00 -0.00000000000E+00  0.11368683772E-12  0.17120000000E+03  0.17120000000E+03 0.  0.
         13    1    1    2    0    0 -0.30866926541E+01 -0.11684874159E+02  0.58653717302E+02  0.59886005652E+02  0.10566000000E+00 0.  1.
        994    1    1    2    0    0  0.98440269723E+00  0.13081635298E+01  0.13188331018E+01  0.17121290740E+03  0.17120000000E+03 0.  0.
        998    1    1    2    0    0  0.21022899569E+01  0.10376710629E+02  0.14400274459E+04  0.14401010869E+04  0.10000000000E+02 0.  1.
</event>
<event>
 5    1  0.1796476E-008  0.3843161E+03  0.7957747E-01  0.3432578E+00
         13   -1    0    0    0    0  0.00000000000E+00  0.00000000000E+00  0.14999999963E+04  0.15000000000E+04  0.10566000000E+00 0. -1.
        994   -1    0    0    0    0 -0.00000000000E+00 -0.00000000000E+00  0.11368683772E-12  0.17120000000E+03  0.17120000000E+03 0.  0.
         13    1    1    2    0    0 -0.12805534736E+02  0.12546655830E+02  0.88539131912E+02  0.90335980297E+02  0.10566000000E+00 0. -1.
        994    1    1    2    0    0  0.39851255974E+01  0.53734018278E+01  0.21175855264E+01  0.17134374468E+03  0.17120000000E+03 0.  0.
        998    1    1    2    0    0  0.88204091388E+01 -0.17920057657E+02  0.14093432788E+04  0.14095202750E+04  0.10000000000E+02 0. -1.
</event>
<event>
 5    1  0.4118786E-008  0.3863306E+03  0.7957747E-01  0.3424048E+00
         13   -1    0    0    0    0  0.00000000000E+00  0.00000000000E+00  0.14999999963E+04  0.15000000000E+04  0.10566000000E+00 0. -1.
        994   -1    0    0    0    0 -0.00000000000E+00 -0.00000000000E+00  0.11368683772E-12  0.17120000000E+03  0.17120000000E+03 0.  0.
         13    1    1    2    0    0 -0.92689093996E+01  0.47436310729E+01  0.59794338577E+02  0.60694223836E+02  0.10566000000E+00 0. -1.
        994    1    1    2    0    0 -0.71920675254E+00 -0.26801730351E+01  0.99614532718E+00  0.17122538624E+03  0.17120000000E+03 0.  0.
        998    1    1    2    0    0  0.99881161521E+01 -0.20634580378E+01  0.14392095124E+04  0.14392803899E+04  0.10000000000E+02 0. -1.
</event>
<event>
 5    1  0.1796476E-008  0.3748643E+03  0.7957747E-01  0.3473830E+00
         13   -1    0    0    0    0  0.00000000000E+00  0.00000000000E+00  0.14999999963E+04  0.15000000000E+04  0.10566000000E+00 0. -1.
        994   -1    0    0    0    0 -0.00000000000E+00 -0.00000000000E+00  0.11368683772E-12  0.17120000000E+03  0.17120000000E+03 0.  0.
         13    1    1    2    0    0  0.47884734112E+02  0.39090427551E+01  0.78699062861E+02  0.92205108511E+02  0.10566000000E+00 0. -1.
        994    1    1    2    0    0 -0.38242160007E+02 -0.15391077471E+02  0.19602759941E+02  0.17718085750E+03  0.17120000000E+03 0.  0.
        998    1    1    2    0    0 -0.96425741047E+01  0.11482034715E+02  0.14016981735E+04  0.14018140340E+04  0.10000000000E+02 0. -1.
</event>
<event>
 5    1  0.1796476E-008  0.3787344E+03  0.7957747E-01  0.3456688E+00
         13   -1    0    0    0    0  0.00000000000E+00  0.00000000000E+00  0.14999999963E+04  0.15000000000E+04  0.10566000000E+00 0.  1.
        994   -1    0    0    0    0 -0.00000000000E+00 -0.00000000000E+00  0.11368683772E-12  0.17120000000E+03  0.17120000000E+03 0.  0.
         13    1    1    2    0    0 -0.17283236345E+02  0.23070349704E+02  0.86239784993E+02  0.90929989408E+02  0.10566000000E+00 0.  1.
        994    1    1    2    0    0  0.76480370440E+01 -0.13593721590E+02  0.55904836335E+01  0.17199992804E+03  0.17120000000E+03 0.  0.
        998    1    1    2    0    0  0.96351993010E+01 -0.94766281139E+01  0.14081697277E+04  0.14082700826E+04  0.10000000000E+02 0.  1.
</event>
<event>
 5    1  0.1796476E-008  0.3807458E+03  0.7957747E-01  0.3447918E+00
         13   -1    0    0    0    0  0.00000000000E+00  0.00000000000E+00  0.14999999963E+04  0.15000000000E+04  0.10566000000E+00 0. -1.
        994   -1    0    0    0    0 -0.00000000000E+00 -0.00000000000E+00  0.11368683772E-12  0.17120000000E+03  0.17120000000E+03 0.  0.
         13    1    1    2    0    0 -0.31323852916E+01  0.20451250154E+02  0.51997036166E+02  0.55962205144E+02  0.10566000000E+00 0. -1.
        994    1    1    2    0    0  0.11198468157E+02 -0.29073783644E+02  0.70008758251E+01  0.17415264238E+03  0.17120000000E+03 0.  0.
        998    1    1    2    0    0 -0.80660828651E+01  0.86225334905E+01  0.14410020843E+04  0.14410851525E+04  0.10000000000E+02 0. -1.
</event>
<event>
 5    1  0.1796476E-008  0.3858446E+03  0.7957747E-01  0.3426098E+00
         13   -1    0    0    0    0  0.00000000000E+00  0.00000000000E+00  0.14999999963E+04  0.15000000000E+04  0.10566000000E+00 0.  1.
        994   -1    0    0    0    0 -0.00000000000E+00 -0.00000000000E+00  0.11368683772E-12  0.17120000000E+03  0.17120000000E+03 0.  0.
         13    1    1    2    0    0  0.92592017546E+01  0.93209564587E+01  0.74384676578E+02  0.75536112689E+02  0.10566000000E+00 0.  1.
        994    1    1    2    0    0 -0.18585881718E+02  0.11249014170E+02  0.27608229079E+01  0.17259500996E+03  0.17120000000E+03 0.  0.
        998    1    1    2    0    0  0.93266799635E+01 -0.20569970629E+02  0.14228544968E+04  0.14230688774E+04  0.10000000000E+02 0.  1.
</event>
<event>
 5    1  0.1796476E-008  0.3855392E+03  0.7957747E-01  0.3427388E+00
         13   -1    0    0    0    0  0.00000000000E+00  0.00000000000E+00  0.14999999963E+04  0.15000000000E+04  0.10566000000E+00 0.  1.
        994   -1    0    0    0    0 -0.00000000000E+00 -0.00000000000E+00  0.11368683772E-12  0.17120000000E+03  0.17120000000E+03 0.  0.
         13    1    1    2    0    0  0.41798964936E+01  0.15771721021E+02  0.93626708008E+02  0.95037836334E+02  0.10566000000E+00 0.  1.
        994    1    1    2    0    0 -0.67002290444E+01 -0.15108670160E+02  0.22599435699E+01  0.17201079131E+03  0.17120000000E+03 0.  0.
        998    1    1    2    0    0  0.25203325508E+01 -0.66305086154E+00  0.14041133447E+04  0.14041513724E+04  0.10000000000E+02 0.  1.
</event>
<event>
 5    1  0.1796476E-008  0.3856709E+03  0.7957747E-01  0.3426832E+00
         13   -1    0    0    0    0  0.00000000000E+00  0.00000000000E+00  0.14999999963E+04  0.15000000000E+04  0.10566000000E+00 0. -1.
        994   -1    0    0    0    0 -0.00000000000E+00 -0.00000000000E+00  0.11368683772E-12  0.17120000000E+03  0.17120000000E+03 0.  0.
         13    1    1    2    0    0  0.94978173311E+01 -0.38863626830E+01  0.40886100938E+02  0.42154439421E+02  0.10566000000E+00 0. -1.
        994    1    1    2    0    0 -0.60734125827E+01  0.26282986140E+01  0.14411177413E+01  0.17133391700E+03  0.17120000000E+03 0.  0.
        998    1    1    2    0    0 -0.34244047484E+01  0.12580640689E+01  0.14576727776E+04  0.14577116436E+04  0.10000000000E+02 0. -1.
</event>
<event>
 5    1  0.1796476E-008  0.3846822E+03  0.7957747E-01  0.3431021E+00
         13   -1    0    0    0    0  0.00000000000E+00  0.00000000000E+00  0.14999999963E+04  0.15000000000E+04  0.10566000000E+00 0. -1.
        994   -1    0    0    0    0 -0.00000000000E+00 -0.00000000000E+00  0.11368683772E-12  0.17120000000E+03  0.17120000000E+03 0.  0.
         13    1    1    2    0    0 -0.16767518337E+02  0.10787566330E+02  0.10254361877E+03  0.10446399462E+03  0.10566000000E+00 0. -1.
        994    1    1    2    0    0  0.18157961965E+02 -0.14628992557E+02  0.35799811612E+01  0.17281775161E+03  0.17120000000E+03 0.  0.
        998    1    1    2    0    0 -0.13904436289E+01  0.38414262270E+01  0.13938763964E+04  0.13939182538E+04  0.10000000000E+02 0. -1.
</event>
<event>
 5    1  0.1796476E-008  0.3803907E+03  0.7957747E-01  0.3449459E+00
         13   -1    0    0    0    0  0.00000000000E+00  0.00000000000E+00  0.14999999963E+04  0.15000000000E+04  0.10566000000E+00 0. -1.
        994   -1    0    0    0    0 -0.00000000000E+00 -0.00000000000E+00  0.11368683772E-12  0.17120000000E+03  0.17120000000E+03 0.  0.
         13    1    1    2    0    0  0.30893756339E+02  0.16389285789E+02  0.17211568112E+03  0.17563271825E+03  0.10566000000E+00 0. -1.
        994    1    1    2    0    0 -0.77860398127E+01  0.42792510284E+01  0.41996165493E+01  0.17148181007E+03  0.17120000000E+03 0.  0.
        998    1    1    2    0    0 -0.23107716526E+02 -0.20668536817E+02  0.13236846986E+04  0.13240854717E+04  0.10000000000E+02 0. -1.
</event>
<event>
 5    1  0.1796476E-008  0.3787150E+03  0.7957747E-01  0.3456773E+00
         13   -1    0    0    0    0  0.00000000000E+00  0.00000000000E+00  0.14999999963E+04  0.15000000000E+04  0.10566000000E+00 0. -1.
        994   -1    0    0    0    0 -0.00000000000E+00 -0.00000000000E+00  0.11368683772E-12  0.17120000000E+03  0.17120000000E+03 0.  0.
         13    1    1    2    0    0 -0.13468642630E+02  0.39764911211E+02  0.22089735591E+03  0.22485174117E+03  0.10566000000E+00 0. -1.
        994    1    1    2    0    0 -0.62885610907E+01 -0.11894163358E+01  0.49207325525E+01  0.17139023986E+03  0.17120000000E+03 0.  0.
        998    1    1    2    0    0  0.19757203721E+02 -0.38575494875E+02  0.12741819078E+04  0.12749580190E+04  0.10000000000E+02 0. -1.
</event>
<event>
 5    1  0.1796476E-008  0.3817674E+03  0.7957747E-01  0.3443499E+00
         13   -1    0    0    0    0  0.00000000000E+00  0.00000000000E+00  0.14999999963E+04  0.15000000000E+04  0.10566000000E+00 0. -1.
        994   -1    0    0    0    0 -0.00000000000E+00 -0.00000000000E+00  0.11368683772E-12  0.17120000000E+03  0.17120000000E+03 0.  0.
         13    1    1    2    0    0 -0.13020955543E-01  0.10099403260E+02  0.14257097705E+02  0.17472095317E+02  0.10566000000E+00 0. -1.
        994    1    1    2    0    0 -0.40290108849E+01 -0.10254355877E+02  0.36471585408E+01  0.17159290926E+03  0.17120000000E+03 0.  0.
        998    1    1    2    0    0  0.40420318404E+01  0.15495261719E+00  0.14820957400E+04  0.14821349954E+04  0.10000000000E+02 0. -1.
</event>
<event>
 5    1  0.1796476E-008  0.3823352E+03  0.7957747E-01  0.3441053E+00
         13   -1    0    0    0    0  0.00000000000E+00  0.00000000000E+00  0.14999999963E+04  0.15000000000E+04  0.10566000000E+00 0.  1.
        994   -1    0    0    0    0 -0.00000000000E+00 -0.00000000000E+00  0.11368683772E-12  0.17120000000E+03  0.17120000000E+03 0.  0.
         13    1    1    2    0    0 -0.26380430575E+02 -0.10468877105E+02  0.15075599051E+03  0.15340438176E+03  0.10566000000E+00 0.  1.
        994    1    1    2    0    0  0.32350486545E+01 -0.15092891396E+01  0.30012624972E+01  0.17126351354E+03  0.17120000000E+03 0.  0.
        998    1    1    2    0    0  0.23145381920E+02  0.11978166245E+02  0.13462427433E+04  0.13465321047E+04  0.10000000000E+02 0.  1.
</event>
<event>
 5    1  0.1796476E-008  0.3853525E+03  0.7957747E-01  0.3428178E+00
         13   -1    0    0    0    0  0.00000000000E+00  0.00000000000E+00  0.14999999963E+04  0.15000000000E+04  0.10566000000E+00 0.  1.
        994   -1    0    0    0    0 -0.00000000000E+00 -0.00000000000E+00  0.11368683772E-12  0.17120000000E+03  0.17120000000E+03 0.  0.
         13    1    1    2    0    0 -0.83667730021E+01 -0.10514144353E+02  0.63791806013E+02  0.65191685056E+02  0.10566000000E+00 0.  1.
        994    1    1    2    0    0  0.81160771552E+01  0.28411587360E+00  0.16718874716E+01  0.17140066114E+03  0.17120000000E+03 0.  0.
        998    1    1    2    0    0  0.25069584695E+00  0.10230028479E+02  0.14345363028E+04  0.14346076538E+04  0.10000000000E+02 0.  1.
</event>
<event>
 5    1  0.1796476E-008  0.3784464E+03  0.7957747E-01  0.3457951E+00
         13   -1    0    0    0    0  0.00000000000E+00  0.00000000000E+00  0.14999999963E+04  0.15000000000E+04  0.10566000000E+00 0.  1.
        994   -1    0    0    0    0 -0.00000000000E+00 -0.00000000000E+00  0.11368683772E-12  0.17120000000E+03  0.17120000000E+03 0.  0.
         13    1    1    2    0    0 -0.13318749452E+02  0.28481239175E+01  0.16681239973E+02  0.21535455136E+02  0.10566000000E+00 0.  1.
        994    1    1    2    0    0  0.98486115320E+01 -0.64408593400E+01  0.53849128719E+01  0.17168843032E+03  0.17120000000E+03 0.  0.
        998    1    1    2    0    0  0.34701379205E+01  0.35927354226E+01  0.14779338434E+04  0.14779761145E+04  0.10000000000E+02 0.  1.
</event>
<event>
 5    1  0.1796476E-008  0.3818079E+03  0.7957747E-01  0.3443324E+00
         13   -1    0    0    0    0  0.00000000000E+00  0.00000000000E+00  0.14999999963E+04  0.15000000000E+04  0.10566000000E+00 0. -1.
        994   -1    0    0    0    0 -0.00000000000E+00 -0.00000000000E+00  0.11368683772E-12  0.17120000000E+03  0.17120000000E+03 0.  0.
         13    1    1    2    0    0  0.82331284047E+00  0.10146762926E+02  0.14600412726E+02  0.17799378015E+02  0.10566000000E+00 0. -1.
        994    1    1    2    0    0 -0.75081426853E+00 -0.10796125720E+02  0.36125991998E+01  0.17157975092E+03  0.17120000000E+03 0.  0.
        998    1    1    2    0    0 -0.72498571947E-01  0.64936279395E+00  0.14817869844E+04  0.14818208711E+04  0.10000000000E+02 0. -1.
</event>
<event>
 5    1  0.1796476E-008  0.3944450E+03  0.7957747E-01  0.3390576E+00
         13   -1    0    0    0    0  0.00000000000E+00  0.00000000000E+00  0.14999999963E+04  0.15000000000E+04  0.10566000000E+00 0.  1.
        994   -1    0    0    0    0 -0.00000000000E+00 -0.00000000000E+00  0.11368683772E-12  0.17120000000E+03  0.17120000000E+03 0.  0.
         13    1    1    2    0    0  0.55540800495E+02 -0.70537395831E+01  0.52355608080E+02  0.76652831801E+02  0.10566000000E+00 0.  1.
        994    1    1    2    0    0 -0.61379068128E+02  0.19263540046E+02  0.40520649653E+02  0.18732281502E+03  0.17120000000E+03 0.  0.
        998    1    1    2    0    0  0.58382676335E+01 -0.12209800463E+02  0.14071237385E+04  0.14072243532E+04  0.10000000000E+02 0.  1.
</event>
<event>
 5    1  0.1796476E-008  0.3847128E+03  0.7957747E-01  0.3430891E+00
         13   -1    0    0    0    0  0.00000000000E+00  0.00000000000E+00  0.14999999963E+04  0.15000000000E+04  0.10566000000E+00 0.  1.
        994   -1    0    0    0    0 -0.00000000000E+00 -0.00000000000E+00  0.11368683772E-12  0.17120000000E+03  0.17120000000E+03 0.  0.
         13    1    1    2    0    0 -0.77856481919E+01  0.14088356338E+02  0.77355324147E+02  0.79012375233E+02  0.10566000000E+00 0.  1.
        994    1    1    2    0    0 -0.23208013490E+01 -0.33052618444E+01  0.18264667194E+01  0.17125737022E+03  0.17120000000E+03 0.  0.
        998    1    1    2    0    0  0.10106449541E+02 -0.10783094494E+02  0.14208182054E+04  0.14209302545E+04  0.10000000000E+02 0.  1.
</event>
<event>
 5    1  0.1796476E-008  0.3853934E+03  0.7957747E-01  0.3428006E+00
         13   -1    0    0    0    0  0.00000000000E+00  0.00000000000E+00  0.14999999963E+04  0.15000000000E+04  0.10566000000E+00 0.  1.
        994   -1    0    0    0    0 -0.00000000000E+00 -0.00000000000E+00  0.11368683772E-12  0.17120000000E+03  0.17120000000E+03 0.  0.
         13    1    1    2    0    0  0.16263655280E+02  0.62256101037E+01  0.10175730629E+03  0.10323674371E+03  0.10566000000E+00 0.  1.
        994    1    1    2    0    0 -0.11797203300E+02 -0.14582698299E+02  0.25913931420E+01  0.17224396771E+03  0.17120000000E+03 0.  0.
        998    1    1    2    0    0 -0.44664519794E+01  0.83570881952E+01  0.13956512968E+04  0.13957192886E+04  0.10000000000E+02 0.  1.
</event>
<event>
 5    1  0.1796476E-008  0.3851353E+03  0.7957747E-01  0.3429099E+00
         13   -1    0    0    0    0  0.00000000000E+00  0.00000000000E+00  0.14999999963E+04  0.15000000000E+04  0.10566000000E+00 0. -1.
        994   -1    0    0    0    0 -0.00000000000E+00 -0.00000000000E+00  0.11368683772E-12  0.17120000000E+03  0.17120000000E+03 0.  0.
         13    1    1    2    0    0  0.12119571313E+02 -0.11670754436E+02  0.91190161617E+02  0.92729430375E+02  0.10566000000E+00 0. -1.
        994    1    1    2    0    0 -0.55875105446E+01  0.88571351818E+01  0.19235629918E+01  0.17153078211E+03  0.17120000000E+03 0.  0.
        998    1    1    2    0    0 -0.65320607682E+01  0.28136192542E+01  0.14068862717E+04  0.14069397875E+04  0.10000000000E+02 0. -1.
</event>
<event>
 5    1  0.1796476E-008  0.3842212E+03  0.7957747E-01  0.3432982E+00
         13   -1    0    0    0    0  0.00000000000E+00  0.00000000000E+00  0.14999999963E+04  0.15000000000E+04  0.10566000000E+00 0.  1.
        994   -1    0    0    0    0 -0.00000000000E+00 -0.00000000000E+00  0.11368683772E-12  0.17120000000E+03  0.17120000000E+03 0.  0.
         13    1    1    2    0    0 -0.14037625284E+02 -0.53730042828E+01  0.57132925595E+02  0.59077122896E+02  0.10566000000E+00 0.  1.
        994    1    1    2    0    0  0.41688344597E+01  0.30895411110E+01  0.21060686529E+01  0.17129156421E+03  0.17120000000E+03 0.  0.
        998    1    1    2    0    0  0.98687908240E+01  0.22834631718E+01  0.14407610020E+04  0.14408313129E+04  0.10000000000E+02 0.  1.
</event>
<event>
 5    1  0.1796476E-008  0.3734746E+03  0.7957747E-01  0.3480073E+00
         13   -1    0    0    0    0  0.00000000000E+00  0.00000000000E+00  0.14999999963E+04  0.15000000000E+04  0.10566000000E+00 0.  1.
        994   -1    0    0    0    0 -0.00000000000E+00 -0.00000000000E+00  0.11368683772E-12  0.17120000000E+03  0.17120000000E+03 0.  0.
         13    1    1    2    0    0 -0.60717179486E+01  0.17371810539E+02  0.21208490827E+02  0.28079473062E+02  0.10566000000E+00 0.  1.
        994    1    1    2    0    0 -0.20787195355E+02  0.17151851038E+02  0.99497280272E+01  0.17359357872E+03  0.17120000000E+03 0.  0.
        998    1    1    2    0    0  0.26858913303E+02 -0.34523661578E+02  0.14688417774E+04  0.14695269482E+04  0.10000000000E+02 0.  1.
</event>
<event>
 5    1  0.1796476E-008  0.3843744E+03  0.7957747E-01  0.3432330E+00
         13   -1    0    0    0    0  0.00000000000E+00  0.00000000000E+00  0.14999999963E+04  0.15000000000E+04  0.10566000000E+00 0. -1.
        994   -1    0    0    0    0 -0.00000000000E+00 -0.00000000000E+00  0.11368683772E-12  0.17120000000E+03  0.17120000000E+03 0.  0.
         13    1    1    2    0    0  0.83642029907E+01  0.20284819408E+02  0.12920117345E+03  0.13105108994E+03  0.10566000000E+00 0. -1.
        994    1    1    2    0    0 -0.22129215771E+01 -0.81455626987E+01  0.21758663258E+01  0.17142176527E+03  0.17120000000E+03 0.  0.
        998    1    1    2    0    0 -0.61512814136E+01 -0.12139256709E+02  0.13686229565E+04  0.13687271448E+04  0.10000000000E+02 0. -1.
</event>
<event>
 5    1  0.1871414E-008  0.3853006E+03  0.7957747E-01  0.3428398E+00
         13   -1    0    0    0    0  0.00000000000E+00  0.00000000000E+00  0.14999999963E+04  0.15000000000E+04  0.10566000000E+00 0. -1.
        994   -1    0    0    0    0 -0.00000000000E+00 -0.00000000000E+00  0.11368683772E-12  0.17120000000E+03  0.17120000000E+03 0.  0.
         13    1    1    2    0    0  0.38634569951E+01  0.11316532391E+02  0.48853121893E+02  0.50295416174E+02  0.10566000000E+00 0. -1.
        994    1    1    2    0    0 -0.16984014743E+01 -0.60675452838E+01  0.16113884456E+01  0.17132348422E+03  0.17120000000E+03 0.  0.
        998    1    1    2    0    0 -0.21650555208E+01 -0.52489871074E+01  0.14495354859E+04  0.14495810996E+04  0.10000000000E+02 0. -1.
</event>
<event>
 5    1  0.1796476E-008  0.3754954E+03  0.7957747E-01  0.3471010E+00
         13   -1    0    0    0    0  0.00000000000E+00  0.00000000000E+00  0.14999999963E+04  0.15000000000E+04  0.10566000000E+00 0. -1.
        994   -1    0    0    0    0 -0.00000000000E+00 -0.00000000000E+00  0.11368683772E-12  0.17120000000E+03  0.17120000000E+03 0.  0.
         13    1    1    2    0    0  0.57634275763E+02  0.20415111968E+02  0.28163015396E+03  0.28819098064E+03  0.10566000000E+00 0. -1.
        994    1    1    2    0    0 -0.37572329672E+02 -0.88903065678E+01  0.11500118862E+02  0.17587612186E+03  0.17120000000E+03 0.  0.
        998    1    1    2    0    0 -0.20061946092E+02 -0.11524805400E+02  0.12068697235E+04  0.12071328975E+04  0.10000000000E+02 0. -1.
</event>
<event>
 5    1  0.1796476E-008  0.3812517E+03  0.7957747E-01  0.3445727E+00
         13   -1    0    0    0    0  0.00000000000E+00  0.00000000000E+00  0.14999999963E+04  0.15000000000E+04  0.10566000000E+00 0. -1.
        994   -1    0    0    0    0 -0.00000000000E+00 -0.00000000000E+00  0.11368683772E-12  0.17120000000E+03  0.17120000000E+03 0.  0.
         13    1    1    2    0    0  0.34356558805E+02  0.30259992304E+01  0.14756839731E+03  0.15154528317E+03  0.10566000000E+00 0. -1.
        994    1    1    2    0    0 -0.40807680554E+02  0.16507425235E+01  0.90756359827E+01  0.17623790430E+03  0.17120000000E+03 0.  0.
        998    1    1    2    0    0  0.64511217496E+01 -0.46767417538E+01  0.13433559630E+04  0.13434168125E+04  0.10000000000E+02 0. -1.
</event>
<event>
 5    1  0.1796476E-008  0.3856692E+03  0.7957747E-01  0.3426839E+00
         13   -1    0    0    0    0  0.00000000000E+00  0.00000000000E+00  0.14999999963E+04  0.15000000000E+04  0.10566000000E+00 0. -1.
        994   -1    0    0    0    0 -0.00000000000E+00 -0.00000000000E+00  0.11368683772E-12  0.17120000000E+03  0.17120000000E+03 0.  0.
         13    1    1    2    0    0 -0.38716362834E+02  0.64947362737E+01  0.22493931668E+02  0.45245181802E+02  0.10566000000E+00 0. -1.
        994    1    1    2    0    0  0.14773095029E+03  0.15861814193E+02  0.10659031467E+03  0.25049344503E+03  0.17120000000E+03 0.  0.
        998    1    1    2    0    0 -0.10901458745E+03 -0.22356550467E+02  0.13709157499E+04  0.13754613732E+04  0.10000000000E+02 0. -1.
</event>
<event>
 5    1  0.1796476E-008  0.3858631E+03  0.7957747E-01  0.3426020E+00
         13   -1    0    0    0    0  0.00000000000E+00  0.00000000000E+00  0.14999999963E+04  0.15000000000E+04  0.10566000000E+00 0. -1.
        994   -1    0    0    0    0 -0.00000000000E+00 -0.00000000000E+00  0.11368683772E-12  0.17120000000E+03  0.17120000000E+03 0.  0.
         13    1    1    2    0    0 -0.94507428983E+01 -0.10974010786E+02  0.85528303944E+02  0.86745878252E+02  0.10566000000E+00 0. -1.
        994    1    1    2    0    0  0.10763389284E+02  0.77668880051E+01  0.17802005937E+01  0.17172298685E+03  0.17120000000E+03 0.  0.
        998    1    1    2    0    0 -0.13126463854E+01  0.32071227811E+01  0.14126914917E+04  0.14127311349E+04  0.10000000000E+02 0. -1.
</event>
<event>
 5    1  0.1796476E-008  0.3835048E+03  0.7957747E-01  0.3436038E+00
         13   -1    0    0    0    0  0.00000000000E+00  0.00000000000E+00  0.14999999963E+04  0.15000000000E+04  0.10566000000E+00 0.  1.
        994   -1    0    0    0    0 -0.00000000000E+00 -0.00000000000E+00  0.11368683772E-12  0.17120000000E+03  0.17120000000E+03 0.  0.
         13    1    1    2    0    0 -0.14753399609E+01  0.13549159896E+02  0.38311286361E+02  0.40663524055E+02  0.10566000000E+00 0.  1.
        994    1    1    2    0    0  0.14846224542E+01 -0.98261649892E+01  0.27007038687E+01  0.17150944995E+03  0.17120000000E+03 0.  0.
        998    1    1    2    0    0 -0.92824932227E-02 -0.37229949068E+01  0.14589880060E+04  0.14590270260E+04  0.10000000000E+02 0.  1.
</event>
<event>
 5    1  0.1796476E-008  0.3768551E+03  0.7957747E-01  0.3464967E+00
         13   -1    0    0    0    0  0.00000000000E+00  0.00000000000E+00  0.14999999963E+04  0.15000000000E+04  0.10566000000E+00 0.  1.
        994   -1    0    0    0    0 -0.00000000000E+00 -0.00000000000E+00  0.11368683772E-12  0.17120000000E+03  0.17120000000E+03 0.  0.
         13    1    1    2    0    0 -0.25267784021E+02  0.11196334767E+02  0.65467146332E+02  0.71061784627E+02  0.10566000000E+00 0.  1.
        994    1    1    2    0    0  0.10513548926E+02 -0.10017536767E+02  0.64418657516E+01  0.17193552102E+03  0.17120000000E+03 0.  0.
        998    1    1    2    0    0  0.14754235095E+02 -0.11787979997E+01  0.14280909842E+04  0.14282026944E+04  0.10000000000E+02 0.  1.
</event>
<event>
 5    1  0.1796476E-008  0.3852978E+03  0.7957747E-01  0.3428410E+00
         13   -1    0    0    0    0  0.00000000000E+00  0.00000000000E+00  0.14999999963E+04  0.15000000000E+04  0.10566000000E+00 0. -1.
        994   -1    0    0    0    0 -0.00000000000E+00 -0.00000000000E+00  0.11368683772E-12  0.17120000000E+03  0.17120000000E+03 0.  0.
         13    1    1    2    0    0 -0.18754471225E+02 -0.35783285421E+01  0.11090055500E+03  0.11253212381E+03  0.10566000000E+00 0. -1.
        994    1    1    2    0    0  0.24107360309E+02  0.43718234011E+01  0.34570251770E+01  0.17297880993E+03  0.17120000000E+03 0.  0.
        998    1    1    2    0    0 -0.53528890836E+01 -0.79349485903E+00  0.13856424161E+04  0.13856890663E+04  0.10000000000E+02 0. -1.
</event>
<event>
 5    1  0.1796476E-008  0.3775216E+03  0.7957747E-01  0.3462022E+00
         13   -1    0    0    0    0  0.00000000000E+00  0.00000000000E+00  0.14999999963E+04  0.15000000000E+04  0.10566000000E+00 0. -1.
        994   -1    0    0    0    0 -0.00000000000E+00 -0.00000000000E+00  0.11368683772E-12  0.17120000000E+03  0.17120000000E+03 0.  0.
         13    1    1    2    0    0 -0.20307085339E+02  0.43626896458E+02  0.23428721307E+03  0.23917816201E+03  0.10566000000E+00 0. -1.
        994    1    1    2    0    0 -0.15023142858E+02 -0.23936028869E+02  0.80859979455E+01  0.17370507092E+03  0.17120000000E+03 0.  0.
        998    1    1    2    0    0  0.35330228198E+02 -0.19690867589E+02  0.12576267853E+04  0.12583167671E+04  0.10000000000E+02 0. -1.
</event>
<event>
 5    1  0.1796476E-008  0.3801354E+03  0.7957747E-01  0.3450569E+00
         13   -1    0    0    0    0  0.00000000000E+00  0.00000000000E+00  0.14999999963E+04  0.15000000000E+04  0.10566000000E+00 0.  1.
        994   -1    0    0    0    0 -0.00000000000E+00 -0.00000000000E+00  0.11368683772E-12  0.17120000000E+03  0.17120000000E+03 0.  0.
         13    1    1    2    0    0 -0.31894984731E+02  0.11311157168E+02  0.13286789105E+03  0.13710988281E+03  0.10566000000E+00 0.  1.
        994    1    1    2    0    0  0.25891751022E+02 -0.11527319766E+02  0.67534900067E+01  0.17366148537E+03  0.17120000000E+03 0.  0.
        998    1    1    2    0    0  0.60032337093E+01  0.21616259753E+00  0.13603786152E+04  0.13604286318E+04  0.10000000000E+02 0.  1.
</event>
<event>
 5    1  0.1796476E-008  0.3853348E+03  0.7957747E-01  0.3428253E+00
         13   -1    0    0    0    0  0.00000000000E+00  0.00000000000E+00  0.14999999963E+04  0.15000000000E+04  0.10566000000E+00 0. -1.
        994   -1    0    0    0    0 -0.00000000000E+00 -0.00000000000E+00  0.11368683772E-12  0.17120000000E+03  0.17120000000E+03 0.  0.
         13    1    1    2    0    0  0.14514539499E+02  0.44359651381E+01  0.76670708487E+02  0.78158546222E+02  0.10566000000E+00 0. -1.
        994    1    1    2    0    0 -0.12027998208E+02 -0.85775253971E+01  0.21812908590E+01  0.17185006463E+03  0.17120000000E+03 0.  0.
        998    1    1    2    0    0 -0.24865412912E+01  0.41415602591E+01  0.14211479969E+04  0.14211913892E+04  0.10000000000E+02 0. -1.
</event>
<event>
 5    1  0.1796476E-008  0.3846342E+03  0.7957747E-01  0.3431225E+00
         13   -1    0    0    0    0  0.00000000000E+00  0.00000000000E+00  0.14999999963E+04  0.15000000000E+04  0.10566000000E+00 0. -1.
        994   -1    0    0    0    0 -0.00000000000E+00 -0.00000000000E+00  0.11368683772E-12  0.17120000000E+03  0.17120000000E+03 0.  0.
         13    1    1    2    0    0 -0.12540999565E+02 -0.49389554211E+01  0.52228562106E+02  0.53939816597E+02  0.10566000000E+00 0. -1.
        994    1    1    2    0    0  0.57436216315E+01 -0.12250197471E+02  0.24148048031E+01  0.17175077237E+03  0.17120000000E+03 0.  0.
        998    1    1    2    0    0  0.67973779337E+01  0.17189152892E+02  0.14453566294E+04  0.14455094110E+04  0.10000000000E+02 0. -1.
</event>
<event>
 5    1  0.1796476E-008  0.3854725E+03  0.7957747E-01  0.3427671E+00
         13   -1    0    0    0    0  0.00000000000E+00  0.00000000000E+00  0.14999999963E+04  0.15000000000E+04  0.10566000000E+00 0. -1.
        994   -1    0    0    0    0 -0.00000000000E+00 -0.00000000000E+00  0.11368683772E-12  0.17120000000E+03  0.17120000000E+03 0.  0.
         13    1    1    2    0    0 -0.68079316018E+01 -0.13330252996E+02  0.82094256772E+02  0.83447718582E+02  0.10566000000E+00 0. -1.
        994    1    1    2    0    0 -0.54351463268E+00  0.86759180084E+01  0.16439268477E+01  0.17142843830E+03  0.17120000000E+03 0.  0.
        998    1    1    2    0    0  0.73514462345E+01  0.46543349875E+01  0.14162618127E+04  0.14163238431E+04  0.10000000000E+02 0. -1.
</event>
<event>
 5    1  0.1796476E-008  0.3846578E+03  0.7957747E-01  0.3431125E+00
         13   -1    0    0    0    0  0.00000000000E+00  0.00000000000E+00  0.14999999963E+04  0.15000000000E+04  0.10566000000E+00 0.  1.
        994   -1    0    0    0    0 -0.00000000000E+00 -0.00000000000E+00  0.11368683772E-12  0.17120000000E+03  0.17120000000E+03 0.  0.
         13    1    1    2    0    0 -0.85917676633E+01  0.74004756978E+01  0.35236825546E+02  0.37016625329E+02  0.10566000000E+00 0.  1.
        994    1    1    2    0    0  0.65643323693E+01 -0.57444026313E+01  0.20506639237E+01  0.17143434266E+03  0.17120000000E+03 0.  0.
        998    1    1    2    0    0  0.20274352940E+01 -0.16560730664E+01  0.14627125068E+04  0.14627490320E+04  0.10000000000E+02 0.  1.
</event>
<event>
 5    1  0.1796476E-008  0.3819506E+03  0.7957747E-01  0.3442709E+00
         13   -1    0    0    0    0  0.00000000000E+00  0.00000000000E+00  0.14999999963E+04  0.15000000000E+04  0.10566000000E+00 0. -1.
        994   -1    0    0    0    0 -0.00000000000E+00 -0.00000000000E+00  0.11368683772E-12  0.17120000000E+03  0.17120000000E+03 0.  0.
         13    1    1    2    0    0 -0.11287384991E+02  0.91044843229E+01  0.33108026082E+02  0.36144837111E+02  0.10566000000E+00 0. -1.
        994    1    1    2    0    0 -0.13278913566E+01 -0.48799745647E+01  0.32366919451E+01  0.17130526443E+03  0.17120000000E+03 0.  0.
        998    1    1    2    0    0  0.12615276347E+02 -0.42245097581E+01  0.14636552783E+04  0.14637498985E+04  0.10000000000E+02 0. -1.
</event>
<event>
 5    1  0.1796476E-008  0.3760947E+03  0.7957747E-01  0.3468342E+00
         13   -1    0    0    0    0  0.00000000000E+00  0.00000000000E+00  0.14999999963E+04  0.15000000000E+04  0.10566000000E+00 0. -1.
        994   -1    0    0    0    0 -0.00000000000E+00 -0.00000000000E+00  0.11368683772E-12  0.17120000000E+03  0.17120000000E+03 0.  0.
         13    1    1    2    0    0 -0.79813958770E+01 -0.12102191841E+02  0.14299967977E+02  0.20363348832E+02  0.10566000000E+00 0. -1.
        994    1    1    2    0    0  0.67539322314E+01  0.14785726301E+02  0.70130519800E+01  0.17211291701E+03  0.17120000000E+03 0.  0.
        998    1    1    2    0    0  0.12274636456E+01 -0.26835344603E+01  0.14786869763E+04  0.14787237342E+04  0.10000000000E+02 0. -1.
</event>
<event>
 5    1  0.1796476E-008  0.3832616E+03  0.7957747E-01  0.3437078E+00
         13   -1    0    0    0    0  0.00000000000E+00  0.00000000000E+00  0.14999999963E+04  0.15000000000E+04  0.10566000000E+00 0. -1.
        994   -1    0    0    0    0 -0.00000000000E+00 -0.00000000000E+00  0.11368683772E-12  0.17120000000E+03  0.17120000000E+03 0.  0.
         13    1    1    2    0    0  0.80783169352E+01  0.15136418591E+02  0.55406592574E+02  0.58002345099E+02  0.10566000000E+00 0. -1.
        994    1    1    2    0    0 -0.10675365362E+02 -0.18942757533E+02  0.40608916813E+01  0.17262306430E+03  0.17120000000E+03 0.  0.
        998    1    1    2    0    0  0.25970484266E+01  0.38063389421E+01  0.14405325120E+04  0.14405745906E+04  0.10000000000E+02 0. -1.
</event>
<event>
 5    1  0.1796476E-008  0.3829126E+03  0.7957747E-01  0.3438573E+00
         13   -1    0    0    0    0  0.00000000000E+00  0.00000000000E+00  0.14999999963E+04  0.15000000000E+04  0.10566000000E+00 0.  1.
        994   -1    0    0    0    0 -0.00000000000E+00 -0.00000000000E+00  0.11368683772E-12  0.17120000000E+03  0.17120000000E+03 0.  0.
         13    1    1    2    0    0  0.23221284810E+02 -0.37768610328E+01  0.11408738986E+03  0.11648792400E+03  0.10566000000E+00 0.  1.
        994    1    1    2    0    0  0.26727957091E+00 -0.28611849241E+01  0.26973754017E+01  0.17124536096E+03  0.17120000000E+03 0.  0.
        998    1    1    2    0    0 -0.23488564381E+02  0.66380459569E+01  0.13832152310E+04  0.13834667150E+04  0.10000000000E+02 0.  1.
</event>
<event>
 5    1  0.1796476E-008  0.3845883E+03  0.7957747E-01  0.3431420E+00
         13   -1    0    0    0    0  0.00000000000E+00  0.00000000000E+00  0.14999999963E+04  0.15000000000E+04  0.10566000000E+00 0.  1.
        994   -1    0    0    0    0 -0.00000000000E+00 -0.00000000000E+00  0.11368683772E-12  0.17120000000E+03  0.17120000000E+03 0.  0.
         13    1    1    2    0    0  0.32570174544E+01 -0.19748892117E+02  0.98569776412E+02  0.10058150371E+03  0.10566000000E+00 0.  1.
        994    1    1    2    0    0 -0.13678936825E+02  0.24770063457E+02  0.44757748889E+01  0.17358036155E+03  0.17120000000E+03 0.  0.
        998    1    1    2    0    0  0.10421919370E+02 -0.50211713397E+01  0.13969544450E+04  0.13970381347E+04  0.10000000000E+02 0.  1.
</event>
<event>
 5    1  0.1796476E-008  0.3818807E+03  0.7957747E-01  0.3443010E+00
         13   -1    0    0    0    0  0.00000000000E+00  0.00000000000E+00  0.14999999963E+04  0.15000000000E+04  0.10566000000E+00 0.  1.
        994   -1    0    0    0    0 -0.00000000000E+00 -0.00000000000E+00  0.11368683772E-12  0.17120000000E+03  0.17120000000E+03 0.  0.
         13    1    1    2    0    0  0.13070410830E+02 -0.40383418291E+01  0.27882085257E+02  0.31057457821E+02  0.10566000000E+00 0.  1.
        994    1    1    2    0    0 -0.12547210191E+02  0.15805981293E+01  0.37182854087E+01  0.17170671629E+03  0.17120000000E+03 0.  0.
        998    1    1    2    0    0 -0.52320063815E+00  0.24577436997E+01  0.14683996256E+04  0.14684358259E+04  0.10000000000E+02 0.  1.
</event>
<event>
 5    1  0.2263096E-008  0.3859251E+03  0.7957747E-01  0.3425758E+00
         13   -1    0    0    0    0  0.00000000000E+00  0.00000000000E+00  0.14999999963E+04  0.15000000000E+04  0.10566000000E+00 0. -1.
        994   -1    0    0    0    0 -0.00000000000E+00 -0.00000000000E+00  0.11368683772E-12  0.17120000000E+03  0.17120000000E+03 0.  0.
         13    1    1    2    0    0  0.61200878898E+01 -0.10844835789E+02  0.70432393010E+02  0.71524814493E+02  0.10566000000E+00 0. -1.
        994    1    1    2    0    0 -0.15422573411E+00  0.17824731132E+01  0.11820558674E+01  0.17121342895E+03  0.17120000000E+03 0.  0.
        998    1    1    2    0    0 -0.59658621557E+01  0.90623626754E+01  0.14283855474E+04  0.14284617566E+04  0.10000000000E+02 0. -1.
</event>
<event>
 5    1  0.1796476E-008  0.3689954E+03  0.7957747E-01  0.3500520E+00
         13   -1    0    0    0    0  0.00000000000E+00  0.00000000000E+00  0.14999999963E+04  0.15000000000E+04  0.10566000000E+00 0.  1.
        994   -1    0    0    0    0 -0.00000000000E+00 -0.00000000000E+00  0.11368683772E-12  0.17120000000E+03  0.17120000000E+03 0.  0.
         13    1    1    2    0    0 -0.71151213876E+02 -0.25256019127E+02  0.26203020412E+03  0.27269066866E+03  0.10566000000E+00 0.  1.
        994    1    1    2    0    0  0.64852039234E+02 -0.21092365008E+01  0.24548812661E+02  0.18472227823E+03  0.17120000000E+03 0.  0.
        998    1    1    2    0    0  0.62991746419E+01  0.27365255628E+02  0.12134209795E+04  0.12137870531E+04  0.10000000000E+02 0.  1.
</event>
<event>
 5    1  0.1796476E-008  0.3828643E+03  0.7957747E-01  0.3438781E+00
         13   -1    0    0    0    0  0.00000000000E+00  0.00000000000E+00  0.14999999963E+04  0.15000000000E+04  0.10566000000E+00 0.  1.
        994   -1    0    0    0    0 -0.00000000000E+00 -0.00000000000E+00  0.11368683772E-12  0.17120000000E+03  0.17120000000E+03 0.  0.
         13    1    1    2    0    0  0.11093298150E+02 -0.23619784402E+01  0.22731854008E+02  0.25404498749E+02  0.10566000000E+00 0.  1.
        994    1    1    2    0    0 -0.94295571407E+01  0.38679926963E+01  0.30382885916E+01  0.17153002394E+03  0.17120000000E+03 0.  0.
        998    1    1    2    0    0 -0.16637410090E+01 -0.15060142561E+01  0.14742298537E+04  0.14742654773E+04  0.10000000000E+02 0.  1.
</event>
<event>
 5    1  0.1796476E-008  0.3849694E+03  0.7957747E-01  0.3429802E+00
         13   -1    0    0    0    0  0.00000000000E+00  0.00000000000E+00  0.14999999963E+04  0.15000000000E+04  0.10566000000E+00 0. -1.
        994   -1    0    0    0    0 -0.00000000000E+00 -0.00000000000E+00  0.11368683772E-12  0.17120000000E+03  0.17120000000E+03 0.  0.
         13    1    1    2    0    0 -0.63504281047E+01  0.20201671337E+02  0.11188768055E+03  0.11387405185E+03  0.10566000000E+00 0. -1.
        994    1    1    2    0    0  0.33560224167E+01 -0.38868838196E+02  0.66674404158E+01  0.17571552075E+03  0.17120000000E+03 0.  0.
        998    1    1    2    0    0  0.29944056879E+01  0.18667166859E+02  0.13814448753E+04  0.13816104274E+04  0.10000000000E+02 0. -1.
</event>
<event>
 5    1  0.1796476E-008  0.3726898E+03  0.7957747E-01  0.3483620E+00
         13   -1    0    0    0    0  0.00000000000E+00  0.00000000000E+00  0.14999999963E+04  0.15000000000E+04  0.10566000000E+00 0.  1.
        994   -1    0    0    0    0 -0.00000000000E+00 -0.00000000000E+00  0.11368683772E-12  0.17120000000E+03  0.17120000000E+03 0.  0.
         13    1    1    2    0    0  0.23803006931E+02 -0.32089429768E+02  0.93710090703E+02  0.10187201238E+03  0.10566000000E+00 0.  1.
        994    1    1    2    0    0 -0.35061984800E+02  0.21436901746E+02  0.13677987009E+02  0.17659391514E+03  0.17120000000E+03 0.  0.
        998    1    1    2    0    0  0.11258977869E+02  0.10652528022E+02  0.13926119186E+04  0.13927340725E+04  0.10000000000E+02 0.  1.
</event>
<event>
 5    1  0.1796476E-008  0.3823493E+03  0.7957747E-01  0.3440992E+00
         13   -1    0    0    0    0  0.00000000000E+00  0.00000000000E+00  0.14999999963E+04  0.15000000000E+04  0.10566000000E+00 0.  1.
        994   -1    0    0    0    0 -0.00000000000E+00 -0.00000000000E+00  0.11368683772E-12  0.17120000000E+03  0.17120000000E+03 0.  0.
         13    1    1    2    0    0 -0.21714287143E+02  0.63789932783E+00  0.78184707351E+02  0.81146637696E+02  0.10566000000E+00 0.  1.
        994    1    1    2    0    0  0.15846710398E+02  0.46424250806E+01  0.38569052957E+01  0.17203774603E+03  0.17120000000E+03 0.  0.
        998    1    1    2    0    0  0.58675767449E+01 -0.52803244085E+01  0.14179583836E+04  0.14180156163E+04  0.10000000000E+02 0.  1.
</event>
<event>
 5    1  0.1796476E-008  0.3686675E+03  0.7957747E-01  0.3502037E+00
         13   -1    0    0    0    0  0.00000000000E+00  0.00000000000E+00  0.14999999963E+04  0.15000000000E+04  0.10566000000E+00 0. -1.
        994   -1    0    0    0    0 -0.00000000000E+00 -0.00000000000E+00  0.11368683772E-12  0.17120000000E+03  0.17120000000E+03 0.  0.
         13    1    1    2    0    0 -0.35041339602E+02 -0.10382060208E+02  0.60314216213E+02  0.70523035220E+02  0.10566000000E+00 0. -1.
        994    1    1    2    0    0  0.38520592675E+02  0.10700177995E+02  0.15539717879E+02  0.17649150886E+03  0.17120000000E+03 0.  0.
        998    1    1    2    0    0 -0.34792530736E+01 -0.31811778690E+00  0.14241460622E+04  0.14241854559E+04  0.10000000000E+02 0. -1.
</event>
<event>
 5    1  0.1796476E-008  0.3835411E+03  0.7957747E-01  0.3435883E+00
         13   -1    0    0    0    0  0.00000000000E+00  0.00000000000E+00  0.14999999963E+04  0.15000000000E+04  0.10566000000E+00 0. -1.
        994   -1    0    0    0    0 -0.00000000000E+00 -0.00000000000E+00  0.11368683772E-12  0.17120000000E+03  0.17120000000E+03 0.  0.
         13    1    1    2    0    0 -0.49231888676E+01 -0.10666533171E+02  0.29053546397E+02  0.31338992339E+02  0.10566000000E+00 0. -1.
        994    1    1    2    0    0  0.31368942993E+01  0.22052031074E+01  0.24047707231E+01  0.17125982001E+03  0.17120000000E+03 0.  0.
        998    1    1    2    0    0  0.17862945683E+01  0.84613300632E+01  0.14685416792E+04  0.14686011877E+04  0.10000000000E+02 0. -1.
</event>
<event>
 5    1  0.1796476E-008  0.3813640E+03  0.7957747E-01  0.3445241E+00
         13   -1    0    0    0    0  0.00000000000E+00  0.00000000000E+00  0.14999999963E+04  0.15000000000E+04  0.10566000000E+00 0.  1.
        994   -1    0    0    0    0 -0.00000000000E+00 -0.00000000000E+00  0.11368683772E-12  0.17120000000E+03  0.17120000000E+03 0.  0.
         13    1    1    2    0    0  0.42307772094E+01 -0.98608785829E+01  0.15010627799E+02  0.18451734693E+02  0.10566000000E+00 0.  1.
        994    1    1    2    0    0 -0.85343928519E+01  0.11583465161E+02  0.41354149354E+01  0.17185329262E+03  0.17120000000E+03 0.  0.
        998    1    1    2    0    0  0.43036156425E+01 -0.17225865784E+01  0.14808539535E+04  0.14808949727E+04  0.10000000000E+02 0.  1.
</event>
<event>
 5    1  0.1796476E-008  0.3830268E+03  0.7957747E-01  0.3438084E+00
         13   -1    0    0    0    0  0.00000000000E+00  0.00000000000E+00  0.14999999963E+04  0.15000000000E+04  0.10566000000E+00 0.  1.
        994   -1    0    0    0    0 -0.00000000000E+00 -0.00000000000E+00  0.11368683772E-12  0.17120000000E+03  0.17120000000E+03 0.  0.
         13    1    1    2    0    0  0.20006726321E+02  0.11832143115E+02  0.11523181241E+03  0.11755275609E+03  0.10566000000E+00 0.  1.
        994    1    1    2    0    0 -0.34452004917E+01  0.10238294339E+02  0.29992886893E+01  0.17156668619E+03  0.17120000000E+03 0.  0.
        998    1    1    2    0    0 -0.16561525829E+02 -0.22070437454E+02  0.13817688952E+04  0.13820805577E+04  0.10000000000E+02 0.  1.
</event>
<event>
 5    1  0.1796476E-008  0.3861313E+03  0.7957747E-01  0.3424888E+00
         13   -1    0    0    0    0  0.00000000000E+00  0.00000000000E+00  0.14999999963E+04  0.15000000000E+04  0.10566000000E+00 0.  1.
        994   -1    0    0    0    0 -0.00000000000E+00 -0.00000000000E+00  0.11368683772E-12  0.17120000000E+03  0.17120000000E+03 0.  0.
         13    1    1    2    0    0  0.68392129439E+01  0.10248563495E+02  0.67899356644E+02  0.69008272578E+02  0.10566000000E+00 0.  1.
        994    1    1    2    0    0 -0.57589005608E+01 -0.14899743096E+02  0.19060235202E+01  0.17195418054E+03  0.17120000000E+03 0.  0.
        998    1    1    2    0    0 -0.10803123831E+01  0.46511796015E+01  0.14301946161E+04  0.14302375469E+04  0.10000000000E+02 0.  1.
</event>
<event>
 5    1  0.1796476E-008  0.3779725E+03  0.7957747E-01  0.3460035E+00
         13   -1    0    0    0    0  0.00000000000E+00  0.00000000000E+00  0.14999999963E+04  0.15000000000E+04  0.10566000000E+00 0.  1.
        994   -1    0    0    0    0 -0.00000000000E+00 -0.00000000000E+00  0.11368683772E-12  0.17120000000E+03  0.17120000000E+03 0.  0.
         13    1    1    2    0    0  0.12912317038E+02  0.22708214767E+01  0.14245370684E+02  0.19360431592E+02  0.10566000000E+00 0.  1.
        994    1    1    2    0    0 -0.12285086807E+02 -0.10125926303E+02  0.60136048940E+01  0.17204377694E+03  0.17120000000E+03 0.  0.
        998    1    1    2    0    0 -0.62723023109E+00  0.78551048261E+01  0.14797410207E+04  0.14797957915E+04  0.10000000000E+02 0.  1.
</event>
<event>
 5    1  0.1796476E-008  0.3829023E+03  0.7957747E-01  0.3438618E+00
         13   -1    0    0    0    0  0.00000000000E+00  0.00000000000E+00  0.14999999963E+04  0.15000000000E+04  0.10566000000E+00 0. -1.
        994   -1    0    0    0    0 -0.00000000000E+00 -0.00000000000E+00  0.11368683772E-12  0.17120000000E+03  0.17120000000E+03 0.  0.
         13    1    1    2    0    0 -0.35836517319E+02 -0.15758412612E+02  0.22979072671E+03  0.23310163617E+03  0.10566000000E+00 0. -1.
        994    1    1    2    0    0  0.43963770775E+02  0.13845417569E+02  0.97418840254E+01  0.17756365910E+03  0.17120000000E+03 0.  0.
        998    1    1    2    0    0 -0.81272534555E+01  0.19129950430E+01  0.12604673855E+04  0.12605347047E+04  0.10000000000E+02 0. -1.
</event>
<event>
 5    1  0.1876583E-008  0.3849751E+03  0.7957747E-01  0.3429778E+00
         13   -1    0    0    0    0  0.00000000000E+00  0.00000000000E+00  0.14999999963E+04  0.15000000000E+04  0.10566000000E+00 0. -1.
        994   -1    0    0    0    0 -0.00000000000E+00 -0.00000000000E+00  0.11368683772E-12  0.17120000000E+03  0.17120000000E+03 0.  0.
         13    1    1    2    0    0  0.11108563012E+02  0.14993291752E+01  0.37383092684E+02  0.39027617694E+02  0.10566000000E+00 0. -1.
        994    1    1    2    0    0 -0.11191759718E+02 -0.26799509365E+01  0.20781750196E+01  0.17159894066E+03  0.17120000000E+03 0.  0.
        998    1    1    2    0    0  0.83196705835E-01  0.11806217613E+01  0.14605387286E+04  0.14605734417E+04  0.10000000000E+02 0. -1.
</event>
<event>
 5    1  0.1796476E-008  0.3754561E+03  0.7957747E-01  0.3471185E+00
         13   -1    0    0    0    0  0.00000000000E+00  0.00000000000E+00  0.14999999963E+04  0.15000000000E+04  0.10566000000E+00 0.  1.
        994   -1    0    0    0    0 -0.00000000000E+00 -0.00000000000E+00  0.11368683772E-12  0.17120000000E+03  0.17120000000E+03 0.  0.
         13    1    1    2    0    0  0.18326518227E+02  0.77308406520E+01  0.79788864022E+01  0.21431307934E+02  0.10566000000E+00 0.  1.
        994    1    1    2    0    0 -0.20605164448E+02 -0.10714475585E+02  0.15778126789E+02  0.17348706601E+03  0.17120000000E+03 0.  0.
        998    1    1    2    0    0  0.22786462205E+01  0.29836349328E+01  0.14762429831E+04  0.14762816261E+04  0.10000000000E+02 0.  1.
</event>
<event>
 5    1  0.1796476E-008  0.3764407E+03  0.7957747E-01  0.3466804E+00
         13   -1    0    0    0    0  0.00000000000E+00  0.00000000000E+00  0.14999999963E+04  0.15000000000E+04  0.10566000000E+00 0. -1.
        994   -1    0    0    0    0 -0.00000000000E+00 -0.00000000000E+00  0.11368683772E-12  0.17120000000E+03  0.17120000000E+03 0.  0.
         13    1    1    2    0    0 -0.74804763365E+01 -0.11633784807E+02  0.13663580659E+02  0.19442404060E+02  0.10566000000E+00 0. -1.
        994    1    1    2    0    0  0.36996816776E+01  0.26222161948E+01  0.60103319416E+01  0.17136548005E+03  0.17120000000E+03 0.  0.
        998    1    1    2    0    0  0.37807946589E+01  0.90115686120E+01  0.14803260837E+04  0.14803921159E+04  0.10000000000E+02 0. -1.
</event>
<event>
 5    1  0.1796476E-008  0.3610274E+03  0.7957747E-01  0.3538172E+00
         13   -1    0    0    0    0  0.00000000000E+00  0.00000000000E+00  0.14999999963E+04  0.15000000000E+04  0.10566000000E+00 0.  1.
        994   -1    0    0    0    0 -0.00000000000E+00 -0.00000000000E+00  0.11368683772E-12  0.17120000000E+03  0.17120000000E+03 0.  0.
         13    1    1    2    0    0 -0.19318771335E+03 -0.16411068147E+03  0.10365309784E+04  0.10670755778E+04  0.10566000000E+00 0.  1.
        994    1    1    2    0    0  0.19161494803E+03  0.14014503643E+03  0.23822359533E+03  0.37738155880E+03  0.17120000000E+03 0.  0.
        998    1    1    2    0    0  0.15727653121E+01  0.23965645035E+02  0.22524542255E+03  0.22674286342E+03  0.10000000000E+02 0. -1.
</event>
<event>
 5    1  0.1796476E-008  0.3848325E+03  0.7957747E-01  0.3430383E+00
         13   -1    0    0    0    0  0.00000000000E+00  0.00000000000E+00  0.14999999963E+04  0.15000000000E+04  0.10566000000E+00 0.  1.
        994   -1    0    0    0    0 -0.00000000000E+00 -0.00000000000E+00  0.11368683772E-12  0.17120000000E+03  0.17120000000E+03 0.  0.
         13    1    1    2    0    0  0.14272054130E+02  0.11330130647E+02  0.10420169334E+03  0.10578311514E+03  0.10566000000E+00 0.  1.
        994    1    1    2    0    0 -0.27954343609E+01 -0.39337354015E+00  0.17395295246E+01  0.17123210902E+03  0.17120000000E+03 0.  0.
        998    1    1    2    0    0 -0.11476619769E+02 -0.10936757107E+02  0.13940587734E+04  0.13941847758E+04  0.10000000000E+02 0.  1.
</event>
<event>
 5    1  0.1796476E-008  0.3847111E+03  0.7957747E-01  0.3430898E+00
         13   -1    0    0    0    0  0.00000000000E+00  0.00000000000E+00  0.14999999963E+04  0.15000000000E+04  0.10566000000E+00 0. -1.
        994   -1    0    0    0    0 -0.00000000000E+00 -0.00000000000E+00  0.11368683772E-12  0.17120000000E+03  0.17120000000E+03 0.  0.
         13    1    1    2    0    0  0.20560348760E+03 -0.31646220206E+02  0.11543893836E+04  0.11729830082E+04  0.10566000000E+00 0. -1.
        994    1    1    2    0    0 -0.21196594736E+03  0.46159161971E+02  0.17613580380E+03  0.32770946348E+03  0.17120000000E+03 0.  0.
        998    1    1    2    0    0  0.63624597642E+01 -0.14512941765E+02  0.16947480887E+03  0.17050752832E+03  0.10000000000E+02 0.  1.
</event>
<event>
 5    1  0.1796476E-008  0.3833760E+03  0.7957747E-01  0.3436589E+00
         13   -1    0    0    0    0  0.00000000000E+00  0.00000000000E+00  0.14999999963E+04  0.15000000000E+04  0.10566000000E+00 0. -1.
        994   -1    0    0    0    0 -0.00000000000E+00 -0.00000000000E+00  0.11368683772E-12  0.17120000000E+03  0.17120000000E+03 0.  0.
         13    1    1    2    0    0 -0.18642176999E+02  0.14256904370E+02  0.13037166437E+03  0.13246724924E+03  0.10566000000E+00 0. -1.
        994    1    1    2    0    0  0.12814734873E+02  0.23280003491E+02  0.47767108308E+01  0.17331599164E+03  0.17120000000E+03 0.  0.
        998    1    1    2    0    0  0.58274421253E+01 -0.37536907861E+02  0.13648516211E+04  0.13654167591E+04  0.10000000000E+02 0. -1.
</event>
<event>
 5    1  0.1796476E-008  0.3863158E+03  0.7957747E-01  0.3424111E+00
         13   -1    0    0    0    0  0.00000000000E+00  0.00000000000E+00  0.14999999963E+04  0.15000000000E+04  0.10566000000E+00 0.  1.
        994   -1    0    0    0    0 -0.00000000000E+00 -0.00000000000E+00  0.11368683772E-12  0.17120000000E+03  0.17120000000E+03 0.  0.
         13    1    1    2    0    0  0.27303023646E+01 -0.10341631867E+02  0.59574933576E+02  0.60527578634E+02  0.10566000000E+00 0.  1.
        994    1    1    2    0    0 -0.10142605819E+02  0.47189782444E+01  0.13881688848E+01  0.17157070910E+03  0.17120000000E+03 0.  0.
        998    1    1    2    0    0  0.74123034545E+01  0.56226536222E+01  0.14390368938E+04  0.14391017123E+04  0.10000000000E+02 0.  1.
</event>
<event>
 5    1  0.1796476E-008  0.3815002E+03  0.7957747E-01  0.3444652E+00
         13   -1    0    0    0    0  0.00000000000E+00  0.00000000000E+00  0.14999999963E+04  0.15000000000E+04  0.10566000000E+00 0.  1.
        994   -1    0    0    0    0 -0.00000000000E+00 -0.00000000000E+00  0.11368683772E-12  0.17120000000E+03  0.17120000000E+03 0.  0.
         13    1    1    2    0    0 -0.24112058158E+02 -0.15354828420E+01  0.82392482830E+02  0.85861990701E+02  0.10566000000E+00 0.  1.
        994    1    1    2    0    0  0.21693076865E+02  0.26827730152E+01  0.49687075751E+01  0.17266127218E+03  0.17120000000E+03 0.  0.
        998    1    1    2    0    0  0.24189812931E+01 -0.11472901732E+01  0.14126388059E+04  0.14126767371E+04  0.10000000000E+02 0.  1.
</event>
<event>
 5    1  0.1796476E-008  0.3820400E+03  0.7957747E-01  0.3442324E+00
         13   -1    0    0    0    0  0.00000000000E+00  0.00000000000E+00  0.14999999963E+04  0.15000000000E+04  0.10566000000E+00 0.  1.
        994   -1    0    0    0    0 -0.00000000000E+00 -0.00000000000E+00  0.11368683772E-12  0.17120000000E+03  0.17120000000E+03 0.  0.
         13    1    1    2    0    0 -0.21910509950E+02 -0.82717040067E+01  0.87785924386E+02  0.90856321837E+02  0.10566000000E+00 0.  1.
        994    1    1    2    0    0  0.16586000608E+02 -0.53882309374E+01  0.41174063472E+01  0.17213518375E+03  0.17120000000E+03 0.  0.
        998    1    1    2    0    0  0.53245093419E+01  0.13659934944E+02  0.14080966655E+04  0.14082084944E+04  0.10000000000E+02 0.  1.
</event>
<event>
 5    1  0.1796476E-008  0.3730928E+03  0.7957747E-01  0.3481797E+00
         13   -1    0    0    0    0  0.00000000000E+00  0.00000000000E+00  0.14999999963E+04  0.15000000000E+04  0.10566000000E+00 0.  1.
        994   -1    0    0    0    0 -0.00000000000E+00 -0.00000000000E+00  0.11368683772E-12  0.17120000000E+03  0.17120000000E+03 0.  0.
         13    1    1    2    0    0 -0.39978479839E+02 -0.59671697634E+01  0.60072340862E+02  0.72405685315E+02  0.10566000000E+00 0.  1.
        994    1    1    2    0    0  0.28372611283E+02  0.34027046302E+01  0.15475021230E+02  0.17425699341E+03  0.17120000000E+03 0.  0.
        998    1    1    2    0    0  0.11605868556E+02  0.25644651332E+01  0.14244526342E+04  0.14245373213E+04  0.10000000000E+02 0.  1.
</event>
<event>
 5    1  0.1796476E-008  0.3852871E+03  0.7957747E-01  0.3428455E+00
         13   -1    0    0    0    0  0.00000000000E+00  0.00000000000E+00  0.14999999963E+04  0.15000000000E+04  0.10566000000E+00 0.  1.
        994   -1    0    0    0    0 -0.00000000000E+00 -0.00000000000E+00  0.11368683772E-12  0.17120000000E+03  0.17120000000E+03 0.  0.
         13    1    1    2    0    0 -0.82997412644E+01  0.86581911284E+01  0.53044147369E+02  0.54383294428E+02  0.10566000000E+00 0.  1.
        994    1    1    2    0    0 -0.66799058916E+01  0.31436177677E+01  0.16667552467E+01  0.17136721258E+03  0.17120000000E+03 0.  0.
        998    1    1    2    0    0  0.14979647156E+02 -0.11801808896E+02  0.14452890937E+04  0.14454494930E+04  0.10000000000E+02 0.  1.
</event>
<event>
 5    1  0.1796476E-008  0.3829809E+03  0.7957747E-01  0.3438281E+00
         13   -1    0    0    0    0  0.00000000000E+00  0.00000000000E+00  0.14999999963E+04  0.15000000000E+04  0.10566000000E+00 0.  1.
        994   -1    0    0    0    0 -0.00000000000E+00 -0.00000000000E+00  0.11368683772E-12  0.17120000000E+03  0.17120000000E+03 0.  0.
         13    1    1    2    0    0 -0.81963616727E+01  0.17285332553E+02  0.65198856136E+02  0.67947517038E+02  0.10566000000E+00 0.  1.
        994    1    1    2    0    0  0.10368545228E+02 -0.19991778229E+02  0.43166572728E+01  0.17272883794E+03  0.17120000000E+03 0.  0.
        998    1    1    2    0    0 -0.21721835557E+01  0.27064456760E+01  0.14304844829E+04  0.14305236450E+04  0.10000000000E+02 0.  1.
</event>
<event>
 5    1  0.1796476E-008  0.3818373E+03  0.7957747E-01  0.3443197E+00
         13   -1    0    0    0    0  0.00000000000E+00  0.00000000000E+00  0.14999999963E+04  0.15000000000E+04  0.10566000000E+00 0.  1.
        994   -1    0    0    0    0 -0.00000000000E+00 -0.00000000000E+00  0.11368683772E-12  0.17120000000E+03  0.17120000000E+03 0.  0.
         13    1    1    2    0    0  0.18115151101E+01 -0.11505694878E+02  0.19918259501E+02  0.23074029279E+02  0.10566000000E+00 0.  1.
        994    1    1    2    0    0 -0.12892166570E+01  0.71102561312E+01  0.33820697477E+01  0.17138581102E+03  0.17120000000E+03 0.  0.
        998    1    1    2    0    0 -0.52229845310E+00  0.43954387464E+01  0.14766996670E+04  0.14767401597E+04  0.10000000000E+02 0.  1.
</event>
<event>
 5    1  0.1796476E-008  0.3830616E+03  0.7957747E-01  0.3437935E+00
         13   -1    0    0    0    0  0.00000000000E+00  0.00000000000E+00  0.14999999963E+04  0.15000000000E+04  0.10566000000E+00 0. -1.
        994   -1    0    0    0    0 -0.00000000000E+00 -0.00000000000E+00  0.11368683772E-12  0.17120000000E+03  0.17120000000E+03 0.  0.
         13    1    1    2    0    0 -0.94402158754E+02  0.25890090549E+02  0.32657516518E+03  0.34093021873E+03  0.10566000000E+00 0. -1.
        994    1    1    2    0    0  0.23009436327E+02  0.16093374818E+02  0.20913802362E+02  0.17474340618E+03  0.17120000000E+03 0.  0.
        998    1    1    2    0    0  0.71392722427E+02 -0.41983465367E+02  0.11525110287E+04  0.11555263751E+04  0.10000000000E+02 0. -1.
</event>
<event>
 5    1  0.1796476E-008  0.3810310E+03  0.7957747E-01  0.3446682E+00
         13   -1    0    0    0    0  0.00000000000E+00  0.00000000000E+00  0.14999999963E+04  0.15000000000E+04  0.10566000000E+00 0.  1.
        994   -1    0    0    0    0 -0.00000000000E+00 -0.00000000000E+00  0.11368683772E-12  0.17120000000E+03  0.17120000000E+03 0.  0.
         13    1    1    2    0    0 -0.24120498780E+02 -0.69064533877E+01  0.83227897830E+02  0.86927508310E+02  0.10566000000E+00 0.  1.
        994    1    1    2    0    0  0.18032052978E+02  0.16752081831E+02  0.56344592023E+01  0.17305194108E+03  0.17120000000E+03 0.  0.
        998    1    1    2    0    0  0.60884458020E+01 -0.98456284429E+01  0.14111376392E+04  0.14112205506E+04  0.10000000000E+02 0.  1.
</event>
<event>
 5    1  0.1796476E-008  0.2646055E+03  0.7957747E-01  0.4186352E+00
         13   -1    0    0    0    0  0.00000000000E+00  0.00000000000E+00  0.14999999963E+04  0.15000000000E+04  0.10566000000E+00 0.  1.
        994   -1    0    0    0    0 -0.00000000000E+00 -0.00000000000E+00  0.11368683772E-12  0.17120000000E+03  0.17120000000E+03 0.  0.
         13    1    1    2    0    0 -0.10079467107E+03 -0.10932068987E+03  0.55058905914E+03  0.57031473956E+03  0.10566000000E+00 0.  1.
        994    1    1    2    0    0  0.16591431799E+03 -0.31149041933E+02  0.14312503652E+03  0.27980714753E+03  0.17120000000E+03 0.  0.
        998    1    1    2    0    0 -0.65119646925E+02  0.14046973181E+03  0.80628590062E+03  0.82107811291E+03  0.10000000000E+02 0. -1.
</event>
<event>
 5    1  0.1796476E-008  0.3825226E+03  0.7957747E-01  0.3440247E+00
         13   -1    0    0    0    0  0.00000000000E+00  0.00000000000E+00  0.14999999963E+04  0.15000000000E+04  0.10566000000E+00 0. -1.
        994   -1    0    0    0    0 -0.00000000000E+00 -0.00000000000E+00  0.11368683772E-12  0.17120000000E+03  0.17120000000E+03 0.  0.
         13    1    1    2    0    0 -0.19209309100E+02  0.82929612368E+00  0.66185985080E+02  0.68922282850E+02  0.10566000000E+00 0. -1.
        994    1    1    2    0    0  0.41831685448E+01 -0.63297266758E+01  0.30559962855E+01  0.17139528422E+03  0.17120000000E+03 0.  0.
        998    1    1    2    0    0  0.15026140555E+02  0.55004305521E+01  0.14307580149E+04  0.14308824329E+04  0.10000000000E+02 0. -1.
</event>
<event>
 5    1  0.1796476E-008  0.3789898E+03  0.7957747E-01  0.3455569E+00
         13   -1    0    0    0    0  0.00000000000E+00  0.00000000000E+00  0.14999999963E+04  0.15000000000E+04  0.10566000000E+00 0.  1.
        994   -1    0    0    0    0 -0.00000000000E+00 -0.00000000000E+00  0.11368683772E-12  0.17120000000E+03  0.17120000000E+03 0.  0.
         13    1    1    2    0    0 -0.36093012542E+02  0.72783529458E+01  0.12750871869E+03  0.13271836527E+03  0.10566000000E+00 0.  1.
        994    1    1    2    0    0  0.43930579038E+02 -0.80112259921E+01  0.11361552890E+02  0.17729241496E+03  0.17120000000E+03 0.  0.
        998    1    1    2    0    0 -0.78375664958E+01  0.73287304626E+00  0.13611297247E+04  0.13611892198E+04  0.10000000000E+02 0.  1.
</event>
<event>
 5    1  0.1796476E-008  0.3744300E+03  0.7957747E-01  0.3475776E+00
         13   -1    0    0    0    0  0.00000000000E+00  0.00000000000E+00  0.14999999963E+04  0.15000000000E+04  0.10566000000E+00 0.  1.
        994   -1    0    0    0    0 -0.00000000000E+00 -0.00000000000E+00  0.11368683772E-12  0.17120000000E+03  0.17120000000E+03 0.  0.
         13    1    1    2    0    0  0.13503263698E+02 -0.53606104395E+02  0.31901503756E+03  0.32376929736E+03  0.10566000000E+00 0.  1.
        994    1    1    2    0    0  0.55442802400E+01 -0.14242179396E+02  0.77676327483E+01  0.17205625486E+03  0.17120000000E+03 0.  0.
        998    1    1    2    0    0 -0.19047543938E+02  0.67848283791E+02  0.11732173260E+04  0.11753744478E+04  0.10000000000E+02 0. -1.
</event>
<event>
 5    1  0.1796476E-008  0.3840346E+03  0.7957747E-01  0.3433777E+00
         13   -1    0    0    0    0  0.00000000000E+00  0.00000000000E+00  0.14999999963E+04  0.15000000000E+04  0.10566000000E+00 0.  1.
        994   -1    0    0    0    0 -0.00000000000E+00 -0.00000000000E+00  0.11368683772E-12  0.17120000000E+03  0.17120000000E+03 0.  0.
         13    1    1    2    0    0  0.87017905379E+01 -0.10220024193E+02  0.43307412647E+02  0.45339973613E+02  0.10566000000E+00 0.  1.
        994    1    1    2    0    0 -0.19227357098E+00  0.43621083501E+01  0.21730771416E+01  0.17126945794E+03  0.17120000000E+03 0.  0.
        998    1    1    2    0    0 -0.85095169669E+01  0.58579158424E+01  0.14545195065E+04  0.14545905684E+04  0.10000000000E+02 0.  1.
</event>
<event>
 5    1  0.1796476E-008  0.3698407E+03  0.7957747E-01  0.3496623E+00
         13   -1    0    0    0    0  0.00000000000E+00  0.00000000000E+00  0.14999999963E+04  0.15000000000E+04  0.10566000000E+00 0. -1.
        994   -1    0    0    0    0 -0.00000000000E+00 -0.00000000000E+00  0.11368683772E-12  0.17120000000E+03  0.17120000000E+03 0.  0.
         13    1    1    2    0    0 -0.34245654845E+02  0.19415216138E+02  0.65835949723E+02  0.76707880517E+02  0.10566000000E+00 0. -1.
        994    1    1    2    0    0  0.30387060796E+02 -0.14730466336E+02  0.14849537109E+02  0.17512940602E+03  0.17120000000E+03 0.  0.
        998    1    1    2    0    0  0.38585940491E+01 -0.46847498017E+01  0.14193145094E+04  0.14193627135E+04  0.10000000000E+02 0. -1.
</event>
<event>
 5    1  0.1796476E-008  0.3725289E+03  0.7957747E-01  0.3484349E+00
         13   -1    0    0    0    0  0.00000000000E+00  0.00000000000E+00  0.14999999963E+04  0.15000000000E+04  0.10566000000E+00 0. -1.
        994   -1    0    0    0    0 -0.00000000000E+00 -0.00000000000E+00  0.11368683772E-12  0.17120000000E+03  0.17120000000E+03 0.  0.
         13    1    1    2    0    0 -0.31526720424E+02 -0.61116418517E+00  0.61714989590E+02  0.69304103244E+02  0.10566000000E+00 0. -1.
        994    1    1    2    0    0  0.90146568650E+01  0.97173434895E+01  0.85556563946E+01  0.17192536188E+03  0.17120000000E+03 0.  0.
        998    1    1    2    0    0  0.22512063559E+02 -0.91061793043E+01  0.14297293503E+04  0.14299705349E+04  0.10000000000E+02 0. -1.
</event>
<event>
 5    1  0.1796476E-008  0.3856932E+03  0.7957747E-01  0.3426738E+00
         13   -1    0    0    0    0  0.00000000000E+00  0.00000000000E+00  0.14999999963E+04  0.15000000000E+04  0.10566000000E+00 0. -1.
        994   -1    0    0    0    0 -0.00000000000E+00 -0.00000000000E+00  0.11368683772E-12  0.17120000000E+03  0.17120000000E+03 0.  0.
         13    1    1    2    0    0 -0.95442364493E+00 -0.12456375382E+02  0.60282270381E+02  0.61563264196E+02  0.10566000000E+00 0. -1.
        994    1    1    2    0    0  0.37572030213E+01  0.10080327618E+02  0.16662074049E+01  0.17154575432E+03  0.17120000000E+03 0.  0.
        998    1    1    2    0    0 -0.28027793764E+01  0.23760477640E+01  0.14380515185E+04  0.14380909815E+04  0.10000000000E+02 0. -1.
</event>
<event>
 5    1  0.1796476E-008  0.3796093E+03  0.7957747E-01  0.3452862E+00
         13   -1    0    0    0    0  0.00000000000E+00  0.00000000000E+00  0.14999999963E+04  0.15000000000E+04  0.10566000000E+00 0.  1.
        994   -1    0    0    0    0 -0.00000000000E+00 -0.00000000000E+00  0.11368683772E-12  0.17120000000E+03  0.17120000000E+03 0.  0.
         13    1    1    2    0    0  0.32645793747E+02 -0.51196510739E+01  0.13535906063E+03  0.13933429275E+03  0.10566000000E+00 0.  1.
        994    1    1    2    0    0 -0.95502135710E+01 -0.20812187390E+02  0.60876152263E+01  0.17283186275E+03  0.17120000000E+03 0.  0.
        998    1    1    2    0    0 -0.23095580176E+02  0.25931838464E+02  0.13585533204E+04  0.13590338445E+04  0.10000000000E+02 0.  1.
</event>
<event>
 5    1  0.1796476E-008  0.3822983E+03  0.7957747E-01  0.3441212E+00
         13   -1    0    0    0    0  0.00000000000E+00  0.00000000000E+00  0.14999999963E+04  0.15000000000E+04  0.10566000000E+00 0. -1.
        994   -1    0    0    0    0 -0.00000000000E+00 -0.00000000000E+00  0.11368683772E-12  0.17120000000E+03  0.17120000000E+03 0.  0.
         13    1    1    2    0    0  0.51675705981E+02  0.28663535769E+02  0.32418342053E+03  0.32952523148E+03  0.10566000000E+00 0. -1.
        994    1    1    2    0    0 -0.71048757086E+02 -0.62166116118E+02  0.33132864605E+02  0.19829215464E+03  0.17120000000E+03 0.  0.
        998    1    1    2    0    0  0.19373051105E+02  0.33502580349E+02  0.11426837111E+04  0.11433826139E+04  0.10000000000E+02 0. -1.
</event>
<event>
 5    1  0.1796476E-008  0.3857506E+03  0.7957747E-01  0.3426495E+00
         13   -1    0    0    0    0  0.00000000000E+00  0.00000000000E+00  0.14999999963E+04  0.15000000000E+04  0.10566000000E+00 0.  1.
        994   -1    0    0    0    0 -0.00000000000E+00 -0.00000000000E+00  0.11368683772E-12  0.17120000000E+03  0.17120000000E+03 0.  0.
         13    1    1    2    0    0 -0.11878043071E+02  0.53130656643E-01  0.51199768941E+02  0.52559663561E+02  0.10566000000E+00 0.  1.
        994    1    1    2    0    0  0.24667004469E+02  0.25694774541E+02  0.54311454053E+01  0.17495033549E+03  0.17120000000E+03 0.  0.
        998    1    1    2    0    0 -0.12788961398E+02 -0.25747905198E+02  0.14433690819E+04  0.14436900009E+04  0.10000000000E+02 0.  1.
</event>
<event>
 5    1  0.1796476E-008  0.3818840E+03  0.7957747E-01  0.3442996E+00
         13   -1    0    0    0    0  0.00000000000E+00  0.00000000000E+00  0.14999999963E+04  0.15000000000E+04  0.10566000000E+00 0. -1.
        994   -1    0    0    0    0 -0.00000000000E+00 -0.00000000000E+00  0.11368683772E-12  0.17120000000E+03  0.17120000000E+03 0.  0.
         13    1    1    2    0    0 -0.41164505059E+02  0.44862623181E+01  0.23806574166E+03  0.24164012818E+03  0.10566000000E+00 0. -1.
        994    1    1    2    0    0  0.36809040361E+02 -0.59380658758E+02  0.19574038239E+02  0.18593964359E+03  0.17120000000E+03 0.  0.
        998    1    1    2    0    0  0.43554646978E+01  0.54894396440E+02  0.12423602164E+04  0.12436202282E+04  0.10000000000E+02 0.  1.
</event>
<event>
 5    1  0.1796476E-008  0.3762623E+03  0.7957747E-01  0.3467596E+00
         13   -1    0    0    0    0  0.00000000000E+00  0.00000000000E+00  0.14999999963E+04  0.15000000000E+04  0.10566000000E+00 0. -1.
        994   -1    0    0    0    0 -0.00000000000E+00 -0.00000000000E+00  0.11368683772E-12  0.17120000000E+03  0.17120000000E+03 0.  0.
         13    1    1    2    0    0 -0.29172068130E+01  0.14094044528E+03  0.55471990840E+03  0.57235208321E+03  0.10566000000E+00 0. -1.
        994    1    1    2    0    0 -0.83300970553E+01 -0.18569554024E+03  0.13370382987E+03  0.28589924502E+03  0.17120000000E+03 0.  0.
        998    1    1    2    0    0  0.11247303868E+02  0.44755094955E+02  0.81157625801E+03  0.81294867178E+03  0.10000000000E+02 0. -1.
</event>
<event>
 5    1  0.1796476E-008  0.3839034E+03  0.7957747E-01  0.3434336E+00
         13   -1    0    0    0    0  0.00000000000E+00  0.00000000000E+00  0.14999999963E+04  0.15000000000E+04  0.10566000000E+00 0. -1.
        994   -1    0    0    0    0 -0.00000000000E+00 -0.00000000000E+00  0.11368683772E-12  0.17120000000E+03  0.17120000000E+03 0.  0.
         13    1    1    2    0    0 -0.30169873486E+02  0.25562824431E+01  0.18121097206E+03  0.18372311614E+03  0.10566000000E+00 0. -1.
        994    1    1    2    0    0  0.33694256752E+02 -0.65200680806E+01  0.60725049108E+01  0.17471156098E+03  0.17120000000E+03 0.  0.
        998    1    1    2    0    0 -0.35243832663E+01  0.39637856375E+01  0.13127165193E+04  0.13127653229E+04  0.10000000000E+02 0. -1.
</event>
<event>
 5    1  0.1796476E-008  0.3730594E+03  0.7957747E-01  0.3481948E+00
         13   -1    0    0    0    0  0.00000000000E+00  0.00000000000E+00  0.14999999963E+04  0.15000000000E+04  0.10566000000E+00 0.  1.
        994   -1    0    0    0    0 -0.00000000000E+00 -0.00000000000E+00  0.11368683772E-12  0.17120000000E+03  0.17120000000E+03 0.  0.
         13    1    1    2    0    0  0.18333380125E+02 -0.38385430945E+02  0.10931712238E+03  0.11730216769E+03  0.10566000000E+00 0.  1.
        994    1    1    2    0    0 -0.18082122266E+02  0.34008301280E+02  0.12771715457E+02  0.17594341254E+03  0.17120000000E+03 0.  0.
        998    1    1    2    0    0 -0.25125785885E+00  0.43771296653E+01  0.13779111584E+04  0.13779544198E+04  0.10000000000E+02 0.  1.
</event>
<event>
 5    1  0.1796476E-008  0.3833778E+03  0.7957747E-01  0.3436581E+00
         13   -1    0    0    0    0  0.00000000000E+00  0.00000000000E+00  0.14999999963E+04  0.15000000000E+04  0.10566000000E+00 0.  1.
        994   -1    0    0    0    0 -0.00000000000E+00 -0.00000000000E+00  0.11368683772E-12  0.17120000000E+03  0.17120000000E+03 0.  0.
         13    1    1    2    0    0  0.46987058566E+01  0.26310518108E+02  0.14362657801E+03  0.14609218417E+03  0.10566000000E+00 0.  1.
        994    1    1    2    0    0 -0.36120309824E+01 -0.17671314698E+02  0.35139418640E+01  0.17218336133E+03  0.17120000000E+03 0.  0.
        998    1    1    2    0    0 -0.10866748742E+01 -0.86392034095E+01  0.13528594764E+04  0.13529244545E+04  0.10000000000E+02 0.  1.
</event>
<event>
 5    1  0.1796476E-008  0.3853126E+03  0.7957747E-01  0.3428348E+00
         13   -1    0    0    0    0  0.00000000000E+00  0.00000000000E+00  0.14999999963E+04  0.15000000000E+04  0.10566000000E+00 0.  1.
        994   -1    0    0    0    0 -0.00000000000E+00 -0.00000000000E+00  0.11368683772E-12  0.17120000000E+03  0.17120000000E+03 0.  0.
         13    1    1    2    0    0  0.23411714621E+01 -0.12874236719E+02  0.59035829436E+02  0.60468730565E+02  0.10566000000E+00 0.  1.
        994    1    1    2    0    0 -0.28673581823E+01  0.60661218321E+01  0.16229506168E+01  0.17133911855E+03  0.17120000000E+03 0.  0.
        998    1    1    2    0    0  0.52618672016E+00  0.68081148868E+01  0.14393412162E+04  0.14393921509E+04  0.10000000000E+02 0.  1.
</event>
<event>
 5    1  0.1796476E-008  0.3757517E+03  0.7957747E-01  0.3469868E+00
         13   -1    0    0    0    0  0.00000000000E+00  0.00000000000E+00  0.14999999963E+04  0.15000000000E+04  0.10566000000E+00 0. -1.
        994   -1    0    0    0    0 -0.00000000000E+00 -0.00000000000E+00  0.11368683772E-12  0.17120000000E+03  0.17120000000E+03 0.  0.
         13    1    1    2    0    0  0.34251817486E+02  0.77016941764E+02  0.40685549631E+03  0.41549512917E+03  0.10566000000E+00 0. -1.
        994    1    1    2    0    0 -0.40864654574E+02 -0.74197830030E+02  0.31023682594E+02  0.19351265296E+03  0.17120000000E+03 0.  0.
        998    1    1    2    0    0  0.66128370875E+01 -0.28191117336E+01  0.10621208174E+04  0.10621922179E+04  0.10000000000E+02 0. -1.
</event>
<event>
 5    1  0.1796476E-008  0.3740267E+03  0.7957747E-01  0.3477587E+00
         13   -1    0    0    0    0  0.00000000000E+00  0.00000000000E+00  0.14999999963E+04  0.15000000000E+04  0.10566000000E+00 0. -1.
        994   -1    0    0    0    0 -0.00000000000E+00 -0.00000000000E+00  0.11368683772E-12  0.17120000000E+03  0.17120000000E+03 0.  0.
         13    1    1    2    0    0 -0.12049572202E+02  0.38126490423E+02  0.10721694757E+03  0.11443035643E+03  0.10566000000E+00 0. -1.
        994    1    1    2    0    0  0.93226070697E+01 -0.26351593469E+02  0.98486042879E+01  0.17374623014E+03  0.17120000000E+03 0.  0.
        998    1    1    2    0    0  0.27269651318E+01 -0.11774896954E+02  0.13829344444E+04  0.13830234134E+04  0.10000000000E+02 0. -1.
</event>
<event>
 5    1  0.1796476E-008  0.3797404E+03  0.7957747E-01  0.3452290E+00
         13   -1    0    0    0    0  0.00000000000E+00  0.00000000000E+00  0.14999999963E+04  0.15000000000E+04  0.10566000000E+00 0. -1.
        994   -1    0    0    0    0 -0.00000000000E+00 -0.00000000000E+00  0.11368683772E-12  0.17120000000E+03  0.17120000000E+03 0.  0.
         13    1    1    2    0    0 -0.20682470210E+02 -0.22065079149E+02  0.11168438348E+03  0.11570671964E+03  0.10566000000E+00 0. -1.
        994    1    1    2    0    0  0.90313325008E+01  0.27885273203E+01  0.45632050284E+01  0.17152143799E+03  0.17120000000E+03 0.  0.
        998    1    1    2    0    0  0.11651137709E+02  0.19276551829E+02  0.13837524078E+04  0.13839718424E+04  0.10000000000E+02 0. -1.
</event>
<event>
 5    1  0.1796476E-008  0.3730221E+03  0.7957747E-01  0.3482116E+00
         13   -1    0    0    0    0  0.00000000000E+00  0.00000000000E+00  0.14999999963E+04  0.15000000000E+04  0.10566000000E+00 0.  1.
        994   -1    0    0    0    0 -0.00000000000E+00 -0.00000000000E+00  0.11368683772E-12  0.17120000000E+03  0.17120000000E+03 0.  0.
         13    1    1    2    0    0 -0.34498811110E+02  0.36303786815E+02  0.14113247985E+03  0.14975486949E+03  0.10566000000E+00 0.  1.
        994    1    1    2    0    0  0.37272887664E+02 -0.43418102581E+02  0.18987261685E+02  0.18150580127E+03  0.17120000000E+03 0.  0.
        998    1    1    2    0    0 -0.27740765536E+01  0.71143157665E+01  0.13398802547E+04  0.13399393292E+04  0.10000000000E+02 0.  1.
</event>
<event>
 5    1  0.1796476E-008  0.3759623E+03  0.7957747E-01  0.3468930E+00
         13   -1    0    0    0    0  0.00000000000E+00  0.00000000000E+00  0.14999999963E+04  0.15000000000E+04  0.10566000000E+00 0.  1.
        994   -1    0    0    0    0 -0.00000000000E+00 -0.00000000000E+00  0.11368683772E-12  0.17120000000E+03  0.17120000000E+03 0.  0.
         13    1    1    2    0    0  0.35918681337E+02  0.18213423417E+03  0.75046296386E+03  0.77308324404E+03  0.10566000000E+00 0.  1.
        994    1    1    2    0    0 -0.24517530682E+02 -0.20960268108E+03  0.17608095716E+03  0.32380292881E+03  0.17120000000E+03 0.  0.
        998    1    1    2    0    0 -0.11401150654E+02  0.27468446915E+02  0.57345607525E+03  0.57431382715E+03  0.10000000000E+02 0.  1.
</event>
<event>
 5    1  0.1796476E-008  0.3843087E+03  0.7957747E-01  0.3432609E+00
         13   -1    0    0    0    0  0.00000000000E+00  0.00000000000E+00  0.14999999963E+04  0.15000000000E+04  0.10566000000E+00 0. -1.
        994   -1    0    0    0    0 -0.00000000000E+00 -0.00000000000E+00  0.11368683772E-12  0.17120000000E+03  0.17120000000E+03 0.  0.
         13    1    1    2    0    0  0.38406337979E+01  0.12975030325E+02  0.46501524460E+02  0.48430412150E+02  0.10566000000E+00 0. -1.
        994    1    1    2    0    0  0.64604199086E+00 -0.73994578679E+01  0.21555855899E+01  0.17137460692E+03  0.17120000000E+03 0.  0.
        998    1    1    2    0    0 -0.44866757888E+01 -0.55755724568E+01  0.14513428862E+04  0.14513949809E+04  0.10000000000E+02 0. -1.
</event>
<event>
 5    1  0.1796476E-008  0.3822764E+03  0.7957747E-01  0.3441306E+00
         13   -1    0    0    0    0  0.00000000000E+00  0.00000000000E+00  0.14999999963E+04  0.15000000000E+04  0.10566000000E+00 0.  1.
        994   -1    0    0    0    0 -0.00000000000E+00 -0.00000000000E+00  0.11368683772E-12  0.17120000000E+03  0.17120000000E+03 0.  0.
         13    1    1    2    0    0  0.81369272561E+01 -0.77730409213E+01  0.19774320017E+02  0.22752244868E+02  0.10566000000E+00 0.  1.
        994    1    1    2    0    0 -0.13722752163E+02  0.31161056930E+01  0.36457426634E+01  0.17181605129E+03  0.17120000000E+03 0.  0.
        998    1    1    2    0    0  0.55858249071E+01  0.46569352283E+01  0.14765799336E+04  0.14766317038E+04  0.10000000000E+02 0.  1.
</event>
<event>
 5    1  0.1796476E-008  0.3745634E+03  0.7957747E-01  0.3475178E+00
         13   -1    0    0    0    0  0.00000000000E+00  0.00000000000E+00  0.14999999963E+04  0.15000000000E+04  0.10566000000E+00 0. -1.
        994   -1    0    0    0    0 -0.00000000000E+00 -0.00000000000E+00  0.11368683772E-12  0.17120000000E+03  0.17120000000E+03 0.  0.
         13    1    1    2    0    0  0.26329730046E+02 -0.50988460339E+02  0.12228272333E+03  0.13507832306E+03  0.10566000000E+00 0. -1.
        994    1    1    2    0    0  0.11949329026E+02  0.38076051894E+02  0.19051925787E+02  0.17681908287E+03  0.17120000000E+03 0.  0.
        998    1    1    2    0    0 -0.38279059072E+02  0.12912408446E+02  0.13586653472E+04  0.13593025941E+04  0.10000000000E+02 0. -1.
</event>
<event>
 5    1  0.1796476E-008  0.3782340E+03  0.7957747E-01  0.3458884E+00
         13   -1    0    0    0    0  0.00000000000E+00  0.00000000000E+00  0.14999999963E+04  0.15000000000E+04  0.10566000000E+00 0.  1.
        994   -1    0    0    0    0 -0.00000000000E+00 -0.00000000000E+00  0.11368683772E-12  0.17120000000E+03  0.17120000000E+03 0.  0.
         13    1    1    2    0    0  0.10867239905E+02  0.82317313621E+01  0.15725703888E+02  0.20812669967E+02  0.10566000000E+00 0.  1.
        994    1    1    2    0    0 -0.11777077993E+02 -0.24886725290E+02  0.75804288088E+01  0.17356541004E+03  0.17120000000E+03 0.  0.
        998    1    1    2    0    0  0.90983808893E+00  0.16654993928E+02  0.14766938636E+04  0.14768219200E+04  0.10000000000E+02 0.  1.
</event>
<event>
 5    1  0.1796476E-008  0.3844473E+03  0.7957747E-01  0.3432020E+00
         13   -1    0    0    0    0  0.00000000000E+00  0.00000000000E+00  0.14999999963E+04  0.15000000000E+04  0.10566000000E+00 0. -1.
        994   -1    0    0    0    0 -0.00000000000E+00 -0.00000000000E+00  0.11368683772E-12  0.17120000000E+03  0.17120000000E+03 0.  0.
         13    1    1    2    0    0  0.73061598892E+01  0.10020414218E+02  0.41828068012E+02  0.43627824964E+02  0.10566000000E+00 0. -1.
        994    1    1    2    0    0 -0.42163118137E+01  0.41089823493E+01  0.20190127392E+01  0.17131309767E+03  0.17120000000E+03 0.  0.
        998    1    1    2    0    0 -0.30898480755E+01 -0.14129396567E+02  0.14561529155E+04  0.14562590774E+04  0.10000000000E+02 0. -1.
</event>
<event>
 5    1  0.1796476E-008  0.3806695E+03  0.7957747E-01  0.3448248E+00
         13   -1    0    0    0    0  0.00000000000E+00  0.00000000000E+00  0.14999999963E+04  0.15000000000E+04  0.10566000000E+00 0.  1.
        994   -1    0    0    0    0 -0.00000000000E+00 -0.00000000000E+00  0.11368683772E-12  0.17120000000E+03  0.17120000000E+03 0.  0.
         13    1    1    2    0    0 -0.40962716710E+02 -0.27651465400E+01  0.19273411466E+03  0.19705846927E+03  0.10566000000E+00 0.  1.
        994    1    1    2    0    0  0.42021517598E+02  0.35679873537E+01  0.97508159509E+01  0.17658725007E+03  0.17120000000E+03 0.  0.
        998    1    1    2    0    0 -0.10588008877E+01 -0.80284081375E+00  0.12975150657E+04  0.12975542807E+04  0.10000000000E+02 0.  1.
</event>
<event>
 5    1  0.1796476E-008  0.3782222E+03  0.7957747E-01  0.3458936E+00
         13   -1    0    0    0    0  0.00000000000E+00  0.00000000000E+00  0.14999999963E+04  0.15000000000E+04  0.10566000000E+00 0.  1.
        994   -1    0    0    0    0 -0.00000000000E+00 -0.00000000000E+00  0.11368683772E-12  0.17120000000E+03  0.17120000000E+03 0.  0.
         13    1    1    2    0    0 -0.29519571128E+02 -0.75806633070E+01  0.83456641348E+02  0.88847586826E+02  0.10566000000E+00 0.  1.
        994    1    1    2    0    0  0.33544721571E+02  0.20123884959E+02  0.10196178890E+02  0.17590799059E+03  0.17120000000E+03 0.  0.
        998    1    1    2    0    0 -0.40251504427E+01 -0.12543221652E+02  0.14063471760E+04  0.14064444226E+04  0.10000000000E+02 0.  1.
</event>
<event>
 5    1  0.1796476E-008  0.3853412E+03  0.7957747E-01  0.3428226E+00
         13   -1    0    0    0    0  0.00000000000E+00  0.00000000000E+00  0.14999999963E+04  0.15000000000E+04  0.10566000000E+00 0.  1.
        994   -1    0    0    0    0 -0.00000000000E+00 -0.00000000000E+00  0.11368683772E-12  0.17120000000E+03  0.17120000000E+03 0.  0.
         13    1    1    2    0    0 -0.10682246283E+02  0.69829579427E+01  0.58396572831E+02  0.59774935965E+02  0.10566000000E+00 0.  1.
        994    1    1    2    0    0  0.30238575255E+01  0.15035244592E+01  0.14983042663E+01  0.17123985872E+03  0.17120000000E+03 0.  0.
        998    1    1    2    0    0  0.76583887574E+01 -0.84864824019E+01  0.14401051192E+04  0.14401852053E+04  0.10000000000E+02 0.  1.
</event>
<event>
 5    1  0.1796476E-008  0.3845121E+03  0.7957747E-01  0.3431744E+00
         13   -1    0    0    0    0  0.00000000000E+00  0.00000000000E+00  0.14999999963E+04  0.15000000000E+04  0.10566000000E+00 0.  1.
        994   -1    0    0    0    0 -0.00000000000E+00 -0.00000000000E+00  0.11368683772E-12  0.17120000000E+03  0.17120000000E+03 0.  0.
         13    1    1    2    0    0 -0.75847533979E+01  0.73761954414E+01  0.30496628311E+02  0.32279904673E+02  0.10566000000E+00 0.  1.
        994    1    1    2    0    0 -0.67936373257E+00  0.66709026608E+00  0.18755678596E+01  0.17121292095E+03  0.17120000000E+03 0.  0.
        998    1    1    2    0    0  0.82641171305E+01 -0.80432857075E+01  0.14676278001E+04  0.14677071744E+04  0.10000000000E+02 0.  1.
</event>
<event>
 5    1  0.1796476E-008  0.3842309E+03  0.7957747E-01  0.3432941E+00
         13   -1    0    0    0    0  0.00000000000E+00  0.00000000000E+00  0.14999999963E+04  0.15000000000E+04  0.10566000000E+00 0. -1.
        994   -1    0    0    0    0 -0.00000000000E+00 -0.00000000000E+00  0.11368683772E-12  0.17120000000E+03  0.17120000000E+03 0.  0.
         13    1    1    2    0    0  0.10148561126E+02  0.74640493318E+01  0.40753071824E+02  0.42655941585E+02  0.10566000000E+00 0. -1.
        994    1    1    2    0    0 -0.52808727123E+01  0.88233853119E+01  0.23611487121E+01  0.17152479345E+03  0.17120000000E+03 0.  0.
        998    1    1    2    0    0 -0.48676884132E+01 -0.16287434644E+02  0.14568857757E+04  0.14570192650E+04  0.10000000000E+02 0. -1.
</event>
<event>
 5    1  0.1796476E-008  0.3792012E+03  0.7957747E-01  0.3454644E+00
         13   -1    0    0    0    0  0.00000000000E+00  0.00000000000E+00  0.14999999963E+04  0.15000000000E+04  0.10566000000E+00 0. -1.
        994   -1    0    0    0    0 -0.00000000000E+00 -0.00000000000E+00  0.11368683772E-12  0.17120000000E+03  0.17120000000E+03 0.  0.
         13    1    1    2    0    0 -0.26466881797E+02 -0.19967200534E+02  0.12059348616E+03  0.12506792153E+03  0.10566000000E+00 0. -1.
        994    1    1    2    0    0  0.21922459397E+02  0.14823242263E+01  0.61567943961E+01  0.17271403425E+03  0.17120000000E+03 0.  0.
        998    1    1    2    0    0  0.45444224004E+01  0.18484876307E+02  0.13732497157E+04  0.13734180442E+04  0.10000000000E+02 0. -1.
</event>
<event>
 5    1  0.1796476E-008  0.3840336E+03  0.7957747E-01  0.3433781E+00
         13   -1    0    0    0    0  0.00000000000E+00  0.00000000000E+00  0.14999999963E+04  0.15000000000E+04  0.10566000000E+00 0.  1.
        994   -1    0    0    0    0 -0.00000000000E+00 -0.00000000000E+00  0.11368683772E-12  0.17120000000E+03  0.17120000000E+03 0.  0.
         13    1    1    2    0    0 -0.39698922984E+01 -0.22056791159E+02  0.10177760366E+03  0.10421590019E+03  0.10566000000E+00 0.  1.
        994    1    1    2    0    0  0.14881222550E+01  0.36599579275E+02  0.65496800685E+01  0.17519726602E+03  0.17120000000E+03 0.  0.
        998    1    1    2    0    0  0.24817700433E+01 -0.14542788116E+02  0.13916727125E+04  0.13917868338E+04  0.10000000000E+02 0.  1.
</event>
<event>
 5    1  0.1796476E-008  0.3849895E+03  0.7957747E-01  0.3429717E+00
         13   -1    0    0    0    0  0.00000000000E+00  0.00000000000E+00  0.14999999963E+04  0.15000000000E+04  0.10566000000E+00 0. -1.
        994   -1    0    0    0    0 -0.00000000000E+00 -0.00000000000E+00  0.11368683772E-12  0.17120000000E+03  0.17120000000E+03 0.  0.
         13    1    1    2    0    0  0.14907860692E+02 -0.84900760417E+01  0.93014036417E+02  0.94583020866E+02  0.10566000000E+00 0. -1.
        994    1    1    2    0    0 -0.47419503954E+01  0.53613963908E+01  0.18038691090E+01  0.17135905173E+03  0.17120000000E+03 0.  0.
        998    1    1    2    0    0 -0.10165910297E+02  0.31286796509E+01  0.14051820908E+04  0.14052579274E+04  0.10000000000E+02 0. -1.
</event>
<event>
 5    1  0.1796476E-008  0.2540206E+03  0.7957747E-01  0.4291059E+00
         13   -1    0    0    0    0  0.00000000000E+00  0.00000000000E+00  0.14999999963E+04  0.15000000000E+04  0.10566000000E+00 0.  1.
        994   -1    0    0    0    0 -0.00000000000E+00 -0.00000000000E+00  0.11368683772E-12  0.17120000000E+03  0.17120000000E+03 0.  0.
         13    1    1    2    0    0 -0.14094991344E+03  0.11715929982E+03  0.24825862336E+03  0.30858634913E+03  0.10566000000E+00 0.  1.
        994    1    1    2    0    0  0.14621314457E+03 -0.11807431947E+03  0.23622015853E+03  0.34702915131E+03  0.17120000000E+03 0.  0.
        998    1    1    2    0    0 -0.52632311287E+01  0.91501965102E+00  0.10155212144E+04  0.10155844996E+04  0.10000000000E+02 0.  1.
</event>
<event>
 5    1  0.1796476E-008  0.3816791E+03  0.7957747E-01  0.3443880E+00
         13   -1    0    0    0    0  0.00000000000E+00  0.00000000000E+00  0.14999999963E+04  0.15000000000E+04  0.10566000000E+00 0. -1.
        994   -1    0    0    0    0 -0.00000000000E+00 -0.00000000000E+00  0.11368683772E-12  0.17120000000E+03  0.17120000000E+03 0.  0.
         13    1    1    2    0    0  0.49145020419E+01 -0.12811238052E+02  0.27525624367E+02  0.30756321490E+02  0.10566000000E+00 0. -1.
        994    1    1    2    0    0 -0.59840059437E+01  0.60106207043E+01  0.35271111946E+01  0.17144624931E+03  0.17120000000E+03 0.  0.
        998    1    1    2    0    0  0.10695039018E+01  0.68006173480E+01  0.14689472607E+04  0.14689974292E+04  0.10000000000E+02 0. -1.
</event>
<event>
 5    1  0.1796476E-008  0.3811961E+03  0.7957747E-01  0.3445967E+00
         13   -1    0    0    0    0  0.00000000000E+00  0.00000000000E+00  0.14999999963E+04  0.15000000000E+04  0.10566000000E+00 0. -1.
        994   -1    0    0    0    0 -0.00000000000E+00 -0.00000000000E+00  0.11368683772E-12  0.17120000000E+03  0.17120000000E+03 0.  0.
         13    1    1    2    0    0  0.29388278535E+01  0.22021926568E+02  0.71418973203E+02  0.74794938708E+02  0.10566000000E+00 0. -1.
        994    1    1    2    0    0  0.41176914352E+01 -0.64138056028E+01  0.37240438224E+01  0.17141003701E+03  0.17120000000E+03 0.  0.
        998    1    1    2    0    0 -0.70565192887E+01 -0.15608120965E+02  0.14248569793E+04  0.14249950243E+04  0.10000000000E+02 0. -1.
</event>
<event>
 5    1  0.1796476E-008  0.3842596E+03  0.7957747E-01  0.3432818E+00
         13   -1    0    0    0    0  0.00000000000E+00  0.00000000000E+00  0.14999999963E+04  0.15000000000E+04  0.10566000000E+00 0.  1.
        994   -1    0    0    0    0 -0.00000000000E+00 -0.00000000000E+00  0.11368683772E-12  0.17120000000E+03  0.17120000000E+03 0.  0.
         13    1    1    2    0    0  0.78875687617E+00  0.10781472263E+02  0.28320803829E+02  0.30314045839E+02  0.10566000000E+00 0.  1.
        994    1    1    2    0    0 -0.14883316164E+01 -0.10903603111E+02  0.23975180960E+01  0.17157007835E+03  0.17120000000E+03 0.  0.
        998    1    1    2    0    0  0.69957474019E+00  0.12213084806E+00  0.14692816744E+04  0.14693158758E+04  0.10000000000E+02 0.  1.
</event>
<event>
 5    1  0.1796476E-008  0.3704868E+03  0.7957747E-01  0.3493657E+00
         13   -1    0    0    0    0  0.00000000000E+00  0.00000000000E+00  0.14999999963E+04  0.15000000000E+04  0.10566000000E+00 0. -1.
        994   -1    0    0    0    0 -0.00000000000E+00 -0.00000000000E+00  0.11368683772E-12  0.17120000000E+03  0.17120000000E+03 0.  0.
         13    1    1    2    0    0  0.43026382171E+02 -0.48008252422E+02  0.25389894334E+03  0.26195561925E+03  0.10566000000E+00 0. -1.
        994    1    1    2    0    0 -0.14472866585E+02  0.13292697598E+02  0.10348928300E+02  0.17263458516E+03  0.17120000000E+03 0.  0.
        998    1    1    2    0    0 -0.28553515586E+02  0.34715554824E+02  0.12357521246E+04  0.12366097956E+04  0.10000000000E+02 0. -1.
</event>
<event>
 5    1  0.1796476E-008  0.3858178E+03  0.7957747E-01  0.3426211E+00
         13   -1    0    0    0    0  0.00000000000E+00  0.00000000000E+00  0.14999999963E+04  0.15000000000E+04  0.10566000000E+00 0. -1.
        994   -1    0    0    0    0 -0.00000000000E+00 -0.00000000000E+00  0.11368683772E-12  0.17120000000E+03  0.17120000000E+03 0.  0.
         13    1    1    2    0    0  0.13111032600E+02  0.14874707721E+01  0.72637223531E+02  0.73826073656E+02  0.10566000000E+00 0. -1.
        994    1    1    2    0    0 -0.64794492065E+01 -0.60044654118E+01  0.14806411704E+01  0.17143415402E+03  0.17120000000E+03 0.  0.
        998    1    1    2    0    0 -0.66315833935E+01  0.45169946396E+01  0.14258821316E+04  0.14259397723E+04  0.10000000000E+02 0. -1.
</event>
<event>
 5    1  0.1796476E-008  0.3814270E+03  0.7957747E-01  0.3444969E+00
         13   -1    0    0    0    0  0.00000000000E+00  0.00000000000E+00  0.14999999963E+04  0.15000000000E+04  0.10566000000E+00 0. -1.
        994   -1    0    0    0    0 -0.00000000000E+00 -0.00000000000E+00  0.11368683772E-12  0.17120000000E+03  0.17120000000E+03 0.  0.
         13    1    1    2    0    0  0.16642705525E+02  0.18199489547E+02  0.85322885972E+02  0.88815579160E+02  0.10566000000E+00 0. -1.
        994    1    1    2    0    0 -0.85632817015E+01 -0.20845919124E+02  0.51062102202E+01  0.17275241104E+03  0.17120000000E+03 0.  0.
        998    1    1    2    0    0 -0.80794238231E+01  0.26464295776E+01  0.14095709001E+04  0.14096320098E+04  0.10000000000E+02 0. -1.
</event>
<event>
 5    1  0.1796476E-008  0.3837430E+03  0.7957747E-01  0.3435021E+00
         13   -1    0    0    0    0  0.00000000000E+00  0.00000000000E+00  0.14999999963E+04  0.15000000000E+04  0.10566000000E+00 0. -1.
        994   -1    0    0    0    0 -0.00000000000E+00 -0.00000000000E+00  0.11368683772E-12  0.17120000000E+03  0.17120000000E+03 0.  0.
         13    1    1    2    0    0  0.14670139508E+02 -0.88699225279E-01  0.49562138734E+02  0.51687886595E+02  0.10566000000E+00 0. -1.
        994    1    1    2    0    0  0.58748241965E+00 -0.18742274744E+01  0.22682632011E+01  0.17122629145E+03  0.17120000000E+03 0.  0.
        998    1    1    2    0    0 -0.15257621927E+02  0.19629266997E+01  0.14481695943E+04  0.14482858220E+04  0.10000000000E+02 0. -1.
</event>
<event>
 5    1  0.1796476E-008  0.3694041E+03  0.7957747E-01  0.3498634E+00
         13   -1    0    0    0    0  0.00000000000E+00  0.00000000000E+00  0.14999999963E+04  0.15000000000E+04  0.10566000000E+00 0.  1.
        994   -1    0    0    0    0 -0.00000000000E+00 -0.00000000000E+00  0.11368683772E-12  0.17120000000E+03  0.17120000000E+03 0.  0.
         13    1    1    2    0    0 -0.13578939358E+02  0.12038205358E+02  0.10777411993E+02  0.21106154449E+02  0.10566000000E+00 0.  1.
        994    1    1    2    0    0  0.13494652635E+02 -0.62592947599E+01  0.11396410912E+02  0.17222253802E+03  0.17120000000E+03 0.  0.
        998    1    1    2    0    0  0.84286723095E-01 -0.57789105979E+01  0.14778261734E+04  0.14778713075E+04  0.10000000000E+02 0.  1.
</event>
<event>
 5    1  0.1796476E-008  0.3852800E+03  0.7957747E-01  0.3428486E+00
         13   -1    0    0    0    0  0.00000000000E+00  0.00000000000E+00  0.14999999963E+04  0.15000000000E+04  0.10566000000E+00 0.  1.
        994   -1    0    0    0    0 -0.00000000000E+00 -0.00000000000E+00  0.11368683772E-12  0.17120000000E+03  0.17120000000E+03 0.  0.
         13    1    1    2    0    0 -0.82842347725E+01  0.62689192026E+01  0.36537313584E+02  0.37985712336E+02  0.10566000000E+00 0.  1.
        994    1    1    2    0    0  0.88261486601E+01  0.34311841514E+01  0.17858860506E+01  0.17147099846E+03  0.17120000000E+03 0.  0.
        998    1    1    2    0    0 -0.54191388757E+00 -0.97001033540E+01  0.14616767966E+04  0.14617432892E+04  0.10000000000E+02 0.  1.
</event>
<event>
 5    1  0.1796476E-008  0.3854598E+03  0.7957747E-01  0.3427724E+00
         13   -1    0    0    0    0  0.00000000000E+00  0.00000000000E+00  0.14999999963E+04  0.15000000000E+04  0.10566000000E+00 0.  1.
        994   -1    0    0    0    0 -0.00000000000E+00 -0.00000000000E+00  0.11368683772E-12  0.17120000000E+03  0.17120000000E+03 0.  0.
         13    1    1    2    0    0  0.45018411079E+01  0.11371596361E+02  0.55225505931E+02  0.56563658355E+02  0.10566000000E+00 0.  1.
        994    1    1    2    0    0  0.34197994438E+01 -0.49978621242E+01  0.15224440008E+01  0.17131383917E+03  0.17120000000E+03 0.  0.
        998    1    1    2    0    0 -0.79216405517E+01 -0.63737342371E+01  0.14432520463E+04  0.14433225025E+04  0.10000000000E+02 0.  1.
</event>
<event>
 5    1  0.1796476E-008  0.3720021E+03  0.7957747E-01  0.3486740E+00
         13   -1    0    0    0    0  0.00000000000E+00  0.00000000000E+00  0.14999999963E+04  0.15000000000E+04  0.10566000000E+00 0.  1.
        994   -1    0    0    0    0 -0.00000000000E+00 -0.00000000000E+00  0.11368683772E-12  0.17120000000E+03  0.17120000000E+03 0.  0.
         13    1    1    2    0    0 -0.99942995486E+02  0.41971652769E+02  0.48198986865E+03  0.49402881154E+03  0.10566000000E+00 0.  1.
        994    1    1    2    0    0  0.89647940313E+02 -0.62956405973E+02  0.50632659977E+02  0.20945970618E+03  0.17120000000E+03 0.  0.
        998    1    1    2    0    0  0.10295055173E+02  0.20984753204E+02  0.96737746765E+03  0.96771148229E+03  0.10000000000E+02 0.  1.
</event>
<event>
 5    1  0.1796476E-008  0.3790144E+03  0.7957747E-01  0.3455461E+00
         13   -1    0    0    0    0  0.00000000000E+00  0.00000000000E+00  0.14999999963E+04  0.15000000000E+04  0.10566000000E+00 0. -1.
        994   -1    0    0    0    0 -0.00000000000E+00 -0.00000000000E+00  0.11368683772E-12  0.17120000000E+03  0.17120000000E+03 0.  0.
         13    1    1    2    0    0  0.11399063814E+02 -0.35503244019E+02  0.16401226388E+03  0.16819766009E+03  0.10566000000E+00 0. -1.
        994    1    1    2    0    0  0.86259907433E+01  0.95815740834E+01  0.51891640777E+01  0.17176315583E+03  0.17120000000E+03 0.  0.
        998    1    1    2    0    0 -0.20025054557E+02  0.25921669935E+02  0.13307985683E+04  0.13312391841E+04  0.10000000000E+02 0. -1.
</event>
<event>
 5    1  0.1796476E-008  0.3806810E+03  0.7957747E-01  0.3448199E+00
         13   -1    0    0    0    0  0.00000000000E+00  0.00000000000E+00  0.14999999963E+04  0.15000000000E+04  0.10566000000E+00 0.  1.
        994   -1    0    0    0    0 -0.00000000000E+00 -0.00000000000E+00  0.11368683772E-12  0.17120000000E+03  0.17120000000E+03 0.  0.
         13    1    1    2    0    0 -0.25725495204E+02 -0.22779266448E+02  0.13756827862E+03  0.14179470558E+03  0.10566000000E+00 0.  1.
        994    1    1    2    0    0  0.51910002123E+02  0.21201422504E+01  0.12845515983E+02  0.17936998245E+03  0.17120000000E+03 0.  0.
        998    1    1    2    0    0 -0.26184506919E+02  0.20659124198E+02  0.13495862017E+04  0.13500353120E+04  0.10000000000E+02 0.  1.
</event>
<event>
 5    1  0.1796476E-008  0.3692363E+03  0.7957747E-01  0.3499408E+00
         13   -1    0    0    0    0  0.00000000000E+00  0.00000000000E+00  0.14999999963E+04  0.15000000000E+04  0.10566000000E+00 0. -1.
        994   -1    0    0    0    0 -0.00000000000E+00 -0.00000000000E+00  0.11368683772E-12  0.17120000000E+03  0.17120000000E+03 0.  0.
         13    1    1    2    0    0  0.17167158492E+03 -0.43766241420E+02  0.70273921462E+03  0.72472686709E+03  0.10566000000E+00 0. -1.
        994    1    1    2    0    0 -0.17442322293E+03  0.48195824489E+02  0.13351970852E+03  0.28263625167E+03  0.17120000000E+03 0.  0.
        998    1    1    2    0    0  0.27516380123E+01 -0.44295830690E+01  0.66374107315E+03  0.66383688124E+03  0.10000000000E+02 0. -1.
</event>
<event>
 5    1  0.1796476E-008  0.3775739E+03  0.7957747E-01  0.3461791E+00
         13   -1    0    0    0    0  0.00000000000E+00  0.00000000000E+00  0.14999999963E+04  0.15000000000E+04  0.10566000000E+00 0.  1.
        994   -1    0    0    0    0 -0.00000000000E+00 -0.00000000000E+00  0.11368683772E-12  0.17120000000E+03  0.17120000000E+03 0.  0.
         13    1    1    2    0    0 -0.12272712586E+02 -0.27554926725E+02  0.91052443263E+02  0.95918986907E+02  0.10566000000E+00 0.  1.
        994    1    1    2    0    0  0.67394709054E+00 -0.29782034051E+01  0.53943176096E+01  0.17131217868E+03  0.17120000000E+03 0.  0.
        998    1    1    2    0    0  0.11598765495E+02  0.30533130130E+02  0.14035532354E+04  0.14039688344E+04  0.10000000000E+02 0.  1.
</event>
<event>
 5    1  0.1796476E-008  0.3828288E+03  0.7957747E-01  0.3438933E+00
         13   -1    0    0    0    0  0.00000000000E+00  0.00000000000E+00  0.14999999963E+04  0.15000000000E+04  0.10566000000E+00 0. -1.
        994   -1    0    0    0    0 -0.00000000000E+00 -0.00000000000E+00  0.11368683772E-12  0.17120000000E+03  0.17120000000E+03 0.  0.
         13    1    1    2    0    0 -0.23137018291E+02  0.15022264332E+01  0.10324381998E+03  0.10581529108E+03  0.10566000000E+00 0. -1.
        994    1    1    2    0    0  0.65158184140E+01 -0.22800120544E+01  0.28698000092E+01  0.17136315268E+03  0.17120000000E+03 0.  0.
        998    1    1    2    0    0  0.16621199877E+02  0.77778562128E+00  0.13938863763E+04  0.13940215562E+04  0.10000000000E+02 0. -1.
</event>
<event>
 5    1  0.1796476E-008  0.3708568E+03  0.7957747E-01  0.3491963E+00
         13   -1    0    0    0    0  0.00000000000E+00  0.00000000000E+00  0.14999999963E+04  0.15000000000E+04  0.10566000000E+00 0.  1.
        994   -1    0    0    0    0 -0.00000000000E+00 -0.00000000000E+00  0.11368683772E-12  0.17120000000E+03  0.17120000000E+03 0.  0.
         13    1    1    2    0    0  0.84161511785E+02 -0.34885247878E+02  0.38989541294E+03  0.40039803294E+03  0.10566000000E+00 0.  1.
        994    1    1    2    0    0 -0.70675391152E+02  0.27674074960E+02  0.28952540474E+02  0.18949552749E+03  0.17120000000E+03 0.  0.
        998    1    1    2    0    0 -0.13486120633E+02  0.72111729175E+01  0.10811520429E+04  0.10813064396E+04  0.10000000000E+02 0.  0.
</event>
<event>
 5    1  0.1796476E-008  0.3752154E+03  0.7957747E-01  0.3472260E+00
         13   -1    0    0    0    0  0.00000000000E+00  0.00000000000E+00  0.14999999963E+04  0.15000000000E+04  0.10566000000E+00 0. -1.
        994   -1    0    0    0    0 -0.00000000000E+00 -0.00000000000E+00  0.11368683772E-12  0.17120000000E+03  0.17120000000E+03 0.  0.
         13    1    1    2    0    0 -0.82142095005E+01 -0.81431195660E+01  0.74267115886E+01  0.13745939147E+02  0.10566000000E+00 0. -1.
        994    1    1    2    0    0 -0.13991568179E+02  0.55620534721E+01  0.73385424252E+01  0.17201742535E+03  0.17120000000E+03 0.  0.
        998    1    1    2    0    0  0.22205777679E+02  0.25810660940E+01  0.14852347423E+04  0.14854366355E+04  0.10000000000E+02 0. -1.
</event>
<event>
 5    1  0.1796476E-008  0.3703144E+03  0.7957747E-01  0.3494447E+00
         13   -1    0    0    0    0  0.00000000000E+00  0.00000000000E+00  0.14999999963E+04  0.15000000000E+04  0.10566000000E+00 0.  1.
        994   -1    0    0    0    0 -0.00000000000E+00 -0.00000000000E+00  0.11368683772E-12  0.17120000000E+03  0.17120000000E+03 0.  0.
         13    1    1    2    0    0 -0.75732040899E+01  0.17620022502E+02  0.16257953283E+02  0.25142609693E+02  0.10566000000E+00 0.  1.
        994    1    1    2    0    0  0.83359623055E+01 -0.11268589561E+02  0.97836987859E+01  0.17205124277E+03  0.17120000000E+03 0.  0.
        998    1    1    2    0    0 -0.76275821564E+00 -0.63514329414E+01  0.14739583442E+04  0.14740061475E+04  0.10000000000E+02 0.  1.
</event>
<event>
 5    1  0.1796476E-008  0.3709577E+03  0.7957747E-01  0.3491501E+00
         13   -1    0    0    0    0  0.00000000000E+00  0.00000000000E+00  0.14999999963E+04  0.15000000000E+04  0.10566000000E+00 0. -1.
        994   -1    0    0    0    0 -0.00000000000E+00 -0.00000000000E+00  0.11368683772E-12  0.17120000000E+03  0.17120000000E+03 0.  0.
         13    1    1    2    0    0  0.51996488057E+02  0.41119062775E+02  0.25431261409E+03  0.26281044299E+03  0.10566000000E+00 0. -1.
        994    1    1    2    0    0 -0.51199953320E+01 -0.50812600767E+02  0.17811850019E+02  0.17954062702E+03  0.17120000000E+03 0.  0.
        998    1    1    2    0    0 -0.46876492725E+02  0.96935379920E+01  0.12278755322E+04  0.12288489300E+04  0.10000000000E+02 0.  1.
</event>
<event>
 5    1  0.1796476E-008  0.3821983E+03  0.7957747E-01  0.3441642E+00
         13   -1    0    0    0    0  0.00000000000E+00  0.00000000000E+00  0.14999999963E+04  0.15000000000E+04  0.10566000000E+00 0. -1.
        994   -1    0    0    0    0 -0.00000000000E+00 -0.00000000000E+00  0.11368683772E-12  0.17120000000E+03  0.17120000000E+03 0.  0.
         13    1    1    2    0    0  0.49799589994E+02  0.19869048788E+01  0.26114394571E+03  0.26585732734E+03  0.10566000000E+00 0. -1.
        994    1    1    2    0    0 -0.78739555867E+02  0.14382881077E+02  0.24590085353E+02  0.19058042193E+03  0.17120000000E+03 0.  0.
        998    1    1    2    0    0  0.28939965873E+02 -0.16369785955E+02  0.12142659652E+04  0.12147622507E+04  0.10000000000E+02 0. -1.
</event>
<event>
 5    1  0.1796476E-008  0.3840341E+03  0.7957747E-01  0.3433779E+00
         13   -1    0    0    0    0  0.00000000000E+00  0.00000000000E+00  0.14999999963E+04  0.15000000000E+04  0.10566000000E+00 0. -1.
        994   -1    0    0    0    0 -0.00000000000E+00 -0.00000000000E+00  0.11368683772E-12  0.17120000000E+03  0.17120000000E+03 0.  0.
         13    1    1    2    0    0  0.72279281109E+00  0.12144806769E+02  0.34624755224E+02  0.36700185275E+02  0.10566000000E+00 0. -1.
        994    1    1    2    0    0 -0.28737667979E+01 -0.74147513883E+01  0.23191061071E+01  0.17140027808E+03  0.17120000000E+03 0.  0.
        998    1    1    2    0    0  0.21509739868E+01 -0.47300553806E+01  0.14630561349E+04  0.14630995366E+04  0.10000000000E+02 0. -1.
</event>
<event>
 5    1  0.1796476E-008  0.3737424E+03  0.7957747E-01  0.3478866E+00
         13   -1    0    0    0    0  0.00000000000E+00  0.00000000000E+00  0.14999999963E+04  0.15000000000E+04  0.10566000000E+00 0.  1.
        994   -1    0    0    0    0 -0.00000000000E+00 -0.00000000000E+00  0.11368683772E-12  0.17120000000E+03  0.17120000000E+03 0.  0.
         13    1    1    2    0    0 -0.22285378900E+02  0.24026812084E+02  0.66184798492E+02  0.73853669693E+02  0.10566000000E+00 0.  1.
        994    1    1    2    0    0  0.83770899229E+01 -0.46283062682E+02  0.14915874962E+02  0.17816907940E+03  0.17120000000E+03 0.  0.
        998    1    1    2    0    0  0.13908288977E+02  0.22256250598E+02  0.14188993228E+04  0.14191772509E+04  0.10000000000E+02 0.  1.
</event>
<event>
 5    1  0.1796476E-008  0.3808342E+03  0.7957747E-01  0.3447534E+00
         13   -1    0    0    0    0  0.00000000000E+00  0.00000000000E+00  0.14999999963E+04  0.15000000000E+04  0.10566000000E+00 0. -1.
        994   -1    0    0    0    0 -0.00000000000E+00 -0.00000000000E+00  0.11368683772E-12  0.17120000000E+03  0.17120000000E+03 0.  0.
         13    1    1    2    0    0  0.12491655638E+02  0.32109687056E+02  0.18760165542E+03  0.19073926115E+03  0.10566000000E+00 0. -1.
        994    1    1    2    0    0  0.86731973975E+01 -0.17489225841E+01  0.39736470882E+01  0.17147452567E+03  0.17120000000E+03 0.  0.
        998    1    1    2    0    0 -0.21164853036E+02 -0.30360764472E+02  0.13084246938E+04  0.13089862132E+04  0.10000000000E+02 0. -1.
</event>
<event>
 5    1  0.1796476E-008  0.3845034E+03  0.7957747E-01  0.3431781E+00
         13   -1    0    0    0    0  0.00000000000E+00  0.00000000000E+00  0.14999999963E+04  0.15000000000E+04  0.10566000000E+00 0. -1.
        994   -1    0    0    0    0 -0.00000000000E+00 -0.00000000000E+00  0.11368683772E-12  0.17120000000E+03  0.17120000000E+03 0.  0.
         13    1    1    2    0    0 -0.91383818866E+01  0.41108131331E+01  0.30176132763E+02  0.31796524350E+02  0.10566000000E+00 0. -1.
        994    1    1    2    0    0 -0.30748614466E+02 -0.60892307947E+01  0.51201054000E+01  0.17412125517E+03  0.17120000000E+03 0.  0.
        998    1    1    2    0    0  0.39886996352E+02  0.19784176616E+01  0.14647037581E+04  0.14652822205E+04  0.10000000000E+02 0. -1.
</event>
<event>
 5    1  0.1796476E-008  0.3745662E+03  0.7957747E-01  0.3475165E+00
         13   -1    0    0    0    0  0.00000000000E+00  0.00000000000E+00  0.14999999963E+04  0.15000000000E+04  0.10566000000E+00 0. -1.
        994   -1    0    0    0    0 -0.00000000000E+00 -0.00000000000E+00  0.11368683772E-12  0.17120000000E+03  0.17120000000E+03 0.  0.
         13    1    1    2    0    0 -0.36350397820E+01 -0.32114343439E+02  0.73307492954E+02  0.80115817764E+02  0.10566000000E+00 0. -1.
        994    1    1    2    0    0  0.15063424059E+02  0.18219249294E+02  0.88063834900E+01  0.17304866419E+03  0.17120000000E+03 0.  0.
        998    1    1    2    0    0 -0.11428384277E+02  0.13895094145E+02  0.14178861198E+04  0.14180355180E+04  0.10000000000E+02 0. -1.
</event>
<event>
 5    1  0.1796476E-008  0.3850749E+03  0.7957747E-01  0.3429354E+00
         13   -1    0    0    0    0  0.00000000000E+00  0.00000000000E+00  0.14999999963E+04  0.15000000000E+04  0.10566000000E+00 0.  1.
        994   -1    0    0    0    0 -0.00000000000E+00 -0.00000000000E+00  0.11368683772E-12  0.17120000000E+03  0.17120000000E+03 0.  0.
         13    1    1    2    0    0  0.21416143759E+01  0.14976987978E+02  0.76529796712E+02  0.78011009671E+02  0.10566000000E+00 0.  1.
        994    1    1    2    0    0  0.84395160537E+01 -0.23924931907E+01  0.18459792537E+01  0.17143452714E+03  0.17120000000E+03 0.  0.
        998    1    1    2    0    0 -0.10581130430E+02 -0.12584494787E+02  0.14216242203E+04  0.14217544632E+04  0.10000000000E+02 0.  1.
</event>
<event>
 5    1  0.1796476E-008  0.3824393E+03  0.7957747E-01  0.3440605E+00
         13   -1    0    0    0    0  0.00000000000E+00  0.00000000000E+00  0.14999999963E+04  0.15000000000E+04  0.10566000000E+00 0. -1.
        994   -1    0    0    0    0 -0.00000000000E+00 -0.00000000000E+00  0.11368683772E-12  0.17120000000E+03  0.17120000000E+03 0.  0.
         13    1    1    2    0    0 -0.14355560771E+02  0.60773149300E+01  0.43210675817E+02  0.45936799523E+02  0.10566000000E+00 0. -1.
        994    1    1    2    0    0 -0.56897794420E+01 -0.43868122171E+01  0.30780204609E+01  0.17137832979E+03  0.17120000000E+03 0.  0.
        998    1    1    2    0    0  0.20045340213E+02 -0.16905027128E+01  0.14537113000E+04  0.14538848707E+04  0.10000000000E+02 0. -1.
</event>
<event>
 5    1  0.1796476E-008  0.3819702E+03  0.7957747E-01  0.3442625E+00
         13   -1    0    0    0    0  0.00000000000E+00  0.00000000000E+00  0.14999999963E+04  0.15000000000E+04  0.10566000000E+00 0.  1.
        994   -1    0    0    0    0 -0.00000000000E+00 -0.00000000000E+00  0.11368683772E-12  0.17120000000E+03  0.17120000000E+03 0.  0.
         13    1    1    2    0    0  0.13174825934E+02  0.28689755306E+02  0.17821581759E+03  0.18099051606E+03  0.10566000000E+00 0.  1.
        994    1    1    2    0    0 -0.61771178647E+01 -0.79166579349E+00  0.32707349931E+01  0.17134445199E+03  0.17120000000E+03 0.  0.
        998    1    1    2    0    0 -0.69977080696E+01 -0.27898089512E+02  0.13185134437E+04  0.13188650320E+04  0.10000000000E+02 0.  1.
</event>
<event>
 5    1  0.1796476E-008  0.3852837E+03  0.7957747E-01  0.3428470E+00
         13   -1    0    0    0    0  0.00000000000E+00  0.00000000000E+00  0.14999999963E+04  0.15000000000E+04  0.10566000000E+00 0.  1.
        994   -1    0    0    0    0 -0.00000000000E+00 -0.00000000000E+00  0.11368683772E-12  0.17120000000E+03  0.17120000000E+03 0.  0.
         13    1    1    2    0    0  0.10465431276E+02  0.14399410926E+02  0.10739060298E+03  0.10885596474E+03  0.10566000000E+00 0.  1.
        994    1    1    2    0    0 -0.75713169332E+01 -0.75332110781E+01  0.18642364838E+01  0.17154296688E+03  0.17120000000E+03 0.  0.
        998    1    1    2    0    0 -0.28941143430E+01 -0.68661998479E+01  0.13907451568E+04  0.13908010684E+04  0.10000000000E+02 0.  1.
</event>
<event>
 5    1  0.1796476E-008  0.3848615E+03  0.7957747E-01  0.3430260E+00
         13   -1    0    0    0    0  0.00000000000E+00  0.00000000000E+00  0.14999999963E+04  0.15000000000E+04  0.10566000000E+00 0. -1.
        994   -1    0    0    0    0 -0.00000000000E+00 -0.00000000000E+00  0.11368683772E-12  0.17120000000E+03  0.17120000000E+03 0.  0.
         13    1    1    2    0    0 -0.11847493432E+02  0.90625862395E+01  0.68554572203E+02  0.70158635277E+02  0.10566000000E+00 0. -1.
        994    1    1    2    0    0  0.34528658827E+01  0.33235921549E+00  0.17385055648E+01  0.17124396383E+03  0.17120000000E+03 0.  0.
        998    1    1    2    0    0  0.83946275496E+01 -0.93949454550E+01  0.14297069185E+04  0.14297974009E+04  0.10000000000E+02 0. -1.
</event>
<event>
 5    1  0.1796476E-008  0.3839357E+03  0.7957747E-01  0.3434199E+00
         13   -1    0    0    0    0  0.00000000000E+00  0.00000000000E+00  0.14999999963E+04  0.15000000000E+04  0.10566000000E+00 0. -1.
        994   -1    0    0    0    0 -0.00000000000E+00 -0.00000000000E+00  0.11368683772E-12  0.17120000000E+03  0.17120000000E+03 0.  0.
         13    1    1    2    0    0  0.25454029050E+02 -0.10450466772E+02  0.15482921801E+03  0.15725526307E+03  0.10566000000E+00 0. -1.
        994    1    1    2    0    0 -0.31509264970E+02  0.46593342918E+01  0.55146921198E+01  0.17422512736E+03  0.17120000000E+03 0.  0.
        998    1    1    2    0    0  0.60552359198E+01  0.57911324803E+01  0.13396560862E+04  0.13397196096E+04  0.10000000000E+02 0. -1.
</event>
<event>
 5    1  0.1796476E-008  0.3795014E+03  0.7957747E-01  0.3453333E+00
         13   -1    0    0    0    0  0.00000000000E+00  0.00000000000E+00  0.14999999963E+04  0.15000000000E+04  0.10566000000E+00 0.  1.
        994   -1    0    0    0    0 -0.00000000000E+00 -0.00000000000E+00  0.11368683772E-12  0.17120000000E+03  0.17120000000E+03 0.  0.
         13    1    1    2    0    0 -0.10630885549E+02  0.17577419569E+02  0.47730842767E+02  0.51963698113E+02  0.10566000000E+00 0.  1.
        994    1    1    2    0    0 -0.72992909876E+00 -0.73877073327E+01  0.45696188446E+01  0.17142179684E+03  0.17120000000E+03 0.  0.
        998    1    1    2    0    0  0.11360814648E+02 -0.10189712236E+02  0.14476995347E+04  0.14478145050E+04  0.10000000000E+02 0.  1.
</event>
<event>
 5    1  0.1796476E-008  0.3828497E+03  0.7957747E-01  0.3438843E+00
         13   -1    0    0    0    0  0.00000000000E+00  0.00000000000E+00  0.14999999963E+04  0.15000000000E+04  0.10566000000E+00 0. -1.
        994   -1    0    0    0    0 -0.00000000000E+00 -0.00000000000E+00  0.11368683772E-12  0.17120000000E+03  0.17120000000E+03 0.  0.
         13    1    1    2    0    0 -0.12311305350E+02 -0.34583115896E+01  0.29374737810E+02  0.32037705035E+02  0.10566000000E+00 0. -1.
        994    1    1    2    0    0  0.78546340985E+01  0.28668444715E+01  0.29330758977E+01  0.17142916032E+03  0.17120000000E+03 0.  0.
        998    1    1    2    0    0  0.44566712519E+01  0.59146711813E+00  0.14676921826E+04  0.14677331346E+04  0.10000000000E+02 0. -1.
</event>
<event>
 5    1  0.1796476E-008  0.3796343E+03  0.7957747E-01  0.3452752E+00
         13   -1    0    0    0    0  0.00000000000E+00  0.00000000000E+00  0.14999999963E+04  0.15000000000E+04  0.10566000000E+00 0. -1.
        994   -1    0    0    0    0 -0.00000000000E+00 -0.00000000000E+00  0.11368683772E-12  0.17120000000E+03  0.17120000000E+03 0.  0.
         13    1    1    2    0    0  0.24032069293E+02  0.56996691639E+01  0.72109479960E+02  0.76222141450E+02  0.10566000000E+00 0. -1.
        994    1    1    2    0    0 -0.55708507221E+01 -0.12106748698E+01  0.44266461059E+01  0.17135207996E+03  0.17120000000E+03 0.  0.
        998    1    1    2    0    0 -0.18461218571E+02 -0.44889942941E+01  0.14234638702E+04  0.14236257786E+04  0.10000000000E+02 0. -1.
</event>
<event>
 5    1  0.1796476E-008  0.3707148E+03  0.7957747E-01  0.3492612E+00
         13   -1    0    0    0    0  0.00000000000E+00  0.00000000000E+00  0.14999999963E+04  0.15000000000E+04  0.10566000000E+00 0. -1.
        994   -1    0    0    0    0 -0.00000000000E+00 -0.00000000000E+00  0.11368683772E-12  0.17120000000E+03  0.17120000000E+03 0.  0.
         13    1    1    2    0    0 -0.14947188881E+03 -0.15437224413E+03  0.12058128201E+04  0.12248090478E+04  0.10566000000E+00 0. -1.
        994    1    1    2    0    0  0.14888471034E+03  0.13388845718E+03  0.15564785310E+03  0.30598769602E+03  0.17120000000E+03 0.  0.
        998    1    1    2    0    0  0.58717846446E+00  0.20483786950E+02  0.13853932311E+03  0.14040325621E+03  0.10000000000E+02 0. -1.
</event>
<event>
 5    1  0.1796476E-008  0.3855620E+03  0.7957747E-01  0.3427292E+00
         13   -1    0    0    0    0  0.00000000000E+00  0.00000000000E+00  0.14999999963E+04  0.15000000000E+04  0.10566000000E+00 0. -1.
        994   -1    0    0    0    0 -0.00000000000E+00 -0.00000000000E+00  0.11368683772E-12  0.17120000000E+03  0.17120000000E+03 0.  0.
         13    1    1    2    0    0  0.12152280084E+02 -0.15713642002E+01  0.63914584935E+02  0.65078663387E+02  0.10566000000E+00 0. -1.
        994    1    1    2    0    0  0.97355178951E+01 -0.92166826083E+01  0.19415976111E+01  0.17173507897E+03  0.17120000000E+03 0.  0.
        998    1    1    2    0    0 -0.21887797980E+02  0.10788046808E+02  0.14341438137E+04  0.14343862576E+04  0.10000000000E+02 0. -1.
</event>
<event>
 5    1  0.1796476E-008  0.3841806E+03  0.7957747E-01  0.3433155E+00
         13   -1    0    0    0    0  0.00000000000E+00  0.00000000000E+00  0.14999999963E+04  0.15000000000E+04  0.10566000000E+00 0.  1.
        994   -1    0    0    0    0 -0.00000000000E+00 -0.00000000000E+00  0.11368683772E-12  0.17120000000E+03  0.17120000000E+03 0.  0.
         13    1    1    2    0    0 -0.89127018900E+01 -0.22642562397E+02  0.13493598339E+03  0.13711255473E+03  0.10566000000E+00 0.  1.
        994    1    1    2    0    0  0.46475523789E+01  0.23552270605E+02  0.39401358896E+01  0.17291984809E+03  0.17120000000E+03 0.  0.
        998    1    1    2    0    0  0.42651495112E+01 -0.90970820841E+00  0.13611238770E+04  0.13611675972E+04  0.10000000000E+02 0.  1.
</event>
<event>
 5    1  0.1796476E-008  0.3537075E+03  0.7957747E-01  0.3574291E+00
         13   -1    0    0    0    0  0.00000000000E+00  0.00000000000E+00  0.14999999963E+04  0.15000000000E+04  0.10566000000E+00 0. -1.
        994   -1    0    0    0    0 -0.00000000000E+00 -0.00000000000E+00  0.11368683772E-12  0.17120000000E+03  0.17120000000E+03 0.  0.
         13    1    1    2    0    0  0.49426570882E+02 -0.28604891234E+03  0.89194974408E+03  0.93799857318E+03  0.10566000000E+00 0. -1.
        994    1    1    2    0    0 -0.68980456995E+02  0.25123953347E+03  0.33715679599E+03  0.45919903278E+03  0.17120000000E+03 0.  0.
        998    1    1    2    0    0  0.19553886113E+02  0.34809378870E+02  0.27089345621E+03  0.27400239403E+03  0.10000000000E+02 0. -1.
</event>
<event>
 5    1  0.1796476E-008  0.3792378E+03  0.7957747E-01  0.3454484E+00
         13   -1    0    0    0    0  0.00000000000E+00  0.00000000000E+00  0.14999999963E+04  0.15000000000E+04  0.10566000000E+00 0.  1.
        994   -1    0    0    0    0 -0.00000000000E+00 -0.00000000000E+00  0.11368683772E-12  0.17120000000E+03  0.17120000000E+03 0.  0.
         13    1    1    2    0    0 -0.11891562732E+03 -0.26234303694E+02  0.72773295179E+03  0.73785122173E+03  0.10566000000E+00 0.  1.
        994    1    1    2    0    0  0.12238031728E+03  0.36365385495E+02  0.61237798351E+02  0.22216861000E+03  0.17120000000E+03 0.  0.
        998    1    1    2    0    0 -0.34646899637E+01 -0.10131081802E+02  0.71102924613E+03  0.71118016828E+03  0.10000000000E+02 0.  1.
</event>
<event>
 5    1  0.1938256E-008  0.3862761E+03  0.7957747E-01  0.3424278E+00
         13   -1    0    0    0    0  0.00000000000E+00  0.00000000000E+00  0.14999999963E+04  0.15000000000E+04  0.10566000000E+00 0.  1.
        994   -1    0    0    0    0 -0.00000000000E+00 -0.00000000000E+00  0.11368683772E-12  0.17120000000E+03  0.17120000000E+03 0.  0.
         13    1    1    2    0    0 -0.47067332948E+01  0.96553266080E+01  0.59510023445E+02  0.60471751460E+02  0.10566000000E+00 0.  1.
        994    1    1    2    0    0 -0.33543200908E+01 -0.79634911301E+01  0.12424707668E+01  0.17142243840E+03  0.17120000000E+03 0.  0.
        998    1    1    2    0    0  0.80610533856E+01 -0.16918354779E+01  0.14392475021E+04  0.14393058101E+04  0.10000000000E+02 0.  1.
</event>
<event>
 5    1  0.1796476E-008  0.3791577E+03  0.7957747E-01  0.3454834E+00
         13   -1    0    0    0    0  0.00000000000E+00  0.00000000000E+00  0.14999999963E+04  0.15000000000E+04  0.10566000000E+00 0. -1.
        994   -1    0    0    0    0 -0.00000000000E+00 -0.00000000000E+00  0.11368683772E-12  0.17120000000E+03  0.17120000000E+03 0.  0.
         13    1    1    2    0    0 -0.12251000946E+02 -0.10674732603E+02  0.27195573956E+02  0.31680393734E+02  0.10566000000E+00 0. -1.
        994    1    1    2    0    0  0.87845567871E+01  0.50819141515E+01  0.49042698399E+01  0.17157064479E+03  0.17120000000E+03 0.  0.
        998    1    1    2    0    0  0.34664441586E+01  0.55928184511E+01  0.14679001525E+04  0.14679489615E+04  0.10000000000E+02 0. -1.
</event>
<event>
 5    1  0.1796476E-008  0.3726313E+03  0.7957747E-01  0.3483885E+00
         13   -1    0    0    0    0  0.00000000000E+00  0.00000000000E+00  0.14999999963E+04  0.15000000000E+04  0.10566000000E+00 0.  1.
        994   -1    0    0    0    0 -0.00000000000E+00 -0.00000000000E+00  0.11368683772E-12  0.17120000000E+03  0.17120000000E+03 0.  0.
         13    1    1    2    0    0  0.57557573263E+02 -0.12132741178E+02  0.16070209124E+03  0.17112933981E+03  0.10566000000E+00 0.  1.
        994    1    1    2    0    0  0.66602117611E+01  0.18717100750E+02  0.13730823534E+02  0.17289495018E+03  0.17120000000E+03 0.  0.
        998    1    1    2    0    0 -0.64217785024E+02 -0.65843595720E+01  0.13255670815E+04  0.13271757100E+04  0.10000000000E+02 0.  1.
</event>
<event>
 5    1  0.1796476E-008  0.3849189E+03  0.7957747E-01  0.3430016E+00
         13   -1    0    0    0    0  0.00000000000E+00  0.00000000000E+00  0.14999999963E+04  0.15000000000E+04  0.10566000000E+00 0.  1.
        994   -1    0    0    0    0 -0.00000000000E+00 -0.00000000000E+00  0.11368683772E-12  0.17120000000E+03  0.17120000000E+03 0.  0.
         13    1    1    2    0    0  0.10114307755E+01  0.14987955479E+02  0.73194334579E+02  0.74720034664E+02  0.10566000000E+00 0.  1.
        994    1    1    2    0    0  0.21921371758E+01  0.19613194746E+01  0.16988622763E+01  0.17123369520E+03  0.17120000000E+03 0.  0.
        998    1    1    2    0    0 -0.32035679513E+01 -0.16949274954E+02  0.14251067994E+04  0.14252462701E+04  0.10000000000E+02 0.  1.
</event>
<event>
 5    1  0.1796476E-008  0.3843995E+03  0.7957747E-01  0.3432223E+00
         13   -1    0    0    0    0  0.00000000000E+00  0.00000000000E+00  0.14999999963E+04  0.15000000000E+04  0.10566000000E+00 0. -1.
        994   -1    0    0    0    0 -0.00000000000E+00 -0.00000000000E+00  0.11368683772E-12  0.17120000000E+03  0.17120000000E+03 0.  0.
         13    1    1    2    0    0 -0.48321163598E+01 -0.21755387843E+02  0.12208681511E+03  0.12410418139E+03  0.10566000000E+00 0. -1.
        994    1    1    2    0    0  0.19152476533E+01  0.20261653783E+02  0.32945783910E+01  0.17243693640E+03  0.17120000000E+03 0.  0.
        998    1    1    2    0    0  0.29168687064E+01  0.14937340596E+01  0.13746186028E+04  0.13746588822E+04  0.10000000000E+02 0. -1.
</event>
<event>
 5    1  0.1796476E-008  0.3778567E+03  0.7957747E-01  0.3460544E+00
         13   -1    0    0    0    0  0.00000000000E+00  0.00000000000E+00  0.14999999963E+04  0.15000000000E+04  0.10566000000E+00 0. -1.
        994   -1    0    0    0    0 -0.00000000000E+00 -0.00000000000E+00  0.11368683772E-12  0.17120000000E+03  0.17120000000E+03 0.  0.
         13    1    1    2    0    0 -0.17062752181E+02 -0.68738807129E+02  0.34708697536E+03  0.35423938339E+03  0.10566000000E+00 0. -1.
        994    1    1    2    0    0 -0.17108602716E+02  0.86275007723E+02  0.31723642262E+02  0.19506898965E+03  0.17120000000E+03 0.  0.
        998    1    1    2    0    0  0.34171354897E+02 -0.17536200594E+02  0.11211893787E+04  0.11218916270E+04  0.10000000000E+02 0. -1.
</event>
<event>
 5    1  0.1796476E-008  0.3813380E+03  0.7957747E-01  0.3445353E+00
         13   -1    0    0    0    0  0.00000000000E+00  0.00000000000E+00  0.14999999963E+04  0.15000000000E+04  0.10566000000E+00 0. -1.
        994   -1    0    0    0    0 -0.00000000000E+00 -0.00000000000E+00  0.11368683772E-12  0.17120000000E+03  0.17120000000E+03 0.  0.
         13    1    1    2    0    0  0.12707988380E+02  0.11116322516E+02  0.39783413857E+02  0.43218014498E+02  0.10566000000E+00 0. -1.
        994    1    1    2    0    0 -0.77831919668E+01 -0.98170493535E+01  0.39817906992E+01  0.17170395217E+03  0.17120000000E+03 0.  0.
        998    1    1    2    0    0 -0.49247964131E+01 -0.12992731630E+01  0.14562347917E+04  0.14562780333E+04  0.10000000000E+02 0. -1.
</event>
<event>
 5    1  0.1796476E-008  0.3802464E+03  0.7957747E-01  0.3450086E+00
         13   -1    0    0    0    0  0.00000000000E+00  0.00000000000E+00  0.14999999963E+04  0.15000000000E+04  0.10566000000E+00 0.  1.
        994   -1    0    0    0    0 -0.00000000000E+00 -0.00000000000E+00  0.11368683772E-12  0.17120000000E+03  0.17120000000E+03 0.  0.
         13    1    1    2    0    0  0.86652438031E+01 -0.31395815804E+02  0.11005284226E+03  0.11477117650E+03  0.10566000000E+00 0.  1.
        994    1    1    2    0    0 -0.12868414704E+02  0.50351713638E+02  0.13083598179E+02  0.17939206143E+03  0.17120000000E+03 0.  0.
        998    1    1    2    0    0  0.42031709013E+01 -0.18955897834E+02  0.13768635558E+04  0.13770367621E+04  0.10000000000E+02 0.  1.
</event>
<event>
 5    1  0.1796476E-008  0.3840818E+03  0.7957747E-01  0.3433576E+00
         13   -1    0    0    0    0  0.00000000000E+00  0.00000000000E+00  0.14999999963E+04  0.15000000000E+04  0.10566000000E+00 0. -1.
        994   -1    0    0    0    0 -0.00000000000E+00 -0.00000000000E+00  0.11368683772E-12  0.17120000000E+03  0.17120000000E+03 0.  0.
         13    1    1    2    0    0 -0.19180691093E+02  0.90847602789E+01  0.10151078918E+03  0.10370575329E+03  0.10566000000E+00 0. -1.
        994    1    1    2    0    0  0.13209017442E+02 -0.23180987294E+02  0.44382027386E+01  0.17332332202E+03  0.17120000000E+03 0.  0.
        998    1    1    2    0    0  0.59716736517E+01  0.14096227015E+02  0.13940510044E+04  0.13941709247E+04  0.10000000000E+02 0. -1.
</event>
<event>
 5    1  0.1796476E-008  0.3823314E+03  0.7957747E-01  0.3441069E+00
         13   -1    0    0    0    0  0.00000000000E+00  0.00000000000E+00  0.14999999963E+04  0.15000000000E+04  0.10566000000E+00 0. -1.
        994   -1    0    0    0    0 -0.00000000000E+00 -0.00000000000E+00  0.11368683772E-12  0.17120000000E+03  0.17120000000E+03 0.  0.
         13    1    1    2    0    0  0.30441340406E+02 -0.65961303356E+01  0.16633030596E+03  0.16922164751E+03  0.10566000000E+00 0. -1.
        994    1    1    2    0    0 -0.14932106107E+02  0.51621839875E+01  0.37893649195E+01  0.17196922755E+03  0.17120000000E+03 0.  0.
        998    1    1    2    0    0 -0.15509234299E+02  0.14339463481E+01  0.13298803254E+04  0.13300091249E+04  0.10000000000E+02 0. -1.
</event>
<event>
 5    1  0.1796476E-008  0.3751029E+03  0.7957747E-01  0.3472762E+00
         13   -1    0    0    0    0  0.00000000000E+00  0.00000000000E+00  0.14999999963E+04  0.15000000000E+04  0.10566000000E+00 0.  1.
        994   -1    0    0    0    0 -0.00000000000E+00 -0.00000000000E+00  0.11368683772E-12  0.17120000000E+03  0.17120000000E+03 0.  0.
         13    1    1    2    0    0  0.69871171596E+01  0.58178379574E+02  0.27244353307E+03  0.27867370441E+03  0.10566000000E+00 0.  1.
        994    1    1    2    0    0  0.16692547705E+01 -0.25827823637E+02  0.89054187974E+01  0.17337418888E+03  0.17120000000E+03 0.  0.
        998    1    1    2    0    0 -0.86563719301E+01 -0.32350555937E+02  0.12186510444E+04  0.12191521067E+04  0.10000000000E+02 0. -1.
</event>
<event>
 5    1  0.1796476E-008  0.3792855E+03  0.7957747E-01  0.3454276E+00
         13   -1    0    0    0    0  0.00000000000E+00  0.00000000000E+00  0.14999999963E+04  0.15000000000E+04  0.10566000000E+00 0.  1.
        994   -1    0    0    0    0 -0.00000000000E+00 -0.00000000000E+00  0.11368683772E-12  0.17120000000E+03  0.17120000000E+03 0.  0.
         13    1    1    2    0    0  0.17315372545E+02 -0.19188005327E+02  0.74498132506E+02  0.78854198275E+02  0.10566000000E+00 0.  1.
        994    1    1    2    0    0 -0.45840686578E+02 -0.25425157022E+02  0.13757350058E+02  0.17957313785E+03  0.17120000000E+03 0.  0.
        998    1    1    2    0    0  0.28525314033E+02  0.44613162349E+02  0.14117445137E+04  0.14127726639E+04  0.10000000000E+02 0.  1.
</event>
<event>
 5    1  0.1796476E-008  0.2678415E+03  0.7957747E-01  0.4156225E+00
         13   -1    0    0    0    0  0.00000000000E+00  0.00000000000E+00  0.14999999963E+04  0.15000000000E+04  0.10566000000E+00 0. -1.
        994   -1    0    0    0    0 -0.00000000000E+00 -0.00000000000E+00  0.11368683772E-12  0.17120000000E+03  0.17120000000E+03 0.  0.
         13    1    1    2    0    0 -0.89278046988E+02  0.12202639765E+03  0.85652222767E+03  0.86976511143E+03  0.10566000000E+00 0. -1.
        994    1    1    2    0    0  0.46573126858E+02  0.85152004438E+02  0.10553444157E+03  0.22330893032E+03  0.17120000000E+03 0.  0.
        998    1    1    2    0    0  0.42704920130E+02 -0.20717840209E+03  0.53794332704E+03  0.57812595825E+03  0.10000000000E+02 0. -1.
</event>
<event>
 5    1  0.1796476E-008  0.3719560E+03  0.7957747E-01  0.3486950E+00
         13   -1    0    0    0    0  0.00000000000E+00  0.00000000000E+00  0.14999999963E+04  0.15000000000E+04  0.10566000000E+00 0.  1.
        994   -1    0    0    0    0 -0.00000000000E+00 -0.00000000000E+00  0.11368683772E-12  0.17120000000E+03  0.17120000000E+03 0.  0.
         13    1    1    2    0    0 -0.16144263232E+02  0.24822765280E+02  0.58330366362E+02  0.65415974467E+02  0.10566000000E+00 0.  1.
        994    1    1    2    0    0  0.21303560610E+01  0.37586598135E+02  0.13133595279E+02  0.17578174564E+03  0.17120000000E+03 0.  0.
        998    1    1    2    0    0  0.14013907171E+02 -0.62409363414E+02  0.14285360346E+04  0.14300022799E+04  0.10000000000E+02 0.  1.
</event>
<event>
 5    1  0.1796476E-008  0.3786284E+03  0.7957747E-01  0.3457152E+00
         13   -1    0    0    0    0  0.00000000000E+00  0.00000000000E+00  0.14999999963E+04  0.15000000000E+04  0.10566000000E+00 0. -1.
        994   -1    0    0    0    0 -0.00000000000E+00 -0.00000000000E+00  0.11368683772E-12  0.17120000000E+03  0.17120000000E+03 0.  0.
         13    1    1    2    0    0 -0.23083947173E+02  0.71816280223E+01  0.57026272923E+02  0.61939094001E+02  0.10566000000E+00 0. -1.
        994    1    1    2    0    0  0.21508855916E+02 -0.96739606871E+01  0.66972045915E+01  0.17294654939E+03  0.17120000000E+03 0.  0.
        998    1    1    2    0    0  0.15750912564E+01  0.24923326647E+01  0.14362765188E+04  0.14363143566E+04  0.10000000000E+02 0. -1.
</event>
<event>
 5    1  0.1796476E-008  0.3735907E+03  0.7957747E-01  0.3479550E+00
         13   -1    0    0    0    0  0.00000000000E+00  0.00000000000E+00  0.14999999963E+04  0.15000000000E+04  0.10566000000E+00 0.  1.
        994   -1    0    0    0    0 -0.00000000000E+00 -0.00000000000E+00  0.11368683772E-12  0.17120000000E+03  0.17120000000E+03 0.  0.
         13    1    1    2    0    0 -0.52713992974E+02 -0.30649347640E+02  0.26051934784E+03  0.26756025364E+03  0.10566000000E+00 0.  1.
        994    1    1    2    0    0  0.38820396857E+02 -0.90334316771E+01  0.12849484410E+02  0.17624748324E+03  0.17120000000E+03 0.  0.
        998    1    1    2    0    0  0.13893596118E+02  0.39682779317E+02  0.12266311640E+04  0.12273922631E+04  0.10000000000E+02 0.  1.
</event>
<event>
 5    1  0.1796476E-008  0.3769181E+03  0.7957747E-01  0.3464689E+00
         13   -1    0    0    0    0  0.00000000000E+00  0.00000000000E+00  0.14999999963E+04  0.15000000000E+04  0.10566000000E+00 0. -1.
        994   -1    0    0    0    0 -0.00000000000E+00 -0.00000000000E+00  0.11368683772E-12  0.17120000000E+03  0.17120000000E+03 0.  0.
         13    1    1    2    0    0  0.50112594609E+01 -0.30747207834E+02  0.84089169443E+02  0.89674428309E+02  0.10566000000E+00 0. -1.
        994    1    1    2    0    0 -0.13855568962E+01  0.16510827710E+02  0.66247367431E+01  0.17212743633E+03  0.17120000000E+03 0.  0.
        998    1    1    2    0    0 -0.36257025647E+01  0.14236380123E+02  0.14092860901E+04  0.14093981354E+04  0.10000000000E+02 0. -1.
</event>
<event>
 5    1  0.1796476E-008  0.3752319E+03  0.7957747E-01  0.3472186E+00
         13   -1    0    0    0    0  0.00000000000E+00  0.00000000000E+00  0.14999999963E+04  0.15000000000E+04  0.10566000000E+00 0.  1.
        994   -1    0    0    0    0 -0.00000000000E+00 -0.00000000000E+00  0.11368683772E-12  0.17120000000E+03  0.17120000000E+03 0.  0.
         13    1    1    2    0    0  0.23991377431E+02  0.75861774379E+01  0.49702630602E+02  0.55709056104E+02  0.10566000000E+00 0.  1.
        994    1    1    2    0    0  0.12608091388E+02 -0.67708665146E+01  0.72556075213E+01  0.17195026154E+03  0.17120000000E+03 0.  0.
        998    1    1    2    0    0 -0.36599468819E+02 -0.81531092329E+00  0.14430417582E+04  0.14435406824E+04  0.10000000000E+02 0.  1.
</event>
<event>
 5    1  0.1796476E-008  0.3768611E+03  0.7957747E-01  0.3464941E+00
         13   -1    0    0    0    0  0.00000000000E+00  0.00000000000E+00  0.14999999963E+04  0.15000000000E+04  0.10566000000E+00 0. -1.
        994   -1    0    0    0    0 -0.00000000000E+00 -0.00000000000E+00  0.11368683772E-12  0.17120000000E+03  0.17120000000E+03 0.  0.
         13    1    1    2    0    0 -0.41506705732E+02 -0.41446930353E+02  0.35278816718E+03  0.35763131396E+03  0.10566000000E+00 0. -1.
        994    1    1    2    0    0 -0.22351428609E+02  0.51681947193E+02  0.16512451914E+02  0.18097710102E+03  0.17120000000E+03 0.  0.
        998    1    1    2    0    0  0.63858134341E+02 -0.10235016841E+02  0.11306993772E+04  0.11325915850E+04  0.10000000000E+02 0. -1.
</event>
<event>
 5    1  0.1796476E-008  0.3852646E+03  0.7957747E-01  0.3428551E+00
         13   -1    0    0    0    0  0.00000000000E+00  0.00000000000E+00  0.14999999963E+04  0.15000000000E+04  0.10566000000E+00 0.  1.
        994   -1    0    0    0    0 -0.00000000000E+00 -0.00000000000E+00  0.11368683772E-12  0.17120000000E+03  0.17120000000E+03 0.  0.
         13    1    1    2    0    0 -0.73983194257E+01 -0.77721783272E+01  0.37176955322E+02  0.38694690299E+02  0.10566000000E+00 0.  1.
        994    1    1    2    0    0  0.85969710548E+01  0.10642512177E+02  0.21140576496E+01  0.17175878498E+03  0.17120000000E+03 0.  0.
        998    1    1    2    0    0 -0.11986516291E+01 -0.28703338497E+01  0.14607089833E+04  0.14607465247E+04  0.10000000000E+02 0.  1.
</event>
<event>
 5    1  0.1796476E-008  0.3791929E+03  0.7957747E-01  0.3454680E+00
         13   -1    0    0    0    0  0.00000000000E+00  0.00000000000E+00  0.14999999963E+04  0.15000000000E+04  0.10566000000E+00 0.  1.
        994   -1    0    0    0    0 -0.00000000000E+00 -0.00000000000E+00  0.11368683772E-12  0.17120000000E+03  0.17120000000E+03 0.  0.
         13    1    1    2    0    0 -0.18645640859E+02  0.77816530004E+01  0.41724285951E+02  0.46358831398E+02  0.10566000000E+00 0.  1.
        994    1    1    2    0    0  0.20493981051E+02 -0.12278585759E+02  0.64565841204E+01  0.17297946238E+03  0.17120000000E+03 0.  0.
        998    1    1    2    0    0 -0.18483401919E+01  0.44969327582E+01  0.14518191262E+04  0.14518617062E+04  0.10000000000E+02 0.  1.
</event>
<event>
 5    1  0.1796476E-008  0.3704492E+03  0.7957747E-01  0.3493829E+00
         13   -1    0    0    0    0  0.00000000000E+00  0.00000000000E+00  0.14999999963E+04  0.15000000000E+04  0.10566000000E+00 0. -1.
        994   -1    0    0    0    0 -0.00000000000E+00 -0.00000000000E+00  0.11368683772E-12  0.17120000000E+03  0.17120000000E+03 0.  0.
         13    1    1    2    0    0  0.60620686851E+02 -0.21906459579E+02  0.18973843618E+03  0.20038823812E+03  0.10566000000E+00 0. -1.
        994    1    1    2    0    0 -0.66201643723E+02  0.32512324878E+02  0.28055424502E+02  0.18851062502E+03  0.17120000000E+03 0.  0.
        998    1    1    2    0    0  0.55809568716E+01 -0.10605865299E+02  0.12822061356E+04  0.12823011369E+04  0.10000000000E+02 0. -1.
</event>
<event>
 5    1  0.1796476E-008  0.3858011E+03  0.7957747E-01  0.3426282E+00
         13   -1    0    0    0    0  0.00000000000E+00  0.00000000000E+00  0.14999999963E+04  0.15000000000E+04  0.10566000000E+00 0. -1.
        994   -1    0    0    0    0 -0.00000000000E+00 -0.00000000000E+00  0.11368683772E-12  0.17120000000E+03  0.17120000000E+03 0.  0.
         13    1    1    2    0    0  0.10643447687E+02 -0.64677231841E+01  0.62731753737E+02  0.63956223410E+02  0.10566000000E+00 0. -1.
        994    1    1    2    0    0 -0.12152822142E+02 -0.76843232550E+00  0.17194576825E+01  0.17164113175E+03  0.17120000000E+03 0.  0.
        998    1    1    2    0    0  0.15093744544E+01  0.72361555096E+01  0.14355487849E+04  0.14356026448E+04  0.10000000000E+02 0. -1.
</event>
<event>
 5    1  0.1796476E-008  0.3849905E+03  0.7957747E-01  0.3429713E+00
         13   -1    0    0    0    0  0.00000000000E+00  0.00000000000E+00  0.14999999963E+04  0.15000000000E+04  0.10566000000E+00 0.  1.
        994   -1    0    0    0    0 -0.00000000000E+00 -0.00000000000E+00  0.11368683772E-12  0.17120000000E+03  0.17120000000E+03 0.  0.
         13    1    1    2    0    0  0.44281986443E+01 -0.22321027109E+02  0.12996340932E+03  0.13194065378E+03  0.10566000000E+00 0.  1.
        994    1    1    2    0    0 -0.12065189700E+02  0.35282499685E+02  0.62210427534E+01  0.17532417106E+03  0.17120000000E+03 0.  0.
        998    1    1    2    0    0  0.76369910562E+01 -0.12961472575E+02  0.13638155442E+04  0.13639351752E+04  0.10000000000E+02 0.  1.
</event>
<event>
 5    1  0.1796476E-008  0.3746214E+03  0.7957747E-01  0.3474918E+00
         13   -1    0    0    0    0  0.00000000000E+00  0.00000000000E+00  0.14999999963E+04  0.15000000000E+04  0.10566000000E+00 0.  1.
        994   -1    0    0    0    0 -0.00000000000E+00 -0.00000000000E+00  0.11368683772E-12  0.17120000000E+03  0.17120000000E+03 0.  0.
         13    1    1    2    0    0 -0.24025262464E+02 -0.67227025011E+02  0.20540900923E+03  0.21746162504E+03  0.10566000000E+00 0.  1.
        994    1    1    2    0    0 -0.27455914358E+02  0.33720154797E+02  0.20153299695E+02  0.17778209010E+03  0.17120000000E+03 0.  0.
        998    1    1    2    0    0  0.51481176822E+02  0.33506870214E+02  0.12744376874E+04  0.12759562849E+04  0.10000000000E+02 0.  1.
</event>
<event>
 5    1  0.1796476E-008  0.3827476E+03  0.7957747E-01  0.3439282E+00
         13   -1    0    0    0    0  0.00000000000E+00  0.00000000000E+00  0.14999999963E+04  0.15000000000E+04  0.10566000000E+00 0.  1.
        994   -1    0    0    0    0 -0.00000000000E+00 -0.00000000000E+00  0.11368683772E-12  0.17120000000E+03  0.17120000000E+03 0.  0.
         13    1    1    2    0    0 -0.66276086732E+01  0.10489101411E+02  0.26567077057E+02  0.29321786995E+02  0.10566000000E+00 0.  1.
        994    1    1    2    0    0  0.10124358242E+02 -0.91234981307E+01  0.33681459148E+01  0.17177463507E+03  0.17120000000E+03 0.  0.
        998    1    1    2    0    0 -0.34967495690E+01 -0.13656032807E+01  0.14700647733E+04  0.14701035779E+04  0.10000000000E+02 0.  1.
</event>
<event>
 5    1  0.1796476E-008  0.3849045E+03  0.7957747E-01  0.3430077E+00
         13   -1    0    0    0    0  0.00000000000E+00  0.00000000000E+00  0.14999999963E+04  0.15000000000E+04  0.10566000000E+00 0. -1.
        994   -1    0    0    0    0 -0.00000000000E+00 -0.00000000000E+00  0.11368683772E-12  0.17120000000E+03  0.17120000000E+03 0.  0.
         13    1    1    2    0    0 -0.12326194930E+02 -0.16296600320E+01  0.48540738011E+02  0.50107936337E+02  0.10566000000E+00 0. -1.
        994    1    1    2    0    0 -0.18157855078E+01  0.10025623273E+01  0.16917117800E+01  0.17122092190E+03  0.17120000000E+03 0.  0.
        998    1    1    2    0    0  0.14141980438E+02  0.62709770462E+00  0.14497675465E+04  0.14498711418E+04  0.10000000000E+02 0. -1.
</event>
<event>
 5    1  0.1796476E-008  0.3835801E+03  0.7957747E-01  0.3435716E+00
         13   -1    0    0    0    0  0.00000000000E+00  0.00000000000E+00  0.14999999963E+04  0.15000000000E+04  0.10566000000E+00 0.  1.
        994   -1    0    0    0    0 -0.00000000000E+00 -0.00000000000E+00  0.11368683772E-12  0.17120000000E+03  0.17120000000E+03 0.  0.
         13    1    1    2    0    0  0.12076635210E+02  0.32130914692E+01  0.33225566567E+02  0.35498148015E+02  0.10566000000E+00 0.  1.
        994    1    1    2    0    0 -0.47087315034E+01 -0.22941574971E+00  0.24101508158E+01  0.17128185430E+03  0.17120000000E+03 0.  0.
        998    1    1    2    0    0 -0.73679037063E+01 -0.29836757194E+01  0.14643642789E+04  0.14644199977E+04  0.10000000000E+02 0.  1.
</event>
<event>
 5    1  0.1796476E-008  0.3833119E+03  0.7957747E-01  0.3436863E+00
         13   -1    0    0    0    0  0.00000000000E+00  0.00000000000E+00  0.14999999963E+04  0.15000000000E+04  0.10566000000E+00 0. -1.
        994   -1    0    0    0    0 -0.00000000000E+00 -0.00000000000E+00  0.11368683772E-12  0.17120000000E+03  0.17120000000E+03 0.  0.
         13    1    1    2    0    0 -0.37002372277E+01 -0.15743052042E+02  0.44712356580E+02  0.47547254790E+02  0.10566000000E+00 0. -1.
        994    1    1    2    0    0  0.16091370862E+02  0.43900260101E+02  0.97335086043E+01  0.17773673296E+03  0.17120000000E+03 0.  0.
        998    1    1    2    0    0 -0.12391133634E+02 -0.28157208060E+02  0.14455541311E+04  0.14459160123E+04  0.10000000000E+02 0. -1.
</event>
<event>
 5    1  0.1796476E-008  0.3857167E+03  0.7957747E-01  0.3426638E+00
         13   -1    0    0    0    0  0.00000000000E+00  0.00000000000E+00  0.14999999963E+04  0.15000000000E+04  0.10566000000E+00 0. -1.
        994   -1    0    0    0    0 -0.00000000000E+00 -0.00000000000E+00  0.11368683772E-12  0.17120000000E+03  0.17120000000E+03 0.  0.
         13    1    1    2    0    0  0.11427045745E+02  0.37865247986E+01  0.60255518528E+02  0.61446349132E+02  0.10566000000E+00 0. -1.
        994    1    1    2    0    0  0.14888529671E+00 -0.27450687209E+01  0.12995426571E+01  0.17122700249E+03  0.17120000000E+03 0.  0.
        998    1    1    2    0    0 -0.11575931042E+02 -0.10414560777E+01  0.14384449351E+04  0.14385266484E+04  0.10000000000E+02 0. -1.
</event>
<event>
 5    1  0.1796476E-008  0.3852367E+03  0.7957747E-01  0.3428669E+00
         13   -1    0    0    0    0  0.00000000000E+00  0.00000000000E+00  0.14999999963E+04  0.15000000000E+04  0.10566000000E+00 0. -1.
        994   -1    0    0    0    0 -0.00000000000E+00 -0.00000000000E+00  0.11368683772E-12  0.17120000000E+03  0.17120000000E+03 0.  0.
         13    1    1    2    0    0  0.14008182513E+02  0.61463985744E+01  0.79935266195E+02  0.81385903807E+02  0.10566000000E+00 0. -1.
        994    1    1    2    0    0 -0.41105996547E+01 -0.51836701099E+01  0.16565280454E+01  0.17133578596E+03  0.17120000000E+03 0.  0.
        998    1    1    2    0    0 -0.98975828587E+01 -0.96272846446E+00  0.14184082020E+04  0.14184783102E+04  0.10000000000E+02 0. -1.
</event>
<event>
 5    1  0.1796476E-008  0.3716008E+03  0.7957747E-01  0.3488566E+00
         13   -1    0    0    0    0  0.00000000000E+00  0.00000000000E+00  0.14999999963E+04  0.15000000000E+04  0.10566000000E+00 0.  1.
        994   -1    0    0    0    0 -0.00000000000E+00 -0.00000000000E+00  0.11368683772E-12  0.17120000000E+03  0.17120000000E+03 0.  0.
         13    1    1    2    0    0 -0.16515546673E+03 -0.22082276768E+02  0.57384556849E+03  0.59754723895E+03  0.10566000000E+00 0.  1.
        994    1    1    2    0    0  0.17695185959E+03  0.20936509158E+02  0.13352423766E+03  0.28087089573E+03  0.17120000000E+03 0.  0.
        998    1    1    2    0    0 -0.11796392857E+02  0.11457676098E+01  0.79263019013E+03  0.79278186532E+03  0.10000000000E+02 0.  1.
</event>
<event>
 5    1  0.1796476E-008  0.3854613E+03  0.7957747E-01  0.3427718E+00
         13   -1    0    0    0    0  0.00000000000E+00  0.00000000000E+00  0.14999999963E+04  0.15000000000E+04  0.10566000000E+00 0.  1.
        994   -1    0    0    0    0 -0.00000000000E+00 -0.00000000000E+00  0.11368683772E-12  0.17120000000E+03  0.17120000000E+03 0.  0.
         13    1    1    2    0    0  0.12050164385E+02 -0.53508751697E+01  0.65021606593E+02  0.66344998415E+02  0.10566000000E+00 0.  1.
        994    1    1    2    0    0 -0.65209407579E+00  0.48620069138E+01  0.14803274780E+01  0.17127666422E+03  0.17120000000E+03 0.  0.
        998    1    1    2    0    0 -0.11398070309E+02  0.48886825596E+00  0.14334980622E+04  0.14335783374E+04  0.10000000000E+02 0.  1.
</event>
<event>
 5    1  0.1796476E-008  0.3854139E+03  0.7957747E-01  0.3427919E+00
         13   -1    0    0    0    0  0.00000000000E+00  0.00000000000E+00  0.14999999963E+04  0.15000000000E+04  0.10566000000E+00 0. -1.
        994   -1    0    0    0    0 -0.00000000000E+00 -0.00000000000E+00  0.11368683772E-12  0.17120000000E+03  0.17120000000E+03 0.  0.
         13    1    1    2    0    0 -0.92611017325E+00 -0.12310450222E+02  0.54683953638E+02  0.56060242724E+02  0.10566000000E+00 0. -1.
        994    1    1    2    0    0 -0.10214884161E+01  0.53697611874E+01  0.15229195090E+01  0.17129400765E+03  0.17120000000E+03 0.  0.
        998    1    1    2    0    0  0.19475985894E+01  0.69406890348E+01  0.14437931231E+04  0.14438457496E+04  0.10000000000E+02 0. -1.
</event>
<event>
 5    1  0.1796476E-008  0.3773915E+03  0.7957747E-01  0.3462596E+00
         13   -1    0    0    0    0  0.00000000000E+00  0.00000000000E+00  0.14999999963E+04  0.15000000000E+04  0.10566000000E+00 0.  1.
        994   -1    0    0    0    0 -0.00000000000E+00 -0.00000000000E+00  0.11368683772E-12  0.17120000000E+03  0.17120000000E+03 0.  0.
         13    1    1    2    0    0 -0.55067192774E+02  0.57361849909E+02  0.23071770651E+03  0.24403575314E+03  0.10566000000E+00 0.  1.
        994    1    1    2    0    0  0.68504613237E+02  0.26278812848E+02  0.34487018472E+02  0.18942611352E+03  0.17120000000E+03 0.  0.
        998    1    1    2    0    0 -0.13437420462E+02 -0.83640662757E+02  0.12347952713E+04  0.12377381333E+04  0.10000000000E+02 0.  1.
</event>
<event>
 5    1  0.1796476E-008  0.3724072E+03  0.7957747E-01  0.3484901E+00
         13   -1    0    0    0    0  0.00000000000E+00  0.00000000000E+00  0.14999999963E+04  0.15000000000E+04  0.10566000000E+00 0. -1.
        994   -1    0    0    0    0 -0.00000000000E+00 -0.00000000000E+00  0.11368683772E-12  0.17120000000E+03  0.17120000000E+03 0.  0.
         13    1    1    2    0    0  0.93143023852E+00  0.40658022379E+02  0.87715427049E+02  0.96684795353E+02  0.10566000000E+00 0. -1.
        994    1    1    2    0    0  0.33142129158E+02 -0.62104854729E+02  0.25205453018E+02  0.18681586808E+03  0.17120000000E+03 0.  0.
        998    1    1    2    0    0 -0.34073559397E+02  0.21446832350E+02  0.13870791162E+04  0.13876993366E+04  0.10000000000E+02 0. -1.
</event>
<event>
 5    1  0.1796476E-008  0.2741935E+03  0.7957747E-01  0.4099424E+00
         13   -1    0    0    0    0  0.00000000000E+00  0.00000000000E+00  0.14999999963E+04  0.15000000000E+04  0.10566000000E+00 0.  1.
        994   -1    0    0    0    0 -0.00000000000E+00 -0.00000000000E+00  0.11368683772E-12  0.17120000000E+03  0.17120000000E+03 0.  0.
         13    1    1    2    0    0 -0.14838718903E+03  0.16737358820E+03  0.73471319104E+03  0.76800791672E+03  0.10566000000E+00 0.  1.
        994    1    1    2    0    0  0.31621411563E+02 -0.43863838172E+02  0.79085232766E+02  0.19618324090E+03  0.17120000000E+03 0.  0.
        998    1    1    2    0    0  0.11676577747E+03 -0.12350975003E+03  0.68620157247E+03  0.70700884238E+03  0.10000000000E+02 0.  1.
</event>
<event>
 5    1  0.1796476E-008  0.3730454E+03  0.7957747E-01  0.3482011E+00
         13   -1    0    0    0    0  0.00000000000E+00  0.00000000000E+00  0.14999999963E+04  0.15000000000E+04  0.10566000000E+00 0.  1.
        994   -1    0    0    0    0 -0.00000000000E+00 -0.00000000000E+00  0.11368683772E-12  0.17120000000E+03  0.17120000000E+03 0.  0.
         13    1    1    2    0    0 -0.41622743505E+02  0.86352493496E+02  0.37312795452E+03  0.38524497079E+03  0.10566000000E+00 0.  1.
        994    1    1    2    0    0  0.17697427540E+02 -0.48499214120E+02  0.22037206828E+02  0.18016784174E+03  0.17120000000E+03 0.  0.
        998    1    1    2    0    0  0.23925315965E+02 -0.37853279376E+02  0.11048348349E+04  0.11057871875E+04  0.10000000000E+02 0.  1.
</event>
<event>
 5    1  0.1796476E-008  0.3851487E+03  0.7957747E-01  0.3429042E+00
         13   -1    0    0    0    0  0.00000000000E+00  0.00000000000E+00  0.14999999963E+04  0.15000000000E+04  0.10566000000E+00 0.  1.
        994   -1    0    0    0    0 -0.00000000000E+00 -0.00000000000E+00  0.11368683772E-12  0.17120000000E+03  0.17120000000E+03 0.  0.
         13    1    1    2    0    0  0.11714984568E+02  0.75150063138E+01  0.63587905946E+02  0.65093387759E+02  0.10566000000E+00 0.  1.
        994    1    1    2    0    0 -0.63382531515E+01 -0.13964529593E+01  0.16948115182E+01  0.17133136292E+03  0.17120000000E+03 0.  0.
        998    1    1    2    0    0 -0.53767314162E+01 -0.61185533545E+01  0.14347172788E+04  0.14347752493E+04  0.10000000000E+02 0.  1.
</event>
<event>
 5    1  0.1796476E-008  0.3731189E+03  0.7957747E-01  0.3481679E+00
         13   -1    0    0    0    0  0.00000000000E+00  0.00000000000E+00  0.14999999963E+04  0.15000000000E+04  0.10566000000E+00 0.  1.
        994   -1    0    0    0    0 -0.00000000000E+00 -0.00000000000E+00  0.11368683772E-12  0.17120000000E+03  0.17120000000E+03 0.  0.
         13    1    1    2    0    0 -0.14742175539E+03 -0.35932033173E+02  0.75043955143E+03  0.76562642097E+03  0.10566000000E+00 0.  1.
        994    1    1    2    0    0  0.14012847471E+03  0.39863243515E+02  0.84144372105E+02  0.24003079587E+03  0.17120000000E+03 0.  0.
        998    1    1    2    0    0  0.72932806818E+01 -0.39312103427E+01  0.66541607274E+03  0.66554278316E+03  0.10000000000E+02 0.  1.
</event>
<event>
 5    1  0.1796476E-008  0.3809355E+03  0.7957747E-01  0.3447095E+00
         13   -1    0    0    0    0  0.00000000000E+00  0.00000000000E+00  0.14999999963E+04  0.15000000000E+04  0.10566000000E+00 0.  1.
        994   -1    0    0    0    0 -0.00000000000E+00 -0.00000000000E+00  0.11368683772E-12  0.17120000000E+03  0.17120000000E+03 0.  0.
         13    1    1    2    0    0  0.13625165655E+03  0.69676460283E+02  0.52877638171E+03  0.55047597227E+03  0.10566000000E+00 0.  1.
        994    1    1    2    0    0 -0.11775696361E+03 -0.46419570390E+02  0.77692399395E+02  0.22664295250E+03  0.17120000000E+03 0.  0.
        998    1    1    2    0    0 -0.18494692948E+02 -0.23256889893E+02  0.89353121518E+03  0.89408107523E+03  0.10000000000E+02 0.  1.
</event>
<event>
 5    1  0.1796476E-008  0.3822604E+03  0.7957747E-01  0.3441375E+00
         13   -1    0    0    0    0  0.00000000000E+00  0.00000000000E+00  0.14999999963E+04  0.15000000000E+04  0.10566000000E+00 0. -1.
        994   -1    0    0    0    0 -0.00000000000E+00 -0.00000000000E+00  0.11368683772E-12  0.17120000000E+03  0.17120000000E+03 0.  0.
         13    1    1    2    0    0 -0.15795916878E+02  0.10938837577E+02  0.61907447996E+02  0.64820617392E+02  0.10566000000E+00 0. -1.
        994    1    1    2    0    0  0.26581712586E+01 -0.10250096887E+02  0.33685737681E+01  0.17156024496E+03  0.17120000000E+03 0.  0.
        998    1    1    2    0    0  0.13137745620E+02 -0.68874069012E+00  0.14347239745E+04  0.14348191377E+04  0.10000000000E+02 0. -1.
</event>
<event>
 5    1  0.1796476E-008  0.3986108E+03  0.7957747E-01  0.3373921E+00
         13   -1    0    0    0    0  0.00000000000E+00  0.00000000000E+00  0.14999999963E+04  0.15000000000E+04  0.10566000000E+00 0. -1.
        994   -1    0    0    0    0 -0.00000000000E+00 -0.00000000000E+00  0.11368683772E-12  0.17120000000E+03  0.17120000000E+03 0.  0.
         13    1    1    2    0    0  0.10502691104E+03  0.57133692642E+02  0.30105351032E+03  0.32392613065E+03  0.10566000000E+00 0. -1.
        994    1    1    2    0    0 -0.46477903609E+02 -0.15772651438E+01  0.35416025935E+02  0.18090444489E+03  0.17120000000E+03 0.  0.
        998    1    1    2    0    0 -0.58549007428E+02 -0.55556427498E+02  0.11635304600E+04  0.11663694245E+04  0.10000000000E+02 0. -1.
</event>
<event>
 5    1  0.1796476E-008  0.3753616E+03  0.7957747E-01  0.3471607E+00
         13   -1    0    0    0    0  0.00000000000E+00  0.00000000000E+00  0.14999999963E+04  0.15000000000E+04  0.10566000000E+00 0. -1.
        994   -1    0    0    0    0 -0.00000000000E+00 -0.00000000000E+00  0.11368683772E-12  0.17120000000E+03  0.17120000000E+03 0.  0.
         13    1    1    2    0    0 -0.34643049466E+02  0.55695231975E+00  0.99561859316E+02  0.10541833838E+03  0.10566000000E+00 0. -1.
        994    1    1    2    0    0 -0.16366630999E+01  0.11982950065E+02  0.69898945425E+01  0.17176893894E+03  0.17120000000E+03 0.  0.
        998    1    1    2    0    0  0.36279712566E+02 -0.12539902385E+02  0.13934482424E+04  0.13940127227E+04  0.10000000000E+02 0. -1.
</event>
<event>
 5    1  0.1796476E-008  0.3820796E+03  0.7957747E-01  0.3442153E+00
         13   -1    0    0    0    0  0.00000000000E+00  0.00000000000E+00  0.14999999963E+04  0.15000000000E+04  0.10566000000E+00 0.  1.
        994   -1    0    0    0    0 -0.00000000000E+00 -0.00000000000E+00  0.11368683772E-12  0.17120000000E+03  0.17120000000E+03 0.  0.
         13    1    1    2    0    0 -0.34330873104E+01 -0.12071059305E+02  0.24080518266E+02  0.27154724915E+02  0.10566000000E+00 0.  1.
        994    1    1    2    0    0  0.10009762452E+02  0.96329945261E+01  0.37280408046E+01  0.17180316707E+03  0.17120000000E+03 0.  0.
        998    1    1    2    0    0 -0.65766751414E+01  0.24380647790E+01  0.14721914372E+04  0.14722421080E+04  0.10000000000E+02 0.  1.
</event>
<event>
 5    1  0.1796476E-008  0.3693358E+03  0.7957747E-01  0.3498949E+00
         13   -1    0    0    0    0  0.00000000000E+00  0.00000000000E+00  0.14999999963E+04  0.15000000000E+04  0.10566000000E+00 0.  1.
        994   -1    0    0    0    0 -0.00000000000E+00 -0.00000000000E+00  0.11368683772E-12  0.17120000000E+03  0.17120000000E+03 0.  0.
         13    1    1    2    0    0  0.12394928871E+02  0.72275100430E+02  0.21862733899E+03  0.23059759089E+03  0.10566000000E+00 0.  1.
        994    1    1    2    0    0 -0.21547713544E+02 -0.67052986617E+02  0.28095469711E+02  0.18724102753E+03  0.17120000000E+03 0.  0.
        998    1    1    2    0    0  0.91527846735E+01 -0.52221138128E+01  0.12532771876E+04  0.12533613816E+04  0.10000000000E+02 0.  1.
</event>
<event>
 5    1  0.1796476E-008  0.3841419E+03  0.7957747E-01  0.3433320E+00
         13   -1    0    0    0    0  0.00000000000E+00  0.00000000000E+00  0.14999999963E+04  0.15000000000E+04  0.10566000000E+00 0. -1.
        994   -1    0    0    0    0 -0.00000000000E+00 -0.00000000000E+00  0.11368683772E-12  0.17120000000E+03  0.17120000000E+03 0.  0.
         13    1    1    2    0    0 -0.13874427998E+02  0.68742126975E+01  0.56348899123E+02  0.58437694589E+02  0.10566000000E+00 0. -1.
        994    1    1    2    0    0  0.16128247076E+02 -0.19624402388E+01  0.29277690082E+01  0.17199413757E+03  0.17120000000E+03 0.  0.
        998    1    1    2    0    0 -0.22538190779E+01 -0.49117724587E+01  0.14407233281E+04  0.14407681678E+04  0.10000000000E+02 0. -1.
</event>
<event>
 5    1  0.1796476E-008  0.3764827E+03  0.7957747E-01  0.3466618E+00
         13   -1    0    0    0    0  0.00000000000E+00  0.00000000000E+00  0.14999999963E+04  0.15000000000E+04  0.10566000000E+00 0. -1.
        994   -1    0    0    0    0 -0.00000000000E+00 -0.00000000000E+00  0.11368683772E-12  0.17120000000E+03  0.17120000000E+03 0.  0.
         13    1    1    2    0    0 -0.33069045513E+02 -0.17675214926E+02  0.11014223127E+03  0.11634989157E+03  0.10566000000E+00 0. -1.
        994    1    1    2    0    0  0.31012341379E+02  0.16515841306E+02  0.10106230407E+02  0.17506031596E+03  0.17120000000E+03 0.  0.
        998    1    1    2    0    0  0.20567041341E+01  0.11593736199E+01  0.13797515346E+04  0.13797897925E+04  0.10000000000E+02 0. -1.
</event>
<event>
 5    1  0.1796476E-008  0.3695986E+03  0.7957747E-01  0.3497738E+00
         13   -1    0    0    0    0  0.00000000000E+00  0.00000000000E+00  0.14999999963E+04  0.15000000000E+04  0.10566000000E+00 0.  1.
        994   -1    0    0    0    0 -0.00000000000E+00 -0.00000000000E+00  0.11368683772E-12  0.17120000000E+03  0.17120000000E+03 0.  0.
         13    1    1    2    0    0  0.35928098058E+02 -0.73843830434E+01  0.67842353525E+02  0.77122976077E+02  0.10566000000E+00 0.  1.
        994    1    1    2    0    0 -0.21314315984E+02  0.61336312225E+01  0.11184116950E+02  0.17299261825E+03  0.17120000000E+03 0.  0.
        998    1    1    2    0    0 -0.14613782075E+02  0.12507518209E+01  0.14209735258E+04  0.14210844057E+04  0.10000000000E+02 0.  1.
</event>
<event>
 5    1  0.1796476E-008  0.3844890E+03  0.7957747E-01  0.3431842E+00
         13   -1    0    0    0    0  0.00000000000E+00  0.00000000000E+00  0.14999999963E+04  0.15000000000E+04  0.10566000000E+00 0. -1.
        994   -1    0    0    0    0 -0.00000000000E+00 -0.00000000000E+00  0.11368683772E-12  0.17120000000E+03  0.17120000000E+03 0.  0.
         13    1    1    2    0    0 -0.19381591661E+02  0.57559526652E+01  0.10415407693E+03  0.10609835056E+03  0.10566000000E+00 0. -1.
        994    1    1    2    0    0  0.17314787691E+02 -0.46260908465E+01  0.29428465506E+01  0.17216068929E+03  0.17120000000E+03 0.  0.
        998    1    1    2    0    0  0.20668039696E+01 -0.11298618187E+01  0.13929030728E+04  0.13929409602E+04  0.10000000000E+02 0. -1.
</event>
<event>
 5    1  0.1796476E-008  0.3725499E+03  0.7957747E-01  0.3484253E+00
         13   -1    0    0    0    0  0.00000000000E+00  0.00000000000E+00  0.14999999963E+04  0.15000000000E+04  0.10566000000E+00 0. -1.
        994   -1    0    0    0    0 -0.00000000000E+00 -0.00000000000E+00  0.11368683772E-12  0.17120000000E+03  0.17120000000E+03 0.  0.
         13    1    1    2    0    0 -0.20436637565E+02 -0.60320222111E+02  0.37480262324E+03  0.38017522658E+03  0.10566000000E+00 0. -1.
        994    1    1    2    0    0 -0.18702415468E+02 -0.27634111839E+01  0.91683166516E+01  0.17248453501E+03  0.17120000000E+03 0.  0.
        998    1    1    2    0    0  0.39139053033E+02  0.63083633295E+02  0.11160290564E+04  0.11185402384E+04  0.10000000000E+02 0. -1.
</event>
<event>
 5    1  0.1796476E-008  0.3825028E+03  0.7957747E-01  0.3440333E+00
         13   -1    0    0    0    0  0.00000000000E+00  0.00000000000E+00  0.14999999963E+04  0.15000000000E+04  0.10566000000E+00 0.  1.
        994   -1    0    0    0    0 -0.00000000000E+00 -0.00000000000E+00  0.11368683772E-12  0.17120000000E+03  0.17120000000E+03 0.  0.
         13    1    1    2    0    0 -0.74075062071E+01  0.18953104079E+02  0.77176261415E+02  0.79814020025E+02  0.10566000000E+00 0.  1.
        994    1    1    2    0    0  0.25762031497E+01  0.33994198805E+01  0.29353938571E+01  0.17127828063E+03  0.17120000000E+03 0.  0.
        998    1    1    2    0    0  0.48313030573E+01 -0.22352523959E+02  0.14198883410E+04  0.14201076993E+04  0.10000000000E+02 0.  1.
</event>
<event>
 5    1  0.1796476E-008  0.3778261E+03  0.7957747E-01  0.3460679E+00
         13   -1    0    0    0    0  0.00000000000E+00  0.00000000000E+00  0.14999999963E+04  0.15000000000E+04  0.10566000000E+00 0.  1.
        994   -1    0    0    0    0 -0.00000000000E+00 -0.00000000000E+00  0.11368683772E-12  0.17120000000E+03  0.17120000000E+03 0.  0.
         13    1    1    2    0    0 -0.83055680428E+01  0.53657022432E+02  0.93817773182E+02  0.10839669850E+03  0.10566000000E+00 0.  1.
        994    1    1    2    0    0 -0.11583705531E+02 -0.32727554577E+02  0.19483301425E+02  0.17576778458E+03  0.17120000000E+03 0.  0.
        998    1    1    2    0    0  0.19889273574E+02 -0.20929467855E+02  0.13866989217E+04  0.13870355169E+04  0.10000000000E+02 0.  1.
</event>
<event>
 5    1  0.1796476E-008  0.3852808E+03  0.7957747E-01  0.3428482E+00
         13   -1    0    0    0    0  0.00000000000E+00  0.00000000000E+00  0.14999999963E+04  0.15000000000E+04  0.10566000000E+00 0.  1.
        994   -1    0    0    0    0 -0.00000000000E+00 -0.00000000000E+00  0.11368683772E-12  0.17120000000E+03  0.17120000000E+03 0.  0.
         13    1    1    2    0    0 -0.63293648669E+01  0.84102117942E+01  0.38053810457E+02  0.39482859273E+02  0.10566000000E+00 0.  1.
        994    1    1    2    0    0  0.26932007785E+01 -0.92026798687E+00  0.15173925779E+01  0.17123037903E+03  0.17120000000E+03 0.  0.
        998    1    1    2    0    0  0.36361640884E+01 -0.74899438074E+01  0.14604287932E+04  0.14604867617E+04  0.10000000000E+02 0.  1.
</event>
<event>
 5    1  0.1796476E-008  0.3775995E+03  0.7957747E-01  0.3461678E+00
         13   -1    0    0    0    0  0.00000000000E+00  0.00000000000E+00  0.14999999963E+04  0.15000000000E+04  0.10566000000E+00 0.  1.
        994   -1    0    0    0    0 -0.00000000000E+00 -0.00000000000E+00  0.11368683772E-12  0.17120000000E+03  0.17120000000E+03 0.  0.
         13    1    1    2    0    0  0.31280019049E+02  0.45312887726E+01  0.10460208379E+03  0.10927295761E+03  0.10566000000E+00 0.  1.
        994    1    1    2    0    0  0.10595689743E+02 -0.13099634682E+02  0.63069476945E+01  0.17214263464E+03  0.17120000000E+03 0.  0.
        998    1    1    2    0    0 -0.41875708792E+02  0.85683459092E+01  0.13890909648E+04  0.13897844077E+04  0.10000000000E+02 0.  1.
</event>
<event>
 5    1  0.1796476E-008  0.3843923E+03  0.7957747E-01  0.3432254E+00
         13   -1    0    0    0    0  0.00000000000E+00  0.00000000000E+00  0.14999999963E+04  0.15000000000E+04  0.10566000000E+00 0.  1.
        994   -1    0    0    0    0 -0.00000000000E+00 -0.00000000000E+00  0.11368683772E-12  0.17120000000E+03  0.17120000000E+03 0.  0.
         13    1    1    2    0    0 -0.11530359407E+02 -0.28800744044E+02  0.17743752468E+03  0.18012917135E+03  0.10566000000E+00 0.  1.
        994    1    1    2    0    0 -0.61134578719E+01  0.63643200978E+02  0.15520307508E+02  0.18340706459E+03  0.17120000000E+03 0.  0.
        998    1    1    2    0    0  0.17643817279E+02 -0.34842456934E+02  0.13070421641E+04  0.13076637641E+04  0.10000000000E+02 0.  1.
</event>
<event>
 5    1  0.1796476E-008  0.3857631E+03  0.7957747E-01  0.3426442E+00
         13   -1    0    0    0    0  0.00000000000E+00  0.00000000000E+00  0.14999999963E+04  0.15000000000E+04  0.10566000000E+00 0.  1.
        994   -1    0    0    0    0 -0.00000000000E+00 -0.00000000000E+00  0.11368683772E-12  0.17120000000E+03  0.17120000000E+03 0.  0.
         13    1    1    2    0    0 -0.11189741145E+02 -0.34415018795E+01  0.56449648680E+02  0.57650917098E+02  0.10566000000E+00 0.  1.
        994    1    1    2    0    0  0.20645833973E+01  0.88580017115E+01  0.15231853028E+01  0.17144820440E+03  0.17120000000E+03 0.  0.
        998    1    1    2    0    0  0.91251577478E+01 -0.54164998320E+01  0.14420271623E+04  0.14421008785E+04  0.10000000000E+02 0.  1.
</event>
<event>
 5    1  0.1796476E-008  0.3846351E+03  0.7957747E-01  0.3431221E+00
         13   -1    0    0    0    0  0.00000000000E+00  0.00000000000E+00  0.14999999963E+04  0.15000000000E+04  0.10566000000E+00 0.  1.
        994   -1    0    0    0    0 -0.00000000000E+00 -0.00000000000E+00  0.11368683772E-12  0.17120000000E+03  0.17120000000E+03 0.  0.
         13    1    1    2    0    0 -0.86226503651E+01  0.72290618805E+01  0.34158617966E+02  0.35964312594E+02  0.10566000000E+00 0.  1.
        994    1    1    2    0    0  0.57281665808E+01 -0.97271534738E+01  0.22311142110E+01  0.17158626774E+03  0.17120000000E+03 0.  0.
        998    1    1    2    0    0  0.28944837843E+01  0.24980915933E+01  0.14636102641E+04  0.14636494197E+04  0.10000000000E+02 0.  1.
</event>
<event>
 5    1  0.1796476E-008  0.3840709E+03  0.7957747E-01  0.3433622E+00
         13   -1    0    0    0    0  0.00000000000E+00  0.00000000000E+00  0.14999999963E+04  0.15000000000E+04  0.10566000000E+00 0.  1.
        994   -1    0    0    0    0 -0.00000000000E+00 -0.00000000000E+00  0.11368683772E-12  0.17120000000E+03  0.17120000000E+03 0.  0.
         13    1    1    2    0    0  0.85904474963E+01 -0.58452981425E+01  0.25134722883E+02  0.27197955015E+02  0.10566000000E+00 0.  1.
        994    1    1    2    0    0  0.21340708635E+01  0.16985809095E+02  0.30594359711E+01  0.17208100452E+03  0.17120000000E+03 0.  0.
        998    1    1    2    0    0 -0.10724518360E+02 -0.11140510953E+02  0.14718058374E+04  0.14719210405E+04  0.10000000000E+02 0.  1.
</event>
<event>
 5    1  0.1796476E-008  0.3860869E+03  0.7957747E-01  0.3425076E+00
         13   -1    0    0    0    0  0.00000000000E+00  0.00000000000E+00  0.14999999963E+04  0.15000000000E+04  0.10566000000E+00 0.  1.
        994   -1    0    0    0    0 -0.00000000000E+00 -0.00000000000E+00  0.11368683772E-12  0.17120000000E+03  0.17120000000E+03 0.  0.
         13    1    1    2    0    0  0.55868948481E+01 -0.92151164128E+01  0.51341439959E+02  0.52460331543E+02  0.10566000000E+00 0.  1.
        994    1    1    2    0    0 -0.37040425802E+01  0.14680162798E+02  0.18430420203E+01  0.17187804954E+03  0.17120000000E+03 0.  0.
        998    1    1    2    0    0 -0.18828522679E+01 -0.54650463857E+01  0.14468155143E+04  0.14468616189E+04  0.10000000000E+02 0.  1.
</event>
<event>
 5    1  0.1796476E-008  0.3702490E+03  0.7957747E-01  0.3494747E+00
         13   -1    0    0    0    0  0.00000000000E+00  0.00000000000E+00  0.14999999963E+04  0.15000000000E+04  0.10566000000E+00 0.  1.
        994   -1    0    0    0    0 -0.00000000000E+00 -0.00000000000E+00  0.11368683772E-12  0.17120000000E+03  0.17120000000E+03 0.  0.
         13    1    1    2    0    0 -0.55533709883E+01 -0.57677845439E+02  0.24683486544E+03  0.25354493831E+03  0.10566000000E+00 0.  1.
        994    1    1    2    0    0  0.26920533662E+01 -0.17111863179E+02  0.10176260426E+02  0.17237476407E+03  0.17120000000E+03 0.  0.
        998    1    1    2    0    0  0.28613176221E+01  0.74789708618E+02  0.12429888704E+04  0.12452802976E+04  0.10000000000E+02 0.  1.
</event>
<event>
 5    1  0.1796476E-008  0.3854547E+03  0.7957747E-01  0.3427746E+00
         13   -1    0    0    0    0  0.00000000000E+00  0.00000000000E+00  0.14999999963E+04  0.15000000000E+04  0.10566000000E+00 0. -1.
        994   -1    0    0    0    0 -0.00000000000E+00 -0.00000000000E+00  0.11368683772E-12  0.17120000000E+03  0.17120000000E+03 0.  0.
         13    1    1    2    0    0  0.13900096816E+02  0.91532492756E+00  0.73529328034E+02  0.74837315267E+02  0.10566000000E+00 0. -1.
        994    1    1    2    0    0 -0.13802917919E+01  0.16392843562E+01  0.14196507815E+01  0.17121929759E+03  0.17120000000E+03 0.  0.
        998    1    1    2    0    0 -0.12519805024E+02 -0.25546092837E+01  0.14250510175E+04  0.14251433871E+04  0.10000000000E+02 0. -1.
</event>
<event>
 5    1  0.1796476E-008  0.3831678E+03  0.7957747E-01  0.3437480E+00
         13   -1    0    0    0    0  0.00000000000E+00  0.00000000000E+00  0.14999999963E+04  0.15000000000E+04  0.10566000000E+00 0. -1.
        994   -1    0    0    0    0 -0.00000000000E+00 -0.00000000000E+00  0.11368683772E-12  0.17120000000E+03  0.17120000000E+03 0.  0.
         13    1    1    2    0    0  0.12955225866E+02  0.23035179112E+01  0.33083053388E+02  0.35603983731E+02  0.10566000000E+00 0. -1.
        994    1    1    2    0    0 -0.94913987179E+01 -0.43393193074E+01  0.29029584030E+01  0.17154236651E+03  0.17120000000E+03 0.  0.
        998    1    1    2    0    0 -0.34638271484E+01  0.20358013962E+01  0.14640139845E+04  0.14640536498E+04  0.10000000000E+02 0. -1.
</event>
<event>
 5    1  0.1796476E-008  0.3846515E+03  0.7957747E-01  0.3431151E+00
         13   -1    0    0    0    0  0.00000000000E+00  0.00000000000E+00  0.14999999963E+04  0.15000000000E+04  0.10566000000E+00 0.  1.
        994   -1    0    0    0    0 -0.00000000000E+00 -0.00000000000E+00  0.11368683772E-12  0.17120000000E+03  0.17120000000E+03 0.  0.
         13    1    1    2    0    0 -0.64450009567E+01  0.85592969123E+01  0.31257915027E+02  0.33043426227E+02  0.10566000000E+00 0.  1.
        994    1    1    2    0    0  0.38122292277E+01 -0.83167207141E+01  0.20788637418E+01  0.17145688265E+03  0.17120000000E+03 0.  0.
        998    1    1    2    0    0  0.26327717289E+01 -0.24257619826E+00  0.14666632175E+04  0.14666996911E+04  0.10000000000E+02 0.  1.
</event>
<event>
 5    1  0.1796476E-008  0.3843127E+03  0.7957747E-01  0.3432592E+00
         13   -1    0    0    0    0  0.00000000000E+00  0.00000000000E+00  0.14999999963E+04  0.15000000000E+04  0.10566000000E+00 0. -1.
        994   -1    0    0    0    0 -0.00000000000E+00 -0.00000000000E+00  0.11368683772E-12  0.17120000000E+03  0.17120000000E+03 0.  0.
         13    1    1    2    0    0 -0.89479875217E+01  0.47735554748E+01  0.26819778261E+02  0.28673419443E+02  0.10566000000E+00 0. -1.
        994    1    1    2    0    0 -0.72501254990E+01 -0.19744975145E+01  0.21578775001E+01  0.17137840995E+03  0.17120000000E+03 0.  0.
        998    1    1    2    0    0  0.16198113021E+02 -0.27990579603E+01  0.14710223405E+04  0.14711481706E+04  0.10000000000E+02 0. -1.
</event>
<event>
 5    1  0.1796476E-008  0.3692631E+03  0.7957747E-01  0.3499284E+00
         13   -1    0    0    0    0  0.00000000000E+00  0.00000000000E+00  0.14999999963E+04  0.15000000000E+04  0.10566000000E+00 0. -1.
        994   -1    0    0    0    0 -0.00000000000E+00 -0.00000000000E+00  0.11368683772E-12  0.17120000000E+03  0.17120000000E+03 0.  0.
         13    1    1    2    0    0 -0.24010747585E+02  0.28537619727E+02  0.67345821788E+02  0.76983002121E+02  0.10566000000E+00 0. -1.
        994    1    1    2    0    0  0.17945931104E+02 -0.23521975100E+02  0.12695072087E+02  0.17420087431E+03  0.17120000000E+03 0.  0.
        998    1    1    2    0    0  0.60648164801E+01 -0.50156446276E+01  0.14199591024E+04  0.14200161236E+04  0.10000000000E+02 0. -1.
</event>
<event>
 5    1  0.1796476E-008  0.3697200E+03  0.7957747E-01  0.3497179E+00
         13   -1    0    0    0    0  0.00000000000E+00  0.00000000000E+00  0.14999999963E+04  0.15000000000E+04  0.10566000000E+00 0.  1.
        994   -1    0    0    0    0 -0.00000000000E+00 -0.00000000000E+00  0.11368683772E-12  0.17120000000E+03  0.17120000000E+03 0.  0.
         13    1    1    2    0    0  0.26159644598E+02 -0.54798932122E+02  0.18093945981E+03  0.19085688158E+03  0.10566000000E+00 0.  1.
        994    1    1    2    0    0 -0.15785463579E+02  0.46678268277E+02  0.17866352251E+02  0.17904381624E+03  0.17120000000E+03 0.  0.
        998    1    1    2    0    0 -0.10374181018E+02  0.81206638451E+01  0.13011941842E+04  0.13012993022E+04  0.10000000000E+02 0.  1.
</event>
<event>
 5    1  0.1796476E-008  0.3714099E+03  0.7957747E-01  0.3489436E+00
         13   -1    0    0    0    0  0.00000000000E+00  0.00000000000E+00  0.14999999963E+04  0.15000000000E+04  0.10566000000E+00 0. -1.
        994   -1    0    0    0    0 -0.00000000000E+00 -0.00000000000E+00  0.11368683772E-12  0.17120000000E+03  0.17120000000E+03 0.  0.
         13    1    1    2    0    0  0.21252069011E+01 -0.24137456907E+02  0.20923609334E+02  0.32014714147E+02  0.10566000000E+00 0. -1.
        994    1    1    2    0    0 -0.14263391807E+02  0.77883301302E+00  0.12403492557E+02  0.17224208996E+03  0.17120000000E+03 0.  0.
        998    1    1    2    0    0  0.12138184906E+02  0.23358623894E+02  0.14666728944E+04  0.14669431959E+04  0.10000000000E+02 0. -1.
</event>
<event>
 5    1  0.1796476E-008  0.3806637E+03  0.7957747E-01  0.3448274E+00
         13   -1    0    0    0    0  0.00000000000E+00  0.00000000000E+00  0.14999999963E+04  0.15000000000E+04  0.10566000000E+00 0. -1.
        994   -1    0    0    0    0 -0.00000000000E+00 -0.00000000000E+00  0.11368683772E-12  0.17120000000E+03  0.17120000000E+03 0.  0.
         13    1    1    2    0    0 -0.10182624234E+02 -0.17259660160E+02  0.53200550957E+02  0.56849727275E+02  0.10566000000E+00 0. -1.
        994    1    1    2    0    0  0.52727456009E+01  0.24704656831E+01  0.39116148769E+01  0.17134364820E+03  0.17120000000E+03 0.  0.
        998    1    1    2    0    0  0.49098786329E+01  0.14789194477E+02  0.14428878304E+04  0.14430066245E+04  0.10000000000E+02 0. -1.
</event>
<event>
 5    1  0.1796476E-008  0.3724620E+03  0.7957747E-01  0.3484652E+00
         13   -1    0    0    0    0  0.00000000000E+00  0.00000000000E+00  0.14999999963E+04  0.15000000000E+04  0.10566000000E+00 0. -1.
        994   -1    0    0    0    0 -0.00000000000E+00 -0.00000000000E+00  0.11368683772E-12  0.17120000000E+03  0.17120000000E+03 0.  0.
         13    1    1    2    0    0  0.44834022078E+02  0.31830122707E+01  0.82869773592E+02  0.94274236364E+02  0.10566000000E+00 0. -1.
        994    1    1    2    0    0 -0.10660563999E+02 -0.39823654221E+01  0.12703428251E+02  0.17204744679E+03  0.17120000000E+03 0.  0.
        998    1    1    2    0    0 -0.34173458079E+02  0.79935315141E+00  0.14044267944E+04  0.14048783168E+04  0.10000000000E+02 0. -1.
</event>
<event>
 5    1  0.1796476E-008  0.3864628E+03  0.7957747E-01  0.3423492E+00
         13   -1    0    0    0    0  0.00000000000E+00  0.00000000000E+00  0.14999999963E+04  0.15000000000E+04  0.10566000000E+00 0.  1.
        994   -1    0    0    0    0 -0.00000000000E+00 -0.00000000000E+00  0.11368683772E-12  0.17120000000E+03  0.17120000000E+03 0.  0.
         13    1    1    2    0    0 -0.64124561334E+01 -0.81817915300E+01  0.60604109274E+02  0.61489271676E+02  0.10566000000E+00 0.  1.
        994    1    1    2    0    0 -0.89726067110E+01  0.17399860007E+02  0.21611051456E+01  0.17232925803E+03  0.17120000000E+03 0.  0.
        998    1    1    2    0    0  0.15385062844E+02 -0.92180684765E+01  0.14372347819E+04  0.14373814703E+04  0.10000000000E+02 0.  1.
</event>
<event>
 5    1  0.1796476E-008  0.3782181E+03  0.7957747E-01  0.3458954E+00
         13   -1    0    0    0    0  0.00000000000E+00  0.00000000000E+00  0.14999999963E+04  0.15000000000E+04  0.10566000000E+00 0. -1.
        994   -1    0    0    0    0 -0.00000000000E+00 -0.00000000000E+00  0.11368683772E-12  0.17120000000E+03  0.17120000000E+03 0.  0.
         13    1    1    2    0    0  0.24047887583E+02 -0.33965508750E+02  0.14260114930E+03  0.14854984223E+03  0.10566000000E+00 0. -1.
        994    1    1    2    0    0 -0.17288046243E+02  0.57343802492E+02  0.17194397006E+02  0.18218747354E+03  0.17120000000E+03 0.  0.
        998    1    1    2    0    0 -0.67598413402E+01 -0.23378293743E+02  0.13402044500E+04  0.13404626842E+04  0.10000000000E+02 0. -1.
</event>
<event>
 5    1  0.1796476E-008  0.3774424E+03  0.7957747E-01  0.3462371E+00
         13   -1    0    0    0    0  0.00000000000E+00  0.00000000000E+00  0.14999999963E+04  0.15000000000E+04  0.10566000000E+00 0. -1.
        994   -1    0    0    0    0 -0.00000000000E+00 -0.00000000000E+00  0.11368683772E-12  0.17120000000E+03  0.17120000000E+03 0.  0.
         13    1    1    2    0    0  0.72906746245E+01 -0.13079997043E+02  0.18141275612E+02  0.23523547862E+02  0.10566000000E+00 0. -1.
        994    1    1    2    0    0 -0.98149633730E+01  0.11103941220E+02  0.61706365894E+01  0.17195100399E+03  0.17120000000E+03 0.  0.
        998    1    1    2    0    0  0.25242887485E+01  0.19760558228E+01  0.14756880841E+04  0.14757254482E+04  0.10000000000E+02 0. -1.
</event>
<event>
 5    1  0.1796476E-008  0.3842276E+03  0.7957747E-01  0.3432955E+00
         13   -1    0    0    0    0  0.00000000000E+00  0.00000000000E+00  0.14999999963E+04  0.15000000000E+04  0.10566000000E+00 0.  1.
        994   -1    0    0    0    0 -0.00000000000E+00 -0.00000000000E+00  0.11368683772E-12  0.17120000000E+03  0.17120000000E+03 0.  0.
         13    1    1    2    0    0 -0.10142067165E+02  0.20790289265E+01  0.26224522005E+02  0.28194336419E+02  0.10566000000E+00 0.  1.
        994    1    1    2    0    0  0.55335757766E+01  0.10830779714E+00  0.21151249118E+01  0.17130249836E+03  0.17120000000E+03 0.  0.
        998    1    1    2    0    0  0.46084913885E+01 -0.21873367236E+01  0.14716603494E+04  0.14717031652E+04  0.10000000000E+02 0.  1.
</event>
<event>
 5    1  0.1796476E-008  0.3849673E+03  0.7957747E-01  0.3429811E+00
         13   -1    0    0    0    0  0.00000000000E+00  0.00000000000E+00  0.14999999963E+04  0.15000000000E+04  0.10566000000E+00 0.  1.
        994   -1    0    0    0    0 -0.00000000000E+00 -0.00000000000E+00  0.11368683772E-12  0.17120000000E+03  0.17120000000E+03 0.  0.
         13    1    1    2    0    0 -0.68988667684E+01 -0.13262549979E+02  0.64641763731E+02  0.66348009592E+02  0.10566000000E+00 0.  1.
        994    1    1    2    0    0  0.10854469313E+02  0.14285053254E+02  0.27057410008E+01  0.17215877348E+03  0.17120000000E+03 0.  0.
        998    1    1    2    0    0 -0.39556025442E+01 -0.10225032750E+01  0.14326524915E+04  0.14326932169E+04  0.10000000000E+02 0.  1.
</event>
<event>
 5    1  0.1796476E-008  0.3843617E+03  0.7957747E-01  0.3432384E+00
         13   -1    0    0    0    0  0.00000000000E+00  0.00000000000E+00  0.14999999963E+04  0.15000000000E+04  0.10566000000E+00 0. -1.
        994   -1    0    0    0    0 -0.00000000000E+00 -0.00000000000E+00  0.11368683772E-12  0.17120000000E+03  0.17120000000E+03 0.  0.
         13    1    1    2    0    0 -0.31090833892E+00 -0.16737717958E+02  0.77388769906E+02  0.79178789698E+02  0.10566000000E+00 0. -1.
        994    1    1    2    0    0  0.13045133169E+01 -0.10785271490E+01  0.19568159985E+01  0.17121954942E+03  0.17120000000E+03 0.  0.
        998    1    1    2    0    0 -0.99360497794E+00  0.17816245107E+02  0.14206544104E+04  0.14208016609E+04  0.10000000000E+02 0. -1.
</event>
<event>
 5    1  0.1796476E-008  0.3816915E+03  0.7957747E-01  0.3443826E+00
         13   -1    0    0    0    0  0.00000000000E+00  0.00000000000E+00  0.14999999963E+04  0.15000000000E+04  0.10566000000E+00 0. -1.
        994   -1    0    0    0    0 -0.00000000000E+00 -0.00000000000E+00  0.11368683772E-12  0.17120000000E+03  0.17120000000E+03 0.  0.
         13    1    1    2    0    0 -0.18105691282E+02  0.11492483069E+02  0.66616345063E+02  0.69983153812E+02  0.10566000000E+00 0. -1.
        994    1    1    2    0    0  0.17688225333E+02 -0.11483850729E+02  0.47616078064E+01  0.17255974343E+03  0.17120000000E+03 0.  0.
        998    1    1    2    0    0  0.41746594945E+00 -0.86323396610E-02  0.14286220434E+04  0.14286571028E+04  0.10000000000E+02 0.  0.
</event>
<event>
 5    1  0.1796476E-008  0.3829339E+03  0.7957747E-01  0.3438482E+00
         13   -1    0    0    0    0  0.00000000000E+00  0.00000000000E+00  0.14999999963E+04  0.15000000000E+04  0.10566000000E+00 0. -1.
        994   -1    0    0    0    0 -0.00000000000E+00 -0.00000000000E+00  0.11368683772E-12  0.17120000000E+03  0.17120000000E+03 0.  0.
         13    1    1    2    0    0  0.13846189246E+02 -0.15705708678E+01  0.35674490795E+02  0.38299661970E+02  0.10566000000E+00 0. -1.
        994    1    1    2    0    0 -0.10574962188E+02 -0.11529557852E+02  0.34701624054E+01  0.17194837178E+03  0.17120000000E+03 0.  0.
        998    1    1    2    0    0 -0.32712270581E+01  0.13100128720E+02  0.14608553431E+04  0.14609519663E+04  0.10000000000E+02 0. -1.
</event>
<event>
 5    1  0.1796476E-008  0.3798006E+03  0.7957747E-01  0.3452027E+00
         13   -1    0    0    0    0  0.00000000000E+00  0.00000000000E+00  0.14999999963E+04  0.15000000000E+04  0.10566000000E+00 0.  1.
        994   -1    0    0    0    0 -0.00000000000E+00 -0.00000000000E+00  0.11368683772E-12  0.17120000000E+03  0.17120000000E+03 0.  0.
         13    1    1    2    0    0  0.27067015042E+02  0.13323840258E+00  0.82486314075E+02  0.86813848143E+02  0.10566000000E+00 0.  1.
        994    1    1    2    0    0 -0.23306293573E+02 -0.15898806325E+01  0.60614342451E+01  0.17289271826E+03  0.17120000000E+03 0.  0.
        998    1    1    2    0    0 -0.37607214697E+01  0.14566422299E+01  0.14114522480E+04  0.14114934336E+04  0.10000000000E+02 0.  1.
</event>
<event>
 5    1  0.1796476E-008  0.3755610E+03  0.7957747E-01  0.3470717E+00
         13   -1    0    0    0    0  0.00000000000E+00  0.00000000000E+00  0.14999999963E+04  0.15000000000E+04  0.10566000000E+00 0. -1.
        994   -1    0    0    0    0 -0.00000000000E+00 -0.00000000000E+00  0.11368683772E-12  0.17120000000E+03  0.17120000000E+03 0.  0.
         13    1    1    2    0    0  0.40976389995E+02 -0.20757298322E+02  0.16126395571E+03  0.16767827691E+03  0.10566000000E+00 0. -1.
        994    1    1    2    0    0 -0.25965314253E+02  0.12598130356E+02  0.92219704971E+01  0.17386027485E+03  0.17120000000E+03 0.  0.
        998    1    1    2    0    0 -0.15011075742E+02  0.81591679663E+01  0.13295140701E+04  0.13296614482E+04  0.10000000000E+02 0. -1.
</event>
<event>
 5    1  0.1796476E-008  0.3762594E+03  0.7957747E-01  0.3467609E+00
         13   -1    0    0    0    0  0.00000000000E+00  0.00000000000E+00  0.14999999963E+04  0.15000000000E+04  0.10566000000E+00 0. -1.
        994   -1    0    0    0    0 -0.00000000000E+00 -0.00000000000E+00  0.11368683772E-12  0.17120000000E+03  0.17120000000E+03 0.  0.
         13    1    1    2    0    0  0.64596856339E+02 -0.42400533680E+02  0.18247990051E+03  0.19816529554E+03  0.10566000000E+00 0. -1.
        994    1    1    2    0    0 -0.62010579108E+02  0.40482044933E+02  0.34160984999E+02  0.18963259419E+03  0.17120000000E+03 0.  0.
        998    1    1    2    0    0 -0.25862772316E+01  0.19184887464E+01  0.12833591108E+04  0.12834021103E+04  0.10000000000E+02 0. -1.
</event>
<event>
 5    1  0.1796476E-008  0.3821402E+03  0.7957747E-01  0.3441892E+00
         13   -1    0    0    0    0  0.00000000000E+00  0.00000000000E+00  0.14999999963E+04  0.15000000000E+04  0.10566000000E+00 0. -1.
        994   -1    0    0    0    0 -0.00000000000E+00 -0.00000000000E+00  0.11368683772E-12  0.17120000000E+03  0.17120000000E+03 0.  0.
         13    1    1    2    0    0 -0.38045364997E+02  0.70515631834E+00  0.21088489911E+03  0.21429045448E+03  0.10566000000E+00 0. -1.
        994    1    1    2    0    0  0.35299627564E+02 -0.18651187837E+02  0.83657436256E+01  0.17599248899E+03  0.17120000000E+03 0.  0.
        998    1    1    2    0    0  0.27457374328E+01  0.17946031519E+02  0.12807493535E+04  0.12809170565E+04  0.10000000000E+02 0. -1.
</event>
<event>
 5    1  0.1796476E-008  0.3864168E+03  0.7957747E-01  0.3423685E+00
         13   -1    0    0    0    0  0.00000000000E+00  0.00000000000E+00  0.14999999963E+04  0.15000000000E+04  0.10566000000E+00 0.  1.
        994   -1    0    0    0    0 -0.00000000000E+00 -0.00000000000E+00  0.11368683772E-12  0.17120000000E+03  0.17120000000E+03 0.  0.
         13    1    1    2    0    0 -0.69848509654E+01  0.76085425474E+01  0.59368217309E+02  0.60260056863E+02  0.10566000000E+00 0.  1.
        994    1    1    2    0    0 -0.21518869102E+01 -0.93372490076E+01  0.12289523877E+01  0.17147234518E+03  0.17120000000E+03 0.  0.
        998    1    1    2    0    0  0.91367378757E+01  0.17287064601E+01  0.14394028266E+04  0.14394675980E+04  0.10000000000E+02 0.  1.
</event>
<event>
 5    1  0.1796476E-008  0.3825601E+03  0.7957747E-01  0.3440086E+00
         13   -1    0    0    0    0  0.00000000000E+00  0.00000000000E+00  0.14999999963E+04  0.15000000000E+04  0.10566000000E+00 0.  1.
        994   -1    0    0    0    0 -0.00000000000E+00 -0.00000000000E+00  0.11368683772E-12  0.17120000000E+03  0.17120000000E+03 0.  0.
         13    1    1    2    0    0  0.15542197752E+02 -0.32324167619E+01  0.46299902145E+02  0.48945893921E+02  0.10566000000E+00 0.  1.
        994    1    1    2    0    0  0.20077410178E+01 -0.14691062268E+02  0.35755146886E+01  0.17187810402E+03  0.17120000000E+03 0.  0.
        998    1    1    2    0    0 -0.17549938770E+02  0.17923479030E+02  0.14501245794E+04  0.14503760021E+04  0.10000000000E+02 0.  1.
</event>
<event>
 5    1  0.1796476E-008  0.3839656E+03  0.7957747E-01  0.3434071E+00
         13   -1    0    0    0    0  0.00000000000E+00  0.00000000000E+00  0.14999999963E+04  0.15000000000E+04  0.10566000000E+00 0.  1.
        994   -1    0    0    0    0 -0.00000000000E+00 -0.00000000000E+00  0.11368683772E-12  0.17120000000E+03  0.17120000000E+03 0.  0.
         13    1    1    2    0    0  0.61691011218E+01 -0.11789719681E+02  0.41595200763E+02  0.43671812298E+02  0.10566000000E+00 0.  1.
        994    1    1    2    0    0  0.13755654286E+02  0.12442626915E+02  0.32806148303E+01  0.17223309619E+03  0.17120000000E+03 0.  0.
        998    1    1    2    0    0 -0.19924755408E+02 -0.65290723395E+00  0.14551241807E+04  0.14552950915E+04  0.10000000000E+02 0.  1.
</event>
<event>
 5    1  0.1796476E-008  0.3813683E+03  0.7957747E-01  0.3445222E+00
         13   -1    0    0    0    0  0.00000000000E+00  0.00000000000E+00  0.14999999963E+04  0.15000000000E+04  0.10566000000E+00 0.  1.
        994   -1    0    0    0    0 -0.00000000000E+00 -0.00000000000E+00  0.11368683772E-12  0.17120000000E+03  0.17120000000E+03 0.  0.
         13    1    1    2    0    0  0.12049683280E+00  0.27708482389E+02  0.10735922553E+03  0.11087736011E+03  0.10566000000E+00 0.  1.
        994    1    1    2    0    0  0.43807997443E+01 -0.21587196037E+02  0.50603618604E+01  0.17268539516E+03  0.17120000000E+03 0.  0.
        998    1    1    2    0    0 -0.45012965771E+01 -0.61212863517E+01  0.13875804089E+04  0.13876372447E+04  0.10000000000E+02 0.  1.
</event>
<event>
 5    1  0.1796476E-008  0.3750836E+03  0.7957747E-01  0.3472849E+00
         13   -1    0    0    0    0  0.00000000000E+00  0.00000000000E+00  0.14999999963E+04  0.15000000000E+04  0.10566000000E+00 0. -1.
        994   -1    0    0    0    0 -0.00000000000E+00 -0.00000000000E+00  0.11368683772E-12  0.17120000000E+03  0.17120000000E+03 0.  0.
         13    1    1    2    0    0 -0.22566723833E+02  0.27653202476E+02  0.37619207490E+02  0.51857232552E+02  0.10566000000E+00 0. -1.
        994    1    1    2    0    0  0.32873039741E+02 -0.52668712099E+02  0.27503068616E+02  0.18417515782E+03  0.17120000000E+03 0.  0.
        998    1    1    2    0    0 -0.10306315908E+02  0.25015509623E+02  0.14348777202E+04  0.14351676096E+04  0.10000000000E+02 0. -1.
</event>
<event>
 5    1  0.1796476E-008  0.3842738E+03  0.7957747E-01  0.3432758E+00
         13   -1    0    0    0    0  0.00000000000E+00  0.00000000000E+00  0.14999999963E+04  0.15000000000E+04  0.10566000000E+00 0.  1.
        994   -1    0    0    0    0 -0.00000000000E+00 -0.00000000000E+00  0.11368683772E-12  0.17120000000E+03  0.17120000000E+03 0.  0.
         13    1    1    2    0    0 -0.12458746819E+02  0.74392806384E+01  0.54678519759E+02  0.56571326268E+02  0.10566000000E+00 0.  1.
        994    1    1    2    0    0  0.40555640069E+01  0.27060812686E+01  0.20694769826E+01  0.17128191151E+03  0.17120000000E+03 0.  0.
        998    1    1    2    0    0  0.84031828124E+01 -0.10145361907E+02  0.14432519995E+04  0.14433467622E+04  0.10000000000E+02 0.  1.
</event>
<event>
 5    1  0.1796476E-008  0.3853419E+03  0.7957747E-01  0.3428223E+00
         13   -1    0    0    0    0  0.00000000000E+00  0.00000000000E+00  0.14999999963E+04  0.15000000000E+04  0.10566000000E+00 0.  1.
        994   -1    0    0    0    0 -0.00000000000E+00 -0.00000000000E+00  0.11368683772E-12  0.17120000000E+03  0.17120000000E+03 0.  0.
         13    1    1    2    0    0  0.11053974456E+02  0.16465510757E+01  0.42258209875E+02  0.43711199338E+02  0.10566000000E+00 0.  1.
        994    1    1    2    0    0 -0.10739789853E+02  0.41161991049E+01  0.18951491055E+01  0.17159638041E+03  0.17120000000E+03 0.  0.
        998    1    1    2    0    0 -0.31418460302E+00 -0.57627501806E+01  0.14558466373E+04  0.14558924202E+04  0.10000000000E+02 0.  1.
</event>
<event>
 5    1  0.1796476E-008  0.3735953E+03  0.7957747E-01  0.3479529E+00
         13   -1    0    0    0    0  0.00000000000E+00  0.00000000000E+00  0.14999999963E+04  0.15000000000E+04  0.10566000000E+00 0. -1.
        994   -1    0    0    0    0 -0.00000000000E+00 -0.00000000000E+00  0.11368683772E-12  0.17120000000E+03  0.17120000000E+03 0.  0.
         13    1    1    2    0    0 -0.35587396661E+02  0.83864832479E+02  0.28920768069E+03  0.30321752367E+03  0.10566000000E+00 0. -1.
        994    1    1    2    0    0  0.58789655876E+02 -0.13862191394E+03  0.89283524114E+02  0.24485352017E+03  0.17120000000E+03 0.  0.
        998    1    1    2    0    0 -0.23202259215E+02  0.54757081459E+02  0.11215087915E+04  0.11231289562E+04  0.10000000000E+02 0. -1.
</event>
<event>
 5    1  0.1796476E-008  0.3844139E+03  0.7957747E-01  0.3432162E+00
         13   -1    0    0    0    0  0.00000000000E+00  0.00000000000E+00  0.14999999963E+04  0.15000000000E+04  0.10566000000E+00 0.  1.
        994   -1    0    0    0    0 -0.00000000000E+00 -0.00000000000E+00  0.11368683772E-12  0.17120000000E+03  0.17120000000E+03 0.  0.
         13    1    1    2    0    0  0.15295468499E+02  0.32974762786E+01  0.68689421753E+02  0.70449077575E+02  0.10566000000E+00 0.  1.
        994    1    1    2    0    0  0.22920964027E+01  0.24642143403E+01  0.19587186622E+01  0.17124427768E+03  0.17120000000E+03 0.  0.
        998    1    1    2    0    0 -0.17587564902E+02 -0.57616906189E+01  0.14293518559E+04  0.14295066447E+04  0.10000000000E+02 0.  1.
</event>
<event>
 5    1  0.1796476E-008  0.3819192E+03  0.7957747E-01  0.3442844E+00
         13   -1    0    0    0    0  0.00000000000E+00  0.00000000000E+00  0.14999999963E+04  0.15000000000E+04  0.10566000000E+00 0.  1.
        994   -1    0    0    0    0 -0.00000000000E+00 -0.00000000000E+00  0.11368683772E-12  0.17120000000E+03  0.17120000000E+03 0.  0.
         13    1    1    2    0    0 -0.56612847897E+01  0.31370503896E+02  0.18045424082E+03  0.18324820014E+03  0.10566000000E+00 0.  1.
        994    1    1    2    0    0  0.37645738936E+01 -0.26999008018E+01  0.32387888564E+01  0.17129329010E+03  0.17120000000E+03 0.  0.
        998    1    1    2    0    0  0.18967108962E+01 -0.28670603094E+02  0.13163069666E+04  0.13166585098E+04  0.10000000000E+02 0.  1.
</event>
<event>
 5    1  0.1796476E-008  0.3859269E+03  0.7957747E-01  0.3425751E+00
         13   -1    0    0    0    0  0.00000000000E+00  0.00000000000E+00  0.14999999963E+04  0.15000000000E+04  0.10566000000E+00 0. -1.
        994   -1    0    0    0    0 -0.00000000000E+00 -0.00000000000E+00  0.11368683772E-12  0.17120000000E+03  0.17120000000E+03 0.  0.
         13    1    1    2    0    0  0.34808597415E+01  0.10079875915E+02  0.50365366915E+02  0.51482051547E+02  0.10566000000E+00 0. -1.
        994    1    1    2    0    0  0.44633138232E+01 -0.50241115941E+01  0.13187391513E+01  0.17133692521E+03  0.17120000000E+03 0.  0.
        998    1    1    2    0    0 -0.79441735647E+01 -0.50557643214E+01  0.14483158902E+04  0.14483810232E+04  0.10000000000E+02 0. -1.
</event>
<event>
 5    1  0.1796476E-008  0.3821251E+03  0.7957747E-01  0.3441957E+00
         13   -1    0    0    0    0  0.00000000000E+00  0.00000000000E+00  0.14999999963E+04  0.15000000000E+04  0.10566000000E+00 0.  1.
        994   -1    0    0    0    0 -0.00000000000E+00 -0.00000000000E+00  0.11368683772E-12  0.17120000000E+03  0.17120000000E+03 0.  0.
         13    1    1    2    0    0 -0.33885222723E+02 -0.56004657068E+01  0.17397410538E+03  0.17733181904E+03  0.10566000000E+00 0.  1.
        994    1    1    2    0    0  0.32389532362E+02  0.33849570435E+01  0.65928219719E+01  0.17439450978E+03  0.17120000000E+03 0.  0.
        998    1    1    2    0    0  0.14956903618E+01  0.22155086633E+01  0.13194330689E+04  0.13194736712E+04  0.10000000000E+02 0.  1.
</event>
<event>
 5    1  0.1796476E-008  0.3839610E+03  0.7957747E-01  0.3434091E+00
         13   -1    0    0    0    0  0.00000000000E+00  0.00000000000E+00  0.14999999963E+04  0.15000000000E+04  0.10566000000E+00 0.  1.
        994   -1    0    0    0    0 -0.00000000000E+00 -0.00000000000E+00  0.11368683772E-12  0.17120000000E+03  0.17120000000E+03 0.  0.
         13    1    1    2    0    0  0.15184297706E+02  0.18650485540E+02  0.12249517961E+03  0.12483382435E+03  0.10566000000E+00 0.  1.
        994    1    1    2    0    0 -0.83487700056E+01 -0.28118199350E+02  0.49909211736E+01  0.17376617735E+03  0.17120000000E+03 0.  0.
        998    1    1    2    0    0 -0.68355277007E+01  0.94677138108E+01  0.13725138955E+04  0.13725999983E+04  0.10000000000E+02 0.  1.
</event>
<event>
 5    1  0.1796476E-008  0.3714452E+03  0.7957747E-01  0.3489275E+00
         13   -1    0    0    0    0  0.00000000000E+00  0.00000000000E+00  0.14999999963E+04  0.15000000000E+04  0.10566000000E+00 0.  1.
        994   -1    0    0    0    0 -0.00000000000E+00 -0.00000000000E+00  0.11368683772E-12  0.17120000000E+03  0.17120000000E+03 0.  0.
         13    1    1    2    0    0  0.50523421843E+01  0.38214537428E+02  0.10175199430E+03  0.10880880728E+03  0.10566000000E+00 0.  1.
        994    1    1    2    0    0 -0.19598143174E+02  0.26809667303E+02  0.12319415781E+02  0.17482578037E+03  0.17120000000E+03 0.  0.
        998    1    1    2    0    0  0.14545800990E+02 -0.65024204731E+02  0.13859285862E+04  0.13875654124E+04  0.10000000000E+02 0.  1.
</event>
<event>
 5    1  0.1796476E-008  0.3704678E+03  0.7957747E-01  0.3493744E+00
         13   -1    0    0    0    0  0.00000000000E+00  0.00000000000E+00  0.14999999963E+04  0.15000000000E+04  0.10566000000E+00 0. -1.
        994   -1    0    0    0    0 -0.00000000000E+00 -0.00000000000E+00  0.11368683772E-12  0.17120000000E+03  0.17120000000E+03 0.  0.
         13    1    1    2    0    0  0.62704160442E+02  0.49997942226E+02  0.40695976349E+03  0.41478653092E+03  0.10566000000E+00 0. -1.
        994    1    1    2    0    0  0.52494875913E+01 -0.72095390866E+01  0.11464929901E+02  0.17181507265E+03  0.17120000000E+03 0.  0.
        998    1    1    2    0    0 -0.67953648033E+02 -0.42788403140E+02  0.10815753029E+04  0.10845983964E+04  0.10000000000E+02 0. -1.
</event>
<event>
 5    1  0.1796476E-008  0.3857985E+03  0.7957747E-01  0.3426293E+00
         13   -1    0    0    0    0  0.00000000000E+00  0.00000000000E+00  0.14999999963E+04  0.15000000000E+04  0.10566000000E+00 0. -1.
        994   -1    0    0    0    0 -0.00000000000E+00 -0.00000000000E+00  0.11368683772E-12  0.17120000000E+03  0.17120000000E+03 0.  0.
         13    1    1    2    0    0  0.74797702195E+01 -0.79326573948E+01  0.49978819286E+02  0.51154350325E+02  0.10566000000E+00 0. -1.
        994    1    1    2    0    0 -0.48902383667E+01 -0.67608253733E+00  0.13141372151E+01  0.17127620522E+03  0.17120000000E+03 0.  0.
        998    1    1    2    0    0 -0.25895318527E+01  0.86087399321E+01  0.14487070398E+04  0.14487694445E+04  0.10000000000E+02 0. -1.
</event>
<event>
 5    1  0.1796476E-008  0.3721114E+03  0.7957747E-01  0.3486243E+00
         13   -1    0    0    0    0  0.00000000000E+00  0.00000000000E+00  0.14999999963E+04  0.15000000000E+04  0.10566000000E+00 0.  1.
        994   -1    0    0    0    0 -0.00000000000E+00 -0.00000000000E+00  0.11368683772E-12  0.17120000000E+03  0.17120000000E+03 0.  0.
         13    1    1    2    0    0 -0.31024677368E+02  0.42606002197E+02  0.16434140403E+03  0.17258595039E+03  0.10566000000E+00 0.  1.
        994    1    1    2    0    0  0.73310305218E+01 -0.37978396206E+02  0.13322687469E+02  0.17601998917E+03  0.17120000000E+03 0.  0.
        998    1    1    2    0    0  0.23693646846E+02 -0.46276059912E+01  0.13223359048E+04  0.13225940604E+04  0.10000000000E+02 0.  1.
</event>
<event>
 5    1  0.1796476E-008  0.3782344E+03  0.7957747E-01  0.3458882E+00
         13   -1    0    0    0    0  0.00000000000E+00  0.00000000000E+00  0.14999999963E+04  0.15000000000E+04  0.10566000000E+00 0.  1.
        994   -1    0    0    0    0 -0.00000000000E+00 -0.00000000000E+00  0.11368683772E-12  0.17120000000E+03  0.17120000000E+03 0.  0.
         13    1    1    2    0    0 -0.13082969247E+02 -0.15534105002E+02  0.38202921473E+02  0.43266001382E+02  0.10566000000E+00 0.  1.
        994    1    1    2    0    0  0.13823809877E+02  0.15092748823E+02  0.64368471733E+01  0.17253916016E+03  0.17120000000E+03 0.  0.
        998    1    1    2    0    0 -0.74084062966E+00  0.44135617879E+00  0.14553602276E+04  0.14553948385E+04  0.10000000000E+02 0.  1.
</event>
<event>
 5    1  0.1796476E-008  0.3824579E+03  0.7957747E-01  0.3440526E+00
         13   -1    0    0    0    0  0.00000000000E+00  0.00000000000E+00  0.14999999963E+04  0.15000000000E+04  0.10566000000E+00 0.  1.
        994   -1    0    0    0    0 -0.00000000000E+00 -0.00000000000E+00  0.11368683772E-12  0.17120000000E+03  0.17120000000E+03 0.  0.
         13    1    1    2    0    0 -0.60924746062E+01  0.19765618718E+02  0.71254710222E+02  0.74195975787E+02  0.10566000000E+00 0.  1.
        994    1    1    2    0    0  0.60082694067E+01 -0.16667783181E+02  0.39391596161E+01  0.17215943563E+03  0.17120000000E+03 0.  0.
        998    1    1    2    0    0  0.84205199542E-01 -0.30978355369E+01  0.14248061264E+04  0.14248445886E+04  0.10000000000E+02 0.  1.
</event>
<event>
 5    1  0.1796476E-008  0.3762068E+03  0.7957747E-01  0.3467843E+00
         13   -1    0    0    0    0  0.00000000000E+00  0.00000000000E+00  0.14999999963E+04  0.15000000000E+04  0.10566000000E+00 0.  1.
        994   -1    0    0    0    0 -0.00000000000E+00 -0.00000000000E+00  0.11368683772E-12  0.17120000000E+03  0.17120000000E+03 0.  0.
         13    1    1    2    0    0  0.11238619816E+02  0.40079874005E+01  0.90617707372E+01  0.14983237010E+02  0.10566000000E+00 0.  1.
        994    1    1    2    0    0 -0.67790034287E+01  0.67007935366E+00  0.62174502187E+01  0.17144824461E+03  0.17120000000E+03 0.  0.
        998    1    1    2    0    0 -0.44596163872E+01 -0.46780667541E+01  0.14847207753E+04  0.14847685184E+04  0.10000000000E+02 0.  1.
</event>
<event>
 5    1  0.1796476E-008  0.3840017E+03  0.7957747E-01  0.3433917E+00
         13   -1    0    0    0    0  0.00000000000E+00  0.00000000000E+00  0.14999999963E+04  0.15000000000E+04  0.10566000000E+00 0. -1.
        994   -1    0    0    0    0 -0.00000000000E+00 -0.00000000000E+00  0.11368683772E-12  0.17120000000E+03  0.17120000000E+03 0.  0.
         13    1    1    2    0    0 -0.13845476541E+02 -0.94130088104E+01  0.70061630491E+02  0.72034333388E+02  0.10566000000E+00 0. -1.
        994    1    1    2    0    0  0.12024720693E+01 -0.28862168237E+01  0.21588205501E+01  0.17124215805E+03  0.17120000000E+03 0.  0.
        998    1    1    2    0    0  0.12643004471E+02  0.12299225634E+02  0.14277795452E+04  0.14279235086E+04  0.10000000000E+02 0. -1.
</event>
<event>
 5    1  0.1796476E-008  0.3824514E+03  0.7957747E-01  0.3440553E+00
         13   -1    0    0    0    0  0.00000000000E+00  0.00000000000E+00  0.14999999963E+04  0.15000000000E+04  0.10566000000E+00 0. -1.
        994   -1    0    0    0    0 -0.00000000000E+00 -0.00000000000E+00  0.11368683772E-12  0.17120000000E+03  0.17120000000E+03 0.  0.
         13    1    1    2    0    0 -0.47176503802E+01  0.12204810365E+02  0.27897733321E+02  0.30814092712E+02  0.10566000000E+00 0. -1.
        994    1    1    2    0    0  0.77540540142E+01 -0.12961426138E+02  0.36576135083E+01  0.17190387447E+03  0.17120000000E+03 0.  0.
        998    1    1    2    0    0 -0.30364036340E+01  0.75661577354E+00  0.14684446494E+04  0.14684820328E+04  0.10000000000E+02 0. -1.
</event>
<event>
 5    1  0.1796476E-008  0.3833579E+03  0.7957747E-01  0.3436667E+00
         13   -1    0    0    0    0  0.00000000000E+00  0.00000000000E+00  0.14999999963E+04  0.15000000000E+04  0.10566000000E+00 0. -1.
        994   -1    0    0    0    0 -0.00000000000E+00 -0.00000000000E+00  0.11368683772E-12  0.17120000000E+03  0.17120000000E+03 0.  0.
         13    1    1    2    0    0  0.16405675718E+01  0.13855874705E+02  0.40327573607E+02  0.42673189274E+02  0.10566000000E+00 0. -1.
        994    1    1    2    0    0 -0.30435967640E+01 -0.13886993553E+01  0.24846389052E+01  0.17125070919E+03  0.17120000000E+03 0.  0.
        998    1    1    2    0    0  0.14030291922E+01 -0.12467175349E+02  0.14571877838E+04  0.14572761015E+04  0.10000000000E+02 0. -1.
</event>
<event>
 5    1  0.1796476E-008  0.3768208E+03  0.7957747E-01  0.3465119E+00
         13   -1    0    0    0    0  0.00000000000E+00  0.00000000000E+00  0.14999999963E+04  0.15000000000E+04  0.10566000000E+00 0. -1.
        994   -1    0    0    0    0 -0.00000000000E+00 -0.00000000000E+00  0.11368683772E-12  0.17120000000E+03  0.17120000000E+03 0.  0.
         13    1    1    2    0    0 -0.20902814236E+01 -0.10796326304E+02  0.78578106289E+01  0.13516149230E+02  0.10566000000E+00 0. -1.
        994    1    1    2    0    0  0.13933994249E+01  0.10912031499E+02  0.61556162194E+01  0.17166346613E+03  0.17120000000E+03 0.  0.
        998    1    1    2    0    0  0.69688199875E+00 -0.11570519517E+00  0.14859865694E+04  0.14860203846E+04  0.10000000000E+02 0. -1.
</event>
<event>
 5    1  0.3508707E-008  0.3864153E+03  0.7957747E-01  0.3423692E+00
         13   -1    0    0    0    0  0.00000000000E+00  0.00000000000E+00  0.14999999963E+04  0.15000000000E+04  0.10566000000E+00 0.  1.
        994   -1    0    0    0    0 -0.00000000000E+00 -0.00000000000E+00  0.11368683772E-12  0.17120000000E+03  0.17120000000E+03 0.  0.
         13    1    1    2    0    0 -0.18789408492E+01  0.10306495161E+02  0.58087590867E+02  0.59024856103E+02  0.10566000000E+00 0.  1.
        994    1    1    2    0    0  0.34135012137E+01 -0.11275994622E+02  0.13835869051E+01  0.17161047275E+03  0.17120000000E+03 0.  0.
        998    1    1    2    0    0 -0.15345603645E+01  0.96949946137E+00  0.14405288185E+04  0.14405646711E+04  0.10000000000E+02 0.  1.
</event>
<event>
 5    1  0.1796476E-008  0.3691316E+03  0.7957747E-01  0.3499891E+00
         13   -1    0    0    0    0  0.00000000000E+00  0.00000000000E+00  0.14999999963E+04  0.15000000000E+04  0.10566000000E+00 0. -1.
        994   -1    0    0    0    0 -0.00000000000E+00 -0.00000000000E+00  0.11368683772E-12  0.17120000000E+03  0.17120000000E+03 0.  0.
         13    1    1    2    0    0 -0.27737184114E+02  0.63466122373E+02  0.30416367550E+03  0.31195008051E+03  0.10566000000E+00 0. -1.
        994    1    1    2    0    0  0.31889188819E+01 -0.61811937836E+01  0.98914686698E+01  0.17162650586E+03  0.17120000000E+03 0.  0.
        998    1    1    2    0    0  0.24548265232E+02 -0.57284928589E+02  0.11859448521E+04  0.11876234136E+04  0.10000000000E+02 0.  1.
</event>
<event>
 5    1  0.1796476E-008  0.3847997E+03  0.7957747E-01  0.3430522E+00
         13   -1    0    0    0    0  0.00000000000E+00  0.00000000000E+00  0.14999999963E+04  0.15000000000E+04  0.10566000000E+00 0. -1.
        994   -1    0    0    0    0 -0.00000000000E+00 -0.00000000000E+00  0.11368683772E-12  0.17120000000E+03  0.17120000000E+03 0.  0.
         13    1    1    2    0    0  0.82390799785E+01  0.14609328576E+02  0.84872786373E+02  0.86514252878E+02  0.10566000000E+00 0. -1.
        994    1    1    2    0    0 -0.71841279589E+00 -0.50014744161E+01  0.18136558597E+01  0.17128415050E+03  0.17120000000E+03 0.  0.
        998    1    1    2    0    0 -0.75206671827E+01 -0.96078541599E+01  0.14133135540E+04  0.14134015966E+04  0.10000000000E+02 0. -1.
</event>
<event>
 5    1  0.1796476E-008  0.3741368E+03  0.7957747E-01  0.3477092E+00
         13   -1    0    0    0    0  0.00000000000E+00  0.00000000000E+00  0.14999999963E+04  0.15000000000E+04  0.10566000000E+00 0.  1.
        994   -1    0    0    0    0 -0.00000000000E+00 -0.00000000000E+00  0.11368683772E-12  0.17120000000E+03  0.17120000000E+03 0.  0.
         13    1    1    2    0    0  0.37433621595E+02  0.28997185223E+02  0.14416706884E+03  0.15174408614E+03  0.10566000000E+00 0.  1.
        994    1    1    2    0    0 -0.31303276872E+02 -0.29743793838E+02  0.13505963091E+02  0.17707749562E+03  0.17120000000E+03 0.  0.
        998    1    1    2    0    0 -0.61303447234E+01  0.74660861588E+00  0.13423269643E+04  0.13423784182E+04  0.10000000000E+02 0.  1.
</event>
<event>
 5    1  0.1796476E-008  0.3840726E+03  0.7957747E-01  0.3433615E+00
         13   -1    0    0    0    0  0.00000000000E+00  0.00000000000E+00  0.14999999963E+04  0.15000000000E+04  0.10566000000E+00 0.  1.
        994   -1    0    0    0    0 -0.00000000000E+00 -0.00000000000E+00  0.11368683772E-12  0.17120000000E+03  0.17120000000E+03 0.  0.
         13    1    1    2    0    0 -0.95084331323E+02 -0.18929425006E+03  0.11520884392E+04  0.11714013514E+04  0.10566000000E+00 0.  1.
        994    1    1    2    0    0  0.88605856284E+02  0.19767799188E+03  0.17635582322E+03  0.32762539985E+03  0.17120000000E+03 0.  0.
        998    1    1    2    0    0  0.64784750397E+01 -0.83837418197E+01  0.17155573390E+03  0.17217324879E+03  0.10000000000E+02 0.  1.
</event>
<event>
 5    1  0.1796476E-008  0.3858645E+03  0.7957747E-01  0.3426014E+00
         13   -1    0    0    0    0  0.00000000000E+00  0.00000000000E+00  0.14999999963E+04  0.15000000000E+04  0.10566000000E+00 0.  1.
        994   -1    0    0    0    0 -0.00000000000E+00 -0.00000000000E+00  0.11368683772E-12  0.17120000000E+03  0.17120000000E+03 0.  0.
         13    1    1    2    0    0 -0.34734201806E+01 -0.12160970834E+02  0.64681971284E+02  0.65906922494E+02  0.10566000000E+00 0.  1.
        994    1    1    2    0    0  0.10542197696E+01  0.13937814832E+02  0.18425055625E+01  0.17177953571E+03  0.17120000000E+03 0.  0.
        998    1    1    2    0    0  0.24192004110E+01 -0.17768439982E+01  0.14334755194E+04  0.14335135418E+04  0.10000000000E+02 0.  1.
</event>
<event>
 5    1  0.1796476E-008  0.3837222E+03  0.7957747E-01  0.3435110E+00
         13   -1    0    0    0    0  0.00000000000E+00  0.00000000000E+00  0.14999999963E+04  0.15000000000E+04  0.10566000000E+00 0.  1.
        994   -1    0    0    0    0 -0.00000000000E+00 -0.00000000000E+00  0.11368683772E-12  0.17120000000E+03  0.17120000000E+03 0.  0.
         13    1    1    2    0    0  0.43845609482E+01  0.23046652893E+02  0.91001266800E+02  0.93976668953E+02  0.10566000000E+00 0.  1.
        994    1    1    2    0    0  0.13286604856E+02 -0.65096212906E+02  0.16981415224E+02  0.18442304429E+03  0.17120000000E+03 0.  0.
        998    1    1    2    0    0 -0.17671165804E+02  0.42049560013E+02  0.13920173143E+04  0.13928002868E+04  0.10000000000E+02 0.  1.
</event>
<event>
 5    1  0.1796476E-008  0.3830570E+03  0.7957747E-01  0.3437955E+00
         13   -1    0    0    0    0  0.00000000000E+00  0.00000000000E+00  0.14999999963E+04  0.15000000000E+04  0.10566000000E+00 0.  1.
        994   -1    0    0    0    0 -0.00000000000E+00 -0.00000000000E+00  0.11368683772E-12  0.17120000000E+03  0.17120000000E+03 0.  0.
         13    1    1    2    0    0  0.18670822502E+02  0.10114534460E+02  0.90111646648E+02  0.92579822023E+02  0.10566000000E+00 0.  1.
        994    1    1    2    0    0 -0.38568769652E+00 -0.11518612706E+02  0.30376086193E+01  0.17161437661E+03  0.17120000000E+03 0.  0.
        998    1    1    2    0    0 -0.18285134805E+02  0.14040782462E+01  0.14068507410E+04  0.14070058014E+04  0.10000000000E+02 0.  1.
</event>
<event>
 5    1  0.1796476E-008  0.3760864E+03  0.7957747E-01  0.3468378E+00
         13   -1    0    0    0    0  0.00000000000E+00  0.00000000000E+00  0.14999999963E+04  0.15000000000E+04  0.10566000000E+00 0.  1.
        994   -1    0    0    0    0 -0.00000000000E+00 -0.00000000000E+00  0.11368683772E-12  0.17120000000E+03  0.17120000000E+03 0.  0.
         13    1    1    2    0    0 -0.31445256121E+02 -0.21256879571E+02  0.14168828224E+03  0.14668414894E+03  0.10566000000E+00 0.  1.
        994    1    1    2    0    0 -0.22271063560E+02  0.53298195384E+01  0.78999779253E+01  0.17290534087E+03  0.17120000000E+03 0.  0.
        998    1    1    2    0    0  0.53716319681E+02  0.15927060033E+02  0.13504117361E+04  0.13516105102E+04  0.10000000000E+02 0.  1.
</event>
<event>
 5    1  0.1796476E-008  0.3714625E+03  0.7957747E-01  0.3489196E+00
         13   -1    0    0    0    0  0.00000000000E+00  0.00000000000E+00  0.14999999963E+04  0.15000000000E+04  0.10566000000E+00 0. -1.
        994   -1    0    0    0    0 -0.00000000000E+00 -0.00000000000E+00  0.11368683772E-12  0.17120000000E+03  0.17120000000E+03 0.  0.
         13    1    1    2    0    0 -0.16609032462E+02  0.31930866597E+01  0.12944005778E+02  0.21298220850E+02  0.10566000000E+00 0. -1.
        994    1    1    2    0    0  0.16146698704E+02 -0.19223979634E+01  0.94167937219E+01  0.17222812632E+03  0.17120000000E+03 0.  0.
        998    1    1    2    0    0  0.46233375769E+00 -0.12706886963E+01  0.14776391968E+04  0.14776736528E+04  0.10000000000E+02 0. -1.
</event>
<event>
 5    1  0.1796476E-008  0.3798586E+03  0.7957747E-01  0.3451774E+00
         13   -1    0    0    0    0  0.00000000000E+00  0.00000000000E+00  0.14999999963E+04  0.15000000000E+04  0.10566000000E+00 0. -1.
        994   -1    0    0    0    0 -0.00000000000E+00 -0.00000000000E+00  0.11368683772E-12  0.17120000000E+03  0.17120000000E+03 0.  0.
         13    1    1    2    0    0 -0.40977920935E+02  0.49143305987E+01  0.22633248252E+03  0.23006465278E+03  0.10566000000E+00 0. -1.
        994    1    1    2    0    0  0.91754557816E+01  0.59224531437E+00  0.44873122553E+01  0.17150543931E+03  0.17120000000E+03 0.  0.
        998    1    1    2    0    0  0.31802465154E+02 -0.55065759131E+01  0.12691802015E+04  0.12696299079E+04  0.10000000000E+02 0. -1.
</event>
<event>
 5    1  0.1796476E-008  0.3858380E+03  0.7957747E-01  0.3426126E+00
         13   -1    0    0    0    0  0.00000000000E+00  0.00000000000E+00  0.14999999963E+04  0.15000000000E+04  0.10566000000E+00 0.  1.
        994   -1    0    0    0    0 -0.00000000000E+00 -0.00000000000E+00  0.11368683772E-12  0.17120000000E+03  0.17120000000E+03 0.  0.
         13    1    1    2    0    0  0.10029672501E+02  0.26041624378E+01  0.43548418644E+02  0.44764404642E+02  0.10566000000E+00 0.  1.
        994    1    1    2    0    0 -0.82574537616E+01 -0.12059339241E+02  0.19155826554E+01  0.17183341544E+03  0.17120000000E+03 0.  0.
        998    1    1    2    0    0 -0.17722187393E+01  0.94551768031E+01  0.14545359950E+04  0.14546021799E+04  0.10000000000E+02 0.  1.
</event>
<event>
 5    1  0.1796476E-008  0.3823588E+03  0.7957747E-01  0.3440952E+00
         13   -1    0    0    0    0  0.00000000000E+00  0.00000000000E+00  0.14999999963E+04  0.15000000000E+04  0.10566000000E+00 0.  1.
        994   -1    0    0    0    0 -0.00000000000E+00 -0.00000000000E+00  0.11368683772E-12  0.17120000000E+03  0.17120000000E+03 0.  0.
         13    1    1    2    0    0  0.10369506270E+02 -0.75405583403E+01  0.25861858195E+02  0.28865785174E+02  0.10566000000E+00 0.  1.
        994    1    1    2    0    0 -0.29152819469E+02 -0.65562595925E+01  0.59145219198E+01  0.17388873739E+03  0.17120000000E+03 0.  0.
        998    1    1    2    0    0  0.18783313199E+02  0.14096817933E+02  0.14682236162E+04  0.14684454774E+04  0.10000000000E+02 0.  1.
</event>
<event>
 5    1  0.1796476E-008  0.3848921E+03  0.7957747E-01  0.3430130E+00
         13   -1    0    0    0    0  0.00000000000E+00  0.00000000000E+00  0.14999999963E+04  0.15000000000E+04  0.10566000000E+00 0.  1.
        994   -1    0    0    0    0 -0.00000000000E+00 -0.00000000000E+00  0.11368683772E-12  0.17120000000E+03  0.17120000000E+03 0.  0.
         13    1    1    2    0    0  0.51471565977E+00  0.12039281063E+02  0.45465274417E+02  0.47035216196E+02  0.10566000000E+00 0.  1.
        994    1    1    2    0    0  0.11663030757E+01  0.24933935632E+01  0.17086614897E+01  0.17123065379E+03  0.17120000000E+03 0.  0.
        998    1    1    2    0    0 -0.16810187354E+01 -0.14532674626E+02  0.14528260604E+04  0.14529341300E+04  0.10000000000E+02 0.  1.
</event>
<event>
 5    1  0.1796476E-008  0.3838124E+03  0.7957747E-01  0.3434725E+00
         13   -1    0    0    0    0  0.00000000000E+00  0.00000000000E+00  0.14999999963E+04  0.15000000000E+04  0.10566000000E+00 0. -1.
        994   -1    0    0    0    0 -0.00000000000E+00 -0.00000000000E+00  0.11368683772E-12  0.17120000000E+03  0.17120000000E+03 0.  0.
         13    1    1    2    0    0 -0.18307878369E+02  0.12560549564E+02  0.12935669937E+03  0.13124828628E+03  0.10566000000E+00 0. -1.
        994    1    1    2    0    0 -0.29989715150E+01  0.61945295064E+01  0.23772932605E+01  0.17135477101E+03  0.17120000000E+03 0.  0.
        998    1    1    2    0    0  0.21306849884E+02 -0.18755079071E+02  0.13682660037E+04  0.13685969427E+04  0.10000000000E+02 0. -1.
</event>
<event>
 5    1  0.1796476E-008  0.3829692E+03  0.7957747E-01  0.3438331E+00
         13   -1    0    0    0    0  0.00000000000E+00  0.00000000000E+00  0.14999999963E+04  0.15000000000E+04  0.10566000000E+00 0.  1.
        994   -1    0    0    0    0 -0.00000000000E+00 -0.00000000000E+00  0.11368683772E-12  0.17120000000E+03  0.17120000000E+03 0.  0.
         13    1    1    2    0    0  0.62083743779E+01 -0.17657673874E+02  0.67138283653E+02  0.69698620180E+02  0.10566000000E+00 0.  1.
        994    1    1    2    0    0 -0.16083652530E+02  0.23778357206E+01  0.35173402917E+01  0.17200624891E+03  0.17120000000E+03 0.  0.
        998    1    1    2    0    0  0.98752781520E+01  0.15279838154E+02  0.14293443723E+04  0.14294951309E+04  0.10000000000E+02 0.  1.
</event>
<event>
 5    1  0.1796476E-008  0.3770249E+03  0.7957747E-01  0.3464216E+00
         13   -1    0    0    0    0  0.00000000000E+00  0.00000000000E+00  0.14999999963E+04  0.15000000000E+04  0.10566000000E+00 0.  1.
        994   -1    0    0    0    0 -0.00000000000E+00 -0.00000000000E+00  0.11368683772E-12  0.17120000000E+03  0.17120000000E+03 0.  0.
         13    1    1    2    0    0 -0.19254404352E+02 -0.11891598150E+01  0.30021881018E+02  0.35685721121E+02  0.10566000000E+00 0.  1.
        994    1    1    2    0    0  0.20440251014E+02  0.56842012425E+01  0.71636554226E+01  0.17265825194E+03  0.17120000000E+03 0.  0.
        998    1    1    2    0    0 -0.11858466620E+01 -0.44950414275E+01  0.14628144598E+04  0.14628560269E+04  0.10000000000E+02 0.  1.
</event>
<event>
 5    1  0.1796476E-008  0.3858594E+03  0.7957747E-01  0.3426035E+00
         13   -1    0    0    0    0  0.00000000000E+00  0.00000000000E+00  0.14999999963E+04  0.15000000000E+04  0.10566000000E+00 0.  1.
        994   -1    0    0    0    0 -0.00000000000E+00 -0.00000000000E+00  0.11368683772E-12  0.17120000000E+03  0.17120000000E+03 0.  0.
         13    1    1    2    0    0 -0.25822212197E+01 -0.12818616554E+02  0.74202301460E+02  0.75345719871E+02  0.10566000000E+00 0.  1.
        994    1    1    2    0    0  0.18993756296E+01  0.39530145036E+01  0.12671162065E+01  0.17126085231E+03  0.17120000000E+03 0.  0.
        998    1    1    2    0    0  0.68284559012E+00  0.88656020505E+01  0.14245305786E+04  0.14245934278E+04  0.10000000000E+02 0.  1.
</event>
<event>
 5    1  0.1796476E-008  0.3689086E+03  0.7957747E-01  0.3500922E+00
         13   -1    0    0    0    0  0.00000000000E+00  0.00000000000E+00  0.14999999963E+04  0.15000000000E+04  0.10566000000E+00 0.  1.
        994   -1    0    0    0    0 -0.00000000000E+00 -0.00000000000E+00  0.11368683772E-12  0.17120000000E+03  0.17120000000E+03 0.  0.
         13    1    1    2    0    0  0.28681136539E+02  0.15920540598E+02  0.48935569710E+02  0.58913261266E+02  0.10566000000E+00 0.  1.
        994    1    1    2    0    0 -0.14595128880E+02 -0.39411186360E+01  0.11159235883E+02  0.17222810093E+03  0.17120000000E+03 0.  0.
        998    1    1    2    0    0 -0.14086007660E+02 -0.11979421962E+02  0.14399051907E+04  0.14400586378E+04  0.10000000000E+02 0.  1.
</event>
<event>
 5    1  0.1796476E-008  0.3752268E+03  0.7957747E-01  0.3472209E+00
         13   -1    0    0    0    0  0.00000000000E+00  0.00000000000E+00  0.14999999963E+04  0.15000000000E+04  0.10566000000E+00 0.  1.
        994   -1    0    0    0    0 -0.00000000000E+00 -0.00000000000E+00  0.11368683772E-12  0.17120000000E+03  0.17120000000E+03 0.  0.
         13    1    1    2    0    0 -0.17626577602E+02 -0.25180900384E+02  0.67405510090E+02  0.74082980074E+02  0.10566000000E+00 0.  1.
        994    1    1    2    0    0  0.40074011475E+02  0.65366577365E+01  0.12182750996E+02  0.17637038785E+03  0.17120000000E+03 0.  0.
        998    1    1    2    0    0 -0.22447433873E+02  0.18644242647E+02  0.14204117352E+04  0.14207466321E+04  0.10000000000E+02 0.  1.
</event>
<event>
 5    1  0.1796476E-008  0.3783753E+03  0.7957747E-01  0.3458263E+00
         13   -1    0    0    0    0  0.00000000000E+00  0.00000000000E+00  0.14999999963E+04  0.15000000000E+04  0.10566000000E+00 0.  1.
        994   -1    0    0    0    0 -0.00000000000E+00 -0.00000000000E+00  0.11368683772E-12  0.17120000000E+03  0.17120000000E+03 0.  0.
         13    1    1    2    0    0 -0.34797825786E+01  0.25663356318E+02  0.64296207921E+02  0.69316161617E+02  0.10566000000E+00 0.  1.
        994    1    1    2    0    0  0.43919775356E+00 -0.22685868559E+02  0.66878015935E+01  0.17282652637E+03  0.17120000000E+03 0.  0.
        998    1    1    2    0    0  0.30405848251E+01 -0.29774877589E+01  0.14290159868E+04  0.14290573120E+04  0.10000000000E+02 0.  1.
</event>
<event>
 5    1  0.1796476E-008  0.3833191E+03  0.7957747E-01  0.3436833E+00
         13   -1    0    0    0    0  0.00000000000E+00  0.00000000000E+00  0.14999999963E+04  0.15000000000E+04  0.10566000000E+00 0.  1.
        994   -1    0    0    0    0 -0.00000000000E+00 -0.00000000000E+00  0.11368683772E-12  0.17120000000E+03  0.17120000000E+03 0.  0.
         13    1    1    2    0    0 -0.17465580018E+02 -0.70761298841E+01  0.71094340265E+02  0.73549537600E+02  0.10566000000E+00 0.  1.
        994    1    1    2    0    0  0.14079048448E+02 -0.91259775245E+00  0.31254550332E+01  0.17180879171E+03  0.17120000000E+03 0.  0.
        998    1    1    2    0    0  0.33865315702E+01  0.79887276366E+01  0.14257802010E+04  0.14258416707E+04  0.10000000000E+02 0.  1.
</event>
<event>
 5    1  0.1796476E-008  0.3832404E+03  0.7957747E-01  0.3437169E+00
         13   -1    0    0    0    0  0.00000000000E+00  0.00000000000E+00  0.14999999963E+04  0.15000000000E+04  0.10566000000E+00 0.  1.
        994   -1    0    0    0    0 -0.00000000000E+00 -0.00000000000E+00  0.11368683772E-12  0.17120000000E+03  0.17120000000E+03 0.  0.
         13    1    1    2    0    0  0.14949625629E+02  0.32101914863E+01  0.46861414260E+02  0.49293000987E+02  0.10566000000E+00 0.  1.
        994    1    1    2    0    0 -0.60830604038E+01  0.16904890816E+01  0.26381197045E+01  0.17133668916E+03  0.17120000000E+03 0.  0.
        998    1    1    2    0    0 -0.88665652255E+01 -0.49006805679E+01  0.14505004623E+04  0.14505703099E+04  0.10000000000E+02 0.  1.
</event>
<event>
 5    1  0.1796476E-008  0.3807450E+03  0.7957747E-01  0.3447921E+00
         13   -1    0    0    0    0  0.00000000000E+00  0.00000000000E+00  0.14999999963E+04  0.15000000000E+04  0.10566000000E+00 0. -1.
        994   -1    0    0    0    0 -0.00000000000E+00 -0.00000000000E+00  0.11368683772E-12  0.17120000000E+03  0.17120000000E+03 0.  0.
         13    1    1    2    0    0 -0.62411964151E+01 -0.83466397725E+01  0.12799191150E+02  0.16506040904E+02  0.10566000000E+00 0. -1.
        994    1    1    2    0    0  0.59515938828E+01  0.63023837756E+01  0.40081620383E+01  0.17146616831E+03  0.17120000000E+03 0.  0.
        998    1    1    2    0    0  0.28960253231E+00  0.20442559969E+01  0.14831926431E+04  0.14832277908E+04  0.10000000000E+02 0. -1.
</event>
<event>
 5    1  0.1796476E-008  0.3856298E+03  0.7957747E-01  0.3427005E+00
         13   -1    0    0    0    0  0.00000000000E+00  0.00000000000E+00  0.14999999963E+04  0.15000000000E+04  0.10566000000E+00 0.  1.
        994   -1    0    0    0    0 -0.00000000000E+00 -0.00000000000E+00  0.11368683772E-12  0.17120000000E+03  0.17120000000E+03 0.  0.
         13    1    1    2    0    0 -0.10572130551E+02  0.81614589473E+01  0.77184226485E+02  0.78331317738E+02  0.10566000000E+00 0.  1.
        994    1    1    2    0    0 -0.76617250657E+01  0.16957003375E+01  0.15198828966E+01  0.17138648568E+03  0.17120000000E+03 0.  0.
        998    1    1    2    0    0  0.18233855617E+02 -0.98571592848E+01  0.14212958869E+04  0.14214821966E+04  0.10000000000E+02 0.  1.
</event>
<event>
 5    1  0.1796476E-008  0.3823450E+03  0.7957747E-01  0.3441011E+00
         13   -1    0    0    0    0  0.00000000000E+00  0.00000000000E+00  0.14999999963E+04  0.15000000000E+04  0.10566000000E+00 0. -1.
        994   -1    0    0    0    0 -0.00000000000E+00 -0.00000000000E+00  0.11368683772E-12  0.17120000000E+03  0.17120000000E+03 0.  0.
         13    1    1    2    0    0 -0.17954669620E+02 -0.31626769230E+01  0.60229068755E+02  0.62927931585E+02  0.10566000000E+00 0. -1.
        994    1    1    2    0    0 -0.61045819965E+01 -0.12139320691E+01  0.30825947405E+01  0.17134083560E+03  0.17120000000E+03 0.  0.
        998    1    1    2    0    0  0.24059251616E+02  0.43766089921E+01  0.14366883328E+04  0.14369312328E+04  0.10000000000E+02 0. -1.
</event>
<event>
 5    1  0.1796476E-008  0.3841135E+03  0.7957747E-01  0.3433441E+00
         13   -1    0    0    0    0  0.00000000000E+00  0.00000000000E+00  0.14999999963E+04  0.15000000000E+04  0.10566000000E+00 0. -1.
        994   -1    0    0    0    0 -0.00000000000E+00 -0.00000000000E+00  0.11368683772E-12  0.17120000000E+03  0.17120000000E+03 0.  0.
         13    1    1    2    0    0  0.17751951961E+02 -0.11295772303E+01  0.73386493263E+02  0.75511564020E+02  0.10566000000E+00 0. -1.
        994    1    1    2    0    0 -0.17448479745E+02 -0.79734777431E+00  0.30777603388E+01  0.17211623345E+03  0.17120000000E+03 0.  0.
        998    1    1    2    0    0 -0.30347221612E+00  0.19269250046E+01  0.14235357427E+04  0.14235722025E+04  0.10000000000E+02 0. -1.
</event>
<event>
 5    1  0.1796476E-008  0.3836582E+03  0.7957747E-01  0.3435383E+00
         13   -1    0    0    0    0  0.00000000000E+00  0.00000000000E+00  0.14999999963E+04  0.15000000000E+04  0.10566000000E+00 0.  1.
        994   -1    0    0    0    0 -0.00000000000E+00 -0.00000000000E+00  0.11368683772E-12  0.17120000000E+03  0.17120000000E+03 0.  0.
         13    1    1    2    0    0  0.38688135020E+02  0.17008625208E+02  0.46610625771E+02  0.62917618530E+02  0.10566000000E+00 0.  1.
        994    1    1    2    0    0  0.15117349304E+02  0.45710405453E+00  0.19192034958E+02  0.17293500918E+03  0.17120000000E+03 0.  0.
        998    1    1    2    0    0 -0.53805484323E+02 -0.17465729262E+02  0.14341973355E+04  0.14353473723E+04  0.10000000000E+02 0.  1.
</event>
<event>
 5    1  0.1796476E-008  0.3827477E+03  0.7957747E-01  0.3439281E+00
         13   -1    0    0    0    0  0.00000000000E+00  0.00000000000E+00  0.14999999963E+04  0.15000000000E+04  0.10566000000E+00 0. -1.
        994   -1    0    0    0    0 -0.00000000000E+00 -0.00000000000E+00  0.11368683772E-12  0.17120000000E+03  0.17120000000E+03 0.  0.
         13    1    1    2    0    0 -0.18833337140E+02  0.17319274397E+02  0.11931186342E+03  0.12202452119E+03  0.10566000000E+00 0. -1.
        994    1    1    2    0    0  0.16668653573E+02 -0.27834180151E+01  0.36992167890E+01  0.17207183277E+03  0.17120000000E+03 0.  0.
        998    1    1    2    0    0  0.21646835671E+01 -0.14535856382E+02  0.13769889161E+04  0.13771036460E+04  0.10000000000E+02 0. -1.
</event>
<event>
 5    1  0.1796476E-008  0.3805670E+03  0.7957747E-01  0.3448693E+00
         13   -1    0    0    0    0  0.00000000000E+00  0.00000000000E+00  0.14999999963E+04  0.15000000000E+04  0.10566000000E+00 0. -1.
        994   -1    0    0    0    0 -0.00000000000E+00 -0.00000000000E+00  0.11368683772E-12  0.17120000000E+03  0.17120000000E+03 0.  0.
         13    1    1    2    0    0 -0.26476636618E+02  0.42087790049E+01  0.14171702725E+02  0.30324485642E+02  0.10566000000E+00 0. -1.
        994    1    1    2    0    0  0.30254480611E+02 -0.76915414778E+01  0.20185473961E+02  0.17518957379E+03  0.17120000000E+03 0.  0.
        998    1    1    2    0    0 -0.37778439928E+01  0.34827624730E+01  0.14656428196E+04  0.14656859406E+04  0.10000000000E+02 0. -1.
</event>
<event>
 5    1  0.1796476E-008  0.3739963E+03  0.7957747E-01  0.3477724E+00
         13   -1    0    0    0    0  0.00000000000E+00  0.00000000000E+00  0.14999999963E+04  0.15000000000E+04  0.10566000000E+00 0. -1.
        994   -1    0    0    0    0 -0.00000000000E+00 -0.00000000000E+00  0.11368683772E-12  0.17120000000E+03  0.17120000000E+03 0.  0.
         13    1    1    2    0    0 -0.65303813161E+02 -0.14838146845E+02  0.24716451955E+03  0.25607629626E+03  0.10566000000E+00 0. -1.
        994    1    1    2    0    0  0.72934436307E+02  0.12239284416E+02  0.26084861154E+02  0.18830584713E+03  0.17120000000E+03 0.  0.
        998    1    1    2    0    0 -0.76306231460E+01  0.25988624289E+01  0.12267506156E+04  0.12268178566E+04  0.10000000000E+02 0. -1.
</event>
<event>
 5    1  0.1796476E-008  0.3752948E+03  0.7957747E-01  0.3471905E+00
         13   -1    0    0    0    0  0.00000000000E+00  0.00000000000E+00  0.14999999963E+04  0.15000000000E+04  0.10566000000E+00 0.  1.
        994   -1    0    0    0    0 -0.00000000000E+00 -0.00000000000E+00  0.11368683772E-12  0.17120000000E+03  0.17120000000E+03 0.  0.
         13    1    1    2    0    0 -0.79287645866E+02  0.77675946470E+02  0.52063208867E+03  0.53233247728E+03  0.10566000000E+00 0.  1.
        994    1    1    2    0    0  0.37529896797E+02 -0.27034397345E+02  0.21426303410E+02  0.17862776456E+03  0.17120000000E+03 0.  0.
        998    1    1    2    0    0  0.41757749069E+02 -0.50641549124E+02  0.95794160420E+03  0.96023975816E+03  0.10000000000E+02 0. -1.
</event>
<event>
 5    1  0.1796476E-008  0.3817323E+03  0.7957747E-01  0.3443650E+00
         13   -1    0    0    0    0  0.00000000000E+00  0.00000000000E+00  0.14999999963E+04  0.15000000000E+04  0.10566000000E+00 0. -1.
        994   -1    0    0    0    0 -0.00000000000E+00 -0.00000000000E+00  0.11368683772E-12  0.17120000000E+03  0.17120000000E+03 0.  0.
         13    1    1    2    0    0 -0.44538424759E+01 -0.94523038353E+01  0.15587939868E+02  0.18766400666E+02  0.10566000000E+00 0. -1.
        994    1    1    2    0    0  0.38223041144E+01  0.11481860841E+01  0.33142098897E+01  0.17127858105E+03  0.17120000000E+03 0.  0.
        998    1    1    2    0    0  0.63153836152E+00  0.83041177512E+01  0.14810978465E+04  0.14811550183E+04  0.10000000000E+02 0. -1.
</event>
<event>
 5    1  0.1796476E-008  0.3808183E+03  0.7957747E-01  0.3447603E+00
         13   -1    0    0    0    0  0.00000000000E+00  0.00000000000E+00  0.14999999963E+04  0.15000000000E+04  0.10566000000E+00 0. -1.
        994   -1    0    0    0    0 -0.00000000000E+00 -0.00000000000E+00  0.11368683772E-12  0.17120000000E+03  0.17120000000E+03 0.  0.
         13    1    1    2    0    0  0.11484387592E+02 -0.92800487770E+01  0.28602124760E+02  0.32188556483E+02  0.10566000000E+00 0. -1.
        994    1    1    2    0    0  0.16318842221E+01  0.43196946489E+01  0.37917197712E+01  0.17130423213E+03  0.17120000000E+03 0.  0.
        998    1    1    2    0    0 -0.13116271814E+02  0.49603541281E+01  0.14676061517E+04  0.14677072114E+04  0.10000000000E+02 0. -1.
</event>
<event>
 5    1  0.1796476E-008  0.3838616E+03  0.7957747E-01  0.3434515E+00
         13   -1    0    0    0    0  0.00000000000E+00  0.00000000000E+00  0.14999999963E+04  0.15000000000E+04  0.10566000000E+00 0.  1.
        994   -1    0    0    0    0 -0.00000000000E+00 -0.00000000000E+00  0.11368683772E-12  0.17120000000E+03  0.17120000000E+03 0.  0.
         13    1    1    2    0    0 -0.20915851151E+02 -0.88470150746E+01  0.12449530680E+03  0.12654973364E+03  0.10566000000E+00 0.  1.
        994    1    1    2    0    0  0.43087537472E+00  0.14824459472E+02  0.29227458004E+01  0.17186603124E+03  0.17120000000E+03 0.  0.
        998    1    1    2    0    0  0.20484975776E+02 -0.59774443971E+01  0.13725819437E+04  0.13727842351E+04  0.10000000000E+02 0.  1.
</event>
<event>
 5    1  0.1796476E-008  0.3837168E+03  0.7957747E-01  0.3435133E+00
         13   -1    0    0    0    0  0.00000000000E+00  0.00000000000E+00  0.14999999963E+04  0.15000000000E+04  0.10566000000E+00 0. -1.
        994   -1    0    0    0    0 -0.00000000000E+00 -0.00000000000E+00  0.11368683772E-12  0.17120000000E+03  0.17120000000E+03 0.  0.
         13    1    1    2    0    0 -0.15817454634E+02  0.54006731430E+00  0.61313198481E+02  0.63323005423E+02  0.10566000000E+00 0. -1.
        994    1    1    2    0    0 -0.10977907292E+02 -0.10606793087E+01  0.26703512368E+01  0.17157566921E+03  0.17120000000E+03 0.  0.
        998    1    1    2    0    0  0.26795361926E+02  0.52061199441E+00  0.14360164466E+04  0.14363013254E+04  0.10000000000E+02 0. -1.
</event>
<event>
 5    1  0.1796476E-008  0.3834255E+03  0.7957747E-01  0.3436377E+00
         13   -1    0    0    0    0  0.00000000000E+00  0.00000000000E+00  0.14999999963E+04  0.15000000000E+04  0.10566000000E+00 0.  1.
        994   -1    0    0    0    0 -0.00000000000E+00 -0.00000000000E+00  0.11368683772E-12  0.17120000000E+03  0.17120000000E+03 0.  0.
         13    1    1    2    0    0 -0.88724887415E+01 -0.66700859162E+01  0.24467727285E+02  0.26868046917E+02  0.10566000000E+00 0.  1.
        994    1    1    2    0    0  0.62167381665E+01  0.92513461364E+01  0.28246269973E+01  0.17158570382E+03  0.17120000000E+03 0.  0.
        998    1    1    2    0    0  0.26557505749E+01 -0.25812602202E+01  0.14727076420E+04  0.14727462493E+04  0.10000000000E+02 0.  1.
</event>
<event>
 5    1  0.1796476E-008  0.3740482E+03  0.7957747E-01  0.3477490E+00
         13   -1    0    0    0    0  0.00000000000E+00  0.00000000000E+00  0.14999999963E+04  0.15000000000E+04  0.10566000000E+00 0. -1.
        994   -1    0    0    0    0 -0.00000000000E+00 -0.00000000000E+00  0.11368683772E-12  0.17120000000E+03  0.17120000000E+03 0.  0.
         13    1    1    2    0    0 -0.25839138018E+02  0.31566549759E+02  0.14541898344E+03  0.15103244694E+03  0.10566000000E+00 0. -1.
        994    1    1    2    0    0 -0.28044273969E+02  0.81871779922E+01  0.10084397531E+02  0.17396737125E+03  0.17120000000E+03 0.  0.
        998    1    1    2    0    0  0.53883411987E+02 -0.39753727751E+02  0.13444966153E+04  0.13462001818E+04  0.10000000000E+02 0. -1.
</event>
<event>
 5    1  0.1796476E-008  0.3857177E+03  0.7957747E-01  0.3426634E+00
         13   -1    0    0    0    0  0.00000000000E+00  0.00000000000E+00  0.14999999963E+04  0.15000000000E+04  0.10566000000E+00 0.  1.
        994   -1    0    0    0    0 -0.00000000000E+00 -0.00000000000E+00  0.11368683772E-12  0.17120000000E+03  0.17120000000E+03 0.  0.
         13    1    1    2    0    0 -0.82556711813E+01  0.86799212863E+01  0.55363479497E+02  0.56644709958E+02  0.10566000000E+00 0.  1.
        994    1    1    2    0    0  0.34341331439E+01 -0.13020686810E+02  0.18694159319E+01  0.17173894803E+03  0.17120000000E+03 0.  0.
        998    1    1    2    0    0  0.48215380374E+01  0.43407655236E+01  0.14427671008E+04  0.14428163420E+04  0.10000000000E+02 0.  1.
</event>
<event>
 5    1  0.1796476E-008  0.3838402E+03  0.7957747E-01  0.3434606E+00
         13   -1    0    0    0    0  0.00000000000E+00  0.00000000000E+00  0.14999999963E+04  0.15000000000E+04  0.10566000000E+00 0.  1.
        994   -1    0    0    0    0 -0.00000000000E+00 -0.00000000000E+00  0.11368683772E-12  0.17120000000E+03  0.17120000000E+03 0.  0.
         13    1    1    2    0    0  0.67742074812E+01 -0.19924794451E+02  0.10706824814E+03  0.10911694756E+03  0.10566000000E+00 0.  1.
        994    1    1    2    0    0  0.43698147565E+01  0.51177766616E+01  0.23565479611E+01  0.17134841767E+03  0.17120000000E+03 0.  0.
        998    1    1    2    0    0 -0.11144022238E+02  0.14807017789E+02  0.13905752002E+04  0.13907346348E+04  0.10000000000E+02 0.  1.
</event>
<event>
 5    1  0.1796476E-008  0.3855723E+03  0.7957747E-01  0.3427249E+00
         13   -1    0    0    0    0  0.00000000000E+00  0.00000000000E+00  0.14999999963E+04  0.15000000000E+04  0.10566000000E+00 0. -1.
        994   -1    0    0    0    0 -0.00000000000E+00 -0.00000000000E+00  0.11368683772E-12  0.17120000000E+03  0.17120000000E+03 0.  0.
         13    1    1    2    0    0 -0.14140776106E+02  0.30496598469E+00  0.76734323550E+02  0.78027060228E+02  0.10566000000E+00 0. -1.
        994    1    1    2    0    0  0.57359356196E+01 -0.58608365912E+01  0.15670601307E+01  0.17140345983E+03  0.17120000000E+03 0.  0.
        998    1    1    2    0    0  0.84048404862E+01  0.55558706065E+01  0.14216986126E+04  0.14217694799E+04  0.10000000000E+02 0. -1.
</event>
<event>
 5    1  0.1796476E-008  0.4355227E+03  0.7957747E-01  0.3240115E+00
         13   -1    0    0    0    0  0.00000000000E+00  0.00000000000E+00  0.14999999963E+04  0.15000000000E+04  0.10566000000E+00 0.  1.
        994   -1    0    0    0    0 -0.00000000000E+00 -0.00000000000E+00  0.11368683772E-12  0.17120000000E+03  0.17120000000E+03 0.  0.
         13    1    1    2    0    0  0.41998534065E+02 -0.12362981463E+03  0.13234385242E+03  0.18591157675E+03  0.10566000000E+00 0.  1.
        994    1    1    2    0    0 -0.64763369151E+02  0.12535408521E+03  0.15096658806E+03  0.26834360691E+03  0.17120000000E+03 0.  0.
        998    1    1    2    0    0  0.22764835086E+02 -0.17242705725E+01  0.12166895558E+04  0.12169448163E+04  0.10000000000E+02 0.  1.
</event>
<event>
 5    1  0.1796476E-008  0.3801426E+03  0.7957747E-01  0.3450538E+00
         13   -1    0    0    0    0  0.00000000000E+00  0.00000000000E+00  0.14999999963E+04  0.15000000000E+04  0.10566000000E+00 0. -1.
        994   -1    0    0    0    0 -0.00000000000E+00 -0.00000000000E+00  0.11368683772E-12  0.17120000000E+03  0.17120000000E+03 0.  0.
         13    1    1    2    0    0 -0.22754660967E+02  0.61549642880E+01  0.70926339358E+02  0.74740985810E+02  0.10566000000E+00 0. -1.
        994    1    1    2    0    0  0.55328014391E+01  0.12722904016E+02  0.47045938076E+01  0.17182565985E+03  0.17120000000E+03 0.  0.
        998    1    1    2    0    0  0.17221859528E+02 -0.18877868304E+02  0.14243690631E+04  0.14246333543E+04  0.10000000000E+02 0. -1.
</event>
<event>
 5    1  0.1796476E-008  0.3784639E+03  0.7957747E-01  0.3457874E+00
         13   -1    0    0    0    0  0.00000000000E+00  0.00000000000E+00  0.14999999963E+04  0.15000000000E+04  0.10566000000E+00 0.  1.
        994   -1    0    0    0    0 -0.00000000000E+00 -0.00000000000E+00  0.11368683772E-12  0.17120000000E+03  0.17120000000E+03 0.  0.
         13    1    1    2    0    0 -0.89757756521E+00 -0.45595234261E+02  0.18917880421E+03  0.19459795004E+03  0.10566000000E+00 0.  1.
        994    1    1    2    0    0 -0.91973603124E+01  0.42713914502E+02  0.11351924879E+02  0.17705190235E+03  0.17120000000E+03 0.  0.
        998    1    1    2    0    0  0.10094937878E+02  0.28813197593E+01  0.12994692672E+04  0.12995501476E+04  0.10000000000E+02 0.  1.
</event>
<event>
 5    1  0.1796476E-008  0.3843111E+03  0.7957747E-01  0.3432599E+00
         13   -1    0    0    0    0  0.00000000000E+00  0.00000000000E+00  0.14999999963E+04  0.15000000000E+04  0.10566000000E+00 0.  1.
        994   -1    0    0    0    0 -0.00000000000E+00 -0.00000000000E+00  0.11368683772E-12  0.17120000000E+03  0.17120000000E+03 0.  0.
         13    1    1    2    0    0 -0.92308149765E+01  0.55286329903E+01  0.28565256805E+02  0.30524724212E+02  0.10566000000E+00 0.  1.
        994    1    1    2    0    0  0.73117868873E+01 -0.69228355940E+01  0.23067792352E+01  0.17151136729E+03  0.17120000000E+03 0.  0.
        998    1    1    2    0    0  0.19190280892E+01  0.13942026038E+01  0.14691279602E+04  0.14691639085E+04  0.10000000000E+02 0.  1.
</event>
<event>
 5    1  0.1796476E-008  0.3858777E+03  0.7957747E-01  0.3425958E+00
         13   -1    0    0    0    0  0.00000000000E+00  0.00000000000E+00  0.14999999963E+04  0.15000000000E+04  0.10566000000E+00 0. -1.
        994   -1    0    0    0    0 -0.00000000000E+00 -0.00000000000E+00  0.11368683772E-12  0.17120000000E+03  0.17120000000E+03 0.  0.
         13    1    1    2    0    0 -0.78632909895E+01 -0.78245670246E+01  0.51918743251E+02  0.53090698423E+02  0.10566000000E+00 0. -1.
        994    1    1    2    0    0  0.98511198450E+01  0.10382275068E+01  0.15168410398E+01  0.17149304151E+03  0.17120000000E+03 0.  0.
        998    1    1    2    0    0 -0.19878288555E+01  0.67863395178E+01  0.14465644120E+04  0.14466162601E+04  0.10000000000E+02 0. -1.
</event>
<event>
 5    1  0.1796476E-008  0.3832198E+03  0.7957747E-01  0.3437257E+00
         13   -1    0    0    0    0  0.00000000000E+00  0.00000000000E+00  0.14999999963E+04  0.15000000000E+04  0.10566000000E+00 0. -1.
        994   -1    0    0    0    0 -0.00000000000E+00 -0.00000000000E+00  0.11368683772E-12  0.17120000000E+03  0.17120000000E+03 0.  0.
         13    1    1    2    0    0 -0.12753385444E+02  0.53796019981E+01  0.37290337532E+02  0.39776492998E+02  0.10566000000E+00 0. -1.
        994    1    1    2    0    0  0.10911613784E+02  0.18792431812E+01  0.29221688311E+01  0.17158255722E+03  0.17120000000E+03 0.  0.
        998    1    1    2    0    0  0.18417716601E+01 -0.72588451793E+01  0.14597874899E+04  0.14598409498E+04  0.10000000000E+02 0. -1.
</event>
<event>
 5    1  0.1796476E-008  0.3853734E+03  0.7957747E-01  0.3428090E+00
         13   -1    0    0    0    0  0.00000000000E+00  0.00000000000E+00  0.14999999963E+04  0.15000000000E+04  0.10566000000E+00 0.  1.
        994   -1    0    0    0    0 -0.00000000000E+00 -0.00000000000E+00  0.11368683772E-12  0.17120000000E+03  0.17120000000E+03 0.  0.
         13    1    1    2    0    0 -0.77770497169E+01  0.12533693478E+02  0.79497965437E+02  0.80854892537E+02  0.10566000000E+00 0.  1.
        994    1    1    2    0    0  0.19321449770E+01 -0.22164061939E+01  0.14732869276E+01  0.17123158650E+03  0.17120000000E+03 0.  0.
        998    1    1    2    0    0  0.58449047400E+01 -0.10317287285E+02  0.14190287439E+04  0.14191135210E+04  0.10000000000E+02 0.  1.
</event>
<event>
 5    1  0.1796476E-008  0.3812122E+03  0.7957747E-01  0.3445897E+00
         13   -1    0    0    0    0  0.00000000000E+00  0.00000000000E+00  0.14999999963E+04  0.15000000000E+04  0.10566000000E+00 0.  1.
        994   -1    0    0    0    0 -0.00000000000E+00 -0.00000000000E+00  0.11368683772E-12  0.17120000000E+03  0.17120000000E+03 0.  0.
         13    1    1    2    0    0 -0.40926867842E+01 -0.53376717929E+02  0.71931009226E+02  0.89665519317E+02  0.10566000000E+00 0.  1.
        994    1    1    2    0    0  0.88959467979E+01  0.66237772096E+02  0.33437520390E+02  0.18679959339E+03  0.17120000000E+03 0.  0.
        998    1    1    2    0    0 -0.48032600138E+01 -0.12861054166E+02  0.13946314667E+04  0.13947348873E+04  0.10000000000E+02 0.  1.
</event>
<event>
 5    1  0.1796476E-008  0.3759444E+03  0.7957747E-01  0.3469010E+00
         13   -1    0    0    0    0  0.00000000000E+00  0.00000000000E+00  0.14999999963E+04  0.15000000000E+04  0.10566000000E+00 0. -1.
        994   -1    0    0    0    0 -0.00000000000E+00 -0.00000000000E+00  0.11368683772E-12  0.17120000000E+03  0.17120000000E+03 0.  0.
         13    1    1    2    0    0 -0.61814153928E+02  0.14281525089E+03  0.74890186392E+03  0.76489946951E+03  0.10566000000E+00 0. -1.
        994    1    1    2    0    0  0.77190155340E+02 -0.14651406466E+03  0.10562890445E+03  0.26056015943E+03  0.17120000000E+03 0.  0.
        998    1    1    2    0    0 -0.15376001412E+02  0.36988137703E+01  0.64546922791E+03  0.64574037106E+03  0.10000000000E+02 0. -1.
</event>
<event>
 5    1  0.1796476E-008  0.3855180E+03  0.7957747E-01  0.3427478E+00
         13   -1    0    0    0    0  0.00000000000E+00  0.00000000000E+00  0.14999999963E+04  0.15000000000E+04  0.10566000000E+00 0. -1.
        994   -1    0    0    0    0 -0.00000000000E+00 -0.00000000000E+00  0.11368683772E-12  0.17120000000E+03  0.17120000000E+03 0.  0.
         13    1    1    2    0    0  0.12727282860E+02  0.81602771762E+01  0.86226609756E+02  0.87542065583E+02  0.10566000000E+00 0. -1.
        994    1    1    2    0    0 -0.36319052910E+01 -0.55695723008E+01  0.15183191423E+01  0.17133579943E+03  0.17120000000E+03 0.  0.
        998    1    1    2    0    0 -0.90953775687E+01 -0.25907048754E+01  0.14122550674E+04  0.14123221350E+04  0.10000000000E+02 0. -1.
</event>
<event>
 5    1  0.1796476E-008  0.3799420E+03  0.7957747E-01  0.3451411E+00
         13   -1    0    0    0    0  0.00000000000E+00  0.00000000000E+00  0.14999999963E+04  0.15000000000E+04  0.10566000000E+00 0. -1.
        994   -1    0    0    0    0 -0.00000000000E+00 -0.00000000000E+00  0.11368683772E-12  0.17120000000E+03  0.17120000000E+03 0.  0.
         13    1    1    2    0    0  0.29774735347E+02  0.13673976755E+02  0.15048492697E+03  0.15401050910E+03  0.10566000000E+00 0. -1.
        994    1    1    2    0    0  0.21442811085E+02 -0.37527884799E+02  0.10434057394E+02  0.17687974966E+03  0.17120000000E+03 0.  0.
        998    1    1    2    0    0 -0.51217546432E+02  0.23853908044E+02  0.13390810119E+04  0.13403097412E+04  0.10000000000E+02 0. -1.
</event>
<event>
 5    1  0.1796476E-008  0.3732903E+03  0.7957747E-01  0.3480905E+00
         13   -1    0    0    0    0  0.00000000000E+00  0.00000000000E+00  0.14999999963E+04  0.15000000000E+04  0.10566000000E+00 0. -1.
        994   -1    0    0    0    0 -0.00000000000E+00 -0.00000000000E+00  0.11368683772E-12  0.17120000000E+03  0.17120000000E+03 0.  0.
         13    1    1    2    0    0 -0.13383628851E+02 -0.22793505563E+02  0.42097057470E+02  0.49707532917E+02  0.10566000000E+00 0. -1.
        994    1    1    2    0    0  0.15713469925E+02  0.21885878017E+02  0.10045116720E+02  0.17359795265E+03  0.17120000000E+03 0.  0.
        998    1    1    2    0    0 -0.23298410746E+01  0.90762754577E+00  0.14478578221E+04  0.14478945144E+04  0.10000000000E+02 0.  1.
</event>
<event>
 5    1  0.1796476E-008  0.3799295E+03  0.7957747E-01  0.3451466E+00
         13   -1    0    0    0    0  0.00000000000E+00  0.00000000000E+00  0.14999999963E+04  0.15000000000E+04  0.10566000000E+00 0.  1.
        994   -1    0    0    0    0 -0.00000000000E+00 -0.00000000000E+00  0.11368683772E-12  0.17120000000E+03  0.17120000000E+03 0.  0.
         13    1    1    2    0    0  0.10547750043E+02  0.29885870495E+02  0.24207213105E+02  0.39880077940E+02  0.10566000000E+00 0.  1.
        994    1    1    2    0    0 -0.14712903963E+02 -0.20089312240E+02  0.18537837578E+02  0.17399178553E+03  0.17120000000E+03 0.  0.
        998    1    1    2    0    0  0.41651539199E+01 -0.97965582555E+01  0.14572549456E+04  0.14573281365E+04  0.10000000000E+02 0.  1.
</event>
<event>
 5    1  0.1796476E-008  0.3841055E+03  0.7957747E-01  0.3433475E+00
         13   -1    0    0    0    0  0.00000000000E+00  0.00000000000E+00  0.14999999963E+04  0.15000000000E+04  0.10566000000E+00 0.  1.
        994   -1    0    0    0    0 -0.00000000000E+00 -0.00000000000E+00  0.11368683772E-12  0.17120000000E+03  0.17120000000E+03 0.  0.
         13    1    1    2    0    0 -0.24391941593E+02 -0.52380721169E+01  0.14251326091E+03  0.14468049251E+03  0.10566000000E+00 0.  1.
        994    1    1    2    0    0  0.18737319757E+02  0.12996681199E+02  0.37918426666E+01  0.17275363656E+03  0.17120000000E+03 0.  0.
        998    1    1    2    0    0  0.56546218355E+01 -0.77586090822E+01  0.13536948927E+04  0.13537658709E+04  0.10000000000E+02 0.  1.
</event>
<event>
 5    1  0.1796476E-008  0.3835247E+03  0.7957747E-01  0.3435953E+00
         13   -1    0    0    0    0  0.00000000000E+00  0.00000000000E+00  0.14999999963E+04  0.15000000000E+04  0.10566000000E+00 0.  1.
        994   -1    0    0    0    0 -0.00000000000E+00 -0.00000000000E+00  0.11368683772E-12  0.17120000000E+03  0.17120000000E+03 0.  0.
         13    1    1    2    0    0  0.29654409157E+00  0.20853114023E+02  0.97087138125E+02  0.99301882440E+02  0.10566000000E+00 0.  1.
        994    1    1    2    0    0 -0.21950056077E+01 -0.38653267096E+01  0.24296843143E+01  0.17127493152E+03  0.17120000000E+03 0.  0.
        998    1    1    2    0    0  0.18984615162E+01 -0.16987787313E+02  0.14004831738E+04  0.14006231860E+04  0.10000000000E+02 0.  1.
</event>
<event>
 5    1  0.1796476E-008  0.4050135E+03  0.7957747E-01  0.3348988E+00
         13   -1    0    0    0    0  0.00000000000E+00  0.00000000000E+00  0.14999999963E+04  0.15000000000E+04  0.10566000000E+00 0.  1.
        994   -1    0    0    0    0 -0.00000000000E+00 -0.00000000000E+00  0.11368683772E-12  0.17120000000E+03  0.17120000000E+03 0.  0.
         13    1    1    2    0    0  0.22064824077E+02 -0.17784249610E+02 -0.21263989763E+00  0.28340648819E+02  0.10566000000E+00 0.  1.
        994    1    1    2    0    0 -0.26116762253E+02  0.25720085238E+02  0.36197375863E+02  0.17878282377E+03  0.17120000000E+03 0.  0.
        998    1    1    2    0    0  0.40519381769E+01 -0.79358356281E+01  0.14640152603E+04  0.14640765274E+04  0.10000000000E+02 0.  1.
</event>
<event>
 5    1  0.1796476E-008  0.3785733E+03  0.7957747E-01  0.3457394E+00
         13   -1    0    0    0    0  0.00000000000E+00  0.00000000000E+00  0.14999999963E+04  0.15000000000E+04  0.10566000000E+00 0. -1.
        994   -1    0    0    0    0 -0.00000000000E+00 -0.00000000000E+00  0.11368683772E-12  0.17120000000E+03  0.17120000000E+03 0.  0.
         13    1    1    2    0    0 -0.47391910978E+01 -0.18573068913E+02  0.35949436700E+02  0.40740544722E+02  0.10566000000E+00 0. -1.
        994    1    1    2    0    0  0.14910450678E+01  0.12566875127E+02  0.53931485327E+01  0.17175178490E+03  0.17120000000E+03 0.  0.
        998    1    1    2    0    0  0.32481460300E+01  0.60061937862E+01  0.14586574110E+04  0.14587076704E+04  0.10000000000E+02 0. -1.
</event>
<event>
 5    1  0.1796476E-008  0.3823596E+03  0.7957747E-01  0.3440948E+00
         13   -1    0    0    0    0  0.00000000000E+00  0.00000000000E+00  0.14999999963E+04  0.15000000000E+04  0.10566000000E+00 0.  1.
        994   -1    0    0    0    0 -0.00000000000E+00 -0.00000000000E+00  0.11368683772E-12  0.17120000000E+03  0.17120000000E+03 0.  0.
         13    1    1    2    0    0 -0.59804682262E+01 -0.13146251588E+02  0.34877352371E+02  0.37749580176E+02  0.10566000000E+00 0.  1.
        994    1    1    2    0    0  0.10317655633E+02  0.16036774997E+01  0.33084570219E+01  0.17155002678E+03  0.17120000000E+03 0.  0.
        998    1    1    2    0    0 -0.43371874066E+01  0.11542574088E+02  0.14618141869E+04  0.14619003930E+04  0.10000000000E+02 0.  1.
</event>
<event>
 5    1  0.1796476E-008  0.3747122E+03  0.7957747E-01  0.3474511E+00
         13   -1    0    0    0    0  0.00000000000E+00  0.00000000000E+00  0.14999999963E+04  0.15000000000E+04  0.10566000000E+00 0. -1.
        994   -1    0    0    0    0 -0.00000000000E+00 -0.00000000000E+00  0.11368683772E-12  0.17120000000E+03  0.17120000000E+03 0.  0.
         13    1    1    2    0    0 -0.56330608351E+02 -0.15113704000E+02  0.22451642900E+03  0.23196810026E+03  0.10566000000E+00 0. -1.
        994    1    1    2    0    0  0.41839253821E+02  0.34689155355E+02  0.16944362707E+02  0.18041732757E+03  0.17120000000E+03 0.  0.
        998    1    1    2    0    0  0.14491354530E+02 -0.19575451355E+02  0.12585392046E+04  0.12588145722E+04  0.10000000000E+02 0. -1.
</event>
<event>
 5    1  0.1796476E-008  0.3854615E+03  0.7957747E-01  0.3427717E+00
         13   -1    0    0    0    0  0.00000000000E+00  0.00000000000E+00  0.14999999963E+04  0.15000000000E+04  0.10566000000E+00 0. -1.
        994   -1    0    0    0    0 -0.00000000000E+00 -0.00000000000E+00  0.11368683772E-12  0.17120000000E+03  0.17120000000E+03 0.  0.
         13    1    1    2    0    0 -0.65202856847E+01 -0.11383375257E+02  0.62882747556E+02  0.64236644230E+02  0.10566000000E+00 0. -1.
        994    1    1    2    0    0  0.73560963352E+01  0.25863401262E+01  0.16008791622E+01  0.17138495886E+03  0.17120000000E+03 0.  0.
        998    1    1    2    0    0 -0.83581065049E+00  0.87970351308E+01  0.14355163696E+04  0.14355783969E+04  0.10000000000E+02 0. -1.
</event>
<event>
 5    1  0.1796476E-008  0.3709139E+03  0.7957747E-01  0.3491701E+00
         13   -1    0    0    0    0  0.00000000000E+00  0.00000000000E+00  0.14999999963E+04  0.15000000000E+04  0.10566000000E+00 0.  1.
        994   -1    0    0    0    0 -0.00000000000E+00 -0.00000000000E+00  0.11368683772E-12  0.17120000000E+03  0.17120000000E+03 0.  0.
         13    1    1    2    0    0 -0.54140226993E+02 -0.76628916210E+01  0.18853192438E+03  0.19630125257E+03  0.10566000000E+00 0.  1.
        994    1    1    2    0    0  0.11045160466E+02 -0.10678891468E+02  0.96061045813E+01  0.17215618356E+03  0.17120000000E+03 0.  0.
        998    1    1    2    0    0  0.43095066527E+02  0.18341783089E+02  0.13018619673E+04  0.13027425639E+04  0.10000000000E+02 0.  1.
</event>
<event>
 5    1  0.1796476E-008  0.3764778E+03  0.7957747E-01  0.3466640E+00
         13   -1    0    0    0    0  0.00000000000E+00  0.00000000000E+00  0.14999999963E+04  0.15000000000E+04  0.10566000000E+00 0.  1.
        994   -1    0    0    0    0 -0.00000000000E+00 -0.00000000000E+00  0.11368683772E-12  0.17120000000E+03  0.17120000000E+03 0.  0.
         13    1    1    2    0    0 -0.37281132459E+01  0.16691468785E+02  0.23031877001E+02  0.28687671233E+02  0.10566000000E+00 0.  1.
        994    1    1    2    0    0  0.17780975908E+02  0.68343450392E+01  0.71500940158E+01  0.17240485846E+03  0.17120000000E+03 0.  0.
        998    1    1    2    0    0 -0.14052862662E+02 -0.23525813824E+02  0.14698180253E+04  0.14701074703E+04  0.10000000000E+02 0.  1.
</event>
<event>
 5    1  0.1796476E-008  0.3825555E+03  0.7957747E-01  0.3440106E+00
         13   -1    0    0    0    0  0.00000000000E+00  0.00000000000E+00  0.14999999963E+04  0.15000000000E+04  0.10566000000E+00 0.  1.
        994   -1    0    0    0    0 -0.00000000000E+00 -0.00000000000E+00  0.11368683772E-12  0.17120000000E+03  0.17120000000E+03 0.  0.
         13    1    1    2    0    0  0.13174102284E+02  0.15671452256E+02  0.74543596800E+02  0.77304012669E+02  0.10566000000E+00 0.  1.
        994    1    1    2    0    0  0.76142937062E+01 -0.17500052355E+02  0.40570080092E+01  0.17230823722E+03  0.17120000000E+03 0.  0.
        998    1    1    2    0    0 -0.20788395990E+02  0.18286000986E+01  0.14213993915E+04  0.14215877501E+04  0.10000000000E+02 0.  1.
</event>
<event>
 5    1  0.1796476E-008  0.4337483E+03  0.7957747E-01  0.3246036E+00
         13   -1    0    0    0    0  0.00000000000E+00  0.00000000000E+00  0.14999999963E+04  0.15000000000E+04  0.10566000000E+00 0. -1.
        994   -1    0    0    0    0 -0.00000000000E+00 -0.00000000000E+00  0.11368683772E-12  0.17120000000E+03  0.17120000000E+03 0.  0.
         13    1    1    2    0    0 -0.33961468351E+02 -0.13406837505E+02 -0.60949959490E+01  0.37017357606E+02  0.10566000000E+00 0. -1.
        994    1    1    2    0    0  0.30950524680E+02  0.89475769295E+01  0.54483020082E+02  0.18252625452E+03  0.17120000000E+03 0.  0.
        998    1    1    2    0    0  0.30109436717E+01  0.44592605753E+01  0.14516119721E+04  0.14516563879E+04  0.10000000000E+02 0. -1.
</event>
<event>
 5    1  0.1796476E-008  0.3782749E+03  0.7957747E-01  0.3458705E+00
         13   -1    0    0    0    0  0.00000000000E+00  0.00000000000E+00  0.14999999963E+04  0.15000000000E+04  0.10566000000E+00 0.  1.
        994   -1    0    0    0    0 -0.00000000000E+00 -0.00000000000E+00  0.11368683772E-12  0.17120000000E+03  0.17120000000E+03 0.  0.
         13    1    1    2    0    0  0.32926951471E+02  0.21156301959E+01  0.11167165591E+03  0.11644410643E+03  0.10566000000E+00 0.  1.
        994    1    1    2    0    0 -0.12995771421E+02  0.20049917936E+02  0.69282770835E+01  0.17299806446E+03  0.17120000000E+03 0.  0.
        998    1    1    2    0    0 -0.19931180050E+02 -0.22165548132E+02  0.13814000633E+04  0.13817578291E+04  0.10000000000E+02 0.  1.
</event>
<event>
 5    1  0.1796476E-008  0.3827119E+03  0.7957747E-01  0.3439435E+00
         13   -1    0    0    0    0  0.00000000000E+00  0.00000000000E+00  0.14999999963E+04  0.15000000000E+04  0.10566000000E+00 0. -1.
        994   -1    0    0    0    0 -0.00000000000E+00 -0.00000000000E+00  0.11368683772E-12  0.17120000000E+03  0.17120000000E+03 0.  0.
         13    1    1    2    0    0  0.18129890277E+02 -0.12756763943E+02  0.84592913923E+02  0.87449415080E+02  0.10566000000E+00 0. -1.
        994    1    1    2    0    0 -0.18668305535E+02  0.93562176854E+01  0.42164539335E+01  0.17252032612E+03  0.17120000000E+03 0.  0.
        998    1    1    2    0    0  0.53841525741E+00  0.34005462581E+01  0.14111906284E+04  0.14112302588E+04  0.10000000000E+02 0. -1.
</event>
<event>
 5    1  0.1796476E-008  0.3854236E+03  0.7957747E-01  0.3427878E+00
         13   -1    0    0    0    0  0.00000000000E+00  0.00000000000E+00  0.14999999963E+04  0.15000000000E+04  0.10566000000E+00 0. -1.
        994   -1    0    0    0    0 -0.00000000000E+00 -0.00000000000E+00  0.11368683772E-12  0.17120000000E+03  0.17120000000E+03 0.  0.
         13    1    1    2    0    0  0.36517776232E+01  0.10287273308E+02  0.41191559562E+02  0.42613603639E+02  0.10566000000E+00 0. -1.
        994    1    1    2    0    0 -0.22302241459E+01 -0.11107862809E+02  0.18416352174E+01  0.17158435283E+03  0.17120000000E+03 0.  0.
        998    1    1    2    0    0 -0.14215534773E+01  0.82058950076E+00  0.14569668015E+04  0.14570020435E+04  0.10000000000E+02 0. -1.
</event>
<event>
 5    1  0.1796476E-008  0.3787632E+03  0.7957747E-01  0.3456562E+00
         13   -1    0    0    0    0  0.00000000000E+00  0.00000000000E+00  0.14999999963E+04  0.15000000000E+04  0.10566000000E+00 0. -1.
        994   -1    0    0    0    0 -0.00000000000E+00 -0.00000000000E+00  0.11368683772E-12  0.17120000000E+03  0.17120000000E+03 0.  0.
         13    1    1    2    0    0 -0.18224738481E+02  0.20108303852E+02  0.75826037867E+02  0.80536228861E+02  0.10566000000E+00 0. -1.
        994    1    1    2    0    0  0.80207925830E+01 -0.14936325676E+02  0.57241690902E+01  0.17213260310E+03  0.17120000000E+03 0.  0.
        998    1    1    2    0    0  0.10203945898E+02 -0.51719781761E+01  0.14184497893E+04  0.14185311680E+04  0.10000000000E+02 0. -1.
</event>
<event>
 5    1  0.1796476E-008  0.3766780E+03  0.7957747E-01  0.3465752E+00
         13   -1    0    0    0    0  0.00000000000E+00  0.00000000000E+00  0.14999999963E+04  0.15000000000E+04  0.10566000000E+00 0.  1.
        994   -1    0    0    0    0 -0.00000000000E+00 -0.00000000000E+00  0.11368683772E-12  0.17120000000E+03  0.17120000000E+03 0.  0.
         13    1    1    2    0    0  0.85906919933E+01  0.12330914746E+02  0.17015057604E+02  0.22701867691E+02  0.10566000000E+00 0.  1.
        994    1    1    2    0    0 -0.27533391043E+01 -0.71820630982E+01  0.60195579071E+01  0.17147838926E+03  0.17120000000E+03 0.  0.
        998    1    1    2    0    0 -0.58373528891E+01 -0.51488516474E+01  0.14769653808E+04  0.14770197430E+04  0.10000000000E+02 0.  1.
</event>
<event>
 5    1  0.1796476E-008  0.3785892E+03  0.7957747E-01  0.3457325E+00
         13   -1    0    0    0    0  0.00000000000E+00  0.00000000000E+00  0.14999999963E+04  0.15000000000E+04  0.10566000000E+00 0.  1.
        994   -1    0    0    0    0 -0.00000000000E+00 -0.00000000000E+00  0.11368683772E-12  0.17120000000E+03  0.17120000000E+03 0.  0.
         13    1    1    2    0    0  0.30631927203E+01 -0.25630080764E+02  0.71896521176E+02  0.76389823346E+02  0.10566000000E+00 0.  1.
        994    1    1    2    0    0  0.10000580042E+02  0.35285583735E+00  0.51834085242E+01  0.17157052146E+03  0.17120000000E+03 0.  0.
        998    1    1    2    0    0 -0.13063772763E+02  0.25277224926E+02  0.14229200666E+04  0.14232396552E+04  0.10000000000E+02 0.  1.
</event>
<event>
 5    1  0.1796476E-008  0.3859230E+03  0.7957747E-01  0.3425767E+00
         13   -1    0    0    0    0  0.00000000000E+00  0.00000000000E+00  0.14999999963E+04  0.15000000000E+04  0.10566000000E+00 0. -1.
        994   -1    0    0    0    0 -0.00000000000E+00 -0.00000000000E+00  0.11368683772E-12  0.17120000000E+03  0.17120000000E+03 0.  0.
         13    1    1    2    0    0  0.18114448550E+02 -0.36648716448E-01  0.10957236480E+03  0.11105966361E+03  0.10566000000E+00 0. -1.
        994    1    1    2    0    0 -0.38999523094E+02  0.26887163427E+01  0.61993604906E+01  0.17571586174E+03  0.17120000000E+03 0.  0.
        998    1    1    2    0    0  0.20885074544E+02 -0.26520676263E+01  0.13842282710E+04  0.13844244746E+04  0.10000000000E+02 0. -1.
</event>
<event>
 5    1  0.1796476E-008  0.3823770E+03  0.7957747E-01  0.3440874E+00
         13   -1    0    0    0    0  0.00000000000E+00  0.00000000000E+00  0.14999999963E+04  0.15000000000E+04  0.10566000000E+00 0. -1.
        994   -1    0    0    0    0 -0.00000000000E+00 -0.00000000000E+00  0.11368683772E-12  0.17120000000E+03  0.17120000000E+03 0.  0.
         13    1    1    2    0    0 -0.23695895212E+02 -0.21379643159E+02  0.15527441893E+03  0.15852047479E+03  0.10566000000E+00 0. -1.
        994    1    1    2    0    0  0.24811285750E+02  0.21771548603E+02  0.65605293540E+01  0.17447659091E+03  0.17120000000E+03 0.  0.
        998    1    1    2    0    0 -0.11153905380E+01 -0.39190544420E+00  0.13381650480E+04  0.13382029343E+04  0.10000000000E+02 0.  0.
</event>
<event>
 5    1  0.1796476E-008  0.3825756E+03  0.7957747E-01  0.3440020E+00
         13   -1    0    0    0    0  0.00000000000E+00  0.00000000000E+00  0.14999999963E+04  0.15000000000E+04  0.10566000000E+00 0. -1.
        994   -1    0    0    0    0 -0.00000000000E+00 -0.00000000000E+00  0.11368683772E-12  0.17120000000E+03  0.17120000000E+03 0.  0.
         13    1    1    2    0    0 -0.20780946160E+02  0.14349946091E+02  0.12478623174E+03  0.12731607703E+03  0.10566000000E+00 0. -1.
        994    1    1    2    0    0 -0.32605939180E+01 -0.31963125758E+01  0.29077238237E+01  0.17128555907E+03  0.17120000000E+03 0.  0.
        998    1    1    2    0    0  0.24041540078E+02 -0.11153633516E+02  0.13723060407E+04  0.13725983639E+04  0.10000000000E+02 0. -1.
</event>
<event>
 5    1  0.1796476E-008  0.3846295E+03  0.7957747E-01  0.3431245E+00
         13   -1    0    0    0    0  0.00000000000E+00  0.00000000000E+00  0.14999999963E+04  0.15000000000E+04  0.10566000000E+00 0.  1.
        994   -1    0    0    0    0 -0.00000000000E+00 -0.00000000000E+00  0.11368683772E-12  0.17120000000E+03  0.17120000000E+03 0.  0.
         13    1    1    2    0    0  0.18828345803E+02 -0.11984615000E+02  0.11055142766E+03  0.11278194414E+03  0.10566000000E+00 0.  1.
        994    1    1    2    0    0 -0.54311828459E+02 -0.34288713420E+01  0.11626904429E+02  0.18001710134E+03  0.17120000000E+03 0.  0.
        998    1    1    2    0    0  0.35483482656E+02  0.15413486342E+02  0.13778216642E+04  0.13784009545E+04  0.10000000000E+02 0.  1.
</event>
<event>
 5    1  0.1796476E-008  0.3698944E+03  0.7957747E-01  0.3496376E+00
         13   -1    0    0    0    0  0.00000000000E+00  0.00000000000E+00  0.14999999963E+04  0.15000000000E+04  0.10566000000E+00 0. -1.
        994   -1    0    0    0    0 -0.00000000000E+00 -0.00000000000E+00  0.11368683772E-12  0.17120000000E+03  0.17120000000E+03 0.  0.
         13    1    1    2    0    0 -0.10931377092E+03  0.74915476631E+02  0.49658488281E+03  0.51396340935E+03  0.10566000000E+00 0. -1.
        994    1    1    2    0    0  0.11533135270E+03 -0.71719993043E+02  0.78435826895E+02  0.23217815844E+03  0.17120000000E+03 0.  0.
        998    1    1    2    0    0 -0.60175817756E+01 -0.31954835887E+01  0.92497928657E+03  0.92505843221E+03  0.10000000000E+02 0. -1.
</event>
<event>
 5    1  0.1796476E-008  0.3747323E+03  0.7957747E-01  0.3474421E+00
         13   -1    0    0    0    0  0.00000000000E+00  0.00000000000E+00  0.14999999963E+04  0.15000000000E+04  0.10566000000E+00 0. -1.
        994   -1    0    0    0    0 -0.00000000000E+00 -0.00000000000E+00  0.11368683772E-12  0.17120000000E+03  0.17120000000E+03 0.  0.
         13    1    1    2    0    0  0.34540188900E+00 -0.47493789503E+02  0.17340133219E+03  0.17978824353E+03  0.10566000000E+00 0. -1.
        994    1    1    2    0    0  0.19226371861E+02  0.17356956322E+02  0.91022560599E+01  0.17338745160E+03  0.17120000000E+03 0.  0.
        998    1    1    2    0    0 -0.19571773750E+02  0.30136833181E+02  0.13174964080E+04  0.13180243049E+04  0.10000000000E+02 0. -1.
</event>
<event>
 5    1  0.1796476E-008  0.3859525E+03  0.7957747E-01  0.3425643E+00
         13   -1    0    0    0    0  0.00000000000E+00  0.00000000000E+00  0.14999999963E+04  0.15000000000E+04  0.10566000000E+00 0. -1.
        994   -1    0    0    0    0 -0.00000000000E+00 -0.00000000000E+00  0.11368683772E-12  0.17120000000E+03  0.17120000000E+03 0.  0.
         13    1    1    2    0    0 -0.85323571438E+00  0.13940149505E+02  0.82334606924E+02  0.83510804335E+02  0.10566000000E+00 0. -1.
        994    1    1    2    0    0  0.54705894116E+01 -0.12833064993E+02  0.17963054557E+01  0.17177683668E+03  0.17120000000E+03 0.  0.
        998    1    1    2    0    0 -0.46173536972E+01 -0.11070845119E+01  0.14158690839E+04  0.14159123590E+04  0.10000000000E+02 0. -1.
</event>
<event>
 5    1  0.1796476E-008  0.3772934E+03  0.7957747E-01  0.3463029E+00
         13   -1    0    0    0    0  0.00000000000E+00  0.00000000000E+00  0.14999999963E+04  0.15000000000E+04  0.10566000000E+00 0.  1.
        994   -1    0    0    0    0 -0.00000000000E+00 -0.00000000000E+00  0.11368683772E-12  0.17120000000E+03  0.17120000000E+03 0.  0.
         13    1    1    2    0    0 -0.13153680743E+02 -0.10883764969E+02  0.24103245582E+02  0.29537319929E+02  0.10566000000E+00 0.  1.
        994    1    1    2    0    0  0.13315468958E+02  0.40262809743E+01  0.61587083902E+01  0.17187461226E+03  0.17120000000E+03 0.  0.
        998    1    1    2    0    0 -0.16178821542E+00  0.68574839945E+01  0.14697380423E+04  0.14697880678E+04  0.10000000000E+02 0.  1.
</event>
<event>
 5    1  0.1796476E-008  0.3848961E+03  0.7957747E-01  0.3430113E+00
         13   -1    0    0    0    0  0.00000000000E+00  0.00000000000E+00  0.14999999963E+04  0.15000000000E+04  0.10566000000E+00 0. -1.
        994   -1    0    0    0    0 -0.00000000000E+00 -0.00000000000E+00  0.11368683772E-12  0.17120000000E+03  0.17120000000E+03 0.  0.
         13    1    1    2    0    0 -0.16591287467E+01 -0.11788513595E+02  0.41783479493E+02  0.43446427742E+02  0.10566000000E+00 0. -1.
        994    1    1    2    0    0 -0.93843034075E+00  0.91513957475E+01  0.19601732112E+01  0.17145819016E+03  0.17120000000E+03 0.  0.
        998    1    1    2    0    0  0.25975590874E+01  0.26371178480E+01  0.14562563436E+04  0.14562953821E+04  0.10000000000E+02 0.  0.
</event>
<event>
 5    1  0.1796476E-008  0.3782295E+03  0.7957747E-01  0.3458904E+00
         13   -1    0    0    0    0  0.00000000000E+00  0.00000000000E+00  0.14999999963E+04  0.15000000000E+04  0.10566000000E+00 0.  1.
        994   -1    0    0    0    0 -0.00000000000E+00 -0.00000000000E+00  0.11368683772E-12  0.17120000000E+03  0.17120000000E+03 0.  0.
         13    1    1    2    0    0  0.24089215873E+01 -0.14941031374E+02  0.21114116725E+02  0.25977960098E+02  0.10566000000E+00 0.  1.
        994    1    1    2    0    0  0.15245027472E+02  0.42825624807E+01  0.58731846774E+01  0.17203105970E+03  0.17120000000E+03 0.  0.
        998    1    1    2    0    0 -0.17653949059E+02  0.10658468893E+02  0.14730126949E+04  0.14731909802E+04  0.10000000000E+02 0.  1.
</event>
<event>
 5    1  0.1796476E-008  0.3724557E+03  0.7957747E-01  0.3484680E+00
         13   -1    0    0    0    0  0.00000000000E+00  0.00000000000E+00  0.14999999963E+04  0.15000000000E+04  0.10566000000E+00 0. -1.
        994   -1    0    0    0    0 -0.00000000000E+00 -0.00000000000E+00  0.11368683772E-12  0.17120000000E+03  0.17120000000E+03 0.  0.
         13    1    1    2    0    0  0.13515849891E+03 -0.12842123989E+02  0.50176383595E+03  0.51980736644E+03  0.10566000000E+00 0. -1.
        994    1    1    2    0    0 -0.17076909156E+03  0.53058063645E+01  0.11581701594E+03  0.26816646955E+03  0.17120000000E+03 0.  0.
        998    1    1    2    0    0  0.35610592641E+02  0.75363176243E+01  0.88241914440E+03  0.88322616401E+03  0.10000000000E+02 0. -1.
</event>
<event>
 5    1  0.1796476E-008  0.3689082E+03  0.7957747E-01  0.3500924E+00
         13   -1    0    0    0    0  0.00000000000E+00  0.00000000000E+00  0.14999999963E+04  0.15000000000E+04  0.10566000000E+00 0. -1.
        994   -1    0    0    0    0 -0.00000000000E+00 -0.00000000000E+00  0.11368683772E-12  0.17120000000E+03  0.17120000000E+03 0.  0.
         13    1    1    2    0    0  0.19553179789E+02  0.11326401361E+02  0.22296024227E+02  0.31744890424E+02  0.10566000000E+00 0. -1.
        994    1    1    2    0    0 -0.31816014883E+01 -0.71602144885E+01  0.10054010594E+02  0.17167386053E+03  0.17120000000E+03 0.  0.
        998    1    1    2    0    0 -0.16371578301E+02 -0.41661868721E+01  0.14676499615E+04  0.14677812490E+04  0.10000000000E+02 0. -1.
</event>
<event>
 5    1  0.1796476E-008  0.3732349E+03  0.7957747E-01  0.3481155E+00
         13   -1    0    0    0    0  0.00000000000E+00  0.00000000000E+00  0.14999999963E+04  0.15000000000E+04  0.10566000000E+00 0.  1.
        994   -1    0    0    0    0 -0.00000000000E+00 -0.00000000000E+00  0.11368683772E-12  0.17120000000E+03  0.17120000000E+03 0.  0.
         13    1    1    2    0    0 -0.29914170621E+02 -0.15281754502E+00  0.29867104995E+02  0.42272166752E+02  0.10566000000E+00 0.  1.
        994    1    1    2    0    0  0.26322650421E+02  0.15962769751E+01  0.15122580434E+02  0.17387801030E+03  0.17120000000E+03 0.  0.
        998    1    1    2    0    0  0.35915202001E+01 -0.14434594301E+01  0.14550103109E+04  0.14550498230E+04  0.10000000000E+02 0.  1.
</event>
<event>
 5    1  0.1796476E-008  0.3851974E+03  0.7957747E-01  0.3428835E+00
         13   -1    0    0    0    0  0.00000000000E+00  0.00000000000E+00  0.14999999963E+04  0.15000000000E+04  0.10566000000E+00 0. -1.
        994   -1    0    0    0    0 -0.00000000000E+00 -0.00000000000E+00  0.11368683772E-12  0.17120000000E+03  0.17120000000E+03 0.  0.
         13    1    1    2    0    0  0.20347759817E+01  0.12271224799E+02  0.52171270892E+02  0.53633720194E+02  0.10566000000E+00 0. -1.
        994    1    1    2    0    0  0.14552280307E+01 -0.32234341929E+01  0.15732829675E+01  0.17124375444E+03  0.17120000000E+03 0.  0.
        998    1    1    2    0    0 -0.34900040124E+01 -0.90477906060E+01  0.14462554424E+04  0.14463225254E+04  0.10000000000E+02 0. -1.
</event>
<event>
 5    1  0.1796476E-008  0.3818195E+03  0.7957747E-01  0.3443274E+00
         13   -1    0    0    0    0  0.00000000000E+00  0.00000000000E+00  0.14999999963E+04  0.15000000000E+04  0.10566000000E+00 0. -1.
        994   -1    0    0    0    0 -0.00000000000E+00 -0.00000000000E+00  0.11368683772E-12  0.17120000000E+03  0.17120000000E+03 0.  0.
         13    1    1    2    0    0 -0.21697477617E+02 -0.27469005862E+01  0.70067968160E+02  0.73402025339E+02  0.10566000000E+00 0. -1.
        994    1    1    2    0    0  0.23400652405E+02 -0.56400613134E+00  0.50402949101E+01  0.17286628708E+03  0.17120000000E+03 0.  0.
        998    1    1    2    0    0 -0.17031747884E+01  0.33109067175E+01  0.14248917332E+04  0.14249316876E+04  0.10000000000E+02 0. -1.
</event>
<event>
 5    1  0.1796476E-008  0.3850742E+03  0.7957747E-01  0.3429358E+00
         13   -1    0    0    0    0  0.00000000000E+00  0.00000000000E+00  0.14999999963E+04  0.15000000000E+04  0.10566000000E+00 0.  1.
        994   -1    0    0    0    0 -0.00000000000E+00 -0.00000000000E+00  0.11368683772E-12  0.17120000000E+03  0.17120000000E+03 0.  0.
         13    1    1    2    0    0  0.15023265308E+02 -0.10676270972E+02  0.95435535837E+02  0.97198939948E+02  0.10566000000E+00 0.  1.
        994    1    1    2    0    0 -0.13556863251E+02  0.27169897300E+02  0.46305731001E+01  0.17393353348E+03  0.17120000000E+03 0.  0.
        998    1    1    2    0    0 -0.14664020572E+01 -0.16493626328E+02  0.13999338873E+04  0.14000675266E+04  0.10000000000E+02 0.  1.
</event>
<event>
 5    1  0.1796476E-008  0.3695786E+03  0.7957747E-01  0.3497830E+00
         13   -1    0    0    0    0  0.00000000000E+00  0.00000000000E+00  0.14999999963E+04  0.15000000000E+04  0.10566000000E+00 0. -1.
        994   -1    0    0    0    0 -0.00000000000E+00 -0.00000000000E+00  0.11368683772E-12  0.17120000000E+03  0.17120000000E+03 0.  0.
         13    1    1    2    0    0 -0.13627955666E+02  0.25759845230E+02  0.39630581455E+02  0.49192326154E+02  0.10566000000E+00 0. -1.
        994    1    1    2    0    0 -0.97908577016E+01  0.22899273129E+02  0.12884298412E+02  0.17348107317E+03  0.17120000000E+03 0.  0.
        998    1    1    2    0    0  0.23418813368E+02 -0.48659118358E+02  0.14474851164E+04  0.14485266007E+04  0.10000000000E+02 0. -1.
</event>
<event>
 5    1  0.1796476E-008  0.3844794E+03  0.7957747E-01  0.3431883E+00
         13   -1    0    0    0    0  0.00000000000E+00  0.00000000000E+00  0.14999999963E+04  0.15000000000E+04  0.10566000000E+00 0.  1.
        994   -1    0    0    0    0 -0.00000000000E+00 -0.00000000000E+00  0.11368683772E-12  0.17120000000E+03  0.17120000000E+03 0.  0.
         13    1    1    2    0    0  0.10339463857E+02  0.12152213249E+02  0.67366387465E+02  0.69230211063E+02  0.10566000000E+00 0.  1.
        994    1    1    2    0    0  0.34860057061E+01 -0.16229691233E+02  0.27970737670E+01  0.17202563395E+03  0.17120000000E+03 0.  0.
        998    1    1    2    0    0 -0.13825469563E+02  0.40774779844E+01  0.14298365350E+04  0.14299441550E+04  0.10000000000E+02 0.  1.
</event>
<event>
 5    1  0.1796476E-008  0.3857004E+03  0.7957747E-01  0.3426707E+00
         13   -1    0    0    0    0  0.00000000000E+00  0.00000000000E+00  0.14999999963E+04  0.15000000000E+04  0.10566000000E+00 0.  1.
        994   -1    0    0    0    0 -0.00000000000E+00 -0.00000000000E+00  0.11368683772E-12  0.17120000000E+03  0.17120000000E+03 0.  0.
         13    1    1    2    0    0  0.11273091202E+02 -0.38787494741E+01  0.57152232430E+02  0.58382498392E+02  0.10566000000E+00 0.  1.
        994    1    1    2    0    0 -0.43599758020E+01  0.87515955727E+00  0.13477013611E+01  0.17126304795E+03  0.17120000000E+03 0.  0.
        998    1    1    2    0    0 -0.69131154005E+01  0.30035899169E+01  0.14415000625E+04  0.14415544537E+04  0.10000000000E+02 0.  1.
</event>
<event>
 5    1  0.1796476E-008  0.3789079E+03  0.7957747E-01  0.3455927E+00
         13   -1    0    0    0    0  0.00000000000E+00  0.00000000000E+00  0.14999999963E+04  0.15000000000E+04  0.10566000000E+00 0.  1.
        994   -1    0    0    0    0 -0.00000000000E+00 -0.00000000000E+00  0.11368683772E-12  0.17120000000E+03  0.17120000000E+03 0.  0.
         13    1    1    2    0    0  0.22740971633E+02 -0.26208433503E+02  0.31295734258E+02  0.46727592751E+02  0.10566000000E+00 0.  1.
        994    1    1    2    0    0 -0.21568470555E+02  0.27840505508E+02  0.20218050561E+02  0.17595028343E+03  0.17120000000E+03 0.  0.
        998    1    1    2    0    0 -0.11725010782E+01 -0.16320720052E+01  0.14484862115E+04  0.14485221238E+04  0.10000000000E+02 0.  1.
</event>
<event>
 5    1  0.1796476E-008  0.3703802E+03  0.7957747E-01  0.3494146E+00
         13   -1    0    0    0    0  0.00000000000E+00  0.00000000000E+00  0.14999999963E+04  0.15000000000E+04  0.10566000000E+00 0. -1.
        994   -1    0    0    0    0 -0.00000000000E+00 -0.00000000000E+00  0.11368683772E-12  0.17120000000E+03  0.17120000000E+03 0.  0.
         13    1    1    2    0    0  0.20792163834E+02 -0.35609033804E+02  0.84360766033E+02  0.93899240546E+02  0.10566000000E+00 0. -1.
        994    1    1    2    0    0 -0.23029039822E+02  0.39811208901E+02  0.16410420431E+02  0.17802811836E+03  0.17120000000E+03 0.  0.
        998    1    1    2    0    0  0.22368759884E+01 -0.42021750966E+01  0.13992288098E+04  0.13992726411E+04  0.10000000000E+02 0. -1.
</event>
<event>
 5    1  0.1796476E-008  0.3845820E+03  0.7957747E-01  0.3431447E+00
         13   -1    0    0    0    0  0.00000000000E+00  0.00000000000E+00  0.14999999963E+04  0.15000000000E+04  0.10566000000E+00 0.  1.
        994   -1    0    0    0    0 -0.00000000000E+00 -0.00000000000E+00  0.11368683772E-12  0.17120000000E+03  0.17120000000E+03 0.  0.
         13    1    1    2    0    0 -0.16587425121E+02 -0.84691891122E+01  0.10417574065E+03  0.10582752922E+03  0.10566000000E+00 0.  1.
        994    1    1    2    0    0 -0.36131903285E+01  0.45842843778E+01  0.19500109636E+01  0.17131057571E+03  0.17120000000E+03 0.  0.
        998    1    1    2    0    0  0.20200615450E+02  0.38849047344E+01  0.13938742447E+04  0.13940618951E+04  0.10000000000E+02 0.  1.
</event>
<event>
 5    1  0.1796476E-008  0.3792080E+03  0.7957747E-01  0.3454614E+00
         13   -1    0    0    0    0  0.00000000000E+00  0.00000000000E+00  0.14999999963E+04  0.15000000000E+04  0.10566000000E+00 0.  1.
        994   -1    0    0    0    0 -0.00000000000E+00 -0.00000000000E+00  0.11368683772E-12  0.17120000000E+03  0.17120000000E+03 0.  0.
         13    1    1    2    0    0  0.44051891106E+01  0.31484516515E+02  0.10764005782E+03  0.11223668600E+03  0.10566000000E+00 0.  1.
        994    1    1    2    0    0 -0.43170014713E+01 -0.22861559461E+02  0.63497996266E+01  0.17289027549E+03  0.17120000000E+03 0.  0.
        998    1    1    2    0    0 -0.88187639252E-01 -0.86229570539E+01  0.13860101388E+04  0.13860730385E+04  0.10000000000E+02 0.  1.
</event>
<event>
 5    1  0.1796476E-008  0.3760373E+03  0.7957747E-01  0.3468596E+00
         13   -1    0    0    0    0  0.00000000000E+00  0.00000000000E+00  0.14999999963E+04  0.15000000000E+04  0.10566000000E+00 0.  1.
        994   -1    0    0    0    0 -0.00000000000E+00 -0.00000000000E+00  0.11368683772E-12  0.17120000000E+03  0.17120000000E+03 0.  0.
         13    1    1    2    0    0 -0.56778159083E+02  0.18439718634E+02  0.23734496674E+03  0.24473746541E+03  0.10566000000E+00 0.  1.
        994    1    1    2    0    0  0.59908666765E+02 -0.20331370810E+02  0.19827248410E+02  0.18358914121E+03  0.17120000000E+03 0.  0.
        998    1    1    2    0    0 -0.31305076813E+01  0.18916521756E+01  0.12428277811E+04  0.12428733934E+04  0.10000000000E+02 0.  1.
</event>
<event>
 5    1  0.1796476E-008  0.3834936E+03  0.7957747E-01  0.3436086E+00
         13   -1    0    0    0    0  0.00000000000E+00  0.00000000000E+00  0.14999999963E+04  0.15000000000E+04  0.10566000000E+00 0. -1.
        994   -1    0    0    0    0 -0.00000000000E+00 -0.00000000000E+00  0.11368683772E-12  0.17120000000E+03  0.17120000000E+03 0.  0.
         13    1    1    2    0    0 -0.38429713088E+01  0.12271362917E+02  0.35044060328E+02  0.37328971384E+02  0.10566000000E+00 0. -1.
        994    1    1    2    0    0 -0.62404836216E+00 -0.16604961729E+01  0.23902786384E+01  0.17122587455E+03  0.17120000000E+03 0.  0.
        998    1    1    2    0    0  0.44670196709E+01 -0.10610866744E+02  0.14625656573E+04  0.14626451541E+04  0.10000000000E+02 0. -1.
</event>
<event>
 5    1  0.1796476E-008  0.3848315E+03  0.7957747E-01  0.3430387E+00
         13   -1    0    0    0    0  0.00000000000E+00  0.00000000000E+00  0.14999999963E+04  0.15000000000E+04  0.10566000000E+00 0. -1.
        994   -1    0    0    0    0 -0.00000000000E+00 -0.00000000000E+00  0.11368683772E-12  0.17120000000E+03  0.17120000000E+03 0.  0.
         13    1    1    2    0    0 -0.16175673179E+02 -0.13454196216E+01  0.71922000722E+02  0.73730915556E+02  0.10566000000E+00 0. -1.
        994    1    1    2    0    0  0.20553891757E+02  0.40014106940E+01  0.31579447442E+01  0.17250474303E+03  0.17120000000E+03 0.  0.
        998    1    1    2    0    0 -0.43782185778E+01 -0.26559910724E+01  0.14249200508E+04  0.14249643414E+04  0.10000000000E+02 0. -1.
</event>
<event>
 5    1  0.1796476E-008  0.3703224E+03  0.7957747E-01  0.3494411E+00
         13   -1    0    0    0    0  0.00000000000E+00  0.00000000000E+00  0.14999999963E+04  0.15000000000E+04  0.10566000000E+00 0. -1.
        994   -1    0    0    0    0 -0.00000000000E+00 -0.00000000000E+00  0.11368683772E-12  0.17120000000E+03  0.17120000000E+03 0.  0.
         13    1    1    2    0    0 -0.13821399709E+01 -0.15518931069E+02  0.91137361748E+01  0.18050453832E+02  0.10566000000E+00 0. -1.
        994    1    1    2    0    0 -0.13373998839E+01  0.18067814038E+02  0.10235117453E+02  0.17245994367E+03  0.17120000000E+03 0.  0.
        998    1    1    2    0    0  0.27195398548E+01 -0.25488829687E+01  0.14806511427E+04  0.14806896025E+04  0.10000000000E+02 0. -1.
</event>
<event>
 5    1  0.1796476E-008  0.3827904E+03  0.7957747E-01  0.3439098E+00
         13   -1    0    0    0    0  0.00000000000E+00  0.00000000000E+00  0.14999999963E+04  0.15000000000E+04  0.10566000000E+00 0. -1.
        994   -1    0    0    0    0 -0.00000000000E+00 -0.00000000000E+00  0.11368683772E-12  0.17120000000E+03  0.17120000000E+03 0.  0.
         13    1    1    2    0    0  0.52664888257E+01  0.14957899585E+02  0.46365307301E+02  0.49002321880E+02  0.10566000000E+00 0. -1.
        994    1    1    2    0    0  0.42260234321E+00 -0.48933893167E+01  0.28110431416E+01  0.17129350780E+03  0.17120000000E+03 0.  0.
        998    1    1    2    0    0 -0.56890911689E+01 -0.10064510269E+02  0.14508236458E+04  0.14509041703E+04  0.10000000000E+02 0. -1.
</event>
<event>
 5    1  0.1796476E-008  0.3854459E+03  0.7957747E-01  0.3427783E+00
         13   -1    0    0    0    0  0.00000000000E+00  0.00000000000E+00  0.14999999963E+04  0.15000000000E+04  0.10566000000E+00 0. -1.
        994   -1    0    0    0    0 -0.00000000000E+00 -0.00000000000E+00  0.11368683772E-12  0.17120000000E+03  0.17120000000E+03 0.  0.
         13    1    1    2    0    0  0.11123667022E+02 -0.21998386477E+01  0.45455948872E+02  0.46849009701E+02  0.10566000000E+00 0. -1.
        994    1    1    2    0    0 -0.93297590086E+01 -0.14043948278E+01  0.17012717834E+01  0.17146822170E+03  0.17120000000E+03 0.  0.
        998    1    1    2    0    0 -0.17939080130E+01  0.36042334755E+01  0.14528427756E+04  0.14528827686E+04  0.10000000000E+02 0. -1.
</event>
<event>
 5    1  0.1796476E-008  0.3807246E+03  0.7957747E-01  0.3448010E+00
         13   -1    0    0    0    0  0.00000000000E+00  0.00000000000E+00  0.14999999963E+04  0.15000000000E+04  0.10566000000E+00 0.  1.
        994   -1    0    0    0    0 -0.00000000000E+00 -0.00000000000E+00  0.11368683772E-12  0.17120000000E+03  0.17120000000E+03 0.  0.
         13    1    1    2    0    0  0.22448300683E+02  0.55462832078E+02  0.33771738613E+03  0.34297681555E+03  0.10566000000E+00 0.  1.
        994    1    1    2    0    0 -0.47878303126E+02 -0.55580801781E+02  0.21928374712E+02  0.18754159820E+03  0.17120000000E+03 0.  0.
        998    1    1    2    0    0  0.25430002443E+02  0.11796970231E+00  0.11403542354E+04  0.11406815863E+04  0.10000000000E+02 0.  1.
</event>
<event>
 5    1  0.1796476E-008  0.3704164E+03  0.7957747E-01  0.3493980E+00
         13   -1    0    0    0    0  0.00000000000E+00  0.00000000000E+00  0.14999999963E+04  0.15000000000E+04  0.10566000000E+00 0.  1.
        994   -1    0    0    0    0 -0.00000000000E+00 -0.00000000000E+00  0.11368683772E-12  0.17120000000E+03  0.17120000000E+03 0.  0.
         13    1    1    2    0    0  0.30238576874E+01  0.21469172490E+02  0.21349002220E+02  0.30427950022E+02  0.10566000000E+00 0.  1.
        994    1    1    2    0    0 -0.18423713995E+02 -0.27846742194E+02  0.12910653181E+02  0.17490282803E+03  0.17120000000E+03 0.  0.
        998    1    1    2    0    0  0.15399856308E+02  0.63775697043E+01  0.14657403409E+04  0.14658692219E+04  0.10000000000E+02 0.  1.
</event>
<event>
 5    1  0.1796476E-008  0.3825252E+03  0.7957747E-01  0.3440236E+00
         13   -1    0    0    0    0  0.00000000000E+00  0.00000000000E+00  0.14999999963E+04  0.15000000000E+04  0.10566000000E+00 0.  1.
        994   -1    0    0    0    0 -0.00000000000E+00 -0.00000000000E+00  0.11368683772E-12  0.17120000000E+03  0.17120000000E+03 0.  0.
         13    1    1    2    0    0  0.11450976168E+02  0.26202149295E+01  0.23844063088E+02  0.26580836895E+02  0.10566000000E+00 0.  1.
        994    1    1    2    0    0  0.24047935747E+01  0.20603358669E+01  0.28970869203E+01  0.17125379157E+03  0.17120000000E+03 0.  0.
        998    1    1    2    0    0 -0.13855769742E+02 -0.46805507964E+01  0.14732588463E+04  0.14733653715E+04  0.10000000000E+02 0.  1.
</event>
<event>
 5    1  0.1796476E-008  0.3822480E+03  0.7957747E-01  0.3441428E+00
         13   -1    0    0    0    0  0.00000000000E+00  0.00000000000E+00  0.14999999963E+04  0.15000000000E+04  0.10566000000E+00 0. -1.
        994   -1    0    0    0    0 -0.00000000000E+00 -0.00000000000E+00  0.11368683772E-12  0.17120000000E+03  0.17120000000E+03 0.  0.
         13    1    1    2    0    0 -0.79269769657E+01 -0.13873066095E+02  0.41402268742E+02  0.44378575323E+02  0.10566000000E+00 0. -1.
        994    1    1    2    0    0  0.71567831294E+01  0.87631267029E+01  0.34275300773E+01  0.17160769183E+03  0.17120000000E+03 0.  0.
        998    1    1    2    0    0  0.77019383633E+00  0.51099393916E+01  0.14551701975E+04  0.14552137328E+04  0.10000000000E+02 0. -1.
</event>
<event>
 5    1  0.1796476E-008  0.3821243E+03  0.7957747E-01  0.3441961E+00
         13   -1    0    0    0    0  0.00000000000E+00  0.00000000000E+00  0.14999999963E+04  0.15000000000E+04  0.10566000000E+00 0. -1.
        994   -1    0    0    0    0 -0.00000000000E+00 -0.00000000000E+00  0.11368683772E-12  0.17120000000E+03  0.17120000000E+03 0.  0.
         13    1    1    2    0    0 -0.13587111301E+02 -0.19147132270E+02  0.91136739383E+02  0.94112372710E+02  0.10566000000E+00 0. -1.
        994    1    1    2    0    0 -0.73483706181E+01  0.18141316625E+02  0.43374380320E+01  0.17236983288E+03  0.17120000000E+03 0.  0.
        998    1    1    2    0    0  0.20935481919E+02  0.10058156455E+01  0.14045258189E+04  0.14047177944E+04  0.10000000000E+02 0. -1.
</event>
<event>
 5    1  0.1796476E-008  0.3792912E+03  0.7957747E-01  0.3454250E+00
         13   -1    0    0    0    0  0.00000000000E+00  0.00000000000E+00  0.14999999963E+04  0.15000000000E+04  0.10566000000E+00 0.  1.
        994   -1    0    0    0    0 -0.00000000000E+00 -0.00000000000E+00  0.11368683772E-12  0.17120000000E+03  0.17120000000E+03 0.  0.
         13    1    1    2    0    0  0.11538313349E+02 -0.96840373997E+01  0.23098496495E+02  0.27576529145E+02  0.10566000000E+00 0.  1.
        994    1    1    2    0    0 -0.14749441234E+02  0.60886638649E+01  0.53449772741E+01  0.17202507557E+03  0.17120000000E+03 0.  0.
        998    1    1    2    0    0  0.32111278850E+01  0.35953735348E+01  0.14715565225E+04  0.14715983953E+04  0.10000000000E+02 0.  1.
</event>
<event>
 5    1  0.1796476E-008  0.3805396E+03  0.7957747E-01  0.3448812E+00
         13   -1    0    0    0    0  0.00000000000E+00  0.00000000000E+00  0.14999999963E+04  0.15000000000E+04  0.10566000000E+00 0. -1.
        994   -1    0    0    0    0 -0.00000000000E+00 -0.00000000000E+00  0.11368683772E-12  0.17120000000E+03  0.17120000000E+03 0.  0.
         13    1    1    2    0    0 -0.53389739448E+02 -0.99625894101E+01  0.30015170208E+03  0.30502585611E+03  0.10566000000E+00 0. -1.
        994    1    1    2    0    0  0.55065420231E+02  0.13302194455E+02  0.14645044192E+02  0.18092281836E+03  0.17120000000E+03 0.  0.
        998    1    1    2    0    0 -0.16756807828E+01 -0.33396050451E+01  0.11852032500E+04  0.11852513255E+04  0.10000000000E+02 0.  0.
</event>
<event>
 5    1  0.1796476E-008  0.3827008E+03  0.7957747E-01  0.3439482E+00
         13   -1    0    0    0    0  0.00000000000E+00  0.00000000000E+00  0.14999999963E+04  0.15000000000E+04  0.10566000000E+00 0. -1.
        994   -1    0    0    0    0 -0.00000000000E+00 -0.00000000000E+00  0.11368683772E-12  0.17120000000E+03  0.17120000000E+03 0.  0.
         13    1    1    2    0    0 -0.70154520714E+00  0.17611104508E+02  0.52475144855E+02  0.55356076082E+02  0.10566000000E+00 0. -1.
        994    1    1    2    0    0  0.75743106087E+01 -0.22098769893E+02  0.45862541199E+01  0.17284733015E+03  0.17120000000E+03 0.  0.
        998    1    1    2    0    0 -0.68727654016E+01  0.44876653853E+01  0.14429385973E+04  0.14429965938E+04  0.10000000000E+02 0. -1.
</event>
<event>
 5    1  0.1796476E-008  0.3794646E+03  0.7957747E-01  0.3453493E+00
         13   -1    0    0    0    0  0.00000000000E+00  0.00000000000E+00  0.14999999963E+04  0.15000000000E+04  0.10566000000E+00 0. -1.
        994   -1    0    0    0    0 -0.00000000000E+00 -0.00000000000E+00  0.11368683772E-12  0.17120000000E+03  0.17120000000E+03 0.  0.
         13    1    1    2    0    0  0.13119582720E+02 -0.19222773335E+02  0.57052305006E+02  0.61616679040E+02  0.10566000000E+00 0. -1.
        994    1    1    2    0    0 -0.17168745721E+02  0.21465521711E+02  0.69379410294E+01  0.17353129250E+03  0.17120000000E+03 0.  0.
        998    1    1    2    0    0  0.40491630005E+01 -0.22427483760E+01  0.14360097502E+04  0.14360520285E+04  0.10000000000E+02 0. -1.
</event>
<event>
 5    1  0.1796476E-008  0.3854738E+03  0.7957747E-01  0.3427665E+00
         13   -1    0    0    0    0  0.00000000000E+00  0.00000000000E+00  0.14999999963E+04  0.15000000000E+04  0.10566000000E+00 0.  1.
        994   -1    0    0    0    0 -0.00000000000E+00 -0.00000000000E+00  0.11368683772E-12  0.17120000000E+03  0.17120000000E+03 0.  0.
         13    1    1    2    0    0 -0.32370832185E+01  0.96709032967E+01  0.35796376846E+02  0.37220919355E+02  0.10566000000E+00 0.  1.
        994    1    1    2    0    0  0.28803871236E+01 -0.15091384922E+02  0.21705383956E+01  0.17190170961E+03  0.17120000000E+03 0.  0.
        998    1    1    2    0    0  0.35669609493E+00  0.54204816254E+01  0.14620330810E+04  0.14620773710E+04  0.10000000000E+02 0.  1.
</event>
<event>
 5    1  0.1796476E-008  0.3764240E+03  0.7957747E-01  0.3466878E+00
         13   -1    0    0    0    0  0.00000000000E+00  0.00000000000E+00  0.14999999963E+04  0.15000000000E+04  0.10566000000E+00 0. -1.
        994   -1    0    0    0    0 -0.00000000000E+00 -0.00000000000E+00  0.11368683772E-12  0.17120000000E+03  0.17120000000E+03 0.  0.
         13    1    1    2    0    0  0.17390991689E+02  0.14477396752E+02  0.40464836787E+02  0.46362223727E+02  0.10566000000E+00 0. -1.
        994    1    1    2    0    0 -0.72702643876E+01 -0.17473398427E+02  0.71618921184E+01  0.17239173152E+03  0.17120000000E+03 0.  0.
        998    1    1    2    0    0 -0.10120727301E+02  0.29960016745E+01  0.14523732674E+04  0.14524460448E+04  0.10000000000E+02 0. -1.
</event>
<event>
 5    1  0.1796476E-008  0.3850717E+03  0.7957747E-01  0.3429368E+00
         13   -1    0    0    0    0  0.00000000000E+00  0.00000000000E+00  0.14999999963E+04  0.15000000000E+04  0.10566000000E+00 0. -1.
        994   -1    0    0    0    0 -0.00000000000E+00 -0.00000000000E+00  0.11368683772E-12  0.17120000000E+03  0.17120000000E+03 0.  0.
         13    1    1    2    0    0 -0.12494293131E+02 -0.33647111156E+01  0.51219543514E+02  0.52828793697E+02  0.10566000000E+00 0. -1.
        994    1    1    2    0    0  0.11902776459E+02  0.56992578187E+01  0.21673770329E+01  0.17172156286E+03  0.17120000000E+03 0.  0.
        998    1    1    2    0    0  0.59151667127E+00 -0.23345467032E+01  0.14466130757E+04  0.14466496434E+04  0.10000000000E+02 0. -1.
</event>
<event>
 5    1  0.1796476E-008  0.3816115E+03  0.7957747E-01  0.3444171E+00
         13   -1    0    0    0    0  0.00000000000E+00  0.00000000000E+00  0.14999999963E+04  0.15000000000E+04  0.10566000000E+00 0.  1.
        994   -1    0    0    0    0 -0.00000000000E+00 -0.00000000000E+00  0.11368683772E-12  0.17120000000E+03  0.17120000000E+03 0.  0.
         13    1    1    2    0    0 -0.15071726999E+02 -0.33147535901E+02  0.29394580767E+02  0.46797100696E+02  0.10566000000E+00 0.  1.
        994    1    1    2    0    0  0.43980762853E+02  0.42331892243E+02  0.30926433011E+02  0.18436968531E+03  0.17120000000E+03 0.  0.
        998    1    1    2    0    0 -0.28909035854E+02 -0.91843563417E+01  0.14396789825E+04  0.14400332140E+04  0.10000000000E+02 0.  1.
</event>
<event>
 5    1  0.1796476E-008  0.3740703E+03  0.7957747E-01  0.3477391E+00
         13   -1    0    0    0    0  0.00000000000E+00  0.00000000000E+00  0.14999999963E+04  0.15000000000E+04  0.10566000000E+00 0.  1.
        994   -1    0    0    0    0 -0.00000000000E+00 -0.00000000000E+00  0.11368683772E-12  0.17120000000E+03  0.17120000000E+03 0.  0.
         13    1    1    2    0    0 -0.44998213314E+01 -0.10248427648E+02  0.54439590262E+01  0.12446948027E+02  0.10566000000E+00 0.  1.
        994    1    1    2    0    0  0.71200388734E+01  0.70343292522E+01  0.74985736250E+01  0.17165618354E+03  0.17120000000E+03 0.  0.
        998    1    1    2    0    0 -0.26202175421E+01  0.32140983962E+01  0.14870574636E+04  0.14870968684E+04  0.10000000000E+02 0.  1.
</event>
<event>
 5    1  0.1796476E-008  0.3847640E+03  0.7957747E-01  0.3430674E+00
         13   -1    0    0    0    0  0.00000000000E+00  0.00000000000E+00  0.14999999963E+04  0.15000000000E+04  0.10566000000E+00 0.  1.
        994   -1    0    0    0    0 -0.00000000000E+00 -0.00000000000E+00  0.11368683772E-12  0.17120000000E+03  0.17120000000E+03 0.  0.
         13    1    1    2    0    0 -0.89278261372E+01 -0.12164340650E+02  0.64450950446E+02  0.66193756808E+02  0.10566000000E+00 0.  1.
        994    1    1    2    0    0  0.48944859056E+01  0.10576863538E+02  0.21945006195E+01  0.17161026155E+03  0.17120000000E+03 0.  0.
        998    1    1    2    0    0  0.40333402316E+01  0.15874771121E+01  0.14333545452E+04  0.14333959816E+04  0.10000000000E+02 0.  1.
</event>
<event>
 5    1  0.1796476E-008  0.3812037E+03  0.7957747E-01  0.3445934E+00
         13   -1    0    0    0    0  0.00000000000E+00  0.00000000000E+00  0.14999999963E+04  0.15000000000E+04  0.10566000000E+00 0. -1.
        994   -1    0    0    0    0 -0.00000000000E+00 -0.00000000000E+00  0.11368683772E-12  0.17120000000E+03  0.17120000000E+03 0.  0.
         13    1    1    2    0    0 -0.28509841563E+02 -0.27385777761E+01  0.11486920295E+03  0.11838604573E+03  0.10566000000E+00 0. -1.
        994    1    1    2    0    0  0.19624280200E+02 -0.16165360846E+02  0.56821104508E+01  0.17317089144E+03  0.17120000000E+03 0.  0.
        998    1    1    2    0    0  0.88855613624E+01  0.18903938623E+02  0.13794486829E+04  0.13796430628E+04  0.10000000000E+02 0. -1.
</event>
<event>
 5    1  0.1796476E-008  0.3747044E+03  0.7957747E-01  0.3474546E+00
         13   -1    0    0    0    0  0.00000000000E+00  0.00000000000E+00  0.14999999963E+04  0.15000000000E+04  0.10566000000E+00 0.  1.
        994   -1    0    0    0    0 -0.00000000000E+00 -0.00000000000E+00  0.11368683772E-12  0.17120000000E+03  0.17120000000E+03 0.  0.
         13    1    1    2    0    0 -0.33331320071E+02  0.21798237071E+02  0.12061672516E+03  0.12702183116E+03  0.10566000000E+00 0.  1.
        994    1    1    2    0    0  0.20961512451E+02  0.11015786255E+02  0.87408971049E+01  0.17305078975E+03  0.17120000000E+03 0.  0.
        998    1    1    2    0    0  0.12369807620E+02 -0.32814023326E+02  0.13706423740E+04  0.13711273791E+04  0.10000000000E+02 0.  1.
</event>
<event>
 5    1  0.1796476E-008  0.3832334E+03  0.7957747E-01  0.3437199E+00
         13   -1    0    0    0    0  0.00000000000E+00  0.00000000000E+00  0.14999999963E+04  0.15000000000E+04  0.10566000000E+00 0. -1.
        994   -1    0    0    0    0 -0.00000000000E+00 -0.00000000000E+00  0.11368683772E-12  0.17120000000E+03  0.17120000000E+03 0.  0.
         13    1    1    2    0    0 -0.13916859760E+02  0.18792163710E+02  0.12050181872E+03  0.12274984269E+03  0.10566000000E+00 0. -1.
        994    1    1    2    0    0 -0.43850418167E+01 -0.26733141166E+01  0.25969948890E+01  0.17129670044E+03  0.17120000000E+03 0.  0.
        998    1    1    2    0    0  0.18301901577E+02 -0.16118849594E+02  0.13769011827E+04  0.13771534569E+04  0.10000000000E+02 0. -1.
</event>
<event>
 5    1  0.1796476E-008  0.3785775E+03  0.7957747E-01  0.3457376E+00
         13   -1    0    0    0    0  0.00000000000E+00  0.00000000000E+00  0.14999999963E+04  0.15000000000E+04  0.10566000000E+00 0. -1.
        994   -1    0    0    0    0 -0.00000000000E+00 -0.00000000000E+00  0.11368683772E-12  0.17120000000E+03  0.17120000000E+03 0.  0.
         13    1    1    2    0    0 -0.32410143488E+02  0.11979165312E+02  0.11748759405E+03  0.12246331582E+03  0.10566000000E+00 0. -1.
        994    1    1    2    0    0  0.20980244877E+02 -0.21161653675E+02  0.78411556470E+01  0.17395088382E+03  0.17120000000E+03 0.  0.
        998    1    1    2    0    0  0.11429898611E+02  0.91824883636E+01  0.13746712466E+04  0.13747858004E+04  0.10000000000E+02 0. -1.
</event>
<event>
 5    1  0.1796476E-008  0.3686382E+03  0.7957747E-01  0.3502173E+00
         13   -1    0    0    0    0  0.00000000000E+00  0.00000000000E+00  0.14999999963E+04  0.15000000000E+04  0.10566000000E+00 0. -1.
        994   -1    0    0    0    0 -0.00000000000E+00 -0.00000000000E+00  0.11368683772E-12  0.17120000000E+03  0.17120000000E+03 0.  0.
         13    1    1    2    0    0  0.19948919064E+02 -0.27779286711E+02  0.55267146306E+02  0.64993205543E+02  0.10566000000E+00 0. -1.
        994    1    1    2    0    0  0.29186848651E+01  0.15061772656E+02  0.11039905576E+02  0.17224022536E+03  0.17120000000E+03 0.  0.
        998    1    1    2    0    0 -0.22867603929E+02  0.12717514055E+02  0.14336929444E+04  0.14339665691E+04  0.10000000000E+02 0. -1.
</event>
<event>
 5    1  0.1796476E-008  0.3850583E+03  0.7957747E-01  0.3429425E+00
         13   -1    0    0    0    0  0.00000000000E+00  0.00000000000E+00  0.14999999963E+04  0.15000000000E+04  0.10566000000E+00 0.  1.
        994   -1    0    0    0    0 -0.00000000000E+00 -0.00000000000E+00  0.11368683772E-12  0.17120000000E+03  0.17120000000E+03 0.  0.
         13    1    1    2    0    0  0.30319447090E+01  0.11890344771E+02  0.46532052263E+02  0.48122926338E+02  0.10566000000E+00 0.  1.
        994    1    1    2    0    0 -0.52424847788E+01 -0.89510837515E+01  0.19550992414E+01  0.17152512341E+03  0.17120000000E+03 0.  0.
        998    1    1    2    0    0  0.22105400698E+01 -0.29392610191E+01  0.14515128448E+04  0.14515519503E+04  0.10000000000E+02 0.  1.
</event>
<event>
 5    1  0.1796476E-008  0.3792216E+03  0.7957747E-01  0.3454555E+00
         13   -1    0    0    0    0  0.00000000000E+00  0.00000000000E+00  0.14999999963E+04  0.15000000000E+04  0.10566000000E+00 0. -1.
        994   -1    0    0    0    0 -0.00000000000E+00 -0.00000000000E+00  0.11368683772E-12  0.17120000000E+03  0.17120000000E+03 0.  0.
         13    1    1    2    0    0 -0.23356364895E+01 -0.61557172712E+02  0.32195044804E+03  0.32779085233E+03  0.10566000000E+00 0. -1.
        994    1    1    2    0    0 -0.99744182791E+01  0.64724125914E+02  0.19037130185E+02  0.18428389463E+03  0.17120000000E+03 0.  0.
        998    1    1    2    0    0  0.12310054769E+02 -0.31669532018E+01  0.11590124181E+04  0.11591252530E+04  0.10000000000E+02 0. -1.
</event>
<event>
 5    1  0.1796476E-008  0.3857521E+03  0.7957747E-01  0.3426489E+00
         13   -1    0    0    0    0  0.00000000000E+00  0.00000000000E+00  0.14999999963E+04  0.15000000000E+04  0.10566000000E+00 0. -1.
        994   -1    0    0    0    0 -0.00000000000E+00 -0.00000000000E+00  0.11368683772E-12  0.17120000000E+03  0.17120000000E+03 0.  0.
         13    1    1    2    0    0 -0.11259421944E+02 -0.77602559041E+00  0.56000609345E+02  0.57126668110E+02  0.10566000000E+00 0. -1.
        994    1    1    2    0    0 -0.62654905116E+01  0.31066600357E+01  0.14176828724E+01  0.17134864322E+03  0.17120000000E+03 0.  0.
        998    1    1    2    0    0  0.17524912455E+02 -0.23306344453E+01  0.14425817041E+04  0.14427246887E+04  0.10000000000E+02 0. -1.
</event>
<event>
 5    1  0.1796476E-008  0.3751302E+03  0.7957747E-01  0.3472641E+00
         13   -1    0    0    0    0  0.00000000000E+00  0.00000000000E+00  0.14999999963E+04  0.15000000000E+04  0.10566000000E+00 0. -1.
        994   -1    0    0    0    0 -0.00000000000E+00 -0.00000000000E+00  0.11368683772E-12  0.17120000000E+03  0.17120000000E+03 0.  0.
         13    1    1    2    0    0 -0.82720297402E+01 -0.22305720060E+02  0.39439577459E+02  0.46059342783E+02  0.10566000000E+00 0. -1.
        994    1    1    2    0    0  0.16101357954E+02  0.17622529283E+02  0.85503444850E+01  0.17306748874E+03  0.17120000000E+03 0.  0.
        998    1    1    2    0    0 -0.78293282138E+01  0.46831907767E+01  0.14520100743E+04  0.14520731685E+04  0.10000000000E+02 0. -1.
</event>
<event>
 5    1  0.1796476E-008  0.3795836E+03  0.7957747E-01  0.3452974E+00
         13   -1    0    0    0    0  0.00000000000E+00  0.00000000000E+00  0.14999999963E+04  0.15000000000E+04  0.10566000000E+00 0. -1.
        994   -1    0    0    0    0 -0.00000000000E+00 -0.00000000000E+00  0.11368683772E-12  0.17120000000E+03  0.17120000000E+03 0.  0.
         13    1    1    2    0    0  0.79820163189E+01  0.16528769760E+02  0.36862573719E+02  0.41179768327E+02  0.10566000000E+00 0. -1.
        994    1    1    2    0    0 -0.10038419272E+02 -0.10904161308E+02  0.50791929704E+01  0.17191541175E+03  0.17120000000E+03 0.  0.
        998    1    1    2    0    0  0.20564029530E+01 -0.56246084523E+01  0.14580582296E+04  0.14581048199E+04  0.10000000000E+02 0. -1.
</event>
<event>
 5    1  0.1796476E-008  0.3825384E+03  0.7957747E-01  0.3440180E+00
         13   -1    0    0    0    0  0.00000000000E+00  0.00000000000E+00  0.14999999963E+04  0.15000000000E+04  0.10566000000E+00 0.  1.
        994   -1    0    0    0    0 -0.00000000000E+00 -0.00000000000E+00  0.11368683772E-12  0.17120000000E+03  0.17120000000E+03 0.  0.
         13    1    1    2    0    0 -0.13035416571E+02  0.47704688676E+00  0.29535423162E+02  0.32287800240E+02  0.10566000000E+00 0.  1.
        994    1    1    2    0    0  0.11756252340E+01 -0.17494554892E+01  0.28719728060E+01  0.17123706058E+03  0.17120000000E+03 0.  0.
        998    1    1    2    0    0  0.11859791337E+02  0.12724086024E+01  0.14675926003E+04  0.14676751392E+04  0.10000000000E+02 0.  1.
</event>
<event>
 5    1  0.1796476E-008  0.3528099E+03  0.7957747E-01  0.3578827E+00
         13   -1    0    0    0    0  0.00000000000E+00  0.00000000000E+00  0.14999999963E+04  0.15000000000E+04  0.10566000000E+00 0.  1.
        994   -1    0    0    0    0 -0.00000000000E+00 -0.00000000000E+00  0.11368683772E-12  0.17120000000E+03  0.17120000000E+03 0.  0.
         13    1    1    2    0    0 -0.25246891980E+03  0.82918344307E+02  0.88740627297E+03  0.92634006270E+03  0.10566000000E+00 0.  1.
        994    1    1    2    0    0  0.24807236596E+03 -0.86007758400E+02  0.30596020418E+03  0.43801634650E+03  0.17120000000E+03 0.  0.
        998    1    1    2    0    0  0.43965538467E+01  0.30894140932E+01  0.30663351913E+03  0.30684359081E+03  0.10000000000E+02 0. -1.
</event>
<event>
 5    1  0.1796476E-008  0.3828725E+03  0.7957747E-01  0.3438746E+00
         13   -1    0    0    0    0  0.00000000000E+00  0.00000000000E+00  0.14999999963E+04  0.15000000000E+04  0.10566000000E+00 0. -1.
        994   -1    0    0    0    0 -0.00000000000E+00 -0.00000000000E+00  0.11368683772E-12  0.17120000000E+03  0.17120000000E+03 0.  0.
         13    1    1    2    0    0  0.15664348145E+02  0.12034668849E+02  0.84269707797E+02  0.86554028637E+02  0.10566000000E+00 0. -1.
        994    1    1    2    0    0  0.19666255853E+02 -0.14974723859E+01  0.39793603931E+01  0.17237830302E+03  0.17120000000E+03 0.  0.
        998    1    1    2    0    0 -0.35330603998E+02 -0.10537196463E+02  0.14117509281E+04  0.14122676683E+04  0.10000000000E+02 0. -1.
</event>
<event>
 5    1  0.1796476E-008  0.3794097E+03  0.7957747E-01  0.3453733E+00
         13   -1    0    0    0    0  0.00000000000E+00  0.00000000000E+00  0.14999999963E+04  0.15000000000E+04  0.10566000000E+00 0. -1.
        994   -1    0    0    0    0 -0.00000000000E+00 -0.00000000000E+00  0.11368683772E-12  0.17120000000E+03  0.17120000000E+03 0.  0.
         13    1    1    2    0    0 -0.12508142545E+02  0.53479462280E+01  0.18855147490E+02  0.23250417409E+02  0.10566000000E+00 0. -1.
        994    1    1    2    0    0  0.10938816589E+02 -0.67069349374E+01  0.49830692181E+01  0.17175247207E+03  0.17120000000E+03 0.  0.
        998    1    1    2    0    0  0.15693259558E+01  0.13589887095E+01  0.14761617796E+04  0.14761971105E+04  0.10000000000E+02 0. -1.
</event>
<event>
 5    1  0.1796476E-008  0.3689212E+03  0.7957747E-01  0.3500864E+00
         13   -1    0    0    0    0  0.00000000000E+00  0.00000000000E+00  0.14999999963E+04  0.15000000000E+04  0.10566000000E+00 0.  1.
        994   -1    0    0    0    0 -0.00000000000E+00 -0.00000000000E+00  0.11368683772E-12  0.17120000000E+03  0.17120000000E+03 0.  0.
         13    1    1    2    0    0 -0.14536278231E+02  0.29828751689E+02  0.55409107993E+02  0.64585123865E+02  0.10566000000E+00 0.  1.
        994    1    1    2    0    0  0.58093737870E+01  0.79033285946E+00  0.99533889985E+01  0.17158928697E+03  0.17120000000E+03 0.  0.
        998    1    1    2    0    0  0.87269044440E+01 -0.30619084548E+02  0.14346374993E+04  0.14350255892E+04  0.10000000000E+02 0.  1.
</event>
<event>
 5    1  0.1796476E-008  0.3838261E+03  0.7957747E-01  0.3434666E+00
         13   -1    0    0    0    0  0.00000000000E+00  0.00000000000E+00  0.14999999963E+04  0.15000000000E+04  0.10566000000E+00 0. -1.
        994   -1    0    0    0    0 -0.00000000000E+00 -0.00000000000E+00  0.11368683772E-12  0.17120000000E+03  0.17120000000E+03 0.  0.
         13    1    1    2    0    0 -0.61622635311E+01  0.16126465934E+02  0.71218285869E+02  0.73280910212E+02  0.10566000000E+00 0. -1.
        994    1    1    2    0    0  0.61189480316E+01  0.20842914086E+01  0.23520503536E+01  0.17133813918E+03  0.17120000000E+03 0.  0.
        998    1    1    2    0    0  0.43315499516E-01 -0.18210757343E+02  0.14264296601E+04  0.14265809506E+04  0.10000000000E+02 0. -1.
</event>
<event>
 5    1  0.1796476E-008  0.3856070E+03  0.7957747E-01  0.3427102E+00
         13   -1    0    0    0    0  0.00000000000E+00  0.00000000000E+00  0.14999999963E+04  0.15000000000E+04  0.10566000000E+00 0. -1.
        994   -1    0    0    0    0 -0.00000000000E+00 -0.00000000000E+00  0.11368683772E-12  0.17120000000E+03  0.17120000000E+03 0.  0.
         13    1    1    2    0    0 -0.14253606282E+01 -0.12980696338E+02  0.69032444186E+02  0.70256812088E+02  0.10566000000E+00 0. -1.
        994    1    1    2    0    0  0.70658047260E+01 -0.12402500723E+01  0.14979884802E+01  0.17135678506E+03  0.17120000000E+03 0.  0.
        998    1    1    2    0    0 -0.56404440978E+01  0.14220946411E+02  0.14294695636E+04  0.14295864029E+04  0.10000000000E+02 0. -1.
</event>
<event>
 5    1  0.1796476E-008  0.3836273E+03  0.7957747E-01  0.3435515E+00
         13   -1    0    0    0    0  0.00000000000E+00  0.00000000000E+00  0.14999999963E+04  0.15000000000E+04  0.10566000000E+00 0. -1.
        994   -1    0    0    0    0 -0.00000000000E+00 -0.00000000000E+00  0.11368683772E-12  0.17120000000E+03  0.17120000000E+03 0.  0.
         13    1    1    2    0    0 -0.20079340949E+02 -0.47252062782E+01  0.86458094904E+02  0.88884874111E+02  0.10566000000E+00 0. -1.
        994    1    1    2    0    0  0.22590930087E+02  0.58076895601E+00  0.40019977498E+01  0.17273141984E+03  0.17120000000E+03 0.  0.
        998    1    1    2    0    0 -0.25115891383E+01  0.41444373222E+01  0.14095399036E+04  0.14095837060E+04  0.10000000000E+02 0. -1.
</event>
<event>
 5    1  0.1796476E-008  0.3746916E+03  0.7957747E-01  0.3474603E+00
         13   -1    0    0    0    0  0.00000000000E+00  0.00000000000E+00  0.14999999963E+04  0.15000000000E+04  0.10566000000E+00 0.  1.
        994   -1    0    0    0    0 -0.00000000000E+00 -0.00000000000E+00  0.11368683772E-12  0.17120000000E+03  0.17120000000E+03 0.  0.
         13    1    1    2    0    0  0.31657396720E+01  0.75399403066E+02  0.32191125088E+03  0.33063870992E+03  0.10566000000E+00 0.  1.
        994    1    1    2    0    0 -0.12035059880E+02 -0.76231287695E+02  0.27382315940E+02  0.18977692988E+03  0.17120000000E+03 0.  0.
        998    1    1    2    0    0  0.88693202079E+01  0.83188462872E+00  0.11507064295E+04  0.11507843602E+04  0.10000000000E+02 0.  0.
</event>
<event>
 5    1  0.1796476E-008  0.3826635E+03  0.7957747E-01  0.3439642E+00
         13   -1    0    0    0    0  0.00000000000E+00  0.00000000000E+00  0.14999999963E+04  0.15000000000E+04  0.10566000000E+00 0.  1.
        994   -1    0    0    0    0 -0.00000000000E+00 -0.00000000000E+00  0.11368683772E-12  0.17120000000E+03  0.17120000000E+03 0.  0.
         13    1    1    2    0    0  0.51516506293E+01 -0.38053350979E+02  0.20164255592E+03  0.20526648179E+03  0.10566000000E+00 0.  1.
        994    1    1    2    0    0 -0.73864101796E+01  0.53068345803E+02  0.12366697245E+02  0.17981430305E+03  0.17120000000E+03 0.  0.
        998    1    1    2    0    0  0.22347595504E+01 -0.15014994824E+02  0.12859907431E+04  0.12861192152E+04  0.10000000000E+02 0.  1.
</event>
<event>
 5    1  0.1796476E-008  0.3786799E+03  0.7957747E-01  0.3456927E+00
         13   -1    0    0    0    0  0.00000000000E+00  0.00000000000E+00  0.14999999963E+04  0.15000000000E+04  0.10566000000E+00 0. -1.
        994   -1    0    0    0    0 -0.00000000000E+00 -0.00000000000E+00  0.11368683772E-12  0.17120000000E+03  0.17120000000E+03 0.  0.
         13    1    1    2    0    0 -0.12987278574E+02  0.57087613561E+01  0.18878104652E+02  0.23614685267E+02  0.10566000000E+00 0. -1.
        994    1    1    2    0    0  0.78798730548E+01 -0.90024328552E+01  0.52817540235E+01  0.17169878602E+03  0.17120000000E+03 0.  0.
        998    1    1    2    0    0  0.51074055188E+01  0.32936714991E+01  0.14758401376E+04  0.14758865287E+04  0.10000000000E+02 0. -1.
</event>
<event>
 5    1  0.1796476E-008  0.3847696E+03  0.7957747E-01  0.3430650E+00
         13   -1    0    0    0    0  0.00000000000E+00  0.00000000000E+00  0.14999999963E+04  0.15000000000E+04  0.10566000000E+00 0.  1.
        994   -1    0    0    0    0 -0.00000000000E+00 -0.00000000000E+00  0.11368683772E-12  0.17120000000E+03  0.17120000000E+03 0.  0.
         13    1    1    2    0    0 -0.91523921275E+01 -0.67861358817E+01  0.35497789464E+02  0.37281659602E+02  0.10566000000E+00 0.  1.
        994    1    1    2    0    0 -0.53445792084E+01  0.35819732365E+02  0.60732340700E+01  0.17509409449E+03  0.17120000000E+03 0.  0.
        998    1    1    2    0    0  0.14496971336E+02 -0.29033596483E+02  0.14584289727E+04  0.14588242459E+04  0.10000000000E+02 0.  1.
</event>
<event>
 5    1  0.1796476E-008  0.3779242E+03  0.7957747E-01  0.3460247E+00
         13   -1    0    0    0    0  0.00000000000E+00  0.00000000000E+00  0.14999999963E+04  0.15000000000E+04  0.10566000000E+00 0.  1.
        994   -1    0    0    0    0 -0.00000000000E+00 -0.00000000000E+00  0.11368683772E-12  0.17120000000E+03  0.17120000000E+03 0.  0.
         13    1    1    2    0    0 -0.20971566966E+02 -0.28957920176E+02  0.12496984443E+03  0.12998400264E+03  0.10566000000E+00 0.  1.
        994    1    1    2    0    0 -0.45277793507E+01  0.23267216633E+02  0.70782217701E+01  0.17297804884E+03  0.17120000000E+03 0.  0.
        998    1    1    2    0    0  0.25499346317E+02  0.56907035436E+01  0.13679519301E+04  0.13682379485E+04  0.10000000000E+02 0.  1.
</event>
<event>
 5    1  0.1796476E-008  0.3693285E+03  0.7957747E-01  0.3498983E+00
         13   -1    0    0    0    0  0.00000000000E+00  0.00000000000E+00  0.14999999963E+04  0.15000000000E+04  0.10566000000E+00 0. -1.
        994   -1    0    0    0    0 -0.00000000000E+00 -0.00000000000E+00  0.11368683772E-12  0.17120000000E+03  0.17120000000E+03 0.  0.
         13    1    1    2    0    0 -0.10762958095E+03 -0.12206276916E+03  0.65119392279E+03  0.67122051708E+03  0.10566000000E+00 0. -1.
        994    1    1    2    0    0  0.10830324077E+03  0.12830739033E+03  0.11476531522E+03  0.26584374349E+03  0.17120000000E+03 0.  0.
        998    1    1    2    0    0 -0.67365981445E+00 -0.62446211649E+01  0.73404075827E+03  0.73413573943E+03  0.10000000000E+02 0. -1.
</event>
<event>
 5    1  0.1796476E-008  0.3840663E+03  0.7957747E-01  0.3433642E+00
         13   -1    0    0    0    0  0.00000000000E+00  0.00000000000E+00  0.14999999963E+04  0.15000000000E+04  0.10566000000E+00 0.  1.
        994   -1    0    0    0    0 -0.00000000000E+00 -0.00000000000E+00  0.11368683772E-12  0.17120000000E+03  0.17120000000E+03 0.  0.
         13    1    1    2    0    0  0.69205076352E+01 -0.18893754759E+02  0.98015067146E+02  0.10005914224E+03  0.10566000000E+00 0.  1.
        994    1    1    2    0    0 -0.64010004095E+01  0.83956452596E+01  0.24621528498E+01  0.17154288636E+03  0.17120000000E+03 0.  0.
        998    1    1    2    0    0 -0.51950722573E+00  0.10498109499E+02  0.13995227763E+04  0.13995979714E+04  0.10000000000E+02 0.  1.
</event>
<event>
 5    1  0.1796476E-008  0.3855848E+03  0.7957747E-01  0.3427196E+00
         13   -1    0    0    0    0  0.00000000000E+00  0.00000000000E+00  0.14999999963E+04  0.15000000000E+04  0.10566000000E+00 0. -1.
        994   -1    0    0    0    0 -0.00000000000E+00 -0.00000000000E+00  0.11368683772E-12  0.17120000000E+03  0.17120000000E+03 0.  0.
         13    1    1    2    0    0 -0.59391984499E+01  0.11804248172E+02  0.72491848166E+02  0.73686454439E+02  0.10566000000E+00 0. -1.
        994    1    1    2    0    0 -0.56080076115E+01  0.24238108183E+01  0.14626036975E+01  0.17131521771E+03  0.17120000000E+03 0.  0.
        998    1    1    2    0    0  0.11547206061E+02 -0.14228058991E+02  0.14260455444E+04  0.14261983279E+04  0.10000000000E+02 0. -1.
</event>
<event>
 5    1  0.1796476E-008  0.3720715E+03  0.7957747E-01  0.3486425E+00
         13   -1    0    0    0    0  0.00000000000E+00  0.00000000000E+00  0.14999999963E+04  0.15000000000E+04  0.10566000000E+00 0.  1.
        994   -1    0    0    0    0 -0.00000000000E+00 -0.00000000000E+00  0.11368683772E-12  0.17120000000E+03  0.17120000000E+03 0.  0.
         13    1    1    2    0    0 -0.17620468440E+02 -0.12301187181E+02  0.24349731992E+02  0.32476464189E+02  0.10566000000E+00 0.  1.
        994    1    1    2    0    0  0.15539420871E+02  0.15691044904E+02  0.98664054844E+01  0.17290016902E+03  0.17120000000E+03 0.  0.
        998    1    1    2    0    0  0.20810475692E+01 -0.33898577230E+01  0.14657838588E+04  0.14658233668E+04  0.10000000000E+02 0.  1.
</event>
<event>
 5    1  0.1796476E-008  0.3851322E+03  0.7957747E-01  0.3429112E+00
         13   -1    0    0    0    0  0.00000000000E+00  0.00000000000E+00  0.14999999963E+04  0.15000000000E+04  0.10566000000E+00 0.  1.
        994   -1    0    0    0    0 -0.00000000000E+00 -0.00000000000E+00  0.11368683772E-12  0.17120000000E+03  0.17120000000E+03 0.  0.
         13    1    1    2    0    0  0.65712096672E+01  0.82258723955E+01  0.34800017698E+02  0.36357917555E+02  0.10566000000E+00 0.  1.
        994    1    1    2    0    0 -0.78359804033E+01 -0.67415936515E+01  0.19158477195E+01  0.17152248292E+03  0.17120000000E+03 0.  0.
        998    1    1    2    0    0  0.12647707361E+01 -0.14842787440E+01  0.14632841309E+04  0.14633195995E+04  0.10000000000E+02 0.  1.
</event>
<event>
 5    1  0.1796476E-008  0.3996884E+03  0.7957747E-01  0.3369670E+00
         13   -1    0    0    0    0  0.00000000000E+00  0.00000000000E+00  0.14999999963E+04  0.15000000000E+04  0.10566000000E+00 0. -1.
        994   -1    0    0    0    0 -0.00000000000E+00 -0.00000000000E+00  0.11368683772E-12  0.17120000000E+03  0.17120000000E+03 0.  0.
         13    1    1    2    0    0  0.64285305101E+02  0.91696872163E+02  0.22052164744E+03  0.24732716181E+03  0.10566000000E+00 0. -1.
        994    1    1    2    0    0 -0.99735120125E+02 -0.17720264743E+02  0.68960719116E+02  0.21053769912E+03  0.17120000000E+03 0.  0.
        998    1    1    2    0    0  0.35449815024E+02 -0.73976607421E+02  0.12105176297E+04  0.12133351391E+04  0.10000000000E+02 0. -1.
</event>
<event>
 5    1  0.1796476E-008  0.3790418E+03  0.7957747E-01  0.3455342E+00
         13   -1    0    0    0    0  0.00000000000E+00  0.00000000000E+00  0.14999999963E+04  0.15000000000E+04  0.10566000000E+00 0.  1.
        994   -1    0    0    0    0 -0.00000000000E+00 -0.00000000000E+00  0.11368683772E-12  0.17120000000E+03  0.17120000000E+03 0.  0.
         13    1    1    2    0    0  0.17306954102E+02 -0.18276642602E+02  0.64549089143E+02  0.69283204302E+02  0.10566000000E+00 0.  1.
        994    1    1    2    0    0 -0.17873072492E+02  0.17404976268E+02  0.67076147148E+01  0.17313812987E+03  0.17120000000E+03 0.  0.
        998    1    1    2    0    0  0.56611838965E+00  0.87166633423E+00  0.14287432924E+04  0.14287786658E+04  0.10000000000E+02 0.  0.
</event>
<event>
 5    1  0.1796476E-008  0.3860169E+03  0.7957747E-01  0.3425371E+00
         13   -1    0    0    0    0  0.00000000000E+00  0.00000000000E+00  0.14999999963E+04  0.15000000000E+04  0.10566000000E+00 0.  1.
        994   -1    0    0    0    0 -0.00000000000E+00 -0.00000000000E+00  0.11368683772E-12  0.17120000000E+03  0.17120000000E+03 0.  0.
         13    1    1    2    0    0  0.27459764941E+01 -0.13198626370E+02  0.80565523426E+02  0.81685732254E+02  0.10566000000E+00 0.  1.
        994    1    1    2    0    0 -0.21541783465E+01  0.10183662853E+02  0.14813357957E+01  0.17152254029E+03  0.17120000000E+03 0.  0.
        998    1    1    2    0    0 -0.59179814757E+00  0.30149635162E+01  0.14179531371E+04  0.14179917275E+04  0.10000000000E+02 0.  1.
</event>
<event>
 5    1  0.1796476E-008  0.3787103E+03  0.7957747E-01  0.3456793E+00
         13   -1    0    0    0    0  0.00000000000E+00  0.00000000000E+00  0.14999999963E+04  0.15000000000E+04  0.10566000000E+00 0.  1.
        994   -1    0    0    0    0 -0.00000000000E+00 -0.00000000000E+00  0.11368683772E-12  0.17120000000E+03  0.17120000000E+03 0.  0.
         13    1    1    2    0    0  0.18737821046E+02  0.12494676016E+02  0.52715146084E+02  0.57324695002E+02  0.10566000000E+00 0.  1.
        994    1    1    2    0    0 -0.55840691899E+01 -0.33351616060E+01  0.49276271811E+01  0.17139436000E+03  0.17120000000E+03 0.  0.
        998    1    1    2    0    0 -0.13153751856E+02 -0.91595144104E+01  0.14423572230E+04  0.14424809450E+04  0.10000000000E+02 0.  1.
</event>
<event>
 5    1  0.1796476E-008  0.3704355E+03  0.7957747E-01  0.3493892E+00
         13   -1    0    0    0    0  0.00000000000E+00  0.00000000000E+00  0.14999999963E+04  0.15000000000E+04  0.10566000000E+00 0. -1.
        994   -1    0    0    0    0 -0.00000000000E+00 -0.00000000000E+00  0.11368683772E-12  0.17120000000E+03  0.17120000000E+03 0.  0.
         13    1    1    2    0    0  0.25673686774E+01 -0.20241207094E+02  0.19772300188E+02  0.28412195715E+02  0.10566000000E+00 0. -1.
        994    1    1    2    0    0  0.10521488385E+02  0.21177920294E+01  0.94393750040E+01  0.17179560111E+03  0.17120000000E+03 0.  0.
        998    1    1    2    0    0 -0.13088857062E+02  0.18123415065E+02  0.14707883211E+04  0.14709922032E+04  0.10000000000E+02 0. -1.
</event>
<event>
 5    1  0.1796476E-008  0.3781215E+03  0.7957747E-01  0.3459379E+00
         13   -1    0    0    0    0  0.00000000000E+00  0.00000000000E+00  0.14999999963E+04  0.15000000000E+04  0.10566000000E+00 0. -1.
        994   -1    0    0    0    0 -0.00000000000E+00 -0.00000000000E+00  0.11368683772E-12  0.17120000000E+03  0.17120000000E+03 0.  0.
         13    1    1    2    0    0 -0.39064208276E+02  0.11902290940E+02  0.19343974838E+03  0.19770337457E+03  0.10566000000E+00 0. -1.
        994    1    1    2    0    0 -0.58136859267E+01 -0.12701211308E+02  0.57410162769E+01  0.17186482764E+03  0.17120000000E+03 0.  0.
        998    1    1    2    0    0  0.44877894202E+02  0.79892036816E+00  0.13008192316E+04  0.13016317978E+04  0.10000000000E+02 0. -1.
</event>
<event>
 5    1  0.1796476E-008  0.3860019E+03  0.7957747E-01  0.3425434E+00
         13   -1    0    0    0    0  0.00000000000E+00  0.00000000000E+00  0.14999999963E+04  0.15000000000E+04  0.10566000000E+00 0. -1.
        994   -1    0    0    0    0 -0.00000000000E+00 -0.00000000000E+00  0.11368683772E-12  0.17120000000E+03  0.17120000000E+03 0.  0.
         13    1    1    2    0    0 -0.10433253691E+02 -0.47158082738E+01  0.58182638679E+02  0.59298585463E+02  0.10566000000E+00 0. -1.
        994    1    1    2    0    0  0.78452715729E+01  0.31723402163E+01  0.13682865637E+01  0.17141448083E+03  0.17120000000E+03 0.  0.
        998    1    1    2    0    0  0.25879821179E+01  0.15434680575E+01  0.14404490710E+04  0.14404869337E+04  0.10000000000E+02 0.  0.
</event>
<event>
 5    1  0.1796476E-008  0.3851283E+03  0.7957747E-01  0.3429128E+00
         13   -1    0    0    0    0  0.00000000000E+00  0.00000000000E+00  0.14999999963E+04  0.15000000000E+04  0.10566000000E+00 0. -1.
        994   -1    0    0    0    0 -0.00000000000E+00 -0.00000000000E+00  0.11368683772E-12  0.17120000000E+03  0.17120000000E+03 0.  0.
         13    1    1    2    0    0  0.15358529839E+02 -0.38059110714E+01  0.81206772437E+02  0.82734034421E+02  0.10566000000E+00 0. -1.
        994    1    1    2    0    0 -0.83497193073E+01  0.82608518215E+00  0.17979239754E+01  0.17141491405E+03  0.17120000000E+03 0.  0.
        998    1    1    2    0    0 -0.70088105319E+01  0.29798258892E+01  0.14169952999E+04  0.14170510515E+04  0.10000000000E+02 0. -1.
</event>
<event>
 5    1  0.1796476E-008  0.3820695E+03  0.7957747E-01  0.3442197E+00
         13   -1    0    0    0    0  0.00000000000E+00  0.00000000000E+00  0.14999999963E+04  0.15000000000E+04  0.10566000000E+00 0. -1.
        994   -1    0    0    0    0 -0.00000000000E+00 -0.00000000000E+00  0.11368683772E-12  0.17120000000E+03  0.17120000000E+03 0.  0.
         13    1    1    2    0    0  0.99292170196E+01 -0.98744603683E+01  0.31175852623E+02  0.34176589487E+02  0.10566000000E+00 0. -1.
        994    1    1    2    0    0 -0.54284976255E+01  0.11824870826E+00  0.31900152270E+01  0.17131578668E+03  0.17120000000E+03 0.  0.
        998    1    1    2    0    0 -0.45007193941E+01  0.97562116600E+01  0.14656341284E+04  0.14657076238E+04  0.10000000000E+02 0. -1.
</event>
<event>
 5    1  0.1796476E-008  0.3857726E+03  0.7957747E-01  0.3426402E+00
         13   -1    0    0    0    0  0.00000000000E+00  0.00000000000E+00  0.14999999963E+04  0.15000000000E+04  0.10566000000E+00 0.  1.
        994   -1    0    0    0    0 -0.00000000000E+00 -0.00000000000E+00  0.11368683772E-12  0.17120000000E+03  0.17120000000E+03 0.  0.
         13    1    1    2    0    0  0.90179343312E+01  0.11933684412E+02  0.87506501097E+02  0.88775756046E+02  0.10566000000E+00 0.  1.
        994    1    1    2    0    0 -0.11775645545E+02 -0.82751221751E+01  0.19268524526E+01  0.17181471484E+03  0.17120000000E+03 0.  0.
        998    1    1    2    0    0  0.27577112143E+01 -0.36585622369E+01  0.14105666427E+04  0.14106095291E+04  0.10000000000E+02 0.  1.
</event>
<event>
 5    1  0.1796476E-008  0.3723533E+03  0.7957747E-01  0.3485145E+00
         13   -1    0    0    0    0  0.00000000000E+00  0.00000000000E+00  0.14999999963E+04  0.15000000000E+04  0.10566000000E+00 0.  1.
        994   -1    0    0    0    0 -0.00000000000E+00 -0.00000000000E+00  0.11368683772E-12  0.17120000000E+03  0.17120000000E+03 0.  0.
         13    1    1    2    0    0 -0.42536325908E+02 -0.15009137005E+02  0.12999025024E+03  0.13759392987E+03  0.10566000000E+00 0.  1.
        994    1    1    2    0    0  0.23644261840E+02 -0.17452622386E+02  0.11012093249E+02  0.17405272576E+03  0.17120000000E+03 0.  0.
        998    1    1    2    0    0  0.18892064068E+02  0.32461759391E+02  0.13589976528E+04  0.13595533444E+04  0.10000000000E+02 0.  1.
</event>
<event>
 5    1  0.1796476E-008  0.3753868E+03  0.7957747E-01  0.3471495E+00
         13   -1    0    0    0    0  0.00000000000E+00  0.00000000000E+00  0.14999999963E+04  0.15000000000E+04  0.10566000000E+00 0.  1.
        994   -1    0    0    0    0 -0.00000000000E+00 -0.00000000000E+00  0.11368683772E-12  0.17120000000E+03  0.17120000000E+03 0.  0.
         13    1    1    2    0    0 -0.46366841953E+02 -0.57364395094E+02  0.41283468728E+03  0.41937220705E+03  0.10566000000E+00 0.  1.
        994    1    1    2    0    0  0.14242421145E+02  0.44994037444E+02  0.14079220456E+02  0.17814312901E+03  0.17120000000E+03 0.  0.
        998    1    1    2    0    0  0.32124420808E+02  0.12370357649E+02  0.10730860885E+04  0.10736846639E+04  0.10000000000E+02 0.  1.
</event>
<event>
 5    1  0.1796476E-008  0.3750771E+03  0.7957747E-01  0.3472878E+00
         13   -1    0    0    0    0  0.00000000000E+00  0.00000000000E+00  0.14999999963E+04  0.15000000000E+04  0.10566000000E+00 0. -1.
        994   -1    0    0    0    0 -0.00000000000E+00 -0.00000000000E+00  0.11368683772E-12  0.17120000000E+03  0.17120000000E+03 0.  0.
         13    1    1    2    0    0  0.39403079515E+01  0.29192837589E+02  0.64168833450E+02  0.70607351909E+02  0.10566000000E+00 0. -1.
        994    1    1    2    0    0 -0.13626159258E+02 -0.11242528577E+02  0.77003403658E+01  0.17228117107E+03  0.17120000000E+03 0.  0.
        998    1    1    2    0    0  0.96858513062E+01 -0.17950309012E+02  0.14281308225E+04  0.14283114770E+04  0.10000000000E+02 0. -1.
</event>
<event>
 5    1  0.1796476E-008  0.3768683E+03  0.7957747E-01  0.3464909E+00
         13   -1    0    0    0    0  0.00000000000E+00  0.00000000000E+00  0.14999999963E+04  0.15000000000E+04  0.10566000000E+00 0. -1.
        994   -1    0    0    0    0 -0.00000000000E+00 -0.00000000000E+00  0.11368683772E-12  0.17120000000E+03  0.17120000000E+03 0.  0.
         13    1    1    2    0    0  0.27276451902E+02 -0.37028136261E+02  0.25174476832E+03  0.25591117062E+03  0.10566000000E+00 0. -1.
        994    1    1    2    0    0  0.60835360772E+01 -0.14165242673E+02  0.65256469069E+01  0.17201653286E+03  0.17120000000E+03 0.  0.
        998    1    1    2    0    0 -0.33359987979E+02  0.51193378934E+02  0.12417295810E+04  0.12432722965E+04  0.10000000000E+02 0. -1.
</event>
<event>
 5    1  0.1796476E-008  0.3782009E+03  0.7957747E-01  0.3459030E+00
         13   -1    0    0    0    0  0.00000000000E+00  0.00000000000E+00  0.14999999963E+04  0.15000000000E+04  0.10566000000E+00 0.  1.
        994   -1    0    0    0    0 -0.00000000000E+00 -0.00000000000E+00  0.11368683772E-12  0.17120000000E+03  0.17120000000E+03 0.  0.
         13    1    1    2    0    0  0.44996063321E+02  0.34213004733E+01  0.17869812949E+03  0.18430785023E+03  0.10566000000E+00 0.  1.
        994    1    1    2    0    0 -0.45075185810E+02  0.71704545390E+01  0.12081852326E+02  0.17759110042E+03  0.17120000000E+03 0.  0.
        998    1    1    2    0    0  0.79122488899E-01 -0.10591755012E+02  0.13092200145E+04  0.13093010493E+04  0.10000000000E+02 0.  1.
</event>
<event>
 5    1  0.1796476E-008  0.3797755E+03  0.7957747E-01  0.3452137E+00
         13   -1    0    0    0    0  0.00000000000E+00  0.00000000000E+00  0.14999999963E+04  0.15000000000E+04  0.10566000000E+00 0. -1.
        994   -1    0    0    0    0 -0.00000000000E+00 -0.00000000000E+00  0.11368683772E-12  0.17120000000E+03  0.17120000000E+03 0.  0.
         13    1    1    2    0    0 -0.30698659847E+02  0.24268628362E+02  0.17239055682E+03  0.17677638214E+03  0.10566000000E+00 0. -1.
        994    1    1    2    0    0  0.16473768103E+02 -0.24931029257E+02  0.72395229239E+01  0.17393904664E+03  0.17120000000E+03 0.  0.
        998    1    1    2    0    0  0.14224891744E+02  0.66240089516E+00  0.13203699165E+04  0.13204845712E+04  0.10000000000E+02 0. -1.
</event>
<event>
 5    1  0.1796476E-008  0.3845614E+03  0.7957747E-01  0.3431534E+00
         13   -1    0    0    0    0  0.00000000000E+00  0.00000000000E+00  0.14999999963E+04  0.15000000000E+04  0.10566000000E+00 0.  1.
        994   -1    0    0    0    0 -0.00000000000E+00 -0.00000000000E+00  0.11368683772E-12  0.17120000000E+03  0.17120000000E+03 0.  0.
         13    1    1    2    0    0 -0.91100105110E+01  0.13276630657E+02  0.75217697475E+02  0.76921871991E+02  0.10566000000E+00 0.  1.
        994    1    1    2    0    0  0.10800188485E+02  0.79552993995E+01  0.24408248169E+01  0.17174204053E+03  0.17120000000E+03 0.  0.
        998    1    1    2    0    0 -0.16901779742E+01 -0.21231930057E+02  0.14223414740E+04  0.14225360875E+04  0.10000000000E+02 0.  1.
</event>
<event>
 5    1  0.1796476E-008  0.3766501E+03  0.7957747E-01  0.3465876E+00
         13   -1    0    0    0    0  0.00000000000E+00  0.00000000000E+00  0.14999999963E+04  0.15000000000E+04  0.10566000000E+00 0. -1.
        994   -1    0    0    0    0 -0.00000000000E+00 -0.00000000000E+00  0.11368683772E-12  0.17120000000E+03  0.17120000000E+03 0.  0.
         13    1    1    2    0    0  0.11359116705E+02 -0.52652249293E+01  0.10758190558E+02  0.16507633204E+02  0.10566000000E+00 0. -1.
        994    1    1    2    0    0 -0.11369249919E+02  0.37096882062E+01  0.63174022146E+01  0.17173343064E+03  0.17120000000E+03 0.  0.
        998    1    1    2    0    0  0.10133213854E-01  0.15555367230E+01  0.14829244035E+04  0.14829589362E+04  0.10000000000E+02 0. -1.
</event>
<event>
 5    1  0.1796476E-008  0.3819009E+03  0.7957747E-01  0.3442923E+00
         13   -1    0    0    0    0  0.00000000000E+00  0.00000000000E+00  0.14999999963E+04  0.15000000000E+04  0.10566000000E+00 0. -1.
        994   -1    0    0    0    0 -0.00000000000E+00 -0.00000000000E+00  0.11368683772E-12  0.17120000000E+03  0.17120000000E+03 0.  0.
         13    1    1    2    0    0  0.12843882420E+01 -0.21958560346E+02  0.74381178673E+02  0.77565449334E+02  0.10566000000E+00 0. -1.
        994    1    1    2    0    0  0.11868246569E+01  0.15948626432E+02  0.40267962212E+01  0.17199250660E+03  0.17120000000E+03 0.  0.
        998    1    1    2    0    0 -0.24712128989E+01  0.60099339140E+01  0.14215920214E+04  0.14216420441E+04  0.10000000000E+02 0. -1.
</event>
<event>
 5    1  0.1796476E-008  0.3751765E+03  0.7957747E-01  0.3472434E+00
         13   -1    0    0    0    0  0.00000000000E+00  0.00000000000E+00  0.14999999963E+04  0.15000000000E+04  0.10566000000E+00 0. -1.
        994   -1    0    0    0    0 -0.00000000000E+00 -0.00000000000E+00  0.11368683772E-12  0.17120000000E+03  0.17120000000E+03 0.  0.
         13    1    1    2    0    0 -0.22028654143E+02  0.14009693408E+02  0.19463837098E+02  0.32563556798E+02  0.10566000000E+00 0. -1.
        994    1    1    2    0    0  0.19406927072E+02  0.95928833609E+01  0.15372984292E+02  0.17324670524E+03  0.17120000000E+03 0.  0.
        998    1    1    2    0    0  0.26217270703E+01 -0.23602576769E+02  0.14651631749E+04  0.14653897380E+04  0.10000000000E+02 0. -1.
</event>
<event>
 5    1  0.1796476E-008  0.3840246E+03  0.7957747E-01  0.3433819E+00
         13   -1    0    0    0    0  0.00000000000E+00  0.00000000000E+00  0.14999999963E+04  0.15000000000E+04  0.10566000000E+00 0. -1.
        994   -1    0    0    0    0 -0.00000000000E+00 -0.00000000000E+00  0.11368683772E-12  0.17120000000E+03  0.17120000000E+03 0.  0.
         13    1    1    2    0    0 -0.11925857418E+02 -0.11635442154E+02  0.67217994489E+02  0.69252289034E+02  0.10566000000E+00 0. -1.
        994    1    1    2    0    0 -0.13978063672E+01  0.94515744306E+01  0.24163897756E+01  0.17148342503E+03  0.17120000000E+03 0.  0.
        998    1    1    2    0    0  0.13323663785E+02  0.21838677236E+01  0.14303656120E+04  0.14304642859E+04  0.10000000000E+02 0. -1.
</event>
<event>
 5    1  0.1796476E-008  0.3857330E+03  0.7957747E-01  0.3426570E+00
         13   -1    0    0    0    0  0.00000000000E+00  0.00000000000E+00  0.14999999963E+04  0.15000000000E+04  0.10566000000E+00 0.  1.
        994   -1    0    0    0    0 -0.00000000000E+00 -0.00000000000E+00  0.11368683772E-12  0.17120000000E+03  0.17120000000E+03 0.  0.
         13    1    1    2    0    0 -0.81779678732E+01  0.65872786903E+01  0.44713833012E+02  0.45930484711E+02  0.10566000000E+00 0.  1.
        994    1    1    2    0    0  0.53142578240E+01  0.59495140719E+00  0.13604935687E+01  0.17128889703E+03  0.17120000000E+03 0.  0.
        998    1    1    2    0    0  0.28637100492E+01 -0.71822300975E+01  0.14539256697E+04  0.14539806183E+04  0.10000000000E+02 0.  1.
</event>
<event>
 5    1  0.1796476E-008  0.3698382E+03  0.7957747E-01  0.3496635E+00
         13   -1    0    0    0    0  0.00000000000E+00  0.00000000000E+00  0.14999999963E+04  0.15000000000E+04  0.10566000000E+00 0. -1.
        994   -1    0    0    0    0 -0.00000000000E+00 -0.00000000000E+00  0.11368683772E-12  0.17120000000E+03  0.17120000000E+03 0.  0.
         13    1    1    2    0    0  0.13848448437E+03  0.27556453198E+03  0.85861233120E+03  0.91232061806E+03  0.10566000000E+00 0. -1.
        994    1    1    2    0    0 -0.13995158006E+03 -0.27816629221E+03  0.48033965137E+03  0.59749355776E+03  0.17120000000E+03 0.  0.
        998    1    1    2    0    0  0.14670956839E+01  0.26017602292E+01  0.16104801371E+03  0.16138582418E+03  0.10000000000E+02 0.  0.
</event>
<event>
 5    1  0.1796476E-008  0.3858346E+03  0.7957747E-01  0.3426140E+00
         13   -1    0    0    0    0  0.00000000000E+00  0.00000000000E+00  0.14999999963E+04  0.15000000000E+04  0.10566000000E+00 0. -1.
        994   -1    0    0    0    0 -0.00000000000E+00 -0.00000000000E+00  0.11368683772E-12  0.17120000000E+03  0.17120000000E+03 0.  0.
         13    1    1    2    0    0 -0.70956203971E+01  0.11016613143E+02  0.75467025562E+02  0.76596323052E+02  0.10566000000E+00 0. -1.
        994    1    1    2    0    0  0.10373154848E+02  0.47744196544E+01  0.16441139916E+01  0.17158828787E+03  0.17120000000E+03 0.  0.
        998    1    1    2    0    0 -0.32775344514E+01 -0.15791032798E+02  0.14228888567E+04  0.14230153891E+04  0.10000000000E+02 0. -1.
</event>
<event>
 5    1  0.1796476E-008  0.3800220E+03  0.7957747E-01  0.3451063E+00
         13   -1    0    0    0    0  0.00000000000E+00  0.00000000000E+00  0.14999999963E+04  0.15000000000E+04  0.10566000000E+00 0.  1.
        994   -1    0    0    0    0 -0.00000000000E+00 -0.00000000000E+00  0.11368683772E-12  0.17120000000E+03  0.17120000000E+03 0.  0.
         13    1    1    2    0    0 -0.26638205076E+02  0.83401462225E+00  0.10101193926E+03  0.10446871583E+03  0.10566000000E+00 0.  1.
        994    1    1    2    0    0 -0.16525047516E+02  0.69411308071E+01  0.51966028455E+01  0.17221411433E+03  0.17120000000E+03 0.  0.
        998    1    1    2    0    0  0.43163252592E+02 -0.77751454294E+01  0.13937914542E+04  0.13945171698E+04  0.10000000000E+02 0.  1.
</event>
<event>
 5    1  0.1796476E-008  0.3248957E+03  0.7957747E-01  0.3732895E+00
         13   -1    0    0    0    0  0.00000000000E+00  0.00000000000E+00  0.14999999963E+04  0.15000000000E+04  0.10566000000E+00 0. -1.
        994   -1    0    0    0    0 -0.00000000000E+00 -0.00000000000E+00  0.11368683772E-12  0.17120000000E+03  0.17120000000E+03 0.  0.
         13    1    1    2    0    0 -0.60979239823E+02 -0.21692589577E+03  0.81040149261E+03  0.84114558926E+03  0.10566000000E+00 0. -1.
        994    1    1    2    0    0  0.71441598523E+02  0.18140082408E+03  0.17257880838E+03  0.31161361665E+03  0.17120000000E+03 0.  0.
        998    1    1    2    0    0 -0.10462358699E+02  0.35525071687E+02  0.51701969529E+03  0.51844079410E+03  0.10000000000E+02 0. -1.
</event>
<event>
 5    1  0.1796476E-008  0.3815678E+03  0.7957747E-01  0.3444360E+00
         13   -1    0    0    0    0  0.00000000000E+00  0.00000000000E+00  0.14999999963E+04  0.15000000000E+04  0.10566000000E+00 0.  1.
        994   -1    0    0    0    0 -0.00000000000E+00 -0.00000000000E+00  0.11368683772E-12  0.17120000000E+03  0.17120000000E+03 0.  0.
         13    1    1    2    0    0  0.11685280118E+02 -0.72336553808E+01  0.26536526229E+02  0.29884275630E+02  0.10566000000E+00 0.  1.
        994    1    1    2    0    0 -0.11034349382E+02  0.95451661477E+01  0.40520749832E+01  0.17186834023E+03  0.17120000000E+03 0.  0.
        998    1    1    2    0    0 -0.65093073578E+00 -0.23115107669E+01  0.14694113951E+04  0.14694473841E+04  0.10000000000E+02 0.  1.
</event>
<event>
 5    1  0.1796476E-008  0.3861022E+03  0.7957747E-01  0.3425011E+00
         13   -1    0    0    0    0  0.00000000000E+00  0.00000000000E+00  0.14999999963E+04  0.15000000000E+04  0.10566000000E+00 0.  1.
        994   -1    0    0    0    0 -0.00000000000E+00 -0.00000000000E+00  0.11368683772E-12  0.17120000000E+03  0.17120000000E+03 0.  0.
         13    1    1    2    0    0  0.60945490463E+00 -0.10495626935E+02  0.56600067642E+02  0.57568293714E+02  0.10566000000E+00 0.  1.
        994    1    1    2    0    0 -0.34032839226E+01 -0.55315589625E+01  0.12221547915E+01  0.17132750552E+03  0.17120000000E+03 0.  0.
        998    1    1    2    0    0  0.27938290180E+01  0.16027185898E+02  0.14421777738E+04  0.14423042008E+04  0.10000000000E+02 0.  1.
</event>
<event>
 5    1  0.1796476E-008  0.3761132E+03  0.7957747E-01  0.3468259E+00
         13   -1    0    0    0    0  0.00000000000E+00  0.00000000000E+00  0.14999999963E+04  0.15000000000E+04  0.10566000000E+00 0. -1.
        994   -1    0    0    0    0 -0.00000000000E+00 -0.00000000000E+00  0.11368683772E-12  0.17120000000E+03  0.17120000000E+03 0.  0.
         13    1    1    2    0    0  0.17964179739E+02  0.88916415405E+01  0.32972335202E+02  0.38587032740E+02  0.10566000000E+00 0. -1.
        994    1    1    2    0    0  0.14748918314E+02  0.53369118444E+01  0.69417450925E+01  0.17205708659E+03  0.17120000000E+03 0.  0.
        998    1    1    2    0    0 -0.32713098053E+02 -0.14228553385E+02  0.14600859160E+04  0.14605558807E+04  0.10000000000E+02 0. -1.
</event>
<event>
 5    1  0.1796476E-008  0.3850119E+03  0.7957747E-01  0.3429622E+00
         13   -1    0    0    0    0  0.00000000000E+00  0.00000000000E+00  0.14999999963E+04  0.15000000000E+04  0.10566000000E+00 0. -1.
        994   -1    0    0    0    0 -0.00000000000E+00 -0.00000000000E+00  0.11368683772E-12  0.17120000000E+03  0.17120000000E+03 0.  0.
         13    1    1    2    0    0  0.15952981402E+01 -0.12740170034E+02  0.55889133559E+02  0.57345124663E+02  0.10566000000E+00 0. -1.
        994    1    1    2    0    0  0.10057227557E+02 -0.63616314196E+01  0.20900757635E+01  0.17162583313E+03  0.17120000000E+03 0.  0.
        998    1    1    2    0    0 -0.11652525697E+02  0.19101801454E+02  0.14420207870E+04  0.14422290422E+04  0.10000000000E+02 0. -1.
</event>
<event>
 5    1  0.1796476E-008  0.3855703E+03  0.7957747E-01  0.3427257E+00
         13   -1    0    0    0    0  0.00000000000E+00  0.00000000000E+00  0.14999999963E+04  0.15000000000E+04  0.10566000000E+00 0. -1.
        994   -1    0    0    0    0 -0.00000000000E+00 -0.00000000000E+00  0.11368683772E-12  0.17120000000E+03  0.17120000000E+03 0.  0.
         13    1    1    2    0    0 -0.12967497880E+02  0.66452454461E+01  0.76247240776E+02  0.77627109816E+02  0.10566000000E+00 0. -1.
        994    1    1    2    0    0  0.13311700617E+02 -0.63376001402E+01  0.20611298316E+01  0.17184602063E+03  0.17120000000E+03 0.  0.
        998    1    1    2    0    0 -0.34420273740E+00 -0.30764530594E+00  0.14216916257E+04  0.14217268696E+04  0.10000000000E+02 0. -1.
</event>
<event>
 5    1  0.1796476E-008  0.3696009E+03  0.7957747E-01  0.3497727E+00
         13   -1    0    0    0    0  0.00000000000E+00  0.00000000000E+00  0.14999999963E+04  0.15000000000E+04  0.10566000000E+00 0.  1.
        994   -1    0    0    0    0 -0.00000000000E+00 -0.00000000000E+00  0.11368683772E-12  0.17120000000E+03  0.17120000000E+03 0.  0.
         13    1    1    2    0    0 -0.15372123095E+02  0.42450082006E+01  0.90626854595E+01  0.18343001250E+02  0.10566000000E+00 0.  1.
        994    1    1    2    0    0  0.16925866233E+02 -0.12567436297E+01  0.10475820295E+02  0.17235790427E+03  0.17120000000E+03 0.  0.
        998    1    1    2    0    0 -0.15537431381E+01 -0.29882645709E+01  0.14804614905E+04  0.14804990945E+04  0.10000000000E+02 0.  1.
</event>
<event>
 5    1  0.1796476E-008  0.3818601E+03  0.7957747E-01  0.3443099E+00
         13   -1    0    0    0    0  0.00000000000E+00  0.00000000000E+00  0.14999999963E+04  0.15000000000E+04  0.10566000000E+00 0. -1.
        994   -1    0    0    0    0 -0.00000000000E+00 -0.00000000000E+00  0.11368683772E-12  0.17120000000E+03  0.17120000000E+03 0.  0.
         13    1    1    2    0    0  0.11774794150E+02 -0.10372867389E+02  0.36550578876E+02  0.39776854266E+02  0.10566000000E+00 0. -1.
        994    1    1    2    0    0 -0.14142379522E+02  0.90168094049E+01  0.41323318834E+01  0.17206924745E+03  0.17120000000E+03 0.  0.
        998    1    1    2    0    0  0.23675853730E+01  0.13560579842E+01  0.14593170855E+04  0.14593538983E+04  0.10000000000E+02 0. -1.
</event>
<event>
 5    1  0.1796476E-008  0.3845344E+03  0.7957747E-01  0.3431649E+00
         13   -1    0    0    0    0  0.00000000000E+00  0.00000000000E+00  0.14999999963E+04  0.15000000000E+04  0.10566000000E+00 0. -1.
        994   -1    0    0    0    0 -0.00000000000E+00 -0.00000000000E+00  0.11368683772E-12  0.17120000000E+03  0.17120000000E+03 0.  0.
         13    1    1    2    0    0  0.77430520540E-01 -0.19259280603E+02  0.10086787306E+03  0.10269014005E+03  0.10566000000E+00 0. -1.
        994    1    1    2    0    0  0.25631253875E+01  0.10290897133E+02  0.22320292908E+01  0.17154268894E+03  0.17120000000E+03 0.  0.
        998    1    1    2    0    0 -0.26405559080E+01  0.89683834704E+01  0.13969000939E+04  0.13969671710E+04  0.10000000000E+02 0. -1.
</event>
<event>
 5    1  0.1796476E-008  0.3810295E+03  0.7957747E-01  0.3446688E+00
         13   -1    0    0    0    0  0.00000000000E+00  0.00000000000E+00  0.14999999963E+04  0.15000000000E+04  0.10566000000E+00 0.  1.
        994   -1    0    0    0    0 -0.00000000000E+00 -0.00000000000E+00  0.11368683772E-12  0.17120000000E+03  0.17120000000E+03 0.  0.
         13    1    1    2    0    0  0.17216901699E+02 -0.93866527903E+01  0.50378454242E+02  0.54060436278E+02  0.10566000000E+00 0.  1.
        994    1    1    2    0    0 -0.18276534284E+02  0.88465893143E+01  0.49891797406E+01  0.17247210140E+03  0.17120000000E+03 0.  0.
        998    1    1    2    0    0  0.10596325850E+01  0.54006347596E+00  0.14446323623E+04  0.14446674623E+04  0.10000000000E+02 0.  1.
</event>
<event>
 5    1  0.1796476E-008  0.3824096E+03  0.7957747E-01  0.3440733E+00
         13   -1    0    0    0    0  0.00000000000E+00  0.00000000000E+00  0.14999999963E+04  0.15000000000E+04  0.10566000000E+00 0.  1.
        994   -1    0    0    0    0 -0.00000000000E+00 -0.00000000000E+00  0.11368683772E-12  0.17120000000E+03  0.17120000000E+03 0.  0.
         13    1    1    2    0    0 -0.11083668568E+02 -0.30354037547E+02  0.17255570483E+03  0.17555539791E+03  0.10566000000E+00 0.  1.
        994    1    1    2    0    0 -0.10875816112E+01  0.24740435295E+02  0.49582869656E+01  0.17305287222E+03  0.17120000000E+03 0.  0.
        998    1    1    2    0    0  0.12171250179E+02  0.56136022512E+01  0.13224860045E+04  0.13225917299E+04  0.10000000000E+02 0.  1.
</event>
<event>
 5    1  0.1796476E-008  0.3726105E+03  0.7957747E-01  0.3483979E+00
         13   -1    0    0    0    0  0.00000000000E+00  0.00000000000E+00  0.14999999963E+04  0.15000000000E+04  0.10566000000E+00 0.  1.
        994   -1    0    0    0    0 -0.00000000000E+00 -0.00000000000E+00  0.11368683772E-12  0.17120000000E+03  0.17120000000E+03 0.  0.
         13    1    1    2    0    0 -0.12510716590E+02 -0.27514378565E+02  0.53872163954E+02  0.61772002319E+02  0.10566000000E+00 0.  1.
        994    1    1    2    0    0  0.74341768378E+01  0.23882827599E+02  0.10057934027E+02  0.17330971835E+03  0.17120000000E+03 0.  0.
        998    1    1    2    0    0  0.50765397519E+01  0.36315509667E+01  0.14360698983E+04  0.14361182793E+04  0.10000000000E+02 0.  1.
</event>
<event>
 5    1  0.1796476E-008  0.3818844E+03  0.7957747E-01  0.3442994E+00
         13   -1    0    0    0    0  0.00000000000E+00  0.00000000000E+00  0.14999999963E+04  0.15000000000E+04  0.10566000000E+00 0.  1.
        994   -1    0    0    0    0 -0.00000000000E+00 -0.00000000000E+00  0.11368683772E-12  0.17120000000E+03  0.17120000000E+03 0.  0.
         13    1    1    2    0    0 -0.44182282273E+01  0.16669948203E+02  0.45535683369E+02  0.48692068530E+02  0.10566000000E+00 0.  1.
        994    1    1    2    0    0 -0.21009703800E+01 -0.12628356738E+02  0.37296121937E+01  0.17171848904E+03  0.17120000000E+03 0.  0.
        998    1    1    2    0    0  0.65191986073E+01 -0.40415914651E+01  0.14507347007E+04  0.14507894424E+04  0.10000000000E+02 0.  1.
</event>
<event>
 5    1  0.1796476E-008  0.3843248E+03  0.7957747E-01  0.3432541E+00
         13   -1    0    0    0    0  0.00000000000E+00  0.00000000000E+00  0.14999999963E+04  0.15000000000E+04  0.10566000000E+00 0. -1.
        994   -1    0    0    0    0 -0.00000000000E+00 -0.00000000000E+00  0.11368683772E-12  0.17120000000E+03  0.17120000000E+03 0.  0.
         13    1    1    2    0    0 -0.55425731225E+01 -0.15189221389E+02  0.65731512354E+02  0.67691029270E+02  0.10566000000E+00 0. -1.
        994    1    1    2    0    0 -0.37617000754E+02  0.28516292622E+02  0.93444869386E+01  0.17783412813E+03  0.17120000000E+03 0.  0.
        998    1    1    2    0    0  0.43159573876E+02 -0.13327071233E+02  0.14249239970E+04  0.14256748426E+04  0.10000000000E+02 0. -1.
</event>
<event>
 5    1  0.1796476E-008  0.3795482E+03  0.7957747E-01  0.3453128E+00
         13   -1    0    0    0    0  0.00000000000E+00  0.00000000000E+00  0.14999999963E+04  0.15000000000E+04  0.10566000000E+00 0.  1.
        994   -1    0    0    0    0 -0.00000000000E+00 -0.00000000000E+00  0.11368683772E-12  0.17120000000E+03  0.17120000000E+03 0.  0.
         13    1    1    2    0    0 -0.85089685365E+01 -0.14116561818E+02  0.28559248509E+02  0.32974561446E+02  0.10566000000E+00 0.  1.
        994    1    1    2    0    0  0.51833751678E-01  0.24364480672E+02  0.63513259125E+01  0.17304164223E+03  0.17120000000E+03 0.  0.
        998    1    1    2    0    0  0.84571347848E+01 -0.10247918854E+02  0.14650894219E+04  0.14651837963E+04  0.10000000000E+02 0.  1.
</event>
<event>
 5    1  0.1796476E-008  0.3684532E+03  0.7957747E-01  0.3503030E+00
         13   -1    0    0    0    0  0.00000000000E+00  0.00000000000E+00  0.14999999963E+04  0.15000000000E+04  0.10566000000E+00 0. -1.
        994   -1    0    0    0    0 -0.00000000000E+00 -0.00000000000E+00  0.11368683772E-12  0.17120000000E+03  0.17120000000E+03 0.  0.
         13    1    1    2    0    0  0.64746825091E+00  0.12754130504E+02  0.33856114362E+01  0.13212137937E+02  0.10566000000E+00 0. -1.
        994    1    1    2    0    0 -0.17396317844E+01 -0.10246446287E+02  0.10498893211E+02  0.17183620904E+03  0.17120000000E+03 0.  0.
        998    1    1    2    0    0  0.10921635335E+01 -0.25076842169E+01  0.14861154916E+04  0.14861516530E+04  0.10000000000E+02 0. -1.
</event>
<event>
 5    1  0.1796476E-008  0.3807624E+03  0.7957747E-01  0.3447845E+00
         13   -1    0    0    0    0  0.00000000000E+00  0.00000000000E+00  0.14999999963E+04  0.15000000000E+04  0.10566000000E+00 0.  1.
        994   -1    0    0    0    0 -0.00000000000E+00 -0.00000000000E+00  0.11368683772E-12  0.17120000000E+03  0.17120000000E+03 0.  0.
         13    1    1    2    0    0  0.46991421884E+02 -0.15923177415E+01  0.22604159220E+03  0.23087992935E+03  0.10566000000E+00 0.  1.
        994    1    1    2    0    0 -0.59723299702E+02  0.13735805831E+02  0.16374755756E+02  0.18257359479E+03  0.17120000000E+03 0.  0.
        998    1    1    2    0    0  0.12731877818E+02 -0.12143488090E+02  0.12575836483E+04  0.12577464759E+04  0.10000000000E+02 0.  1.
</event>
<event>
 5    1  0.1796476E-008  0.3843228E+03  0.7957747E-01  0.3432549E+00
         13   -1    0    0    0    0  0.00000000000E+00  0.00000000000E+00  0.14999999963E+04  0.15000000000E+04  0.10566000000E+00 0.  1.
        994   -1    0    0    0    0 -0.00000000000E+00 -0.00000000000E+00  0.11368683772E-12  0.17120000000E+03  0.17120000000E+03 0.  0.
         13    1    1    2    0    0 -0.36426883463E+01 -0.18948422756E+02  0.89650537532E+02  0.91703554714E+02  0.10566000000E+00 0.  1.
        994    1    1    2    0    0 -0.60633669578E+01  0.21520776834E+02  0.36160947059E+01  0.17269170332E+03  0.17120000000E+03 0.  0.
        998    1    1    2    0    0  0.97060553041E+01 -0.25723540783E+01  0.14067333640E+04  0.14068047420E+04  0.10000000000E+02 0.  1.
</event>
<event>
 5    1  0.1796476E-008  0.3786014E+03  0.7957747E-01  0.3457271E+00
         13   -1    0    0    0    0  0.00000000000E+00  0.00000000000E+00  0.14999999963E+04  0.15000000000E+04  0.10566000000E+00 0. -1.
        994   -1    0    0    0    0 -0.00000000000E+00 -0.00000000000E+00  0.11368683772E-12  0.17120000000E+03  0.17120000000E+03 0.  0.
         13    1    1    2    0    0 -0.83366667920E+01 -0.17782434898E+02  0.37239122400E+02  0.42100812406E+02  0.10566000000E+00 0. -1.
        994    1    1    2    0    0  0.60603493749E+01  0.18098646335E+02  0.60652084797E+01  0.17236738551E+03  0.17120000000E+03 0.  0.
        998    1    1    2    0    0  0.22763174171E+01 -0.31621143711E+00  0.14566956654E+04  0.14567318021E+04  0.10000000000E+02 0.  0.
</event>
<event>
 5    1  0.1796476E-008  0.3781787E+03  0.7957747E-01  0.3459127E+00
         13   -1    0    0    0    0  0.00000000000E+00  0.00000000000E+00  0.14999999963E+04  0.15000000000E+04  0.10566000000E+00 0. -1.
        994   -1    0    0    0    0 -0.00000000000E+00 -0.00000000000E+00  0.11368683772E-12  0.17120000000E+03  0.17120000000E+03 0.  0.
         13    1    1    2    0    0 -0.33232816939E+02 -0.25176668872E+01  0.11269025218E+03  0.11751537291E+03  0.10566000000E+00 0. -1.
        994    1    1    2    0    0  0.11210588365E+02  0.90335726319E+01  0.57527764471E+01  0.17190060257E+03  0.17120000000E+03 0.  0.
        998    1    1    2    0    0  0.22022228573E+02 -0.65159057447E+01  0.13815569676E+04  0.13817840245E+04  0.10000000000E+02 0. -1.
</event>
<event>
 5    1  0.1796476E-008  0.3774908E+03  0.7957747E-01  0.3462158E+00
         13   -1    0    0    0    0  0.00000000000E+00  0.00000000000E+00  0.14999999963E+04  0.15000000000E+04  0.10566000000E+00 0.  1.
        994   -1    0    0    0    0 -0.00000000000E+00 -0.00000000000E+00  0.11368683772E-12  0.17120000000E+03  0.17120000000E+03 0.  0.
         13    1    1    2    0    0 -0.95711787815E+01 -0.28963131461E+02  0.79643426002E+02  0.85285150623E+02  0.10566000000E+00 0.  1.
        994    1    1    2    0    0  0.10695492762E+02  0.30349623948E+02  0.89036388958E+01  0.17442536520E+03  0.17120000000E+03 0.  0.
        998    1    1    2    0    0 -0.11243139801E+01 -0.13864924869E+01  0.14114529314E+04  0.14114894842E+04  0.10000000000E+02 0.  1.
</event>
<event>
 5    1  0.1796476E-008  0.3702172E+03  0.7957747E-01  0.3494893E+00
         13   -1    0    0    0    0  0.00000000000E+00  0.00000000000E+00  0.14999999963E+04  0.15000000000E+04  0.10566000000E+00 0. -1.
        994   -1    0    0    0    0 -0.00000000000E+00 -0.00000000000E+00  0.11368683772E-12  0.17120000000E+03  0.17120000000E+03 0.  0.
         13    1    1    2    0    0  0.14361889410E+02  0.83807904878E+02  0.35883179434E+03  0.36876862201E+03  0.10566000000E+00 0. -1.
        994    1    1    2    0    0  0.10887744333E+02 -0.64391351817E+02  0.24038346614E+02  0.18480279022E+03  0.17120000000E+03 0.  0.
        998    1    1    2    0    0 -0.25249633743E+02 -0.19416553061E+02  0.11171298553E+04  0.11176285878E+04  0.10000000000E+02 0. -1.
</event>
<event>
 5    1  0.1796476E-008  0.3770960E+03  0.7957747E-01  0.3463901E+00
         13   -1    0    0    0    0  0.00000000000E+00  0.00000000000E+00  0.14999999963E+04  0.15000000000E+04  0.10566000000E+00 0. -1.
        994   -1    0    0    0    0 -0.00000000000E+00 -0.00000000000E+00  0.11368683772E-12  0.17120000000E+03  0.17120000000E+03 0.  0.
         13    1    1    2    0    0 -0.28444984972E+02  0.89506599055E+01  0.79949681971E+02  0.85329914416E+02  0.10566000000E+00 0. -1.
        994    1    1    2    0    0  0.16929530720E+01 -0.29784657730E+02  0.86161803870E+01  0.17399330588E+03  0.17120000000E+03 0.  0.
        998    1    1    2    0    0  0.26752031900E+02  0.20833997825E+02  0.14114341339E+04  0.14118767797E+04  0.10000000000E+02 0. -1.
</event>
<event>
 5    1  0.1796476E-008  0.3814361E+03  0.7957747E-01  0.3444929E+00
         13   -1    0    0    0    0  0.00000000000E+00  0.00000000000E+00  0.14999999963E+04  0.15000000000E+04  0.10566000000E+00 0. -1.
        994   -1    0    0    0    0 -0.00000000000E+00 -0.00000000000E+00  0.11368683772E-12  0.17120000000E+03  0.17120000000E+03 0.  0.
         13    1    1    2    0    0 -0.20725101485E+02  0.70468504679E+00  0.98874198760E+02  0.10102546588E+03  0.10566000000E+00 0. -1.
        994    1    1    2    0    0 -0.64079660156E+02 -0.32504891102E+02  0.20782011970E+02  0.18682639753E+03  0.17120000000E+03 0.  0.
        998    1    1    2    0    0  0.84804761641E+02  0.31800206055E+02  0.13803437855E+04  0.13833481366E+04  0.10000000000E+02 0. -1.
</event>
<event>
 5    1  0.1796476E-008  0.3812012E+03  0.7957747E-01  0.3445945E+00
         13   -1    0    0    0    0  0.00000000000E+00  0.00000000000E+00  0.14999999963E+04  0.15000000000E+04  0.10566000000E+00 0.  1.
        994   -1    0    0    0    0 -0.00000000000E+00 -0.00000000000E+00  0.11368683772E-12  0.17120000000E+03  0.17120000000E+03 0.  0.
         13    1    1    2    0    0  0.98453155511E+01  0.15461240363E+02  0.48948186634E+02  0.52267736995E+02  0.10566000000E+00 0.  1.
        994    1    1    2    0    0  0.76043402792E+01 -0.28536211084E+01  0.37477139410E+01  0.17143352795E+03  0.17120000000E+03 0.  0.
        998    1    1    2    0    0 -0.17449655830E+02 -0.12607619255E+02  0.14473040957E+04  0.14474987351E+04  0.10000000000E+02 0.  1.
</event>
<event>
 5    1  0.1796476E-008  0.3825617E+03  0.7957747E-01  0.3440080E+00
         13   -1    0    0    0    0  0.00000000000E+00  0.00000000000E+00  0.14999999963E+04  0.15000000000E+04  0.10566000000E+00 0.  1.
        994   -1    0    0    0    0 -0.00000000000E+00 -0.00000000000E+00  0.11368683772E-12  0.17120000000E+03  0.17120000000E+03 0.  0.
         13    1    1    2    0    0 -0.67386991752E+01 -0.13412294732E+02  0.38940809184E+02  0.41733649499E+02  0.10566000000E+00 0.  1.
        994    1    1    2    0    0 -0.12693230388E+01  0.96367172491E+01  0.31588110618E+01  0.17150479756E+03  0.17120000000E+03 0.  0.
        998    1    1    2    0    0  0.80080222140E+01  0.37755774827E+01  0.14579003760E+04  0.14579615529E+04  0.10000000000E+02 0.  1.
</event>
<event>
 5    1  0.1796476E-008  0.3797872E+03  0.7957747E-01  0.3452086E+00
         13   -1    0    0    0    0  0.00000000000E+00  0.00000000000E+00  0.14999999963E+04  0.15000000000E+04  0.10566000000E+00 0.  1.
        994   -1    0    0    0    0 -0.00000000000E+00 -0.00000000000E+00  0.11368683772E-12  0.17120000000E+03  0.17120000000E+03 0.  0.
         13    1    1    2    0    0  0.12172307559E+02 -0.34782843792E+01  0.16870181303E+02  0.21092124473E+02  0.10566000000E+00 0.  1.
        994    1    1    2    0    0 -0.14155315729E+02  0.18535448283E+01  0.49227057264E+01  0.17186471896E+03  0.17120000000E+03 0.  0.
        998    1    1    2    0    0  0.19830081697E+01  0.16247395510E+01  0.14782071092E+04  0.14782431566E+04  0.10000000000E+02 0.  1.
</event>
<event>
 5    1  0.1796476E-008  0.3756028E+03  0.7957747E-01  0.3470531E+00
         13   -1    0    0    0    0  0.00000000000E+00  0.00000000000E+00  0.14999999963E+04  0.15000000000E+04  0.10566000000E+00 0. -1.
        994   -1    0    0    0    0 -0.00000000000E+00 -0.00000000000E+00  0.11368683772E-12  0.17120000000E+03  0.17120000000E+03 0.  0.
         13    1    1    2    0    0 -0.32823986257E+02  0.13903359054E+02  0.39356681158E+02  0.53100630718E+02  0.10566000000E+00 0. -1.
        994    1    1    2    0    0  0.35665556405E+02 -0.16235976563E+01  0.18491739545E+02  0.17585804620E+03  0.17120000000E+03 0.  0.
        998    1    1    2    0    0 -0.28415701480E+01 -0.12279761398E+02  0.14421515756E+04  0.14422413231E+04  0.10000000000E+02 0. -1.
</event>
<event>
 5    1  0.1796476E-008  0.3836908E+03  0.7957747E-01  0.3435244E+00
         13   -1    0    0    0    0  0.00000000000E+00  0.00000000000E+00  0.14999999963E+04  0.15000000000E+04  0.10566000000E+00 0.  1.
        994   -1    0    0    0    0 -0.00000000000E+00 -0.00000000000E+00  0.11368683772E-12  0.17120000000E+03  0.17120000000E+03 0.  0.
         13    1    1    2    0    0  0.20721232826E+02  0.23764007169E+01  0.10603746817E+03  0.10806929531E+03  0.10566000000E+00 0.  1.
        994    1    1    2    0    0  0.20414690465E+01  0.64020039201E+01  0.24306609299E+01  0.17134906292E+03  0.17120000000E+03 0.  0.
        998    1    1    2    0    0 -0.22762701872E+02 -0.87784046369E+01  0.13915318672E+04  0.13917816418E+04  0.10000000000E+02 0.  1.
</event>
<event>
 5    1  0.1796476E-008  0.3834397E+03  0.7957747E-01  0.3436317E+00
         13   -1    0    0    0    0  0.00000000000E+00  0.00000000000E+00  0.14999999963E+04  0.15000000000E+04  0.10566000000E+00 0.  1.
        994   -1    0    0    0    0 -0.00000000000E+00 -0.00000000000E+00  0.11368683772E-12  0.17120000000E+03  0.17120000000E+03 0.  0.
         13    1    1    2    0    0 -0.26654130526E+01 -0.16902343244E+02  0.63392550751E+02  0.65661406386E+02  0.10566000000E+00 0.  1.
        994    1    1    2    0    0  0.36366284028E+01  0.78828063012E+00  0.24525641929E+01  0.17125799696E+03  0.17120000000E+03 0.  0.
        998    1    1    2    0    0 -0.97121535015E+00  0.16114062614E+02  0.14341548813E+04  0.14342805967E+04  0.10000000000E+02 0.  1.
</event>
<event>
 5    1  0.1796476E-008  0.3797871E+03  0.7957747E-01  0.3452086E+00
         13   -1    0    0    0    0  0.00000000000E+00  0.00000000000E+00  0.14999999963E+04  0.15000000000E+04  0.10566000000E+00 0.  1.
        994   -1    0    0    0    0 -0.00000000000E+00 -0.00000000000E+00  0.11368683772E-12  0.17120000000E+03  0.17120000000E+03 0.  0.
         13    1    1    2    0    0  0.16913360499E+02  0.91067986657E+01  0.41019482238E+02  0.45294642425E+02  0.10566000000E+00 0.  1.
        994    1    1    2    0    0 -0.17124118301E+02 -0.78934564790E+01  0.54309313807E+01  0.17232085509E+03  0.17120000000E+03 0.  0.
        998    1    1    2    0    0  0.21075780183E+00 -0.12133421867E+01  0.14535495827E+04  0.14535845025E+04  0.10000000000E+02 0.  1.
</event>
<event>
 5    1  0.1796476E-008  0.3781252E+03  0.7957747E-01  0.3459363E+00
         13   -1    0    0    0    0  0.00000000000E+00  0.00000000000E+00  0.14999999963E+04  0.15000000000E+04  0.10566000000E+00 0. -1.
        994   -1    0    0    0    0 -0.00000000000E+00 -0.00000000000E+00  0.11368683772E-12  0.17120000000E+03  0.17120000000E+03 0.  0.
         13    1    1    2    0    0 -0.26525514949E+02 -0.83500806303E+01  0.90027646273E+02  0.94224811209E+02  0.10566000000E+00 0. -1.
        994    1    1    2    0    0 -0.17341181123E+01 -0.68179892059E+02  0.20892086998E+02  0.18546542574E+03  0.17120000000E+03 0.  0.
        998    1    1    2    0    0  0.28259633062E+02  0.76529972689E+02  0.13890802630E+04  0.13915097630E+04  0.10000000000E+02 0. -1.
</event>
<event>
 5    1  0.1796476E-008  0.3856926E+03  0.7957747E-01  0.3426740E+00
         13   -1    0    0    0    0  0.00000000000E+00  0.00000000000E+00  0.14999999963E+04  0.15000000000E+04  0.10566000000E+00 0.  1.
        994   -1    0    0    0    0 -0.00000000000E+00 -0.00000000000E+00  0.11368683772E-12  0.17120000000E+03  0.17120000000E+03 0.  0.
         13    1    1    2    0    0 -0.66843392695E+01 -0.11506173995E+02  0.73080917155E+02  0.74282595860E+02  0.10566000000E+00 0.  1.
        994    1    1    2    0    0 -0.67261473089E+00  0.25090238249E+01  0.13088272462E+01  0.17122470803E+03  0.17120000000E+03 0.  0.
        998    1    1    2    0    0  0.73569540004E+01  0.89971501704E+01  0.14256102519E+04  0.14256926961E+04  0.10000000000E+02 0.  1.
</event>
<event>
 5    1  0.1796476E-008  0.3838876E+03  0.7957747E-01  0.3434404E+00
         13   -1    0    0    0    0  0.00000000000E+00  0.00000000000E+00  0.14999999963E+04  0.15000000000E+04  0.10566000000E+00 0.  1.
        994   -1    0    0    0    0 -0.00000000000E+00 -0.00000000000E+00  0.11368683772E-12  0.17120000000E+03  0.17120000000E+03 0.  0.
         13    1    1    2    0    0 -0.49132947292E+01  0.18286017398E+02  0.80330313088E+02  0.82531746996E+02  0.10566000000E+00 0.  1.
        994    1    1    2    0    0  0.31646740041E+01 -0.14406917100E+02  0.29018763327E+01  0.17185876558E+03  0.17120000000E+03 0.  0.
        998    1    1    2    0    0  0.17486207251E+01 -0.38791002984E+01  0.14167678069E+04  0.14168094874E+04  0.10000000000E+02 0.  1.
</event>
<event>
 5    1  0.1796476E-008  0.3813356E+03  0.7957747E-01  0.3445363E+00
         13   -1    0    0    0    0  0.00000000000E+00  0.00000000000E+00  0.14999999963E+04  0.15000000000E+04  0.10566000000E+00 0. -1.
        994   -1    0    0    0    0 -0.00000000000E+00 -0.00000000000E+00  0.11368683772E-12  0.17120000000E+03  0.17120000000E+03 0.  0.
         13    1    1    2    0    0 -0.17670036044E+02 -0.29506849785E+02  0.16363285303E+03  0.16720827167E+03  0.10566000000E+00 0. -1.
        994    1    1    2    0    0  0.55104273654E+01  0.26318713810E+02  0.58705973672E+01  0.17339822208E+03  0.17120000000E+03 0.  0.
        998    1    1    2    0    0  0.12159608679E+02  0.31881359750E+01  0.13304965459E+04  0.13305935063E+04  0.10000000000E+02 0. -1.
</event>
<event>
 5    1  0.1796476E-008  0.3717710E+03  0.7957747E-01  0.3487791E+00
         13   -1    0    0    0    0  0.00000000000E+00  0.00000000000E+00  0.14999999963E+04  0.15000000000E+04  0.10566000000E+00 0.  1.
        994   -1    0    0    0    0 -0.00000000000E+00 -0.00000000000E+00  0.11368683772E-12  0.17120000000E+03  0.17120000000E+03 0.  0.
         13    1    1    2    0    0 -0.50985766474E+02  0.36886627715E+02  0.18487119746E+03  0.19528835731E+03  0.10566000000E+00 0.  1.
        994    1    1    2    0    0 -0.40706540408E+01 -0.24108679371E+02  0.13984102931E+02  0.17350156708E+03  0.17120000000E+03 0.  0.
        998    1    1    2    0    0  0.55056420514E+02 -0.12777948344E+02  0.13011446959E+04  0.13024100756E+04  0.10000000000E+02 0.  1.
</event>
<event>
 5    1  0.1796476E-008  0.3756447E+03  0.7957747E-01  0.3470344E+00
         13   -1    0    0    0    0  0.00000000000E+00  0.00000000000E+00  0.14999999963E+04  0.15000000000E+04  0.10566000000E+00 0. -1.
        994   -1    0    0    0    0 -0.00000000000E+00 -0.00000000000E+00  0.11368683772E-12  0.17120000000E+03  0.17120000000E+03 0.  0.
         13    1    1    2    0    0  0.25387376945E+02 -0.86322076739E+01  0.52052527766E+02  0.58553486048E+02  0.10566000000E+00 0. -1.
        994    1    1    2    0    0 -0.26874496834E+02  0.13406462713E+02  0.94134245609E+01  0.17406902190E+03  0.17120000000E+03 0.  0.
        998    1    1    2    0    0  0.14871198890E+01 -0.47742550386E+01  0.14385340440E+04  0.14385774921E+04  0.10000000000E+02 0. -1.
</event>
<event>
 5    1  0.1796476E-008  0.3849337E+03  0.7957747E-01  0.3429954E+00
         13   -1    0    0    0    0  0.00000000000E+00  0.00000000000E+00  0.14999999963E+04  0.15000000000E+04  0.10566000000E+00 0. -1.
        994   -1    0    0    0    0 -0.00000000000E+00 -0.00000000000E+00  0.11368683772E-12  0.17120000000E+03  0.17120000000E+03 0.  0.
         13    1    1    2    0    0  0.13904356529E+02  0.54541797890E+01  0.72514926665E+02  0.74037186339E+02  0.10566000000E+00 0. -1.
        994    1    1    2    0    0  0.65157337199E-01  0.48320736998E+01  0.17398894406E+01  0.17127702822E+03  0.17120000000E+03 0.  0.
        998    1    1    2    0    0 -0.13969513866E+02 -0.10286253489E+02  0.14257451802E+04  0.14258857854E+04  0.10000000000E+02 0. -1.
</event>
<event>
 5    1  0.1796476E-008  0.3787189E+03  0.7957747E-01  0.3456756E+00
         13   -1    0    0    0    0  0.00000000000E+00  0.00000000000E+00  0.14999999963E+04  0.15000000000E+04  0.10566000000E+00 0.  1.
        994   -1    0    0    0    0 -0.00000000000E+00 -0.00000000000E+00  0.11368683772E-12  0.17120000000E+03  0.17120000000E+03 0.  0.
         13    1    1    2    0    0  0.11075136585E+02 -0.34353651759E+01  0.11872767085E+02  0.16596208801E+02  0.10566000000E+00 0.  1.
        994    1    1    2    0    0 -0.98281177990E+01  0.59227414631E+01  0.52233738878E+01  0.17166360826E+03  0.17120000000E+03 0.  0.
        998    1    1    2    0    0 -0.12470187858E+01 -0.24873762872E+01  0.14829038553E+04  0.14829401829E+04  0.10000000000E+02 0.  1.
</event>
<event>
 5    1  0.1796476E-008  0.3817671E+03  0.7957747E-01  0.3443500E+00
         13   -1    0    0    0    0  0.00000000000E+00  0.00000000000E+00  0.14999999963E+04  0.15000000000E+04  0.10566000000E+00 0.  1.
        994   -1    0    0    0    0 -0.00000000000E+00 -0.00000000000E+00  0.11368683772E-12  0.17120000000E+03  0.17120000000E+03 0.  0.
         13    1    1    2    0    0  0.15980754400E+02 -0.68303750806E+01  0.45592198920E+02  0.48792400036E+02  0.10566000000E+00 0.  1.
        994    1    1    2    0    0 -0.12117589289E+02 -0.15172659127E+01  0.37395723636E+01  0.17167574805E+03  0.17120000000E+03 0.  0.
        998    1    1    2    0    0 -0.38631651108E+01  0.83476409933E+01  0.14506682250E+04  0.14507318519E+04  0.10000000000E+02 0.  1.
</event>
<event>
 5    1  0.1796476E-008  0.3708318E+03  0.7957747E-01  0.3492077E+00
         13   -1    0    0    0    0  0.00000000000E+00  0.00000000000E+00  0.14999999963E+04  0.15000000000E+04  0.10566000000E+00 0. -1.
        994   -1    0    0    0    0 -0.00000000000E+00 -0.00000000000E+00  0.11368683772E-12  0.17120000000E+03  0.17120000000E+03 0.  0.
         13    1    1    2    0    0 -0.18358425201E+02 -0.92331035066E+02  0.37556616275E+03  0.38718471765E+03  0.10566000000E+00 0. -1.
        994    1    1    2    0    0  0.20488968885E+02  0.89874720544E+02  0.38728367675E+02  0.19825889564E+03  0.17120000000E+03 0.  0.
        998    1    1    2    0    0 -0.21305436847E+01  0.24563145220E+01  0.10857054659E+04  0.10857563867E+04  0.10000000000E+02 0.  0.
</event>
<event>
 5    1  0.1796476E-008  0.3846544E+03  0.7957747E-01  0.3431139E+00
         13   -1    0    0    0    0  0.00000000000E+00  0.00000000000E+00  0.14999999963E+04  0.15000000000E+04  0.10566000000E+00 0.  1.
        994   -1    0    0    0    0 -0.00000000000E+00 -0.00000000000E+00  0.11368683772E-12  0.17120000000E+03  0.17120000000E+03 0.  0.
         13    1    1    2    0    0  0.37243180993E+00 -0.18380886151E+02  0.85902747079E+02  0.87848100725E+02  0.10566000000E+00 0.  1.
        994    1    1    2    0    0  0.96162529621E+01  0.24758363960E+02  0.41278380631E+01  0.17329722431E+03  0.17120000000E+03 0.  0.
        998    1    1    2    0    0 -0.99886847720E+01 -0.63774778093E+01  0.14099694111E+04  0.14100546750E+04  0.10000000000E+02 0.  1.
</event>
<event>
 5    1  0.1796476E-008  0.3787380E+03  0.7957747E-01  0.3456672E+00
         13   -1    0    0    0    0  0.00000000000E+00  0.00000000000E+00  0.14999999963E+04  0.15000000000E+04  0.10566000000E+00 0. -1.
        994   -1    0    0    0    0 -0.00000000000E+00 -0.00000000000E+00  0.11368683772E-12  0.17120000000E+03  0.17120000000E+03 0.  0.
         13    1    1    2    0    0 -0.17514308222E+02 -0.40072440655E+01  0.32753195018E+02  0.37357622320E+02  0.10566000000E+00 0. -1.
        994    1    1    2    0    0  0.34259640984E+01  0.10298468368E+01  0.48145429976E+01  0.17130504265E+03  0.17120000000E+03 0.  0.
        998    1    1    2    0    0  0.14088344124E+02  0.29773972287E+01  0.14624322583E+04  0.14625373350E+04  0.10000000000E+02 0. -1.
</event>
<event>
 5    1  0.1796476E-008  0.3734872E+03  0.7957747E-01  0.3480016E+00
         13   -1    0    0    0    0  0.00000000000E+00  0.00000000000E+00  0.14999999963E+04  0.15000000000E+04  0.10566000000E+00 0.  1.
        994   -1    0    0    0    0 -0.00000000000E+00 -0.00000000000E+00  0.11368683772E-12  0.17120000000E+03  0.17120000000E+03 0.  0.
         13    1    1    2    0    0  0.53056431533E+01  0.12178343134E+02  0.99327521039E+00  0.13321398216E+02  0.10566000000E+00 0.  1.
        994    1    1    2    0    0 -0.37994443244E+01 -0.10607646389E+02  0.13244178307E+02  0.17208081299E+03  0.17120000000E+03 0.  0.
        998    1    1    2    0    0 -0.15061988289E+01 -0.15706967442E+01  0.14857625428E+04  0.14857977888E+04  0.10000000000E+02 0.  1.
</event>
<event>
 5    1  0.1796476E-008  0.3822986E+03  0.7957747E-01  0.3441211E+00
         13   -1    0    0    0    0  0.00000000000E+00  0.00000000000E+00  0.14999999963E+04  0.15000000000E+04  0.10566000000E+00 0. -1.
        994   -1    0    0    0    0 -0.00000000000E+00 -0.00000000000E+00  0.11368683772E-12  0.17120000000E+03  0.17120000000E+03 0.  0.
         13    1    1    2    0    0  0.40401063442E+01 -0.11132197969E+02  0.22625135165E+02  0.25537349043E+02  0.10566000000E+00 0. -1.
        994    1    1    2    0    0 -0.40332235411E+01  0.41297644063E+01  0.30878739663E+01  0.17132512020E+03  0.17120000000E+03 0.  0.
        998    1    1    2    0    0 -0.68828031541E-02  0.70024335626E+01  0.14742869871E+04  0.14743375308E+04  0.10000000000E+02 0. -1.
</event>
<event>
 5    1  0.1796476E-008  0.3821935E+03  0.7957747E-01  0.3441663E+00
         13   -1    0    0    0    0  0.00000000000E+00  0.00000000000E+00  0.14999999963E+04  0.15000000000E+04  0.10566000000E+00 0.  1.
        994   -1    0    0    0    0 -0.00000000000E+00 -0.00000000000E+00  0.11368683772E-12  0.17120000000E+03  0.17120000000E+03 0.  0.
         13    1    1    2    0    0 -0.21429394947E+02  0.18445144260E+02  0.14750895883E+03  0.15019436212E+03  0.10566000000E+00 0.  1.
        994    1    1    2    0    0  0.40990390013E+01  0.35626252336E+01  0.31278498052E+01  0.17131467498E+03  0.17120000000E+03 0.  0.
        998    1    1    2    0    0  0.17330355946E+02 -0.22007769494E+02  0.13493631876E+04  0.13496909629E+04  0.10000000000E+02 0.  1.
</event>
<event>
 5    1  0.1796476E-008  0.3685695E+03  0.7957747E-01  0.3502491E+00
         13   -1    0    0    0    0  0.00000000000E+00  0.00000000000E+00  0.14999999963E+04  0.15000000000E+04  0.10566000000E+00 0. -1.
        994   -1    0    0    0    0 -0.00000000000E+00 -0.00000000000E+00  0.11368683772E-12  0.17120000000E+03  0.17120000000E+03 0.  0.
         13    1    1    2    0    0 -0.87953560786E+01  0.60572267788E+02  0.14784344359E+03  0.16001266478E+03  0.10566000000E+00 0. -1.
        994    1    1    2    0    0  0.68528414286E+01 -0.86711517661E+02  0.36790246287E+02  0.19552189379E+03  0.17120000000E+03 0.  0.
        998    1    1    2    0    0  0.19425146499E+01  0.26139249873E+02  0.13153663064E+04  0.13156654414E+04  0.10000000000E+02 0. -1.
</event>
<event>
 5    1  0.1796476E-008  0.3780345E+03  0.7957747E-01  0.3459762E+00
         13   -1    0    0    0    0  0.00000000000E+00  0.00000000000E+00  0.14999999963E+04  0.15000000000E+04  0.10566000000E+00 0.  1.
        994   -1    0    0    0    0 -0.00000000000E+00 -0.00000000000E+00  0.11368683772E-12  0.17120000000E+03  0.17120000000E+03 0.  0.
         13    1    1    2    0    0 -0.18058429801E+02 -0.11671067287E+02  0.43481018446E+02  0.48507018334E+02  0.10566000000E+00 0.  1.
        994    1    1    2    0    0  0.10340224751E+02  0.48757964215E+01  0.55685056134E+01  0.17167161062E+03  0.17120000000E+03 0.  0.
        998    1    1    2    0    0  0.77182050494E+01  0.67952708656E+01  0.14509504722E+04  0.14510213710E+04  0.10000000000E+02 0.  1.
</event>
<event>
 5    1  0.1796476E-008  0.3840350E+03  0.7957747E-01  0.3433775E+00
         13   -1    0    0    0    0  0.00000000000E+00  0.00000000000E+00  0.14999999963E+04  0.15000000000E+04  0.10566000000E+00 0.  1.
        994   -1    0    0    0    0 -0.00000000000E+00 -0.00000000000E+00  0.11368683772E-12  0.17120000000E+03  0.17120000000E+03 0.  0.
         13    1    1    2    0    0  0.10932788657E+02  0.97016690136E+01  0.53181551871E+02  0.55153756653E+02  0.10566000000E+00 0.  1.
        994    1    1    2    0    0  0.34227761014E+01 -0.14514990215E+01  0.21556194604E+01  0.17125393117E+03  0.17120000000E+03 0.  0.
        998    1    1    2    0    0 -0.14355564758E+02 -0.82501699920E+01  0.14446628249E+04  0.14447923122E+04  0.10000000000E+02 0.  1.
</event>
<event>
 5    1  0.1796476E-008  0.3821929E+03  0.7957747E-01  0.3441665E+00
         13   -1    0    0    0    0  0.00000000000E+00  0.00000000000E+00  0.14999999963E+04  0.15000000000E+04  0.10566000000E+00 0. -1.
        994   -1    0    0    0    0 -0.00000000000E+00 -0.00000000000E+00  0.11368683772E-12  0.17120000000E+03  0.17120000000E+03 0.  0.
         13    1    1    2    0    0  0.43721551596E+01 -0.12012558618E+02  0.25702298952E+02  0.28706038403E+02  0.10566000000E+00 0. -1.
        994    1    1    2    0    0 -0.19399127962E+01  0.10290945669E+02  0.33943189127E+01  0.17155357246E+03  0.17120000000E+03 0.  0.
        998    1    1    2    0    0 -0.24322423634E+01  0.17216129494E+01  0.14709033784E+04  0.14709403891E+04  0.10000000000E+02 0. -1.
</event>
<event>
 5    1  0.1796476E-008  0.3833478E+03  0.7957747E-01  0.3436710E+00
         13   -1    0    0    0    0  0.00000000000E+00  0.00000000000E+00  0.14999999963E+04  0.15000000000E+04  0.10566000000E+00 0. -1.
        994   -1    0    0    0    0 -0.00000000000E+00 -0.00000000000E+00  0.11368683772E-12  0.17120000000E+03  0.17120000000E+03 0.  0.
         13    1    1    2    0    0  0.33684489701E+01 -0.17075509771E+02  0.63137112333E+02  0.65492179688E+02  0.10566000000E+00 0. -1.
        994    1    1    2    0    0 -0.11457010891E+01  0.48714686986E+01  0.25354543410E+01  0.17129189230E+03  0.17120000000E+03 0.  0.
        998    1    1    2    0    0 -0.22227478810E+01  0.12204041072E+02  0.14343274296E+04  0.14344159280E+04  0.10000000000E+02 0. -1.
</event>
<event>
 5    1  0.1796476E-008  0.3844498E+03  0.7957747E-01  0.3432009E+00
         13   -1    0    0    0    0  0.00000000000E+00  0.00000000000E+00  0.14999999963E+04  0.15000000000E+04  0.10566000000E+00 0. -1.
        994   -1    0    0    0    0 -0.00000000000E+00 -0.00000000000E+00  0.11368683772E-12  0.17120000000E+03  0.17120000000E+03 0.  0.
         13    1    1    2    0    0 -0.12402369217E+02  0.35570558882E+01  0.44130627570E+02  0.45978199862E+02  0.10566000000E+00 0. -1.
        994    1    1    2    0    0  0.64507220089E+01  0.34452647762E+01  0.20797522087E+01  0.17136874579E+03  0.17120000000E+03 0.  0.
        998    1    1    2    0    0  0.59516472079E+01 -0.70023206644E+01  0.14537896165E+04  0.14538530543E+04  0.10000000000E+02 0. -1.
</event>
<event>
 5    1  0.1796476E-008  0.3817506E+03  0.7957747E-01  0.3443571E+00
         13   -1    0    0    0    0  0.00000000000E+00  0.00000000000E+00  0.14999999963E+04  0.15000000000E+04  0.10566000000E+00 0. -1.
        994   -1    0    0    0    0 -0.00000000000E+00 -0.00000000000E+00  0.11368683772E-12  0.17120000000E+03  0.17120000000E+03 0.  0.
         13    1    1    2    0    0 -0.54070686600E+01  0.13584151177E+02  0.32440442927E+02  0.35583128812E+02  0.10566000000E+00 0. -1.
        994    1    1    2    0    0 -0.17949844200E+01 -0.38022074492E+01  0.33108387891E+01  0.17128362562E+03  0.17120000000E+03 0.  0.
        998    1    1    2    0    0  0.72020530800E+01 -0.97819437274E+01  0.14642487146E+04  0.14643332456E+04  0.10000000000E+02 0. -1.
</event>
<event>
 5    1  0.1796476E-008  0.3824968E+03  0.7957747E-01  0.3440358E+00
         13   -1    0    0    0    0  0.00000000000E+00  0.00000000000E+00  0.14999999963E+04  0.15000000000E+04  0.10566000000E+00 0. -1.
        994   -1    0    0    0    0 -0.00000000000E+00 -0.00000000000E+00  0.11368683772E-12  0.17120000000E+03  0.17120000000E+03 0.  0.
         13    1    1    2    0    0 -0.17302377833E+02 -0.26041828147E+01  0.55031374567E+02  0.57746146171E+02  0.10566000000E+00 0. -1.
        994    1    1    2    0    0 -0.95689834385E+00  0.75455211091E+01  0.30698816738E+01  0.17139636728E+03  0.17120000000E+03 0.  0.
        998    1    1    2    0    0  0.18259276176E+02 -0.49413382944E+01  0.14418987400E+04  0.14420574865E+04  0.10000000000E+02 0. -1.
</event>
<event>
 5    1  0.1796476E-008  0.3844815E+03  0.7957747E-01  0.3431874E+00
         13   -1    0    0    0    0  0.00000000000E+00  0.00000000000E+00  0.14999999963E+04  0.15000000000E+04  0.10566000000E+00 0. -1.
        994   -1    0    0    0    0 -0.00000000000E+00 -0.00000000000E+00  0.11368683772E-12  0.17120000000E+03  0.17120000000E+03 0.  0.
         13    1    1    2    0    0  0.52284781596E+01  0.10213050151E+02  0.34133613439E+02  0.36010527734E+02  0.10566000000E+00 0. -1.
        994    1    1    2    0    0 -0.40494846700E+01 -0.92606368223E+01  0.22243793530E+01  0.17151252311E+03  0.17120000000E+03 0.  0.
        998    1    1    2    0    0 -0.11789934896E+01 -0.95241332827E+00  0.14636420035E+04  0.14636769492E+04  0.10000000000E+02 0. -1.
</event>
<event>
 5    1  0.1796476E-008  0.3787854E+03  0.7957747E-01  0.3456464E+00
         13   -1    0    0    0    0  0.00000000000E+00  0.00000000000E+00  0.14999999963E+04  0.15000000000E+04  0.10566000000E+00 0.  1.
        994   -1    0    0    0    0 -0.00000000000E+00 -0.00000000000E+00  0.11368683772E-12  0.17120000000E+03  0.17120000000E+03 0.  0.
         13    1    1    2    0    0  0.13336671603E+00  0.10017633144E+03  0.26185312456E+03  0.28036116917E+03  0.10566000000E+00 0.  1.
        994    1    1    2    0    0  0.17965370527E+02 -0.97730379679E+02  0.52207902731E+02  0.20471708956E+03  0.17120000000E+03 0.  0.
        998    1    1    2    0    0 -0.18098737243E+02 -0.24459517641E+01  0.11859389690E+04  0.11861217413E+04  0.10000000000E+02 0.  1.
</event>
<event>
 5    1  0.1796476E-008  0.3706081E+03  0.7957747E-01  0.3493101E+00
         13   -1    0    0    0    0  0.00000000000E+00  0.00000000000E+00  0.14999999963E+04  0.15000000000E+04  0.10566000000E+00 0.  1.
        994   -1    0    0    0    0 -0.00000000000E+00 -0.00000000000E+00  0.11368683772E-12  0.17120000000E+03  0.17120000000E+03 0.  0.
         13    1    1    2    0    0 -0.21076615883E+02 -0.53320781194E+02  0.18954876372E+03  0.19803048866E+03  0.10566000000E+00 0.  1.
        994    1    1    2    0    0 -0.10264493375E+02  0.30870796100E+02  0.12612102366E+02  0.17471940648E+03  0.17120000000E+03 0.  0.
        998    1    1    2    0    0  0.31341109258E+02  0.22449985094E+02  0.12978391302E+04  0.12984501049E+04  0.10000000000E+02 0.  1.
</event>
<event>
 5    1  0.1796476E-008  0.3805579E+03  0.7957747E-01  0.3448733E+00
         13   -1    0    0    0    0  0.00000000000E+00  0.00000000000E+00  0.14999999963E+04  0.15000000000E+04  0.10566000000E+00 0. -1.
        994   -1    0    0    0    0 -0.00000000000E+00 -0.00000000000E+00  0.11368683772E-12  0.17120000000E+03  0.17120000000E+03 0.  0.
         13    1    1    2    0    0 -0.14665969805E+02 -0.16401836538E+02  0.60704337620E+02  0.64568867747E+02  0.10566000000E+00 0. -1.
        994    1    1    2    0    0  0.11697855940E+02  0.12414437999E+02  0.48232518535E+01  0.17211525750E+03  0.17120000000E+03 0.  0.
        998    1    1    2    0    0  0.29681138647E+01  0.39873985394E+01  0.14344724068E+04  0.14345158748E+04  0.10000000000E+02 0. -1.
</event>
<event>
 5    1  0.1796476E-008  0.4089382E+03  0.7957747E-01  0.3334087E+00
         13   -1    0    0    0    0  0.00000000000E+00  0.00000000000E+00  0.14999999963E+04  0.15000000000E+04  0.10566000000E+00 0.  1.
        994   -1    0    0    0    0 -0.00000000000E+00 -0.00000000000E+00  0.11368683772E-12  0.17120000000E+03  0.17120000000E+03 0.  0.
         13    1    1    2    0    0  0.21649963113E+02 -0.47393041743E+02  0.28615244712E+02  0.59444635607E+02  0.10566000000E+00 0.  1.
        994    1    1    2    0    0 -0.33966457847E+02  0.33253519277E+02  0.42469031182E+02  0.18268162308E+03  0.17120000000E+03 0.  0.
        998    1    1    2    0    0  0.12316494734E+02  0.14139522466E+02  0.14289157204E+04  0.14290737413E+04  0.10000000000E+02 0.  1.
</event>
<event>
 5    1  0.1796476E-008  0.3777033E+03  0.7957747E-01  0.3461220E+00
         13   -1    0    0    0    0  0.00000000000E+00  0.00000000000E+00  0.14999999963E+04  0.15000000000E+04  0.10566000000E+00 0. -1.
        994   -1    0    0    0    0 -0.00000000000E+00 -0.00000000000E+00  0.11368683772E-12  0.17120000000E+03  0.17120000000E+03 0.  0.
         13    1    1    2    0    0 -0.47179585229E+02  0.39471241824E+02  0.10901571055E+03  0.12517319404E+03  0.10566000000E+00 0. -1.
        994    1    1    2    0    0  0.55410999345E+02 -0.42366689988E+02  0.32768183700E+02  0.18774586316E+03  0.17120000000E+03 0.  0.
        998    1    1    2    0    0 -0.82314141157E+01  0.28954481636E+01  0.13582161020E+04  0.13582809428E+04  0.10000000000E+02 0. -1.
</event>
<event>
 5    1  0.1796476E-008  0.3848943E+03  0.7957747E-01  0.3430120E+00
         13   -1    0    0    0    0  0.00000000000E+00  0.00000000000E+00  0.14999999963E+04  0.15000000000E+04  0.10566000000E+00 0. -1.
        994   -1    0    0    0    0 -0.00000000000E+00 -0.00000000000E+00  0.11368683772E-12  0.17120000000E+03  0.17120000000E+03 0.  0.
         13    1    1    2    0    0 -0.14996792076E+01 -0.13387464618E+02  0.55559798217E+02  0.57169708662E+02  0.10566000000E+00 0. -1.
        994    1    1    2    0    0  0.64832711932E-01  0.35745918116E+01  0.17246586331E+01  0.17124601122E+03  0.17120000000E+03 0.  0.
        998    1    1    2    0    0  0.14348464957E+01  0.98128728066E+01  0.14427155394E+04  0.14427842801E+04  0.10000000000E+02 0. -1.
</event>
<event>
 5    1  0.1796476E-008  0.3779788E+03  0.7957747E-01  0.3460007E+00
         13   -1    0    0    0    0  0.00000000000E+00  0.00000000000E+00  0.14999999963E+04  0.15000000000E+04  0.10566000000E+00 0.  1.
        994   -1    0    0    0    0 -0.00000000000E+00 -0.00000000000E+00  0.11368683772E-12  0.17120000000E+03  0.17120000000E+03 0.  0.
         13    1    1    2    0    0  0.53102557958E+01 -0.38670838437E+02  0.43034082796E+02  0.58099707470E+02  0.10566000000E+00 0.  1.
        994    1    1    2    0    0  0.22978220456E+00  0.39084151531E+02  0.20736088798E+02  0.17682491080E+03  0.17120000000E+03 0.  0.
        998    1    1    2    0    0 -0.55400380004E+01 -0.41331309472E+00  0.14362298247E+04  0.14362753817E+04  0.10000000000E+02 0.  1.
</event>
<event>
 5    1  0.1796476E-008  0.3856896E+03  0.7957747E-01  0.3426753E+00
         13   -1    0    0    0    0  0.00000000000E+00  0.00000000000E+00  0.14999999963E+04  0.15000000000E+04  0.10566000000E+00 0. -1.
        994   -1    0    0    0    0 -0.00000000000E+00 -0.00000000000E+00  0.11368683772E-12  0.17120000000E+03  0.17120000000E+03 0.  0.
         13    1    1    2    0    0 -0.65525226481E+01  0.10478540651E+02  0.60915033141E+02  0.62156156524E+02  0.10566000000E+00 0. -1.
        994    1    1    2    0    0 -0.45599861880E+01 -0.92972873976E+01  0.16400767825E+01  0.17152073600E+03  0.17120000000E+03 0.  0.
        998    1    1    2    0    0  0.11112508836E+02 -0.11812532532E+01  0.14374448864E+04  0.14375231075E+04  0.10000000000E+02 0. -1.
</event>
<event>
 5    1  0.1796476E-008  0.3802848E+03  0.7957747E-01  0.3449919E+00
         13   -1    0    0    0    0  0.00000000000E+00  0.00000000000E+00  0.14999999963E+04  0.15000000000E+04  0.10566000000E+00 0.  1.
        994   -1    0    0    0    0 -0.00000000000E+00 -0.00000000000E+00  0.11368683772E-12  0.17120000000E+03  0.17120000000E+03 0.  0.
         13    1    1    2    0    0  0.20752184718E+02 -0.10626973704E+01  0.49787395908E+02  0.53949777123E+02  0.10566000000E+00 0.  1.
        994    1    1    2    0    0 -0.29154208065E+02 -0.15823968670E+02  0.76731466664E+01  0.17455280866E+03  0.17120000000E+03 0.  0.
        998    1    1    2    0    0  0.84020233472E+01  0.16886666040E+02  0.14425394537E+04  0.14426974142E+04  0.10000000000E+02 0.  1.
</event>
<event>
 5    1  0.1796476E-008  0.3778734E+03  0.7957747E-01  0.3460471E+00
         13   -1    0    0    0    0  0.00000000000E+00  0.00000000000E+00  0.14999999963E+04  0.15000000000E+04  0.10566000000E+00 0.  1.
        994   -1    0    0    0    0 -0.00000000000E+00 -0.00000000000E+00  0.11368683772E-12  0.17120000000E+03  0.17120000000E+03 0.  0.
         13    1    1    2    0    0  0.35756777469E+01 -0.15604169194E+02  0.21056358732E+01  0.16146839754E+02  0.10566000000E+00 0.  1.
        994    1    1    2    0    0 -0.24306117748E+02 -0.44583448470E+02  0.24493449868E+02  0.18024383574E+03  0.17120000000E+03 0.  0.
        998    1    1    2    0    0  0.20730440001E+02  0.60187617663E+02  0.14734009105E+04  0.14748093245E+04  0.10000000000E+02 0.  1.
</event>
<event>
 5    1  0.1796476E-008  0.3799036E+03  0.7957747E-01  0.3451578E+00
         13   -1    0    0    0    0  0.00000000000E+00  0.00000000000E+00  0.14999999963E+04  0.15000000000E+04  0.10566000000E+00 0. -1.
        994   -1    0    0    0    0 -0.00000000000E+00 -0.00000000000E+00  0.11368683772E-12  0.17120000000E+03  0.17120000000E+03 0.  0.
         13    1    1    2    0    0  0.15873724131E+02 -0.24041384804E+02  0.10045991771E+03  0.10450918395E+03  0.10566000000E+00 0. -1.
        994    1    1    2    0    0 -0.98598676578E+01  0.82550938921E+01  0.47349588595E+01  0.17174755719E+03  0.17120000000E+03 0.  0.
        998    1    1    2    0    0 -0.60138564737E+01  0.15786290912E+02  0.13948051197E+04  0.13949432589E+04  0.10000000000E+02 0. -1.
</event>
<event>
 5    1  0.1796476E-008  0.3849234E+03  0.7957747E-01  0.3429997E+00
         13   -1    0    0    0    0  0.00000000000E+00  0.00000000000E+00  0.14999999963E+04  0.15000000000E+04  0.10566000000E+00 0.  1.
        994   -1    0    0    0    0 -0.00000000000E+00 -0.00000000000E+00  0.11368683772E-12  0.17120000000E+03  0.17120000000E+03 0.  0.
         13    1    1    2    0    0 -0.15124669182E+02  0.12548014988E+01  0.72587616970E+02  0.74157288556E+02  0.10566000000E+00 0.  1.
        994    1    1    2    0    0  0.22716717673E+01 -0.16826542629E+01  0.16944577680E+01  0.17123172313E+03  0.17120000000E+03 0.  0.
        998    1    1    2    0    0  0.12852997415E+02  0.42785276404E+00  0.14257179215E+04  0.14258109883E+04  0.10000000000E+02 0.  1.
</event>
<event>
 5    1  0.1796476E-008  0.3795409E+03  0.7957747E-01  0.3453160E+00
         13   -1    0    0    0    0  0.00000000000E+00  0.00000000000E+00  0.14999999963E+04  0.15000000000E+04  0.10566000000E+00 0.  1.
        994   -1    0    0    0    0 -0.00000000000E+00 -0.00000000000E+00  0.11368683772E-12  0.17120000000E+03  0.17120000000E+03 0.  0.
         13    1    1    2    0    0  0.14553405305E+02 -0.15433283863E+02  0.48395638691E+02  0.52840674344E+02  0.10566000000E+00 0.  1.
        994    1    1    2    0    0 -0.14689531810E+02  0.16786060070E+02  0.60326455648E+01  0.17275238629E+03  0.17120000000E+03 0.  0.
        998    1    1    2    0    0  0.13612650520E+00 -0.13527762071E+01  0.14455717120E+04  0.14456069394E+04  0.10000000000E+02 0.  1.
</event>
<event>
 5    1  0.1796476E-008  0.3819167E+03  0.7957747E-01  0.3442855E+00
         13   -1    0    0    0    0  0.00000000000E+00  0.00000000000E+00  0.14999999963E+04  0.15000000000E+04  0.10566000000E+00 0.  1.
        994   -1    0    0    0    0 -0.00000000000E+00 -0.00000000000E+00  0.11368683772E-12  0.17120000000E+03  0.17120000000E+03 0.  0.
         13    1    1    2    0    0 -0.36651534301E+01 -0.12756795260E+02  0.28430118815E+02  0.31375977990E+02  0.10566000000E+00 0.  1.
        994    1    1    2    0    0  0.29051427494E+00 -0.11529756977E+02  0.36107176243E+01  0.17162603817E+03  0.17120000000E+03 0.  0.
        998    1    1    2    0    0  0.33746391552E+01  0.24286552237E+02  0.14679591598E+04  0.14681979838E+04  0.10000000000E+02 0.  1.
</event>
<event>
 5    1  0.1796476E-008  0.3790417E+03  0.7957747E-01  0.3455342E+00
         13   -1    0    0    0    0  0.00000000000E+00  0.00000000000E+00  0.14999999963E+04  0.15000000000E+04  0.10566000000E+00 0.  1.
        994   -1    0    0    0    0 -0.00000000000E+00 -0.00000000000E+00  0.11368683772E-12  0.17120000000E+03  0.17120000000E+03 0.  0.
         13    1    1    2    0    0  0.40175638433E+02 -0.23336613118E+02  0.19985310925E+03  0.20518273776E+03  0.10566000000E+00 0.  1.
        994    1    1    2    0    0 -0.39628998390E+02  0.28542543847E+02  0.12658246101E+02  0.17847914589E+03  0.17120000000E+03 0.  0.
        998    1    1    2    0    0 -0.54664004284E+00 -0.52059307293E+01  0.12874886409E+04  0.12875381163E+04  0.10000000000E+02 0.  0.
</event>
<event>
 5    1  0.1796476E-008  0.3901937E+03  0.7957747E-01  0.3407939E+00
         13   -1    0    0    0    0  0.00000000000E+00  0.00000000000E+00  0.14999999963E+04  0.15000000000E+04  0.10566000000E+00 0.  1.
        994   -1    0    0    0    0 -0.00000000000E+00 -0.00000000000E+00  0.11368683772E-12  0.17120000000E+03  0.17120000000E+03 0.  0.
         13    1    1    2    0    0 -0.18452393352E+01  0.59992856730E+02  0.65688571113E+02  0.88980600727E+02  0.10566000000E+00 0.  1.
        994    1    1    2    0    0 -0.10750714132E+02 -0.86824154231E+02  0.51476724739E+02  0.19903091419E+03  0.17120000000E+03 0.  0.
        998    1    1    2    0    0  0.12595953467E+02  0.26831297501E+02  0.13828347004E+04  0.13831884851E+04  0.10000000000E+02 0.  1.
</event>
<event>
 5    1  0.1796476E-008  0.3797795E+03  0.7957747E-01  0.3452119E+00
         13   -1    0    0    0    0  0.00000000000E+00  0.00000000000E+00  0.14999999963E+04  0.15000000000E+04  0.10566000000E+00 0. -1.
        994   -1    0    0    0    0 -0.00000000000E+00 -0.00000000000E+00  0.11368683772E-12  0.17120000000E+03  0.17120000000E+03 0.  0.
         13    1    1    2    0    0 -0.22366862339E+02  0.57759106126E+02  0.12855573196E+03  0.14269890768E+03  0.10566000000E+00 0. -1.
        994    1    1    2    0    0  0.14587802157E+02  0.20355730008E+01  0.16992151023E+02  0.17267055547E+03  0.17120000000E+03 0.  0.
        998    1    1    2    0    0  0.77790601814E+01 -0.59794679127E+02  0.13544521133E+04  0.13558305368E+04  0.10000000000E+02 0. -1.
</event>
<event>
 5    1  0.1796476E-008  0.3937854E+03  0.7957747E-01  0.3393246E+00
         13   -1    0    0    0    0  0.00000000000E+00  0.00000000000E+00  0.14999999963E+04  0.15000000000E+04  0.10566000000E+00 0.  1.
        994   -1    0    0    0    0 -0.00000000000E+00 -0.00000000000E+00  0.11368683772E-12  0.17120000000E+03  0.17120000000E+03 0.  0.
         13    1    1    2    0    0  0.79861231440E+01  0.19424953946E+02 -0.13685576482E+01  0.21047354056E+02  0.10566000000E+00 0.  1.
        994    1    1    2    0    0 -0.27161030605E+01 -0.11449731219E+02  0.24645371969E+02  0.17336466745E+03  0.17120000000E+03 0.  0.
        998    1    1    2    0    0 -0.52700200835E+01 -0.79752227274E+01  0.14767231820E+04  0.14767879785E+04  0.10000000000E+02 0.  1.
</event>
<event>
 5    1  0.1796476E-008  0.3728041E+03  0.7957747E-01  0.3483102E+00
         13   -1    0    0    0    0  0.00000000000E+00  0.00000000000E+00  0.14999999963E+04  0.15000000000E+04  0.10566000000E+00 0. -1.
        994   -1    0    0    0    0 -0.00000000000E+00 -0.00000000000E+00  0.11368683772E-12  0.17120000000E+03  0.17120000000E+03 0.  0.
         13    1    1    2    0    0  0.19422978987E+02  0.93834973934E+01  0.26719876558E+02  0.34340429575E+02  0.10566000000E+00 0. -1.
        994    1    1    2    0    0 -0.12429710577E+02 -0.22626766354E+01  0.83575407395E+01  0.17186886250E+03  0.17120000000E+03 0.  0.
        998    1    1    2    0    0 -0.69932684104E+01 -0.71208207579E+01  0.14649225790E+04  0.14649907079E+04  0.10000000000E+02 0. -1.
</event>
<event>
 5    1  0.1796476E-008  0.3833597E+03  0.7957747E-01  0.3436659E+00
         13   -1    0    0    0    0  0.00000000000E+00  0.00000000000E+00  0.14999999963E+04  0.15000000000E+04  0.10566000000E+00 0.  1.
        994   -1    0    0    0    0 -0.00000000000E+00 -0.00000000000E+00  0.11368683772E-12  0.17120000000E+03  0.17120000000E+03 0.  0.
         13    1    1    2    0    0 -0.18240336479E+02 -0.55106878857E+01  0.81573254203E+02  0.83769233739E+02  0.10566000000E+00 0.  1.
        994    1    1    2    0    0 -0.17150341472E+01 -0.11706565947E+02  0.29096535825E+01  0.17163301289E+03  0.17120000000E+03 0.  0.
        998    1    1    2    0    0  0.19955370627E+02  0.17217253832E+02  0.14155170885E+04  0.14157977534E+04  0.10000000000E+02 0.  1.
</event>
<event>
 5    1  0.1796476E-008  0.3832743E+03  0.7957747E-01  0.3437024E+00
         13   -1    0    0    0    0  0.00000000000E+00  0.00000000000E+00  0.14999999963E+04  0.15000000000E+04  0.10566000000E+00 0.  1.
        994   -1    0    0    0    0 -0.00000000000E+00 -0.00000000000E+00  0.11368683772E-12  0.17120000000E+03  0.17120000000E+03 0.  0.
         13    1    1    2    0    0 -0.16156770508E+02 -0.16413555764E+02  0.10805632329E+03  0.11048360155E+03  0.10566000000E+00 0.  1.
        994    1    1    2    0    0  0.10365456132E+02  0.55261131679E+01  0.29458018876E+01  0.17162779016E+03  0.17120000000E+03 0.  0.
        998    1    1    2    0    0  0.57913143752E+01  0.10887442596E+02  0.13889978711E+04  0.13890886083E+04  0.10000000000E+02 0.  1.
</event>
<event>
 5    1  0.1796476E-008  0.3839695E+03  0.7957747E-01  0.3434054E+00
         13   -1    0    0    0    0  0.00000000000E+00  0.00000000000E+00  0.14999999963E+04  0.15000000000E+04  0.10566000000E+00 0. -1.
        994   -1    0    0    0    0 -0.00000000000E+00 -0.00000000000E+00  0.11368683772E-12  0.17120000000E+03  0.17120000000E+03 0.  0.
         13    1    1    2    0    0  0.19910932399E+02 -0.11133071446E+02  0.13610583699E+03  0.13800434970E+03  0.10566000000E+00 0. -1.
        994    1    1    2    0    0 -0.57597715747E+01 -0.10164415846E+02  0.25931195996E+01  0.17161775720E+03  0.17120000000E+03 0.  0.
        998    1    1    2    0    0 -0.14151160824E+02  0.21297487292E+02  0.13613010397E+04  0.13615778931E+04  0.10000000000E+02 0. -1.
</event>
<event>
 5    1  0.1796476E-008  0.3843967E+03  0.7957747E-01  0.3432235E+00
         13   -1    0    0    0    0  0.00000000000E+00  0.00000000000E+00  0.14999999963E+04  0.15000000000E+04  0.10566000000E+00 0.  1.
        994   -1    0    0    0    0 -0.00000000000E+00 -0.00000000000E+00  0.11368683772E-12  0.17120000000E+03  0.17120000000E+03 0.  0.
         13    1    1    2    0    0  0.86603631162E+01 -0.31302351832E+02  0.20182154551E+02  0.38238326923E+02  0.10566000000E+00 0.  1.
        994    1    1    2    0    0 -0.14490448254E+02  0.27626269207E+02  0.22355942815E+02  0.17544917218E+03  0.17120000000E+03 0.  0.
        998    1    1    2    0    0  0.58300851373E+01  0.36760826254E+01  0.14574618989E+04  0.14575125009E+04  0.10000000000E+02 0.  1.
</event>
<event>
 5    1  0.1796476E-008  0.3807606E+03  0.7957747E-01  0.3447853E+00
         13   -1    0    0    0    0  0.00000000000E+00  0.00000000000E+00  0.14999999963E+04  0.15000000000E+04  0.10566000000E+00 0. -1.
        994   -1    0    0    0    0 -0.00000000000E+00 -0.00000000000E+00  0.11368683772E-12  0.17120000000E+03  0.17120000000E+03 0.  0.
         13    1    1    2    0    0 -0.53398130625E+01  0.13372325649E+02  0.27880007845E+02  0.31378953110E+02  0.10566000000E+00 0. -1.
        994    1    1    2    0    0  0.86576997192E+01  0.15015960041E+02  0.47521473826E+01  0.17214080784E+03  0.17120000000E+03 0.  0.
        998    1    1    2    0    0 -0.33178866567E+01 -0.28388285690E+02  0.14673678411E+04  0.14676802390E+04  0.10000000000E+02 0. -1.
</event>
<event>
 5    1  0.1796476E-008  0.3844192E+03  0.7957747E-01  0.3432139E+00
         13   -1    0    0    0    0  0.00000000000E+00  0.00000000000E+00  0.14999999963E+04  0.15000000000E+04  0.10566000000E+00 0. -1.
        994   -1    0    0    0    0 -0.00000000000E+00 -0.00000000000E+00  0.11368683772E-12  0.17120000000E+03  0.17120000000E+03 0.  0.
         13    1    1    2    0    0 -0.13939717288E+02  0.10801302593E+01  0.48981756533E+02  0.50938257102E+02  0.10566000000E+00 0. -1.
        994    1    1    2    0    0  0.15825801264E+02 -0.67603207631E-01  0.27444341644E+01  0.17195183184E+03  0.17120000000E+03 0.  0.
        998    1    1    2    0    0 -0.18860839761E+01 -0.10125270516E+01  0.14482738056E+04  0.14483099111E+04  0.10000000000E+02 0. -1.
</event>
<event>
 5    1  0.1796476E-008  0.3802374E+03  0.7957747E-01  0.3450126E+00
         13   -1    0    0    0    0  0.00000000000E+00  0.00000000000E+00  0.14999999963E+04  0.15000000000E+04  0.10566000000E+00 0.  1.
        994   -1    0    0    0    0 -0.00000000000E+00 -0.00000000000E+00  0.11368683772E-12  0.17120000000E+03  0.17120000000E+03 0.  0.
         13    1    1    2    0    0  0.12168286948E+02 -0.57708629265E+01  0.20843598146E+02  0.24816059596E+02  0.10566000000E+00 0.  1.
        994    1    1    2    0    0 -0.13653937254E+02 -0.30089438550E+01  0.46666068168E+01  0.17183335231E+03  0.17120000000E+03 0.  0.
        998    1    1    2    0    0  0.14856503054E+01  0.87798067815E+01  0.14744897913E+04  0.14745505881E+04  0.10000000000E+02 0.  1.
</event>
<event>
 5    1  0.1796476E-008  0.3850615E+03  0.7957747E-01  0.3429411E+00
         13   -1    0    0    0    0  0.00000000000E+00  0.00000000000E+00  0.14999999963E+04  0.15000000000E+04  0.10566000000E+00 0. -1.
        994   -1    0    0    0    0 -0.00000000000E+00 -0.00000000000E+00  0.11368683772E-12  0.17120000000E+03  0.17120000000E+03 0.  0.
         13    1    1    2    0    0 -0.93989526392E+01  0.77514042103E+01  0.47610825231E+02  0.49144953161E+02  0.10566000000E+00 0. -1.
        994    1    1    2    0    0  0.17587128602E+00 -0.49932535161E+01  0.16816767963E+01  0.17128114767E+03  0.17120000000E+03 0.  0.
        998    1    1    2    0    0  0.92230813531E+01 -0.27581506942E+01  0.14507074943E+04  0.14507738992E+04  0.10000000000E+02 0. -1.
</event>
<event>
 5    1  0.1796476E-008  0.3745513E+03  0.7957747E-01  0.3475232E+00
         13   -1    0    0    0    0  0.00000000000E+00  0.00000000000E+00  0.14999999963E+04  0.15000000000E+04  0.10566000000E+00 0.  1.
        994   -1    0    0    0    0 -0.00000000000E+00 -0.00000000000E+00  0.11368683772E-12  0.17120000000E+03  0.17120000000E+03 0.  0.
         13    1    1    2    0    0  0.52694145400E+01  0.21827562123E+02  0.32976022639E+02  0.39895343474E+02  0.10566000000E+00 0.  1.
        994    1    1    2    0    0 -0.43506634511E+01 -0.22545645364E+02  0.87062995268E+01  0.17295223054E+03  0.17120000000E+03 0.  0.
        998    1    1    2    0    0 -0.91875108887E+00  0.71808324120E+00  0.14583176741E+04  0.14583524260E+04  0.10000000000E+02 0.  1.
</event>
<event>
 5    1  0.1992292E-008  0.3859884E+03  0.7957747E-01  0.3425491E+00
         13   -1    0    0    0    0  0.00000000000E+00  0.00000000000E+00  0.14999999963E+04  0.15000000000E+04  0.10566000000E+00 0.  1.
        994   -1    0    0    0    0 -0.00000000000E+00 -0.00000000000E+00  0.11368683772E-12  0.17120000000E+03  0.17120000000E+03 0.  0.
         13    1    1    2    0    0  0.11655482813E+02 -0.40624725694E+01  0.73791653994E+02  0.74816932082E+02  0.10566000000E+00 0.  1.
        994    1    1    2    0    0  0.26594958229E+01 -0.26143123065E+00  0.11636245204E+01  0.17122480920E+03  0.17120000000E+03 0.  0.
        998    1    1    2    0    0 -0.14314978636E+02  0.43239038000E+01  0.14250447178E+04  0.14251582587E+04  0.10000000000E+02 0.  1.
</event>
<event>
 5    1  0.1796476E-008  0.3849657E+03  0.7957747E-01  0.3429818E+00
         13   -1    0    0    0    0  0.00000000000E+00  0.00000000000E+00  0.14999999963E+04  0.15000000000E+04  0.10566000000E+00 0. -1.
        994   -1    0    0    0    0 -0.00000000000E+00 -0.00000000000E+00  0.11368683772E-12  0.17120000000E+03  0.17120000000E+03 0.  0.
         13    1    1    2    0    0 -0.14495977021E+02  0.80978098129E+01  0.82744177477E+02  0.84393826456E+02  0.10566000000E+00 0. -1.
        994    1    1    2    0    0  0.21376487513E+02  0.11566849788E+02  0.35925364853E+01  0.17295401860E+03  0.17120000000E+03 0.  0.
        998    1    1    2    0    0 -0.68805104918E+01 -0.19664659601E+02  0.14136632823E+04  0.14138521549E+04  0.10000000000E+02 0. -1.
</event>
<event>
 5    1  0.1796476E-008  0.3831247E+03  0.7957747E-01  0.3437665E+00
         13   -1    0    0    0    0  0.00000000000E+00  0.00000000000E+00  0.14999999963E+04  0.15000000000E+04  0.10566000000E+00 0.  1.
        994   -1    0    0    0    0 -0.00000000000E+00 -0.00000000000E+00  0.11368683772E-12  0.17120000000E+03  0.17120000000E+03 0.  0.
         13    1    1    2    0    0 -0.37125843813E+02  0.65878334885E+00  0.17393264991E+03  0.17785201754E+03  0.10566000000E+00 0.  1.
        994    1    1    2    0    0  0.76728634807E+02 -0.21899277996E+02  0.23923751491E+02  0.19039077620E+03  0.17120000000E+03 0.  0.
        998    1    1    2    0    0 -0.39602790994E+02  0.21240494648E+02  0.13021435949E+04  0.13029572063E+04  0.10000000000E+02 0.  1.
</event>
<event>
 5    1  0.1796476E-008  0.3813529E+03  0.7957747E-01  0.3445289E+00
         13   -1    0    0    0    0  0.00000000000E+00  0.00000000000E+00  0.14999999963E+04  0.15000000000E+04  0.10566000000E+00 0. -1.
        994   -1    0    0    0    0 -0.00000000000E+00 -0.00000000000E+00  0.11368683772E-12  0.17120000000E+03  0.17120000000E+03 0.  0.
         13    1    1    2    0    0 -0.15887171367E+02 -0.28652833359E+02  0.13856930672E+03  0.14238978546E+03  0.10566000000E+00 0. -1.
        994    1    1    2    0    0  0.98712459344E+01  0.35858359147E+02  0.80690248932E+01  0.17537905399E+03  0.17120000000E+03 0.  0.
        998    1    1    2    0    0  0.60159254324E+01 -0.72055257879E+01  0.13533616647E+04  0.13534311605E+04  0.10000000000E+02 0. -1.
</event>
<event>
 5    1  0.1796476E-008  0.3809360E+03  0.7957747E-01  0.3447093E+00
         13   -1    0    0    0    0  0.00000000000E+00  0.00000000000E+00  0.14999999963E+04  0.15000000000E+04  0.10566000000E+00 0.  1.
        994   -1    0    0    0    0 -0.00000000000E+00 -0.00000000000E+00  0.11368683772E-12  0.17120000000E+03  0.17120000000E+03 0.  0.
         13    1    1    2    0    0 -0.17700316139E+01 -0.98626113477E+01  0.11996353112E+02  0.15630987382E+02  0.10566000000E+00 0.  1.
        994    1    1    2    0    0 -0.31080395219E+00  0.11975855844E+02  0.41398544179E+01  0.17166856473E+03  0.17120000000E+03 0.  0.
        998    1    1    2    0    0  0.20808355661E+01 -0.21132444963E+01  0.14838637887E+04  0.14839004479E+04  0.10000000000E+02 0.  1.
</event>
<event>
 5    1  0.1796476E-008  0.3798886E+03  0.7957747E-01  0.3451644E+00
         13   -1    0    0    0    0  0.00000000000E+00  0.00000000000E+00  0.14999999963E+04  0.15000000000E+04  0.10566000000E+00 0.  1.
        994   -1    0    0    0    0 -0.00000000000E+00 -0.00000000000E+00  0.11368683772E-12  0.17120000000E+03  0.17120000000E+03 0.  0.
         13    1    1    2    0    0  0.80783927167E+01  0.22277189303E+02  0.65958624551E+02  0.70086267620E+02  0.10566000000E+00 0.  1.
        994    1    1    2    0    0  0.77700753392E+01 -0.17154824963E+02  0.53763077787E+01  0.17231658880E+03  0.17120000000E+03 0.  0.
        998    1    1    2    0    0 -0.15848468056E+02 -0.51223643399E+01  0.14286650639E+04  0.14287971436E+04  0.10000000000E+02 0.  1.
</event>
<event>
 5    1  0.1796476E-008  0.3844465E+03  0.7957747E-01  0.3432023E+00
         13   -1    0    0    0    0  0.00000000000E+00  0.00000000000E+00  0.14999999963E+04  0.15000000000E+04  0.10566000000E+00 0. -1.
        994   -1    0    0    0    0 -0.00000000000E+00 -0.00000000000E+00  0.11368683772E-12  0.17120000000E+03  0.17120000000E+03 0.  0.
         13    1    1    2    0    0  0.21003080321E+02 -0.15285851999E+01  0.11672110733E+03  0.11860562388E+03  0.10566000000E+00 0. -1.
        994    1    1    2    0    0 -0.12428814919E+02  0.13548258230E+01  0.24203230489E+01  0.17167297096E+03  0.17120000000E+03 0.  0.
        998    1    1    2    0    0 -0.85742654016E+01  0.17375937686E+00  0.13808585659E+04  0.13809214052E+04  0.10000000000E+02 0. -1.
</event>
<event>
 5    1  0.1796476E-008  0.3823779E+03  0.7957747E-01  0.3440870E+00
         13   -1    0    0    0    0  0.00000000000E+00  0.00000000000E+00  0.14999999963E+04  0.15000000000E+04  0.10566000000E+00 0.  1.
        994   -1    0    0    0    0 -0.00000000000E+00 -0.00000000000E+00  0.11368683772E-12  0.17120000000E+03  0.17120000000E+03 0.  0.
         13    1    1    2    0    0  0.52302142226E+02 -0.94059417604E+00  0.30728962672E+03  0.31171032170E+03  0.10566000000E+00 0.  1.
        994    1    1    2    0    0 -0.70223592959E+02  0.14749040135E+02  0.20207802495E+02  0.18672622332E+03  0.17120000000E+03 0.  0.
        998    1    1    2    0    0  0.17921450733E+02 -0.13808445959E+02  0.11725025671E+04  0.11727634550E+04  0.10000000000E+02 0.  1.
</event>
<event>
 5    1  0.1796476E-008  0.3847740E+03  0.7957747E-01  0.3430631E+00
         13   -1    0    0    0    0  0.00000000000E+00  0.00000000000E+00  0.14999999963E+04  0.15000000000E+04  0.10566000000E+00 0.  1.
        994   -1    0    0    0    0 -0.00000000000E+00 -0.00000000000E+00  0.11368683772E-12  0.17120000000E+03  0.17120000000E+03 0.  0.
         13    1    1    2    0    0  0.94390769388E+01  0.53504812842E+01  0.32828326762E+02  0.34575049175E+02  0.10566000000E+00 0.  1.
        994    1    1    2    0    0 -0.70623086111E+01 -0.11702275595E+02  0.23574818781E+01  0.17176093030E+03  0.17120000000E+03 0.  0.
        998    1    1    2    0    0 -0.23767683277E+01  0.63517943106E+01  0.14648141876E+04  0.14648640205E+04  0.10000000000E+02 0.  1.
</event>
<event>
 5    1  0.1796476E-008  0.3699398E+03  0.7957747E-01  0.3496168E+00
         13   -1    0    0    0    0  0.00000000000E+00  0.00000000000E+00  0.14999999963E+04  0.15000000000E+04  0.10566000000E+00 0. -1.
        994   -1    0    0    0    0 -0.00000000000E+00 -0.00000000000E+00  0.11368683772E-12  0.17120000000E+03  0.17120000000E+03 0.  0.
         13    1    1    2    0    0  0.10167924246E+02 -0.55332557553E+01  0.28744142227E+01  0.11927993289E+02  0.10566000000E+00 0. -1.
        994    1    1    2    0    0 -0.10117810954E+02  0.34576686190E+01  0.96960267794E+01  0.17180738781E+03  0.17120000000E+03 0.  0.
        998    1    1    2    0    0 -0.50113292384E-01  0.20755871362E+01  0.14874295553E+04  0.14874646189E+04  0.10000000000E+02 0. -1.
</event>
<event>
 5    1  0.1796476E-008  0.3756631E+03  0.7957747E-01  0.3470262E+00
         13   -1    0    0    0    0  0.00000000000E+00  0.00000000000E+00  0.14999999963E+04  0.15000000000E+04  0.10566000000E+00 0.  1.
        994   -1    0    0    0    0 -0.00000000000E+00 -0.00000000000E+00  0.11368683772E-12  0.17120000000E+03  0.17120000000E+03 0.  0.
         13    1    1    2    0    0  0.44290912884E+01 -0.17630257663E+02  0.21078604386E+02  0.27834539008E+02  0.10566000000E+00 0.  1.
        994    1    1    2    0    0 -0.35739228872E+02  0.45352079410E+02  0.17731701798E+02  0.18154326436E+03  0.17120000000E+03 0.  0.
        998    1    1    2    0    0  0.31310137584E+02 -0.27721821747E+02  0.14611896901E+04  0.14618221966E+04  0.10000000000E+02 0.  1.
</event>
<event>
 5    1  0.1796476E-008  0.3831600E+03  0.7957747E-01  0.3437514E+00
         13   -1    0    0    0    0  0.00000000000E+00  0.00000000000E+00  0.14999999963E+04  0.15000000000E+04  0.10566000000E+00 0.  1.
        994   -1    0    0    0    0 -0.00000000000E+00 -0.00000000000E+00  0.11368683772E-12  0.17120000000E+03  0.17120000000E+03 0.  0.
         13    1    1    2    0    0  0.13732099697E+02  0.26198894737E+01  0.37871654982E+02  0.40369639558E+02  0.10566000000E+00 0.  1.
        994    1    1    2    0    0 -0.76795348563E+01  0.19042698045E+00  0.27416878927E+01  0.17139419001E+03  0.17120000000E+03 0.  0.
        998    1    1    2    0    0 -0.60525648406E+01 -0.28103164541E+01  0.14593866534E+04  0.14594361704E+04  0.10000000000E+02 0.  1.
</event>
<event>
 5    1  0.1796476E-008  0.3706866E+03  0.7957747E-01  0.3492741E+00
         13   -1    0    0    0    0  0.00000000000E+00  0.00000000000E+00  0.14999999963E+04  0.15000000000E+04  0.10566000000E+00 0.  1.
        994   -1    0    0    0    0 -0.00000000000E+00 -0.00000000000E+00  0.11368683772E-12  0.17120000000E+03  0.17120000000E+03 0.  0.
         13    1    1    2    0    0 -0.58623057621E+02 -0.33283412434E+02  0.38182618759E+03  0.38773147553E+03  0.10566000000E+00 0.  1.
        994    1    1    2    0    0 -0.76327074220E+01 -0.88605043108E+01  0.93825487842E+01  0.17185528500E+03  0.17120000000E+03 0.  0.
        998    1    1    2    0    0  0.66255765043E+02  0.42143916744E+02  0.11087912599E+04  0.11116132395E+04  0.10000000000E+02 0.  1.
</event>
<event>
 5    1  0.1796476E-008  0.3828493E+03  0.7957747E-01  0.3438845E+00
         13   -1    0    0    0    0  0.00000000000E+00  0.00000000000E+00  0.14999999963E+04  0.15000000000E+04  0.10566000000E+00 0. -1.
        994   -1    0    0    0    0 -0.00000000000E+00 -0.00000000000E+00  0.11368683772E-12  0.17120000000E+03  0.17120000000E+03 0.  0.
         13    1    1    2    0    0  0.11188191750E+02 -0.12840431396E+02  0.53667069299E+02  0.56304687232E+02  0.10566000000E+00 0. -1.
        994    1    1    2    0    0 -0.63574453418E+01  0.48911771488E+01  0.29148181949E+01  0.17141259257E+03  0.17120000000E+03 0.  0.
        998    1    1    2    0    0 -0.48307464086E+01  0.79492542475E+01  0.14434181088E+04  0.14434827202E+04  0.10000000000E+02 0. -1.
</event>
<event>
 5    1  0.1796476E-008  0.3804023E+03  0.7957747E-01  0.3449409E+00
         13   -1    0    0    0    0  0.00000000000E+00  0.00000000000E+00  0.14999999963E+04  0.15000000000E+04  0.10566000000E+00 0.  1.
        994   -1    0    0    0    0 -0.00000000000E+00 -0.00000000000E+00  0.11368683772E-12  0.17120000000E+03  0.17120000000E+03 0.  0.
         13    1    1    2    0    0 -0.20034881388E+02  0.10708534340E+02  0.61740135107E+02  0.65786963959E+02  0.10566000000E+00 0.  1.
        994    1    1    2    0    0  0.21962420374E+02 -0.98223286493E+01  0.58649896381E+01  0.17298168733E+03  0.17120000000E+03 0.  0.
        998    1    1    2    0    0 -0.19275389863E+01 -0.88620569044E+00  0.14323948715E+04  0.14324313487E+04  0.10000000000E+02 0.  1.
</event>
<event>
 5    1  0.1796476E-008  0.3839431E+03  0.7957747E-01  0.3434167E+00
         13   -1    0    0    0    0  0.00000000000E+00  0.00000000000E+00  0.14999999963E+04  0.15000000000E+04  0.10566000000E+00 0.  1.
        994   -1    0    0    0    0 -0.00000000000E+00 -0.00000000000E+00  0.11368683772E-12  0.17120000000E+03  0.17120000000E+03 0.  0.
         13    1    1    2    0    0  0.11812631836E+02  0.63004388990E+01  0.41237439017E+02  0.43356329894E+02  0.10566000000E+00 0.  1.
        994    1    1    2    0    0 -0.44926099305E+01 -0.84511851783E+01  0.24581561506E+01  0.17148495155E+03  0.17120000000E+03 0.  0.
        998    1    1    2    0    0 -0.73200219050E+01  0.21507462793E+01  0.14563044011E+04  0.14563587186E+04  0.10000000000E+02 0.  1.
</event>
<event>
 5    1  0.1796476E-008  0.3822688E+03  0.7957747E-01  0.3441339E+00
         13   -1    0    0    0    0  0.00000000000E+00  0.00000000000E+00  0.14999999963E+04  0.15000000000E+04  0.10566000000E+00 0. -1.
        994   -1    0    0    0    0 -0.00000000000E+00 -0.00000000000E+00  0.11368683772E-12  0.17120000000E+03  0.17120000000E+03 0.  0.
         13    1    1    2    0    0 -0.65869904829E+01 -0.20003386159E+02  0.77641592420E+02  0.80447199696E+02  0.10566000000E+00 0. -1.
        994    1    1    2    0    0  0.52149839071E+01  0.50412357632E+00  0.30833365378E+01  0.17130790163E+03  0.17120000000E+03 0.  0.
        998    1    1    2    0    0  0.13720065758E+01  0.19499262582E+02  0.14192750673E+04  0.14194448987E+04  0.10000000000E+02 0. -1.
</event>
<event>
 5    1  0.1796476E-008  0.3843476E+03  0.7957747E-01  0.3432444E+00
         13   -1    0    0    0    0  0.00000000000E+00  0.00000000000E+00  0.14999999963E+04  0.15000000000E+04  0.10566000000E+00 0. -1.
        994   -1    0    0    0    0 -0.00000000000E+00 -0.00000000000E+00  0.11368683772E-12  0.17120000000E+03  0.17120000000E+03 0.  0.
         13    1    1    2    0    0  0.14648264588E+02  0.15999166755E+02  0.12290259586E+03  0.12480226050E+03  0.10566000000E+00 0. -1.
        994    1    1    2    0    0 -0.11710632274E+02 -0.37020654540E+01  0.24516652129E+01  0.17165749287E+03  0.17120000000E+03 0.  0.
        998    1    1    2    0    0 -0.29376323136E+01 -0.12297101301E+02  0.13746457352E+04  0.13747402466E+04  0.10000000000E+02 0. -1.
</event>
<event>
 5    1  0.1796476E-008  0.3793517E+03  0.7957747E-01  0.3453986E+00
         13   -1    0    0    0    0  0.00000000000E+00  0.00000000000E+00  0.14999999963E+04  0.15000000000E+04  0.10566000000E+00 0. -1.
        994   -1    0    0    0    0 -0.00000000000E+00 -0.00000000000E+00  0.11368683772E-12  0.17120000000E+03  0.17120000000E+03 0.  0.
         13    1    1    2    0    0  0.51803323891E+02 -0.10251680526E+03  0.62293132333E+03  0.63343249402E+03  0.10566000000E+00 0. -1.
        994    1    1    2    0    0 -0.18621349086E+02  0.15003320164E+03  0.85284900849E+02  0.24380252367E+03  0.17120000000E+03 0.  0.
        998    1    1    2    0    0 -0.33181974805E+02 -0.47516396379E+02  0.79178377210E+03  0.79396498231E+03  0.10000000000E+02 0. -1.
</event>
<event>
 5    1  0.1796476E-008  0.3819262E+03  0.7957747E-01  0.3442814E+00
         13   -1    0    0    0    0  0.00000000000E+00  0.00000000000E+00  0.14999999963E+04  0.15000000000E+04  0.10566000000E+00 0.  1.
        994   -1    0    0    0    0 -0.00000000000E+00 -0.00000000000E+00  0.11368683772E-12  0.17120000000E+03  0.17120000000E+03 0.  0.
         13    1    1    2    0    0 -0.16680497874E+02  0.25246651519E+02  0.16715697748E+03  0.16987377287E+03  0.10566000000E+00 0.  1.
        994    1    1    2    0    0  0.78679904401E+01  0.68890972874E+01  0.35273493013E+01  0.17155537627E+03  0.17120000000E+03 0.  0.
        998    1    1    2    0    0  0.88125074336E+01 -0.32135748806E+02  0.13293156695E+04  0.13297708509E+04  0.10000000000E+02 0.  1.
</event>
<event>
 5    1  0.1796476E-008  0.3822848E+03  0.7957747E-01  0.3441270E+00
         13   -1    0    0    0    0  0.00000000000E+00  0.00000000000E+00  0.14999999963E+04  0.15000000000E+04  0.10566000000E+00 0. -1.
        994   -1    0    0    0    0 -0.00000000000E+00 -0.00000000000E+00  0.11368683772E-12  0.17120000000E+03  0.17120000000E+03 0.  0.
         13    1    1    2    0    0 -0.27717338808E+02 -0.47805815259E+01  0.13791580706E+03  0.14075470092E+03  0.10566000000E+00 0. -1.
        994    1    1    2    0    0  0.89840449186E+01  0.84059731991E+01  0.34866077108E+01  0.17167693462E+03  0.17120000000E+03 0.  0.
        998    1    1    2    0    0  0.18733293890E+02 -0.36253916732E+01  0.13585975815E+04  0.13587683645E+04  0.10000000000E+02 0. -1.
</event>
<event>
 5    1  0.1796476E-008  0.3837701E+03  0.7957747E-01  0.3434905E+00
         13   -1    0    0    0    0  0.00000000000E+00  0.00000000000E+00  0.14999999963E+04  0.15000000000E+04  0.10566000000E+00 0.  1.
        994   -1    0    0    0    0 -0.00000000000E+00 -0.00000000000E+00  0.11368683772E-12  0.17120000000E+03  0.17120000000E+03 0.  0.
         13    1    1    2    0    0  0.11310015375E+02 -0.86350986890E+01  0.44247870039E+02  0.46479743375E+02  0.10566000000E+00 0.  1.
        994    1    1    2    0    0 -0.71522178488E+01  0.90417575313E+01  0.26809528748E+01  0.17160866851E+03  0.17120000000E+03 0.  0.
        998    1    1    2    0    0 -0.41577975260E+01 -0.40665884237E+00  0.14530711734E+04  0.14531115881E+04  0.10000000000E+02 0.  1.
</event>
<event>
 5    1  0.1796476E-008  0.3789819E+03  0.7957747E-01  0.3455603E+00
         13   -1    0    0    0    0  0.00000000000E+00  0.00000000000E+00  0.14999999963E+04  0.15000000000E+04  0.10566000000E+00 0.  1.
        994   -1    0    0    0    0 -0.00000000000E+00 -0.00000000000E+00  0.11368683772E-12  0.17120000000E+03  0.17120000000E+03 0.  0.
         13    1    1    2    0    0 -0.75872454527E+01  0.18976471678E+02  0.43054121715E+02  0.47658591372E+02  0.10566000000E+00 0.  1.
        994    1    1    2    0    0  0.79989571569E+01 -0.11951795483E+02  0.53419901521E+01  0.17188602500E+03  0.17120000000E+03 0.  0.
        998    1    1    2    0    0 -0.41171170424E+00 -0.70246761951E+01  0.14516038844E+04  0.14516553836E+04  0.10000000000E+02 0.  1.
</event>
<event>
 5    1  0.1796476E-008  0.3732986E+03  0.7957747E-01  0.3480867E+00
         13   -1    0    0    0    0  0.00000000000E+00  0.00000000000E+00  0.14999999963E+04  0.15000000000E+04  0.10566000000E+00 0.  1.
        994   -1    0    0    0    0 -0.00000000000E+00 -0.00000000000E+00  0.11368683772E-12  0.17120000000E+03  0.17120000000E+03 0.  0.
         13    1    1    2    0    0 -0.12698729687E+03 -0.14444773353E+02  0.49162880180E+03  0.50796979730E+03  0.10566000000E+00 0.  1.
        994    1    1    2    0    0  0.10520191941E+03  0.49744708020E+02  0.62272195888E+02  0.21616948491E+03  0.17120000000E+03 0.  0.
        998    1    1    2    0    0  0.21785377462E+02 -0.35299934666E+02  0.94609899859E+03  0.94706071779E+03  0.10000000000E+02 0.  1.
</event>
<event>
 5    1  0.1796476E-008  0.3855875E+03  0.7957747E-01  0.3427184E+00
         13   -1    0    0    0    0  0.00000000000E+00  0.00000000000E+00  0.14999999963E+04  0.15000000000E+04  0.10566000000E+00 0.  1.
        994   -1    0    0    0    0 -0.00000000000E+00 -0.00000000000E+00  0.11368683772E-12  0.17120000000E+03  0.17120000000E+03 0.  0.
         13    1    1    2    0    0 -0.62405659125E+01 -0.10136592181E+02  0.52645650249E+02  0.53974723882E+02  0.10566000000E+00 0.  1.
        994    1    1    2    0    0  0.78605614172E+01  0.65925395616E+01  0.16842908667E+01  0.17151538368E+03  0.17120000000E+03 0.  0.
        998    1    1    2    0    0 -0.16199955046E+01  0.35440526194E+01  0.14456700552E+04  0.14457098924E+04  0.10000000000E+02 0.  1.
</event>
<event>
 5    1  0.1796476E-008  0.3768319E+03  0.7957747E-01  0.3465070E+00
         13   -1    0    0    0    0  0.00000000000E+00  0.00000000000E+00  0.14999999963E+04  0.15000000000E+04  0.10566000000E+00 0.  1.
        994   -1    0    0    0    0 -0.00000000000E+00 -0.00000000000E+00  0.11368683772E-12  0.17120000000E+03  0.17120000000E+03 0.  0.
         13    1    1    2    0    0 -0.16252889295E+02 -0.10927503937E+02  0.30850023584E+02  0.36541782550E+02  0.10566000000E+00 0.  1.
        994    1    1    2    0    0  0.30946161909E+01  0.23476862337E+02  0.76376643698E+01  0.17299859431E+03  0.17120000000E+03 0.  0.
        998    1    1    2    0    0  0.13158273104E+02 -0.12549358400E+02  0.14615123083E+04  0.14616596231E+04  0.10000000000E+02 0.  1.
</event>
<event>
 5    1  0.1796476E-008  0.3852865E+03  0.7957747E-01  0.3428458E+00
         13   -1    0    0    0    0  0.00000000000E+00  0.00000000000E+00  0.14999999963E+04  0.15000000000E+04  0.10566000000E+00 0. -1.
        994   -1    0    0    0    0 -0.00000000000E+00 -0.00000000000E+00  0.11368683772E-12  0.17120000000E+03  0.17120000000E+03 0.  0.
         13    1    1    2    0    0 -0.87073443397E+01 -0.11550819148E+02  0.71766617075E+02  0.73209956692E+02  0.10566000000E+00 0. -1.
        994    1    1    2    0    0  0.15634800789E+01  0.75973065208E+01  0.16856613408E+01  0.17138391112E+03  0.17120000000E+03 0.  0.
        998    1    1    2    0    0  0.71438642609E+01  0.39535126274E+01  0.14265477179E+04  0.14266061322E+04  0.10000000000E+02 0. -1.
</event>
<event>
 5    1  0.1796476E-008  0.3852923E+03  0.7957747E-01  0.3428434E+00
         13   -1    0    0    0    0  0.00000000000E+00  0.00000000000E+00  0.14999999963E+04  0.15000000000E+04  0.10566000000E+00 0. -1.
        994   -1    0    0    0    0 -0.00000000000E+00 -0.00000000000E+00  0.11368683772E-12  0.17120000000E+03  0.17120000000E+03 0.  0.
         13    1    1    2    0    0  0.11032647830E+02 -0.29795746660E+01  0.43691402612E+02  0.45161344196E+02  0.10566000000E+00 0. -1.
        994    1    1    2    0    0 -0.73472517314E+01  0.76254246999E+01  0.18535858756E+01  0.17153718253E+03  0.17120000000E+03 0.  0.
        998    1    1    2    0    0 -0.36853960990E+01 -0.46458500339E+01  0.14544550078E+04  0.14545014733E+04  0.10000000000E+02 0. -1.
</event>
<event>
 5    1  0.2250601E-008  0.3862636E+03  0.7957747E-01  0.3424331E+00
         13   -1    0    0    0    0  0.00000000000E+00  0.00000000000E+00  0.14999999963E+04  0.15000000000E+04  0.10566000000E+00 0. -1.
        994   -1    0    0    0    0 -0.00000000000E+00 -0.00000000000E+00  0.11368683772E-12  0.17120000000E+03  0.17120000000E+03 0.  0.
         13    1    1    2    0    0  0.47781381131E+01  0.10224699708E+02  0.64233361661E+02  0.65217413336E+02  0.10566000000E+00 0. -1.
        994    1    1    2    0    0 -0.38675533646E+01 -0.70314135698E+01  0.12150287003E+01  0.17139228408E+03  0.17120000000E+03 0.  0.
        998    1    1    2    0    0 -0.91058474844E+00 -0.31932861385E+01  0.14345516059E+04  0.14345903026E+04  0.10000000000E+02 0. -1.
</event>
<event>
 5    1  0.1796476E-008  0.3815936E+03  0.7957747E-01  0.3444249E+00
         13   -1    0    0    0    0  0.00000000000E+00  0.00000000000E+00  0.14999999963E+04  0.15000000000E+04  0.10566000000E+00 0. -1.
        994   -1    0    0    0    0 -0.00000000000E+00 -0.00000000000E+00  0.11368683772E-12  0.17120000000E+03  0.17120000000E+03 0.  0.
         13    1    1    2    0    0 -0.32390579932E+02 -0.47619285554E+01  0.13034747067E+03  0.13439605614E+03  0.10566000000E+00 0. -1.
        994    1    1    2    0    0  0.53060369157E+02 -0.33973827564E+01  0.12789251229E+02  0.17972186826E+03  0.17120000000E+03 0.  0.
        998    1    1    2    0    0 -0.20669789225E+02  0.81593113118E+01  0.13568632744E+04  0.13570820756E+04  0.10000000000E+02 0. -1.
</event>
<event>
 5    1  0.1796476E-008  0.2168946E+03  0.7957747E-01  0.4755795E+00
         13   -1    0    0    0    0  0.00000000000E+00  0.00000000000E+00  0.14999999963E+04  0.15000000000E+04  0.10566000000E+00 0.  1.
        994   -1    0    0    0    0 -0.00000000000E+00 -0.00000000000E+00  0.11368683772E-12  0.17120000000E+03  0.17120000000E+03 0.  0.
         13    1    1    2    0    0 -0.21712377363E+01 -0.93440443610E+02  0.30702638175E+02  0.98379336907E+02  0.10566000000E+00 0.  1.
        994    1    1    2    0    0  0.65130679582E+02  0.58033286172E+02  0.13103134889E+03  0.23256939205E+03  0.17120000000E+03 0.  0.
        998    1    1    2    0    0 -0.62959441846E+02  0.35407157437E+02  0.13382660092E+04  0.13402512710E+04  0.10000000000E+02 0.  1.
</event>
<event>
 5    1  0.1796476E-008  0.3761921E+03  0.7957747E-01  0.3467908E+00
         13   -1    0    0    0    0  0.00000000000E+00  0.00000000000E+00  0.14999999963E+04  0.15000000000E+04  0.10566000000E+00 0. -1.
        994   -1    0    0    0    0 -0.00000000000E+00 -0.00000000000E+00  0.11368683772E-12  0.17120000000E+03  0.17120000000E+03 0.  0.
         13    1    1    2    0    0 -0.34673736693E+02  0.11196933569E+02  0.87799795091E+02  0.95060267829E+02  0.10566000000E+00 0. -1.
        994    1    1    2    0    0  0.75671020635E+02  0.30297024832E+01  0.25739017690E+02  0.18896354011E+03  0.17120000000E+03 0.  0.
        998    1    1    2    0    0 -0.40997283942E+02 -0.14226636052E+02  0.13864611835E+04  0.13871761921E+04  0.10000000000E+02 0. -1.
</event>
<event>
 5    1  0.1796476E-008  0.3854960E+03  0.7957747E-01  0.3427571E+00
         13   -1    0    0    0    0  0.00000000000E+00  0.00000000000E+00  0.14999999963E+04  0.15000000000E+04  0.10566000000E+00 0.  1.
        994   -1    0    0    0    0 -0.00000000000E+00 -0.00000000000E+00  0.11368683772E-12  0.17120000000E+03  0.17120000000E+03 0.  0.
         13    1    1    2    0    0  0.75034866874E+01  0.67448774835E+01  0.40018800294E+02  0.41271191232E+02  0.10566000000E+00 0.  1.
        994    1    1    2    0    0  0.89175301161E+01  0.22701912265E+01  0.16621625414E+01  0.17145518043E+03  0.17120000000E+03 0.  0.
        998    1    1    2    0    0 -0.16421016803E+02 -0.90150687100E+01  0.14583190334E+04  0.14584736283E+04  0.10000000000E+02 0.  1.
</event>
<event>
 5    1  0.1796476E-008  0.3762723E+03  0.7957747E-01  0.3467552E+00
         13   -1    0    0    0    0  0.00000000000E+00  0.00000000000E+00  0.14999999963E+04  0.15000000000E+04  0.10566000000E+00 0.  1.
        994   -1    0    0    0    0 -0.00000000000E+00 -0.00000000000E+00  0.11368683772E-12  0.17120000000E+03  0.17120000000E+03 0.  0.
         13    1    1    2    0    0  0.97717125368E+01 -0.94707432695E+01  0.12742904244E+02  0.18643339738E+02  0.10566000000E+00 0.  1.
        994    1    1    2    0    0 -0.57724120006E+01  0.58219975894E+01  0.62543585909E+01  0.17151027199E+03  0.17120000000E+03 0.  0.
        998    1    1    2    0    0 -0.39993005362E+01  0.36487456800E+01  0.14810027334E+04  0.14810463883E+04  0.10000000000E+02 0.  1.
</event>
<event>
 5    1  0.1796476E-008  0.3813212E+03  0.7957747E-01  0.3445426E+00
         13   -1    0    0    0    0  0.00000000000E+00  0.00000000000E+00  0.14999999963E+04  0.15000000000E+04  0.10566000000E+00 0. -1.
        994   -1    0    0    0    0 -0.00000000000E+00 -0.00000000000E+00  0.11368683772E-12  0.17120000000E+03  0.17120000000E+03 0.  0.
         13    1    1    2    0    0  0.18122732162E+01  0.13263639888E+02  0.24870546183E+02  0.28244711164E+02  0.10566000000E+00 0. -1.
        994    1    1    2    0    0  0.19652427739E+01 -0.43110421380E+01  0.35423941737E+01  0.17130217693E+03  0.17120000000E+03 0.  0.
        998    1    1    2    0    0 -0.37775159901E+01 -0.89525977495E+01  0.14715870559E+04  0.14716531119E+04  0.10000000000E+02 0. -1.
</event>
<event>
 5    1  0.1796476E-008  0.3800262E+03  0.7957747E-01  0.3451045E+00
         13   -1    0    0    0    0  0.00000000000E+00  0.00000000000E+00  0.14999999963E+04  0.15000000000E+04  0.10566000000E+00 0. -1.
        994   -1    0    0    0    0 -0.00000000000E+00 -0.00000000000E+00  0.11368683772E-12  0.17120000000E+03  0.17120000000E+03 0.  0.
         13    1    1    2    0    0 -0.32273892634E+02 -0.17126725500E+02  0.15666610776E+03  0.16087016304E+03  0.10566000000E+00 0. -1.
        994    1    1    2    0    0  0.22188316711E+02  0.12061601363E+02  0.62547938866E+01  0.17316571853E+03  0.17120000000E+03 0.  0.
        998    1    1    2    0    0  0.10085575923E+02  0.50651241370E+01  0.13370790946E+04  0.13371641184E+04  0.10000000000E+02 0. -1.
</event>
<event>
 5    1  0.1796476E-008  0.3812231E+03  0.7957747E-01  0.3445850E+00
         13   -1    0    0    0    0  0.00000000000E+00  0.00000000000E+00  0.14999999963E+04  0.15000000000E+04  0.10566000000E+00 0. -1.
        994   -1    0    0    0    0 -0.00000000000E+00 -0.00000000000E+00  0.11368683772E-12  0.17120000000E+03  0.17120000000E+03 0.  0.
         13    1    1    2    0    0 -0.16394701310E+02  0.31844070418E+01  0.38405541059E+02  0.41879868998E+02  0.10566000000E+00 0. -1.
        994    1    1    2    0    0  0.12071159909E+02  0.55019394720E+01  0.41031448360E+01  0.17176221947E+03  0.17120000000E+03 0.  0.
        998    1    1    2    0    0  0.43235414011E+01 -0.86863465138E+01  0.14574913104E+04  0.14575579115E+04  0.10000000000E+02 0. -1.
</event>
<event>
 5    1  0.1796476E-008  0.3852441E+03  0.7957747E-01  0.3428638E+00
         13   -1    0    0    0    0  0.00000000000E+00  0.00000000000E+00  0.14999999963E+04  0.15000000000E+04  0.10566000000E+00 0.  1.
        994   -1    0    0    0    0 -0.00000000000E+00 -0.00000000000E+00  0.11368683772E-12  0.17120000000E+03  0.17120000000E+03 0.  0.
         13    1    1    2    0    0 -0.12411937555E+02 -0.20490645671E+01  0.56476009572E+02  0.57860225377E+02  0.10566000000E+00 0.  1.
        994    1    1    2    0    0 -0.26069351920E+01 -0.41518743310E+01  0.15879724058E+01  0.17127754035E+03  0.17120000000E+03 0.  0.
        998    1    1    2    0    0  0.15018872747E+02  0.62009388981E+01  0.14419360143E+04  0.14420622343E+04  0.10000000000E+02 0.  1.
</event>
<event>
 5    1  0.1796476E-008  0.3951259E+03  0.7957747E-01  0.3387831E+00
         13   -1    0    0    0    0  0.00000000000E+00  0.00000000000E+00  0.14999999963E+04  0.15000000000E+04  0.10566000000E+00 0.  1.
        994   -1    0    0    0    0 -0.00000000000E+00 -0.00000000000E+00  0.11368683772E-12  0.17120000000E+03  0.17120000000E+03 0.  0.
         13    1    1    2    0    0  0.13052057421E+03 -0.19552692189E+02  0.27426411639E+03  0.30436613604E+03  0.10566000000E+00 0.  1.
        994    1    1    2    0    0 -0.12930523286E+03  0.17526170938E+02  0.93728159520E+02  0.23477950890E+03  0.17120000000E+03 0.  0.
        998    1    1    2    0    0 -0.12153413480E+01  0.20265212502E+01  0.11320077204E+04  0.11320543551E+04  0.10000000000E+02 0.  0.
</event>
<event>
 5    1  0.1796476E-008  0.2591046E+03  0.7957747E-01  0.4239540E+00
         13   -1    0    0    0    0  0.00000000000E+00  0.00000000000E+00  0.14999999963E+04  0.15000000000E+04  0.10566000000E+00 0.  1.
        994   -1    0    0    0    0 -0.00000000000E+00 -0.00000000000E+00  0.11368683772E-12  0.17120000000E+03  0.17120000000E+03 0.  0.
         13    1    1    2    0    0 -0.69519446201E+02 -0.15283362405E+03  0.72510284429E+02  0.18289019261E+03  0.10566000000E+00 0.  1.
        994    1    1    2    0    0  0.79844953082E+02  0.14785268061E+03  0.44364143403E+03  0.50434392401E+03  0.17120000000E+03 0.  0.
        998    1    1    2    0    0 -0.10325506880E+02  0.49809434454E+01  0.98384827782E+03  0.98396588338E+03  0.10000000000E+02 0.  1.
</event>
<event>
 5    1  0.1796476E-008  0.3843822E+03  0.7957747E-01  0.3432297E+00
         13   -1    0    0    0    0  0.00000000000E+00  0.00000000000E+00  0.14999999963E+04  0.15000000000E+04  0.10566000000E+00 0. -1.
        994   -1    0    0    0    0 -0.00000000000E+00 -0.00000000000E+00  0.11368683772E-12  0.17120000000E+03  0.17120000000E+03 0.  0.
         13    1    1    2    0    0 -0.10281724309E+02 -0.68194840868E+00  0.26492191422E+02  0.28425803045E+02  0.10566000000E+00 0. -1.
        994    1    1    2    0    0  0.10848062124E+02  0.42167071979E+01  0.23836721412E+01  0.17161172152E+03  0.17120000000E+03 0.  0.
        998    1    1    2    0    0 -0.56633781492E+00 -0.35347587892E+01  0.14711241327E+04  0.14711624754E+04  0.10000000000E+02 0. -1.
</event>
<event>
 5    1  0.1796476E-008  0.3709063E+03  0.7957747E-01  0.3491736E+00
         13   -1    0    0    0    0  0.00000000000E+00  0.00000000000E+00  0.14999999963E+04  0.15000000000E+04  0.10566000000E+00 0.  1.
        994   -1    0    0    0    0 -0.00000000000E+00 -0.00000000000E+00  0.11368683772E-12  0.17120000000E+03  0.17120000000E+03 0.  0.
         13    1    1    2    0    0 -0.49172564361E+02  0.76104521276E+02  0.32335466193E+03  0.33580960052E+03  0.10566000000E+00 0.  1.
        994    1    1    2    0    0 -0.40501437840E+02 -0.11909429295E+03  0.69182587496E+02  0.22342669378E+03  0.17120000000E+03 0.  0.
        998    1    1    2    0    0  0.89674002201E+02  0.42989771670E+02  0.11074627469E+04  0.11119637057E+04  0.10000000000E+02 0.  1.
</event>
<event>
 5    1  0.1796476E-008  0.3819818E+03  0.7957747E-01  0.3442575E+00
         13   -1    0    0    0    0  0.00000000000E+00  0.00000000000E+00  0.14999999963E+04  0.15000000000E+04  0.10566000000E+00 0. -1.
        994   -1    0    0    0    0 -0.00000000000E+00 -0.00000000000E+00  0.11368683772E-12  0.17120000000E+03  0.17120000000E+03 0.  0.
         13    1    1    2    0    0  0.11718987397E+02  0.10401120894E+01  0.20844907932E+02  0.23936120184E+02  0.10566000000E+00 0. -1.
        994    1    1    2    0    0 -0.84402577234E+01  0.35976641978E+01  0.34157212277E+01  0.17147970227E+03  0.17120000000E+03 0.  0.
        998    1    1    2    0    0 -0.32787296732E+01 -0.46377762873E+01  0.14757393671E+04  0.14757841775E+04  0.10000000000E+02 0. -1.
</event>
<event>
 5    1  0.1796476E-008  0.3844886E+03  0.7957747E-01  0.3431844E+00
         13   -1    0    0    0    0  0.00000000000E+00  0.00000000000E+00  0.14999999963E+04  0.15000000000E+04  0.10566000000E+00 0. -1.
        994   -1    0    0    0    0 -0.00000000000E+00 -0.00000000000E+00  0.11368683772E-12  0.17120000000E+03  0.17120000000E+03 0.  0.
         13    1    1    2    0    0 -0.48313846325E+01  0.94524109835E+01  0.29875778680E+02  0.31705893248E+02  0.10566000000E+00 0. -1.
        994    1    1    2    0    0 -0.12864916555E+01 -0.51201426512E+01  0.19760832058E+01  0.17129277809E+03  0.17120000000E+03 0.  0.
        998    1    1    2    0    0  0.61178762881E+01 -0.43322683323E+01  0.14681481344E+04  0.14682013287E+04  0.10000000000E+02 0. -1.
</event>
<event>
 5    1  0.1796476E-008  0.3223672E+03  0.7957747E-01  0.3748237E+00
         13   -1    0    0    0    0  0.00000000000E+00  0.00000000000E+00  0.14999999963E+04  0.15000000000E+04  0.10566000000E+00 0.  1.
        994   -1    0    0    0    0 -0.00000000000E+00 -0.00000000000E+00  0.11368683772E-12  0.17120000000E+03  0.17120000000E+03 0.  0.
         13    1    1    2    0    0  0.20376751330E+02 -0.20125886507E+03  0.84114019158E+03  0.86512263629E+03  0.10566000000E+00 0.  1.
        994    1    1    2    0    0 -0.10777398325E+01  0.16714127900E+03  0.12362099616E+03  0.26931201117E+03  0.17120000000E+03 0.  0.
        998    1    1    2    0    0 -0.19299011497E+02  0.34117586068E+02  0.53523880854E+03  0.53676535254E+03  0.10000000000E+02 0.  1.
</event>
<event>
 5    1  0.1796476E-008  0.3783018E+03  0.7957747E-01  0.3458586E+00
         13   -1    0    0    0    0  0.00000000000E+00  0.00000000000E+00  0.14999999963E+04  0.15000000000E+04  0.10566000000E+00 0. -1.
        994   -1    0    0    0    0 -0.00000000000E+00 -0.00000000000E+00  0.11368683772E-12  0.17120000000E+03  0.17120000000E+03 0.  0.
         13    1    1    2    0    0  0.18528886624E+02 -0.25435109966E+02  0.92217044573E+02  0.97438487941E+02  0.10566000000E+00 0. -1.
        994    1    1    2    0    0 -0.13000149811E+02  0.29227036943E+02  0.84403810793E+01  0.17436715177E+03  0.17120000000E+03 0.  0.
        998    1    1    2    0    0 -0.55287368125E+01 -0.37919269767E+01  0.13993425706E+04  0.13993943603E+04  0.10000000000E+02 0. -1.
</event>
<event>
 5    1  0.1796476E-008  0.3835215E+03  0.7957747E-01  0.3435967E+00
         13   -1    0    0    0    0  0.00000000000E+00  0.00000000000E+00  0.14999999963E+04  0.15000000000E+04  0.10566000000E+00 0. -1.
        994   -1    0    0    0    0 -0.00000000000E+00 -0.00000000000E+00  0.11368683772E-12  0.17120000000E+03  0.17120000000E+03 0.  0.
         13    1    1    2    0    0  0.77602041628E+01 -0.17465986755E+02  0.75961190937E+02  0.78328763265E+02  0.10566000000E+00 0. -1.
        994    1    1    2    0    0 -0.24701720478E+01  0.13897465636E+02  0.30246177932E+01  0.17180753655E+03  0.17120000000E+03 0.  0.
        998    1    1    2    0    0 -0.52900321150E+01  0.35685211194E+01  0.14210141875E+04  0.14210637002E+04  0.10000000000E+02 0. -1.
</event>
<event>
 5    1  0.1796476E-008  0.3735910E+03  0.7957747E-01  0.3479548E+00
         13   -1    0    0    0    0  0.00000000000E+00  0.00000000000E+00  0.14999999963E+04  0.15000000000E+04  0.10566000000E+00 0.  1.
        994   -1    0    0    0    0 -0.00000000000E+00 -0.00000000000E+00  0.11368683772E-12  0.17120000000E+03  0.17120000000E+03 0.  0.
         13    1    1    2    0    0  0.66678190175E+02 -0.17307776971E+02  0.25992063690E+03  0.26889456826E+03  0.10566000000E+00 0.  1.
        994    1    1    2    0    0 -0.66237563374E+02  0.26864252047E+02  0.25059962349E+02  0.18720722356E+03  0.17120000000E+03 0.  0.
        998    1    1    2    0    0 -0.44062680100E+00 -0.95564750764E+01  0.12150193970E+04  0.12150982082E+04  0.10000000000E+02 0.  1.
</event>
<event>
 5    1  0.1796476E-008  0.3848571E+03  0.7957747E-01  0.3430278E+00
         13   -1    0    0    0    0  0.00000000000E+00  0.00000000000E+00  0.14999999963E+04  0.15000000000E+04  0.10566000000E+00 0.  1.
        994   -1    0    0    0    0 -0.00000000000E+00 -0.00000000000E+00  0.11368683772E-12  0.17120000000E+03  0.17120000000E+03 0.  0.
         13    1    1    2    0    0 -0.11244141426E+02  0.24266431273E+00  0.38673066294E+02  0.40275387310E+02  0.10566000000E+00 0.  1.
        994    1    1    2    0    0 -0.16945109847E+01 -0.21346518305E+01  0.17255312996E+01  0.17123038739E+03  0.17120000000E+03 0.  0.
        998    1    1    2    0    0  0.12938652411E+02  0.18919875178E+01  0.14596013987E+04  0.14596942253E+04  0.10000000000E+02 0.  1.
</event>
<event>
 5    1  0.1796476E-008  0.3734802E+03  0.7957747E-01  0.3480048E+00
         13   -1    0    0    0    0  0.00000000000E+00  0.00000000000E+00  0.14999999963E+04  0.15000000000E+04  0.10566000000E+00 0. -1.
        994   -1    0    0    0    0 -0.00000000000E+00 -0.00000000000E+00  0.11368683772E-12  0.17120000000E+03  0.17120000000E+03 0.  0.
         13    1    1    2    0    0  0.82504474439E+01 -0.22958477888E+02  0.17736242298E+02  0.30162013276E+02  0.10566000000E+00 0. -1.
        994    1    1    2    0    0 -0.10932824734E+02  0.17745480868E+02  0.14329953952E+02  0.17305841883E+03  0.17120000000E+03 0.  0.
        998    1    1    2    0    0  0.26823772906E+01  0.52129970195E+01  0.14679338000E+04  0.14679795679E+04  0.10000000000E+02 0. -1.
</event>
<event>
 5    1  0.1796476E-008  0.3787160E+03  0.7957747E-01  0.3456769E+00
         13   -1    0    0    0    0  0.00000000000E+00  0.00000000000E+00  0.14999999963E+04  0.15000000000E+04  0.10566000000E+00 0. -1.
        994   -1    0    0    0    0 -0.00000000000E+00 -0.00000000000E+00  0.11368683772E-12  0.17120000000E+03  0.17120000000E+03 0.  0.
         13    1    1    2    0    0 -0.15564954943E+02  0.11144556338E+02  0.36575490126E+02  0.41282521729E+02  0.10566000000E+00 0. -1.
        994    1    1    2    0    0  0.87960740719E+01 -0.74576711130E+01  0.52293122219E+01  0.17166762503E+03  0.17120000000E+03 0.  0.
        998    1    1    2    0    0  0.67688808707E+01 -0.36868852246E+01  0.14581951939E+04  0.14582498532E+04  0.10000000000E+02 0. -1.
</event>
<event>
 5    1  0.1796476E-008  0.4012883E+03  0.7957747E-01  0.3363398E+00
         13   -1    0    0    0    0  0.00000000000E+00  0.00000000000E+00  0.14999999963E+04  0.15000000000E+04  0.10566000000E+00 0. -1.
        994   -1    0    0    0    0 -0.00000000000E+00 -0.00000000000E+00  0.11368683772E-12  0.17120000000E+03  0.17120000000E+03 0.  0.
         13    1    1    2    0    0 -0.55602569219E+02 -0.75396647001E+02  0.13657406811E+03  0.16561638605E+03  0.10566000000E+00 0. -1.
        994    1    1    2    0    0  0.40310977021E+02  0.74935633094E+02  0.57654476369E+02  0.19968425732E+03  0.17120000000E+03 0.  0.
        998    1    1    2    0    0  0.15291592199E+02  0.46101390772E+00  0.13057714518E+04  0.13058993566E+04  0.10000000000E+02 0. -1.
</event>
<event>
 5    1  0.1796476E-008  0.2679434E+03  0.7957747E-01  0.4155290E+00
         13   -1    0    0    0    0  0.00000000000E+00  0.00000000000E+00  0.14999999963E+04  0.15000000000E+04  0.10566000000E+00 0. -1.
        994   -1    0    0    0    0 -0.00000000000E+00 -0.00000000000E+00  0.11368683772E-12  0.17120000000E+03  0.17120000000E+03 0.  0.
         13    1    1    2    0    0  0.17341812320E+03 -0.97501232358E+01  0.44980454941E+03  0.48217533553E+03  0.10566000000E+00 0. -1.
        994    1    1    2    0    0 -0.15720521902E+03 -0.25656590371E+02  0.12921307445E+03  0.26716511772E+03  0.17120000000E+03 0.  0.
        998    1    1    2    0    0 -0.16212904174E+02  0.35406713606E+02  0.92098237242E+03  0.92185954675E+03  0.10000000000E+02 0. -1.
</event>
<event>
 5    1  0.1796476E-008  0.3792687E+03  0.7957747E-01  0.3454349E+00
         13   -1    0    0    0    0  0.00000000000E+00  0.00000000000E+00  0.14999999963E+04  0.15000000000E+04  0.10566000000E+00 0.  1.
        994   -1    0    0    0    0 -0.00000000000E+00 -0.00000000000E+00  0.11368683772E-12  0.17120000000E+03  0.17120000000E+03 0.  0.
         13    1    1    2    0    0 -0.10980252508E+02  0.20133862390E+01  0.12372750914E+02  0.16664807185E+02  0.10566000000E+00 0.  1.
        994    1    1    2    0    0 -0.87946600732E+01  0.84975605484E+01  0.50040564015E+01  0.17170915864E+03  0.17120000000E+03 0.  0.
        998    1    1    2    0    0  0.19774912582E+02 -0.10510946787E+02  0.14826231890E+04  0.14828260342E+04  0.10000000000E+02 0.  1.
</event>
<event>
 5    1  0.1796476E-008  0.3824531E+03  0.7957747E-01  0.3440546E+00
         13   -1    0    0    0    0  0.00000000000E+00  0.00000000000E+00  0.14999999963E+04  0.15000000000E+04  0.10566000000E+00 0.  1.
        994   -1    0    0    0    0 -0.00000000000E+00 -0.00000000000E+00  0.11368683772E-12  0.17120000000E+03  0.17120000000E+03 0.  0.
         13    1    1    2    0    0 -0.11454587781E+02  0.29614169521E+02  0.19047110074E+03  0.19309960642E+03  0.10566000000E+00 0.  1.
        994    1    1    2    0    0 -0.44413758534E+01 -0.97549568068E+01  0.32810069529E+01  0.17156657602E+03  0.17120000000E+03 0.  0.
        998    1    1    2    0    0  0.15895963635E+02 -0.19859212714E+02  0.13062478886E+04  0.13065338176E+04  0.10000000000E+02 0.  1.
</event>
<event>
 5    1  0.1796476E-008  0.3751146E+03  0.7957747E-01  0.3472711E+00
         13   -1    0    0    0    0  0.00000000000E+00  0.00000000000E+00  0.14999999963E+04  0.15000000000E+04  0.10566000000E+00 0. -1.
        994   -1    0    0    0    0 -0.00000000000E+00 -0.00000000000E+00  0.11368683772E-12  0.17120000000E+03  0.17120000000E+03 0.  0.
         13    1    1    2    0    0 -0.13936777510E+02  0.25811726474E+02  0.67550896951E+02  0.73645188803E+02  0.10566000000E+00 0. -1.
        994    1    1    2    0    0  0.17298481280E+02  0.12618445558E+02  0.81792601284E+01  0.17272753955E+03  0.17120000000E+03 0.  0.
        998    1    1    2    0    0 -0.33617037700E+01 -0.38430172032E+02  0.14242698392E+04  0.14248272716E+04  0.10000000000E+02 0. -1.
</event>
<event>
 5    1  0.1796476E-008  0.3743516E+03  0.7957747E-01  0.3476128E+00
         13   -1    0    0    0    0  0.00000000000E+00  0.00000000000E+00  0.14999999963E+04  0.15000000000E+04  0.10566000000E+00 0.  1.
        994   -1    0    0    0    0 -0.00000000000E+00 -0.00000000000E+00  0.11368683772E-12  0.17120000000E+03  0.17120000000E+03 0.  0.
         13    1    1    2    0    0 -0.23766064827E+02  0.11473083444E+02  0.44048037341E+02  0.51348790042E+02  0.10566000000E+00 0.  1.
        994    1    1    2    0    0  0.31892281800E+02 -0.22299861776E+02  0.12188625530E+02  0.17598978398E+03  0.17120000000E+03 0.  0.
        998    1    1    2    0    0 -0.81262169732E+01  0.10826778332E+02  0.14437633334E+04  0.14438614260E+04  0.10000000000E+02 0.  1.
</event>
<event>
 5    1  0.1796476E-008  0.3829384E+03  0.7957747E-01  0.3438463E+00
         13   -1    0    0    0    0  0.00000000000E+00  0.00000000000E+00  0.14999999963E+04  0.15000000000E+04  0.10566000000E+00 0.  1.
        994   -1    0    0    0    0 -0.00000000000E+00 -0.00000000000E+00  0.11368683772E-12  0.17120000000E+03  0.17120000000E+03 0.  0.
         13    1    1    2    0    0  0.97964842417E+01  0.66084498042E+01  0.25334042310E+02  0.27954741567E+02  0.10566000000E+00 0.  1.
        994    1    1    2    0    0 -0.82694663884E+01 -0.23547201660E+01  0.29019467977E+01  0.17144033970E+03  0.17120000000E+03 0.  0.
        998    1    1    2    0    0 -0.15270178533E+01 -0.42537296382E+01  0.14717640072E+04  0.14718049187E+04  0.10000000000E+02 0.  1.
</event>
<event>
 5    1  0.1796476E-008  0.3855586E+03  0.7957747E-01  0.3427307E+00
         13   -1    0    0    0    0  0.00000000000E+00  0.00000000000E+00  0.14999999963E+04  0.15000000000E+04  0.10566000000E+00 0.  1.
        994   -1    0    0    0    0 -0.00000000000E+00 -0.00000000000E+00  0.11368683772E-12  0.17120000000E+03  0.17120000000E+03 0.  0.
         13    1    1    2    0    0 -0.12696483365E+02 -0.46625491530E+01  0.65804896330E+02  0.67180619225E+02  0.10566000000E+00 0.  1.
        994    1    1    2    0    0  0.12729786922E+02  0.50072166309E+01  0.19675663506E+01  0.17175689509E+03  0.17120000000E+03 0.  0.
        998    1    1    2    0    0 -0.33303557254E-01 -0.34466747786E+00  0.14322275336E+04  0.14322624857E+04  0.10000000000E+02 0.  1.
</event>
<event>
 5    1  0.1796476E-008  0.3847168E+03  0.7957747E-01  0.3430874E+00
         13   -1    0    0    0    0  0.00000000000E+00  0.00000000000E+00  0.14999999963E+04  0.15000000000E+04  0.10566000000E+00 0. -1.
        994   -1    0    0    0    0 -0.00000000000E+00 -0.00000000000E+00  0.11368683772E-12  0.17120000000E+03  0.17120000000E+03 0.  0.
         13    1    1    2    0    0 -0.63430395876E+01  0.89141734043E+01  0.35854637117E+02  0.37486835096E+02  0.10566000000E+00 0. -1.
        994    1    1    2    0    0 -0.14233553411E+01  0.78523716543E+01  0.19804780981E+01  0.17139733946E+03  0.17120000000E+03 0.  0.
        998    1    1    2    0    0  0.77663949287E+01 -0.16766545059E+02  0.14621648811E+04  0.14623158254E+04  0.10000000000E+02 0. -1.
</event>
