<event>
 5    1  0.5722211E-009  0.3883002E+03  0.7957747E-01  0.3415795E+00
         13   -1    0    0    0    0  0.00000000000E+00  0.00000000000E+00  0.14999999963E+04  0.15000000000E+04  0.10566000000E+00 0.  1.
        994   -1    0    0    0    0 -0.00000000000E+00 -0.00000000000E+00  0.11368683772E-12  0.17120000000E+03  0.17120000000E+03 0.  0.
         13    1    1    2    0    0  0.20877069899E+03  0.82534266591E+02  0.13121641717E+04  0.13312294824E+04  0.10566000000E+00 0.  1.
        994    1    1    2    0    0 -0.20901108369E+03 -0.82594892759E+02  0.18630031823E+03  0.33841512671E+03  0.17120000000E+03 0.  0.
        998    1    1    2    0    0  0.24038470266E+00  0.60626167541E-01  0.15355063016E+01  0.15553909282E+01  0.10000000000E-02 0. -1.
</event>
<event>
 5    1  0.5722211E-009  0.3883010E+03  0.7957747E-01  0.3415792E+00
         13   -1    0    0    0    0  0.00000000000E+00  0.00000000000E+00  0.14999999963E+04  0.15000000000E+04  0.10566000000E+00 0. -1.
        994   -1    0    0    0    0 -0.00000000000E+00 -0.00000000000E+00  0.11368683772E-12  0.17120000000E+03  0.17120000000E+03 0.  0.
         13    1    1    2    0    0 -0.23020607256E+03 -0.96167190390E+02  0.12450466373E+04  0.12697968753E+04  0.10566000000E+00 0. -1.
        994    1    1    2    0    0  0.23226738771E+03  0.97045021878E+02  0.24377374868E+03  0.39000122591E+03  0.17120000000E+03 0.  0.
        998    1    1    2    0    0 -0.20613151433E+01 -0.87783148824E+00  0.11179610267E+02  0.11401898743E+02  0.10000000000E-02 0. -1.
</event>
<event>
 5    1  0.5722211E-009  0.3883009E+03  0.7957747E-01  0.3415792E+00
         13   -1    0    0    0    0  0.00000000000E+00  0.00000000000E+00  0.14999999963E+04  0.15000000000E+04  0.10566000000E+00 0.  1.
        994   -1    0    0    0    0 -0.00000000000E+00 -0.00000000000E+00  0.11368683772E-12  0.17120000000E+03  0.17120000000E+03 0.  0.
         13    1    1    2    0    0 -0.16863532341E+03 -0.14307177465E+03  0.12696840082E+04  0.12887997893E+04  0.10566000000E+00 0.  1.
        994    1    1    2    0    0  0.17367048694E+03  0.14740983604E+03  0.19221849730E+03  0.34372734616E+03  0.17120000000E+03 0.  0.
        998    1    1    2    0    0 -0.50351635341E+01 -0.43380613904E+01  0.38097490809E+02  0.38672864588E+02  0.10000000000E-02 0.  1.
</event>
<event>
 5    1  0.5722211E-009  0.3883005E+03  0.7957747E-01  0.3415794E+00
         13   -1    0    0    0    0  0.00000000000E+00  0.00000000000E+00  0.14999999963E+04  0.15000000000E+04  0.10566000000E+00 0.  1.
        994   -1    0    0    0    0 -0.00000000000E+00 -0.00000000000E+00  0.11368683772E-12  0.17120000000E+03  0.17120000000E+03 0.  0.
         13    1    1    2    0    0  0.11321275659E+03 -0.17844678454E+03  0.81689303444E+03  0.84378588756E+03  0.10566000000E+00 0.  1.
        994    1    1    2    0    0 -0.15687454076E+03  0.24826464442E+03  0.36481441440E+03  0.49864210829E+03  0.17120000000E+03 0.  0.
        998    1    1    2    0    0  0.43661784172E+02 -0.69817859878E+02  0.31829254744E+03  0.32877200415E+03  0.10000000000E-02 0.  1.
</event>
<event>
 5    1  0.5722211E-009  0.3873406E+03  0.7957747E-01  0.3419806E+00
         13   -1    0    0    0    0  0.00000000000E+00  0.00000000000E+00  0.14999999963E+04  0.15000000000E+04  0.10566000000E+00 0. -1.
        994   -1    0    0    0    0 -0.00000000000E+00 -0.00000000000E+00  0.11368683772E-12  0.17120000000E+03  0.17120000000E+03 0.  0.
         13    1    1    2    0    0 -0.13011124708E+03 -0.14240110478E+03  0.10654977271E+04  0.10828168954E+04  0.10566000000E+00 0. -1.
        994    1    1    2    0    0  0.14670904372E+03  0.16483110019E+03  0.17980688045E+03  0.33216379898E+03  0.17120000000E+03 0.  0.
        998    1    1    2    0    0 -0.16597796645E+02 -0.22429995415E+02  0.25469538874E+03  0.25621930566E+03  0.10000000000E-02 0. -1.
</event>
<event>
 5    1  0.5722211E-009  0.3877725E+03  0.7957747E-01  0.3417998E+00
         13   -1    0    0    0    0  0.00000000000E+00  0.00000000000E+00  0.14999999963E+04  0.15000000000E+04  0.10566000000E+00 0. -1.
        994   -1    0    0    0    0 -0.00000000000E+00 -0.00000000000E+00  0.11368683772E-12  0.17120000000E+03  0.17120000000E+03 0.  0.
         13    1    1    2    0    0 -0.21170242445E+03  0.30332154004E+02  0.12527082883E+04  0.12708328068E+04  0.10566000000E+00 0. -1.
        994    1    1    2    0    0  0.22098938954E+03 -0.37903064155E+02  0.18597132498E+03  0.33788715021E+03  0.17120000000E+03 0.  0.
        998    1    1    2    0    0 -0.92869650892E+01  0.75709101509E+01  0.61320382975E+02  0.62480042976E+02  0.10000000000E-02 0.  1.
</event>
<event>
 5    1  0.5722211E-009  0.3883010E+03  0.7957747E-01  0.3415792E+00
         13   -1    0    0    0    0  0.00000000000E+00  0.00000000000E+00  0.14999999963E+04  0.15000000000E+04  0.10566000000E+00 0. -1.
        994   -1    0    0    0    0 -0.00000000000E+00 -0.00000000000E+00  0.11368683772E-12  0.17120000000E+03  0.17120000000E+03 0.  0.
         13    1    1    2    0    0 -0.36207979737E+02 -0.21148955381E+03  0.12906706183E+04  0.13083843110E+04  0.10566000000E+00 0. -1.
        994    1    1    2    0    0  0.37102757775E+02  0.21673675827E+03  0.17718901700E+03  0.33023752780E+03  0.17120000000E+03 0.  0.
        998    1    1    2    0    0 -0.89477803789E+00 -0.52472044643E+01  0.32140360988E+02  0.32578161211E+02  0.10000000000E-02 0.  1.
</event>
<event>
 5    1  0.5722211E-009  0.3881502E+03  0.7957747E-01  0.3416421E+00
         13   -1    0    0    0    0  0.00000000000E+00  0.00000000000E+00  0.14999999963E+04  0.15000000000E+04  0.10566000000E+00 0.  1.
        994   -1    0    0    0    0 -0.00000000000E+00 -0.00000000000E+00  0.11368683772E-12  0.17120000000E+03  0.17120000000E+03 0.  0.
         13    1    1    2    0    0  0.11772595688E+03 -0.29557520719E+03  0.10236688382E+04  0.10719710843E+04  0.10566000000E+00 0.  1.
        994    1    1    2    0    0 -0.11859456438E+03  0.29594544481E+03  0.47181539408E+03  0.59461549181E+03  0.17120000000E+03 0.  0.
        998    1    1    2    0    0  0.86860750351E+00 -0.37023762067E+00  0.45157639574E+01  0.46134238923E+01  0.10000000000E-02 0.  1.
</event>
<event>
 5    1  0.5722211E-009  0.3882982E+03  0.7957747E-01  0.3415804E+00
         13   -1    0    0    0    0  0.00000000000E+00  0.00000000000E+00  0.14999999963E+04  0.15000000000E+04  0.10566000000E+00 0. -1.
        994   -1    0    0    0    0 -0.00000000000E+00 -0.00000000000E+00  0.11368683772E-12  0.17120000000E+03  0.17120000000E+03 0.  0.
         13    1    1    2    0    0 -0.15924603628E+03  0.20518662572E+02  0.88213074365E+03  0.89662421094E+03  0.10566000000E+00 0. -1.
        994    1    1    2    0    0  0.23312587938E+03 -0.28748926716E+02  0.20650792590E+03  0.35655173521E+03  0.17120000000E+03 0.  0.
        998    1    1    2    0    0 -0.73879843097E+02  0.82302641434E+01  0.41136132673E+03  0.41802405385E+03  0.10000000000E-02 0. -1.
</event>
<event>
 5    1  0.5722211E-009  0.3861354E+03  0.7957747E-01  0.3424871E+00
         13   -1    0    0    0    0  0.00000000000E+00  0.00000000000E+00  0.14999999963E+04  0.15000000000E+04  0.10566000000E+00 0.  1.
        994   -1    0    0    0    0 -0.00000000000E+00 -0.00000000000E+00  0.11368683772E-12  0.17120000000E+03  0.17120000000E+03 0.  0.
         13    1    1    2    0    0 -0.15393252838E+03  0.25619219298E+03  0.82055882935E+03  0.87329632235E+03  0.10566000000E+00 0.  1.
        994    1    1    2    0    0  0.16388720689E+03 -0.28394334952E+03  0.53445049203E+03  0.64994585216E+03  0.17120000000E+03 0.  0.
        998    1    1    2    0    0 -0.99546785162E+01  0.27751156545E+02  0.14499067490E+03  0.14795782549E+03  0.10000000000E-02 0.  1.
</event>
<event>
 5    1  0.5722211E-009  0.3861534E+03  0.7957747E-01  0.3424795E+00
         13   -1    0    0    0    0  0.00000000000E+00  0.00000000000E+00  0.14999999963E+04  0.15000000000E+04  0.10566000000E+00 0. -1.
        994   -1    0    0    0    0 -0.00000000000E+00 -0.00000000000E+00  0.11368683772E-12  0.17120000000E+03  0.17120000000E+03 0.  0.
         13    1    1    2    0    0  0.13062912531E+03  0.82804207945E+01  0.67403662313E+03  0.68662792999E+03  0.10566000000E+00 0. -1.
        994    1    1    2    0    0 -0.21093325219E+03 -0.47371513300E+02  0.17302119415E+03  0.32554979769E+03  0.17120000000E+03 0.  0.
        998    1    1    2    0    0  0.80304126878E+02  0.39091092506E+02  0.65294217899E+03  0.65902227232E+03  0.10000000000E-02 0. -1.
</event>
<event>
 5    1  0.5722211E-009  0.3862562E+03  0.7957747E-01  0.3424362E+00
         13   -1    0    0    0    0  0.00000000000E+00  0.00000000000E+00  0.14999999963E+04  0.15000000000E+04  0.10566000000E+00 0.  1.
        994   -1    0    0    0    0 -0.00000000000E+00 -0.00000000000E+00  0.11368683772E-12  0.17120000000E+03  0.17120000000E+03 0.  0.
         13    1    1    2    0    0  0.96267408587E+02  0.37861547209E+02  0.49021737053E+03  0.50101296614E+03  0.10566000000E+00 0.  1.
        994    1    1    2    0    0 -0.28121342286E+03 -0.98865625339E+02  0.38679720833E+03  0.51747166245E+03  0.17120000000E+03 0.  0.
        998    1    1    2    0    0  0.18494601427E+03  0.61004078130E+02  0.62298541743E+03  0.65271537141E+03  0.10000000000E-02 0. -1.
</event>
<event>
 5    1  0.5722211E-009  0.3883003E+03  0.7957747E-01  0.3415795E+00
         13   -1    0    0    0    0  0.00000000000E+00  0.00000000000E+00  0.14999999963E+04  0.15000000000E+04  0.10566000000E+00 0.  1.
        994   -1    0    0    0    0 -0.00000000000E+00 -0.00000000000E+00  0.11368683772E-12  0.17120000000E+03  0.17120000000E+03 0.  0.
         13    1    1    2    0    0  0.15766251909E+03  0.17155003023E+03  0.12971925026E+04  0.13179511686E+04  0.10566000000E+00 0.  1.
        994    1    1    2    0    0 -0.15768319756E+03 -0.17157599516E+03  0.20267734441E+03  0.35311451237E+03  0.17120000000E+03 0.  0.
        998    1    1    2    0    0  0.20678472493E-01  0.25964923404E-01  0.13014923713E+00  0.13431902471E+00  0.10000000000E-02 0.  1.
</event>
<event>
 5    1  0.5722211E-009  0.3882708E+03  0.7957747E-01  0.3415918E+00
         13   -1    0    0    0    0  0.00000000000E+00  0.00000000000E+00  0.14999999963E+04  0.15000000000E+04  0.10566000000E+00 0.  1.
        994   -1    0    0    0    0 -0.00000000000E+00 -0.00000000000E+00  0.11368683772E-12  0.17120000000E+03  0.17120000000E+03 0.  0.
         13    1    1    2    0    0 -0.32602019677E+02 -0.18932401246E+03  0.70132236498E+03  0.72715854128E+03  0.10566000000E+00 0.  1.
        994    1    1    2    0    0  0.52518546684E+02  0.29514443862E+03  0.38739036839E+03  0.51889225752E+03  0.17120000000E+03 0.  0.
        998    1    1    2    0    0 -0.19916527007E+02 -0.10582042617E+03  0.41128726291E+03  0.42514920119E+03  0.10000000000E-02 0. -1.
</event>
<event>
 5    1  0.5722211E-009  0.3883009E+03  0.7957747E-01  0.3415792E+00
         13   -1    0    0    0    0  0.00000000000E+00  0.00000000000E+00  0.14999999963E+04  0.15000000000E+04  0.10566000000E+00 0.  1.
        994   -1    0    0    0    0 -0.00000000000E+00 -0.00000000000E+00  0.11368683772E-12  0.17120000000E+03  0.17120000000E+03 0.  0.
         13    1    1    2    0    0  0.10008034893E+03 -0.20091456316E+03  0.13141829825E+04  0.13332140341E+04  0.10566000000E+00 0.  1.
        994    1    1    2    0    0 -0.10008238150E+03  0.20092084118E+03  0.18578076721E+03  0.33794911003E+03  0.17120000000E+03 0.  0.
        998    1    1    2    0    0  0.20325706605E-02 -0.62780161217E-02  0.36246544261E-01  0.36855892348E-01  0.10000000000E-02 0.  1.
</event>
<event>
 5    1  0.5722211E-009  0.3883004E+03  0.7957747E-01  0.3415794E+00
         13   -1    0    0    0    0  0.00000000000E+00  0.00000000000E+00  0.14999999963E+04  0.15000000000E+04  0.10566000000E+00 0. -1.
        994   -1    0    0    0    0 -0.00000000000E+00 -0.00000000000E+00  0.11368683772E-12  0.17120000000E+03  0.17120000000E+03 0.  0.
         13    1    1    2    0    0 -0.62830154300E+02 -0.21291280210E+03  0.11930478830E+04  0.12135249284E+04  0.10566000000E+00 0. -1.
        994    1    1    2    0    0  0.67422230851E+02  0.22938546311E+03  0.21533341462E+03  0.36447409695E+03  0.17120000000E+03 0.  0.
        998    1    1    2    0    0 -0.45920765503E+01 -0.16472661011E+02  0.91618698690E+02  0.93200974664E+02  0.10000000000E-02 0. -1.
</event>
<event>
 5    1  0.5722211E-009  0.3883006E+03  0.7957747E-01  0.3415793E+00
         13   -1    0    0    0    0  0.00000000000E+00  0.00000000000E+00  0.14999999963E+04  0.15000000000E+04  0.10566000000E+00 0.  1.
        994   -1    0    0    0    0 -0.00000000000E+00 -0.00000000000E+00  0.11368683772E-12  0.17120000000E+03  0.17120000000E+03 0.  0.
         13    1    1    2    0    0 -0.17908528744E+03 -0.14025778573E+03  0.11949260490E+04  0.12163848323E+04  0.10566000000E+00 0.  1.
        994    1    1    2    0    0  0.19120162306E+03  0.14997557619E+03  0.22383609852E+03  0.37210586278E+03  0.17120000000E+03 0.  0.
        998    1    1    2    0    0 -0.12116335623E+02 -0.97177904593E+01  0.81237848795E+02  0.82709304907E+02  0.10000000000E-02 0. -1.
</event>
<event>
 5    1  0.5722211E-009  0.3883005E+03  0.7957747E-01  0.3415794E+00
         13   -1    0    0    0    0  0.00000000000E+00  0.00000000000E+00  0.14999999963E+04  0.15000000000E+04  0.10566000000E+00 0. -1.
        994   -1    0    0    0    0 -0.00000000000E+00 -0.00000000000E+00  0.11368683772E-12  0.17120000000E+03  0.17120000000E+03 0.  0.
         13    1    1    2    0    0 -0.25065510380E+03 -0.43634709056E+02  0.12491103300E+04  0.12747582503E+04  0.10566000000E+00 0. -1.
        994    1    1    2    0    0  0.25073746998E+03  0.43636969468E+02  0.25043747554E+03  0.39598211211E+03  0.17120000000E+03 0.  0.
        998    1    1    2    0    0 -0.82366184749E-01 -0.22604122687E-02  0.45219071816E+00  0.45963762188E+00  0.10000000000E-02 0.  1.
</event>
<event>
 5    1  0.5722211E-009  0.3883008E+03  0.7957747E-01  0.3415793E+00
         13   -1    0    0    0    0  0.00000000000E+00  0.00000000000E+00  0.14999999963E+04  0.15000000000E+04  0.10566000000E+00 0.  1.
        994   -1    0    0    0    0 -0.00000000000E+00 -0.00000000000E+00  0.11368683772E-12  0.17120000000E+03  0.17120000000E+03 0.  0.
         13    1    1    2    0    0  0.12959809444E+03  0.21578408643E+03  0.12319505149E+04  0.12574022906E+04  0.10566000000E+00 0.  1.
        994    1    1    2    0    0 -0.13134021342E+03 -0.21859239642E+03  0.25167402843E+03  0.39709211024E+03  0.17120000000E+03 0.  0.
        998    1    1    2    0    0  0.17421189746E+01  0.28083099892E+01  0.16375452954E+02  0.16705599180E+02  0.10000000000E-02 0.  1.
</event>
<event>
 5    1  0.5722211E-009  0.3881400E+03  0.7957747E-01  0.3416463E+00
         13   -1    0    0    0    0  0.00000000000E+00  0.00000000000E+00  0.14999999963E+04  0.15000000000E+04  0.10566000000E+00 0.  1.
        994   -1    0    0    0    0 -0.00000000000E+00 -0.00000000000E+00  0.11368683772E-12  0.17120000000E+03  0.17120000000E+03 0.  0.
         13    1    1    2    0    0  0.23125162300E+03 -0.34474654505E+02  0.12593093584E+04  0.12808301552E+04  0.10566000000E+00 0.  1.
        994    1    1    2    0    0 -0.23431751881E+03  0.35153591632E+02  0.21100288211E+03  0.36051647797E+03  0.17120000000E+03 0.  0.
        998    1    1    2    0    0  0.30658958057E+01 -0.67893712701E+00  0.29687755732E+02  0.29853366881E+02  0.10000000000E-02 0. -1.
</event>
<event>
 5    1  0.5722211E-009  0.3883010E+03  0.7957747E-01  0.3415792E+00
         13   -1    0    0    0    0  0.00000000000E+00  0.00000000000E+00  0.14999999963E+04  0.15000000000E+04  0.10566000000E+00 0.  1.
        994   -1    0    0    0    0 -0.00000000000E+00 -0.00000000000E+00  0.11368683772E-12  0.17120000000E+03  0.17120000000E+03 0.  0.
         13    1    1    2    0    0 -0.20318372286E+03  0.12154436399E+03  0.12606230264E+04  0.12826640571E+04  0.10566000000E+00 0.  1.
        994    1    1    2    0    0  0.20652118309E+03 -0.12354907420E+03  0.21870513046E+03  0.36750067604E+03  0.17120000000E+03 0.  0.
        998    1    1    2    0    0 -0.33374602348E+01  0.20047102087E+01  0.20671839454E+02  0.21035266845E+02  0.10000000000E-02 0.  1.
</event>
<event>
 5    1  0.5722211E-009  0.3744399E+03  0.7957747E-01  0.3475731E+00
         13   -1    0    0    0    0  0.00000000000E+00  0.00000000000E+00  0.14999999963E+04  0.15000000000E+04  0.10566000000E+00 0.  1.
        994   -1    0    0    0    0 -0.00000000000E+00 -0.00000000000E+00  0.11368683772E-12  0.17120000000E+03  0.17120000000E+03 0.  0.
         13    1    1    2    0    0  0.12240462899E+02 -0.56609298440E+02  0.19566370910E+03  0.20405572725E+03  0.10566000000E+00 0.  1.
        994    1    1    2    0    0 -0.18103707280E+03  0.56044389298E+02  0.14120423519E+03  0.29182781111E+03  0.17120000000E+03 0.  0.
        998    1    1    2    0    0  0.16879660990E+03  0.56490914235E+00  0.11631320520E+04  0.11753164616E+04  0.10000000000E-02 0.  1.
</event>
<event>
 5    1  0.5722211E-009  0.3883010E+03  0.7957747E-01  0.3415792E+00
         13   -1    0    0    0    0  0.00000000000E+00  0.00000000000E+00  0.14999999963E+04  0.15000000000E+04  0.10566000000E+00 0.  1.
        994   -1    0    0    0    0 -0.00000000000E+00 -0.00000000000E+00  0.11368683772E-12  0.17120000000E+03  0.17120000000E+03 0.  0.
         13    1    1    2    0    0 -0.26880020695E+03  0.74605880224E+02  0.11829340658E+04  0.12153816701E+04  0.10566000000E+00 0.  1.
        994    1    1    2    0    0  0.26885896176E+03 -0.74622315482E+02  0.31681429492E+03  0.45555940200E+03  0.17120000000E+03 0.  0.
        998    1    1    2    0    0 -0.58754806771E-01  0.16435258483E-01  0.25163551871E+00  0.25892794232E+00  0.10000000000E-02 0. -1.
</event>
<event>
 5    1  0.5722211E-009  0.3882907E+03  0.7957747E-01  0.3415835E+00
         13   -1    0    0    0    0  0.00000000000E+00  0.00000000000E+00  0.14999999963E+04  0.15000000000E+04  0.10566000000E+00 0.  1.
        994   -1    0    0    0    0 -0.00000000000E+00 -0.00000000000E+00  0.11368683772E-12  0.17120000000E+03  0.17120000000E+03 0.  0.
         13    1    1    2    0    0 -0.17598602949E+03 -0.16081656368E+03  0.12854917120E+04  0.13074104185E+04  0.10566000000E+00 0.  1.
        994    1    1    2    0    0  0.17609713028E+03  0.16081817094E+03  0.21404835769E+03  0.36331642246E+03  0.17120000000E+03 0.  0.
        998    1    1    2    0    0 -0.11110079838E+00 -0.16072617818E-02  0.45992661186E+00  0.47315902083E+00  0.10000000000E-02 0.  1.
</event>
<event>
 5    1  0.5722211E-009  0.3881754E+03  0.7957747E-01  0.3416316E+00
         13   -1    0    0    0    0  0.00000000000E+00  0.00000000000E+00  0.14999999963E+04  0.15000000000E+04  0.10566000000E+00 0.  1.
        994   -1    0    0    0    0 -0.00000000000E+00 -0.00000000000E+00  0.11368683772E-12  0.17120000000E+03  0.17120000000E+03 0.  0.
         13    1    1    2    0    0 -0.11418556069E+03  0.17590366677E+03  0.11255083684E+04  0.11448797058E+04  0.10566000000E+00 0.  1.
        994    1    1    2    0    0  0.12625351823E+03 -0.20378853987E+03  0.21688555911E+03  0.36581211790E+03  0.17120000000E+03 0.  0.
        998    1    1    2    0    0 -0.12067957543E+02  0.27884873102E+02  0.15760606874E+03  0.16050817628E+03  0.10000000000E-02 0. -1.
</event>
<event>
 5    1  0.5722211E-009  0.3883009E+03  0.7957747E-01  0.3415792E+00
         13   -1    0    0    0    0  0.00000000000E+00  0.00000000000E+00  0.14999999963E+04  0.15000000000E+04  0.10566000000E+00 0.  1.
        994   -1    0    0    0    0 -0.00000000000E+00 -0.00000000000E+00  0.11368683772E-12  0.17120000000E+03  0.17120000000E+03 0.  0.
         13    1    1    2    0    0  0.33268449622E+03  0.73372471933E+02  0.55954205727E+03  0.65509527450E+03  0.10566000000E+00 0.  1.
        994    1    1    2    0    0 -0.33440671325E+03 -0.73733953134E+02  0.93754304675E+03  0.10126998322E+04  0.17120000000E+03 0.  0.
        998    1    1    2    0    0  0.17222170381E+01  0.36148120125E+00  0.29148922620E+01  0.34048932559E+01  0.10000000000E-02 0.  1.
</event>
<event>
 5    1  0.5722211E-009  0.3883010E+03  0.7957747E-01  0.3415792E+00
         13   -1    0    0    0    0  0.00000000000E+00  0.00000000000E+00  0.14999999963E+04  0.15000000000E+04  0.10566000000E+00 0. -1.
        994   -1    0    0    0    0 -0.00000000000E+00 -0.00000000000E+00  0.11368683772E-12  0.17120000000E+03  0.17120000000E+03 0.  0.
         13    1    1    2    0    0 -0.22743592917E+03  0.48172150721E+02  0.12955219849E+04  0.13162161230E+04  0.10566000000E+00 0. -1.
        994    1    1    2    0    0  0.22780708974E+03 -0.48252106795E+02  0.20233535093E+03  0.35280783747E+03  0.17120000000E+03 0.  0.
        998    1    1    2    0    0 -0.37116056878E+00  0.79956074064E-01  0.21426604914E+01  0.21760395500E+01  0.10000000000E-02 0. -1.
</event>
<event>
 5    1  0.5722211E-009  0.3882928E+03  0.7957747E-01  0.3415826E+00
         13   -1    0    0    0    0  0.00000000000E+00  0.00000000000E+00  0.14999999963E+04  0.15000000000E+04  0.10566000000E+00 0. -1.
        994   -1    0    0    0    0 -0.00000000000E+00 -0.00000000000E+00  0.11368683772E-12  0.17120000000E+03  0.17120000000E+03 0.  0.
         13    1    1    2    0    0  0.24025515583E+03 -0.89712212970E-01  0.12746206409E+04  0.12970660497E+04  0.10566000000E+00 0. -1.
        994    1    1    2    0    0 -0.24139780191E+03  0.20503776443E+00  0.22032794824E+03  0.36895363609E+03  0.17120000000E+03 0.  0.
        998    1    1    2    0    0  0.11426460853E+01 -0.11532555146E+00  0.50514071524E+01  0.51803142065E+01  0.10000000000E-02 0.  1.
</event>
<event>
 5    1  0.5722211E-009  0.3880736E+03  0.7957747E-01  0.3416740E+00
         13   -1    0    0    0    0  0.00000000000E+00  0.00000000000E+00  0.14999999963E+04  0.15000000000E+04  0.10566000000E+00 0. -1.
        994   -1    0    0    0    0 -0.00000000000E+00 -0.00000000000E+00  0.11368683772E-12  0.17120000000E+03  0.17120000000E+03 0.  0.
         13    1    1    2    0    0  0.28988593224E+03  0.56770918664E+02  0.10758143201E+04  0.11156313251E+04  0.10566000000E+00 0. -1.
        994    1    1    2    0    0 -0.29590649302E+03 -0.56209955541E+02  0.39345381457E+03  0.52424760935E+03  0.17120000000E+03 0.  0.
        998    1    1    2    0    0  0.60205607778E+01 -0.56096312325E+00  0.30731861568E+02  0.31321065565E+02  0.10000000000E-02 0. -1.
</event>
<event>
 5    1  0.5722211E-009  0.3882806E+03  0.7957747E-01  0.3415877E+00
         13   -1    0    0    0    0  0.00000000000E+00  0.00000000000E+00  0.14999999963E+04  0.15000000000E+04  0.10566000000E+00 0.  1.
        994   -1    0    0    0    0 -0.00000000000E+00 -0.00000000000E+00  0.11368683772E-12  0.17120000000E+03  0.17120000000E+03 0.  0.
         13    1    1    2    0    0  0.42264602338E+02 -0.23539440579E+03  0.11496687085E+04  0.11742806196E+04  0.10566000000E+00 0.  1.
        994    1    1    2    0    0 -0.45033136717E+02  0.25504128348E+03  0.26154278362E+03  0.40594101462E+03  0.17120000000E+03 0.  0.
        998    1    1    2    0    0  0.27685343796E+01 -0.19646877690E+02  0.88788504112E+02  0.90978365829E+02  0.10000000000E-02 0. -1.
</event>
<event>
 5    1  0.5722211E-009  0.3882797E+03  0.7957747E-01  0.3415881E+00
         13   -1    0    0    0    0  0.00000000000E+00  0.00000000000E+00  0.14999999963E+04  0.15000000000E+04  0.10566000000E+00 0.  1.
        994   -1    0    0    0    0 -0.00000000000E+00 -0.00000000000E+00  0.11368683772E-12  0.17120000000E+03  0.17120000000E+03 0.  0.
         13    1    1    2    0    0  0.15065366883E+03  0.28307948316E+03  0.10164141363E+04  0.10657993382E+04  0.10566000000E+00 0.  1.
        994    1    1    2    0    0 -0.15074306784E+03 -0.28329389230E+03  0.48217649092E+03  0.60397227611E+03  0.17120000000E+03 0.  0.
        998    1    1    2    0    0  0.89399005890E-01  0.21440913710E+00  0.14093690950E+01  0.14283856994E+01  0.10000000000E-02 0. -1.
</event>
<event>
 5    1  0.5722211E-009  0.3883009E+03  0.7957747E-01  0.3415792E+00
         13   -1    0    0    0    0  0.00000000000E+00  0.00000000000E+00  0.14999999963E+04  0.15000000000E+04  0.10566000000E+00 0. -1.
        994   -1    0    0    0    0 -0.00000000000E+00 -0.00000000000E+00  0.11368683772E-12  0.17120000000E+03  0.17120000000E+03 0.  0.
         13    1    1    2    0    0  0.22097016852E+03 -0.92071472386E+02  0.12807417857E+04  0.13029215265E+04  0.10566000000E+00 0. -1.
        994    1    1    2    0    0 -0.22136984914E+03  0.92246846269E+02  0.21690283943E+03  0.36588300385E+03  0.17120000000E+03 0.  0.
        998    1    1    2    0    0  0.39968062688E+00 -0.17537388352E+00  0.23553711759E+01  0.23954696781E+01  0.10000000000E-02 0. -1.
</event>
<event>
 5    1  0.5722211E-009  0.3882913E+03  0.7957747E-01  0.3415832E+00
         13   -1    0    0    0    0  0.00000000000E+00  0.00000000000E+00  0.14999999963E+04  0.15000000000E+04  0.10566000000E+00 0.  1.
        994   -1    0    0    0    0 -0.00000000000E+00 -0.00000000000E+00  0.11368683772E-12  0.17120000000E+03  0.17120000000E+03 0.  0.
         13    1    1    2    0    0 -0.20603275377E+03  0.68778886984E+02  0.12012759922E+04  0.12207555249E+04  0.10566000000E+00 0.  1.
        994    1    1    2    0    0  0.22231943991E+03 -0.75067496853E+02  0.20601935408E+03  0.35611020303E+03  0.17120000000E+03 0.  0.
        998    1    1    2    0    0 -0.16286686136E+02  0.62886098688E+01  0.92704650006E+02  0.94334272102E+02  0.10000000000E-02 0. -1.
</event>
<event>
 5    1  0.5722211E-009  0.3833324E+03  0.7957747E-01  0.3436776E+00
         13   -1    0    0    0    0  0.00000000000E+00  0.00000000000E+00  0.14999999963E+04  0.15000000000E+04  0.10566000000E+00 0. -1.
        994   -1    0    0    0    0 -0.00000000000E+00 -0.00000000000E+00  0.11368683772E-12  0.17120000000E+03  0.17120000000E+03 0.  0.
         13    1    1    2    0    0  0.28380416078E+03  0.26243017099E+02  0.71758509185E+03  0.77211519402E+03  0.10566000000E+00 0. -1.
        994    1    1    2    0    0 -0.32693899034E+03 -0.21191053374E+02  0.55022949757E+03  0.66287261533E+03  0.17120000000E+03 0.  0.
        998    1    1    2    0    0  0.43134829560E+02 -0.50519637241E+01  0.23218540685E+03  0.23621219065E+03  0.10000000000E-02 0.  1.
</event>
<event>
 5    1  0.5722211E-009  0.3835084E+03  0.7957747E-01  0.3436023E+00
         13   -1    0    0    0    0  0.00000000000E+00  0.00000000000E+00  0.14999999963E+04  0.15000000000E+04  0.10566000000E+00 0.  1.
        994   -1    0    0    0    0 -0.00000000000E+00 -0.00000000000E+00  0.11368683772E-12  0.17120000000E+03  0.17120000000E+03 0.  0.
         13    1    1    2    0    0  0.10805766554E+03  0.63943567418E+02  0.60190389094E+03  0.61486058906E+03  0.10566000000E+00 0.  1.
        994    1    1    2    0    0 -0.17661127308E+03 -0.77914738612E+02  0.13718389210E+03  0.29221757053E+03  0.17120000000E+03 0.  0.
        998    1    1    2    0    0  0.68553607544E+02  0.13971171193E+02  0.76091221324E+03  0.76412184041E+03  0.10000000000E-02 0.  1.
</event>
<event>
 5    1  0.5722211E-009  0.3882028E+03  0.7957747E-01  0.3416201E+00
         13   -1    0    0    0    0  0.00000000000E+00  0.00000000000E+00  0.14999999963E+04  0.15000000000E+04  0.10566000000E+00 0.  1.
        994   -1    0    0    0    0 -0.00000000000E+00 -0.00000000000E+00  0.11368683772E-12  0.17120000000E+03  0.17120000000E+03 0.  0.
         13    1    1    2    0    0 -0.62026761665E+01 -0.34318644283E+02  0.19861278648E+03  0.20165141372E+03  0.10566000000E+00 0.  1.
        994    1    1    2    0    0  0.15921723868E+02  0.21622589249E+03  0.17169381004E+03  0.32526195947E+03  0.17120000000E+03 0.  0.
        998    1    1    2    0    0 -0.97190477015E+01 -0.18190724821E+03  0.11296933998E+04  0.11442866268E+04  0.10000000000E-02 0.  1.
</event>
<event>
 5    1  0.5722211E-009  0.3883001E+03  0.7957747E-01  0.3415795E+00
         13   -1    0    0    0    0  0.00000000000E+00  0.00000000000E+00  0.14999999963E+04  0.15000000000E+04  0.10566000000E+00 0. -1.
        994   -1    0    0    0    0 -0.00000000000E+00 -0.00000000000E+00  0.11368683772E-12  0.17120000000E+03  0.17120000000E+03 0.  0.
         13    1    1    2    0    0 -0.22517289897E+03 -0.13597137325E+03  0.12277680782E+04  0.12556295288E+04  0.10566000000E+00 0. -1.
        994    1    1    2    0    0  0.22521016709E+03  0.13598216067E+03  0.27200280828E+03  0.41533809733E+03  0.17120000000E+03 0.  0.
        998    1    1    2    0    0 -0.37268121963E-01 -0.10787415149E-01  0.22910982716E+00  0.23237382414E+00  0.10000000000E-02 0.  1.
</event>
<event>
 5    1  0.9191025E-009  0.3883008E+03  0.7957747E-01  0.3415793E+00
         13   -1    0    0    0    0  0.00000000000E+00  0.00000000000E+00  0.14999999963E+04  0.15000000000E+04  0.10566000000E+00 0.  1.
        994   -1    0    0    0    0 -0.00000000000E+00 -0.00000000000E+00  0.11368683772E-12  0.17120000000E+03  0.17120000000E+03 0.  0.
         13    1    1    2    0    0 -0.25082635643E+03 -0.38443795833E+02  0.12513107255E+04  0.12767812379E+04  0.10566000000E+00 0.  1.
        994    1    1    2    0    0  0.25083311290E+03  0.38445327685E+02  0.24863886490E+03  0.39436787253E+03  0.17120000000E+03 0.  0.
        998    1    1    2    0    0 -0.67564701285E-02 -0.15318517072E-02  0.50405884669E-01  0.50889583094E-01  0.10000000000E-02 0. -1.
</event>
<event>
 5    1  0.5722211E-009  0.3882549E+03  0.7957747E-01  0.3415984E+00
         13   -1    0    0    0    0  0.00000000000E+00  0.00000000000E+00  0.14999999963E+04  0.15000000000E+04  0.10566000000E+00 0. -1.
        994   -1    0    0    0    0 -0.00000000000E+00 -0.00000000000E+00  0.11368683772E-12  0.17120000000E+03  0.17120000000E+03 0.  0.
         13    1    1    2    0    0  0.26655319513E+03 -0.80832980660E+02  0.10851306248E+04  0.11203093594E+04  0.10566000000E+00 0. -1.
        994    1    1    2    0    0 -0.27877210583E+03  0.85083387208E+02  0.35719563660E+03  0.49178372540E+03  0.17120000000E+03 0.  0.
        998    1    1    2    0    0  0.12218910698E+02 -0.42504065480E+01  0.57673734855E+02  0.59106915227E+02  0.10000000000E-02 0. -1.
</event>
<event>
 5    1  0.5722211E-009  0.3882991E+03  0.7957747E-01  0.3415800E+00
         13   -1    0    0    0    0  0.00000000000E+00  0.00000000000E+00  0.14999999963E+04  0.15000000000E+04  0.10566000000E+00 0. -1.
        994   -1    0    0    0    0 -0.00000000000E+00 -0.00000000000E+00  0.11368683772E-12  0.17120000000E+03  0.17120000000E+03 0.  0.
         13    1    1    2    0    0 -0.21283945760E+03 -0.10763104017E+03  0.12855315554E+04  0.13074694897E+04  0.10566000000E+00 0. -1.
        994    1    1    2    0    0  0.21290197386E+03  0.10764269042E+03  0.21422165791E+03  0.36347566355E+03  0.17120000000E+03 0.  0.
        998    1    1    2    0    0 -0.62516255598E-01 -0.11650252260E-01  0.24678301470E+00  0.25484675186E+00  0.10000000000E-02 0.  1.
</event>
<event>
 5    1  0.5722211E-009  0.3883009E+03  0.7957747E-01  0.3415792E+00
         13   -1    0    0    0    0  0.00000000000E+00  0.00000000000E+00  0.14999999963E+04  0.15000000000E+04  0.10566000000E+00 0.  1.
        994   -1    0    0    0    0 -0.00000000000E+00 -0.00000000000E+00  0.11368683772E-12  0.17120000000E+03  0.17120000000E+03 0.  0.
         13    1    1    2    0    0 -0.37764106991E+02 -0.27701840394E+02  0.23912069454E+03  0.24366418994E+03  0.10566000000E+00 0.  1.
        994    1    1    2    0    0  0.19998056904E+03  0.14591690330E+03  0.23406523397E+03  0.38128722037E+03  0.17120000000E+03 0.  0.
        998    1    1    2    0    0 -0.16221646205E+03 -0.11821506291E+03  0.10268140678E+04  0.10462485897E+04  0.10000000000E-02 0.  1.
</event>
<event>
 5    1  0.5722211E-009  0.3882972E+03  0.7957747E-01  0.3415808E+00
         13   -1    0    0    0    0  0.00000000000E+00  0.00000000000E+00  0.14999999963E+04  0.15000000000E+04  0.10566000000E+00 0. -1.
        994   -1    0    0    0    0 -0.00000000000E+00 -0.00000000000E+00  0.11368683772E-12  0.17120000000E+03  0.17120000000E+03 0.  0.
         13    1    1    2    0    0  0.19886890420E+03  0.16153715995E+03  0.12077897736E+04  0.12346656404E+04  0.10566000000E+00 0. -1.
        994    1    1    2    0    0 -0.20316911042E+03 -0.16477666144E+03  0.26814432777E+03  0.41187359238E+03  0.17120000000E+03 0.  0.
        998    1    1    2    0    0  0.43002062157E+01  0.32395014869E+01  0.24065894888E+02  0.24660767246E+02  0.10000000000E-02 0. -1.
</event>
<event>
 5    1  0.5722211E-009  0.3882971E+03  0.7957747E-01  0.3415808E+00
         13   -1    0    0    0    0  0.00000000000E+00  0.00000000000E+00  0.14999999963E+04  0.15000000000E+04  0.10566000000E+00 0. -1.
        994   -1    0    0    0    0 -0.00000000000E+00 -0.00000000000E+00  0.11368683772E-12  0.17120000000E+03  0.17120000000E+03 0.  0.
         13    1    1    2    0    0  0.14096759322E+03  0.29157188191E+03  0.10005985389E+04  0.10517050309E+04  0.10566000000E+00 0. -1.
        994    1    1    2    0    0 -0.14103125122E+03 -0.29164565130E+03  0.49897632285E+03  0.61905881022E+03  0.17120000000E+03 0.  0.
        998    1    1    2    0    0  0.63658000411E-01  0.73769393967E-01  0.42513448737E+00  0.43615891239E+00  0.10000000000E-02 0.  1.
</event>
<event>
 5    1  0.5722211E-009  0.3875660E+03  0.7957747E-01  0.3418862E+00
         13   -1    0    0    0    0  0.00000000000E+00  0.00000000000E+00  0.14999999963E+04  0.15000000000E+04  0.10566000000E+00 0.  1.
        994   -1    0    0    0    0 -0.00000000000E+00 -0.00000000000E+00  0.11368683772E-12  0.17120000000E+03  0.17120000000E+03 0.  0.
         13    1    1    2    0    0 -0.16754824934E+03  0.21971101807E+03  0.10613870823E+04  0.10967624615E+04  0.10566000000E+00 0.  1.
        994    1    1    2    0    0  0.17840301097E+03 -0.22830180977E+03  0.35301603027E+03  0.48772851905E+03  0.17120000000E+03 0.  0.
        998    1    1    2    0    0 -0.10854761632E+02  0.85907917056E+01  0.85596883732E+02  0.86709019472E+02  0.10000000000E-02 0.  1.
</event>
<event>
 5    1  0.5722211E-009  0.3883010E+03  0.7957747E-01  0.3415792E+00
         13   -1    0    0    0    0  0.00000000000E+00  0.00000000000E+00  0.14999999963E+04  0.15000000000E+04  0.10566000000E+00 0. -1.
        994   -1    0    0    0    0 -0.00000000000E+00 -0.00000000000E+00  0.11368683772E-12  0.17120000000E+03  0.17120000000E+03 0.  0.
         13    1    1    2    0    0 -0.72203995226E+02  0.27089421274E+03  0.11769719272E+04  0.12099008306E+04  0.10566000000E+00 0. -1.
        994    1    1    2    0    0  0.72283173867E+02 -0.27118151110E+03  0.32178535097E+03  0.46002121830E+03  0.17120000000E+03 0.  0.
        998    1    1    2    0    0 -0.79178640493E-01  0.28729835683E+00  0.12427181390E+01  0.12779510851E+01  0.10000000000E-02 0. -1.
</event>
<event>
 5    1  0.5722211E-009  0.3883010E+03  0.7957747E-01  0.3415792E+00
         13   -1    0    0    0    0  0.00000000000E+00  0.00000000000E+00  0.14999999963E+04  0.15000000000E+04  0.10566000000E+00 0. -1.
        994   -1    0    0    0    0 -0.00000000000E+00 -0.00000000000E+00  0.11368683772E-12  0.17120000000E+03  0.17120000000E+03 0.  0.
         13    1    1    2    0    0 -0.18044929752E+03  0.12687448728E+03  0.13167654865E+04  0.13351143929E+04  0.10566000000E+00 0. -1.
        994    1    1    2    0    0  0.18094573319E+03 -0.12722340963E+03  0.17960832146E+03  0.33240900026E+03  0.17120000000E+03 0.  0.
        998    1    1    2    0    0 -0.49643567059E+00  0.34892234659E+00  0.36261883539E+01  0.36766068810E+01  0.10000000000E-02 0.  0.
</event>
<event>
 5    1  0.5722211E-009  0.3883010E+03  0.7957747E-01  0.3415792E+00
         13   -1    0    0    0    0  0.00000000000E+00  0.00000000000E+00  0.14999999963E+04  0.15000000000E+04  0.10566000000E+00 0.  1.
        994   -1    0    0    0    0 -0.00000000000E+00 -0.00000000000E+00  0.11368683772E-12  0.17120000000E+03  0.17120000000E+03 0.  0.
         13    1    1    2    0    0  0.21460198091E+03 -0.14042536219E+03  0.12055204541E+04  0.12324986284E+04  0.10566000000E+00 0.  1.
        994    1    1    2    0    0 -0.21914093168E+03  0.14339846450E+03  0.26891042849E+03  0.41256287534E+03  0.17120000000E+03 0.  0.
        998    1    1    2    0    0  0.45389507731E+01 -0.29731023025E+01  0.25569113650E+02  0.26138496232E+02  0.10000000000E-02 0.  1.
</event>
<event>
 5    1  0.5722211E-009  0.3883009E+03  0.7957747E-01  0.3415792E+00
         13   -1    0    0    0    0  0.00000000000E+00  0.00000000000E+00  0.14999999963E+04  0.15000000000E+04  0.10566000000E+00 0. -1.
        994   -1    0    0    0    0 -0.00000000000E+00 -0.00000000000E+00  0.11368683772E-12  0.17120000000E+03  0.17120000000E+03 0.  0.
         13    1    1    2    0    0  0.28722303906E+03 -0.11341688560E+03  0.10756566777E+04  0.11191057875E+04  0.10566000000E+00 0. -1.
        994    1    1    2    0    0 -0.28726173577E+03  0.11342981971E+03  0.42418711600E+03  0.55193276603E+03  0.17120000000E+03 0.  0.
        998    1    1    2    0    0  0.38696707093E-01 -0.12934107252E-01  0.15620257391E+00  0.16144649382E+00  0.10000000000E-02 0. -1.
</event>
<event>
 5    1  0.5722211E-009  0.3882791E+03  0.7957747E-01  0.3415883E+00
         13   -1    0    0    0    0  0.00000000000E+00  0.00000000000E+00  0.14999999963E+04  0.15000000000E+04  0.10566000000E+00 0.  1.
        994   -1    0    0    0    0 -0.00000000000E+00 -0.00000000000E+00  0.11368683772E-12  0.17120000000E+03  0.17120000000E+03 0.  0.
         13    1    1    2    0    0  0.19524683505E+03  0.21317787094E+03  0.11457511494E+04  0.11816563963E+04  0.10566000000E+00 0.  1.
        994    1    1    2    0    0 -0.19556743016E+03 -0.21363289684E+03  0.35084260022E+03  0.48609217694E+03  0.17120000000E+03 0.  0.
        998    1    1    2    0    0  0.32059510874E+00  0.45502589888E+00  0.34062466230E+01  0.34514267846E+01  0.10000000000E-02 0. -1.
</event>
<event>
 5    1  0.5722211E-009  0.3882826E+03  0.7957747E-01  0.3415869E+00
         13   -1    0    0    0    0  0.00000000000E+00  0.00000000000E+00  0.14999999963E+04  0.15000000000E+04  0.10566000000E+00 0.  1.
        994   -1    0    0    0    0 -0.00000000000E+00 -0.00000000000E+00  0.11368683772E-12  0.17120000000E+03  0.17120000000E+03 0.  0.
         13    1    1    2    0    0 -0.27362634591E+03  0.10384197269E+03  0.11375702113E+04  0.11746150558E+04  0.10566000000E+00 0.  1.
        994    1    1    2    0    0  0.27368342487E+03 -0.10394324277E+03  0.36162194592E+03  0.49576878334E+03  0.17120000000E+03 0.  0.
        998    1    1    2    0    0 -0.57078956113E-01  0.10127008137E+00  0.80783907140E+00  0.81616089216E+00  0.10000000000E-02 0. -1.
</event>
<event>
 5    1  0.5722211E-009  0.3829367E+03  0.7957747E-01  0.3438470E+00
         13   -1    0    0    0    0  0.00000000000E+00  0.00000000000E+00  0.14999999963E+04  0.15000000000E+04  0.10566000000E+00 0.  1.
        994   -1    0    0    0    0 -0.00000000000E+00 -0.00000000000E+00  0.11368683772E-12  0.17120000000E+03  0.17120000000E+03 0.  0.
         13    1    1    2    0    0  0.99087287270E+02 -0.21649247808E+03  0.12517458452E+04  0.12741879594E+04  0.10566000000E+00 0.  1.
        994    1    1    2    0    0 -0.89230168122E+02  0.22169827198E+03  0.22166469896E+03  0.36818042516E+03  0.17120000000E+03 0.  0.
        998    1    1    2    0    0 -0.98571191480E+01 -0.52057939031E+01  0.26589452084E+02  0.28831615480E+02  0.10000000000E-02 0. -1.
</event>
<event>
 5    1  0.5722211E-009  0.3883010E+03  0.7957747E-01  0.3415792E+00
         13   -1    0    0    0    0  0.00000000000E+00  0.00000000000E+00  0.14999999963E+04  0.15000000000E+04  0.10566000000E+00 0. -1.
        994   -1    0    0    0    0 -0.00000000000E+00 -0.00000000000E+00  0.11368683772E-12  0.17120000000E+03  0.17120000000E+03 0.  0.
         13    1    1    2    0    0 -0.25199430770E+03 -0.91644262235E+01  0.12549170093E+04  0.12800007146E+04  0.10566000000E+00 0. -1.
        994    1    1    2    0    0  0.25203294763E+03  0.91640486812E+01  0.24489799937E+03  0.39101030239E+03  0.17120000000E+03 0.  0.
        998    1    1    2    0    0 -0.38639926403E-01  0.37754226412E-03  0.18498757879E+00  0.18898304357E+00  0.10000000000E-02 0.  1.
</event>
<event>
 5    1  0.5722211E-009  0.3883010E+03  0.7957747E-01  0.3415792E+00
         13   -1    0    0    0    0  0.00000000000E+00  0.00000000000E+00  0.14999999963E+04  0.15000000000E+04  0.10566000000E+00 0.  1.
        994   -1    0    0    0    0 -0.00000000000E+00 -0.00000000000E+00  0.11368683772E-12  0.17120000000E+03  0.17120000000E+03 0.  0.
         13    1    1    2    0    0 -0.29681763836E+03  0.75270940841E+02  0.10865147493E+04  0.11288404389E+04  0.10566000000E+00 0.  1.
        994    1    1    2    0    0  0.29688033826E+03 -0.75285929978E+02  0.41325707775E+03  0.54212245739E+03  0.17120000000E+03 0.  0.
        998    1    1    2    0    0 -0.62699899047E-01  0.14989137515E-01  0.22816926545E+00  0.23710370153E+00  0.10000000000E-02 0.  0.
</event>
<event>
 5    1  0.5722211E-009  0.3875312E+03  0.7957747E-01  0.3419007E+00
         13   -1    0    0    0    0  0.00000000000E+00  0.00000000000E+00  0.14999999963E+04  0.15000000000E+04  0.10566000000E+00 0.  1.
        994   -1    0    0    0    0 -0.00000000000E+00 -0.00000000000E+00  0.11368683772E-12  0.17120000000E+03  0.17120000000E+03 0.  0.
         13    1    1    2    0    0 -0.98611991641E+02 -0.16616774301E+03  0.39577896727E+03  0.44042825274E+03  0.10566000000E+00 0.  1.
        994    1    1    2    0    0  0.16049119213E+03  0.30735619731E+03  0.73128516589E+03  0.82723194367E+03  0.17120000000E+03 0.  0.
        998    1    1    2    0    0 -0.61879200489E+02 -0.14118845430E+03  0.37293586312E+03  0.40353980359E+03  0.10000000000E-02 0.  1.
</event>
<event>
 5    1  0.5722211E-009  0.3881333E+03  0.7957747E-01  0.3416491E+00
         13   -1    0    0    0    0  0.00000000000E+00  0.00000000000E+00  0.14999999963E+04  0.15000000000E+04  0.10566000000E+00 0.  1.
        994   -1    0    0    0    0 -0.00000000000E+00 -0.00000000000E+00  0.11368683772E-12  0.17120000000E+03  0.17120000000E+03 0.  0.
         13    1    1    2    0    0 -0.12641682826E+03 -0.17106980797E+03  0.12851157600E+04  0.13026007145E+04  0.10566000000E+00 0.  1.
        994    1    1    2    0    0  0.12878104751E+03  0.17838517410E+03  0.17762222622E+03  0.33055245239E+03  0.17120000000E+03 0.  0.
        998    1    1    2    0    0 -0.23642192433E+01 -0.73153661357E+01  0.37262010106E+02  0.38046833147E+02  0.10000000000E-02 0.  1.
</event>
<event>
 5    1  0.5722211E-009  0.3882690E+03  0.7957747E-01  0.3415925E+00
         13   -1    0    0    0    0  0.00000000000E+00  0.00000000000E+00  0.14999999963E+04  0.15000000000E+04  0.10566000000E+00 0.  1.
        994   -1    0    0    0    0 -0.00000000000E+00 -0.00000000000E+00  0.11368683772E-12  0.17120000000E+03  0.17120000000E+03 0.  0.
         13    1    1    2    0    0  0.11839686991E+03 -0.20067574834E+03  0.11889933940E+04  0.12116079716E+04  0.10566000000E+00 0.  1.
        994    1    1    2    0    0 -0.12471976616E+03  0.21465389724E+03  0.23572304735E+03  0.38276116668E+03  0.17120000000E+03 0.  0.
        998    1    1    2    0    0  0.63228962491E+01 -0.13978148903E+02  0.75283554947E+02  0.76830861704E+02  0.10000000000E-02 0.  1.
</event>
<event>
 5    1  0.5722211E-009  0.3883004E+03  0.7957747E-01  0.3415794E+00
         13   -1    0    0    0    0  0.00000000000E+00  0.00000000000E+00  0.14999999963E+04  0.15000000000E+04  0.10566000000E+00 0. -1.
        994   -1    0    0    0    0 -0.00000000000E+00 -0.00000000000E+00  0.11368683772E-12  0.17120000000E+03  0.17120000000E+03 0.  0.
         13    1    1    2    0    0  0.25202659255E+02 -0.26032261615E+03  0.87102459741E+03  0.90944318073E+03  0.10566000000E+00 0. -1.
        994    1    1    2    0    0 -0.30126867411E+02  0.31353720562E+03  0.45213179255E+03  0.57701456245E+03  0.17120000000E+03 0.  0.
        998    1    1    2    0    0  0.49242081557E+01 -0.53214589468E+02  0.17684360632E+03  0.18474225682E+03  0.10000000000E-02 0.  1.
</event>
<event>
 5    1  0.5722211E-009  0.3882917E+03  0.7957747E-01  0.3415831E+00
         13   -1    0    0    0    0  0.00000000000E+00  0.00000000000E+00  0.14999999963E+04  0.15000000000E+04  0.10566000000E+00 0. -1.
        994   -1    0    0    0    0 -0.00000000000E+00 -0.00000000000E+00  0.11368683772E-12  0.17120000000E+03  0.17120000000E+03 0.  0.
         13    1    1    2    0    0 -0.11353881626E+03  0.18733118410E+03  0.13237639153E+04  0.13417656092E+04  0.10566000000E+00 0. -1.
        994    1    1    2    0    0  0.11351429481E+03 -0.18742200846E+03  0.17578048653E+03  0.32896918371E+03  0.17120000000E+03 0.  0.
        998    1    1    2    0    0  0.24521445957E-01  0.90824363475E-01  0.45559440281E+00  0.46520707882E+00  0.10000000000E-02 0.  1.
</event>
<event>
 5    1  0.5722211E-009  0.3882840E+03  0.7957747E-01  0.3415863E+00
         13   -1    0    0    0    0  0.00000000000E+00  0.00000000000E+00  0.14999999963E+04  0.15000000000E+04  0.10566000000E+00 0.  1.
        994   -1    0    0    0    0 -0.00000000000E+00 -0.00000000000E+00  0.11368683772E-12  0.17120000000E+03  0.17120000000E+03 0.  0.
         13    1    1    2    0    0  0.71520969241E+02 -0.87853285399E+02  0.49274056173E+03  0.50559541249E+03  0.10566000000E+00 0.  1.
        994    1    1    2    0    0 -0.17096478725E+03  0.21044473123E+03  0.29385157714E+03  0.43494152799E+03  0.17120000000E+03 0.  0.
        998    1    1    2    0    0  0.99443818005E+02 -0.12259144583E+03  0.71340785741E+03  0.73066305952E+03  0.10000000000E-02 0.  1.
</event>
<event>
 5    1  0.5722211E-009  0.3883004E+03  0.7957747E-01  0.3415794E+00
         13   -1    0    0    0    0  0.00000000000E+00  0.00000000000E+00  0.14999999963E+04  0.15000000000E+04  0.10566000000E+00 0.  1.
        994   -1    0    0    0    0 -0.00000000000E+00 -0.00000000000E+00  0.11368683772E-12  0.17120000000E+03  0.17120000000E+03 0.  0.
         13    1    1    2    0    0 -0.24542795089E+03 -0.28030869862E+02  0.12591119495E+04  0.12831147732E+04  0.10566000000E+00 0.  1.
        994    1    1    2    0    0  0.24648417395E+03  0.28107907154E+02  0.23527159474E+03  0.38236980234E+03  0.17120000000E+03 0.  0.
        998    1    1    2    0    0 -0.10562230609E+01 -0.77037291656E-01  0.56164520794E+01  0.57154244688E+01  0.10000000000E-02 0.  1.
</event>
<event>
 5    1  0.5722211E-009  0.3880964E+03  0.7957747E-01  0.3416645E+00
         13   -1    0    0    0    0  0.00000000000E+00  0.00000000000E+00  0.14999999963E+04  0.15000000000E+04  0.10566000000E+00 0.  1.
        994   -1    0    0    0    0 -0.00000000000E+00 -0.00000000000E+00  0.11368683772E-12  0.17120000000E+03  0.17120000000E+03 0.  0.
         13    1    1    2    0    0  0.21285349562E+03  0.53828599106E+02  0.10372667952E+04  0.10602483408E+04  0.10566000000E+00 0.  1.
        994    1    1    2    0    0 -0.24900535451E+03 -0.60148241877E+02  0.25483706083E+03  0.39984102485E+03  0.17120000000E+03 0.  0.
        998    1    1    2    0    0  0.36151858891E+02  0.63196427714E+01  0.20789614025E+03  0.21111063431E+03  0.10000000000E-02 0. -1.
</event>
<event>
 5    1  0.5722211E-009  0.3882813E+03  0.7957747E-01  0.3415874E+00
         13   -1    0    0    0    0  0.00000000000E+00  0.00000000000E+00  0.14999999963E+04  0.15000000000E+04  0.10566000000E+00 0.  1.
        994   -1    0    0    0    0 -0.00000000000E+00 -0.00000000000E+00  0.11368683772E-12  0.17120000000E+03  0.17120000000E+03 0.  0.
         13    1    1    2    0    0 -0.78199914321E+02  0.24572443727E+03  0.12384069594E+04  0.12649693806E+04  0.10566000000E+00 0.  1.
        994    1    1    2    0    0  0.78357149236E+02 -0.24622135712E+03  0.26003993953E+03  0.40459239944E+03  0.17120000000E+03 0.  0.
        998    1    1    2    0    0 -0.15723491588E+00  0.49691984425E+00  0.15530973487E+01  0.16382199257E+01  0.10000000000E-02 0. -1.
</event>
<event>
 5    1  0.5722211E-009  0.3882969E+03  0.7957747E-01  0.3415809E+00
         13   -1    0    0    0    0  0.00000000000E+00  0.00000000000E+00  0.14999999963E+04  0.15000000000E+04  0.10566000000E+00 0.  1.
        994   -1    0    0    0    0 -0.00000000000E+00 -0.00000000000E+00  0.11368683772E-12  0.17120000000E+03  0.17120000000E+03 0.  0.
         13    1    1    2    0    0  0.18540611916E+03  0.16350853377E+03  0.12538650617E+04  0.12780015938E+04  0.10566000000E+00 0.  1.
        994    1    1    2    0    0 -0.18662506373E+03 -0.16454660206E+03  0.23694733568E+03  0.38387234668E+03  0.17120000000E+03 0.  0.
        998    1    1    2    0    0  0.12189445722E+01  0.10380682851E+01  0.91875988995E+01  0.93260595201E+01  0.10000000000E-02 0. -1.
</event>
<event>
 5    1  0.5722211E-009  0.3882292E+03  0.7957747E-01  0.3416091E+00
         13   -1    0    0    0    0  0.00000000000E+00  0.00000000000E+00  0.14999999963E+04  0.15000000000E+04  0.10566000000E+00 0. -1.
        994   -1    0    0    0    0 -0.00000000000E+00 -0.00000000000E+00  0.11368683772E-12  0.17120000000E+03  0.17120000000E+03 0.  0.
         13    1    1    2    0    0  0.91801732915E+02  0.10332401225E+03  0.82709451284E+03  0.83856350625E+03  0.10566000000E+00 0. -1.
        994    1    1    2    0    0 -0.14319842407E+03 -0.15978762639E+03  0.16764561433E+03  0.32164011909E+03  0.17120000000E+03 0.  0.
        998    1    1    2    0    0  0.51396691156E+02  0.56463614142E+02  0.50525986911E+03  0.51099637466E+03  0.10000000000E-02 0. -1.
</event>
<event>
 5    1  0.5722211E-009  0.3883007E+03  0.7957747E-01  0.3415793E+00
         13   -1    0    0    0    0  0.00000000000E+00  0.00000000000E+00  0.14999999963E+04  0.15000000000E+04  0.10566000000E+00 0.  1.
        994   -1    0    0    0    0 -0.00000000000E+00 -0.00000000000E+00  0.11368683772E-12  0.17120000000E+03  0.17120000000E+03 0.  0.
         13    1    1    2    0    0 -0.14315364824E+03  0.19045528566E+03  0.12824713878E+04  0.13044152155E+04  0.10566000000E+00 0.  1.
        994    1    1    2    0    0  0.14345475733E+03 -0.19090009137E+03  0.21470117873E+03  0.36390678536E+03  0.17120000000E+03 0.  0.
        998    1    1    2    0    0 -0.30110908793E+00  0.44480571338E+00  0.28274297764E+01  0.28779991220E+01  0.10000000000E-02 0.  1.
</event>
<event>
 5    1  0.5722211E-009  0.3883010E+03  0.7957747E-01  0.3415792E+00
         13   -1    0    0    0    0  0.00000000000E+00  0.00000000000E+00  0.14999999963E+04  0.15000000000E+04  0.10566000000E+00 0. -1.
        994   -1    0    0    0    0 -0.00000000000E+00 -0.00000000000E+00  0.11368683772E-12  0.17120000000E+03  0.17120000000E+03 0.  0.
         13    1    1    2    0    0  0.37605752388E+02  0.28753634606E+03  0.11426863341E+04  0.11789077200E+04  0.10566000000E+00 0. -1.
        994    1    1    2    0    0 -0.37698616879E+02 -0.28825521374E+03  0.35446885030E+03  0.48935657735E+03  0.17120000000E+03 0.  0.
        998    1    1    2    0    0  0.92864490644E-01  0.71886767836E+00  0.28448119066E+01  0.29357026990E+01  0.10000000000E-02 0. -1.
</event>
<event>
 5    1  0.5722211E-009  0.3883010E+03  0.7957747E-01  0.3415792E+00
         13   -1    0    0    0    0  0.00000000000E+00  0.00000000000E+00  0.14999999963E+04  0.15000000000E+04  0.10566000000E+00 0. -1.
        994   -1    0    0    0    0 -0.00000000000E+00 -0.00000000000E+00  0.11368683772E-12  0.17120000000E+03  0.17120000000E+03 0.  0.
         13    1    1    2    0    0 -0.20704476495E+03  0.74734532906E+02  0.13085330732E+04  0.13269180833E+04  0.10566000000E+00 0. -1.
        994    1    1    2    0    0  0.20871369112E+03 -0.75339689278E+02  0.18091634922E+03  0.33358303173E+03  0.17120000000E+03 0.  0.
        998    1    1    2    0    0 -0.16689261721E+01  0.60515637201E+00  0.10550573859E+02  0.10698884921E+02  0.10000000000E-02 0. -1.
</event>
<event>
 5    1  0.5722211E-009  0.3882917E+03  0.7957747E-01  0.3415830E+00
         13   -1    0    0    0    0  0.00000000000E+00  0.00000000000E+00  0.14999999963E+04  0.15000000000E+04  0.10566000000E+00 0.  1.
        994   -1    0    0    0    0 -0.00000000000E+00 -0.00000000000E+00  0.11368683772E-12  0.17120000000E+03  0.17120000000E+03 0.  0.
         13    1    1    2    0    0 -0.13623084268E+03  0.11086059657E+03  0.10512136045E+04  0.10657856106E+04  0.10566000000E+00 0.  1.
        994    1    1    2    0    0  0.17152545987E+03 -0.13761676683E+03  0.17723352237E+03  0.33027340091E+03  0.17120000000E+03 0.  0.
        998    1    1    2    0    0 -0.35294617190E+02  0.26756170254E+02  0.27155286945E+03  0.27514098850E+03  0.10000000000E-02 0. -1.
</event>
<event>
 5    1  0.5722211E-009  0.3883007E+03  0.7957747E-01  0.3415793E+00
         13   -1    0    0    0    0  0.00000000000E+00  0.00000000000E+00  0.14999999963E+04  0.15000000000E+04  0.10566000000E+00 0.  1.
        994   -1    0    0    0    0 -0.00000000000E+00 -0.00000000000E+00  0.11368683772E-12  0.17120000000E+03  0.17120000000E+03 0.  0.
         13    1    1    2    0    0  0.88905082360E+02 -0.33500867206E+03  0.63081291909E+03  0.71976376269E+03  0.10566000000E+00 0.  1.
        994    1    1    2    0    0 -0.88967393536E+02  0.33520268500E+03  0.86879613415E+03  0.95099537321E+03  0.17120000000E+03 0.  0.
        998    1    1    2    0    0  0.62311176428E-01 -0.19401293516E+00  0.39094303548E+00  0.44086410458E+00  0.10000000000E-02 0. -1.
</event>
<event>
 5    1  0.5722211E-009  0.3873121E+03  0.7957747E-01  0.3419925E+00
         13   -1    0    0    0    0  0.00000000000E+00  0.00000000000E+00  0.14999999963E+04  0.15000000000E+04  0.10566000000E+00 0. -1.
        994   -1    0    0    0    0 -0.00000000000E+00 -0.00000000000E+00  0.11368683772E-12  0.17120000000E+03  0.17120000000E+03 0.  0.
         13    1    1    2    0    0  0.27577481361E+03  0.10920048315E+03  0.10688463352E+04  0.11092380235E+04  0.10566000000E+00 0. -1.
        994    1    1    2    0    0 -0.28211327899E+03 -0.10631490791E+03  0.39687036902E+03  0.52697845462E+03  0.17120000000E+03 0.  0.
        998    1    1    2    0    0  0.63384653849E+01 -0.28855752325E+01  0.34283292015E+02  0.34983521839E+02  0.10000000000E-02 0. -1.
</event>
<event>
 5    1  0.5722211E-009  0.3880024E+03  0.7957747E-01  0.3417038E+00
         13   -1    0    0    0    0  0.00000000000E+00  0.00000000000E+00  0.14999999963E+04  0.15000000000E+04  0.10566000000E+00 0.  1.
        994   -1    0    0    0    0 -0.00000000000E+00 -0.00000000000E+00  0.11368683772E-12  0.17120000000E+03  0.17120000000E+03 0.  0.
         13    1    1    2    0    0  0.22392784706E+03  0.72019510453E+01  0.13057760596E+04  0.13248572293E+04  0.10566000000E+00 0.  1.
        994    1    1    2    0    0 -0.22591472221E+03 -0.64518408899E+01  0.18912119769E+03  0.34081572056E+03  0.17120000000E+03 0.  0.
        998    1    1    2    0    0  0.19868751511E+01 -0.75011015537E+00  0.51027389411E+01  0.55270501908E+01  0.10000000000E-02 0.  1.
</event>
<event>
 5    1  0.5722211E-009  0.3883010E+03  0.7957747E-01  0.3415792E+00
         13   -1    0    0    0    0  0.00000000000E+00  0.00000000000E+00  0.14999999963E+04  0.15000000000E+04  0.10566000000E+00 0. -1.
        994   -1    0    0    0    0 -0.00000000000E+00 -0.00000000000E+00  0.11368683772E-12  0.17120000000E+03  0.17120000000E+03 0.  0.
         13    1    1    2    0    0  0.64789175298E+02  0.23237711289E+03  0.12795174847E+04  0.13020605840E+04  0.10566000000E+00 0. -1.
        994    1    1    2    0    0 -0.64807011417E+02 -0.23244337012E+03  0.22012164082E+03  0.36877207839E+03  0.17120000000E+03 0.  0.
        998    1    1    2    0    0  0.17836118989E-01  0.66257231280E-01  0.36087080589E+00  0.36733756462E+00  0.10000000000E-02 0.  1.
</event>
<event>
 5    1  0.5722211E-009  0.3883010E+03  0.7957747E-01  0.3415792E+00
         13   -1    0    0    0    0  0.00000000000E+00  0.00000000000E+00  0.14999999963E+04  0.15000000000E+04  0.10566000000E+00 0.  1.
        994   -1    0    0    0    0 -0.00000000000E+00 -0.00000000000E+00  0.11368683772E-12  0.17120000000E+03  0.17120000000E+03 0.  0.
         13    1    1    2    0    0 -0.15719779452E+03 -0.23698961974E+03  0.95420933934E+03  0.99568604536E+03  0.10566000000E+00 0.  1.
        994    1    1    2    0    0  0.17348186268E+03  0.26155911576E+03  0.44681910700E+03  0.57224634739E+03  0.17120000000E+03 0.  0.
        998    1    1    2    0    0 -0.16284068161E+02 -0.24569496026E+02  0.98971549938E+02  0.10326760726E+03  0.10000000000E-02 0. -1.
</event>
<event>
 5    1  0.5722211E-009  0.3883010E+03  0.7957747E-01  0.3415792E+00
         13   -1    0    0    0    0  0.00000000000E+00  0.00000000000E+00  0.14999999963E+04  0.15000000000E+04  0.10566000000E+00 0.  1.
        994   -1    0    0    0    0 -0.00000000000E+00 -0.00000000000E+00  0.11368683772E-12  0.17120000000E+03  0.17120000000E+03 0.  0.
         13    1    1    2    0    0  0.14449446843E+03 -0.21391082643E+03  0.98995339875E+03  0.10230563210E+04  0.10566000000E+00 0.  1.
        994    1    1    2    0    0 -0.16509394329E+03  0.24434170134E+03  0.36914909445E+03  0.50253295520E+03  0.17120000000E+03 0.  0.
        998    1    1    2    0    0  0.20599474860E+02 -0.30430874909E+02  0.14089750308E+03  0.14561072380E+03  0.10000000000E-02 0. -1.
</event>
<event>
 5    1  0.5722211E-009  0.3883010E+03  0.7957747E-01  0.3415792E+00
         13   -1    0    0    0    0  0.00000000000E+00  0.00000000000E+00  0.14999999963E+04  0.15000000000E+04  0.10566000000E+00 0.  1.
        994   -1    0    0    0    0 -0.00000000000E+00 -0.00000000000E+00  0.11368683772E-12  0.17120000000E+03  0.17120000000E+03 0.  0.
         13    1    1    2    0    0  0.26137434395E+02 -0.21457383259E+03  0.12768493182E+04  0.12950170994E+04  0.10566000000E+00 0.  1.
        994    1    1    2    0    0 -0.26956039085E+02  0.22135367958E+03  0.18297313313E+03  0.33542910869E+03  0.17120000000E+03 0.  0.
        998    1    1    2    0    0  0.81860468961E+00 -0.67798469915E+01  0.40177544928E+02  0.40753791925E+02  0.10000000000E-02 0.  1.
</event>
<event>
 5    1  0.5722211E-009  0.3846222E+03  0.7957747E-01  0.3431276E+00
         13   -1    0    0    0    0  0.00000000000E+00  0.00000000000E+00  0.14999999963E+04  0.15000000000E+04  0.10566000000E+00 0. -1.
        994   -1    0    0    0    0 -0.00000000000E+00 -0.00000000000E+00  0.11368683772E-12  0.17120000000E+03  0.17120000000E+03 0.  0.
         13    1    1    2    0    0  0.48859467246E+01  0.22446923426E+02  0.12202718147E+03  0.12417077365E+03  0.10566000000E+00 0. -1.
        994    1    1    2    0    0  0.40912323049E+02 -0.47348304958E+02  0.14819000167E+02  0.18287898437E+03  0.17120000000E+03 0.  0.
        998    1    1    2    0    0 -0.45798269773E+02  0.24901381531E+02  0.13631538146E+04  0.13641502420E+04  0.10000000000E-02 0. -1.
</event>
<event>
 5    1  0.5722211E-009  0.3883008E+03  0.7957747E-01  0.3415793E+00
         13   -1    0    0    0    0  0.00000000000E+00  0.00000000000E+00  0.14999999963E+04  0.15000000000E+04  0.10566000000E+00 0. -1.
        994   -1    0    0    0    0 -0.00000000000E+00 -0.00000000000E+00  0.11368683772E-12  0.17120000000E+03  0.17120000000E+03 0.  0.
         13    1    1    2    0    0 -0.22663060399E+03  0.64017727826E+02  0.12921602912E+04  0.13134450615E+04  0.10566000000E+00 0. -1.
        994    1    1    2    0    0  0.22663824558E+03 -0.64022084895E+02  0.20778094901E+03  0.35769551924E+03  0.17120000000E+03 0.  0.
        998    1    1    2    0    0 -0.76415923902E-02  0.43570686024E-02  0.58756031716E-01  0.59419266606E-01  0.10000000000E-02 0.  1.
</event>
<event>
 5    1  0.5722211E-009  0.3882092E+03  0.7957747E-01  0.3416174E+00
         13   -1    0    0    0    0  0.00000000000E+00  0.00000000000E+00  0.14999999963E+04  0.15000000000E+04  0.10566000000E+00 0. -1.
        994   -1    0    0    0    0 -0.00000000000E+00 -0.00000000000E+00  0.11368683772E-12  0.17120000000E+03  0.17120000000E+03 0.  0.
         13    1    1    2    0    0  0.10370813224E+03 -0.22523681477E+03  0.11838325806E+04  0.12095232902E+04  0.10566000000E+00 0. -1.
        994    1    1    2    0    0 -0.10704352607E+03  0.23431531618E+03  0.25821377492E+03  0.40292155245E+03  0.17120000000E+03 0.  0.
        998    1    1    2    0    0  0.33353938370E+01 -0.90785014051E+01  0.57953640719E+02  0.58755157335E+02  0.10000000000E-02 0.  1.
</event>
<event>
 5    1  0.5722211E-009  0.3882310E+03  0.7957747E-01  0.3416084E+00
         13   -1    0    0    0    0  0.00000000000E+00  0.00000000000E+00  0.14999999963E+04  0.15000000000E+04  0.10566000000E+00 0. -1.
        994   -1    0    0    0    0 -0.00000000000E+00 -0.00000000000E+00  0.11368683772E-12  0.17120000000E+03  0.17120000000E+03 0.  0.
         13    1    1    2    0    0 -0.19844495286E+03 -0.20941393793E+02  0.10064990495E+04  0.10260893183E+04  0.10566000000E+00 0. -1.
        994    1    1    2    0    0  0.24571733637E+03  0.23233652100E+02  0.23247840320E+03  0.37983214706E+03  0.17120000000E+03 0.  0.
        998    1    1    2    0    0 -0.47272383512E+02 -0.22922583070E+01  0.26102254360E+03  0.26527853468E+03  0.10000000000E-02 0. -1.
</event>
<event>
 5    1  0.5722211E-009  0.3883008E+03  0.7957747E-01  0.3415793E+00
         13   -1    0    0    0    0  0.00000000000E+00  0.00000000000E+00  0.14999999963E+04  0.15000000000E+04  0.10566000000E+00 0.  1.
        994   -1    0    0    0    0 -0.00000000000E+00 -0.00000000000E+00  0.11368683772E-12  0.17120000000E+03  0.17120000000E+03 0.  0.
         13    1    1    2    0    0  0.12298238426E+03 -0.21034891094E+03  0.12636222955E+04  0.12869004033E+04  0.10566000000E+00 0.  1.
        994    1    1    2    0    0 -0.12377213766E+03  0.21162109260E+03  0.22863272707E+03  0.37641120172E+03  0.17120000000E+03 0.  0.
        998    1    1    2    0    0  0.78975339945E+00 -0.12721816551E+01  0.77449736879E+01  0.78883949585E+01  0.10000000000E-02 0.  1.
</event>
<event>
 5    1  0.5722211E-009  0.3882986E+03  0.7957747E-01  0.3415802E+00
         13   -1    0    0    0    0  0.00000000000E+00  0.00000000000E+00  0.14999999963E+04  0.15000000000E+04  0.10566000000E+00 0. -1.
        994   -1    0    0    0    0 -0.00000000000E+00 -0.00000000000E+00  0.11368683772E-12  0.17120000000E+03  0.17120000000E+03 0.  0.
         13    1    1    2    0    0  0.38193856853E+02 -0.10761190991E+03  0.65378474893E+03  0.66368185372E+03  0.10566000000E+00 0. -1.
        994    1    1    2    0    0 -0.74542557517E+02  0.21523056879E+03  0.19217716413E+03  0.34368923905E+03  0.17120000000E+03 0.  0.
        998    1    1    2    0    0  0.36348700664E+02 -0.10761865888E+03  0.65403808322E+03  0.66382890724E+03  0.10000000000E-02 0. -1.
</event>
<event>
 5    1  0.5722211E-009  0.3882984E+03  0.7957747E-01  0.3415802E+00
         13   -1    0    0    0    0  0.00000000000E+00  0.00000000000E+00  0.14999999963E+04  0.15000000000E+04  0.10566000000E+00 0.  1.
        994   -1    0    0    0    0 -0.00000000000E+00 -0.00000000000E+00  0.11368683772E-12  0.17120000000E+03  0.17120000000E+03 0.  0.
         13    1    1    2    0    0 -0.24679427103E+03  0.14129400375E+02  0.12487449073E+04  0.12729771824E+04  0.10566000000E+00 0.  1.
        994    1    1    2    0    0  0.24921111294E+03 -0.14459631948E+02  0.23885699334E+03  0.38558703691E+03  0.17120000000E+03 0.  0.
        998    1    1    2    0    0 -0.24168419087E+01  0.33023157350E+00  0.12398095594E+02  0.12635780667E+02  0.10000000000E-02 0.  1.
</event>
<event>
 5    1  0.5722211E-009  0.3837850E+03  0.7957747E-01  0.3434841E+00
         13   -1    0    0    0    0  0.00000000000E+00  0.00000000000E+00  0.14999999963E+04  0.15000000000E+04  0.10566000000E+00 0.  1.
        994   -1    0    0    0    0 -0.00000000000E+00 -0.00000000000E+00  0.11368683772E-12  0.17120000000E+03  0.17120000000E+03 0.  0.
         13    1    1    2    0    0  0.22061343909E+02 -0.15473845648E+02  0.11097024797E+03  0.11419522710E+03  0.10566000000E+00 0.  1.
        994    1    1    2    0    0 -0.13406619163E+02  0.12304804841E+03  0.54575564674E+02  0.21819370274E+03  0.17120000000E+03 0.  0.
        998    1    1    2    0    0 -0.86547247457E+01 -0.10757420276E+03  0.13344541836E+04  0.13388110702E+04  0.10000000000E-02 0.  1.
</event>
<event>
 5    1  0.5722211E-009  0.3774167E+03  0.7957747E-01  0.3462485E+00
         13   -1    0    0    0    0  0.00000000000E+00  0.00000000000E+00  0.14999999963E+04  0.15000000000E+04  0.10566000000E+00 0. -1.
        994   -1    0    0    0    0 -0.00000000000E+00 -0.00000000000E+00  0.11368683772E-12  0.17120000000E+03  0.17120000000E+03 0.  0.
         13    1    1    2    0    0  0.10397764989E+03 -0.11902530305E+03  0.92535855391E+03  0.93875813653E+03  0.10566000000E+00 0. -1.
        994    1    1    2    0    0 -0.16598693077E+03  0.89172990592E+02  0.13638444628E+03  0.28881419740E+03  0.17120000000E+03 0.  0.
        998    1    1    2    0    0  0.62009280873E+02  0.29852312456E+02  0.43825699609E+03  0.44362766607E+03  0.10000000000E-02 0. -1.
</event>
<event>
 5    1  0.5722211E-009  0.3883010E+03  0.7957747E-01  0.3415792E+00
         13   -1    0    0    0    0  0.00000000000E+00  0.00000000000E+00  0.14999999963E+04  0.15000000000E+04  0.10566000000E+00 0.  1.
        994   -1    0    0    0    0 -0.00000000000E+00 -0.00000000000E+00  0.11368683772E-12  0.17120000000E+03  0.17120000000E+03 0.  0.
         13    1    1    2    0    0 -0.19693611601E+03 -0.10480103140E+03  0.13102798017E+04  0.13291351549E+04  0.10566000000E+00 0.  1.
        994    1    1    2    0    0  0.19768226984E+03  0.10519458901E+03  0.18475439954E+03  0.33702790614E+03  0.17120000000E+03 0.  0.
        998    1    1    2    0    0 -0.74615382803E+00 -0.39355761246E+00  0.49657950484E+01  0.50369390102E+01  0.10000000000E-02 0.  1.
</event>
<event>
 5    1  0.5722211E-009  0.3881014E+03  0.7957747E-01  0.3416625E+00
         13   -1    0    0    0    0  0.00000000000E+00  0.00000000000E+00  0.14999999963E+04  0.15000000000E+04  0.10566000000E+00 0. -1.
        994   -1    0    0    0    0 -0.00000000000E+00 -0.00000000000E+00  0.11368683772E-12  0.17120000000E+03  0.17120000000E+03 0.  0.
         13    1    1    2    0    0  0.14594170775E+03  0.15498165106E+03  0.12839806708E+04  0.13015086125E+04  0.10566000000E+00 0. -1.
        994    1    1    2    0    0 -0.15305837673E+03 -0.15911281158E+03  0.17908230533E+03  0.33184885954E+03  0.17120000000E+03 0.  0.
        998    1    1    2    0    0  0.71166689856E+01  0.41311605259E+01  0.36937020124E+02  0.37842527946E+02  0.10000000000E-02 0. -1.
</event>
<event>
 5    1  0.5722211E-009  0.3882993E+03  0.7957747E-01  0.3415799E+00
         13   -1    0    0    0    0  0.00000000000E+00  0.00000000000E+00  0.14999999963E+04  0.15000000000E+04  0.10566000000E+00 0.  1.
        994   -1    0    0    0    0 -0.00000000000E+00 -0.00000000000E+00  0.11368683772E-12  0.17120000000E+03  0.17120000000E+03 0.  0.
         13    1    1    2    0    0  0.30431678500E+03 -0.61367028184E+02  0.10228459952E+04  0.10689193416E+04  0.10566000000E+00 0.  1.
        994    1    1    2    0    0 -0.30992375491E+03  0.62384476808E+02  0.45774247467E+03  0.58204997201E+03  0.17120000000E+03 0.  0.
        998    1    1    2    0    0  0.56069699124E+01 -0.10174486234E+01  0.19411526401E+02  0.20230686383E+02  0.10000000000E-02 0. -1.
</event>
<event>
 5    1  0.5722211E-009  0.3882014E+03  0.7957747E-01  0.3416207E+00
         13   -1    0    0    0    0  0.00000000000E+00  0.00000000000E+00  0.14999999963E+04  0.15000000000E+04  0.10566000000E+00 0.  1.
        994   -1    0    0    0    0 -0.00000000000E+00 -0.00000000000E+00  0.11368683772E-12  0.17120000000E+03  0.17120000000E+03 0.  0.
         13    1    1    2    0    0  0.10709997152E+03 -0.12803200836E+03  0.88198686453E+03  0.89764326959E+03  0.10566000000E+00 0.  1.
        994    1    1    2    0    0 -0.16024986310E+03  0.18862366486E+03  0.23410399071E+03  0.38127814524E+03  0.17120000000E+03 0.  0.
        998    1    1    2    0    0  0.53149891583E+02 -0.60591656498E+02  0.38390914104E+03  0.39227858517E+03  0.10000000000E-02 0.  1.
</event>
<event>
 5    1  0.5722211E-009  0.3883010E+03  0.7957747E-01  0.3415792E+00
         13   -1    0    0    0    0  0.00000000000E+00  0.00000000000E+00  0.14999999963E+04  0.15000000000E+04  0.10566000000E+00 0.  1.
        994   -1    0    0    0    0 -0.00000000000E+00 -0.00000000000E+00  0.11368683772E-12  0.17120000000E+03  0.17120000000E+03 0.  0.
         13    1    1    2    0    0  0.14111000156E+02 -0.29731998168E+03  0.11150893514E+04  0.11541328193E+04  0.10566000000E+00 0.  1.
        994    1    1    2    0    0 -0.14148234018E+02  0.29807272503E+03  0.38209869412E+03  0.51415598215E+03  0.17120000000E+03 0.  0.
        998    1    1    2    0    0  0.37233862384E-01 -0.75274334740E+00  0.28119507894E+01  0.29111985762E+01  0.10000000000E-02 0.  1.
</event>
<event>
 5    1  0.5722211E-009  0.3883010E+03  0.7957747E-01  0.3415792E+00
         13   -1    0    0    0    0  0.00000000000E+00  0.00000000000E+00  0.14999999963E+04  0.15000000000E+04  0.10566000000E+00 0.  1.
        994   -1    0    0    0    0 -0.00000000000E+00 -0.00000000000E+00  0.11368683772E-12  0.17120000000E+03  0.17120000000E+03 0.  0.
         13    1    1    2    0    0 -0.10119941107E+03  0.28740991114E+03  0.10859496730E+04  0.11278885057E+04  0.10566000000E+00 0.  1.
        994    1    1    2    0    0  0.10151559107E+03 -0.28830490854E+03  0.41066963685E+03  0.53980007980E+03  0.17120000000E+03 0.  0.
        998    1    1    2    0    0 -0.31618000724E+00  0.89499740106E+00  0.33806864579E+01  0.35114145400E+01  0.10000000000E-02 0.  0.
</event>
<event>
 5    1  0.5722211E-009  0.3865908E+03  0.7957747E-01  0.3422953E+00
         13   -1    0    0    0    0  0.00000000000E+00  0.00000000000E+00  0.14999999963E+04  0.15000000000E+04  0.10566000000E+00 0.  1.
        994   -1    0    0    0    0 -0.00000000000E+00 -0.00000000000E+00  0.11368683772E-12  0.17120000000E+03  0.17120000000E+03 0.  0.
         13    1    1    2    0    0 -0.75236376833E+02 -0.19015546344E+03  0.75824213542E+03  0.78533480743E+03  0.10566000000E+00 0.  1.
        994    1    1    2    0    0  0.78820606469E+02  0.27823479978E+03  0.35359226556E+03  0.48781576654E+03  0.17120000000E+03 0.  0.
        998    1    1    2    0    0 -0.35842296361E+01 -0.88079336340E+02  0.38816559530E+03  0.39804942603E+03  0.10000000000E-02 0.  1.
</event>
<event>
 5    1  0.5722211E-009  0.3882138E+03  0.7957747E-01  0.3416155E+00
         13   -1    0    0    0    0  0.00000000000E+00  0.00000000000E+00  0.14999999963E+04  0.15000000000E+04  0.10566000000E+00 0.  1.
        994   -1    0    0    0    0 -0.00000000000E+00 -0.00000000000E+00  0.11368683772E-12  0.17120000000E+03  0.17120000000E+03 0.  0.
         13    1    1    2    0    0 -0.17634850101E+03  0.26278772498E+03  0.10346251014E+04  0.10819451436E+04  0.10566000000E+00 0.  1.
        994    1    1    2    0    0  0.17692997183E+03 -0.26297549026E+03  0.46209951698E+03  0.58592297020E+03  0.17120000000E+03 0.  0.
        998    1    1    2    0    0 -0.58147082073E+00  0.18776528026E+00  0.32753778875E+01  0.33318861658E+01  0.10000000000E-02 0.  1.
</event>
<event>
 5    1  0.5722211E-009  0.3882342E+03  0.7957747E-01  0.3416070E+00
         13   -1    0    0    0    0  0.00000000000E+00  0.00000000000E+00  0.14999999963E+04  0.15000000000E+04  0.10566000000E+00 0. -1.
        994   -1    0    0    0    0 -0.00000000000E+00 -0.00000000000E+00  0.11368683772E-12  0.17120000000E+03  0.17120000000E+03 0.  0.
         13    1    1    2    0    0  0.16617812096E+03  0.16902645393E+03  0.12794540760E+04  0.13012255200E+04  0.10566000000E+00 0. -1.
        994    1    1    2    0    0 -0.16708330158E+03 -0.16928169529E+03  0.21279345947E+03  0.36216518113E+03  0.17120000000E+03 0.  0.
        998    1    1    2    0    0  0.90518061655E+00  0.25524136936E+00  0.77524608003E+01  0.78092989163E+01  0.10000000000E-02 0. -1.
</event>
<event>
 5    1  0.5722211E-009  0.3883007E+03  0.7957747E-01  0.3415793E+00
         13   -1    0    0    0    0  0.00000000000E+00  0.00000000000E+00  0.14999999963E+04  0.15000000000E+04  0.10566000000E+00 0.  1.
        994   -1    0    0    0    0 -0.00000000000E+00 -0.00000000000E+00  0.11368683772E-12  0.17120000000E+03  0.17120000000E+03 0.  0.
         13    1    1    2    0    0 -0.19892860906E+03 -0.13826142031E+03  0.86765406735E+03  0.90083983238E+03  0.10566000000E+00 0.  1.
        994    1    1    2    0    0  0.25061844012E+03  0.17386332583E+03  0.40805805501E+03  0.53745592829E+03  0.17120000000E+03 0.  0.
        998    1    1    2    0    0 -0.51689831054E+02 -0.35601905515E+02  0.22428787392E+03  0.23290423933E+03  0.10000000000E-02 0.  1.
</event>
<event>
 5    1  0.5722211E-009  0.3883009E+03  0.7957747E-01  0.3415792E+00
         13   -1    0    0    0    0  0.00000000000E+00  0.00000000000E+00  0.14999999963E+04  0.15000000000E+04  0.10566000000E+00 0. -1.
        994   -1    0    0    0    0 -0.00000000000E+00 -0.00000000000E+00  0.11368683772E-12  0.17120000000E+03  0.17120000000E+03 0.  0.
         13    1    1    2    0    0 -0.16986745057E+03  0.12678788059E+03  0.10899682015E+04  0.11103876841E+04  0.10566000000E+00 0. -1.
        994    1    1    2    0    0  0.19751860584E+03 -0.14759716973E+03  0.23182563198E+03  0.37927705943E+03  0.17120000000E+03 0.  0.
        998    1    1    2    0    0 -0.27651155269E+02  0.20809289139E+02  0.17820616275E+03  0.18153525648E+03  0.10000000000E-02 0.  1.
</event>
<event>
 5    1  0.5722211E-009  0.3883008E+03  0.7957747E-01  0.3415793E+00
         13   -1    0    0    0    0  0.00000000000E+00  0.00000000000E+00  0.14999999963E+04  0.15000000000E+04  0.10566000000E+00 0.  1.
        994   -1    0    0    0    0 -0.00000000000E+00 -0.00000000000E+00  0.11368683772E-12  0.17120000000E+03  0.17120000000E+03 0.  0.
         13    1    1    2    0    0  0.24513587922E+03  0.12547710827E+03  0.11897426608E+04  0.12211976556E+04  0.10566000000E+00 0.  1.
        994    1    1    2    0    0 -0.24567272979E+03 -0.12572491866E+03  0.30771525890E+03  0.44739240706E+03  0.17120000000E+03 0.  0.
        998    1    1    2    0    0  0.53685056722E+00  0.24781039674E+00  0.25420765552E+01  0.26099373051E+01  0.10000000000E-02 0. -1.
</event>
<event>
 5    1  0.6012793E-009  0.3883010E+03  0.7957747E-01  0.3415792E+00
         13   -1    0    0    0    0  0.00000000000E+00  0.00000000000E+00  0.14999999963E+04  0.15000000000E+04  0.10566000000E+00 0.  1.
        994   -1    0    0    0    0 -0.00000000000E+00 -0.00000000000E+00  0.11368683772E-12  0.17120000000E+03  0.17120000000E+03 0.  0.
         13    1    1    2    0    0 -0.22067977683E+03 -0.13350650914E+02  0.13205352740E+04  0.13389141962E+04  0.10566000000E+00 0.  1.
        994    1    1    2    0    0  0.22068798115E+03  0.13351291924E+02  0.17941589880E+03  0.33223628153E+03  0.17120000000E+03 0.  0.
        998    1    1    2    0    0 -0.82043268830E-02 -0.64100973133E-03  0.48823481981E-01  0.49522260306E-01  0.10000000000E-02 0.  0.
</event>
<event>
 5    1  0.5722211E-009  0.3883010E+03  0.7957747E-01  0.3415792E+00
         13   -1    0    0    0    0  0.00000000000E+00  0.00000000000E+00  0.14999999963E+04  0.15000000000E+04  0.10566000000E+00 0.  1.
        994   -1    0    0    0    0 -0.00000000000E+00 -0.00000000000E+00  0.11368683772E-12  0.17120000000E+03  0.17120000000E+03 0.  0.
         13    1    1    2    0    0 -0.93511177826E+02 -0.22927565668E+03  0.11997974324E+04  0.12250818573E+04  0.10566000000E+00 0.  1.
        994    1    1    2    0    0  0.96961515016E+02  0.23774174320E+03  0.25593817663E+03  0.40091952074E+03  0.17120000000E+03 0.  0.
        998    1    1    2    0    0 -0.34503371896E+01 -0.84660865233E+01  0.44264387206E+02  0.45198621920E+02  0.10000000000E-02 0. -1.
</event>
<event>
 5    1  0.5722211E-009  0.3883010E+03  0.7957747E-01  0.3415792E+00
         13   -1    0    0    0    0  0.00000000000E+00  0.00000000000E+00  0.14999999963E+04  0.15000000000E+04  0.10566000000E+00 0.  1.
        994   -1    0    0    0    0 -0.00000000000E+00 -0.00000000000E+00  0.11368683772E-12  0.17120000000E+03  0.17120000000E+03 0.  0.
         13    1    1    2    0    0  0.24488430487E+03  0.88920542789E+02  0.12304400157E+04  0.12577192966E+04  0.10566000000E+00 0.  1.
        994    1    1    2    0    0 -0.24542113056E+03 -0.89120311220E+02  0.26688307099E+03  0.41074319809E+03  0.17120000000E+03 0.  0.
        998    1    1    2    0    0  0.53682568304E+00  0.19976843061E+00  0.26769095956E+01  0.27375052919E+01  0.10000000000E-02 0.  1.
</event>
<event>
 5    1  0.5722211E-009  0.3883010E+03  0.7957747E-01  0.3415792E+00
         13   -1    0    0    0    0  0.00000000000E+00  0.00000000000E+00  0.14999999963E+04  0.15000000000E+04  0.10566000000E+00 0. -1.
        994   -1    0    0    0    0 -0.00000000000E+00 -0.00000000000E+00  0.11368683772E-12  0.17120000000E+03  0.17120000000E+03 0.  0.
         13    1    1    2    0    0 -0.21138109225E+02  0.23380471166E+03  0.12774608239E+04  0.12988524283E+04  0.10566000000E+00 0. -1.
        994    1    1    2    0    0  0.21321786491E+02 -0.23595270212E+03  0.21072173534E+03  0.36033510232E+03  0.17120000000E+03 0.  0.
        998    1    1    2    0    0 -0.18367726614E+00  0.21479904669E+01  0.11817437042E+02  0.12012469339E+02  0.10000000000E-02 0. -1.
</event>
<event>
 5    1  0.5722211E-009  0.3883009E+03  0.7957747E-01  0.3415792E+00
         13   -1    0    0    0    0  0.00000000000E+00  0.00000000000E+00  0.14999999963E+04  0.15000000000E+04  0.10566000000E+00 0.  1.
        994   -1    0    0    0    0 -0.00000000000E+00 -0.00000000000E+00  0.11368683772E-12  0.17120000000E+03  0.17120000000E+03 0.  0.
         13    1    1    2    0    0  0.38817552265E+02  0.36246208694E+02  0.24119063626E+03  0.24696867047E+03  0.10566000000E+00 0.  1.
        994    1    1    2    0    0 -0.19505941886E+03 -0.18300286602E+03  0.28367929993E+03  0.42581875378E+03  0.17120000000E+03 0.  0.
        998    1    1    2    0    0  0.15624186659E+03  0.14675665733E+03  0.97513006008E+03  0.99841257576E+03  0.10000000000E-02 0.  1.
</event>
<event>
 5    1  0.5722211E-009  0.3881280E+03  0.7957747E-01  0.3416513E+00
         13   -1    0    0    0    0  0.00000000000E+00  0.00000000000E+00  0.14999999963E+04  0.15000000000E+04  0.10566000000E+00 0. -1.
        994   -1    0    0    0    0 -0.00000000000E+00 -0.00000000000E+00  0.11368683772E-12  0.17120000000E+03  0.17120000000E+03 0.  0.
         13    1    1    2    0    0  0.74840479175E+02  0.21678483822E+03  0.12801661072E+04  0.13005468221E+04  0.10566000000E+00 0. -1.
        994    1    1    2    0    0 -0.74006434598E+02 -0.21992773276E+03  0.20091327257E+03  0.35145517935E+03  0.17120000000E+03 0.  0.
        998    1    1    2    0    0 -0.83404457639E+00  0.31428945358E+01  0.18920616535E+02  0.19197998528E+02  0.10000000000E-02 0. -1.
</event>
<event>
 5    1  0.5722211E-009  0.3838321E+03  0.7957747E-01  0.3434640E+00
         13   -1    0    0    0    0  0.00000000000E+00  0.00000000000E+00  0.14999999963E+04  0.15000000000E+04  0.10566000000E+00 0.  1.
        994   -1    0    0    0    0 -0.00000000000E+00 -0.00000000000E+00  0.11368683772E-12  0.17120000000E+03  0.17120000000E+03 0.  0.
         13    1    1    2    0    0  0.94036552298E+01 -0.73172950279E+01  0.24751838056E+02  0.27470642319E+02  0.10566000000E+00 0.  1.
        994    1    1    2    0    0 -0.95120290755E+02 -0.70761873605E+01  0.32846730070E+02  0.19871157444E+03  0.17120000000E+03 0.  0.
        998    1    1    2    0    0  0.85716635526E+02  0.14393482388E+02  0.14424014282E+04  0.14450177832E+04  0.10000000000E-02 0.  1.
</event>
<event>
 5    1  0.5722211E-009  0.3882997E+03  0.7957747E-01  0.3415797E+00
         13   -1    0    0    0    0  0.00000000000E+00  0.00000000000E+00  0.14999999963E+04  0.15000000000E+04  0.10566000000E+00 0.  1.
        994   -1    0    0    0    0 -0.00000000000E+00 -0.00000000000E+00  0.11368683772E-12  0.17120000000E+03  0.17120000000E+03 0.  0.
         13    1    1    2    0    0 -0.24054294873E+03  0.17104912764E+03  0.10666840284E+04  0.11067671580E+04  0.10566000000E+00 0.  1.
        994    1    1    2    0    0  0.24739864814E+03 -0.17618270740E+03  0.40277367802E+03  0.53271241134E+03  0.17120000000E+03 0.  0.
        998    1    1    2    0    0 -0.68556994072E+01  0.51335797564E+01  0.30542289818E+02  0.31720430700E+02  0.10000000000E-02 0. -1.
</event>
<event>
 5    1  0.5722211E-009  0.3880238E+03  0.7957747E-01  0.3416948E+00
         13   -1    0    0    0    0  0.00000000000E+00  0.00000000000E+00  0.14999999963E+04  0.15000000000E+04  0.10566000000E+00 0. -1.
        994   -1    0    0    0    0 -0.00000000000E+00 -0.00000000000E+00  0.11368683772E-12  0.17120000000E+03  0.17120000000E+03 0.  0.
         13    1    1    2    0    0  0.49576926871E+02 -0.13841610132E+01  0.28865583704E+03  0.29288562785E+03  0.10566000000E+00 0. -1.
        994    1    1    2    0    0 -0.20125276785E+03  0.30481521630E+02  0.14912304032E+03  0.30492445110E+03  0.17120000000E+03 0.  0.
        998    1    1    2    0    0  0.15167584097E+03 -0.29097360617E+02  0.10622211189E+04  0.10733899211E+04  0.10000000000E-02 0. -1.
</event>
<event>
 5    1  0.5722211E-009  0.3883009E+03  0.7957747E-01  0.3415792E+00
         13   -1    0    0    0    0  0.00000000000E+00  0.00000000000E+00  0.14999999963E+04  0.15000000000E+04  0.10566000000E+00 0. -1.
        994   -1    0    0    0    0 -0.00000000000E+00 -0.00000000000E+00  0.11368683772E-12  0.17120000000E+03  0.17120000000E+03 0.  0.
         13    1    1    2    0    0  0.13361706415E+03 -0.19574551078E+03  0.12888791756E+04  0.13104882164E+04  0.10566000000E+00 0. -1.
        994    1    1    2    0    0 -0.13363174275E+03  0.19577156479E+03  0.21096874182E+03  0.36055678925E+03  0.17120000000E+03 0.  0.
        998    1    1    2    0    0  0.14678594196E-01 -0.26054018528E-01  0.15207887324E+00  0.15499437634E+00  0.10000000000E-02 0.  1.
</event>
<event>
 5    1  0.5722211E-009  0.3811064E+03  0.7957747E-01  0.3446355E+00
         13   -1    0    0    0    0  0.00000000000E+00  0.00000000000E+00  0.14999999963E+04  0.15000000000E+04  0.10566000000E+00 0.  1.
        994   -1    0    0    0    0 -0.00000000000E+00 -0.00000000000E+00  0.11368683772E-12  0.17120000000E+03  0.17120000000E+03 0.  0.
         13    1    1    2    0    0 -0.20372950302E+02  0.22144611743E+02  0.17202797326E+03  0.17463984563E+03  0.10566000000E+00 0.  1.
        994    1    1    2    0    0  0.39713722659E+02  0.59601830359E+02  0.20853863079E+02  0.18674549942E+03  0.17120000000E+03 0.  0.
        998    1    1    2    0    0 -0.19340772356E+02 -0.81746442102E+02  0.13071181599E+04  0.13098146549E+04  0.10000000000E-02 0. -1.
</event>
<event>
 5    1  0.5722211E-009  0.3882530E+03  0.7957747E-01  0.3415992E+00
         13   -1    0    0    0    0  0.00000000000E+00  0.00000000000E+00  0.14999999963E+04  0.15000000000E+04  0.10566000000E+00 0.  1.
        994   -1    0    0    0    0 -0.00000000000E+00 -0.00000000000E+00  0.11368683772E-12  0.17120000000E+03  0.17120000000E+03 0.  0.
         13    1    1    2    0    0  0.91122133569E+02  0.18893923179E+03  0.12330787217E+04  0.12507935167E+04  0.10566000000E+00 0.  1.
        994    1    1    2    0    0 -0.97721381570E+02 -0.19976466292E+03  0.18189632387E+03  0.33444147710E+03  0.17120000000E+03 0.  0.
        998    1    1    2    0    0  0.65992480011E+01  0.10825431130E+02  0.85024950745E+02  0.85965006157E+02  0.10000000000E-02 0. -1.
</event>
<event>
 5    1  0.5722211E-009  0.3883009E+03  0.7957747E-01  0.3415792E+00
         13   -1    0    0    0    0  0.00000000000E+00  0.00000000000E+00  0.14999999963E+04  0.15000000000E+04  0.10566000000E+00 0.  1.
        994   -1    0    0    0    0 -0.00000000000E+00 -0.00000000000E+00  0.11368683772E-12  0.17120000000E+03  0.17120000000E+03 0.  0.
         13    1    1    2    0    0  0.16203900028E+02  0.64504577308E+02  0.30167095825E+03  0.30891549829E+03  0.10566000000E+00 0.  1.
        994    1    1    2    0    0 -0.65051339778E+02 -0.26021382306E+03  0.28573730566E+03  0.42766594249E+03  0.17120000000E+03 0.  0.
        998    1    1    2    0    0  0.48847439750E+02  0.19570924575E+03  0.91259173237E+03  0.93461855922E+03  0.10000000000E-02 0.  1.
</event>
<event>
 5    1  0.5722211E-009  0.3883004E+03  0.7957747E-01  0.3415794E+00
         13   -1    0    0    0    0  0.00000000000E+00  0.00000000000E+00  0.14999999963E+04  0.15000000000E+04  0.10566000000E+00 0.  1.
        994   -1    0    0    0    0 -0.00000000000E+00 -0.00000000000E+00  0.11368683772E-12  0.17120000000E+03  0.17120000000E+03 0.  0.
         13    1    1    2    0    0  0.18157363978E+03 -0.25930598488E+03  0.10301943854E+04  0.10777332988E+04  0.10566000000E+00 0.  1.
        994    1    1    2    0    0 -0.18226462608E+03  0.26027905726E+03  0.46572654535E+03  0.58921662961E+03  0.17120000000E+03 0.  0.
        998    1    1    2    0    0  0.69098630714E+00 -0.97307238053E+00  0.40790655552E+01  0.42500716156E+01  0.10000000000E-02 0. -1.
</event>
<event>
 5    1  0.5722211E-009  0.3883010E+03  0.7957747E-01  0.3415792E+00
         13   -1    0    0    0    0  0.00000000000E+00  0.00000000000E+00  0.14999999963E+04  0.15000000000E+04  0.10566000000E+00 0.  1.
        994   -1    0    0    0    0 -0.00000000000E+00 -0.00000000000E+00  0.11368683772E-12  0.17120000000E+03  0.17120000000E+03 0.  0.
         13    1    1    2    0    0  0.20191414738E+03 -0.10714782049E+03  0.12874898104E+04  0.13076237996E+04  0.10566000000E+00 0.  1.
        994    1    1    2    0    0 -0.20408886195E+03  0.10830047133E+03  0.19865978703E+03  0.34950880768E+03  0.17120000000E+03 0.  0.
        998    1    1    2    0    0  0.21747145762E+01 -0.11526508354E+01  0.13850398876E+02  0.14067392703E+02  0.10000000000E-02 0.  0.
</event>
<event>
 5    1  0.5722211E-009  0.3881372E+03  0.7957747E-01  0.3416475E+00
         13   -1    0    0    0    0  0.00000000000E+00  0.00000000000E+00  0.14999999963E+04  0.15000000000E+04  0.10566000000E+00 0. -1.
        994   -1    0    0    0    0 -0.00000000000E+00 -0.00000000000E+00  0.11368683772E-12  0.17120000000E+03  0.17120000000E+03 0.  0.
         13    1    1    2    0    0  0.13324544233E+03  0.20894215572E+03  0.12381544428E+04  0.12627104212E+04  0.10566000000E+00 0. -1.
        994    1    1    2    0    0 -0.13580591176E+03 -0.21045191304E+03  0.24106746981E+03  0.38749995919E+03  0.17120000000E+03 0.  0.
        998    1    1    2    0    0  0.25604694312E+01  0.15097573167E+01  0.20778083629E+02  0.20989619604E+02  0.10000000000E-02 0. -1.
</event>
<event>
 5    1  0.5722211E-009  0.3883010E+03  0.7957747E-01  0.3415792E+00
         13   -1    0    0    0    0  0.00000000000E+00  0.00000000000E+00  0.14999999963E+04  0.15000000000E+04  0.10566000000E+00 0. -1.
        994   -1    0    0    0    0 -0.00000000000E+00 -0.00000000000E+00  0.11368683772E-12  0.17120000000E+03  0.17120000000E+03 0.  0.
         13    1    1    2    0    0  0.14187048566E+03 -0.17366875212E+03  0.13117511214E+04  0.13307813817E+04  0.10566000000E+00 0. -1.
        994    1    1    2    0    0 -0.14210640443E+03  0.17395753015E+03  0.18607761272E+03  0.33821556799E+03  0.17120000000E+03 0.  0.
        998    1    1    2    0    0  0.23591876758E+00 -0.28877802762E+00  0.21712621807E+01  0.22030503561E+01  0.10000000000E-02 0. -1.
</event>
<event>
 5    1  0.5722211E-009  0.3883010E+03  0.7957747E-01  0.3415792E+00
         13   -1    0    0    0    0  0.00000000000E+00  0.00000000000E+00  0.14999999963E+04  0.15000000000E+04  0.10566000000E+00 0.  1.
        994   -1    0    0    0    0 -0.00000000000E+00 -0.00000000000E+00  0.11368683772E-12  0.17120000000E+03  0.17120000000E+03 0.  0.
         13    1    1    2    0    0  0.25884289614E+03 -0.80737162385E+01  0.12284582684E+04  0.12554579078E+04  0.10566000000E+00 0.  1.
        994    1    1    2    0    0 -0.26022791158E+03  0.81150505273E+01  0.26497293943E+03  0.40902875038E+03  0.17120000000E+03 0.  0.
        998    1    1    2    0    0  0.13850154427E+01 -0.41334288766E-01  0.65687884232E+01  0.67133418391E+01  0.10000000000E-02 0.  0.
</event>
<event>
 5    1  0.5722211E-009  0.3882970E+03  0.7957747E-01  0.3415809E+00
         13   -1    0    0    0    0  0.00000000000E+00  0.00000000000E+00  0.14999999963E+04  0.15000000000E+04  0.10566000000E+00 0. -1.
        994   -1    0    0    0    0 -0.00000000000E+00 -0.00000000000E+00  0.11368683772E-12  0.17120000000E+03  0.17120000000E+03 0.  0.
         13    1    1    2    0    0  0.50227597726E+02  0.19349001495E+03  0.11373415255E+04  0.11547757160E+04  0.10566000000E+00 0. -1.
        994    1    1    2    0    0 -0.57117123802E+02 -0.22261709575E+03  0.19623398396E+03  0.34732974766E+03  0.17120000000E+03 0.  0.
        998    1    1    2    0    0  0.68895260754E+01  0.29127080803E+02  0.16642448683E+03  0.16909453635E+03  0.10000000000E-02 0. -1.
</event>
<event>
 5    1  0.5722211E-009  0.3883010E+03  0.7957747E-01  0.3415792E+00
         13   -1    0    0    0    0  0.00000000000E+00  0.00000000000E+00  0.14999999963E+04  0.15000000000E+04  0.10566000000E+00 0.  1.
        994   -1    0    0    0    0 -0.00000000000E+00 -0.00000000000E+00  0.11368683772E-12  0.17120000000E+03  0.17120000000E+03 0.  0.
         13    1    1    2    0    0 -0.62966937041E+02 -0.23215590478E+03  0.12697209471E+04  0.12923051087E+04  0.10566000000E+00 0.  1.
        994    1    1    2    0    0  0.63390738138E+02  0.23368226184E+03  0.22190990236E+03  0.37037714555E+03  0.17120000000E+03 0.  0.
        998    1    1    2    0    0 -0.42380109683E+00 -0.15263570687E+01  0.83691468359E+01  0.85177457718E+01  0.10000000000E-02 0.  1.
</event>
<event>
 5    1  0.5722211E-009  0.3883009E+03  0.7957747E-01  0.3415792E+00
         13   -1    0    0    0    0  0.00000000000E+00  0.00000000000E+00  0.14999999963E+04  0.15000000000E+04  0.10566000000E+00 0.  1.
        994   -1    0    0    0    0 -0.00000000000E+00 -0.00000000000E+00  0.11368683772E-12  0.17120000000E+03  0.17120000000E+03 0.  0.
         13    1    1    2    0    0  0.14132188253E+01  0.24931173044E+03  0.12566174067E+04  0.12811111014E+04  0.10566000000E+00 0.  1.
        994    1    1    2    0    0 -0.14127748370E+01 -0.25003518194E+03  0.23980660845E+03  0.38644047096E+03  0.17120000000E+03 0.  0.
        998    1    1    2    0    0 -0.44398822710E-03  0.72345150207E+00  0.35759810807E+01  0.36484276014E+01  0.10000000000E-02 0.  1.
</event>
<event>
 5    1  0.5722211E-009  0.3883010E+03  0.7957747E-01  0.3415792E+00
         13   -1    0    0    0    0  0.00000000000E+00  0.00000000000E+00  0.14999999963E+04  0.15000000000E+04  0.10566000000E+00 0. -1.
        994   -1    0    0    0    0 -0.00000000000E+00 -0.00000000000E+00  0.11368683772E-12  0.17120000000E+03  0.17120000000E+03 0.  0.
         13    1    1    2    0    0  0.21934612753E+03 -0.79277970029E+02  0.12952708881E+04  0.13161019736E+04  0.10566000000E+00 0. -1.
        994    1    1    2    0    0 -0.21954732255E+03  0.79350371390E+02  0.20353121915E+03  0.35388120245E+03  0.17120000000E+03 0.  0.
        998    1    1    2    0    0  0.20119502299E+00 -0.72401361300E-01  0.11978890444E+01  0.12168239631E+01  0.10000000000E-02 0.  0.
</event>
<event>
 5    1  0.5722211E-009  0.3883010E+03  0.7957747E-01  0.3415792E+00
         13   -1    0    0    0    0  0.00000000000E+00  0.00000000000E+00  0.14999999963E+04  0.15000000000E+04  0.10566000000E+00 0. -1.
        994   -1    0    0    0    0 -0.00000000000E+00 -0.00000000000E+00  0.11368683772E-12  0.17120000000E+03  0.17120000000E+03 0.  0.
         13    1    1    2    0    0  0.18037150620E+03 -0.22177700261E+03  0.11514336668E+04  0.11863888146E+04  0.10566000000E+00 0. -1.
        994    1    1    2    0    0 -0.18125940297E+03  0.22286828060E+03  0.34290053985E+03  0.47897334153E+03  0.17120000000E+03 0.  0.
        998    1    1    2    0    0  0.88789676673E+00 -0.10912779856E+01  0.56657895843E+01  0.58378438592E+01  0.10000000000E-02 0.  0.
</event>
<event>
 5    1  0.5722211E-009  0.3883003E+03  0.7957747E-01  0.3415795E+00
         13   -1    0    0    0    0  0.00000000000E+00  0.00000000000E+00  0.14999999963E+04  0.15000000000E+04  0.10566000000E+00 0.  1.
        994   -1    0    0    0    0 -0.00000000000E+00 -0.00000000000E+00  0.11368683772E-12  0.17120000000E+03  0.17120000000E+03 0.  0.
         13    1    1    2    0    0 -0.17960401224E+03 -0.71520361401E+02  0.99357069230E+03  0.10122032874E+04  0.10566000000E+00 0.  1.
        994    1    1    2    0    0  0.22880109088E+03  0.91368205376E+02  0.23136428624E+03  0.37886272064E+03  0.17120000000E+03 0.  0.
        998    1    1    2    0    0 -0.49197078641E+02 -0.19847843974E+02  0.27506501774E+03  0.28013399194E+03  0.10000000000E-02 0.  1.
</event>
<event>
 5    1  0.5722211E-009  0.3754087E+03  0.7957747E-01  0.3471397E+00
         13   -1    0    0    0    0  0.00000000000E+00  0.00000000000E+00  0.14999999963E+04  0.15000000000E+04  0.10566000000E+00 0. -1.
        994   -1    0    0    0    0 -0.00000000000E+00 -0.00000000000E+00  0.11368683772E-12  0.17120000000E+03  0.17120000000E+03 0.  0.
         13    1    1    2    0    0 -0.33740311414E+02 -0.21525436980E+01  0.12660159166E+03  0.13103822432E+03  0.10566000000E+00 0. -1.
        994    1    1    2    0    0 -0.27087321382E+02 -0.15431870949E+03  0.94960954059E+02  0.25074889805E+03  0.17120000000E+03 0.  0.
        998    1    1    2    0    0  0.60827632796E+02  0.15647125319E+03  0.12784374506E+04  0.12894128776E+04  0.10000000000E-02 0. -1.
</event>
<event>
 5    1  0.5722211E-009  0.3883010E+03  0.7957747E-01  0.3415792E+00
         13   -1    0    0    0    0  0.00000000000E+00  0.00000000000E+00  0.14999999963E+04  0.15000000000E+04  0.10566000000E+00 0. -1.
        994   -1    0    0    0    0 -0.00000000000E+00 -0.00000000000E+00  0.11368683772E-12  0.17120000000E+03  0.17120000000E+03 0.  0.
         13    1    1    2    0    0  0.19936365727E+03 -0.10706931181E+03  0.13106229862E+04  0.13300159129E+04  0.10566000000E+00 0. -1.
        994    1    1    2    0    0 -0.19937290799E+03  0.10707461396E+03  0.18931668188E+03  0.34112281577E+03  0.17120000000E+03 0.  0.
        998    1    1    2    0    0  0.92507214787E-02 -0.53021521191E-02  0.60328156801E-01  0.61271324190E-01  0.10000000000E-02 0.  0.
</event>
<event>
 5    1  0.5722211E-009  0.3883010E+03  0.7957747E-01  0.3415792E+00
         13   -1    0    0    0    0  0.00000000000E+00  0.00000000000E+00  0.14999999963E+04  0.15000000000E+04  0.10566000000E+00 0. -1.
        994   -1    0    0    0    0 -0.00000000000E+00 -0.00000000000E+00  0.11368683772E-12  0.17120000000E+03  0.17120000000E+03 0.  0.
         13    1    1    2    0    0  0.14102289090E+03  0.22192489703E+03  0.11539930484E+04  0.11835700581E+04  0.10566000000E+00 0. -1.
        994    1    1    2    0    0 -0.14660239596E+03 -0.23073510712E+03  0.30015051481E+03  0.44060268235E+03  0.17120000000E+03 0.  0.
        998    1    1    2    0    0  0.55795050577E+01  0.88102100927E+01  0.45856433122E+02  0.47027259523E+02  0.10000000000E-02 0.  1.
</event>
<event>
 5    1  0.5722211E-009  0.3883001E+03  0.7957747E-01  0.3415796E+00
         13   -1    0    0    0    0  0.00000000000E+00  0.00000000000E+00  0.14999999963E+04  0.15000000000E+04  0.10566000000E+00 0. -1.
        994   -1    0    0    0    0 -0.00000000000E+00 -0.00000000000E+00  0.11368683772E-12  0.17120000000E+03  0.17120000000E+03 0.  0.
         13    1    1    2    0    0 -0.25241378611E+03 -0.16464258030E+03  0.11050805778E+04  0.11454357221E+04  0.10566000000E+00 0. -1.
        994    1    1    2    0    0  0.25256661265E+03  0.16474244753E+03  0.39413485186E+03  0.52495875009E+03  0.17120000000E+03 0.  0.
        998    1    1    2    0    0 -0.15282653885E+00 -0.99867233195E-01  0.78456658263E+00  0.80552786285E+00  0.10000000000E-02 0.  1.
</event>
<event>
 5    1  0.5722211E-009  0.3883010E+03  0.7957747E-01  0.3415792E+00
         13   -1    0    0    0    0  0.00000000000E+00  0.00000000000E+00  0.14999999963E+04  0.15000000000E+04  0.10566000000E+00 0.  1.
        994   -1    0    0    0    0 -0.00000000000E+00 -0.00000000000E+00  0.11368683772E-12  0.17120000000E+03  0.17120000000E+03 0.  0.
         13    1    1    2    0    0 -0.32739024781E+03 -0.82291862501E+02  0.88552951315E+03  0.94769132887E+03  0.10566000000E+00 0.  1.
        994    1    1    2    0    0  0.32907229075E+03  0.82713040707E+02  0.60991864607E+03  0.71863774913E+03  0.17120000000E+03 0.  0.
        998    1    1    2    0    0 -0.16820429390E+01 -0.42117820644E+00  0.45518370544E+01  0.48709219969E+01  0.10000000000E-02 0. -1.
</event>
<event>
 5    1  0.5722211E-009  0.3882907E+03  0.7957747E-01  0.3415835E+00
         13   -1    0    0    0    0  0.00000000000E+00  0.00000000000E+00  0.14999999963E+04  0.15000000000E+04  0.10566000000E+00 0. -1.
        994   -1    0    0    0    0 -0.00000000000E+00 -0.00000000000E+00  0.11368683772E-12  0.17120000000E+03  0.17120000000E+03 0.  0.
         13    1    1    2    0    0 -0.76688518474E+02  0.22734843671E+03  0.12738767340E+04  0.12962755822E+04  0.10566000000E+00 0. -1.
        994    1    1    2    0    0  0.77218278689E+02 -0.22862701265E+03  0.22015078415E+03  0.36879368384E+03  0.17120000000E+03 0.  0.
        998    1    1    2    0    0 -0.52976021528E+00  0.12785759388E+01  0.59724781412E+01  0.61307339254E+01  0.10000000000E-02 0.  1.
</event>
<event>
 5    1  0.5722211E-009  0.3883005E+03  0.7957747E-01  0.3415794E+00
         13   -1    0    0    0    0  0.00000000000E+00  0.00000000000E+00  0.14999999963E+04  0.15000000000E+04  0.10566000000E+00 0.  1.
        994   -1    0    0    0    0 -0.00000000000E+00 -0.00000000000E+00  0.11368683772E-12  0.17120000000E+03  0.17120000000E+03 0.  0.
         13    1    1    2    0    0  0.18343733573E+03 -0.22820119803E+03  0.11004807611E+04  0.11387637857E+04  0.10566000000E+00 0.  1.
        994    1    1    2    0    0 -0.18662194845E+03  0.23214147168E+03  0.38002631192E+03  0.51229566880E+03  0.17120000000E+03 0.  0.
        998    1    1    2    0    0  0.31846127244E+01 -0.39402736546E+01  0.19492923305E+02  0.20140545540E+02  0.10000000000E-02 0.  1.
</event>
<event>
 5    1  0.5722211E-009  0.3883009E+03  0.7957747E-01  0.3415792E+00
         13   -1    0    0    0    0  0.00000000000E+00  0.00000000000E+00  0.14999999963E+04  0.15000000000E+04  0.10566000000E+00 0. -1.
        994   -1    0    0    0    0 -0.00000000000E+00 -0.00000000000E+00  0.11368683772E-12  0.17120000000E+03  0.17120000000E+03 0.  0.
         13    1    1    2    0    0 -0.10568129381E+03 -0.10185033386E+03  0.82006834277E+03  0.83309910836E+03  0.10566000000E+00 0. -1.
        994    1    1    2    0    0  0.16737480207E+03  0.16146167063E+03  0.20172286758E+03  0.35225807408E+03  0.17120000000E+03 0.  0.
        998    1    1    2    0    0 -0.61693508265E+02 -0.59611336766E+02  0.47820878593E+03  0.48584281756E+03  0.10000000000E-02 0. -1.
</event>
<event>
 5    1  0.5722211E-009  0.3883010E+03  0.7957747E-01  0.3415792E+00
         13   -1    0    0    0    0  0.00000000000E+00  0.00000000000E+00  0.14999999963E+04  0.15000000000E+04  0.10566000000E+00 0.  1.
        994   -1    0    0    0    0 -0.00000000000E+00 -0.00000000000E+00  0.11368683772E-12  0.17120000000E+03  0.17120000000E+03 0.  0.
         13    1    1    2    0    0 -0.12667565838E+03 -0.18042184771E+03  0.12837841716E+04  0.13025745951E+04  0.10566000000E+00 0.  1.
        994    1    1    2    0    0  0.12949591316E+03  0.18446781797E+03  0.18753530487E+03  0.33952392841E+03  0.17120000000E+03 0.  0.
        998    1    1    2    0    0 -0.28202547767E+01 -0.40459702679E+01  0.28680519831E+02  0.29101476443E+02  0.10000000000E-02 0. -1.
</event>
<event>
 5    1  0.5722211E-009  0.3883008E+03  0.7957747E-01  0.3415793E+00
         13   -1    0    0    0    0  0.00000000000E+00  0.00000000000E+00  0.14999999963E+04  0.15000000000E+04  0.10566000000E+00 0.  1.
        994   -1    0    0    0    0 -0.00000000000E+00 -0.00000000000E+00  0.11368683772E-12  0.17120000000E+03  0.17120000000E+03 0.  0.
         13    1    1    2    0    0 -0.22115316856E+03  0.48062268437E+02  0.13105945700E+04  0.13299912946E+04  0.10566000000E+00 0.  1.
        994    1    1    2    0    0  0.22116246744E+03 -0.48066965520E+02  0.18935426789E+03  0.34115648748E+03  0.17120000000E+03 0.  0.
        998    1    1    2    0    0 -0.92988846612E-02  0.46970827628E-02  0.51158425559E-01  0.52217969589E-01  0.10000000000E-02 0.  1.
</event>
<event>
 5    1  0.5722211E-009  0.3883010E+03  0.7957747E-01  0.3415792E+00
         13   -1    0    0    0    0  0.00000000000E+00  0.00000000000E+00  0.14999999963E+04  0.15000000000E+04  0.10566000000E+00 0. -1.
        994   -1    0    0    0    0 -0.00000000000E+00 -0.00000000000E+00  0.11368683772E-12  0.17120000000E+03  0.17120000000E+03 0.  0.
         13    1    1    2    0    0 -0.11754226438E+03 -0.19419343949E+03  0.13078954960E+04  0.13274478956E+04  0.10566000000E+00 0. -1.
        994    1    1    2    0    0  0.11763787018E+03  0.19435300575E+03  0.19101865962E+03  0.34265044530E+03  0.17120000000E+03 0.  0.
        998    1    1    2    0    0 -0.95605801475E-01 -0.15956626575E+00  0.10858406433E+01  0.11016590966E+01  0.10000000000E-02 0.  1.
</event>
<event>
 5    1  0.5722211E-009  0.3882877E+03  0.7957747E-01  0.3415847E+00
         13   -1    0    0    0    0  0.00000000000E+00  0.00000000000E+00  0.14999999963E+04  0.15000000000E+04  0.10566000000E+00 0. -1.
        994   -1    0    0    0    0 -0.00000000000E+00 -0.00000000000E+00  0.11368683772E-12  0.17120000000E+03  0.17120000000E+03 0.  0.
         13    1    1    2    0    0 -0.62101951574E+02 -0.21675523035E+03  0.13113959581E+04  0.13306385130E+04  0.10566000000E+00 0. -1.
        994    1    1    2    0    0  0.62035746706E+02  0.21688619236E+03  0.18793844956E+03  0.33987991281E+03  0.17120000000E+03 0.  0.
        998    1    1    2    0    0  0.66204868242E-01 -0.13096201317E+00  0.66558866141E+00  0.68157420702E+00  0.10000000000E-02 0.  1.
</event>
<event>
 5    1  0.5722211E-009  0.3882996E+03  0.7957747E-01  0.3415798E+00
         13   -1    0    0    0    0  0.00000000000E+00  0.00000000000E+00  0.14999999963E+04  0.15000000000E+04  0.10566000000E+00 0. -1.
        994   -1    0    0    0    0 -0.00000000000E+00 -0.00000000000E+00  0.11368683772E-12  0.17120000000E+03  0.17120000000E+03 0.  0.
         13    1    1    2    0    0 -0.65103591024E+02 -0.21674385239E+03  0.13066137999E+04  0.13260678748E+04  0.10566000000E+00 0. -1.
        994    1    1    2    0    0  0.65311115932E+02  0.21721107699E+03  0.19031045621E+03  0.34201418622E+03  0.17120000000E+03 0.  0.
        998    1    1    2    0    0 -0.20752490745E+00 -0.46722459770E+00  0.30757401217E+01  0.31179390161E+01  0.10000000000E-02 0. -1.
</event>
<event>
 5    1  0.5856393E-009  0.3883001E+03  0.7957747E-01  0.3415796E+00
         13   -1    0    0    0    0  0.00000000000E+00  0.00000000000E+00  0.14999999963E+04  0.15000000000E+04  0.10566000000E+00 0. -1.
        994   -1    0    0    0    0 -0.00000000000E+00 -0.00000000000E+00  0.11368683772E-12  0.17120000000E+03  0.17120000000E+03 0.  0.
         13    1    1    2    0    0 -0.21400388500E+03 -0.10642061096E+03  0.12847471835E+04  0.13067893273E+04  0.10566000000E+00 0. -1.
        994    1    1    2    0    0  0.21400851300E+03  0.10642929813E+03  0.21517016245E+03  0.36432743233E+03  0.17120000000E+03 0.  0.
        998    1    1    2    0    0 -0.46280048022E-02 -0.86871694474E-02  0.82650326910E-01  0.83240386110E-01  0.10000000000E-02 0. -1.
</event>
<event>
 5    1  0.5722211E-009  0.3883009E+03  0.7957747E-01  0.3415792E+00
         13   -1    0    0    0    0  0.00000000000E+00  0.00000000000E+00  0.14999999963E+04  0.15000000000E+04  0.10566000000E+00 0.  1.
        994   -1    0    0    0    0 -0.00000000000E+00 -0.00000000000E+00  0.11368683772E-12  0.17120000000E+03  0.17120000000E+03 0.  0.
         13    1    1    2    0    0 -0.15105694419E+03  0.15939712923E+03  0.13229595994E+04  0.13410621753E+04  0.10566000000E+00 0.  1.
        994    1    1    2    0    0  0.15109249235E+03 -0.15943273871E+03  0.17675429129E+03  0.32984732666E+03  0.17120000000E+03 0.  0.
        998    1    1    2    0    0 -0.35548163446E-01  0.35609480525E-01  0.28610562326E+00  0.29049808035E+00  0.10000000000E-02 0.  0.
</event>
<event>
 5    1  0.5722211E-009  0.3883010E+03  0.7957747E-01  0.3415792E+00
         13   -1    0    0    0    0  0.00000000000E+00  0.00000000000E+00  0.14999999963E+04  0.15000000000E+04  0.10566000000E+00 0.  1.
        994   -1    0    0    0    0 -0.00000000000E+00 -0.00000000000E+00  0.11368683772E-12  0.17120000000E+03  0.17120000000E+03 0.  0.
         13    1    1    2    0    0  0.24505534267E+03 -0.84064296989E+02  0.12352092712E+04  0.12620859249E+04  0.10566000000E+00 0.  1.
        994    1    1    2    0    0 -0.24545259085E+03  0.84201352151E+02  0.26278679199E+03  0.40706655488E+03  0.17120000000E+03 0.  0.
        998    1    1    2    0    0  0.39724817373E+00 -0.13705516256E+00  0.20039330965E+01  0.20475202281E+01  0.10000000000E-02 0.  0.
</event>
<event>
 5    1  0.5722211E-009  0.3883010E+03  0.7957747E-01  0.3415792E+00
         13   -1    0    0    0    0  0.00000000000E+00  0.00000000000E+00  0.14999999963E+04  0.15000000000E+04  0.10566000000E+00 0.  1.
        994   -1    0    0    0    0 -0.00000000000E+00 -0.00000000000E+00  0.11368683772E-12  0.17120000000E+03  0.17120000000E+03 0.  0.
         13    1    1    2    0    0 -0.87864792229E+02  0.20862867295E+03  0.13050067562E+04  0.13244956738E+04  0.10566000000E+00 0.  1.
        994    1    1    2    0    0  0.88145377944E+02 -0.20929085932E+03  0.19084924460E+03  0.34249838775E+03  0.17120000000E+03 0.  0.
        998    1    1    2    0    0 -0.28058571476E+00  0.66218636675E+00  0.41439954559E+01  0.42059384762E+01  0.10000000000E-02 0. -1.
</event>
<event>
 5    1  0.5722211E-009  0.3883008E+03  0.7957747E-01  0.3415793E+00
         13   -1    0    0    0    0  0.00000000000E+00  0.00000000000E+00  0.14999999963E+04  0.15000000000E+04  0.10566000000E+00 0.  1.
        994   -1    0    0    0    0 -0.00000000000E+00 -0.00000000000E+00  0.11368683772E-12  0.17120000000E+03  0.17120000000E+03 0.  0.
         13    1    1    2    0    0 -0.15905449830E+03 -0.16312292311E+03  0.12601224595E+04  0.12805530233E+04  0.10566000000E+00 0.  1.
        994    1    1    2    0    0  0.16352130619E+03  0.16766413316E+03  0.20508027506E+03  0.35527149949E+03  0.17120000000E+03 0.  0.
        998    1    1    2    0    0 -0.44668078950E+01 -0.45412100496E+01  0.34797261749E+02  0.35375477209E+02  0.10000000000E-02 0.  1.
</event>
<event>
 5    1  0.5722211E-009  0.3882911E+03  0.7957747E-01  0.3415833E+00
         13   -1    0    0    0    0  0.00000000000E+00  0.00000000000E+00  0.14999999963E+04  0.15000000000E+04  0.10566000000E+00 0. -1.
        994   -1    0    0    0    0 -0.00000000000E+00 -0.00000000000E+00  0.11368683772E-12  0.17120000000E+03  0.17120000000E+03 0.  0.
         13    1    1    2    0    0  0.19875048039E+03  0.55919091624E+01  0.10632737561E+04  0.10817042639E+04  0.10566000000E+00 0. -1.
        994    1    1    2    0    0 -0.24054006510E+03 -0.81217149542E+01  0.21876494563E+03  0.36755003280E+03  0.17120000000E+03 0.  0.
        998    1    1    2    0    0  0.41789584705E+02  0.25298057918E+01  0.21796129455E+03  0.22194570333E+03  0.10000000000E-02 0. -1.
</event>
<event>
 5    1  0.5722211E-009  0.3883005E+03  0.7957747E-01  0.3415794E+00
         13   -1    0    0    0    0  0.00000000000E+00  0.00000000000E+00  0.14999999963E+04  0.15000000000E+04  0.10566000000E+00 0.  1.
        994   -1    0    0    0    0 -0.00000000000E+00 -0.00000000000E+00  0.11368683772E-12  0.17120000000E+03  0.17120000000E+03 0.  0.
         13    1    1    2    0    0 -0.12965867220E+03 -0.17570159727E+03  0.13192545316E+04  0.13372041553E+04  0.10566000000E+00 0.  1.
        994    1    1    2    0    0  0.13013722324E+03  0.17639621495E+03  0.17593225579E+03  0.32910928299E+03  0.17120000000E+03 0.  0.
        998    1    1    2    0    0 -0.47855103903E+00 -0.69461767918E+00  0.48132089128E+01  0.48865617622E+01  0.10000000000E-02 0.  1.
</event>
<event>
 5    1  0.5722211E-009  0.3883009E+03  0.7957747E-01  0.3415792E+00
         13   -1    0    0    0    0  0.00000000000E+00  0.00000000000E+00  0.14999999963E+04  0.15000000000E+04  0.10566000000E+00 0.  1.
        994   -1    0    0    0    0 -0.00000000000E+00 -0.00000000000E+00  0.11368683772E-12  0.17120000000E+03  0.17120000000E+03 0.  0.
         13    1    1    2    0    0  0.21098203330E+02 -0.26174460488E+03  0.12113782952E+04  0.12395131131E+04  0.10566000000E+00 0.  1.
        994    1    1    2    0    0 -0.21269315498E+02  0.26421753758E+03  0.27724942741E+03  0.42004758771E+03  0.17120000000E+03 0.  0.
        998    1    1    2    0    0  0.17111216769E+00 -0.24729326967E+01  0.11372273698E+02  0.11639299186E+02  0.10000000000E-02 0. -1.
</event>
<event>
 5    1  0.5722211E-009  0.3882954E+03  0.7957747E-01  0.3415815E+00
         13   -1    0    0    0    0  0.00000000000E+00  0.00000000000E+00  0.14999999963E+04  0.15000000000E+04  0.10566000000E+00 0. -1.
        994   -1    0    0    0    0 -0.00000000000E+00 -0.00000000000E+00  0.11368683772E-12  0.17120000000E+03  0.17120000000E+03 0.  0.
         13    1    1    2    0    0 -0.23468133776E+03 -0.27768406454E+02  0.12884626688E+04  0.13099551423E+04  0.10566000000E+00 0. -1.
        994    1    1    2    0    0  0.23497653559E+03  0.27708088038E+02  0.21007953109E+03  0.35975625054E+03  0.17120000000E+03 0.  0.
        998    1    1    2    0    0 -0.29519782923E+00  0.60318416136E-01  0.14577963512E+01  0.14886071581E+01  0.10000000000E-02 0.  1.
</event>
<event>
 5    1  0.5722211E-009  0.3883010E+03  0.7957747E-01  0.3415792E+00
         13   -1    0    0    0    0  0.00000000000E+00  0.00000000000E+00  0.14999999963E+04  0.15000000000E+04  0.10566000000E+00 0. -1.
        994   -1    0    0    0    0 -0.00000000000E+00 -0.00000000000E+00  0.11368683772E-12  0.17120000000E+03  0.17120000000E+03 0.  0.
         13    1    1    2    0    0  0.20332406366E+03  0.10939175654E+03  0.12125431414E+04  0.12343290129E+04  0.10566000000E+00 0. -1.
        994    1    1    2    0    0 -0.21397056256E+03 -0.11512361243E+03  0.22377254839E+03  0.37204897688E+03  0.17120000000E+03 0.  0.
        998    1    1    2    0    0  0.10646498903E+02  0.57318558844E+01  0.63684306481E+02  0.64822010180E+02  0.10000000000E-02 0.  1.
</event>
<event>
 5    1  0.5722211E-009  0.3882990E+03  0.7957747E-01  0.3415800E+00
         13   -1    0    0    0    0  0.00000000000E+00  0.00000000000E+00  0.14999999963E+04  0.15000000000E+04  0.10566000000E+00 0. -1.
        994   -1    0    0    0    0 -0.00000000000E+00 -0.00000000000E+00  0.11368683772E-12  0.17120000000E+03  0.17120000000E+03 0.  0.
         13    1    1    2    0    0 -0.17905865409E+03  0.19568461073E+03  0.12221746205E+04  0.12506259563E+04  0.10566000000E+00 0. -1.
        994    1    1    2    0    0  0.17907956579E+03 -0.19568840877E+03  0.27775514213E+03  0.42050065778E+03  0.17120000000E+03 0.  0.
        998    1    1    2    0    0 -0.20911699618E-01  0.37980448969E-02  0.70233662943E-01  0.73385909658E-01  0.10000000000E-02 0.  1.
</event>
<event>
 5    1  0.5722211E-009  0.3883008E+03  0.7957747E-01  0.3415793E+00
         13   -1    0    0    0    0  0.00000000000E+00  0.00000000000E+00  0.14999999963E+04  0.15000000000E+04  0.10566000000E+00 0.  1.
        994   -1    0    0    0    0 -0.00000000000E+00 -0.00000000000E+00  0.11368683772E-12  0.17120000000E+03  0.17120000000E+03 0.  0.
         13    1    1    2    0    0 -0.25000045155E+03  0.61975089828E+02  0.12419334240E+04  0.12683610599E+04  0.10566000000E+00 0.  1.
        994    1    1    2    0    0  0.25001257815E+03 -0.61977213921E+02  0.25798648487E+03  0.40275790576E+03  0.17120000000E+03 0.  0.
        998    1    1    2    0    0 -0.12126595671E-01  0.21240929355E-02  0.80087425025E-01  0.81034324459E-01  0.10000000000E-02 0.  1.
</event>
<event>
 5    1  0.5722211E-009  0.3882987E+03  0.7957747E-01  0.3415801E+00
         13   -1    0    0    0    0  0.00000000000E+00  0.00000000000E+00  0.14999999963E+04  0.15000000000E+04  0.10566000000E+00 0. -1.
        994   -1    0    0    0    0 -0.00000000000E+00 -0.00000000000E+00  0.11368683772E-12  0.17120000000E+03  0.17120000000E+03 0.  0.
         13    1    1    2    0    0  0.50098597450E+02 -0.24013738312E+03  0.12706616956E+04  0.12941240235E+04  0.10566000000E+00 0. -1.
        994    1    1    2    0    0 -0.50096632667E+02  0.24016912859E+03  0.22903829324E+03  0.37677428615E+03  0.17120000000E+03 0.  0.
        998    1    1    2    0    0 -0.19647826968E-02 -0.31745467944E-01  0.30000742826E+00  0.30169039116E+00  0.10000000000E-02 0.  1.
</event>
<event>
 5    1  0.5722211E-009  0.3883008E+03  0.7957747E-01  0.3415793E+00
         13   -1    0    0    0    0  0.00000000000E+00  0.00000000000E+00  0.14999999963E+04  0.15000000000E+04  0.10566000000E+00 0. -1.
        994   -1    0    0    0    0 -0.00000000000E+00 -0.00000000000E+00  0.11368683772E-12  0.17120000000E+03  0.17120000000E+03 0.  0.
         13    1    1    2    0    0  0.22412415265E+03 -0.15756450263E+02  0.13137784238E+04  0.13328517020E+04  0.10566000000E+00 0. -1.
        994    1    1    2    0    0 -0.22413024155E+03  0.15755246892E+02  0.18619331916E+03  0.33831935369E+03  0.17120000000E+03 0.  0.
        998    1    1    2    0    0  0.60888986763E-02  0.12033716387E-02  0.28253354741E-01  0.28944340457E-01  0.10000000000E-02 0. -1.
</event>
<event>
 5    1  0.5722211E-009  0.3883010E+03  0.7957747E-01  0.3415792E+00
         13   -1    0    0    0    0  0.00000000000E+00  0.00000000000E+00  0.14999999963E+04  0.15000000000E+04  0.10566000000E+00 0.  1.
        994   -1    0    0    0    0 -0.00000000000E+00 -0.00000000000E+00  0.11368683772E-12  0.17120000000E+03  0.17120000000E+03 0.  0.
         13    1    1    2    0    0  0.10591037457E+03 -0.19584680246E+03  0.13136327178E+04  0.13323677817E+04  0.10566000000E+00 0.  1.
        994    1    1    2    0    0 -0.10615369445E+03  0.19629562754E+03  0.18329712998E+03  0.33571991019E+03  0.17120000000E+03 0.  0.
        998    1    1    2    0    0  0.24331987155E+00 -0.44882508308E+00  0.30701485267E+01  0.31123080649E+01  0.10000000000E-02 0.  1.
</event>
<event>
 5    1  0.5722211E-009  0.3883010E+03  0.7957747E-01  0.3415792E+00
         13   -1    0    0    0    0  0.00000000000E+00  0.00000000000E+00  0.14999999963E+04  0.15000000000E+04  0.10566000000E+00 0.  1.
        994   -1    0    0    0    0 -0.00000000000E+00 -0.00000000000E+00  0.11368683772E-12  0.17120000000E+03  0.17120000000E+03 0.  0.
         13    1    1    2    0    0 -0.42782735382E+02  0.21614018123E+03  0.13212394698E+04  0.13394852325E+04  0.10566000000E+00 0.  1.
        994    1    1    2    0    0  0.42799451586E+02 -0.21623145796E+03  0.17818129212E+03  0.33112814639E+03  0.17120000000E+03 0.  0.
        998    1    1    2    0    0 -0.16716203680E-01  0.91276733816E-01  0.57923434743E+00  0.58662108967E+00  0.10000000000E-02 0.  1.
</event>
<event>
 5    1  0.5722211E-009  0.3883010E+03  0.7957747E-01  0.3415792E+00
         13   -1    0    0    0    0  0.00000000000E+00  0.00000000000E+00  0.14999999963E+04  0.15000000000E+04  0.10566000000E+00 0. -1.
        994   -1    0    0    0    0 -0.00000000000E+00 -0.00000000000E+00  0.11368683772E-12  0.17120000000E+03  0.17120000000E+03 0.  0.
         13    1    1    2    0    0 -0.56428273166E+02 -0.22764994201E+03  0.12747863191E+04  0.12961824010E+04  0.10566000000E+00 0. -1.
        994    1    1    2    0    0  0.57047817417E+02  0.23015998139E+03  0.21116452214E+03  0.36073254069E+03  0.17120000000E+03 0.  0.
        998    1    1    2    0    0 -0.61954425125E+00 -0.25100393778E+01  0.14049155046E+02  0.14285058322E+02  0.10000000000E-02 0.  1.
</event>
<event>
 5    1  0.5722211E-009  0.3883008E+03  0.7957747E-01  0.3415792E+00
         13   -1    0    0    0    0  0.00000000000E+00  0.00000000000E+00  0.14999999963E+04  0.15000000000E+04  0.10566000000E+00 0. -1.
        994   -1    0    0    0    0 -0.00000000000E+00 -0.00000000000E+00  0.11368683772E-12  0.17120000000E+03  0.17120000000E+03 0.  0.
         13    1    1    2    0    0  0.25300133546E+03  0.18475107257E+03  0.93650971400E+03  0.98751865306E+03  0.10566000000E+00 0. -1.
        994    1    1    2    0    0 -0.26451467092E+03 -0.19321117493E+03  0.52050233473E+03  0.63838130433E+03  0.17120000000E+03 0.  0.
        998    1    1    2    0    0  0.11513335460E+02  0.84601023611E+01  0.42987947544E+02  0.45300042610E+02  0.10000000000E-02 0.  1.
</event>
<event>
 5    1  0.5722211E-009  0.3883010E+03  0.7957747E-01  0.3415792E+00
         13   -1    0    0    0    0  0.00000000000E+00  0.00000000000E+00  0.14999999963E+04  0.15000000000E+04  0.10566000000E+00 0. -1.
        994   -1    0    0    0    0 -0.00000000000E+00 -0.00000000000E+00  0.11368683772E-12  0.17120000000E+03  0.17120000000E+03 0.  0.
         13    1    1    2    0    0  0.17296395282E+03 -0.13524466108E+03  0.13056996099E+04  0.13240313930E+04  0.10566000000E+00 0. -1.
        994    1    1    2    0    0 -0.17474982387E+03  0.13664152956E+03  0.18079371831E+03  0.33347296311E+03  0.17120000000E+03 0.  0.
        998    1    1    2    0    0  0.17858710513E+01 -0.13968684730E+01  0.13506668115E+02  0.13695643889E+02  0.10000000000E-02 0. -1.
</event>
<event>
 5    1  0.5722211E-009  0.3883010E+03  0.7957747E-01  0.3415792E+00
         13   -1    0    0    0    0  0.00000000000E+00  0.00000000000E+00  0.14999999963E+04  0.15000000000E+04  0.10566000000E+00 0.  1.
        994   -1    0    0    0    0 -0.00000000000E+00 -0.00000000000E+00  0.11368683772E-12  0.17120000000E+03  0.17120000000E+03 0.  0.
         13    1    1    2    0    0  0.22889402731E+03 -0.21160915099E+02  0.13027364689E+04  0.13228615115E+04  0.10566000000E+00 0.  1.
        994    1    1    2    0    0 -0.22901760825E+03  0.21175160462E+02  0.19656085081E+03  0.34762488458E+03  0.17120000000E+03 0.  0.
        998    1    1    2    0    0  0.12358093902E+00 -0.14245362649E-01  0.70267656289E+00  0.71360390335E+00  0.10000000000E-02 0.  1.
</event>
<event>
 5    1  0.5722211E-009  0.3882979E+03  0.7957747E-01  0.3415805E+00
         13   -1    0    0    0    0  0.00000000000E+00  0.00000000000E+00  0.14999999963E+04  0.15000000000E+04  0.10566000000E+00 0. -1.
        994   -1    0    0    0    0 -0.00000000000E+00 -0.00000000000E+00  0.11368683772E-12  0.17120000000E+03  0.17120000000E+03 0.  0.
         13    1    1    2    0    0 -0.13792161578E+03  0.16560152156E+03  0.12107994287E+04  0.12298298678E+04  0.10566000000E+00 0. -1.
        994    1    1    2    0    0  0.14772762495E+03 -0.17827508920E+03  0.19963915770E+03  0.35038648930E+03  0.17120000000E+03 0.  0.
        998    1    1    2    0    0 -0.98060091653E+01  0.12673567640E+02  0.89561409913E+02  0.90983642921E+02  0.10000000000E-02 0.  1.
</event>
<event>
 5    1  0.7072670E-009  0.3883007E+03  0.7957747E-01  0.3415793E+00
         13   -1    0    0    0    0  0.00000000000E+00  0.00000000000E+00  0.14999999963E+04  0.15000000000E+04  0.10566000000E+00 0.  1.
        994   -1    0    0    0    0 -0.00000000000E+00 -0.00000000000E+00  0.11368683772E-12  0.17120000000E+03  0.17120000000E+03 0.  0.
         13    1    1    2    0    0  0.25906875190E+03 -0.77665787395E+02  0.12079441108E+04  0.12378520020E+04  0.10566000000E+00 0.  1.
        994    1    1    2    0    0 -0.25908338969E+03  0.77670414905E+02  0.29196238546E+03  0.43325324083E+03  0.17120000000E+03 0.  0.
        998    1    1    2    0    0  0.14637787714E-01 -0.46275101738E-02  0.93499969102E-01  0.94757178629E-01  0.10000000000E-02 0.  1.
</event>
<event>
 5    1  0.5722211E-009  0.3882908E+03  0.7957747E-01  0.3415834E+00
         13   -1    0    0    0    0  0.00000000000E+00  0.00000000000E+00  0.14999999963E+04  0.15000000000E+04  0.10566000000E+00 0. -1.
        994   -1    0    0    0    0 -0.00000000000E+00 -0.00000000000E+00  0.11368683772E-12  0.17120000000E+03  0.17120000000E+03 0.  0.
         13    1    1    2    0    0  0.19409480611E+03 -0.18553142042E+03  0.11956108624E+04  0.12253897532E+04  0.10566000000E+00 0. -1.
        994    1    1    2    0    0 -0.19562949772E+03  0.18751092894E+03  0.29339948944E+03  0.43453877762E+03  0.17120000000E+03 0.  0.
        998    1    1    2    0    0  0.15346916147E+01 -0.19795085193E+01  0.10989644442E+02  0.11271469216E+02  0.10000000000E-02 0. -1.
</event>
<event>
 5    1  0.5722211E-009  0.3883010E+03  0.7957747E-01  0.3415792E+00
         13   -1    0    0    0    0  0.00000000000E+00  0.00000000000E+00  0.14999999963E+04  0.15000000000E+04  0.10566000000E+00 0. -1.
        994   -1    0    0    0    0 -0.00000000000E+00 -0.00000000000E+00  0.11368683772E-12  0.17120000000E+03  0.17120000000E+03 0.  0.
         13    1    1    2    0    0 -0.10815339348E+03  0.19803974353E+03  0.13112947195E+04  0.13305678296E+04  0.10566000000E+00 0. -1.
        994    1    1    2    0    0  0.10819447460E+03 -0.19811470911E+03  0.18820932734E+03  0.34012890674E+03  0.17120000000E+03 0.  0.
        998    1    1    2    0    0 -0.41081115705E-01  0.74965580380E-01  0.49594944736E+00  0.50326369892E+00  0.10000000000E-02 0.  0.
</event>
<event>
 5    1  0.5722211E-009  0.3883009E+03  0.7957747E-01  0.3415792E+00
         13   -1    0    0    0    0  0.00000000000E+00  0.00000000000E+00  0.14999999963E+04  0.15000000000E+04  0.10566000000E+00 0. -1.
        994   -1    0    0    0    0 -0.00000000000E+00 -0.00000000000E+00  0.11368683772E-12  0.17120000000E+03  0.17120000000E+03 0.  0.
         13    1    1    2    0    0  0.91046878288E+02  0.16434288318E+03  0.11241664922E+04  0.11397580579E+04  0.10566000000E+00 0. -1.
        994    1    1    2    0    0 -0.10692279377E+03 -0.19311255329E+03  0.17875752453E+03  0.33164534467E+03  0.17120000000E+03 0.  0.
        998    1    1    2    0    0  0.15875915479E+02  0.28769670112E+02  0.19707597958E+03  0.19979659741E+03  0.10000000000E-02 0.  1.
</event>
<event>
 5    1  0.5722211E-009  0.3883009E+03  0.7957747E-01  0.3415792E+00
         13   -1    0    0    0    0  0.00000000000E+00  0.00000000000E+00  0.14999999963E+04  0.15000000000E+04  0.10566000000E+00 0. -1.
        994   -1    0    0    0    0 -0.00000000000E+00 -0.00000000000E+00  0.11368683772E-12  0.17120000000E+03  0.17120000000E+03 0.  0.
         13    1    1    2    0    0 -0.99291007212E+01  0.23328193798E+03  0.12958560518E+04  0.13167239528E+04  0.10566000000E+00 0. -1.
        994    1    1    2    0    0  0.99257841908E+01 -0.23335020706E+03  0.20376509904E+03  0.35409108420E+03  0.17120000000E+03 0.  0.
        998    1    1    2    0    0  0.33165304548E-02  0.68269079510E-01  0.37884542100E+00  0.38496301069E+00  0.10000000000E-02 0.  1.
</event>
<event>
 5    1  0.5722211E-009  0.3881919E+03  0.7957747E-01  0.3416247E+00
         13   -1    0    0    0    0  0.00000000000E+00  0.00000000000E+00  0.14999999963E+04  0.15000000000E+04  0.10566000000E+00 0.  1.
        994   -1    0    0    0    0 -0.00000000000E+00 -0.00000000000E+00  0.11368683772E-12  0.17120000000E+03  0.17120000000E+03 0.  0.
         13    1    1    2    0    0  0.16469010716E+03  0.14899263951E+03  0.13045514126E+04  0.13233200812E+04  0.10566000000E+00 0.  1.
        994    1    1    2    0    0 -0.16537642485E+03 -0.15112465155E+03  0.18507841775E+03  0.33727063750E+03  0.17120000000E+03 0.  0.
        998    1    1    2    0    0  0.68631768610E+00  0.21320120403E+01  0.10370165930E+02  0.10609281301E+02  0.10000000000E-02 0.  1.
</event>
<event>
 5    1  0.5722211E-009  0.3883010E+03  0.7957747E-01  0.3415792E+00
         13   -1    0    0    0    0  0.00000000000E+00  0.00000000000E+00  0.14999999963E+04  0.15000000000E+04  0.10566000000E+00 0.  1.
        994   -1    0    0    0    0 -0.00000000000E+00 -0.00000000000E+00  0.11368683772E-12  0.17120000000E+03  0.17120000000E+03 0.  0.
         13    1    1    2    0    0  0.20508058410E+03  0.13581775372E+03  0.12244034166E+04  0.12488667847E+04  0.10566000000E+00 0.  1.
        994    1    1    2    0    0 -0.21024001561E+03 -0.13923674920E+03  0.24481852285E+03  0.39093897941E+03  0.17120000000E+03 0.  0.
        998    1    1    2    0    0  0.51594315105E+01  0.34189954804E+01  0.30778056794E+02  0.31394235850E+02  0.10000000000E-02 0.  1.
</event>
<event>
 5    1  0.5722211E-009  0.3882859E+03  0.7957747E-01  0.3415855E+00
         13   -1    0    0    0    0  0.00000000000E+00  0.00000000000E+00  0.14999999963E+04  0.15000000000E+04  0.10566000000E+00 0.  1.
        994   -1    0    0    0    0 -0.00000000000E+00 -0.00000000000E+00  0.11368683772E-12  0.17120000000E+03  0.17120000000E+03 0.  0.
         13    1    1    2    0    0  0.17226426202E+03  0.13203400105E+03  0.10861735758E+04  0.11076466048E+04  0.10566000000E+00 0.  1.
        994    1    1    2    0    0 -0.20031684479E+03 -0.15122283321E+03  0.24205669061E+03  0.38845342714E+03  0.17120000000E+03 0.  0.
        998    1    1    2    0    0  0.28052582770E+02  0.19188832159E+02  0.17176972992E+03  0.17509996801E+03  0.10000000000E-02 0.  1.
</event>
<event>
 5    1  0.5722211E-009  0.3882997E+03  0.7957747E-01  0.3415797E+00
         13   -1    0    0    0    0  0.00000000000E+00  0.00000000000E+00  0.14999999963E+04  0.15000000000E+04  0.10566000000E+00 0. -1.
        994   -1    0    0    0    0 -0.00000000000E+00 -0.00000000000E+00  0.11368683772E-12  0.17120000000E+03  0.17120000000E+03 0.  0.
         13    1    1    2    0    0 -0.16178834451E+03 -0.16791136146E+03  0.12947935270E+04  0.13156215195E+04  0.10566000000E+00 0. -1.
        994    1    1    2    0    0  0.16195205202E+03  0.16811752719E+03  0.20350871021E+03  0.35386043186E+03  0.17120000000E+03 0.  0.
        998    1    1    2    0    0 -0.16370751375E+00 -0.20616572234E+00  0.16977590310E+01  0.17180486554E+01  0.10000000000E-02 0.  1.
</event>
<event>
 5    1  0.5722211E-009  0.3883010E+03  0.7957747E-01  0.3415792E+00
         13   -1    0    0    0    0  0.00000000000E+00  0.00000000000E+00  0.14999999963E+04  0.15000000000E+04  0.10566000000E+00 0.  1.
        994   -1    0    0    0    0 -0.00000000000E+00 -0.00000000000E+00  0.11368683772E-12  0.17120000000E+03  0.17120000000E+03 0.  0.
         13    1    1    2    0    0  0.98862023338E+02 -0.22911717964E+03  0.12521732724E+04  0.12767953230E+04  0.10566000000E+00 0.  1.
        994    1    1    2    0    0 -0.99355093705E+02  0.23026492435E+03  0.24155519387E+03  0.38800995054E+03  0.17120000000E+03 0.  0.
        998    1    1    2    0    0  0.49307036746E+00 -0.11477447087E+01  0.62715300469E+01  0.63947264548E+01  0.10000000000E-02 0.  0.
</event>
<event>
 5    1  0.5722211E-009  0.3882847E+03  0.7957747E-01  0.3415860E+00
         13   -1    0    0    0    0  0.00000000000E+00  0.00000000000E+00  0.14999999963E+04  0.15000000000E+04  0.10566000000E+00 0. -1.
        994   -1    0    0    0    0 -0.00000000000E+00 -0.00000000000E+00  0.11368683772E-12  0.17120000000E+03  0.17120000000E+03 0.  0.
         13    1    1    2    0    0 -0.22634833844E+03 -0.11221754672E+03  0.11323494659E+04  0.11601903604E+04  0.10566000000E+00 0. -1.
        994    1    1    2    0    0  0.24265807326E+03  0.11910057270E+03  0.29153476813E+03  0.43286238918E+03  0.17120000000E+03 0.  0.
        998    1    1    2    0    0 -0.16309734815E+02 -0.68830259836E+01  0.76115762215E+02  0.78147250463E+02  0.10000000000E-02 0.  1.
</event>
<event>
 5    1  0.5722211E-009  0.3883009E+03  0.7957747E-01  0.3415792E+00
         13   -1    0    0    0    0  0.00000000000E+00  0.00000000000E+00  0.14999999963E+04  0.15000000000E+04  0.10566000000E+00 0. -1.
        994   -1    0    0    0    0 -0.00000000000E+00 -0.00000000000E+00  0.11368683772E-12  0.17120000000E+03  0.17120000000E+03 0.  0.
         13    1    1    2    0    0  0.15465883495E+03  0.17331923873E+03  0.12973368913E+04  0.13179688670E+04  0.10566000000E+00 0. -1.
        994    1    1    2    0    0 -0.15478312927E+03 -0.17346969801E+03  0.20157151897E+03  0.35212223800E+03  0.17120000000E+03 0.  0.
        998    1    1    2    0    0  0.12429431508E+00  0.15045927652E+00  0.10915859826E+01  0.11088949581E+01  0.10000000000E-02 0. -1.
</event>
<event>
 5    1  0.5722211E-009  0.3883009E+03  0.7957747E-01  0.3415792E+00
         13   -1    0    0    0    0  0.00000000000E+00  0.00000000000E+00  0.14999999963E+04  0.15000000000E+04  0.10566000000E+00 0.  1.
        994   -1    0    0    0    0 -0.00000000000E+00 -0.00000000000E+00  0.11368683772E-12  0.17120000000E+03  0.17120000000E+03 0.  0.
         13    1    1    2    0    0  0.15846618248E+03 -0.16981119711E+03  0.12986682190E+04  0.13192750008E+04  0.10566000000E+00 0.  1.
        994    1    1    2    0    0 -0.15848714849E+03  0.16983106525E+03  0.20118387767E+03  0.35177430207E+03  0.17120000000E+03 0.  0.
        998    1    1    2    0    0  0.20966014427E-01 -0.19868139349E-01  0.14789964963E+00  0.15069712367E+00  0.10000000000E-02 0.  1.
</event>
<event>
 5    1  0.5722211E-009  0.3882983E+03  0.7957747E-01  0.3415803E+00
         13   -1    0    0    0    0  0.00000000000E+00  0.00000000000E+00  0.14999999963E+04  0.15000000000E+04  0.10566000000E+00 0.  1.
        994   -1    0    0    0    0 -0.00000000000E+00 -0.00000000000E+00  0.11368683772E-12  0.17120000000E+03  0.17120000000E+03 0.  0.
         13    1    1    2    0    0  0.19652435937E+03  0.24083532964E+03  0.10646405773E+04  0.11090910917E+04  0.10566000000E+00 0.  1.
        994    1    1    2    0    0 -0.19666383562E+03 -0.24108504581E+03  0.43425662617E+03  0.56096962567E+03  0.17120000000E+03 0.  0.
        998    1    1    2    0    0  0.13947625549E+00  0.24971616326E+00  0.11027928213E+01  0.11392825789E+01  0.10000000000E-02 0. -1.
</event>
<event>
 5    1  0.5722211E-009  0.3751754E+03  0.7957747E-01  0.3472439E+00
         13   -1    0    0    0    0  0.00000000000E+00  0.00000000000E+00  0.14999999963E+04  0.15000000000E+04  0.10566000000E+00 0. -1.
        994   -1    0    0    0    0 -0.00000000000E+00 -0.00000000000E+00  0.11368683772E-12  0.17120000000E+03  0.17120000000E+03 0.  0.
         13    1    1    2    0    0  0.15554053799E+02 -0.56821778101E+02  0.34729766252E+03  0.35225888294E+03  0.10566000000E+00 0. -1.
        994    1    1    2    0    0 -0.19685672926E+01 -0.28238631704E+00  0.66021488320E+01  0.17133879703E+03  0.17120000000E+03 0.  0.
        998    1    1    2    0    0 -0.13585486506E+02  0.57104164418E+02  0.11461001849E+04  0.11476023200E+04  0.10000000000E-02 0. -1.
</event>
<event>
 5    1  0.5722211E-009  0.3883008E+03  0.7957747E-01  0.3415793E+00
         13   -1    0    0    0    0  0.00000000000E+00  0.00000000000E+00  0.14999999963E+04  0.15000000000E+04  0.10566000000E+00 0. -1.
        994   -1    0    0    0    0 -0.00000000000E+00 -0.00000000000E+00  0.11368683772E-12  0.17120000000E+03  0.17120000000E+03 0.  0.
         13    1    1    2    0    0  0.20208653137E+03 -0.85077773012E+02  0.11528257403E+04  0.11734923912E+04  0.10566000000E+00 0. -1.
        994    1    1    2    0    0 -0.22389834771E+03  0.94139840438E+02  0.22357277577E+03  0.37186960851E+03  0.17120000000E+03 0.  0.
        998    1    1    2    0    0  0.21811816345E+02 -0.90620674261E+01  0.12360148023E+03  0.12583800028E+03  0.10000000000E-02 0.  1.
</event>
<event>
 5    1  0.5722211E-009  0.3883004E+03  0.7957747E-01  0.3415794E+00
         13   -1    0    0    0    0  0.00000000000E+00  0.00000000000E+00  0.14999999963E+04  0.15000000000E+04  0.10566000000E+00 0. -1.
        994   -1    0    0    0    0 -0.00000000000E+00 -0.00000000000E+00  0.11368683772E-12  0.17120000000E+03  0.17120000000E+03 0.  0.
         13    1    1    2    0    0  0.21201868670E+03 -0.14697615210E+03  0.12399630770E+04  0.12665158334E+04  0.10566000000E+00 0. -1.
        994    1    1    2    0    0 -0.21214962326E+03  0.14706451560E+03  0.25937990048E+03  0.40400842463E+03  0.17120000000E+03 0.  0.
        998    1    1    2    0    0  0.13093656352E+00 -0.88363500037E-01  0.65701876793E+00  0.67574192797E+00  0.10000000000E-02 0. -1.
</event>
<event>
 5    1  0.5722211E-009  0.3882982E+03  0.7957747E-01  0.3415803E+00
         13   -1    0    0    0    0  0.00000000000E+00  0.00000000000E+00  0.14999999963E+04  0.15000000000E+04  0.10566000000E+00 0. -1.
        994   -1    0    0    0    0 -0.00000000000E+00 -0.00000000000E+00  0.11368683772E-12  0.17120000000E+03  0.17120000000E+03 0.  0.
         13    1    1    2    0    0 -0.13490565180E+03 -0.15612523463E+03  0.12249663177E+04  0.12422226509E+04  0.10566000000E+00 0. -1.
        994    1    1    2    0    0  0.14476328243E+03  0.16837991083E+03  0.18121832134E+03  0.33385284528E+03  0.17120000000E+03 0.  0.
        998    1    1    2    0    0 -0.98576306274E+01 -0.12254676205E+02  0.93815357216E+02  0.95124503789E+02  0.10000000000E-02 0. -1.
</event>
<event>
 5    1  0.5722211E-009  0.3882911E+03  0.7957747E-01  0.3415833E+00
         13   -1    0    0    0    0  0.00000000000E+00  0.00000000000E+00  0.14999999963E+04  0.15000000000E+04  0.10566000000E+00 0. -1.
        994   -1    0    0    0    0 -0.00000000000E+00 -0.00000000000E+00  0.11368683772E-12  0.17120000000E+03  0.17120000000E+03 0.  0.
         13    1    1    2    0    0  0.35046797901E+02 -0.20386318377E+03  0.11720177042E+04  0.11901319196E+04  0.10566000000E+00 0. -1.
        994    1    1    2    0    0 -0.39976137434E+02  0.22603720699E+03  0.19568005305E+03  0.34682997804E+03  0.17120000000E+03 0.  0.
        998    1    1    2    0    0  0.49293395327E+01 -0.22174023215E+02  0.13230223898E+03  0.13423810239E+03  0.10000000000E-02 0. -1.
</event>
<event>
 5    1  0.5722211E-009  0.3714334E+03  0.7957747E-01  0.3489329E+00
         13   -1    0    0    0    0  0.00000000000E+00  0.00000000000E+00  0.14999999963E+04  0.15000000000E+04  0.10566000000E+00 0.  1.
        994   -1    0    0    0    0 -0.00000000000E+00 -0.00000000000E+00  0.11368683772E-12  0.17120000000E+03  0.17120000000E+03 0.  0.
         13    1    1    2    0    0  0.91819587904E+02 -0.67676103636E+02  0.66143214084E+03  0.67119548556E+03  0.10566000000E+00 0.  1.
        994    1    1    2    0    0 -0.31344613871E+02  0.17757435593E+03  0.13030707272E+03  0.28072140977E+03  0.17120000000E+03 0.  0.
        998    1    1    2    0    0 -0.60474974033E+02 -0.10989825229E+03  0.70826078271E+03  0.71928310467E+03  0.10000000000E-02 0.  1.
</event>
<event>
 5    1  0.5722211E-009  0.3883010E+03  0.7957747E-01  0.3415792E+00
         13   -1    0    0    0    0  0.00000000000E+00  0.00000000000E+00  0.14999999963E+04  0.15000000000E+04  0.10566000000E+00 0. -1.
        994   -1    0    0    0    0 -0.00000000000E+00 -0.00000000000E+00  0.11368683772E-12  0.17120000000E+03  0.17120000000E+03 0.  0.
         13    1    1    2    0    0  0.27305663677E+03  0.14659428508E+02  0.11987145136E+04  0.12295085693E+04  0.10566000000E+00 0. -1.
        994    1    1    2    0    0 -0.27318052147E+03 -0.14663022670E+02  0.30073655693E+03  0.44112868669E+03  0.17120000000E+03 0.  0.
        998    1    1    2    0    0  0.12388469665E+00  0.35941619861E-02  0.54892577356E+00  0.56274402790E+00  0.10000000000E-02 0.  1.
</event>
<event>
 5    1  0.5722211E-009  0.3882790E+03  0.7957747E-01  0.3415884E+00
         13   -1    0    0    0    0  0.00000000000E+00  0.00000000000E+00  0.14999999963E+04  0.15000000000E+04  0.10566000000E+00 0.  1.
        994   -1    0    0    0    0 -0.00000000000E+00 -0.00000000000E+00  0.11368683772E-12  0.17120000000E+03  0.17120000000E+03 0.  0.
         13    1    1    2    0    0  0.10307859112E+03  0.19515746832E+03  0.13157444367E+04  0.13341270806E+04  0.10566000000E+00 0.  1.
        994    1    1    2    0    0 -0.10321778942E+03 -0.19559661227E+03  0.17957143169E+03  0.33236619242E+03  0.17120000000E+03 0.  0.
        998    1    1    2    0    0  0.13919829787E+00  0.43914394899E+00  0.46841278848E+01  0.47067269535E+01  0.10000000000E-02 0. -1.
</event>
<event>
 5    1  0.5722211E-009  0.3883009E+03  0.7957747E-01  0.3415792E+00
         13   -1    0    0    0    0  0.00000000000E+00  0.00000000000E+00  0.14999999963E+04  0.15000000000E+04  0.10566000000E+00 0.  1.
        994   -1    0    0    0    0 -0.00000000000E+00 -0.00000000000E+00  0.11368683772E-12  0.17120000000E+03  0.17120000000E+03 0.  0.
         13    1    1    2    0    0  0.23844187242E+03  0.76694032849E+02  0.12461642267E+04  0.12710868547E+04  0.10566000000E+00 0.  1.
        994    1    1    2    0    0 -0.24011935015E+03 -0.77259494669E+02  0.24500058065E+03  0.39110236045E+03  0.17120000000E+03 0.  0.
        998    1    1    2    0    0  0.16774777265E+01  0.56546181971E+00  0.88351889826E+01  0.90107848687E+01  0.10000000000E-02 0.  1.
</event>
<event>
 5    1  0.5722211E-009  0.3883010E+03  0.7957747E-01  0.3415792E+00
         13   -1    0    0    0    0  0.00000000000E+00  0.00000000000E+00  0.14999999963E+04  0.15000000000E+04  0.10566000000E+00 0. -1.
        994   -1    0    0    0    0 -0.00000000000E+00 -0.00000000000E+00  0.11368683772E-12  0.17120000000E+03  0.17120000000E+03 0.  0.
         13    1    1    2    0    0  0.20722732613E+03  0.10880564227E+03  0.12810628991E+04  0.13022687875E+04  0.10566000000E+00 0. -1.
        994    1    1    2    0    0 -0.20889311927E+03 -0.10966752186E+03  0.20866239498E+03  0.35848673017E+03  0.17120000000E+03 0.  0.
        998    1    1    2    0    0  0.16657931404E+01  0.86187959573E+00  0.10274702237E+02  0.10444482288E+02  0.10000000000E-02 0. -1.
</event>
<event>
 5    1  0.5722211E-009  0.3883001E+03  0.7957747E-01  0.3415796E+00
         13   -1    0    0    0    0  0.00000000000E+00  0.00000000000E+00  0.14999999963E+04  0.15000000000E+04  0.10566000000E+00 0.  1.
        994   -1    0    0    0    0 -0.00000000000E+00 -0.00000000000E+00  0.11368683772E-12  0.17120000000E+03  0.17120000000E+03 0.  0.
         13    1    1    2    0    0  0.12369678751E+03 -0.13753440772E+03  0.10855854967E+04  0.11012322599E+04  0.10566000000E+00 0.  1.
        994    1    1    2    0    0 -0.15031356972E+03  0.16641673720E+03  0.18536954728E+03  0.33757963316E+03  0.17120000000E+03 0.  0.
        998    1    1    2    0    0  0.26616782217E+02 -0.28882329484E+02  0.22904495234E+03  0.23238810694E+03  0.10000000000E-02 0. -1.
</event>
<event>
 5    1  0.5722211E-009  0.3883009E+03  0.7957747E-01  0.3415792E+00
         13   -1    0    0    0    0  0.00000000000E+00  0.00000000000E+00  0.14999999963E+04  0.15000000000E+04  0.10566000000E+00 0.  1.
        994   -1    0    0    0    0 -0.00000000000E+00 -0.00000000000E+00  0.11368683772E-12  0.17120000000E+03  0.17120000000E+03 0.  0.
         13    1    1    2    0    0  0.82083339069E+02 -0.18170125530E+03  0.97583682494E+03  0.99599725944E+03  0.10566000000E+00 0.  1.
        994    1    1    2    0    0 -0.10484357927E+03  0.23257151167E+03  0.25190689687E+03  0.39730115636E+03  0.17120000000E+03 0.  0.
        998    1    1    2    0    0  0.22760240197E+02 -0.50870256364E+02  0.27225627446E+03  0.27790158420E+03  0.10000000000E-02 0.  1.
</event>
<event>
 5    1  0.5722211E-009  0.3882973E+03  0.7957747E-01  0.3415807E+00
         13   -1    0    0    0    0  0.00000000000E+00  0.00000000000E+00  0.14999999963E+04  0.15000000000E+04  0.10566000000E+00 0.  1.
        994   -1    0    0    0    0 -0.00000000000E+00 -0.00000000000E+00  0.11368683772E-12  0.17120000000E+03  0.17120000000E+03 0.  0.
         13    1    1    2    0    0 -0.32695169667E+02  0.24999920239E+03  0.12426662808E+04  0.12679858327E+04  0.10566000000E+00 0.  1.
        994    1    1    2    0    0  0.32960117720E+02 -0.25157137734E+03  0.24854601028E+03  0.39428300304E+03  0.17120000000E+03 0.  0.
        998    1    1    2    0    0 -0.26494805296E+00  0.15721749484E+01  0.87877051683E+01  0.89311642390E+01  0.10000000000E-02 0.  1.
</event>
<event>
 5    1  0.5722211E-009  0.3882521E+03  0.7957747E-01  0.3415996E+00
         13   -1    0    0    0    0  0.00000000000E+00  0.00000000000E+00  0.14999999963E+04  0.15000000000E+04  0.10566000000E+00 0. -1.
        994   -1    0    0    0    0 -0.00000000000E+00 -0.00000000000E+00  0.11368683772E-12  0.17120000000E+03  0.17120000000E+03 0.  0.
         13    1    1    2    0    0  0.32342578562E+03 -0.12846592581E+03  0.75131966458E+03  0.82800300872E+03  0.10566000000E+00 0. -1.
        994    1    1    2    0    0 -0.32334723930E+03  0.12851966063E+03  0.74856118109E+03  0.84304449596E+03  0.17120000000E+03 0.  0.
        998    1    1    2    0    0 -0.78546324154E-01 -0.53734820152E-01  0.11915061209E+00  0.15249532549E+00  0.10000000000E-02 0. -1.
</event>
<event>
 5    1  0.5722211E-009  0.3881833E+03  0.7957747E-01  0.3416283E+00
         13   -1    0    0    0    0  0.00000000000E+00  0.00000000000E+00  0.14999999963E+04  0.15000000000E+04  0.10566000000E+00 0.  1.
        994   -1    0    0    0    0 -0.00000000000E+00 -0.00000000000E+00  0.11368683772E-12  0.17120000000E+03  0.17120000000E+03 0.  0.
         13    1    1    2    0    0 -0.12303452132E+03  0.22706441425E+03  0.12188287991E+04  0.12458889976E+04  0.10566000000E+00 0.  1.
        994    1    1    2    0    0  0.12308547468E+03 -0.23000808948E+03  0.26650192832E+03  0.41034920872E+03  0.17120000000E+03 0.  0.
        998    1    1    2    0    0 -0.50953358882E-01  0.29436752308E+01  0.14669268910E+02  0.14961793724E+02  0.10000000000E-02 0. -1.
</event>
<event>
 5    1  0.6124318E-009  0.3883009E+03  0.7957747E-01  0.3415792E+00
         13   -1    0    0    0    0  0.00000000000E+00  0.00000000000E+00  0.14999999963E+04  0.15000000000E+04  0.10566000000E+00 0.  1.
        994   -1    0    0    0    0 -0.00000000000E+00 -0.00000000000E+00  0.11368683772E-12  0.17120000000E+03  0.17120000000E+03 0.  0.
         13    1    1    2    0    0 -0.30708455697E+03 -0.84322110588E+02  0.10301173363E+04  0.10782174554E+04  0.10566000000E+00 0.  1.
        994    1    1    2    0    0  0.30715245406E+03  0.84344368957E+02  0.46963705410E+03  0.59272675424E+03  0.17120000000E+03 0.  0.
        998    1    1    2    0    0 -0.67897087865E-01 -0.22258369475E-01  0.24560590846E+00  0.25579036694E+00  0.10000000000E-02 0. -1.
</event>
<event>
 5    1  0.5765348E-009  0.3883009E+03  0.7957747E-01  0.3415792E+00
         13   -1    0    0    0    0  0.00000000000E+00  0.00000000000E+00  0.14999999963E+04  0.15000000000E+04  0.10566000000E+00 0.  1.
        994   -1    0    0    0    0 -0.00000000000E+00 -0.00000000000E+00  0.11368683772E-12  0.17120000000E+03  0.17120000000E+03 0.  0.
         13    1    1    2    0    0 -0.12341827864E+03 -0.19908672234E+03  0.12947974475E+04  0.13158145902E+04  0.10566000000E+00 0.  1.
        994    1    1    2    0    0  0.12342241202E+03  0.19909124185E+03  0.20516772725E+03  0.35535003964E+03  0.17120000000E+03 0.  0.
        998    1    1    2    0    0 -0.41333705699E-02 -0.45195058149E-02  0.34821521853E-01  0.35370172027E-01  0.10000000000E-02 0.  1.
</event>
<event>
 5    1  0.5722211E-009  0.3855596E+03  0.7957747E-01  0.3427302E+00
         13   -1    0    0    0    0  0.00000000000E+00  0.00000000000E+00  0.14999999963E+04  0.15000000000E+04  0.10566000000E+00 0.  1.
        994   -1    0    0    0    0 -0.00000000000E+00 -0.00000000000E+00  0.11368683772E-12  0.17120000000E+03  0.17120000000E+03 0.  0.
         13    1    1    2    0    0 -0.20106524575E+03 -0.60710002945E+01  0.95063912477E+03  0.97168865734E+03  0.10566000000E+00 0.  1.
        994    1    1    2    0    0  0.24228754598E+03  0.34295417823E+02  0.23180817526E+03  0.37805277507E+03  0.17120000000E+03 0.  0.
        998    1    1    2    0    0 -0.41222300226E+02 -0.28224417529E+02  0.31755269625E+03  0.32145856759E+03  0.10000000000E-02 0. -1.
</event>
<event>
 5    1  0.5722211E-009  0.3882955E+03  0.7957747E-01  0.3415815E+00
         13   -1    0    0    0    0  0.00000000000E+00  0.00000000000E+00  0.14999999963E+04  0.15000000000E+04  0.10566000000E+00 0.  1.
        994   -1    0    0    0    0 -0.00000000000E+00 -0.00000000000E+00  0.11368683772E-12  0.17120000000E+03  0.17120000000E+03 0.  0.
         13    1    1    2    0    0  0.23116262465E+03 -0.11344881004E+03  0.12400185368E+04  0.12664725715E+04  0.10566000000E+00 0.  1.
        994    1    1    2    0    0 -0.23143679401E+03  0.11366243248E+03  0.25864653697E+03  0.40334800020E+03  0.17120000000E+03 0.  0.
        998    1    1    2    0    0  0.27416936142E+00 -0.21362244036E+00  0.13349225291E+01  0.13794283397E+01  0.10000000000E-02 0.  1.
</event>
<event>
 5    1  0.5722211E-009  0.3883010E+03  0.7957747E-01  0.3415792E+00
         13   -1    0    0    0    0  0.00000000000E+00  0.00000000000E+00  0.14999999963E+04  0.15000000000E+04  0.10566000000E+00 0.  1.
        994   -1    0    0    0    0 -0.00000000000E+00 -0.00000000000E+00  0.11368683772E-12  0.17120000000E+03  0.17120000000E+03 0.  0.
         13    1    1    2    0    0  0.18488626088E+03 -0.11948352248E+03  0.13209082762E+04  0.13391258070E+04  0.10566000000E+00 0.  1.
        994    1    1    2    0    0 -0.18504146523E+03  0.11958185842E+03  0.17798103998E+03  0.33094841790E+03  0.17120000000E+03 0.  0.
        998    1    1    2    0    0  0.15520434916E+00 -0.98335940134E-01  0.11106801060E+01  0.11257751308E+01  0.10000000000E-02 0.  1.
</event>
<event>
 5    1  0.5722211E-009  0.3869000E+03  0.7957747E-01  0.3421654E+00
         13   -1    0    0    0    0  0.00000000000E+00  0.00000000000E+00  0.14999999963E+04  0.15000000000E+04  0.10566000000E+00 0.  1.
        994   -1    0    0    0    0 -0.00000000000E+00 -0.00000000000E+00  0.11368683772E-12  0.17120000000E+03  0.17120000000E+03 0.  0.
         13    1    1    2    0    0  0.13799046607E+02  0.13340131648E+02  0.11449556370E+03  0.11609314394E+03  0.10566000000E+00 0.  1.
        994    1    1    2    0    0 -0.60935855058E+02 -0.65753912559E+02  0.27411859801E+02  0.19518607918E+03  0.17120000000E+03 0.  0.
        998    1    1    2    0    0  0.47136808451E+02  0.52413780911E+02  0.13580925728E+04  0.13599207769E+04  0.10000000000E-02 0.  1.
</event>
<event>
 5    1  0.7215961E-009  0.3883007E+03  0.7957747E-01  0.3415793E+00
         13   -1    0    0    0    0  0.00000000000E+00  0.00000000000E+00  0.14999999963E+04  0.15000000000E+04  0.10566000000E+00 0. -1.
        994   -1    0    0    0    0 -0.00000000000E+00 -0.00000000000E+00  0.11368683772E-12  0.17120000000E+03  0.17120000000E+03 0.  0.
         13    1    1    2    0    0 -0.75132831983E+01 -0.30895812268E+03  0.10747022083E+04  0.11182559719E+04  0.10566000000E+00 0. -1.
        994    1    1    2    0    0  0.75136619627E+01  0.30898390584E+03  0.42518533295E+03  0.55282865026E+03  0.17120000000E+03 0.  0.
        998    1    1    2    0    0 -0.37876438549E-03 -0.25783161215E-01  0.11245503661E+00  0.11537785803E+00  0.10000000000E-02 0. -1.
</event>
<event>
 5    1  0.5722211E-009  0.3878691E+03  0.7957747E-01  0.3417594E+00
         13   -1    0    0    0    0  0.00000000000E+00  0.00000000000E+00  0.14999999963E+04  0.15000000000E+04  0.10566000000E+00 0.  1.
        994   -1    0    0    0    0 -0.00000000000E+00 -0.00000000000E+00  0.11368683772E-12  0.17120000000E+03  0.17120000000E+03 0.  0.
         13    1    1    2    0    0 -0.14343287115E+03 -0.84108173997E+02  0.85992869503E+03  0.87585646379E+03  0.10566000000E+00 0.  1.
        994    1    1    2    0    0  0.20350931135E+03  0.13943667770E+03  0.23276932448E+03  0.37993371174E+03  0.17120000000E+03 0.  0.
        998    1    1    2    0    0 -0.60076440204E+02 -0.55328503706E+02  0.40730197677E+03  0.41540982448E+03  0.10000000000E-02 0. -1.
</event>
<event>
 5    1  0.5722211E-009  0.3873629E+03  0.7957747E-01  0.3419712E+00
         13   -1    0    0    0    0  0.00000000000E+00  0.00000000000E+00  0.14999999963E+04  0.15000000000E+04  0.10566000000E+00 0.  1.
        994   -1    0    0    0    0 -0.00000000000E+00 -0.00000000000E+00  0.11368683772E-12  0.17120000000E+03  0.17120000000E+03 0.  0.
         13    1    1    2    0    0 -0.10762150560E+03 -0.18327527865E+03  0.96745081174E+03  0.99052173148E+03  0.10566000000E+00 0.  1.
        994    1    1    2    0    0  0.12193186753E+03  0.22451028045E+03  0.25440018092E+03  0.39912546699E+03  0.17120000000E+03 0.  0.
        998    1    1    2    0    0 -0.14310361933E+02 -0.41235001808E+02  0.27814900362E+03  0.28155280153E+03  0.10000000000E-02 0. -1.
</event>
<event>
 5    1  0.5722211E-009  0.3882953E+03  0.7957747E-01  0.3415815E+00
         13   -1    0    0    0    0  0.00000000000E+00  0.00000000000E+00  0.14999999963E+04  0.15000000000E+04  0.10566000000E+00 0.  1.
        994   -1    0    0    0    0 -0.00000000000E+00 -0.00000000000E+00  0.11368683772E-12  0.17120000000E+03  0.17120000000E+03 0.  0.
         13    1    1    2    0    0  0.26783214836E+03 -0.13984791532E+03  0.97374798031E+03  0.10195472718E+04  0.10566000000E+00 0.  1.
        994    1    1    2    0    0 -0.28314501774E+03  0.14731320156E+03  0.47301059016E+03  0.59575224618E+03  0.17120000000E+03 0.  0.
        998    1    1    2    0    0  0.15312869376E+02 -0.74652862391E+01  0.53241425804E+02  0.55900482018E+02  0.10000000000E-02 0.  1.
</event>
<event>
 5    1  0.5722211E-009  0.3882214E+03  0.7957747E-01  0.3416124E+00
         13   -1    0    0    0    0  0.00000000000E+00  0.00000000000E+00  0.14999999963E+04  0.15000000000E+04  0.10566000000E+00 0.  1.
        994   -1    0    0    0    0 -0.00000000000E+00 -0.00000000000E+00  0.11368683772E-12  0.17120000000E+03  0.17120000000E+03 0.  0.
         13    1    1    2    0    0 -0.22635820599E+03  0.17711424908E+03  0.11489081672E+04  0.11843130847E+04  0.10566000000E+00 0.  1.
        994    1    1    2    0    0  0.22680618589E+03 -0.17753865681E+03  0.34560702861E+03  0.48136750912E+03  0.17120000000E+03 0.  0.
        998    1    1    2    0    0 -0.44797989656E+00  0.42440772978E+00  0.54848004623E+01  0.55194062198E+01  0.10000000000E-02 0.  1.
</event>
<event>
 5    1  0.5722211E-009  0.3883007E+03  0.7957747E-01  0.3415793E+00
         13   -1    0    0    0    0  0.00000000000E+00  0.00000000000E+00  0.14999999963E+04  0.15000000000E+04  0.10566000000E+00 0. -1.
        994   -1    0    0    0    0 -0.00000000000E+00 -0.00000000000E+00  0.11368683772E-12  0.17120000000E+03  0.17120000000E+03 0.  0.
         13    1    1    2    0    0 -0.24816323974E+03  0.17972465328E+03  0.97034302759E+03  0.10175713965E+04  0.10566000000E+00 0. -1.
        994    1    1    2    0    0  0.26007468412E+03 -0.18840975224E+03  0.48340504217E+03  0.60508425104E+03  0.17120000000E+03 0.  0.
        998    1    1    2    0    0 -0.11911444382E+02  0.86850989594E+01  0.46251926517E+02  0.48544352491E+02  0.10000000000E-02 0. -1.
</event>
<event>
 5    1  0.5722211E-009  0.3882593E+03  0.7957747E-01  0.3415966E+00
         13   -1    0    0    0    0  0.00000000000E+00  0.00000000000E+00  0.14999999963E+04  0.15000000000E+04  0.10566000000E+00 0.  1.
        994   -1    0    0    0    0 -0.00000000000E+00 -0.00000000000E+00  0.11368683772E-12  0.17120000000E+03  0.17120000000E+03 0.  0.
         13    1    1    2    0    0  0.25678190035E+03  0.40470527598E+01  0.11607609315E+04  0.11888310537E+04  0.10566000000E+00 0.  1.
        994    1    1    2    0    0 -0.26736786443E+03 -0.39638011279E+01  0.28357098385E+03  0.42570321766E+03  0.17120000000E+03 0.  0.
        998    1    1    2    0    0  0.10585964078E+02 -0.83251631960E-01  0.55668080909E+02  0.56665728614E+02  0.10000000000E-02 0.  1.
</event>
<event>
 5    1  0.5722211E-009  0.3883010E+03  0.7957747E-01  0.3415792E+00
         13   -1    0    0    0    0  0.00000000000E+00  0.00000000000E+00  0.14999999963E+04  0.15000000000E+04  0.10566000000E+00 0.  1.
        994   -1    0    0    0    0 -0.00000000000E+00 -0.00000000000E+00  0.11368683772E-12  0.17120000000E+03  0.17120000000E+03 0.  0.
         13    1    1    2    0    0 -0.18605548268E+03  0.14275974707E+03  0.12631996339E+04  0.12847841509E+04  0.10566000000E+00 0.  1.
        994    1    1    2    0    0  0.18934938244E+03 -0.14528513210E+03  0.21442769139E+03  0.36366142643E+03  0.17120000000E+03 0.  0.
        998    1    1    2    0    0 -0.32938997673E+01  0.25253850277E+01  0.22372670949E+02  0.22754422683E+02  0.10000000000E-02 0. -1.
</event>
<event>
 5    1  0.5722211E-009  0.3803229E+03  0.7957747E-01  0.3449754E+00
         13   -1    0    0    0    0  0.00000000000E+00  0.00000000000E+00  0.14999999963E+04  0.15000000000E+04  0.10566000000E+00 0.  1.
        994   -1    0    0    0    0 -0.00000000000E+00 -0.00000000000E+00  0.11368683772E-12  0.17120000000E+03  0.17120000000E+03 0.  0.
         13    1    1    2    0    0 -0.54209470896E+02 -0.76551765296E+02  0.32539718144E+03  0.33864756954E+03  0.10566000000E+00 0.  1.
        994    1    1    2    0    0  0.85094178656E+02  0.18038328901E+03  0.15079763592E+03  0.30303220488E+03  0.17120000000E+03 0.  0.
        998    1    1    2    0    0 -0.30884707760E+02 -0.10383152371E+03  0.10238051789E+04  0.10295202256E+04  0.10000000000E-02 0.  1.
</event>
<event>
 5    1  0.5722211E-009  0.3883010E+03  0.7957747E-01  0.3415792E+00
         13   -1    0    0    0    0  0.00000000000E+00  0.00000000000E+00  0.14999999963E+04  0.15000000000E+04  0.10566000000E+00 0. -1.
        994   -1    0    0    0    0 -0.00000000000E+00 -0.00000000000E+00  0.11368683772E-12  0.17120000000E+03  0.17120000000E+03 0.  0.
         13    1    1    2    0    0 -0.85225596661E+02 -0.19520628997E+03  0.10128053972E+04  0.10349607151E+04  0.10566000000E+00 0. -1.
        994    1    1    2    0    0  0.10396387847E+03  0.23824831700E+03  0.26392816692E+03  0.40809100196E+03  0.17120000000E+03 0.  0.
        998    1    1    2    0    0 -0.18738281814E+02 -0.43042027033E+02  0.22326643217E+03  0.22814828299E+03  0.10000000000E-02 0.  1.
</event>
<event>
 5    1  0.5722211E-009  0.3880540E+03  0.7957747E-01  0.3416822E+00
         13   -1    0    0    0    0  0.00000000000E+00  0.00000000000E+00  0.14999999963E+04  0.15000000000E+04  0.10566000000E+00 0. -1.
        994   -1    0    0    0    0 -0.00000000000E+00 -0.00000000000E+00  0.11368683772E-12  0.17120000000E+03  0.17120000000E+03 0.  0.
         13    1    1    2    0    0  0.98170424998E+02  0.14178300410E+03  0.49687517978E+03  0.52595133619E+03  0.10566000000E+00 0. -1.
        994    1    1    2    0    0 -0.19041459495E+03 -0.27718041890E+03  0.58472820333E+03  0.69591897112E+03  0.17120000000E+03 0.  0.
        998    1    1    2    0    0  0.92244169949E+02  0.13539741480E+03  0.41839661317E+03  0.44932969269E+03  0.10000000000E-02 0.  1.
</event>
<event>
 5    1  0.5722211E-009  0.3882936E+03  0.7957747E-01  0.3415823E+00
         13   -1    0    0    0    0  0.00000000000E+00  0.00000000000E+00  0.14999999963E+04  0.15000000000E+04  0.10566000000E+00 0. -1.
        994   -1    0    0    0    0 -0.00000000000E+00 -0.00000000000E+00  0.11368683772E-12  0.17120000000E+03  0.17120000000E+03 0.  0.
         13    1    1    2    0    0 -0.23566668334E+03 -0.11069039173E+03  0.11995526653E+04  0.12274843202E+04  0.10566000000E+00 0. -1.
        994    1    1    2    0    0  0.24042925891E+03  0.11273577924E+03  0.27852912243E+03  0.42119294451E+03  0.17120000000E+03 0.  0.
        998    1    1    2    0    0 -0.47625755704E+01 -0.20453875135E+01  0.21918208572E+02  0.22522735272E+02  0.10000000000E-02 0. -1.
</event>
<event>
 5    1  0.5722211E-009  0.3882970E+03  0.7957747E-01  0.3415808E+00
         13   -1    0    0    0    0  0.00000000000E+00  0.00000000000E+00  0.14999999963E+04  0.15000000000E+04  0.10566000000E+00 0. -1.
        994   -1    0    0    0    0 -0.00000000000E+00 -0.00000000000E+00  0.11368683772E-12  0.17120000000E+03  0.17120000000E+03 0.  0.
         13    1    1    2    0    0 -0.18850907618E+03  0.12596722380E+03  0.12464223730E+04  0.12668749568E+04  0.10566000000E+00 0. -1.
        994    1    1    2    0    0  0.19578399326E+03 -0.13026754905E+03  0.20706843438E+03  0.35705431361E+03  0.17120000000E+03 0.  0.
        998    1    1    2    0    0 -0.72749170787E+01  0.43003252518E+01  0.46509188926E+02  0.47270729541E+02  0.10000000000E-02 0.  1.
</event>
<event>
 5    1  0.5722211E-009  0.3883009E+03  0.7957747E-01  0.3415792E+00
         13   -1    0    0    0    0  0.00000000000E+00  0.00000000000E+00  0.14999999963E+04  0.15000000000E+04  0.10566000000E+00 0.  1.
        994   -1    0    0    0    0 -0.00000000000E+00 -0.00000000000E+00  0.11368683772E-12  0.17120000000E+03  0.17120000000E+03 0.  0.
         13    1    1    2    0    0 -0.32679246100E+02  0.23865317325E+03  0.12800357149E+04  0.13025032487E+04  0.10566000000E+00 0.  1.
        994    1    1    2    0    0  0.32698071096E+02 -0.23875564488E+03  0.21941660264E+03  0.36813924992E+03  0.17120000000E+03 0.  0.
        998    1    1    2    0    0 -0.18824995380E-01  0.10247163839E+00  0.54767872209E+00  0.55750138991E+00  0.10000000000E-02 0.  0.
</event>
<event>
 5    1  0.5722211E-009  0.3850786E+03  0.7957747E-01  0.3429339E+00
         13   -1    0    0    0    0  0.00000000000E+00  0.00000000000E+00  0.14999999963E+04  0.15000000000E+04  0.10566000000E+00 0.  1.
        994   -1    0    0    0    0 -0.00000000000E+00 -0.00000000000E+00  0.11368683772E-12  0.17120000000E+03  0.17120000000E+03 0.  0.
         13    1    1    2    0    0 -0.91953005080E+02  0.19131498808E+02  0.37226896419E+03  0.38393432024E+03  0.10566000000E+00 0.  1.
        994    1    1    2    0    0 -0.21526519901E+02  0.31037120009E+02  0.24431374594E+02  0.17701137235E+03  0.17120000000E+03 0.  0.
        998    1    1    2    0    0  0.11347952498E+03 -0.50168618817E+02  0.11032996575E+04  0.11102543074E+04  0.10000000000E-02 0.  1.
</event>
<event>
 5    1  0.5722211E-009  0.3883010E+03  0.7957747E-01  0.3415792E+00
         13   -1    0    0    0    0  0.00000000000E+00  0.00000000000E+00  0.14999999963E+04  0.15000000000E+04  0.10566000000E+00 0. -1.
        994   -1    0    0    0    0 -0.00000000000E+00 -0.00000000000E+00  0.11368683772E-12  0.17120000000E+03  0.17120000000E+03 0.  0.
         13    1    1    2    0    0 -0.89456704484E+02 -0.27777255775E+03  0.11367629009E+04  0.11736225968E+04  0.10566000000E+00 0. -1.
        994    1    1    2    0    0  0.89659822901E+02  0.27841078284E+03  0.36064297581E+03  0.49489821564E+03  0.17120000000E+03 0.  0.
        998    1    1    2    0    0 -0.20311841663E+00 -0.63822509382E+00  0.25941195940E+01  0.26791875316E+01  0.10000000000E-02 0.  1.
</event>
<event>
 5    1  0.5722211E-009  0.3883009E+03  0.7957747E-01  0.3415792E+00
         13   -1    0    0    0    0  0.00000000000E+00  0.00000000000E+00  0.14999999963E+04  0.15000000000E+04  0.10566000000E+00 0.  1.
        994   -1    0    0    0    0 -0.00000000000E+00 -0.00000000000E+00  0.11368683772E-12  0.17120000000E+03  0.17120000000E+03 0.  0.
         13    1    1    2    0    0  0.25586893100E+03  0.16457778152E+03  0.10109582240E+04  0.10557420603E+04  0.10566000000E+00 0.  1.
        994    1    1    2    0    0 -0.26500648734E+03 -0.17050094762E+03  0.45278278786E+03  0.57759908626E+03  0.17120000000E+03 0.  0.
        998    1    1    2    0    0  0.91375563424E+01  0.59231660952E+01  0.36258984372E+02  0.37858853405E+02  0.10000000000E-02 0. -1.
</event>
<event>
 5    1  0.5722211E-009  0.3883010E+03  0.7957747E-01  0.3415792E+00
         13   -1    0    0    0    0  0.00000000000E+00  0.00000000000E+00  0.14999999963E+04  0.15000000000E+04  0.10566000000E+00 0.  1.
        994   -1    0    0    0    0 -0.00000000000E+00 -0.00000000000E+00  0.11368683772E-12  0.17120000000E+03  0.17120000000E+03 0.  0.
         13    1    1    2    0    0  0.23073629772E+03 -0.45759608885E+02  0.12893077662E+04  0.13105905951E+04  0.10566000000E+00 0.  1.
        994    1    1    2    0    0 -0.23118601040E+03  0.45843293156E+02  0.20815546126E+03  0.35803172344E+03  0.17120000000E+03 0.  0.
        998    1    1    2    0    0  0.44971267950E+00 -0.83684271420E-01  0.25367688231E+01  0.25776814414E+01  0.10000000000E-02 0.  1.
</event>
<event>
 5    1  0.5722211E-009  0.3881811E+03  0.7957747E-01  0.3416292E+00
         13   -1    0    0    0    0  0.00000000000E+00  0.00000000000E+00  0.14999999963E+04  0.15000000000E+04  0.10566000000E+00 0.  1.
        994   -1    0    0    0    0 -0.00000000000E+00 -0.00000000000E+00  0.11368683772E-12  0.17120000000E+03  0.17120000000E+03 0.  0.
         13    1    1    2    0    0 -0.59579342413E+02  0.26331945113E+03  0.11513159433E+04  0.11825460853E+04  0.10566000000E+00 0.  1.
        994    1    1    2    0    0  0.59097677246E+02 -0.27127109879E+03  0.31289196912E+03  0.45198602726E+03  0.17120000000E+03 0.  0.
        998    1    1    2    0    0  0.48166516711E+00  0.79516476677E+01  0.35792083852E+02  0.36667887442E+02  0.10000000000E-02 0.  1.
</event>
<event>
 5    1  0.5722211E-009  0.3883003E+03  0.7957747E-01  0.3415795E+00
         13   -1    0    0    0    0  0.00000000000E+00  0.00000000000E+00  0.14999999963E+04  0.15000000000E+04  0.10566000000E+00 0.  1.
        994   -1    0    0    0    0 -0.00000000000E+00 -0.00000000000E+00  0.11368683772E-12  0.17120000000E+03  0.17120000000E+03 0.  0.
         13    1    1    2    0    0  0.22146371329E+03  0.32897463028E+02  0.13142024482E+04  0.13331378419E+04  0.10566000000E+00 0.  1.
        994    1    1    2    0    0 -0.22158627479E+03 -0.32926124463E+02  0.18492688330E+03  0.33718244174E+03  0.17120000000E+03 0.  0.
        998    1    1    2    0    0  0.12256149908E+00  0.28661434461E-01  0.87066478303E+00  0.87971641072E+00  0.10000000000E-02 0. -1.
</event>
<event>
 5    1  0.5722211E-009  0.3883006E+03  0.7957747E-01  0.3415794E+00
         13   -1    0    0    0    0  0.00000000000E+00  0.00000000000E+00  0.14999999963E+04  0.15000000000E+04  0.10566000000E+00 0.  1.
        994   -1    0    0    0    0 -0.00000000000E+00 -0.00000000000E+00  0.11368683772E-12  0.17120000000E+03  0.17120000000E+03 0.  0.
         13    1    1    2    0    0  0.22176751958E+03  0.60956698075E+02  0.12010031400E+04  0.12228266865E+04  0.10566000000E+00 0.  1.
        994    1    1    2    0    0 -0.23518760408E+03 -0.64847716809E+02  0.22596318996E+03  0.37401502470E+03  0.17120000000E+03 0.  0.
        998    1    1    2    0    0  0.13420084500E+02  0.38910187337E+01  0.73033666276E+02  0.74358288747E+02  0.10000000000E-02 0.  1.
</event>
<event>
 5    1  0.5722211E-009  0.3883010E+03  0.7957747E-01  0.3415792E+00
         13   -1    0    0    0    0  0.00000000000E+00  0.00000000000E+00  0.14999999963E+04  0.15000000000E+04  0.10566000000E+00 0.  1.
        994   -1    0    0    0    0 -0.00000000000E+00 -0.00000000000E+00  0.11368683772E-12  0.17120000000E+03  0.17120000000E+03 0.  0.
         13    1    1    2    0    0 -0.20753110212E+03  0.21604398374E+03  0.30713285438E+03  0.42903934862E+03  0.10566000000E+00 0.  1.
        994    1    1    2    0    0  0.20792506787E+03 -0.21645970703E+03  0.11922756528E+04  0.12413373075E+04  0.17120000000E+03 0.  0.
        998    1    1    2    0    0 -0.39396574761E+00  0.41572329169E+00  0.59148907282E+00  0.82334390677E+00  0.10000000000E-02 0.  1.
</event>
<event>
 5    1  0.5722211E-009  0.3883010E+03  0.7957747E-01  0.3415792E+00
         13   -1    0    0    0    0  0.00000000000E+00  0.00000000000E+00  0.14999999963E+04  0.15000000000E+04  0.10566000000E+00 0. -1.
        994   -1    0    0    0    0 -0.00000000000E+00 -0.00000000000E+00  0.11368683772E-12  0.17120000000E+03  0.17120000000E+03 0.  0.
         13    1    1    2    0    0  0.32602582528E+02  0.33263952138E+03  0.71567775781E+03  0.78987761315E+03  0.10566000000E+00 0. -1.
        994    1    1    2    0    0 -0.33952101349E+02 -0.34650160832E+03  0.75447715448E+03  0.84838748598E+03  0.17120000000E+03 0.  0.
        998    1    1    2    0    0  0.13495188209E+01  0.13862086934E+02  0.29845083993E+02  0.32934900862E+02  0.10000000000E-02 0. -1.
</event>
<event>
 5    1  0.5722211E-009  0.3882988E+03  0.7957747E-01  0.3415801E+00
         13   -1    0    0    0    0  0.00000000000E+00  0.00000000000E+00  0.14999999963E+04  0.15000000000E+04  0.10566000000E+00 0.  1.
        994   -1    0    0    0    0 -0.00000000000E+00 -0.00000000000E+00  0.11368683772E-12  0.17120000000E+03  0.17120000000E+03 0.  0.
         13    1    1    2    0    0  0.30963192325E+03  0.13202075895E+03  0.91280908436E+03  0.97289354215E+03  0.10566000000E+00 0.  1.
        994    1    1    2    0    0 -0.30975324003E+03 -0.13208817447E+03  0.58670595042E+03  0.69780202623E+03  0.17120000000E+03 0.  0.
        998    1    1    2    0    0  0.12131678819E+00  0.67415525045E-01  0.48496149530E+00  0.50443162871E+00  0.10000000000E-02 0.  1.
</event>
<event>
 5    1  0.5722211E-009  0.3825611E+03  0.7957747E-01  0.3440082E+00
         13   -1    0    0    0    0  0.00000000000E+00  0.00000000000E+00  0.14999999963E+04  0.15000000000E+04  0.10566000000E+00 0.  1.
        994   -1    0    0    0    0 -0.00000000000E+00 -0.00000000000E+00  0.11368683772E-12  0.17120000000E+03  0.17120000000E+03 0.  0.
         13    1    1    2    0    0  0.18760918879E+03  0.63359906942E+01  0.89783323164E+03  0.91724689997E+03  0.10566000000E+00 0.  1.
        994    1    1    2    0    0 -0.22611548936E+03  0.32691791529E+02  0.20122945203E+03  0.34928455466E+03  0.17120000000E+03 0.  0.
        998    1    1    2    0    0  0.38506300567E+02 -0.39027782224E+02  0.40093731261E+03  0.40466854537E+03  0.10000000000E-02 0. -1.
</event>
<event>
 5    1  0.5722211E-009  0.3882028E+03  0.7957747E-01  0.3416201E+00
         13   -1    0    0    0    0  0.00000000000E+00  0.00000000000E+00  0.14999999963E+04  0.15000000000E+04  0.10566000000E+00 0.  1.
        994   -1    0    0    0    0 -0.00000000000E+00 -0.00000000000E+00  0.11368683772E-12  0.17120000000E+03  0.17120000000E+03 0.  0.
         13    1    1    2    0    0  0.36390329799E+02 -0.28519625482E+03  0.93780593709E+03  0.98088793788E+03  0.10566000000E+00 0.  1.
        994    1    1    2    0    0 -0.42028733025E+02  0.31320725166E+03  0.45751175128E+03  0.58180034329E+03  0.17120000000E+03 0.  0.
        998    1    1    2    0    0  0.56384032263E+01 -0.28010996836E+02  0.10468230791E+03  0.10851171883E+03  0.10000000000E-02 0.  1.
</event>
<event>
 5    1  0.5722211E-009  0.3882972E+03  0.7957747E-01  0.3415808E+00
         13   -1    0    0    0    0  0.00000000000E+00  0.00000000000E+00  0.14999999963E+04  0.15000000000E+04  0.10566000000E+00 0.  1.
        994   -1    0    0    0    0 -0.00000000000E+00 -0.00000000000E+00  0.11368683772E-12  0.17120000000E+03  0.17120000000E+03 0.  0.
         13    1    1    2    0    0  0.25439339445E+03 -0.99085789832E+01  0.12217650087E+04  0.12480079835E+04  0.10566000000E+00 0.  1.
        994    1    1    2    0    0 -0.25822353888E+03  0.10339284371E+02  0.26011668787E+03  0.40466829396E+03  0.17120000000E+03 0.  0.
        998    1    1    2    0    0  0.38301444304E+01 -0.43070538796E+00  0.18118299695E+02  0.18523722583E+02  0.10000000000E-02 0. -1.
</event>
<event>
 5    1  0.5722211E-009  0.3882820E+03  0.7957747E-01  0.3415871E+00
         13   -1    0    0    0    0  0.00000000000E+00  0.00000000000E+00  0.14999999963E+04  0.15000000000E+04  0.10566000000E+00 0. -1.
        994   -1    0    0    0    0 -0.00000000000E+00 -0.00000000000E+00  0.11368683772E-12  0.17120000000E+03  0.17120000000E+03 0.  0.
         13    1    1    2    0    0 -0.17375170035E+03 -0.16545280046E+03  0.12431017075E+04  0.12660435020E+04  0.10566000000E+00 0. -1.
        994    1    1    2    0    0  0.17831473425E+03  0.16904304457E+03  0.22989274333E+03  0.37753385120E+03  0.17120000000E+03 0.  0.
        998    1    1    2    0    0 -0.45630338986E+01 -0.35902441140E+01  0.27005545481E+02  0.27622646848E+02  0.10000000000E-02 0. -1.
</event>
<event>
 5    1  0.5722211E-009  0.3882641E+03  0.7957747E-01  0.3415946E+00
         13   -1    0    0    0    0  0.00000000000E+00  0.00000000000E+00  0.14999999963E+04  0.15000000000E+04  0.10566000000E+00 0. -1.
        994   -1    0    0    0    0 -0.00000000000E+00 -0.00000000000E+00  0.11368683772E-12  0.17120000000E+03  0.17120000000E+03 0.  0.
         13    1    1    2    0    0 -0.16754464198E+03  0.15204936001E+03  0.10285019892E+04  0.10530938077E+04  0.10566000000E+00 0. -1.
        994    1    1    2    0    0  0.19549051562E+03 -0.18082870826E+03  0.28059813760E+03  0.42303701760E+03  0.17120000000E+03 0.  0.
        998    1    1    2    0    0 -0.27945873644E+02  0.28779348248E+02  0.19089986950E+03  0.19506917470E+03  0.10000000000E-02 0. -1.
</event>
<event>
 5    1  0.5722211E-009  0.3883008E+03  0.7957747E-01  0.3415793E+00
         13   -1    0    0    0    0  0.00000000000E+00  0.00000000000E+00  0.14999999963E+04  0.15000000000E+04  0.10566000000E+00 0.  1.
        994   -1    0    0    0    0 -0.00000000000E+00 -0.00000000000E+00  0.11368683772E-12  0.17120000000E+03  0.17120000000E+03 0.  0.
         13    1    1    2    0    0  0.26210321684E+03  0.15720232012E+02  0.12173464465E+04  0.12453423642E+04  0.10566000000E+00 0.  1.
        994    1    1    2    0    0 -0.26373842950E+03 -0.15786818795E+02  0.27496880234E+03  0.41800055634E+03  0.17120000000E+03 0.  0.
        998    1    1    2    0    0  0.16352126539E+01  0.66586783317E-01  0.76847474352E+01  0.78570795062E+01  0.10000000000E-02 0. -1.
</event>
<event>
 5    1  0.5722211E-009  0.3882860E+03  0.7957747E-01  0.3415854E+00
         13   -1    0    0    0    0  0.00000000000E+00  0.00000000000E+00  0.14999999963E+04  0.15000000000E+04  0.10566000000E+00 0.  1.
        994   -1    0    0    0    0 -0.00000000000E+00 -0.00000000000E+00  0.11368683772E-12  0.17120000000E+03  0.17120000000E+03 0.  0.
         13    1    1    2    0    0 -0.81180023858E+02 -0.15380051237E+03  0.89934334943E+03  0.91600396571E+03  0.10566000000E+00 0.  1.
        994    1    1    2    0    0  0.11735809455E+03  0.21731529667E+03  0.23277183388E+03  0.38011975372E+03  0.17120000000E+03 0.  0.
        998    1    1    2    0    0 -0.36178070688E+02 -0.63514784302E+02  0.36788481298E+03  0.37507628056E+03  0.10000000000E-02 0.  1.
</event>
<event>
 5    1  0.5722211E-009  0.3883002E+03  0.7957747E-01  0.3415795E+00
         13   -1    0    0    0    0  0.00000000000E+00  0.00000000000E+00  0.14999999963E+04  0.15000000000E+04  0.10566000000E+00 0. -1.
        994   -1    0    0    0    0 -0.00000000000E+00 -0.00000000000E+00  0.11368683772E-12  0.17120000000E+03  0.17120000000E+03 0.  0.
         13    1    1    2    0    0 -0.87806105181E+02 -0.20709667799E+03  0.13126924596E+04  0.13318259837E+04  0.10566000000E+00 0. -1.
        994    1    1    2    0    0  0.87821938838E+02  0.20716171003E+03  0.18681621800E+03  0.33887815857E+03  0.17120000000E+03 0.  0.
        998    1    1    2    0    0 -0.15833656875E-01 -0.65032047599E-01  0.49131867435E+00  0.49585775346E+00  0.10000000000E-02 0. -1.
</event>
<event>
 5    1  0.5722211E-009  0.3882983E+03  0.7957747E-01  0.3415803E+00
         13   -1    0    0    0    0  0.00000000000E+00  0.00000000000E+00  0.14999999963E+04  0.15000000000E+04  0.10566000000E+00 0.  1.
        994   -1    0    0    0    0 -0.00000000000E+00 -0.00000000000E+00  0.11368683772E-12  0.17120000000E+03  0.17120000000E+03 0.  0.
         13    1    1    2    0    0  0.15354295506E+03 -0.23446851175E+03  0.10268220658E+04  0.10643845583E+04  0.10566000000E+00 0.  1.
        994    1    1    2    0    0 -0.16507781814E+03  0.25218855343E+03  0.39362005948E+03  0.52449589488E+03  0.17120000000E+03 0.  0.
        998    1    1    2    0    0  0.11534863079E+02 -0.17720041682E+02  0.79557870995E+02  0.82319546778E+02  0.10000000000E-02 0.  1.
</event>
<event>
 5    1  0.5722211E-009  0.3883008E+03  0.7957747E-01  0.3415793E+00
         13   -1    0    0    0    0  0.00000000000E+00  0.00000000000E+00  0.14999999963E+04  0.15000000000E+04  0.10566000000E+00 0.  1.
        994   -1    0    0    0    0 -0.00000000000E+00 -0.00000000000E+00  0.11368683772E-12  0.17120000000E+03  0.17120000000E+03 0.  0.
         13    1    1    2    0    0  0.26581118038E+03  0.11825917110E+02  0.12194042855E+04  0.12480954525E+04  0.10566000000E+00 0.  1.
        994    1    1    2    0    0 -0.26590857163E+03 -0.11822893928E+02  0.28018416953E+03  0.42268162741E+03  0.17120000000E+03 0.  0.
        998    1    1    2    0    0  0.97391250440E-01 -0.30231816160E-02  0.41154128583E+00  0.42292011684E+00  0.10000000000E-02 0. -1.
</event>
<event>
 5    1  0.5722211E-009  0.3883010E+03  0.7957747E-01  0.3415792E+00
         13   -1    0    0    0    0  0.00000000000E+00  0.00000000000E+00  0.14999999963E+04  0.15000000000E+04  0.10566000000E+00 0.  1.
        994   -1    0    0    0    0 -0.00000000000E+00 -0.00000000000E+00  0.11368683772E-12  0.17120000000E+03  0.17120000000E+03 0.  0.
         13    1    1    2    0    0 -0.15703737251E+03  0.10972197615E+03  0.10231191529E+04  0.10408998322E+04  0.10566000000E+00 0.  1.
        994    1    1    2    0    0  0.19687838810E+03 -0.13747464739E+03  0.21755919887E+03  0.36647213180E+03  0.17120000000E+03 0.  0.
        998    1    1    2    0    0 -0.39841015592E+02  0.27752671232E+02  0.25932164450E+03  0.26382803602E+03  0.10000000000E-02 0.  1.
</event>
<event>
 5    1  0.5722211E-009  0.3883005E+03  0.7957747E-01  0.3415794E+00
         13   -1    0    0    0    0  0.00000000000E+00  0.00000000000E+00  0.14999999963E+04  0.15000000000E+04  0.10566000000E+00 0. -1.
        994   -1    0    0    0    0 -0.00000000000E+00 -0.00000000000E+00  0.11368683772E-12  0.17120000000E+03  0.17120000000E+03 0.  0.
         13    1    1    2    0    0  0.22407932477E+03 -0.11292311864E+03  0.12556626133E+04  0.12804888848E+04  0.10566000000E+00 0. -1.
        994    1    1    2    0    0 -0.22439935041E+03  0.11306903347E+03  0.24271125839E+03  0.38904738753E+03  0.17120000000E+03 0.  0.
        998    1    1    2    0    0  0.32002564343E+00 -0.14591483111E+00  0.16261245694E+01  0.16637276416E+01  0.10000000000E-02 0. -1.
</event>
<event>
 5    1  0.5722211E-009  0.3881427E+03  0.7957747E-01  0.3416452E+00
         13   -1    0    0    0    0  0.00000000000E+00  0.00000000000E+00  0.14999999963E+04  0.15000000000E+04  0.10566000000E+00 0.  1.
        994   -1    0    0    0    0 -0.00000000000E+00 -0.00000000000E+00  0.11368683772E-12  0.17120000000E+03  0.17120000000E+03 0.  0.
         13    1    1    2    0    0  0.40555269956E+02  0.24481278177E+03  0.12181336996E+04  0.12431523435E+04  0.10566000000E+00 0.  1.
        994    1    1    2    0    0 -0.39904220403E+02 -0.25234907711E+03  0.25308424468E+03  0.39828818515E+03  0.17120000000E+03 0.  0.
        998    1    1    2    0    0 -0.65104955359E+00  0.75362953407E+01  0.28782052019E+02  0.29759471306E+02  0.10000000000E-02 0.  1.
</event>
<event>
 5    1  0.5722211E-009  0.3882938E+03  0.7957747E-01  0.3415822E+00
         13   -1    0    0    0    0  0.00000000000E+00  0.00000000000E+00  0.14999999963E+04  0.15000000000E+04  0.10566000000E+00 0.  1.
        994   -1    0    0    0    0 -0.00000000000E+00 -0.00000000000E+00  0.11368683772E-12  0.17120000000E+03  0.17120000000E+03 0.  0.
         13    1    1    2    0    0  0.33316499358E+03 -0.39836501261E+02  0.90989409526E+03  0.96979025337E+03  0.10566000000E+00 0.  1.
        994    1    1    2    0    0 -0.33435930141E+03  0.39810844052E+02  0.58657638559E+03  0.69768355425E+03  0.17120000000E+03 0.  0.
        998    1    1    2    0    0  0.11943078217E+01  0.25657208966E-01  0.35295154308E+01  0.37261923785E+01  0.10000000000E-02 0.  1.
</event>
<event>
 5    1  0.5722211E-009  0.3880624E+03  0.7957747E-01  0.3416787E+00
         13   -1    0    0    0    0  0.00000000000E+00  0.00000000000E+00  0.14999999963E+04  0.15000000000E+04  0.10566000000E+00 0.  1.
        994   -1    0    0    0    0 -0.00000000000E+00 -0.00000000000E+00  0.11368683772E-12  0.17120000000E+03  0.17120000000E+03 0.  0.
         13    1    1    2    0    0  0.94965088536E+02  0.83926446541E+02  0.64927802195E+03  0.66153153925E+03  0.10566000000E+00 0.  1.
        994    1    1    2    0    0 -0.16949720244E+03 -0.17050851181E+03  0.21854484511E+03  0.36725160797E+03  0.17120000000E+03 0.  0.
        998    1    1    2    0    0  0.74532113902E+02  0.86582065264E+02  0.63217712922E+03  0.64241685278E+03  0.10000000000E-02 0.  1.
</event>
<event>
 5    1  0.5722211E-009  0.3718703E+03  0.7957747E-01  0.3487339E+00
         13   -1    0    0    0    0  0.00000000000E+00  0.00000000000E+00  0.14999999963E+04  0.15000000000E+04  0.10566000000E+00 0.  1.
        994   -1    0    0    0    0 -0.00000000000E+00 -0.00000000000E+00  0.11368683772E-12  0.17120000000E+03  0.17120000000E+03 0.  0.
         13    1    1    2    0    0  0.73511364317E+02 -0.30625532232E+02  0.15111904488E+03  0.17081809271E+03  0.10566000000E+00 0.  1.
        994    1    1    2    0    0 -0.20226014046E+03  0.10870024612E+03  0.21909496519E+03  0.36060636669E+03  0.17120000000E+03 0.  0.
        998    1    1    2    0    0  0.12874877615E+03 -0.78074713888E+02  0.11297859862E+04  0.11397755406E+04  0.10000000000E-02 0.  1.
</event>
<event>
 5    1  0.5722211E-009  0.3883010E+03  0.7957747E-01  0.3415792E+00
         13   -1    0    0    0    0  0.00000000000E+00  0.00000000000E+00  0.14999999963E+04  0.15000000000E+04  0.10566000000E+00 0. -1.
        994   -1    0    0    0    0 -0.00000000000E+00 -0.00000000000E+00  0.11368683772E-12  0.17120000000E+03  0.17120000000E+03 0.  0.
         13    1    1    2    0    0  0.18954841673E+03  0.16384977063E+03  0.11583626699E+04  0.11851495415E+04  0.10566000000E+00 0. -1.
        994    1    1    2    0    0 -0.20026499985E+03 -0.17306887771E+03  0.27622604835E+03  0.41912906889E+03  0.17120000000E+03 0.  0.
        998    1    1    2    0    0  0.10716583119E+02  0.92191070801E+01  0.65411278044E+02  0.66921389596E+02  0.10000000000E-02 0. -1.
</event>
<event>
 5    1  0.5722211E-009  0.3883009E+03  0.7957747E-01  0.3415792E+00
         13   -1    0    0    0    0  0.00000000000E+00  0.00000000000E+00  0.14999999963E+04  0.15000000000E+04  0.10566000000E+00 0.  1.
        994   -1    0    0    0    0 -0.00000000000E+00 -0.00000000000E+00  0.11368683772E-12  0.17120000000E+03  0.17120000000E+03 0.  0.
         13    1    1    2    0    0 -0.20539076088E+03  0.15722239694E+03  0.12310726479E+04  0.12579523530E+04  0.10566000000E+00 0.  1.
        994    1    1    2    0    0  0.20630862374E+03 -0.15790382004E+03  0.26356751478E+03  0.40776726139E+03  0.17120000000E+03 0.  0.
        998    1    1    2    0    0 -0.91786286413E+00  0.68142310015E+00  0.53598336084E+01  0.54803856606E+01  0.10000000000E-02 0.  1.
</event>
<event>
 5    1  0.5722211E-009  0.3883006E+03  0.7957747E-01  0.3415793E+00
         13   -1    0    0    0    0  0.00000000000E+00  0.00000000000E+00  0.14999999963E+04  0.15000000000E+04  0.10566000000E+00 0. -1.
        994   -1    0    0    0    0 -0.00000000000E+00 -0.00000000000E+00  0.11368683772E-12  0.17120000000E+03  0.17120000000E+03 0.  0.
         13    1    1    2    0    0 -0.22628175996E+03  0.25480079860E+03  0.87339832375E+03  0.93752414633E+03  0.10566000000E+00 0. -1.
        994    1    1    2    0    0  0.22638066249E+03 -0.25490667561E+03  0.62626860722E+03  0.73331263866E+03  0.17120000000E+03 0.  0.
        998    1    1    2    0    0 -0.98902527156E-01  0.10587700345E+00  0.33306530017E+00  0.36321501058E+00  0.10000000000E-02 0. -1.
</event>
<event>
 5    1  0.5722211E-009  0.3883009E+03  0.7957747E-01  0.3415792E+00
         13   -1    0    0    0    0  0.00000000000E+00  0.00000000000E+00  0.14999999963E+04  0.15000000000E+04  0.10566000000E+00 0. -1.
        994   -1    0    0    0    0 -0.00000000000E+00 -0.00000000000E+00  0.11368683772E-12  0.17120000000E+03  0.17120000000E+03 0.  0.
         13    1    1    2    0    0 -0.17666975026E+03  0.21769569021E+03  0.11787705879E+04  0.12116533020E+04  0.10566000000E+00 0. -1.
        994    1    1    2    0    0  0.17669725727E+03 -0.21772819693E+03  0.32103543230E+03  0.45934810031E+03  0.17120000000E+03 0.  0.
        998    1    1    2    0    0 -0.27507011013E-01  0.32506722018E-01  0.19397605402E+00  0.19859766405E+00  0.10000000000E-02 0.  1.
</event>
<event>
 5    1  0.5722211E-009  0.3883001E+03  0.7957747E-01  0.3415796E+00
         13   -1    0    0    0    0  0.00000000000E+00  0.00000000000E+00  0.14999999963E+04  0.15000000000E+04  0.10566000000E+00 0.  1.
        994   -1    0    0    0    0 -0.00000000000E+00 -0.00000000000E+00  0.11368683772E-12  0.17120000000E+03  0.17120000000E+03 0.  0.
         13    1    1    2    0    0 -0.91149555542E+02  0.22188265220E+03  0.12799115732E+04  0.13021957607E+04  0.10566000000E+00 0.  1.
        994    1    1    2    0    0  0.91293330822E+02 -0.22222843452E+03  0.21782799379E+03  0.36671299983E+03  0.17120000000E+03 0.  0.
        998    1    1    2    0    0 -0.14377528018E+00  0.34578232460E+00  0.22604293210E+01  0.22912395035E+01  0.10000000000E-02 0. -1.
</event>
<event>
 5    1  0.5722211E-009  0.3883006E+03  0.7957747E-01  0.3415794E+00
         13   -1    0    0    0    0  0.00000000000E+00  0.00000000000E+00  0.14999999963E+04  0.15000000000E+04  0.10566000000E+00 0.  1.
        994   -1    0    0    0    0 -0.00000000000E+00 -0.00000000000E+00  0.11368683772E-12  0.17120000000E+03  0.17120000000E+03 0.  0.
         13    1    1    2    0    0  0.24185580430E+03  0.11714351007E+03  0.11901681879E+04  0.12201299761E+04  0.10566000000E+00 0.  1.
        994    1    1    2    0    0 -0.24474465075E+03 -0.11848174891E+03  0.29600850029E+03  0.43688481450E+03  0.17120000000E+03 0.  0.
        998    1    1    2    0    0  0.28888464476E+01  0.13382388471E+01  0.13823308125E+02  0.14185209393E+02  0.10000000000E-02 0.  1.
</event>
<event>
 5    1  0.5722211E-009  0.3883010E+03  0.7957747E-01  0.3415792E+00
         13   -1    0    0    0    0  0.00000000000E+00  0.00000000000E+00  0.14999999963E+04  0.15000000000E+04  0.10566000000E+00 0.  1.
        994   -1    0    0    0    0 -0.00000000000E+00 -0.00000000000E+00  0.11368683772E-12  0.17120000000E+03  0.17120000000E+03 0.  0.
         13    1    1    2    0    0  0.12700993890E+03 -0.29949080201E+03  0.97658527641E+03  0.10293420609E+04  0.10566000000E+00 0.  1.
        994    1    1    2    0    0 -0.12772497286E+03  0.30117723613E+03  0.51787385367E+03  0.63602214157E+03  0.17120000000E+03 0.  0.
        998    1    1    2    0    0  0.71503395859E+00 -0.16864341218E+01  0.55408661945E+01  0.58357975285E+01  0.10000000000E-02 0. -1.
</event>
<event>
 5    1  0.5722211E-009  0.3883010E+03  0.7957747E-01  0.3415792E+00
         13   -1    0    0    0    0  0.00000000000E+00  0.00000000000E+00  0.14999999963E+04  0.15000000000E+04  0.10566000000E+00 0. -1.
        994   -1    0    0    0    0 -0.00000000000E+00 -0.00000000000E+00  0.11368683772E-12  0.17120000000E+03  0.17120000000E+03 0.  0.
         13    1    1    2    0    0 -0.12409960702E+03  0.21958722816E+03  0.12543553148E+04  0.12794633759E+04  0.10566000000E+00 0. -1.
        994    1    1    2    0    0  0.12414419253E+03 -0.21966638762E+03  0.24518334160E+03  0.39126642251E+03  0.17120000000E+03 0.  0.
        998    1    1    2    0    0 -0.44585511778E-01  0.79159460048E-01  0.46133988800E+00  0.47020163785E+00  0.10000000000E-02 0. -1.
</event>
<event>
 5    1  0.5722211E-009  0.3883009E+03  0.7957747E-01  0.3415792E+00
         13   -1    0    0    0    0  0.00000000000E+00  0.00000000000E+00  0.14999999963E+04  0.15000000000E+04  0.10566000000E+00 0. -1.
        994   -1    0    0    0    0 -0.00000000000E+00 -0.00000000000E+00  0.11368683772E-12  0.17120000000E+03  0.17120000000E+03 0.  0.
         13    1    1    2    0    0  0.95005244746E+02  0.20304033553E+03  0.11026831140E+04  0.11252383905E+04  0.10566000000E+00 0. -1.
        994    1    1    2    0    0 -0.10775650715E+03 -0.23027391229E+03  0.24978975180E+03  0.39540093527E+03  0.17120000000E+03 0.  0.
        998    1    1    2    0    0  0.12751262400E+02  0.27233576754E+02  0.14752713044E+03  0.15056067419E+03  0.10000000000E-02 0.  1.
</event>
<event>
 5    1  0.5722211E-009  0.3883007E+03  0.7957747E-01  0.3415793E+00
         13   -1    0    0    0    0  0.00000000000E+00  0.00000000000E+00  0.14999999963E+04  0.15000000000E+04  0.10566000000E+00 0. -1.
        994   -1    0    0    0    0 -0.00000000000E+00 -0.00000000000E+00  0.11368683772E-12  0.17120000000E+03  0.17120000000E+03 0.  0.
         13    1    1    2    0    0 -0.11602802251E+03  0.20412797809E+03  0.12934596307E+04  0.13145982507E+04  0.10566000000E+00 0. -1.
        994    1    1    2    0    0  0.11603683240E+03 -0.20415879365E+03  0.20637758057E+03  0.35643583611E+03  0.17120000000E+03 0.  0.
        998    1    1    2    0    0 -0.88098935241E-02  0.30815561809E-01  0.16278500784E+00  0.16591314551E+00  0.10000000000E-02 0. -1.
</event>
<event>
 5    1  0.5722211E-009  0.3883009E+03  0.7957747E-01  0.3415792E+00
         13   -1    0    0    0    0  0.00000000000E+00  0.00000000000E+00  0.14999999963E+04  0.15000000000E+04  0.10566000000E+00 0. -1.
        994   -1    0    0    0    0 -0.00000000000E+00 -0.00000000000E+00  0.11368683772E-12  0.17120000000E+03  0.17120000000E+03 0.  0.
         13    1    1    2    0    0  0.23684621620E+03  0.92315427500E+02  0.12361209680E+04  0.12619878474E+04  0.10566000000E+00 0. -1.
        994    1    1    2    0    0 -0.23867170980E+03 -0.93004589593E+02  0.25445523277E+03  0.39958846859E+03  0.17120000000E+03 0.  0.
        998    1    1    2    0    0  0.18254935995E+01  0.68916209332E+00  0.94237955342E+01  0.96236840422E+01  0.10000000000E-02 0. -1.
</event>
<event>
 5    1  0.5722211E-009  0.3883009E+03  0.7957747E-01  0.3415792E+00
         13   -1    0    0    0    0  0.00000000000E+00  0.00000000000E+00  0.14999999963E+04  0.15000000000E+04  0.10566000000E+00 0. -1.
        994   -1    0    0    0    0 -0.00000000000E+00 -0.00000000000E+00  0.11368683772E-12  0.17120000000E+03  0.17120000000E+03 0.  0.
         13    1    1    2    0    0  0.19111715768E+03  0.11663481245E+03  0.13149095044E+04  0.13338352460E+04  0.10566000000E+00 0. -1.
        994    1    1    2    0    0 -0.19116061847E+03 -0.11665877506E+03  0.18478615899E+03  0.33705639945E+03  0.17120000000E+03 0.  0.
        998    1    1    2    0    0  0.43460799232E-01  0.23962618543E-01  0.30433285260E+00  0.30835455782E+00  0.10000000000E-02 0. -1.
</event>
<event>
 5    1  0.5722211E-009  0.3883010E+03  0.7957747E-01  0.3415792E+00
         13   -1    0    0    0    0  0.00000000000E+00  0.00000000000E+00  0.14999999963E+04  0.15000000000E+04  0.10566000000E+00 0.  1.
        994   -1    0    0    0    0 -0.00000000000E+00 -0.00000000000E+00  0.11368683772E-12  0.17120000000E+03  0.17120000000E+03 0.  0.
         13    1    1    2    0    0  0.22110698549E+03 -0.51804970963E+02  0.13087381443E+04  0.13282949957E+04  0.10566000000E+00 0.  1.
        994    1    1    2    0    0 -0.22115864824E+03  0.51818066558E+02  0.19095215848E+03  0.34259075665E+03  0.17120000000E+03 0.  0.
        998    1    1    2    0    0  0.51662747217E-01 -0.13095594746E-01  0.30969346627E+00  0.31424763659E+00  0.10000000000E-02 0. -1.
</event>
<event>
 5    1  0.5722211E-009  0.3883003E+03  0.7957747E-01  0.3415795E+00
         13   -1    0    0    0    0  0.00000000000E+00  0.00000000000E+00  0.14999999963E+04  0.15000000000E+04  0.10566000000E+00 0.  1.
        994   -1    0    0    0    0 -0.00000000000E+00 -0.00000000000E+00  0.11368683772E-12  0.17120000000E+03  0.17120000000E+03 0.  0.
         13    1    1    2    0    0 -0.22611151944E+03  0.28563667445E+02  0.13073661985E+04  0.13270827745E+04  0.10566000000E+00 0.  1.
        994    1    1    2    0    0  0.22612825623E+03 -0.28569159707E+02  0.19247340355E+03  0.34395586378E+03  0.17120000000E+03 0.  0.
        998    1    1    2    0    0 -0.16736799149E-01  0.54922616427E-02  0.16039421270E+00  0.16136167095E+00  0.10000000000E-02 0.  1.
</event>
<event>
 5    1  0.5722211E-009  0.3883009E+03  0.7957747E-01  0.3415792E+00
         13   -1    0    0    0    0  0.00000000000E+00  0.00000000000E+00  0.14999999963E+04  0.15000000000E+04  0.10566000000E+00 0. -1.
        994   -1    0    0    0    0 -0.00000000000E+00 -0.00000000000E+00  0.11368683772E-12  0.17120000000E+03  0.17120000000E+03 0.  0.
         13    1    1    2    0    0  0.22882782572E+03  0.43443860340E+02  0.12973506652E+04  0.13180926760E+04  0.10566000000E+00 0. -1.
        994    1    1    2    0    0 -0.22885273415E+03 -0.43447455741E+02  0.20249687379E+03  0.35295280029E+03  0.17120000000E+03 0.  0.
        998    1    1    2    0    0  0.24908432002E-01  0.35954007923E-02  0.15245727142E+00  0.15452370854E+00  0.10000000000E-02 0. -1.
</event>
<event>
 5    1  0.5722211E-009  0.3882959E+03  0.7957747E-01  0.3415813E+00
         13   -1    0    0    0    0  0.00000000000E+00  0.00000000000E+00  0.14999999963E+04  0.15000000000E+04  0.10566000000E+00 0. -1.
        994   -1    0    0    0    0 -0.00000000000E+00 -0.00000000000E+00  0.11368683772E-12  0.17120000000E+03  0.17120000000E+03 0.  0.
         13    1    1    2    0    0  0.15231099612E+03 -0.17640251679E+03  0.12950610461E+04  0.13158645872E+04  0.10566000000E+00 0. -1.
        994    1    1    2    0    0 -0.15241140046E+03  0.17665216757E+03  0.20326531917E+03  0.35364028797E+03  0.17120000000E+03 0.  0.
        998    1    1    2    0    0  0.10040433628E+00 -0.24965078615E+00  0.16736309871E+01  0.16951248411E+01  0.10000000000E-02 0.  1.
</event>
<event>
 5    1  0.5722211E-009  0.3883010E+03  0.7957747E-01  0.3415792E+00
         13   -1    0    0    0    0  0.00000000000E+00  0.00000000000E+00  0.14999999963E+04  0.15000000000E+04  0.10566000000E+00 0.  1.
        994   -1    0    0    0    0 -0.00000000000E+00 -0.00000000000E+00  0.11368683772E-12  0.17120000000E+03  0.17120000000E+03 0.  0.
         13    1    1    2    0    0 -0.22175759444E+03  0.58815508126E+01  0.12374310699E+04  0.12571581791E+04  0.10566000000E+00 0.  1.
        994    1    1    2    0    0  0.23261577679E+03 -0.61684340270E+01  0.20200224513E+03  0.35250885979E+03  0.17120000000E+03 0.  0.
        998    1    1    2    0    0 -0.10858182358E+02  0.28688321435E+00  0.60566681238E+02  0.61532961112E+02  0.10000000000E-02 0.  1.
</event>
<event>
 5    1  0.5722211E-009  0.3882999E+03  0.7957747E-01  0.3415796E+00
         13   -1    0    0    0    0  0.00000000000E+00  0.00000000000E+00  0.14999999963E+04  0.15000000000E+04  0.10566000000E+00 0.  1.
        994   -1    0    0    0    0 -0.00000000000E+00 -0.00000000000E+00  0.11368683772E-12  0.17120000000E+03  0.17120000000E+03 0.  0.
         13    1    1    2    0    0  0.94464893603E+02 -0.14534382949E+03  0.84814151625E+03  0.86567458531E+03  0.10566000000E+00 0.  1.
        994    1    1    2    0    0 -0.13934253219E+03  0.21320623939E+03  0.25091392903E+03  0.39640948724E+03  0.17120000000E+03 0.  0.
        998    1    1    2    0    0  0.44877638585E+02 -0.67862409896E+02  0.40094455100E+03  0.40911592746E+03  0.10000000000E-02 0.  1.
</event>
<event>
 5    1  0.5722211E-009  0.3883010E+03  0.7957747E-01  0.3415792E+00
         13   -1    0    0    0    0  0.00000000000E+00  0.00000000000E+00  0.14999999963E+04  0.15000000000E+04  0.10566000000E+00 0. -1.
        994   -1    0    0    0    0 -0.00000000000E+00 -0.00000000000E+00  0.11368683772E-12  0.17120000000E+03  0.17120000000E+03 0.  0.
         13    1    1    2    0    0 -0.94959605406E+02 -0.23786820918E+03  0.90524434432E+03  0.94077943520E+03  0.10566000000E+00 0. -1.
        994    1    1    2    0    0  0.11380081369E+03  0.28492076612E+03  0.41547667375E+03  0.54411467045E+03  0.17120000000E+03 0.  0.
        998    1    1    2    0    0 -0.18841208289E+02 -0.47052556937E+02  0.17927897820E+03  0.18630589435E+03  0.10000000000E-02 0. -1.
</event>
<event>
 5    1  0.5722211E-009  0.3539890E+03  0.7957747E-01  0.3572874E+00
         13   -1    0    0    0    0  0.00000000000E+00  0.00000000000E+00  0.14999999963E+04  0.15000000000E+04  0.10566000000E+00 0.  1.
        994   -1    0    0    0    0 -0.00000000000E+00 -0.00000000000E+00  0.11368683772E-12  0.17120000000E+03  0.17120000000E+03 0.  0.
         13    1    1    2    0    0  0.38077483294E+02  0.21512485668E+03  0.10984509752E+04  0.11199656936E+04  0.10566000000E+00 0.  1.
        994    1    1    2    0    0 -0.68239739404E+02 -0.26257435969E+03  0.35250906419E+03  0.47662777588E+03  0.17120000000E+03 0.  0.
        998    1    1    2    0    0  0.30162256111E+02  0.47449503005E+02  0.49039956900E+02  0.74606530565E+02  0.10000000000E-02 0. -1.
</event>
<event>
 5    1  0.5722211E-009  0.3820464E+03  0.7957747E-01  0.3442296E+00
         13   -1    0    0    0    0  0.00000000000E+00  0.00000000000E+00  0.14999999963E+04  0.15000000000E+04  0.10566000000E+00 0.  1.
        994   -1    0    0    0    0 -0.00000000000E+00 -0.00000000000E+00  0.11368683772E-12  0.17120000000E+03  0.17120000000E+03 0.  0.
         13    1    1    2    0    0 -0.12534640653E+03 -0.38263682612E+02  0.64092245291E+03  0.65418455565E+03  0.10566000000E+00 0.  1.
        994    1    1    2    0    0  0.16623527496E+03  0.10590775976E+03  0.14512212513E+03  0.29869799367E+03  0.17120000000E+03 0.  0.
        998    1    1    2    0    0 -0.40888868424E+02 -0.67644077149E+02  0.71395541823E+03  0.71831745068E+03  0.10000000000E-02 0.  1.
</event>
<event>
 5    1  0.5722211E-009  0.3879209E+03  0.7957747E-01  0.3417378E+00
         13   -1    0    0    0    0  0.00000000000E+00  0.00000000000E+00  0.14999999963E+04  0.15000000000E+04  0.10566000000E+00 0. -1.
        994   -1    0    0    0    0 -0.00000000000E+00 -0.00000000000E+00  0.11368683772E-12  0.17120000000E+03  0.17120000000E+03 0.  0.
         13    1    1    2    0    0  0.39603503999E+02 -0.22640908880E+03  0.12710580436E+04  0.12916725879E+04  0.10566000000E+00 0. -1.
        994    1    1    2    0    0 -0.43422805287E+02  0.22956160730E+03  0.20443200192E+03  0.35452215019E+03  0.17120000000E+03 0.  0.
        998    1    1    2    0    0  0.38193012883E+01 -0.31525184969E+01  0.24509950799E+02  0.25005261934E+02  0.10000000000E-02 0. -1.
</event>
<event>
 5    1  0.5722211E-009  0.3883000E+03  0.7957747E-01  0.3415796E+00
         13   -1    0    0    0    0  0.00000000000E+00  0.00000000000E+00  0.14999999963E+04  0.15000000000E+04  0.10566000000E+00 0. -1.
        994   -1    0    0    0    0 -0.00000000000E+00 -0.00000000000E+00  0.11368683772E-12  0.17120000000E+03  0.17120000000E+03 0.  0.
         13    1    1    2    0    0 -0.52791568704E+02 -0.22860003188E+03  0.12598020954E+04  0.12814625453E+04  0.10566000000E+00 0. -1.
        994    1    1    2    0    0  0.53935115974E+02  0.23296595385E+03  0.21541748003E+03  0.36454939732E+03  0.17120000000E+03 0.  0.
        998    1    1    2    0    0 -0.11435472704E+01 -0.43659219767E+01  0.24780420822E+02  0.25188057333E+02  0.10000000000E-02 0. -1.
</event>
<event>
 5    1  0.5722211E-009  0.3882983E+03  0.7957747E-01  0.3415803E+00
         13   -1    0    0    0    0  0.00000000000E+00  0.00000000000E+00  0.14999999963E+04  0.15000000000E+04  0.10566000000E+00 0. -1.
        994   -1    0    0    0    0 -0.00000000000E+00 -0.00000000000E+00  0.11368683772E-12  0.17120000000E+03  0.17120000000E+03 0.  0.
         13    1    1    2    0    0  0.69566659921E+02 -0.26400567406E+03  0.11816206310E+04  0.12127513525E+04  0.10566000000E+00 0. -1.
        994    1    1    2    0    0 -0.70052745734E+02  0.26661770621E+03  0.30681848341E+03  0.44658639726E+03  0.17120000000E+03 0.  0.
        998    1    1    2    0    0  0.48608581220E+00 -0.26120321526E+01  0.11560881858E+02  0.11862250280E+02  0.10000000000E-02 0.  1.
</event>
<event>
 5    1  0.5722211E-009  0.3883010E+03  0.7957747E-01  0.3415792E+00
         13   -1    0    0    0    0  0.00000000000E+00  0.00000000000E+00  0.14999999963E+04  0.15000000000E+04  0.10566000000E+00 0. -1.
        994   -1    0    0    0    0 -0.00000000000E+00 -0.00000000000E+00  0.11368683772E-12  0.17120000000E+03  0.17120000000E+03 0.  0.
         13    1    1    2    0    0  0.21110430251E+03 -0.19632326111E+03  0.11534965291E+04  0.11889752324E+04  0.10566000000E+00 0. -1.
        994    1    1    2    0    0 -0.21112787998E+03  0.19634714892E+03  0.34637326868E+03  0.48209030881E+03  0.17120000000E+03 0.  0.
        998    1    1    2    0    0  0.23577461990E-01 -0.23887805159E-01  0.13019851947E+00  0.13445883542E+00  0.10000000000E-02 0. -1.
</event>
<event>
 5    1  0.5722211E-009  0.3882968E+03  0.7957747E-01  0.3415809E+00
         13   -1    0    0    0    0  0.00000000000E+00  0.00000000000E+00  0.14999999963E+04  0.15000000000E+04  0.10566000000E+00 0. -1.
        994   -1    0    0    0    0 -0.00000000000E+00 -0.00000000000E+00  0.11368683772E-12  0.17120000000E+03  0.17120000000E+03 0.  0.
         13    1    1    2    0    0 -0.22215124955E+03  0.31692545408E+02  0.12980345261E+04  0.13172885930E+04  0.10566000000E+00 0. -1.
        994    1    1    2    0    0  0.22408332187E+03 -0.32128747312E+02  0.18945500817E+03  0.34124511962E+03  0.17120000000E+03 0.  0.
        998    1    1    2    0    0 -0.19320723161E+01  0.43620190315E+00  0.12510462026E+02  0.12666287405E+02  0.10000000000E-02 0.  1.
</event>
<event>
 5    1  0.7823366E-009  0.3883008E+03  0.7957747E-01  0.3415793E+00
         13   -1    0    0    0    0  0.00000000000E+00  0.00000000000E+00  0.14999999963E+04  0.15000000000E+04  0.10566000000E+00 0.  1.
        994   -1    0    0    0    0 -0.00000000000E+00 -0.00000000000E+00  0.11368683772E-12  0.17120000000E+03  0.17120000000E+03 0.  0.
         13    1    1    2    0    0 -0.19611605491E+03 -0.10126990300E+03  0.13212352929E+04  0.13395446281E+04  0.10566000000E+00 0.  1.
        994    1    1    2    0    0  0.19611940716E+03  0.10127427734E+03  0.17873399717E+03  0.33162415904E+03  0.17120000000E+03 0.  0.
        998    1    1    2    0    0 -0.33522496482E-02 -0.43743429760E-02  0.30706212281E-01  0.31212880783E-01  0.10000000000E-02 0.  1.
</event>
<event>
 5    1  0.5722211E-009  0.3883010E+03  0.7957747E-01  0.3415792E+00
         13   -1    0    0    0    0  0.00000000000E+00  0.00000000000E+00  0.14999999963E+04  0.15000000000E+04  0.10566000000E+00 0.  1.
        994   -1    0    0    0    0 -0.00000000000E+00 -0.00000000000E+00  0.11368683772E-12  0.17120000000E+03  0.17120000000E+03 0.  0.
         13    1    1    2    0    0 -0.22648191358E+03  0.14905755572E+02  0.12505225427E+04  0.12709535317E+04  0.10566000000E+00 0.  1.
        994    1    1    2    0    0  0.23429863069E+03 -0.15446246230E+02  0.20632904221E+03  0.35639240806E+03  0.17120000000E+03 0.  0.
        998    1    1    2    0    0 -0.78167171060E+01  0.54049065804E+00  0.43148411323E+02  0.43854060213E+02  0.10000000000E-02 0.  1.
</event>
<event>
 5    1  0.7494462E-009  0.3883007E+03  0.7957747E-01  0.3415793E+00
         13   -1    0    0    0    0  0.00000000000E+00  0.00000000000E+00  0.14999999963E+04  0.15000000000E+04  0.10566000000E+00 0.  1.
        994   -1    0    0    0    0 -0.00000000000E+00 -0.00000000000E+00  0.11368683772E-12  0.17120000000E+03  0.17120000000E+03 0.  0.
         13    1    1    2    0    0  0.27541010158E+03  0.13340399591E+03  0.10876052718E+04  0.11298374169E+04  0.10566000000E+00 0.  1.
        994    1    1    2    0    0 -0.27543321651E+03 -0.13341375628E+03  0.41228267353E+03  0.54124775289E+03  0.17120000000E+03 0.  0.
        998    1    1    2    0    0  0.23114931163E-01  0.97603660394E-02  0.11205094542E+00  0.11483021883E+00  0.10000000000E-02 0. -1.
</event>
<event>
 5    1  0.5722211E-009  0.3882954E+03  0.7957747E-01  0.3415815E+00
         13   -1    0    0    0    0  0.00000000000E+00  0.00000000000E+00  0.14999999963E+04  0.15000000000E+04  0.10566000000E+00 0.  1.
        994   -1    0    0    0    0 -0.00000000000E+00 -0.00000000000E+00  0.11368683772E-12  0.17120000000E+03  0.17120000000E+03 0.  0.
         13    1    1    2    0    0  0.15594134478E+03 -0.83260424263E+02  0.70206110077E+03  0.72397500070E+03  0.10566000000E+00 0.  1.
        994    1    1    2    0    0 -0.25391223160E+03  0.13794504982E+03  0.34855314267E+03  0.48404441055E+03  0.17120000000E+03 0.  0.
        998    1    1    2    0    0  0.97970886812E+02 -0.54684625555E+02  0.44938575284E+03  0.46318058875E+03  0.10000000000E-02 0.  1.
</event>
<event>
 5    1  0.5722211E-009  0.3883010E+03  0.7957747E-01  0.3415792E+00
         13   -1    0    0    0    0  0.00000000000E+00  0.00000000000E+00  0.14999999963E+04  0.15000000000E+04  0.10566000000E+00 0.  1.
        994   -1    0    0    0    0 -0.00000000000E+00 -0.00000000000E+00  0.11368683772E-12  0.17120000000E+03  0.17120000000E+03 0.  0.
         13    1    1    2    0    0  0.23693659015E+03 -0.90429204804E+02  0.12376703085E+04  0.12633860030E+04  0.10566000000E+00 0.  1.
        994    1    1    2    0    0 -0.23873426524E+03  0.91124391702E+02  0.25293936144E+03  0.39822790551E+03  0.17120000000E+03 0.  0.
        998    1    1    2    0    0  0.17976750881E+01 -0.69518689800E+00  0.93903263708E+01  0.95860915338E+01  0.10000000000E-02 0.  1.
</event>
<event>
 5    1  0.5722211E-009  0.3880762E+03  0.7957747E-01  0.3416730E+00
         13   -1    0    0    0    0  0.00000000000E+00  0.00000000000E+00  0.14999999963E+04  0.15000000000E+04  0.10566000000E+00 0.  1.
        994   -1    0    0    0    0 -0.00000000000E+00 -0.00000000000E+00  0.11368683772E-12  0.17120000000E+03  0.17120000000E+03 0.  0.
         13    1    1    2    0    0 -0.15648271770E+03 -0.36475851093E+02  0.78359529247E+03  0.79989932004E+03  0.10566000000E+00 0.  1.
        994    1    1    2    0    0  0.25551540105E+03  0.46658056892E+02  0.26380709236E+03  0.40788321420E+03  0.17120000000E+03 0.  0.
        998    1    1    2    0    0 -0.99032683344E+02 -0.10182205799E+02  0.45259761145E+03  0.46341746577E+03  0.10000000000E-02 0.  1.
</event>
<event>
 5    1  0.5722211E-009  0.3881674E+03  0.7957747E-01  0.3416349E+00
         13   -1    0    0    0    0  0.00000000000E+00  0.00000000000E+00  0.14999999963E+04  0.15000000000E+04  0.10566000000E+00 0. -1.
        994   -1    0    0    0    0 -0.00000000000E+00 -0.00000000000E+00  0.11368683772E-12  0.17120000000E+03  0.17120000000E+03 0.  0.
         13    1    1    2    0    0 -0.12639599229E+03 -0.21195736229E+03  0.10718010490E+04  0.10998451574E+04  0.10566000000E+00 0. -1.
        994    1    1    2    0    0  0.13649659795E+03  0.23733626081E+03  0.30162640563E+03  0.44186847649E+03  0.17120000000E+03 0.  0.
        998    1    1    2    0    0 -0.10100605654E+02 -0.25378898518E+02  0.12657254162E+03  0.12948636615E+03  0.10000000000E-02 0. -1.
</event>
<event>
 5    1  0.5722211E-009  0.3883010E+03  0.7957747E-01  0.3415792E+00
         13   -1    0    0    0    0  0.00000000000E+00  0.00000000000E+00  0.14999999963E+04  0.15000000000E+04  0.10566000000E+00 0.  1.
        994   -1    0    0    0    0 -0.00000000000E+00 -0.00000000000E+00  0.11368683772E-12  0.17120000000E+03  0.17120000000E+03 0.  0.
         13    1    1    2    0    0 -0.23817682754E+03 -0.83201855863E+02  0.11521188854E+04  0.11794187922E+04  0.10566000000E+00 0.  1.
        994    1    1    2    0    0  0.25184845101E+03  0.87954513280E+02  0.28178152892E+03  0.42411544269E+03  0.17120000000E+03 0.  0.
        998    1    1    2    0    0 -0.13671623465E+02 -0.47526574171E+01  0.66099581943E+02  0.67665765160E+02  0.10000000000E-02 0.  1.
</event>
<event>
 5    1  0.5722211E-009  0.3883010E+03  0.7957747E-01  0.3415792E+00
         13   -1    0    0    0    0  0.00000000000E+00  0.00000000000E+00  0.14999999963E+04  0.15000000000E+04  0.10566000000E+00 0.  1.
        994   -1    0    0    0    0 -0.00000000000E+00 -0.00000000000E+00  0.11368683772E-12  0.17120000000E+03  0.17120000000E+03 0.  0.
         13    1    1    2    0    0 -0.22318735350E+03 -0.66241191907E+02  0.12931371600E+04  0.13139270208E+04  0.10566000000E+00 0.  1.
        994    1    1    2    0    0  0.22377447760E+03  0.66416565830E+02  0.20348156728E+03  0.35383663641E+03  0.17120000000E+03 0.  0.
        998    1    1    2    0    0 -0.58712409613E+00 -0.17537392294E+00  0.33812689664E+01  0.34363427565E+01  0.10000000000E-02 0.  1.
</event>
<event>
 5    1  0.5722211E-009  0.3869485E+03  0.7957747E-01  0.3421450E+00
         13   -1    0    0    0    0  0.00000000000E+00  0.00000000000E+00  0.14999999963E+04  0.15000000000E+04  0.10566000000E+00 0. -1.
        994   -1    0    0    0    0 -0.00000000000E+00 -0.00000000000E+00  0.11368683772E-12  0.17120000000E+03  0.17120000000E+03 0.  0.
         13    1    1    2    0    0  0.10180208978E+03 -0.64717963217E+02  0.72228210551E+03  0.73228650906E+03  0.10566000000E+00 0. -1.
        994    1    1    2    0    0 -0.17648828389E+03  0.82890861891E+02  0.13666238948E+03  0.29326618972E+03  0.17120000000E+03 0.  0.
        998    1    1    2    0    0  0.74686194112E+02 -0.18172898673E+02  0.64105550129E+03  0.64564730122E+03  0.10000000000E-02 0. -1.
</event>
<event>
 5    1  0.5722211E-009  0.3882834E+03  0.7957747E-01  0.3415865E+00
         13   -1    0    0    0    0  0.00000000000E+00  0.00000000000E+00  0.14999999963E+04  0.15000000000E+04  0.10566000000E+00 0.  1.
        994   -1    0    0    0    0 -0.00000000000E+00 -0.00000000000E+00  0.11368683772E-12  0.17120000000E+03  0.17120000000E+03 0.  0.
         13    1    1    2    0    0 -0.92016487432E+02  0.21350556858E+03  0.12496030342E+04  0.12710465829E+04  0.10566000000E+00 0.  1.
        994    1    1    2    0    0  0.93886739673E+02 -0.21931790391E+03  0.21424788690E+03  0.36349231065E+03  0.17120000000E+03 0.  0.
        998    1    1    2    0    0 -0.18702522417E+01  0.58123353260E+01  0.36149075181E+02  0.36661106404E+02  0.10000000000E-02 0. -1.
</event>
<event>
 5    1  0.5722211E-009  0.3883010E+03  0.7957747E-01  0.3415792E+00
         13   -1    0    0    0    0  0.00000000000E+00  0.00000000000E+00  0.14999999963E+04  0.15000000000E+04  0.10566000000E+00 0. -1.
        994   -1    0    0    0    0 -0.00000000000E+00 -0.00000000000E+00  0.11368683772E-12  0.17120000000E+03  0.17120000000E+03 0.  0.
         13    1    1    2    0    0 -0.34190178534E+03  0.10187756541E+02  0.74260429119E+03  0.81759511108E+03  0.10566000000E+00 0. -1.
        994    1    1    2    0    0  0.34778125364E+03 -0.10364611531E+02  0.74462048073E+03  0.83954054452E+03  0.17120000000E+03 0.  0.
        998    1    1    2    0    0 -0.58794683038E+01  0.17685498950E+00  0.12775224350E+02  0.14064344400E+02  0.10000000000E-02 0.  1.
</event>
<event>
 5    1  0.5722211E-009  0.3883010E+03  0.7957747E-01  0.3415792E+00
         13   -1    0    0    0    0  0.00000000000E+00  0.00000000000E+00  0.14999999963E+04  0.15000000000E+04  0.10566000000E+00 0. -1.
        994   -1    0    0    0    0 -0.00000000000E+00 -0.00000000000E+00  0.11368683772E-12  0.17120000000E+03  0.17120000000E+03 0.  0.
         13    1    1    2    0    0  0.20894667081E+03 -0.89742887028E+02  0.12736757711E+04  0.12938170188E+04  0.10566000000E+00 0. -1.
        994    1    1    2    0    0 -0.21316649113E+03  0.91558340289E+02  0.20058227802E+03  0.35123435605E+03  0.17120000000E+03 0.  0.
        998    1    1    2    0    0  0.42198203187E+01 -0.18154532604E+01  0.25741947162E+02  0.26148625179E+02  0.10000000000E-02 0.  1.
</event>
<event>
 5    1  0.5722211E-009  0.3882848E+03  0.7957747E-01  0.3415859E+00
         13   -1    0    0    0    0  0.00000000000E+00  0.00000000000E+00  0.14999999963E+04  0.15000000000E+04  0.10566000000E+00 0.  1.
        994   -1    0    0    0    0 -0.00000000000E+00 -0.00000000000E+00  0.11368683772E-12  0.17120000000E+03  0.17120000000E+03 0.  0.
         13    1    1    2    0    0 -0.22892177739E+03 -0.11576394734E+03  0.12238185423E+04  0.12504152539E+04  0.10566000000E+00 0.  1.
        994    1    1    2    0    0  0.23107872584E+03  0.11717628567E+03  0.26179639777E+03  0.40617047326E+03  0.17120000000E+03 0.  0.
        998    1    1    2    0    0 -0.21569484508E+01 -0.14123383310E+01  0.14385056252E+02  0.14614272837E+02  0.10000000000E-02 0.  1.
</event>
<event>
 5    1  0.5722211E-009  0.3883009E+03  0.7957747E-01  0.3415792E+00
         13   -1    0    0    0    0  0.00000000000E+00  0.00000000000E+00  0.14999999963E+04  0.15000000000E+04  0.10566000000E+00 0.  1.
        994   -1    0    0    0    0 -0.00000000000E+00 -0.00000000000E+00  0.11368683772E-12  0.17120000000E+03  0.17120000000E+03 0.  0.
         13    1    1    2    0    0 -0.11446375741E+03 -0.18415120993E+03  0.12636651444E+04  0.12821322975E+04  0.10566000000E+00 0.  1.
        994    1    1    2    0    0  0.11894398705E+03  0.19127779921E+03  0.18726792286E+03  0.33928392750E+03  0.17120000000E+03 0.  0.
        998    1    1    2    0    0 -0.44802296413E+01 -0.71265892800E+01  0.49066929013E+02  0.49783775029E+02  0.10000000000E-02 0.  1.
</event>
<event>
 5    1  0.5722211E-009  0.3883008E+03  0.7957747E-01  0.3415793E+00
         13   -1    0    0    0    0  0.00000000000E+00  0.00000000000E+00  0.14999999963E+04  0.15000000000E+04  0.10566000000E+00 0.  1.
        994   -1    0    0    0    0 -0.00000000000E+00 -0.00000000000E+00  0.11368683772E-12  0.17120000000E+03  0.17120000000E+03 0.  0.
         13    1    1    2    0    0  0.77133287546E+02  0.21200595991E+03  0.13119365519E+04  0.13311925475E+04  0.10566000000E+00 0.  1.
        994    1    1    2    0    0 -0.77137760734E+02 -0.21201553867E+03  0.18797621457E+03  0.33991957874E+03  0.17120000000E+03 0.  0.
        998    1    1    2    0    0  0.44731886417E-02  0.95787600923E-02  0.87229800844E-01  0.87873774341E-01  0.10000000000E-02 0.  1.
</event>
<event>
 5    1  0.5722211E-009  0.3883010E+03  0.7957747E-01  0.3415792E+00
         13   -1    0    0    0    0  0.00000000000E+00  0.00000000000E+00  0.14999999963E+04  0.15000000000E+04  0.10566000000E+00 0.  1.
        994   -1    0    0    0    0 -0.00000000000E+00 -0.00000000000E+00  0.11368683772E-12  0.17120000000E+03  0.17120000000E+03 0.  0.
         13    1    1    2    0    0 -0.23332914706E+03 -0.37452112830E+01  0.12919088484E+04  0.13128156768E+04  0.10566000000E+00 0.  1.
        994    1    1    2    0    0  0.23395215723E+03  0.37573161700E+01  0.20462876328E+03  0.35486631294E+03  0.17120000000E+03 0.  0.
        998    1    1    2    0    0 -0.62301016968E+00 -0.12104887004E-01  0.34623846269E+01  0.35180103048E+01  0.10000000000E-02 0. -1.
</event>
<event>
 5    1  0.5722211E-009  0.3883008E+03  0.7957747E-01  0.3415793E+00
         13   -1    0    0    0    0  0.00000000000E+00  0.00000000000E+00  0.14999999963E+04  0.15000000000E+04  0.10566000000E+00 0.  1.
        994   -1    0    0    0    0 -0.00000000000E+00 -0.00000000000E+00  0.11368683772E-12  0.17120000000E+03  0.17120000000E+03 0.  0.
         13    1    1    2    0    0  0.11144877446E+03 -0.19026966240E+03  0.13208231002E+04  0.13391030755E+04  0.10566000000E+00 0.  1.
        994    1    1    2    0    0 -0.11149323902E+03  0.19036091930E+03  0.17851842013E+03  0.33143066887E+03  0.17120000000E+03 0.  0.
        998    1    1    2    0    0  0.44464568971E-01 -0.91256899422E-01  0.65847595648E+00  0.66625558523E+00  0.10000000000E-02 0.  1.
</event>
<event>
 5    1  0.5722211E-009  0.3883009E+03  0.7957747E-01  0.3415792E+00
         13   -1    0    0    0    0  0.00000000000E+00  0.00000000000E+00  0.14999999963E+04  0.15000000000E+04  0.10566000000E+00 0. -1.
        994   -1    0    0    0    0 -0.00000000000E+00 -0.00000000000E+00  0.11368683772E-12  0.17120000000E+03  0.17120000000E+03 0.  0.
         13    1    1    2    0    0  0.25579532293E+03 -0.19528245046E+02  0.12442526933E+04  0.12704240928E+04  0.10566000000E+00 0. -1.
        994    1    1    2    0    0 -0.25584099101E+03  0.19526348712E+02  0.25552096165E+03  0.40054499475E+03  0.17120000000E+03 0.  0.
        998    1    1    2    0    0  0.45668075664E-01  0.18963347899E-02  0.22634133169E+00  0.23091246751E+00  0.10000000000E-02 0.  1.
</event>
<event>
 5    1  0.5722211E-009  0.3883009E+03  0.7957747E-01  0.3415792E+00
         13   -1    0    0    0    0  0.00000000000E+00  0.00000000000E+00  0.14999999963E+04  0.15000000000E+04  0.10566000000E+00 0.  1.
        994   -1    0    0    0    0 -0.00000000000E+00 -0.00000000000E+00  0.11368683772E-12  0.17120000000E+03  0.17120000000E+03 0.  0.
         13    1    1    2    0    0 -0.11101958955E+03 -0.14820683033E+03  0.10288938000E+04  0.10454248307E+04  0.10566000000E+00 0.  1.
        994    1    1    2    0    0  0.13998904835E+03  0.18669690393E+03  0.20333479346E+03  0.35370488522E+03  0.17120000000E+03 0.  0.
        998    1    1    2    0    0 -0.28969458804E+02 -0.38490073595E+02  0.26777140279E+03  0.27207028405E+03  0.10000000000E-02 0. -1.
</event>
<event>
 5    1  0.5722211E-009  0.3883010E+03  0.7957747E-01  0.3415792E+00
         13   -1    0    0    0    0  0.00000000000E+00  0.00000000000E+00  0.14999999963E+04  0.15000000000E+04  0.10566000000E+00 0.  1.
        994   -1    0    0    0    0 -0.00000000000E+00 -0.00000000000E+00  0.11368683772E-12  0.17120000000E+03  0.17120000000E+03 0.  0.
         13    1    1    2    0    0 -0.18093318572E+03 -0.99120716346E+02  0.11380817035E+04  0.11566294606E+04  0.10566000000E+00 0.  1.
        994    1    1    2    0    0  0.20572259800E+03  0.11266246920E+03  0.20580171825E+03  0.35591910110E+03  0.17120000000E+03 0.  0.
        998    1    1    2    0    0 -0.24789412284E+02 -0.13541752858E+02  0.15611657450E+03  0.15865143828E+03  0.10000000000E-02 0. -1.
</event>
<event>
 5    1  0.5722211E-009  0.3883010E+03  0.7957747E-01  0.3415792E+00
         13   -1    0    0    0    0  0.00000000000E+00  0.00000000000E+00  0.14999999963E+04  0.15000000000E+04  0.10566000000E+00 0.  1.
        994   -1    0    0    0    0 -0.00000000000E+00 -0.00000000000E+00  0.11368683772E-12  0.17120000000E+03  0.17120000000E+03 0.  0.
         13    1    1    2    0    0  0.12027555677E+03 -0.31644332583E+03  0.52215880720E+03  0.62229608637E+03  0.10566000000E+00 0.  1.
        994    1    1    2    0    0 -0.12030148853E+03  0.31651351636E+03  0.97772823991E+03  0.10487684231E+04  0.17120000000E+03 0.  0.
        998    1    1    2    0    0  0.25931754042E-01 -0.70190533440E-01  0.11294917082E+00  0.13549052380E+00  0.10000000000E-02 0.  1.
</event>
<event>
 5    1  0.5722211E-009  0.3882985E+03  0.7957747E-01  0.3415802E+00
         13   -1    0    0    0    0  0.00000000000E+00  0.00000000000E+00  0.14999999963E+04  0.15000000000E+04  0.10566000000E+00 0.  1.
        994   -1    0    0    0    0 -0.00000000000E+00 -0.00000000000E+00  0.11368683772E-12  0.17120000000E+03  0.17120000000E+03 0.  0.
         13    1    1    2    0    0 -0.26667320160E+03 -0.88370770174E+02  0.11627789422E+04  0.11962352900E+04  0.10566000000E+00 0.  1.
        994    1    1    2    0    0  0.26847204324E+03  0.89070699197E+02  0.32868263360E+03  0.46621083330E+03  0.17120000000E+03 0.  0.
        998    1    1    2    0    0 -0.17988416391E+01 -0.69992902302E+00  0.85384204484E+01  0.87538766632E+01  0.10000000000E-02 0. -1.
</event>
<event>
 5    1  0.5722211E-009  0.3883009E+03  0.7957747E-01  0.3415792E+00
         13   -1    0    0    0    0  0.00000000000E+00  0.00000000000E+00  0.14999999963E+04  0.15000000000E+04  0.10566000000E+00 0. -1.
        994   -1    0    0    0    0 -0.00000000000E+00 -0.00000000000E+00  0.11368683772E-12  0.17120000000E+03  0.17120000000E+03 0.  0.
         13    1    1    2    0    0 -0.31070833813E+02 -0.50426722655E+01  0.17250235174E+03  0.17535078493E+03  0.10566000000E+00 0.  1.
        994    1    1    2    0    0  0.23256103619E+03  0.37881069048E+02  0.20802756897E+03  0.35791691829E+03  0.17120000000E+03 0.  0.
        998    1    1    2    0    0 -0.20149020238E+03 -0.32838396782E+02  0.11194700756E+04  0.11379322968E+04  0.10000000000E-02 0. -1.
</event>
<event>
 5    1  0.5722211E-009  0.3882951E+03  0.7957747E-01  0.3415816E+00
         13   -1    0    0    0    0  0.00000000000E+00  0.00000000000E+00  0.14999999963E+04  0.15000000000E+04  0.10566000000E+00 0. -1.
        994   -1    0    0    0    0 -0.00000000000E+00 -0.00000000000E+00  0.11368683772E-12  0.17120000000E+03  0.17120000000E+03 0.  0.
         13    1    1    2    0    0 -0.56404971176E+02 -0.27093939345E+03  0.10979790279E+04  0.11323195806E+04  0.10566000000E+00 0. -1.
        994    1    1    2    0    0  0.58445031463E+02  0.28352458081E+03  0.35031353362E+03  0.48562436251E+03  0.17120000000E+03 0.  0.
        998    1    1    2    0    0 -0.20400602869E+01 -0.12585187360E+02  0.51707434791E+02  0.53256056937E+02  0.10000000000E-02 0. -1.
</event>
<event>
 5    1  0.5722211E-009  0.3883008E+03  0.7957747E-01  0.3415792E+00
         13   -1    0    0    0    0  0.00000000000E+00  0.00000000000E+00  0.14999999963E+04  0.15000000000E+04  0.10566000000E+00 0.  1.
        994   -1    0    0    0    0 -0.00000000000E+00 -0.00000000000E+00  0.11368683772E-12  0.17120000000E+03  0.17120000000E+03 0.  0.
         13    1    1    2    0    0  0.58746876228E+02  0.19436451107E+03  0.12216134365E+04  0.12383731901E+04  0.10566000000E+00 0.  1.
        994    1    1    2    0    0 -0.63557608033E+02 -0.21038224214E+03  0.17697457145E+03  0.33004499130E+03  0.17120000000E+03 0.  0.
        998    1    1    2    0    0  0.48107318049E+01  0.16017731072E+02  0.10141198835E+03  0.10278181859E+03  0.10000000000E-02 0. -1.
</event>
<event>
 5    1  0.5722211E-009  0.3883002E+03  0.7957747E-01  0.3415795E+00
         13   -1    0    0    0    0  0.00000000000E+00  0.00000000000E+00  0.14999999963E+04  0.15000000000E+04  0.10566000000E+00 0.  1.
        994   -1    0    0    0    0 -0.00000000000E+00 -0.00000000000E+00  0.11368683772E-12  0.17120000000E+03  0.17120000000E+03 0.  0.
         13    1    1    2    0    0  0.55747944459E+02  0.39497046619E+02  0.39579674051E+03  0.40165024706E+03  0.10566000000E+00 0.  1.
        994    1    1    2    0    0 -0.18342140529E+03 -0.13178251074E+03  0.18844335032E+03  0.34033862304E+03  0.17120000000E+03 0.  0.
        998    1    1    2    0    0  0.12767346083E+03  0.92285464117E+02  0.91575990546E+03  0.92921112990E+03  0.10000000000E-02 0.  1.
</event>
<event>
 5    1  0.5722211E-009  0.3883004E+03  0.7957747E-01  0.3415794E+00
         13   -1    0    0    0    0  0.00000000000E+00  0.00000000000E+00  0.14999999963E+04  0.15000000000E+04  0.10566000000E+00 0. -1.
        994   -1    0    0    0    0 -0.00000000000E+00 -0.00000000000E+00  0.11368683772E-12  0.17120000000E+03  0.17120000000E+03 0.  0.
         13    1    1    2    0    0 -0.17845090948E+03 -0.13660800217E+03  0.13120087911E+04  0.13311174075E+04  0.10566000000E+00 0. -1.
        994    1    1    2    0    0  0.17862802499E+03  0.13671439130E+03  0.18668867792E+03  0.33876377989E+03  0.17120000000E+03 0.  0.
        998    1    1    2    0    0 -0.17711551830E+00 -0.10638913342E+00  0.13025272261E+01  0.13188126210E+01  0.10000000000E-02 0. -1.
</event>
<event>
 5    1  0.5722211E-009  0.3882891E+03  0.7957747E-01  0.3415842E+00
         13   -1    0    0    0    0  0.00000000000E+00  0.00000000000E+00  0.14999999963E+04  0.15000000000E+04  0.10566000000E+00 0. -1.
        994   -1    0    0    0    0 -0.00000000000E+00 -0.00000000000E+00  0.11368683772E-12  0.17120000000E+03  0.17120000000E+03 0.  0.
         13    1    1    2    0    0  0.10361478167E+03  0.17773613631E+03  0.71907701150E+02  0.21793780254E+03  0.10566000000E+00 0. -1.
        994    1    1    2    0    0 -0.10363684217E+03 -0.17800581391E+03  0.14280926210E+04  0.14529916170E+04  0.17120000000E+03 0.  0.
        998    1    1    2    0    0  0.22060502246E-01  0.26967760239E+00 -0.32590187180E-03  0.27058045237E+00  0.10000000000E-02 0.  1.
</event>
<event>
 5    1  0.5722211E-009  0.3883004E+03  0.7957747E-01  0.3415794E+00
         13   -1    0    0    0    0  0.00000000000E+00  0.00000000000E+00  0.14999999963E+04  0.15000000000E+04  0.10566000000E+00 0. -1.
        994   -1    0    0    0    0 -0.00000000000E+00 -0.00000000000E+00  0.11368683772E-12  0.17120000000E+03  0.17120000000E+03 0.  0.
         13    1    1    2    0    0 -0.24101144624E+03 -0.96390814889E+02  0.12351975992E+04  0.12621770187E+04  0.10566000000E+00 0. -1.
        994    1    1    2    0    0  0.24126067945E+03  0.96488416001E+02  0.26366536635E+03  0.40785487036E+03  0.17120000000E+03 0.  0.
        998    1    1    2    0    0 -0.24923321006E+00 -0.97601111691E-01  0.11370307800E+01  0.11681109385E+01  0.10000000000E-02 0.  1.
</event>
<event>
 5    1  0.5722211E-009  0.3781844E+03  0.7957747E-01  0.3459102E+00
         13   -1    0    0    0    0  0.00000000000E+00  0.00000000000E+00  0.14999999963E+04  0.15000000000E+04  0.10566000000E+00 0. -1.
        994   -1    0    0    0    0 -0.00000000000E+00 -0.00000000000E+00  0.11368683772E-12  0.17120000000E+03  0.17120000000E+03 0.  0.
         13    1    1    2    0    0  0.39859588764E+02 -0.16264102091E+02  0.21458399685E+03  0.21885979691E+03  0.10566000000E+00 0. -1.
        994    1    1    2    0    0  0.22828009367E+02  0.92135341383E+02  0.35978508911E+02  0.19903249043E+03  0.17120000000E+03 0.  0.
        998    1    1    2    0    0 -0.62687598131E+02 -0.75871239292E+02  0.12494374905E+04  0.12533077127E+04  0.10000000000E-02 0. -1.
</event>
<event>
 5    1  0.5722211E-009  0.3881825E+03  0.7957747E-01  0.3416286E+00
         13   -1    0    0    0    0  0.00000000000E+00  0.00000000000E+00  0.14999999963E+04  0.15000000000E+04  0.10566000000E+00 0.  1.
        994   -1    0    0    0    0 -0.00000000000E+00 -0.00000000000E+00  0.11368683772E-12  0.17120000000E+03  0.17120000000E+03 0.  0.
         13    1    1    2    0    0  0.11994063804E+03  0.14896695006E+03  0.11076733496E+04  0.11240627961E+04  0.10566000000E+00 0.  1.
        994    1    1    2    0    0 -0.13851365830E+03 -0.17341085586E+03  0.18114738102E+03  0.33373817899E+03  0.17120000000E+03 0.  0.
        998    1    1    2    0    0  0.18573020262E+02  0.24443905800E+02  0.21117926564E+03  0.21339902495E+03  0.10000000000E-02 0.  1.
</event>
<event>
 5    1  0.5722211E-009  0.3883010E+03  0.7957747E-01  0.3415792E+00
         13   -1    0    0    0    0  0.00000000000E+00  0.00000000000E+00  0.14999999963E+04  0.15000000000E+04  0.10566000000E+00 0. -1.
        994   -1    0    0    0    0 -0.00000000000E+00 -0.00000000000E+00  0.11368683772E-12  0.17120000000E+03  0.17120000000E+03 0.  0.
         13    1    1    2    0    0  0.16091846884E+03 -0.13452112107E+03  0.10792401115E+04  0.10994316327E+04  0.10566000000E+00 0. -1.
        994    1    1    2    0    0 -0.18909097164E+03  0.15814417560E+03  0.23167107751E+03  0.37913837050E+03  0.17120000000E+03 0.  0.
        998    1    1    2    0    0  0.28172502792E+02 -0.23623054524E+02  0.18908880727E+03  0.19262999677E+03  0.10000000000E-02 0. -1.
</event>
<event>
 5    1  0.5722211E-009  0.3882984E+03  0.7957747E-01  0.3415803E+00
         13   -1    0    0    0    0  0.00000000000E+00  0.00000000000E+00  0.14999999963E+04  0.15000000000E+04  0.10566000000E+00 0.  1.
        994   -1    0    0    0    0 -0.00000000000E+00 -0.00000000000E+00  0.11368683772E-12  0.17120000000E+03  0.17120000000E+03 0.  0.
         13    1    1    2    0    0 -0.65622392995E+02 -0.18838353071E+03  0.11628822815E+04  0.11798685795E+04  0.10566000000E+00 0.  1.
        994    1    1    2    0    0  0.73586066955E+02  0.21311011282E+03  0.18768047874E+03  0.33965310470E+03  0.17120000000E+03 0.  0.
        998    1    1    2    0    0 -0.79636739599E+01 -0.24726582105E+02  0.14943723600E+03  0.15167831575E+03  0.10000000000E-02 0. -1.
</event>
<event>
 5    1  0.5722211E-009  0.3883010E+03  0.7957747E-01  0.3415792E+00
         13   -1    0    0    0    0  0.00000000000E+00  0.00000000000E+00  0.14999999963E+04  0.15000000000E+04  0.10566000000E+00 0.  1.
        994   -1    0    0    0    0 -0.00000000000E+00 -0.00000000000E+00  0.11368683772E-12  0.17120000000E+03  0.17120000000E+03 0.  0.
         13    1    1    2    0    0 -0.14599985380E+03  0.29311943791E+03  0.92218292250E+03  0.97859915997E+03  0.10566000000E+00 0.  1.
        994    1    1    2    0    0  0.14868046561E+03 -0.29851838335E+03  0.56087049225E+03  0.67461415278E+03  0.17120000000E+03 0.  0.
        998    1    1    2    0    0 -0.26806118146E+01  0.53989454409E+01  0.16946581530E+02  0.17986687247E+02  0.10000000000E-02 0.  1.
</event>
<event>
 5    1  0.5722211E-009  0.3882964E+03  0.7957747E-01  0.3415811E+00
         13   -1    0    0    0    0  0.00000000000E+00  0.00000000000E+00  0.14999999963E+04  0.15000000000E+04  0.10566000000E+00 0. -1.
        994   -1    0    0    0    0 -0.00000000000E+00 -0.00000000000E+00  0.11368683772E-12  0.17120000000E+03  0.17120000000E+03 0.  0.
         13    1    1    2    0    0  0.29202548348E+03  0.50308627246E+02  0.11205879037E+04  0.11591061652E+04  0.10566000000E+00 0. -1.
        994    1    1    2    0    0 -0.29265723107E+03 -0.50541788323E+02  0.37682484391E+03  0.50942038657E+03  0.17120000000E+03 0.  0.
        998    1    1    2    0    0  0.63174759041E+00  0.23316107679E+00  0.25872486164E+01  0.26734482432E+01  0.10000000000E-02 0.  1.
</event>
<event>
 5    1  0.5722211E-009  0.3882930E+03  0.7957747E-01  0.3415825E+00
         13   -1    0    0    0    0  0.00000000000E+00  0.00000000000E+00  0.14999999963E+04  0.15000000000E+04  0.10566000000E+00 0. -1.
        994   -1    0    0    0    0 -0.00000000000E+00 -0.00000000000E+00  0.11368683772E-12  0.17120000000E+03  0.17120000000E+03 0.  0.
         13    1    1    2    0    0 -0.24440430574E+03  0.41862952000E+02  0.89831248683E+03  0.93190734870E+03  0.10566000000E+00 0. -1.
        994    1    1    2    0    0  0.29963734156E+03 -0.51768791355E+02  0.40423096991E+03  0.53401747279E+03  0.17120000000E+03 0.  0.
        998    1    1    2    0    0 -0.55233035823E+02  0.99058393547E+01  0.19745653955E+03  0.20527517851E+03  0.10000000000E-02 0. -1.
</event>
<event>
 5    1  0.5722211E-009  0.3883010E+03  0.7957747E-01  0.3415792E+00
         13   -1    0    0    0    0  0.00000000000E+00  0.00000000000E+00  0.14999999963E+04  0.15000000000E+04  0.10566000000E+00 0.  1.
        994   -1    0    0    0    0 -0.00000000000E+00 -0.00000000000E+00  0.11368683772E-12  0.17120000000E+03  0.17120000000E+03 0.  0.
         13    1    1    2    0    0  0.24625264990E+03  0.12179848977E+02  0.10637330411E+04  0.10919325575E+04  0.10566000000E+00 0.  1.
        994    1    1    2    0    0 -0.27589930249E+03 -0.13644148922E+02  0.30848670941E+03  0.44808490021E+03  0.17120000000E+03 0.  0.
        998    1    1    2    0    0  0.29646652589E+02  0.14642999456E+01  0.12778024577E+03  0.13118254226E+03  0.10000000000E-02 0.  1.
</event>
<event>
 5    1  0.5722211E-009  0.3883008E+03  0.7957747E-01  0.3415793E+00
         13   -1    0    0    0    0  0.00000000000E+00  0.00000000000E+00  0.14999999963E+04  0.15000000000E+04  0.10566000000E+00 0. -1.
        994   -1    0    0    0    0 -0.00000000000E+00 -0.00000000000E+00  0.11368683772E-12  0.17120000000E+03  0.17120000000E+03 0.  0.
         13    1    1    2    0    0  0.89931314452E+02 -0.20909934363E+03  0.13078727526E+04  0.13275320429E+04  0.10566000000E+00 0. -1.
        994    1    1    2    0    0 -0.89949350117E+02  0.20912687620E+03  0.19193424224E+03  0.34347216667E+03  0.17120000000E+03 0.  0.
        998    1    1    2    0    0  0.18035664663E-01 -0.27532570992E-01  0.19300144528E+00  0.19579041229E+00  0.10000000000E-02 0.  1.
</event>
<event>
 5    1  0.5722211E-009  0.3882991E+03  0.7957747E-01  0.3415800E+00
         13   -1    0    0    0    0  0.00000000000E+00  0.00000000000E+00  0.14999999963E+04  0.15000000000E+04  0.10566000000E+00 0. -1.
        994   -1    0    0    0    0 -0.00000000000E+00 -0.00000000000E+00  0.11368683772E-12  0.17120000000E+03  0.17120000000E+03 0.  0.
         13    1    1    2    0    0 -0.19873354499E+03 -0.13507812950E+03  0.12813541419E+04  0.13036907498E+04  0.10566000000E+00 0. -1.
        994    1    1    2    0    0  0.19881510104E+03  0.13510125683E+03  0.21809831546E+03  0.36695518692E+03  0.17120000000E+03 0.  0.
        998    1    1    2    0    0 -0.81556051008E-01 -0.23127328562E-01  0.54753894215E+00  0.55406331403E+00  0.10000000000E-02 0. -1.
</event>
<event>
 5    1  0.5722211E-009  0.3883009E+03  0.7957747E-01  0.3415792E+00
         13   -1    0    0    0    0  0.00000000000E+00  0.00000000000E+00  0.14999999963E+04  0.15000000000E+04  0.10566000000E+00 0. -1.
        994   -1    0    0    0    0 -0.00000000000E+00 -0.00000000000E+00  0.11368683772E-12  0.17120000000E+03  0.17120000000E+03 0.  0.
         13    1    1    2    0    0  0.10221381049E+03  0.22864481332E+03  0.12548620863E+04  0.12796112614E+04  0.10566000000E+00 0. -1.
        994    1    1    2    0    0 -0.10245435525E+03 -0.22917404448E+03  0.24213792838E+03  0.38853295090E+03  0.17120000000E+03 0.  0.
        998    1    1    2    0    0  0.24054475582E+00  0.52923115720E+00  0.29999816382E+01  0.30557876606E+01  0.10000000000E-02 0.  1.
</event>
<event>
 5    1  0.5722211E-009  0.3883010E+03  0.7957747E-01  0.3415792E+00
         13   -1    0    0    0    0  0.00000000000E+00  0.00000000000E+00  0.14999999963E+04  0.15000000000E+04  0.10566000000E+00 0. -1.
        994   -1    0    0    0    0 -0.00000000000E+00 -0.00000000000E+00  0.11368683772E-12  0.17120000000E+03  0.17120000000E+03 0.  0.
         13    1    1    2    0    0  0.14585121962E+03 -0.22090404600E+03  0.11839781788E+04  0.12132087681E+04  0.10566000000E+00 0. -1.
        994    1    1    2    0    0 -0.14890935058E+03  0.22550588917E+03  0.29129160136E+03  0.43265128887E+03  0.17120000000E+03 0.  0.
        998    1    1    2    0    0  0.30581309571E+01 -0.46018431720E+01  0.24730216101E+02  0.25339943073E+02  0.10000000000E-02 0. -1.
</event>
<event>
 5    1  0.5722211E-009  0.3882993E+03  0.7957747E-01  0.3415799E+00
         13   -1    0    0    0    0  0.00000000000E+00  0.00000000000E+00  0.14999999963E+04  0.15000000000E+04  0.10566000000E+00 0. -1.
        994   -1    0    0    0    0 -0.00000000000E+00 -0.00000000000E+00  0.11368683772E-12  0.17120000000E+03  0.17120000000E+03 0.  0.
         13    1    1    2    0    0  0.17902239985E+03  0.14678046364E+03  0.12985500328E+04  0.13190245347E+04  0.10566000000E+00 0. -1.
        994    1    1    2    0    0 -0.17923530560E+03 -0.14689118737E+03  0.20005903065E+03  0.35076398254E+03  0.17120000000E+03 0.  0.
        998    1    1    2    0    0  0.21290574918E+00  0.11072373874E+00  0.13909328157E+01  0.14114828026E+01  0.10000000000E-02 0. -1.
</event>
<event>
 5    1  0.5722211E-009  0.3883010E+03  0.7957747E-01  0.3415792E+00
         13   -1    0    0    0    0  0.00000000000E+00  0.00000000000E+00  0.14999999963E+04  0.15000000000E+04  0.10566000000E+00 0.  1.
        994   -1    0    0    0    0 -0.00000000000E+00 -0.00000000000E+00  0.11368683772E-12  0.17120000000E+03  0.17120000000E+03 0.  0.
         13    1    1    2    0    0 -0.23023478696E+03  0.45034399408E+01  0.12830999754E+04  0.13036003590E+04  0.10566000000E+00 0.  1.
        994    1    1    2    0    0  0.23283497588E+03 -0.45436498956E+01  0.20237223893E+03  0.35284094694E+03  0.17120000000E+03 0.  0.
        998    1    1    2    0    0 -0.26001889191E+01  0.40209954810E-01  0.14527781961E+02  0.14758694013E+02  0.10000000000E-02 0.  1.
</event>
<event>
 5    1  0.5722211E-009  0.3883010E+03  0.7957747E-01  0.3415792E+00
         13   -1    0    0    0    0  0.00000000000E+00  0.00000000000E+00  0.14999999963E+04  0.15000000000E+04  0.10566000000E+00 0. -1.
        994   -1    0    0    0    0 -0.00000000000E+00 -0.00000000000E+00  0.11368683772E-12  0.17120000000E+03  0.17120000000E+03 0.  0.
         13    1    1    2    0    0  0.22256717305E+03 -0.11491128579E+02  0.13171250615E+04  0.13358467844E+04  0.10566000000E+00 0. -1.
        994    1    1    2    0    0 -0.22258594830E+03  0.11491731657E+02  0.18277200181E+03  0.33524857781E+03  0.17120000000E+03 0.  0.
        998    1    1    2    0    0  0.18775255282E-01 -0.60307898716E-03  0.10293296361E+00  0.10463779868E+00  0.10000000000E-02 0. -1.
</event>
<event>
 5    1  0.5722211E-009  0.3805263E+03  0.7957747E-01  0.3448870E+00
         13   -1    0    0    0    0  0.00000000000E+00  0.00000000000E+00  0.14999999963E+04  0.15000000000E+04  0.10566000000E+00 0.  1.
        994   -1    0    0    0    0 -0.00000000000E+00 -0.00000000000E+00  0.11368683772E-12  0.17120000000E+03  0.17120000000E+03 0.  0.
         13    1    1    2    0    0  0.60752909663E+02 -0.37645530538E+02  0.42016804990E+03  0.42620335912E+03  0.10566000000E+00 0.  1.
        994    1    1    2    0    0 -0.12303706821E+03 -0.14556519996E+02  0.56916774848E+02  0.21885833703E+03  0.17120000000E+03 0.  0.
        998    1    1    2    0    0  0.62284158548E+02  0.52202050535E+02  0.10229151715E+04  0.10261383039E+04  0.10000000000E-02 0.  1.
</event>
<event>
 5    1  0.5722211E-009  0.3883008E+03  0.7957747E-01  0.3415793E+00
         13   -1    0    0    0    0  0.00000000000E+00  0.00000000000E+00  0.14999999963E+04  0.15000000000E+04  0.10566000000E+00 0.  1.
        994   -1    0    0    0    0 -0.00000000000E+00 -0.00000000000E+00  0.11368683772E-12  0.17120000000E+03  0.17120000000E+03 0.  0.
         13    1    1    2    0    0  0.10195490090E+03  0.24092814101E+03  0.12316762714E+04  0.12591535330E+04  0.10566000000E+00 0.  1.
        994    1    1    2    0    0 -0.10195951466E+03 -0.24094685455E+03  0.26824670786E+03  0.41196706862E+03  0.17120000000E+03 0.  0.
        998    1    1    2    0    0  0.46137606046E-02  0.18713540315E-01  0.77017003281E-01  0.79398376384E-01  0.10000000000E-02 0. -1.
</event>
<event>
 5    1  0.5722211E-009  0.3882993E+03  0.7957747E-01  0.3415799E+00
         13   -1    0    0    0    0  0.00000000000E+00  0.00000000000E+00  0.14999999963E+04  0.15000000000E+04  0.10566000000E+00 0. -1.
        994   -1    0    0    0    0 -0.00000000000E+00 -0.00000000000E+00  0.11368683772E-12  0.17120000000E+03  0.17120000000E+03 0.  0.
         13    1    1    2    0    0  0.86981517633E+02  0.20658408894E+03  0.13053818203E+04  0.13244864960E+04  0.10566000000E+00 0. -1.
        994    1    1    2    0    0 -0.87344760389E+02 -0.20773798204E+03  0.18748026285E+03  0.33947380651E+03  0.17120000000E+03 0.  0.
        998    1    1    2    0    0  0.36324275619E+00  0.11538930975E+01  0.71379131060E+01  0.72396974445E+01  0.10000000000E-02 0.  1.
</event>
<event>
 5    1  0.5722211E-009  0.3818949E+03  0.7957747E-01  0.3442949E+00
         13   -1    0    0    0    0  0.00000000000E+00  0.00000000000E+00  0.14999999963E+04  0.15000000000E+04  0.10566000000E+00 0. -1.
        994   -1    0    0    0    0 -0.00000000000E+00 -0.00000000000E+00  0.11368683772E-12  0.17120000000E+03  0.17120000000E+03 0.  0.
         13    1    1    2    0    0 -0.37971233082E+02  0.85371324399E+02  0.47560170658E+03  0.48469276045E+03  0.10566000000E+00 0. -1.
        994    1    1    2    0    0 -0.11956123874E+02 -0.18937000080E+03  0.13380596064E+03  0.28847429903E+03  0.17120000000E+03 0.  0.
        998    1    1    2    0    0  0.49927356956E+02  0.10399867640E+03  0.89059232906E+03  0.89803294052E+03  0.10000000000E-02 0. -1.
</event>
<event>
 5    1  0.5722211E-009  0.3880235E+03  0.7957747E-01  0.3416949E+00
         13   -1    0    0    0    0  0.00000000000E+00  0.00000000000E+00  0.14999999963E+04  0.15000000000E+04  0.10566000000E+00 0. -1.
        994   -1    0    0    0    0 -0.00000000000E+00 -0.00000000000E+00  0.11368683772E-12  0.17120000000E+03  0.17120000000E+03 0.  0.
         13    1    1    2    0    0  0.98324011021E+02  0.12033969597E+03  0.83812731261E+03  0.85241225758E+03  0.10566000000E+00 0. -1.
        994    1    1    2    0    0 -0.14393529600E+03 -0.19654771122E+03  0.22560427514E+03  0.37357074455E+03  0.17120000000E+03 0.  0.
        998    1    1    2    0    0  0.45611284981E+02  0.76208015257E+02  0.43626840853E+03  0.44521699787E+03  0.10000000000E-02 0. -1.
</event>
<event>
 5    1  0.5722211E-009  0.3883010E+03  0.7957747E-01  0.3415792E+00
         13   -1    0    0    0    0  0.00000000000E+00  0.00000000000E+00  0.14999999963E+04  0.15000000000E+04  0.10566000000E+00 0. -1.
        994   -1    0    0    0    0 -0.00000000000E+00 -0.00000000000E+00  0.11368683772E-12  0.17120000000E+03  0.17120000000E+03 0.  0.
         13    1    1    2    0    0 -0.16436791130E+03  0.21251253394E+03  0.12096186933E+04  0.12390947428E+04  0.10566000000E+00 0. -1.
        994    1    1    2    0    0  0.16465883764E+03 -0.21288758205E+03  0.28824412726E+03  0.42991600610E+03  0.17120000000E+03 0.  0.
        998    1    1    2    0    0 -0.29092633663E+00  0.37504810887E+00  0.21371757635E+01  0.21892511189E+01  0.10000000000E-02 0.  0.
</event>
<event>
 5    1  0.5722211E-009  0.3882986E+03  0.7957747E-01  0.3415802E+00
         13   -1    0    0    0    0  0.00000000000E+00  0.00000000000E+00  0.14999999963E+04  0.15000000000E+04  0.10566000000E+00 0.  1.
        994   -1    0    0    0    0 -0.00000000000E+00 -0.00000000000E+00  0.11368683772E-12  0.17120000000E+03  0.17120000000E+03 0.  0.
         13    1    1    2    0    0  0.77357047828E+02  0.20886007990E+02  0.29112477219E+03  0.30195029777E+03  0.10566000000E+00 0.  1.
        994    1    1    2    0    0 -0.29190550308E+03 -0.76587317113E+02  0.39507800774E+03  0.52580463299E+03  0.17120000000E+03 0.  0.
        998    1    1    2    0    0  0.21454845525E+03  0.55701309123E+02  0.81379721635E+03  0.84344506924E+03  0.10000000000E-02 0.  1.
</event>
<event>
 5    1  0.5722211E-009  0.3882824E+03  0.7957747E-01  0.3415869E+00
         13   -1    0    0    0    0  0.00000000000E+00  0.00000000000E+00  0.14999999963E+04  0.15000000000E+04  0.10566000000E+00 0.  1.
        994   -1    0    0    0    0 -0.00000000000E+00 -0.00000000000E+00  0.11368683772E-12  0.17120000000E+03  0.17120000000E+03 0.  0.
         13    1    1    2    0    0 -0.12035186782E+03 -0.22096403117E+03  0.12517599646E+04  0.12767978287E+04  0.10566000000E+00 0.  1.
        994    1    1    2    0    0  0.12060981149E+03  0.22133531620E+03  0.24460508437E+03  0.39073921754E+03  0.17120000000E+03 0.  0.
        998    1    1    2    0    0 -0.25794366946E+00 -0.37128503104E+00  0.36349473061E+01  0.36629537847E+01  0.10000000000E-02 0. -1.
</event>
<event>
 5    1  0.6226747E-009  0.3883009E+03  0.7957747E-01  0.3415792E+00
         13   -1    0    0    0    0  0.00000000000E+00  0.00000000000E+00  0.14999999963E+04  0.15000000000E+04  0.10566000000E+00 0.  1.
        994   -1    0    0    0    0 -0.00000000000E+00 -0.00000000000E+00  0.11368683772E-12  0.17120000000E+03  0.17120000000E+03 0.  0.
         13    1    1    2    0    0  0.30649097470E+03  0.33494954640E+02  0.10779329064E+04  0.11211592177E+04  0.10566000000E+00 0.  1.
        994    1    1    2    0    0 -0.30651172117E+03 -0.33499157293E+02  0.42198867087E+03  0.54995955042E+03  0.17120000000E+03 0.  0.
        998    1    1    2    0    0  0.20746467291E-01  0.42026529737E-02  0.78418963352E-01  0.81231841111E-01  0.10000000000E-02 0.  1.
</event>
<event>
 5    1  0.5722211E-009  0.3883010E+03  0.7957747E-01  0.3415792E+00
         13   -1    0    0    0    0  0.00000000000E+00  0.00000000000E+00  0.14999999963E+04  0.15000000000E+04  0.10566000000E+00 0. -1.
        994   -1    0    0    0    0 -0.00000000000E+00 -0.00000000000E+00  0.11368683772E-12  0.17120000000E+03  0.17120000000E+03 0.  0.
         13    1    1    2    0    0 -0.64786983636E+02  0.21620274207E+03  0.11119596672E+04  0.11346344308E+04  0.10566000000E+00 0. -1.
        994    1    1    2    0    0  0.72871007238E+02 -0.24323562811E+03  0.24901111922E+03  0.39470208002E+03  0.17120000000E+03 0.  0.
        998    1    1    2    0    0 -0.80840236015E+01  0.27032886038E+02  0.13902920989E+03  0.14186348921E+03  0.10000000000E-02 0.  1.
</event>
<event>
 5    1  0.5722211E-009  0.3883009E+03  0.7957747E-01  0.3415792E+00
         13   -1    0    0    0    0  0.00000000000E+00  0.00000000000E+00  0.14999999963E+04  0.15000000000E+04  0.10566000000E+00 0.  1.
        994   -1    0    0    0    0 -0.00000000000E+00 -0.00000000000E+00  0.11368683772E-12  0.17120000000E+03  0.17120000000E+03 0.  0.
         13    1    1    2    0    0  0.16897597100E+03 -0.15419910123E+03  0.13057365603E+04  0.13256237090E+04  0.10566000000E+00 0.  1.
        994    1    1    2    0    0 -0.16899244983E+03  0.15421369081E+03  0.19415294655E+03  0.34546362643E+03  0.17120000000E+03 0.  0.
        998    1    1    2    0    0  0.16478830983E-01 -0.14589581442E-01  0.11048939781E+00  0.11266461195E+00  0.10000000000E-02 0.  0.
</event>
<event>
 5    1  0.5722211E-009  0.3883010E+03  0.7957747E-01  0.3415792E+00
         13   -1    0    0    0    0  0.00000000000E+00  0.00000000000E+00  0.14999999963E+04  0.15000000000E+04  0.10566000000E+00 0.  1.
        994   -1    0    0    0    0 -0.00000000000E+00 -0.00000000000E+00  0.11368683772E-12  0.17120000000E+03  0.17120000000E+03 0.  0.
         13    1    1    2    0    0  0.18859939098E+03 -0.12959121098E+03  0.13048143515E+04  0.13247279401E+04  0.10566000000E+00 0.  1.
        994    1    1    2    0    0 -0.18870053271E+03  0.12966028097E+03  0.19449530781E+03  0.34577094191E+03  0.17120000000E+03 0.  0.
        998    1    1    2    0    0  0.10114172802E+00 -0.69069980594E-01  0.69033699672E+00  0.70111802174E+00  0.10000000000E-02 0.  0.
</event>
<event>
 5    1  0.5722211E-009  0.3849871E+03  0.7957747E-01  0.3429727E+00
         13   -1    0    0    0    0  0.00000000000E+00  0.00000000000E+00  0.14999999963E+04  0.15000000000E+04  0.10566000000E+00 0. -1.
        994   -1    0    0    0    0 -0.00000000000E+00 -0.00000000000E+00  0.11368683772E-12  0.17120000000E+03  0.17120000000E+03 0.  0.
         13    1    1    2    0    0  0.28625257707E+01 -0.53917059969E+02  0.29870697536E+03  0.30354754438E+03  0.10566000000E+00 0. -1.
        994    1    1    2    0    0 -0.67401734627E+02  0.13162117944E+03  0.77203129270E+02  0.23903324429E+03  0.17120000000E+03 0.  0.
        998    1    1    2    0    0  0.64539208856E+02 -0.77704119469E+02  0.11240898916E+04  0.11286192113E+04  0.10000000000E-02 0. -1.
</event>
<event>
 5    1  0.5722211E-009  0.3882969E+03  0.7957747E-01  0.3415809E+00
         13   -1    0    0    0    0  0.00000000000E+00  0.00000000000E+00  0.14999999963E+04  0.15000000000E+04  0.10566000000E+00 0. -1.
        994   -1    0    0    0    0 -0.00000000000E+00 -0.00000000000E+00  0.11368683772E-12  0.17120000000E+03  0.17120000000E+03 0.  0.
         13    1    1    2    0    0  0.20530389680E+03  0.76647496885E+02  0.13236573249E+04  0.13416755396E+04  0.10566000000E+00 0. -1.
        994    1    1    2    0    0 -0.20535425805E+03 -0.76631788715E+02  0.17590096393E+03  0.32907961264E+03  0.17120000000E+03 0.  0.
        998    1    1    2    0    0  0.50361254659E-01 -0.15708170200E-01  0.44170748618E+00  0.44484773343E+00  0.10000000000E-02 0. -1.
</event>
<event>
 5    1  0.5722211E-009  0.3883010E+03  0.7957747E-01  0.3415792E+00
         13   -1    0    0    0    0  0.00000000000E+00  0.00000000000E+00  0.14999999963E+04  0.15000000000E+04  0.10566000000E+00 0. -1.
        994   -1    0    0    0    0 -0.00000000000E+00 -0.00000000000E+00  0.11368683772E-12  0.17120000000E+03  0.17120000000E+03 0.  0.
         13    1    1    2    0    0 -0.19320310953E+03  0.19582907092E+03  0.11838402498E+04  0.12153823327E+04  0.10566000000E+00 0. -1.
        994    1    1    2    0    0  0.19427361551E+03 -0.19691610199E+03  0.30961718397E+03  0.44909957639E+03  0.17120000000E+03 0.  0.
        998    1    1    2    0    0 -0.10705059846E+01  0.10870310684E+01  0.65425625597E+01  0.67180909085E+01  0.10000000000E-02 0. -1.
</event>
<event>
 5    1  0.5722211E-009  0.3883010E+03  0.7957747E-01  0.3415792E+00
         13   -1    0    0    0    0  0.00000000000E+00  0.00000000000E+00  0.14999999963E+04  0.15000000000E+04  0.10566000000E+00 0. -1.
        994   -1    0    0    0    0 -0.00000000000E+00 -0.00000000000E+00  0.11368683772E-12  0.17120000000E+03  0.17120000000E+03 0.  0.
         13    1    1    2    0    0 -0.23570539408E+03  0.13091130279E+02  0.12759553045E+04  0.12976094793E+04  0.10566000000E+00 0. -1.
        994    1    1    2    0    0  0.23770889168E+03 -0.13200736190E+02  0.21317355685E+03  0.36253576646E+03  0.17120000000E+03 0.  0.
        998    1    1    2    0    0 -0.20034975961E+01  0.10960591097E+00  0.10871134895E+02  0.11054754225E+02  0.10000000000E-02 0.  1.
</event>
<event>
 5    1  0.5722211E-009  0.3883010E+03  0.7957747E-01  0.3415792E+00
         13   -1    0    0    0    0  0.00000000000E+00  0.00000000000E+00  0.14999999963E+04  0.15000000000E+04  0.10566000000E+00 0.  1.
        994   -1    0    0    0    0 -0.00000000000E+00 -0.00000000000E+00  0.11368683772E-12  0.17120000000E+03  0.17120000000E+03 0.  0.
         13    1    1    2    0    0 -0.23681614607E+03 -0.14206229721E+03  0.11531559175E+04  0.11857622715E+04  0.10566000000E+00 0.  1.
        994    1    1    2    0    0  0.24140877454E+03  0.14481962168E+03  0.32446364221E+03  0.46242514461E+03  0.17120000000E+03 0.  0.
        998    1    1    2    0    0 -0.45926284676E+01 -0.27573244776E+01  0.22380436589E+02  0.23012583893E+02  0.10000000000E-02 0. -1.
</event>
<event>
 5    1  0.5722211E-009  0.3883010E+03  0.7957747E-01  0.3415792E+00
         13   -1    0    0    0    0  0.00000000000E+00  0.00000000000E+00  0.14999999963E+04  0.15000000000E+04  0.10566000000E+00 0. -1.
        994   -1    0    0    0    0 -0.00000000000E+00 -0.00000000000E+00  0.11368683772E-12  0.17120000000E+03  0.17120000000E+03 0.  0.
         13    1    1    2    0    0 -0.22668657653E+03  0.38185261038E+02  0.13029441419E+04  0.13230677860E+04  0.10566000000E+00 0. -1.
        994    1    1    2    0    0  0.22677981022E+03 -0.38200149483E+02  0.19652135028E+03  0.34758943433E+03  0.17120000000E+03 0.  0.
        998    1    1    2    0    0 -0.93233692629E-01  0.14888445392E-01  0.53450406101E+00  0.54277967766E+00  0.10000000000E-02 0.  0.
</event>
<event>
 5    1  0.5722211E-009  0.3882999E+03  0.7957747E-01  0.3415797E+00
         13   -1    0    0    0    0  0.00000000000E+00  0.00000000000E+00  0.14999999963E+04  0.15000000000E+04  0.10566000000E+00 0. -1.
        994   -1    0    0    0    0 -0.00000000000E+00 -0.00000000000E+00  0.11368683772E-12  0.17120000000E+03  0.17120000000E+03 0.  0.
         13    1    1    2    0    0  0.15079821668E+02  0.28753095399E+03  0.11537850266E+04  0.11891683436E+04  0.10566000000E+00 0. -1.
        994    1    1    2    0    0 -0.15109770272E+02 -0.28769680914E+03  0.34562699342E+03  0.48142000138E+03  0.17120000000E+03 0.  0.
        998    1    1    2    0    0  0.29948604338E-01  0.16585514974E+00  0.58797624239E+00  0.61165505901E+00  0.10000000000E-02 0.  1.
</event>
<event>
 5    1  0.5722211E-009  0.3883007E+03  0.7957747E-01  0.3415793E+00
         13   -1    0    0    0    0  0.00000000000E+00  0.00000000000E+00  0.14999999963E+04  0.15000000000E+04  0.10566000000E+00 0. -1.
        994   -1    0    0    0    0 -0.00000000000E+00 -0.00000000000E+00  0.11368683772E-12  0.17120000000E+03  0.17120000000E+03 0.  0.
         13    1    1    2    0    0 -0.25855944259E+03 -0.67939900549E+02  0.12160899779E+04  0.12451279697E+04  0.10566000000E+00 0. -1.
        994    1    1    2    0    0  0.25864263503E+03  0.67950638498E+02  0.28355320221E+03  0.42570548553E+03  0.17120000000E+03 0.  0.
        998    1    1    2    0    0 -0.83192437503E-01 -0.10737948899E-01  0.35681618965E+00  0.36654478363E+00  0.10000000000E-02 0.  1.
</event>
<event>
 5    1  0.5722211E-009  0.3883001E+03  0.7957747E-01  0.3415795E+00
         13   -1    0    0    0    0  0.00000000000E+00  0.00000000000E+00  0.14999999963E+04  0.15000000000E+04  0.10566000000E+00 0.  1.
        994   -1    0    0    0    0 -0.00000000000E+00 -0.00000000000E+00  0.11368683772E-12  0.17120000000E+03  0.17120000000E+03 0.  0.
         13    1    1    2    0    0 -0.21238062484E+03  0.80084863528E+02  0.12398315029E+04  0.12604369409E+04  0.10566000000E+00 0.  1.
        994    1    1    2    0    0  0.22107339560E+03 -0.83151122689E+02  0.20921314361E+03  0.35898068876E+03  0.17120000000E+03 0.  0.
        998    1    1    2    0    0 -0.86927707683E+01  0.30662591610E+01  0.50955349773E+02  0.51782370363E+02  0.10000000000E-02 0. -1.
</event>
<event>
 5    1  0.5722211E-009  0.3883009E+03  0.7957747E-01  0.3415792E+00
         13   -1    0    0    0    0  0.00000000000E+00  0.00000000000E+00  0.14999999963E+04  0.15000000000E+04  0.10566000000E+00 0.  1.
        994   -1    0    0    0    0 -0.00000000000E+00 -0.00000000000E+00  0.11368683772E-12  0.17120000000E+03  0.17120000000E+03 0.  0.
         13    1    1    2    0    0  0.21267022545E+03  0.84852332570E+02  0.13037387869E+04  0.13236930833E+04  0.10566000000E+00 0.  1.
        994    1    1    2    0    0 -0.21287395461E+03 -0.84934123571E+02  0.19496788642E+03  0.34619509331E+03  0.17120000000E+03 0.  0.
        998    1    1    2    0    0  0.20372916210E+00  0.81791000319E-01  0.12933229904E+01  0.13118234244E+01  0.10000000000E-02 0.  0.
</event>
<event>
 5    1  0.5722211E-009  0.3882836E+03  0.7957747E-01  0.3415864E+00
         13   -1    0    0    0    0  0.00000000000E+00  0.00000000000E+00  0.14999999963E+04  0.15000000000E+04  0.10566000000E+00 0.  1.
        994   -1    0    0    0    0 -0.00000000000E+00 -0.00000000000E+00  0.11368683772E-12  0.17120000000E+03  0.17120000000E+03 0.  0.
         13    1    1    2    0    0 -0.55299689902E+02  0.23697742481E+03  0.12719925701E+04  0.12950604098E+04  0.10566000000E+00 0.  1.
        994    1    1    2    0    0  0.55248471129E+02 -0.23731519652E+03  0.22531680679E+03  0.37342736842E+03  0.17120000000E+03 0.  0.
        998    1    1    2    0    0  0.51218772918E-01  0.33777171513E+00  0.26906194244E+01  0.27122217795E+01  0.10000000000E-02 0.  1.
</event>
<event>
 5    1  0.5722211E-009  0.3876346E+03  0.7957747E-01  0.3418575E+00
         13   -1    0    0    0    0  0.00000000000E+00  0.00000000000E+00  0.14999999963E+04  0.15000000000E+04  0.10566000000E+00 0.  1.
        994   -1    0    0    0    0 -0.00000000000E+00 -0.00000000000E+00  0.11368683772E-12  0.17120000000E+03  0.17120000000E+03 0.  0.
         13    1    1    2    0    0  0.18891572814E+03 -0.49290229942E+02  0.10619388849E+04  0.10797374151E+04  0.10566000000E+00 0.  1.
        994    1    1    2    0    0 -0.22841022353E+03  0.45613602437E+02  0.20336506050E+03  0.35343828142E+03  0.17120000000E+03 0.  0.
        998    1    1    2    0    0  0.39494495392E+02  0.36766275060E+01  0.23469605089E+03  0.23802430350E+03  0.10000000000E-02 0.  1.
</event>
<event>
 5    1  0.5722211E-009  0.3881311E+03  0.7957747E-01  0.3416500E+00
         13   -1    0    0    0    0  0.00000000000E+00  0.00000000000E+00  0.14999999963E+04  0.15000000000E+04  0.10566000000E+00 0. -1.
        994   -1    0    0    0    0 -0.00000000000E+00 -0.00000000000E+00  0.11368683772E-12  0.17120000000E+03  0.17120000000E+03 0.  0.
         13    1    1    2    0    0  0.65975039868E+02 -0.21502331173E+03  0.11971390683E+04  0.12180844349E+04  0.10566000000E+00 0. -1.
        994    1    1    2    0    0 -0.72649197866E+02  0.22702180169E+03  0.21402710870E+03  0.36322699191E+03  0.17120000000E+03 0.  0.
        998    1    1    2    0    0  0.66741579983E+01 -0.11998489962E+02  0.88833819232E+02  0.89888573171E+02  0.10000000000E-02 0. -1.
</event>
<event>
 5    1  0.5722211E-009  0.3883003E+03  0.7957747E-01  0.3415795E+00
         13   -1    0    0    0    0  0.00000000000E+00  0.00000000000E+00  0.14999999963E+04  0.15000000000E+04  0.10566000000E+00 0.  1.
        994   -1    0    0    0    0 -0.00000000000E+00 -0.00000000000E+00  0.11368683772E-12  0.17120000000E+03  0.17120000000E+03 0.  0.
         13    1    1    2    0    0 -0.76788761277E+02 -0.25106970531E+03  0.12279483332E+04  0.12557028435E+04  0.10566000000E+00 0.  1.
        994    1    1    2    0    0  0.76837943237E+02  0.25124117283E+03  0.27108761775E+03  0.41451674628E+03  0.17120000000E+03 0.  0.
        998    1    1    2    0    0 -0.49181960124E-01 -0.17146752984E+00  0.96404528242E+00  0.98041026390E+00  0.10000000000E-02 0.  1.
</event>
<event>
 5    1  0.5722211E-009  0.3882092E+03  0.7957747E-01  0.3416175E+00
         13   -1    0    0    0    0  0.00000000000E+00  0.00000000000E+00  0.14999999963E+04  0.15000000000E+04  0.10566000000E+00 0. -1.
        994   -1    0    0    0    0 -0.00000000000E+00 -0.00000000000E+00  0.11368683772E-12  0.17120000000E+03  0.17120000000E+03 0.  0.
         13    1    1    2    0    0 -0.13778543101E+03 -0.24669049592E+03  0.10921657461E+04  0.11281254602E+04  0.10566000000E+00 0. -1.
        994    1    1    2    0    0  0.14385483982E+03  0.25735513712E+03  0.36919592331E+03  0.50253452750E+03  0.17120000000E+03 0.  0.
        998    1    1    2    0    0 -0.60694088101E+01 -0.10664641191E+02  0.38638326897E+02  0.40540012351E+02  0.10000000000E-02 0.  1.
</event>
<event>
 5    1  0.5722211E-009  0.3883010E+03  0.7957747E-01  0.3415792E+00
         13   -1    0    0    0    0  0.00000000000E+00  0.00000000000E+00  0.14999999963E+04  0.15000000000E+04  0.10566000000E+00 0.  1.
        994   -1    0    0    0    0 -0.00000000000E+00 -0.00000000000E+00  0.11368683772E-12  0.17120000000E+03  0.17120000000E+03 0.  0.
         13    1    1    2    0    0 -0.23885846151E+03  0.10467021269E+03  0.11360985944E+04  0.11656454201E+04  0.10566000000E+00 0.  1.
        994    1    1    2    0    0  0.25149534403E+03 -0.11024847956E+03  0.30369729466E+03  0.44378612202E+03  0.17120000000E+03 0.  0.
        998    1    1    2    0    0 -0.12636882518E+02  0.55782668707E+01  0.60204107213E+02  0.61768457868E+02  0.10000000000E-02 0.  1.
</event>
<event>
 5    1  0.5722211E-009  0.3883000E+03  0.7957747E-01  0.3415796E+00
         13   -1    0    0    0    0  0.00000000000E+00  0.00000000000E+00  0.14999999963E+04  0.15000000000E+04  0.10566000000E+00 0. -1.
        994   -1    0    0    0    0 -0.00000000000E+00 -0.00000000000E+00  0.11368683772E-12  0.17120000000E+03  0.17120000000E+03 0.  0.
         13    1    1    2    0    0  0.18277350650E+03  0.10259292145E+03  0.12121290030E+04  0.12301171461E+04  0.10566000000E+00 0. -1.
        994    1    1    2    0    0 -0.19738074060E+03 -0.11069760740E+03  0.18931188182E+03  0.34111808167E+03  0.17120000000E+03 0.  0.
        998    1    1    2    0    0  0.14607234093E+02  0.81046859448E+01  0.98559111504E+02  0.99964772213E+02  0.10000000000E-02 0. -1.
</event>
<event>
 5    1  0.5722211E-009  0.3883010E+03  0.7957747E-01  0.3415792E+00
         13   -1    0    0    0    0  0.00000000000E+00  0.00000000000E+00  0.14999999963E+04  0.15000000000E+04  0.10566000000E+00 0.  1.
        994   -1    0    0    0    0 -0.00000000000E+00 -0.00000000000E+00  0.11368683772E-12  0.17120000000E+03  0.17120000000E+03 0.  0.
         13    1    1    2    0    0 -0.10732370477E+03  0.20877498075E+03  0.12738737403E+04  0.12953222331E+04  0.10566000000E+00 0.  1.
        994    1    1    2    0    0  0.10853521449E+03 -0.21113206179E+03  0.21173564571E+03  0.36124515770E+03  0.17120000000E+03 0.  0.
        998    1    1    2    0    0 -0.12115097109E+01  0.23570810349E+01  0.14390610236E+02  0.14632609157E+02  0.10000000000E-02 0. -1.
</event>
<event>
 5    1  0.5722211E-009  0.3685949E+03  0.7957747E-01  0.3502373E+00
         13   -1    0    0    0    0  0.00000000000E+00  0.00000000000E+00  0.14999999963E+04  0.15000000000E+04  0.10566000000E+00 0. -1.
        994   -1    0    0    0    0 -0.00000000000E+00 -0.00000000000E+00  0.11368683772E-12  0.17120000000E+03  0.17120000000E+03 0.  0.
         13    1    1    2    0    0  0.10572873664E+02  0.36569108230E+02  0.13668356063E+03  0.14188548990E+03  0.10566000000E+00 0. -1.
        994    1    1    2    0    0 -0.57730283101E+02  0.14198295192E+03  0.96696019755E+02  0.24930203461E+03  0.17120000000E+03 0.  0.
        998    1    1    2    0    0  0.47157409437E+02 -0.17855206015E+03  0.12666204159E+04  0.12800124755E+04  0.10000000000E-02 0. -1.
</event>
<event>
 5    1  0.5722211E-009  0.3882473E+03  0.7957747E-01  0.3416016E+00
         13   -1    0    0    0    0  0.00000000000E+00  0.00000000000E+00  0.14999999963E+04  0.15000000000E+04  0.10566000000E+00 0.  1.
        994   -1    0    0    0    0 -0.00000000000E+00 -0.00000000000E+00  0.11368683772E-12  0.17120000000E+03  0.17120000000E+03 0.  0.
         13    1    1    2    0    0  0.54034851357E+02  0.26995509883E+03  0.11870745743E+04  0.12185817891E+04  0.10566000000E+00 0.  1.
        994    1    1    2    0    0 -0.54492367630E+02 -0.27056256638E+03  0.30788990053E+03  0.44752558732E+03  0.17120000000E+03 0.  0.
        998    1    1    2    0    0  0.45751627323E+00  0.60746755492E+00  0.50355214364E+01  0.50926235976E+01  0.10000000000E-02 0.  1.
</event>
<event>
 5    1  0.5722211E-009  0.3882997E+03  0.7957747E-01  0.3415797E+00
         13   -1    0    0    0    0  0.00000000000E+00  0.00000000000E+00  0.14999999963E+04  0.15000000000E+04  0.10566000000E+00 0.  1.
        994   -1    0    0    0    0 -0.00000000000E+00 -0.00000000000E+00  0.11368683772E-12  0.17120000000E+03  0.17120000000E+03 0.  0.
         13    1    1    2    0    0 -0.18120637031E+03 -0.16193701290E+03  0.12757162580E+04  0.12986575094E+04  0.10566000000E+00 0.  1.
        994    1    1    2    0    0  0.18122891375E+03  0.16198004067E+03  0.22397693357E+03  0.37223186259E+03  0.17120000000E+03 0.  0.
        998    1    1    2    0    0 -0.22543437419E-01 -0.43027769902E-01  0.30680474610E+00  0.31062798937E+00  0.10000000000E-02 0. -1.
</event>
<event>
 5    1  0.5722211E-009  0.3883009E+03  0.7957747E-01  0.3415792E+00
         13   -1    0    0    0    0  0.00000000000E+00  0.00000000000E+00  0.14999999963E+04  0.15000000000E+04  0.10566000000E+00 0.  1.
        994   -1    0    0    0    0 -0.00000000000E+00 -0.00000000000E+00  0.11368683772E-12  0.17120000000E+03  0.17120000000E+03 0.  0.
         13    1    1    2    0    0 -0.20539906801E+02  0.24638640963E+03  0.10220747359E+04  0.10515535780E+04  0.10566000000E+00 0.  1.
        994    1    1    2    0    0  0.23431289606E+02 -0.28217940502E+03  0.32958807501E+03  0.46702460443E+03  0.17120000000E+03 0.  0.
        998    1    1    2    0    0 -0.28913828052E+01  0.35792995395E+02  0.14833718542E+03  0.15262181755E+03  0.10000000000E-02 0. -1.
</event>
<event>
 5    1  0.5722211E-009  0.3882997E+03  0.7957747E-01  0.3415797E+00
         13   -1    0    0    0    0  0.00000000000E+00  0.00000000000E+00  0.14999999963E+04  0.15000000000E+04  0.10566000000E+00 0. -1.
        994   -1    0    0    0    0 -0.00000000000E+00 -0.00000000000E+00  0.11368683772E-12  0.17120000000E+03  0.17120000000E+03 0.  0.
         13    1    1    2    0    0 -0.23044275408E+03  0.95711371176E+01  0.12995914102E+04  0.13198989787E+04  0.10566000000E+00 0. -1.
        994    1    1    2    0    0  0.23075348958E+03 -0.96275267361E+01  0.19848157890E+03  0.34934830669E+03  0.17120000000E+03 0.  0.
        998    1    1    2    0    0 -0.31073550376E+00  0.56389618465E-01  0.19270072193E+01  0.19527145633E+01  0.10000000000E-02 0. -1.
</event>
<event>
 5    1  0.5722211E-009  0.3883010E+03  0.7957747E-01  0.3415792E+00
         13   -1    0    0    0    0  0.00000000000E+00  0.00000000000E+00  0.14999999963E+04  0.15000000000E+04  0.10566000000E+00 0. -1.
        994   -1    0    0    0    0 -0.00000000000E+00 -0.00000000000E+00  0.11368683772E-12  0.17120000000E+03  0.17120000000E+03 0.  0.
         13    1    1    2    0    0  0.26556200489E+03 -0.55849004129E+02  0.12002005965E+04  0.12304973680E+04  0.10566000000E+00 0. -1.
        994    1    1    2    0    0 -0.26627771892E+03  0.56003749611E+02  0.29654055227E+03  0.43736253007E+03  0.17120000000E+03 0.  0.
        998    1    1    2    0    0  0.71571402728E+00 -0.15474548173E+00  0.32588474899E+01  0.33401018990E+01  0.10000000000E-02 0.  1.
</event>
<event>
 5    1  0.5722211E-009  0.3882983E+03  0.7957747E-01  0.3415803E+00
         13   -1    0    0    0    0  0.00000000000E+00  0.00000000000E+00  0.14999999963E+04  0.15000000000E+04  0.10566000000E+00 0. -1.
        994   -1    0    0    0    0 -0.00000000000E+00 -0.00000000000E+00  0.11368683772E-12  0.17120000000E+03  0.17120000000E+03 0.  0.
         13    1    1    2    0    0 -0.15916062856E+03 -0.17179163674E+03  0.12899961078E+04  0.13110814015E+04  0.10566000000E+00 0. -1.
        994    1    1    2    0    0  0.15963866971E+03  0.17217962819E+03  0.20631459373E+03  0.35637828331E+03  0.17120000000E+03 0.  0.
        998    1    1    2    0    0 -0.47804114841E+00 -0.38799144813E+00  0.36892947382E+01  0.37403151429E+01  0.10000000000E-02 0.  1.
</event>
<event>
 5    1  0.5722211E-009  0.3883005E+03  0.7957747E-01  0.3415794E+00
         13   -1    0    0    0    0  0.00000000000E+00  0.00000000000E+00  0.14999999963E+04  0.15000000000E+04  0.10566000000E+00 0. -1.
        994   -1    0    0    0    0 -0.00000000000E+00 -0.00000000000E+00  0.11368683772E-12  0.17120000000E+03  0.17120000000E+03 0.  0.
         13    1    1    2    0    0 -0.18594244377E+03  0.14249856445E+03  0.12939435432E+04  0.13149792156E+04  0.10566000000E+00 0. -1.
        994    1    1    2    0    0  0.18604434697E+03 -0.14256906219E+03  0.20546729689E+03  0.35561873773E+03  0.17120000000E+03 0.  0.
        998    1    1    2    0    0 -0.10190320312E+00  0.70497747719E-01  0.58915616265E+00  0.60204665868E+00  0.10000000000E-02 0.  1.
</event>
<event>
 5    1  0.5722211E-009  0.3883010E+03  0.7957747E-01  0.3415792E+00
         13   -1    0    0    0    0  0.00000000000E+00  0.00000000000E+00  0.14999999963E+04  0.15000000000E+04  0.10566000000E+00 0. -1.
        994   -1    0    0    0    0 -0.00000000000E+00 -0.00000000000E+00  0.11368683772E-12  0.17120000000E+03  0.17120000000E+03 0.  0.
         13    1    1    2    0    0  0.10217983762E+03 -0.25405212033E+03  0.11569001784E+04  0.11888655235E+04  0.10566000000E+00 0. -1.
        994    1    1    2    0    0 -0.10435010871E+03  0.25943234878E+03  0.31866668213E+03  0.45722202821E+03  0.17120000000E+03 0.  0.
        998    1    1    2    0    0  0.21702710878E+01 -0.53802284456E+01  0.24433135795E+02  0.25112448317E+02  0.10000000000E-02 0.  1.
</event>
<event>
 5    1  0.5722211E-009  0.3883009E+03  0.7957747E-01  0.3415792E+00
         13   -1    0    0    0    0  0.00000000000E+00  0.00000000000E+00  0.14999999963E+04  0.15000000000E+04  0.10566000000E+00 0.  1.
        994   -1    0    0    0    0 -0.00000000000E+00 -0.00000000000E+00  0.11368683772E-12  0.17120000000E+03  0.17120000000E+03 0.  0.
         13    1    1    2    0    0  0.84789534045E+02 -0.22344837149E+03  0.12506176670E+04  0.12732489937E+04  0.10566000000E+00 0.  1.
        994    1    1    2    0    0 -0.86402200376E+02  0.22776509915E+03  0.22516055010E+03  0.37329478156E+03  0.17120000000E+03 0.  0.
        998    1    1    2    0    0  0.16126663313E+01 -0.43167276569E+01  0.24221779141E+02  0.24656224693E+02  0.10000000000E-02 0.  1.
</event>
<event>
 5    1  0.5722211E-009  0.3882646E+03  0.7957747E-01  0.3415944E+00
         13   -1    0    0    0    0  0.00000000000E+00  0.00000000000E+00  0.14999999963E+04  0.15000000000E+04  0.10566000000E+00 0.  1.
        994   -1    0    0    0    0 -0.00000000000E+00 -0.00000000000E+00  0.11368683772E-12  0.17120000000E+03  0.17120000000E+03 0.  0.
         13    1    1    2    0    0 -0.35461628786E+02  0.21986606753E+03  0.12921706870E+04  0.13112222200E+04  0.10566000000E+00 0.  1.
        994    1    1    2    0    0  0.36696576139E+02 -0.22344423575E+03  0.18961790535E+03  0.34137714513E+03  0.17120000000E+03 0.  0.
        998    1    1    2    0    0 -0.12349473526E+01  0.35781682156E+01  0.18211403970E+02  0.18600634889E+02  0.10000000000E-02 0.  1.
</event>
<event>
 5    1  0.5722211E-009  0.3883009E+03  0.7957747E-01  0.3415792E+00
         13   -1    0    0    0    0  0.00000000000E+00  0.00000000000E+00  0.14999999963E+04  0.15000000000E+04  0.10566000000E+00 0. -1.
        994   -1    0    0    0    0 -0.00000000000E+00 -0.00000000000E+00  0.11368683772E-12  0.17120000000E+03  0.17120000000E+03 0.  0.
         13    1    1    2    0    0 -0.18599305905E+03 -0.22460457930E+03  0.11185910734E+04  0.11559786485E+04  0.10566000000E+00 0. -1.
        994    1    1    2    0    0  0.18804736618E+03  0.22708225791E+03  0.36896172801E+03  0.50236476839E+03  0.17120000000E+03 0.  0.
        998    1    1    2    0    0 -0.20543071280E+01 -0.24776786035E+01  0.12447194883E+02  0.12856583158E+02  0.10000000000E-02 0.  1.
</event>
<event>
 5    1  0.5722211E-009  0.3882997E+03  0.7957747E-01  0.3415797E+00
         13   -1    0    0    0    0  0.00000000000E+00  0.00000000000E+00  0.14999999963E+04  0.15000000000E+04  0.10566000000E+00 0.  1.
        994   -1    0    0    0    0 -0.00000000000E+00 -0.00000000000E+00  0.11368683772E-12  0.17120000000E+03  0.17120000000E+03 0.  0.
         13    1    1    2    0    0 -0.38935069817E+02 -0.21294124093E+03  0.11796075011E+04  0.11993055405E+04  0.10566000000E+00 0.  1.
        994    1    1    2    0    0  0.42988492573E+02  0.23280218640E+03  0.21035350241E+03  0.36000403395E+03  0.17120000000E+03 0.  0.
        998    1    1    2    0    0 -0.40534227558E+01 -0.19860945463E+02  0.11003899277E+03  0.11189042552E+03  0.10000000000E-02 0. -1.
</event>
<event>
 5    1  0.5722211E-009  0.3883009E+03  0.7957747E-01  0.3415792E+00
         13   -1    0    0    0    0  0.00000000000E+00  0.00000000000E+00  0.14999999963E+04  0.15000000000E+04  0.10566000000E+00 0.  1.
        994   -1    0    0    0    0 -0.00000000000E+00 -0.00000000000E+00  0.11368683772E-12  0.17120000000E+03  0.17120000000E+03 0.  0.
         13    1    1    2    0    0 -0.14883702360E+03  0.17616152965E+03  0.10357762548E+04  0.10611398613E+04  0.10566000000E+00 0.  1.
        994    1    1    2    0    0  0.17389973041E+03 -0.20603394693E+03  0.28956456771E+03  0.43110112781E+03  0.17120000000E+03 0.  0.
        998    1    1    2    0    0 -0.25062706813E+02  0.29872417279E+02  0.17465917381E+03  0.17895901091E+03  0.10000000000E-02 0. -1.
</event>
<event>
 5    1  0.5722211E-009  0.3881584E+03  0.7957747E-01  0.3416386E+00
         13   -1    0    0    0    0  0.00000000000E+00  0.00000000000E+00  0.14999999963E+04  0.15000000000E+04  0.10566000000E+00 0.  1.
        994   -1    0    0    0    0 -0.00000000000E+00 -0.00000000000E+00  0.11368683772E-12  0.17120000000E+03  0.17120000000E+03 0.  0.
         13    1    1    2    0    0 -0.18880891397E+02 -0.21758356731E+03  0.12924936596E+04  0.13108161458E+04  0.10566000000E+00 0.  1.
        994    1    1    2    0    0  0.17493107413E+02  0.22099701470E+03  0.18070589857E+03  0.33333129330E+03  0.17120000000E+03 0.  0.
        998    1    1    2    0    0  0.13877839834E+01 -0.34134473920E+01  0.26800438088E+02  0.27052560880E+02  0.10000000000E-02 0. -1.
</event>
<event>
 5    1  0.5722211E-009  0.3766203E+03  0.7957747E-01  0.3466008E+00
         13   -1    0    0    0    0  0.00000000000E+00  0.00000000000E+00  0.14999999963E+04  0.15000000000E+04  0.10566000000E+00 0.  1.
        994   -1    0    0    0    0 -0.00000000000E+00 -0.00000000000E+00  0.11368683772E-12  0.17120000000E+03  0.17120000000E+03 0.  0.
         13    1    1    2    0    0  0.12073431685E+03 -0.11962628130E+03  0.58448242052E+03  0.60869280718E+03  0.10566000000E+00 0.  1.
        994    1    1    2    0    0 -0.16969821871E+03  0.15374274392E+03  0.21067967401E+03  0.35514740852E+03  0.17120000000E+03 0.  0.
        998    1    1    2    0    0  0.48963901856E+02 -0.34116462614E+02  0.70483790175E+03  0.70735978430E+03  0.10000000000E-02 0.  1.
</event>
<event>
 5    1  0.5722211E-009  0.3882948E+03  0.7957747E-01  0.3415818E+00
         13   -1    0    0    0    0  0.00000000000E+00  0.00000000000E+00  0.14999999963E+04  0.15000000000E+04  0.10566000000E+00 0. -1.
        994   -1    0    0    0    0 -0.00000000000E+00 -0.00000000000E+00  0.11368683772E-12  0.17120000000E+03  0.17120000000E+03 0.  0.
         13    1    1    2    0    0 -0.26399296735E+01 -0.16437972216E+02  0.88707154168E+02  0.90256005472E+02  0.10566000000E+00 0. -1.
        994    1    1    2    0    0  0.47607161811E+02  0.24058910688E+03  0.22885491970E+03  0.37660798515E+03  0.17120000000E+03 0.  0.
        998    1    1    2    0    0 -0.44967232137E+02 -0.22415113466E+03  0.11824379224E+04  0.12043360094E+04  0.10000000000E-02 0. -1.
</event>
<event>
 5    1  0.5722211E-009  0.3883009E+03  0.7957747E-01  0.3415792E+00
         13   -1    0    0    0    0  0.00000000000E+00  0.00000000000E+00  0.14999999963E+04  0.15000000000E+04  0.10566000000E+00 0.  1.
        994   -1    0    0    0    0 -0.00000000000E+00 -0.00000000000E+00  0.11368683772E-12  0.17120000000E+03  0.17120000000E+03 0.  0.
         13    1    1    2    0    0  0.98241512175E+02  0.24243244534E+03  0.10607866650E+04  0.10925626962E+04  0.10566000000E+00 0.  1.
        994    1    1    2    0    0 -0.10747768247E+03 -0.26531673321E+03  0.33957529108E+03  0.47598869678E+03  0.17120000000E+03 0.  0.
        998    1    1    2    0    0  0.92361702963E+01  0.22884287865E+02  0.99638040227E+02  0.10264860707E+03  0.10000000000E-02 0.  1.
</event>
<event>
 5    1  0.5722211E-009  0.3882504E+03  0.7957747E-01  0.3416003E+00
         13   -1    0    0    0    0  0.00000000000E+00  0.00000000000E+00  0.14999999963E+04  0.15000000000E+04  0.10566000000E+00 0.  1.
        994   -1    0    0    0    0 -0.00000000000E+00 -0.00000000000E+00  0.11368683772E-12  0.17120000000E+03  0.17120000000E+03 0.  0.
         13    1    1    2    0    0 -0.15023953011E+03 -0.26848156881E+03  0.10803743561E+04  0.11233267689E+04  0.10566000000E+00 0.  1.
        994    1    1    2    0    0  0.15034427634E+03  0.26849438350E+03  0.41944786732E+03  0.54766649413E+03  0.17120000000E+03 0.  0.
        998    1    1    2    0    0 -0.10474623787E+00 -0.12814681302E-01  0.17777283148E+00  0.20673695851E+00  0.10000000000E-02 0. -1.
</event>
<event>
 5    1  0.5722211E-009  0.3882996E+03  0.7957747E-01  0.3415798E+00
         13   -1    0    0    0    0  0.00000000000E+00  0.00000000000E+00  0.14999999963E+04  0.15000000000E+04  0.10566000000E+00 0. -1.
        994   -1    0    0    0    0 -0.00000000000E+00 -0.00000000000E+00  0.11368683772E-12  0.17120000000E+03  0.17120000000E+03 0.  0.
         13    1    1    2    0    0  0.25374964369E+03 -0.13334114583E+03  0.11447878992E+04  0.11801305386E+04  0.10566000000E+00 0. -1.
        994    1    1    2    0    0 -0.25541699176E+03  0.13424863785E+03  0.34714966827E+03  0.48278656633E+03  0.17120000000E+03 0.  0.
        998    1    1    2    0    0  0.16673480687E+01 -0.90749202824E+00  0.80624288270E+01  0.82828950829E+01  0.10000000000E-02 0. -1.
</event>
<event>
 5    1  0.9537782E-009  0.3883009E+03  0.7957747E-01  0.3415792E+00
         13   -1    0    0    0    0  0.00000000000E+00  0.00000000000E+00  0.14999999963E+04  0.15000000000E+04  0.10566000000E+00 0.  1.
        994   -1    0    0    0    0 -0.00000000000E+00 -0.00000000000E+00  0.11368683772E-12  0.17120000000E+03  0.17120000000E+03 0.  0.
         13    1    1    2    0    0 -0.20778143329E+03  0.11298609925E+03  0.12901010583E+04  0.13116019725E+04  0.10566000000E+00 0.  1.
        994    1    1    2    0    0  0.20778369924E+03 -0.11298746246E+03  0.20988810315E+03  0.35958682983E+03  0.17120000000E+03 0.  0.
        998    1    1    2    0    0 -0.22659501587E-02  0.13632134822E-02  0.10834853914E-01  0.11197631020E-01  0.10000000000E-02 0.  0.
</event>
<event>
 5    1  0.5722211E-009  0.3883008E+03  0.7957747E-01  0.3415793E+00
         13   -1    0    0    0    0  0.00000000000E+00  0.00000000000E+00  0.14999999963E+04  0.15000000000E+04  0.10566000000E+00 0. -1.
        994   -1    0    0    0    0 -0.00000000000E+00 -0.00000000000E+00  0.11368683772E-12  0.17120000000E+03  0.17120000000E+03 0.  0.
         13    1    1    2    0    0  0.20049734869E+03 -0.28431961285E+02  0.11804495228E+04  0.11976930535E+04  0.10566000000E+00 0. -1.
        994    1    1    2    0    0 -0.22307034040E+03  0.31503803791E+02  0.18734483459E+03  0.33935290402E+03  0.17120000000E+03 0.  0.
        998    1    1    2    0    0  0.22572991706E+02 -0.30718425062E+01  0.13220563885E+03  0.13415404249E+03  0.10000000000E-02 0. -1.
</event>
<event>
 5    1  0.5722211E-009  0.3882695E+03  0.7957747E-01  0.3415923E+00
         13   -1    0    0    0    0  0.00000000000E+00  0.00000000000E+00  0.14999999963E+04  0.15000000000E+04  0.10566000000E+00 0.  1.
        994   -1    0    0    0    0 -0.00000000000E+00 -0.00000000000E+00  0.11368683772E-12  0.17120000000E+03  0.17120000000E+03 0.  0.
         13    1    1    2    0    0 -0.26068753496E+03 -0.12076509027E+03  0.11529662067E+04  0.11882227413E+04  0.10566000000E+00 0.  1.
        994    1    1    2    0    0  0.26109262612E+03  0.12078744031E+03  0.34432243156E+03  0.48023571506E+03  0.17120000000E+03 0.  0.
        998    1    1    2    0    0 -0.40509115661E+00 -0.22350039903E-01  0.27113579929E+01  0.27415436410E+01  0.10000000000E-02 0. -1.
</event>
<event>
 5    1  0.5722211E-009  0.3852111E+03  0.7957747E-01  0.3428777E+00
         13   -1    0    0    0    0  0.00000000000E+00  0.00000000000E+00  0.14999999963E+04  0.15000000000E+04  0.10566000000E+00 0.  1.
        994   -1    0    0    0    0 -0.00000000000E+00 -0.00000000000E+00  0.11368683772E-12  0.17120000000E+03  0.17120000000E+03 0.  0.
         13    1    1    2    0    0 -0.30037442900E+02  0.27968380079E+03  0.10445880178E+04  0.10817991563E+04  0.10566000000E+00 0.  1.
        994    1    1    2    0    0  0.41996832765E+02 -0.30083131216E+03  0.41278946665E+03  0.54034044464E+03  0.17120000000E+03 0.  0.
        998    1    1    2    0    0 -0.11959389864E+02  0.21147511370E+02  0.42622511791E+02  0.49060399055E+02  0.10000000000E-02 0.  1.
</event>
<event>
 5    1  0.5722211E-009  0.3883010E+03  0.7957747E-01  0.3415792E+00
         13   -1    0    0    0    0  0.00000000000E+00  0.00000000000E+00  0.14999999963E+04  0.15000000000E+04  0.10566000000E+00 0. -1.
        994   -1    0    0    0    0 -0.00000000000E+00 -0.00000000000E+00  0.11368683772E-12  0.17120000000E+03  0.17120000000E+03 0.  0.
         13    1    1    2    0    0  0.11884087370E+03  0.22537411710E+03  0.12429044181E+04  0.12687505860E+04  0.10566000000E+00 0. -1.
        994    1    1    2    0    0 -0.11922371202E+03 -0.22609656323E+03  0.25311281165E+03  0.39838359007E+03  0.17120000000E+03 0.  0.
        998    1    1    2    0    0  0.38283831838E+00  0.72244613067E+00  0.39827665623E+01  0.40658239115E+01  0.10000000000E-02 0.  1.
</event>
<event>
 5    1  0.5722211E-009  0.3882994E+03  0.7957747E-01  0.3415799E+00
         13   -1    0    0    0    0  0.00000000000E+00  0.00000000000E+00  0.14999999963E+04  0.15000000000E+04  0.10566000000E+00 0.  1.
        994   -1    0    0    0    0 -0.00000000000E+00 -0.00000000000E+00  0.11368683772E-12  0.17120000000E+03  0.17120000000E+03 0.  0.
         13    1    1    2    0    0 -0.23654397933E+03 -0.11557435842E+02  0.12601869941E+04  0.12822472070E+04  0.10566000000E+00 0.  1.
        994    1    1    2    0    0  0.24053797312E+03  0.11575902551E+02  0.21905459483E+03  0.36781363970E+03  0.17120000000E+03 0.  0.
        998    1    1    2    0    0 -0.39939937941E+01 -0.18466709101E-01  0.20758407343E+02  0.21139153339E+02  0.10000000000E-02 0. -1.
</event>
<event>
 5    1  0.5722211E-009  0.3882990E+03  0.7957747E-01  0.3415800E+00
         13   -1    0    0    0    0  0.00000000000E+00  0.00000000000E+00  0.14999999963E+04  0.15000000000E+04  0.10566000000E+00 0.  1.
        994   -1    0    0    0    0 -0.00000000000E+00 -0.00000000000E+00  0.11368683772E-12  0.17120000000E+03  0.17120000000E+03 0.  0.
         13    1    1    2    0    0  0.63418008749E+02  0.21829606898E+03  0.13036717039E+04  0.13233423368E+04  0.10566000000E+00 0.  1.
        994    1    1    2    0    0 -0.63541842890E+02 -0.21898395349E+03  0.19265296509E+03  0.34411646668E+03  0.17120000000E+03 0.  0.
        998    1    1    2    0    0  0.12383414052E+00  0.68788451034E+00  0.36753272342E+01  0.37411965027E+01  0.10000000000E-02 0. -1.
</event>
<event>
 5    1  0.5722211E-009  0.3882830E+03  0.7957747E-01  0.3415867E+00
         13   -1    0    0    0    0  0.00000000000E+00  0.00000000000E+00  0.14999999963E+04  0.15000000000E+04  0.10566000000E+00 0. -1.
        994   -1    0    0    0    0 -0.00000000000E+00 -0.00000000000E+00  0.11368683772E-12  0.17120000000E+03  0.17120000000E+03 0.  0.
         13    1    1    2    0    0  0.78231411942E+02 -0.18010697472E+03  0.34962775109E+03  0.40099657312E+03  0.10566000000E+00 0. -1.
        994    1    1    2    0    0 -0.13620626252E+03  0.31756814508E+03  0.89321012905E+03  0.97290053313E+03  0.17120000000E+03 0.  0.
        998    1    1    2    0    0  0.57974850583E+02 -0.13746117036E+03  0.25716211614E+03  0.29730289376E+03  0.10000000000E-02 0. -1.
</event>
<event>
 5    1  0.5722211E-009  0.3882881E+03  0.7957747E-01  0.3415845E+00
         13   -1    0    0    0    0  0.00000000000E+00  0.00000000000E+00  0.14999999963E+04  0.15000000000E+04  0.10566000000E+00 0. -1.
        994   -1    0    0    0    0 -0.00000000000E+00 -0.00000000000E+00  0.11368683772E-12  0.17120000000E+03  0.17120000000E+03 0.  0.
         13    1    1    2    0    0  0.17081980905E-01  0.21435664998E+03  0.66033584583E+03  0.69425659099E+03  0.10566000000E+00 0. -1.
        994    1    1    2    0    0 -0.14770821180E+01 -0.32528794193E+03  0.50677848534E+03  0.62605774506E+03  0.17120000000E+03 0.  0.
        998    1    1    2    0    0  0.14600001371E+01  0.11093129196E+03  0.33288566511E+03  0.35088566396E+03  0.10000000000E-02 0.  1.
</event>
<event>
 5    1  0.5722211E-009  0.3876957E+03  0.7957747E-01  0.3418319E+00
         13   -1    0    0    0    0  0.00000000000E+00  0.00000000000E+00  0.14999999963E+04  0.15000000000E+04  0.10566000000E+00 0.  1.
        994   -1    0    0    0    0 -0.00000000000E+00 -0.00000000000E+00  0.11368683772E-12  0.17120000000E+03  0.17120000000E+03 0.  0.
         13    1    1    2    0    0 -0.28684830816E+01 -0.31944588795E+03  0.97764817688E+03  0.10285182898E+04  0.10566000000E+00 0.  1.
        994    1    1    2    0    0  0.83241460234E+00  0.32319261339E+03  0.49752122932E+03  0.61748762893E+03  0.17120000000E+03 0.  0.
        998    1    1    2    0    0  0.20360684792E+01 -0.37467254323E+01  0.24830590085E+02  0.25194081274E+02  0.10000000000E-02 0.  1.
</event>
<event>
 5    1  0.5722211E-009  0.3882992E+03  0.7957747E-01  0.3415799E+00
         13   -1    0    0    0    0  0.00000000000E+00  0.00000000000E+00  0.14999999963E+04  0.15000000000E+04  0.10566000000E+00 0. -1.
        994   -1    0    0    0    0 -0.00000000000E+00 -0.00000000000E+00  0.11368683772E-12  0.17120000000E+03  0.17120000000E+03 0.  0.
         13    1    1    2    0    0 -0.26489387167E+03  0.11654054606E+03  0.11493255010E+04  0.11852002280E+04  0.10566000000E+00 0. -1.
        994    1    1    2    0    0  0.26496679347E+03 -0.11656141825E+03  0.35025646183E+03  0.48557491175E+03  0.17120000000E+03 0.  0.
        998    1    1    2    0    0 -0.72921798638E-01  0.20872190008E-01  0.41803346171E+00  0.42486022660E+00  0.10000000000E-02 0.  1.
</event>
<event>
 5    1  0.5722211E-009  0.3883009E+03  0.7957747E-01  0.3415792E+00
         13   -1    0    0    0    0  0.00000000000E+00  0.00000000000E+00  0.14999999963E+04  0.15000000000E+04  0.10566000000E+00 0.  1.
        994   -1    0    0    0    0 -0.00000000000E+00 -0.00000000000E+00  0.11368683772E-12  0.17120000000E+03  0.17120000000E+03 0.  0.
         13    1    1    2    0    0  0.25640066470E+03  0.91249796314E+02  0.11825299237E+04  0.12134433888E+04  0.10566000000E+00 0.  1.
        994    1    1    2    0    0 -0.25913639873E+03 -0.92210887404E+02  0.30501959379E+03  0.44497293569E+03  0.17120000000E+03 0.  0.
        998    1    1    2    0    0  0.27357340328E+01  0.96109108992E+00  0.12450478793E+02  0.12783675526E+02  0.10000000000E-02 0. -1.
</event>
<event>
 5    1  0.5722211E-009  0.3883010E+03  0.7957747E-01  0.3415792E+00
         13   -1    0    0    0    0  0.00000000000E+00  0.00000000000E+00  0.14999999963E+04  0.15000000000E+04  0.10566000000E+00 0. -1.
        994   -1    0    0    0    0 -0.00000000000E+00 -0.00000000000E+00  0.11368683772E-12  0.17120000000E+03  0.17120000000E+03 0.  0.
         13    1    1    2    0    0 -0.94881513837E+02  0.17670330549E+03  0.11793196800E+04  0.11962530998E+04  0.10566000000E+00 0. -1.
        994    1    1    2    0    0  0.10586152751E+03 -0.19711073541E+03  0.18439409204E+03  0.33670450873E+03  0.17120000000E+03 0.  0.
        998    1    1    2    0    0 -0.10980013672E+02  0.20407429925E+02  0.13628622423E+03  0.13824239151E+03  0.10000000000E-02 0. -1.
</event>
<event>
 5    1  0.5722211E-009  0.3883010E+03  0.7957747E-01  0.3415792E+00
         13   -1    0    0    0    0  0.00000000000E+00  0.00000000000E+00  0.14999999963E+04  0.15000000000E+04  0.10566000000E+00 0. -1.
        994   -1    0    0    0    0 -0.00000000000E+00 -0.00000000000E+00  0.11368683772E-12  0.17120000000E+03  0.17120000000E+03 0.  0.
         13    1    1    2    0    0 -0.25777588890E+03 -0.10534962695E+03  0.11648160383E+04  0.11976407504E+04  0.10566000000E+00 0. -1.
        994    1    1    2    0    0  0.26032741980E+03  0.10639146625E+03  0.32357366719E+03  0.46162632907E+03  0.17120000000E+03 0.  0.
        998    1    1    2    0    0 -0.25515309022E+01 -0.10418392990E+01  0.11610290744E+02  0.11932920482E+02  0.10000000000E-02 0.  1.
</event>
<event>
 5    1  0.5722211E-009  0.3880503E+03  0.7957747E-01  0.3416838E+00
         13   -1    0    0    0    0  0.00000000000E+00  0.00000000000E+00  0.14999999963E+04  0.15000000000E+04  0.10566000000E+00 0.  1.
        994   -1    0    0    0    0 -0.00000000000E+00 -0.00000000000E+00  0.11368683772E-12  0.17120000000E+03  0.17120000000E+03 0.  0.
         13    1    1    2    0    0  0.58518149195E+02 -0.33295779096E+02  0.35817467016E+03  0.36444764809E+03  0.10566000000E+00 0.  1.
        994    1    1    2    0    0 -0.20215300589E+03  0.93519471361E+02  0.18281119798E+03  0.33517324389E+03  0.17120000000E+03 0.  0.
        998    1    1    2    0    0  0.14363485669E+03 -0.60223692266E+02  0.95901412814E+03  0.97157910802E+03  0.10000000000E-02 0.  1.
</event>
<event>
 5    1  0.5722211E-009  0.3883010E+03  0.7957747E-01  0.3415792E+00
         13   -1    0    0    0    0  0.00000000000E+00  0.00000000000E+00  0.14999999963E+04  0.15000000000E+04  0.10566000000E+00 0.  1.
        994   -1    0    0    0    0 -0.00000000000E+00 -0.00000000000E+00  0.11368683772E-12  0.17120000000E+03  0.17120000000E+03 0.  0.
         13    1    1    2    0    0  0.16282491370E+03  0.25779720673E+03  0.10797915904E+04  0.11220165962E+04  0.10566000000E+00 0.  1.
        994    1    1    2    0    0 -0.16370373604E+03 -0.25917880128E+03  0.41439515416E+03  0.54314394779E+03  0.17120000000E+03 0.  0.
        998    1    1    2    0    0  0.87882233936E+00  0.13815945539E+01  0.58132517598E+01  0.60394560383E+01  0.10000000000E-02 0.  1.
</event>
<event>
 5    1  0.5722211E-009  0.3883010E+03  0.7957747E-01  0.3415792E+00
         13   -1    0    0    0    0  0.00000000000E+00  0.00000000000E+00  0.14999999963E+04  0.15000000000E+04  0.10566000000E+00 0.  1.
        994   -1    0    0    0    0 -0.00000000000E+00 -0.00000000000E+00  0.11368683772E-12  0.17120000000E+03  0.17120000000E+03 0.  0.
         13    1    1    2    0    0 -0.20035979489E+03 -0.11843596470E+03  0.12976165005E+04  0.13183245877E+04  0.10566000000E+00 0.  1.
        994    1    1    2    0    0  0.20039270758E+03  0.11845571528E+03  0.20218082518E+03  0.35266913645E+03  0.17120000000E+03 0.  0.
        998    1    1    2    0    0 -0.32912691006E-01 -0.19750586002E-01  0.20267062200E+00  0.20627581510E+00  0.10000000000E-02 0.  1.
</event>
<event>
 5    1  0.5722211E-009  0.3788179E+03  0.7957747E-01  0.3456322E+00
         13   -1    0    0    0    0  0.00000000000E+00  0.00000000000E+00  0.14999999963E+04  0.15000000000E+04  0.10566000000E+00 0. -1.
        994   -1    0    0    0    0 -0.00000000000E+00 -0.00000000000E+00  0.11368683772E-12  0.17120000000E+03  0.17120000000E+03 0.  0.
         13    1    1    2    0    0  0.48419013293E+02 -0.24080677693E+02  0.19782576247E+03  0.20508369840E+03  0.10566000000E+00 0. -1.
        994    1    1    2    0    0 -0.13011359822E+03 -0.26200766960E+02  0.66324197195E+02  0.22654881983E+03  0.17120000000E+03 0.  0.
        998    1    1    2    0    0  0.81694584929E+02  0.50281444653E+02  0.12358500366E+04  0.12395674818E+04  0.10000000000E-02 0. -1.
</event>
<event>
 5    1  0.5722211E-009  0.3883008E+03  0.7957747E-01  0.3415793E+00
         13   -1    0    0    0    0  0.00000000000E+00  0.00000000000E+00  0.14999999963E+04  0.15000000000E+04  0.10566000000E+00 0.  1.
        994   -1    0    0    0    0 -0.00000000000E+00 -0.00000000000E+00  0.11368683772E-12  0.17120000000E+03  0.17120000000E+03 0.  0.
         13    1    1    2    0    0  0.16964527935E+03 -0.16468001796E+03  0.12899230126E+04  0.13114116130E+04  0.10566000000E+00 0.  1.
        994    1    1    2    0    0 -0.16967606787E+03  0.16471950459E+03  0.20980954057E+03  0.35951629520E+03  0.17120000000E+03 0.  0.
        998    1    1    2    0    0  0.30788521831E-01 -0.39486629102E-01  0.26744312395E+00  0.27209180712E+00  0.10000000000E-02 0. -1.
</event>
<event>
 5    1  0.5722211E-009  0.3883003E+03  0.7957747E-01  0.3415795E+00
         13   -1    0    0    0    0  0.00000000000E+00  0.00000000000E+00  0.14999999963E+04  0.15000000000E+04  0.10566000000E+00 0.  1.
        994   -1    0    0    0    0 -0.00000000000E+00 -0.00000000000E+00  0.11368683772E-12  0.17120000000E+03  0.17120000000E+03 0.  0.
         13    1    1    2    0    0  0.23087229407E+03 -0.83225603986E+02  0.12703300868E+04  0.12938187887E+04  0.10566000000E+00 0.  1.
        994    1    1    2    0    0 -0.23092763038E+03  0.83262129835E+02  0.22935328431E+03  0.37705771675E+03  0.17120000000E+03 0.  0.
        998    1    1    2    0    0  0.55336302980E-01 -0.36525849891E-01  0.31662513046E+00  0.32349453994E+00  0.10000000000E-02 0.  1.
</event>
<event>
 5    1  0.5722211E-009  0.3882326E+03  0.7957747E-01  0.3416077E+00
         13   -1    0    0    0    0  0.00000000000E+00  0.00000000000E+00  0.14999999963E+04  0.15000000000E+04  0.10566000000E+00 0.  1.
        994   -1    0    0    0    0 -0.00000000000E+00 -0.00000000000E+00  0.11368683772E-12  0.17120000000E+03  0.17120000000E+03 0.  0.
         13    1    1    2    0    0  0.29766719810E+03 -0.91893148668E+01  0.10908519773E+04  0.11307732982E+04  0.10566000000E+00 0.  1.
        994    1    1    2    0    0 -0.30107764128E+03  0.85882078630E+01  0.39298597498E+03  0.52389781439E+03  0.17120000000E+03 0.  0.
        998    1    1    2    0    0  0.34104431863E+01  0.60110700382E+00  0.16162043987E+02  0.16528887415E+02  0.10000000000E-02 0.  1.
</event>
<event>
 5    1  0.5722211E-009  0.3883010E+03  0.7957747E-01  0.3415792E+00
         13   -1    0    0    0    0  0.00000000000E+00  0.00000000000E+00  0.14999999963E+04  0.15000000000E+04  0.10566000000E+00 0.  1.
        994   -1    0    0    0    0 -0.00000000000E+00 -0.00000000000E+00  0.11368683772E-12  0.17120000000E+03  0.17120000000E+03 0.  0.
         13    1    1    2    0    0  0.13045800962E+03 -0.21978399979E+03  0.11900744173E+04  0.12172105113E+04  0.10566000000E+00 0.  1.
        994    1    1    2    0    0 -0.13449671923E+03  0.22659606451E+03  0.27311558765E+03  0.41633725290E+03  0.17120000000E+03 0.  0.
        998    1    1    2    0    0  0.40387096056E+01 -0.68120647239E+01  0.36809991310E+02  0.37652235821E+02  0.10000000000E-02 0. -1.
</event>
<event>
 5    1  0.5722211E-009  0.3883008E+03  0.7957747E-01  0.3415793E+00
         13   -1    0    0    0    0  0.00000000000E+00  0.00000000000E+00  0.14999999963E+04  0.15000000000E+04  0.10566000000E+00 0. -1.
        994   -1    0    0    0    0 -0.00000000000E+00 -0.00000000000E+00  0.11368683772E-12  0.17120000000E+03  0.17120000000E+03 0.  0.
         13    1    1    2    0    0 -0.11297653024E+03  0.23875623733E+03  0.12232333714E+04  0.12514264378E+04  0.10566000000E+00 0. -1.
        994    1    1    2    0    0  0.11309647962E+03 -0.23899101824E+03  0.27546977946E+03  0.41845018807E+03  0.17120000000E+03 0.  0.
        998    1    1    2    0    0 -0.11994938114E+00  0.23478090934E+00  0.12968454181E+01  0.13233740846E+01  0.10000000000E-02 0.  1.
</event>
<event>
 5    1  0.5722211E-009  0.3883010E+03  0.7957747E-01  0.3415792E+00
         13   -1    0    0    0    0  0.00000000000E+00  0.00000000000E+00  0.14999999963E+04  0.15000000000E+04  0.10566000000E+00 0.  1.
        994   -1    0    0    0    0 -0.00000000000E+00 -0.00000000000E+00  0.11368683772E-12  0.17120000000E+03  0.17120000000E+03 0.  0.
         13    1    1    2    0    0 -0.15067769303E+03 -0.22549038178E+03  0.12057830187E+04  0.12359054895E+04  0.10566000000E+00 0.  1.
        994    1    1    2    0    0  0.15069455528E+03  0.22551546491E+03  0.29407752874E+03  0.43515182042E+03  0.17120000000E+03 0.  0.
        998    1    1    2    0    0 -0.16862252470E-01 -0.25083131340E-01  0.13944880318E+00  0.14269011088E+00  0.10000000000E-02 0.  1.
</event>
<event>
 5    1  0.5722211E-009  0.3883009E+03  0.7957747E-01  0.3415792E+00
         13   -1    0    0    0    0  0.00000000000E+00  0.00000000000E+00  0.14999999963E+04  0.15000000000E+04  0.10566000000E+00 0.  1.
        994   -1    0    0    0    0 -0.00000000000E+00 -0.00000000000E+00  0.11368683772E-12  0.17120000000E+03  0.17120000000E+03 0.  0.
         13    1    1    2    0    0  0.68408499655E+02 -0.23078871451E+03  0.12363872900E+04  0.12596018005E+04  0.10566000000E+00 0.  1.
        994    1    1    2    0    0 -0.70149854560E+02  0.23665742245E+03  0.23242082584E+03  0.37981129259E+03  0.17120000000E+03 0.  0.
        998    1    1    2    0    0  0.17413549054E+01 -0.58687079409E+01  0.31191880400E+02  0.31786906954E+02  0.10000000000E-02 0. -1.
</event>
<event>
 5    1  0.5722211E-009  0.3882910E+03  0.7957747E-01  0.3415833E+00
         13   -1    0    0    0    0  0.00000000000E+00  0.00000000000E+00  0.14999999963E+04  0.15000000000E+04  0.10566000000E+00 0. -1.
        994   -1    0    0    0    0 -0.00000000000E+00 -0.00000000000E+00  0.11368683772E-12  0.17120000000E+03  0.17120000000E+03 0.  0.
         13    1    1    2    0    0  0.14792809866E+03  0.16529362684E+03  0.13136972538E+04  0.13322932077E+04  0.10566000000E+00 0. -1.
        994    1    1    2    0    0 -0.14841887441E+03 -0.16562766579E+03  0.18187135976E+03  0.33443581964E+03  0.17120000000E+03 0.  0.
        998    1    1    2    0    0  0.49077574306E+00  0.33403894803E+00  0.44313827033E+01  0.44709726584E+01  0.10000000000E-02 0. -1.
</event>
<event>
 5    1  0.5722211E-009  0.3883010E+03  0.7957747E-01  0.3415792E+00
         13   -1    0    0    0    0  0.00000000000E+00  0.00000000000E+00  0.14999999963E+04  0.15000000000E+04  0.10566000000E+00 0. -1.
        994   -1    0    0    0    0 -0.00000000000E+00 -0.00000000000E+00  0.11368683772E-12  0.17120000000E+03  0.17120000000E+03 0.  0.
         13    1    1    2    0    0  0.28218634298E+03 -0.11487073918E+03  0.10877507472E+04  0.11296132604E+04  0.10566000000E+00 0. -1.
        994    1    1    2    0    0 -0.28286404799E+03  0.11515085323E+03  0.40963258908E+03  0.53886926678E+03  0.17120000000E+03 0.  0.
        998    1    1    2    0    0  0.67770500691E+00 -0.28011404655E+00  0.26166599858E+01  0.27174728033E+01  0.10000000000E-02 0. -1.
</event>
<event>
 5    1  0.5722211E-009  0.3335785E+03  0.7957747E-01  0.3682081E+00
         13   -1    0    0    0    0  0.00000000000E+00  0.00000000000E+00  0.14999999963E+04  0.15000000000E+04  0.10566000000E+00 0.  1.
        994   -1    0    0    0    0 -0.00000000000E+00 -0.00000000000E+00  0.11368683772E-12  0.17120000000E+03  0.17120000000E+03 0.  0.
         13    1    1    2    0    0 -0.15377001859E+03  0.20513667307E+03  0.10089595527E+04  0.10410214519E+04  0.10566000000E+00 0.  1.
        994    1    1    2    0    0  0.72029144707E+02 -0.15190784215E+03  0.16846998213E+03  0.29318213635E+03  0.17120000000E+03 0.  0.
        998    1    1    2    0    0  0.81740873884E+02 -0.53228830920E+02  0.32257046146E+03  0.33699641172E+03  0.10000000000E-02 0.  1.
</event>
<event>
 5    1  0.5722211E-009  0.3883008E+03  0.7957747E-01  0.3415793E+00
         13   -1    0    0    0    0  0.00000000000E+00  0.00000000000E+00  0.14999999963E+04  0.15000000000E+04  0.10566000000E+00 0.  1.
        994   -1    0    0    0    0 -0.00000000000E+00 -0.00000000000E+00  0.11368683772E-12  0.17120000000E+03  0.17120000000E+03 0.  0.
         13    1    1    2    0    0  0.22624040260E+03 -0.27613383692E+02  0.13017569839E+04  0.13215591077E+04  0.10566000000E+00 0.  1.
        994    1    1    2    0    0 -0.22701044294E+03  0.27696268103E+02  0.19398282094E+03  0.34531087340E+03  0.17120000000E+03 0.  0.
        998    1    1    2    0    0  0.77004033371E+00 -0.82884411567E-01  0.42601914295E+01  0.43300189327E+01  0.10000000000E-02 0.  1.
</event>
<event>
 5    1  0.5722211E-009  0.3883010E+03  0.7957747E-01  0.3415792E+00
         13   -1    0    0    0    0  0.00000000000E+00  0.00000000000E+00  0.14999999963E+04  0.15000000000E+04  0.10566000000E+00 0. -1.
        994   -1    0    0    0    0 -0.00000000000E+00 -0.00000000000E+00  0.11368683772E-12  0.17120000000E+03  0.17120000000E+03 0.  0.
         13    1    1    2    0    0  0.21027928862E+03 -0.63391037279E+02  0.12432455654E+04  0.12624956831E+04  0.10566000000E+00 0. -1.
        994    1    1    2    0    0 -0.22040727533E+03  0.66427147510E+02  0.19697015895E+03  0.34799226494E+03  0.17120000000E+03 0.  0.
        998    1    1    2    0    0  0.10127986704E+02 -0.30361102309E+01  0.59784271923E+02  0.60712051937E+02  0.10000000000E-02 0.  1.
</event>
<event>
 5    1  0.5722211E-009  0.3883010E+03  0.7957747E-01  0.3415792E+00
         13   -1    0    0    0    0  0.00000000000E+00  0.00000000000E+00  0.14999999963E+04  0.15000000000E+04  0.10566000000E+00 0. -1.
        994   -1    0    0    0    0 -0.00000000000E+00 -0.00000000000E+00  0.11368683772E-12  0.17120000000E+03  0.17120000000E+03 0.  0.
         13    1    1    2    0    0  0.30933621702E+02  0.14996207596E+03  0.92551604234E+03  0.93809672688E+03  0.10566000000E+00 0. -1.
        994    1    1    2    0    0 -0.44185829394E+02 -0.21460139872E+03  0.17574258986E+03  0.32893927364E+03  0.17120000000E+03 0.  0.
        998    1    1    2    0    0  0.13252207692E+02  0.64639322757E+02  0.39874136408E+03  0.40416399949E+03  0.10000000000E-02 0.  1.
</event>
<event>
 5    1  0.5722211E-009  0.3883008E+03  0.7957747E-01  0.3415792E+00
         13   -1    0    0    0    0  0.00000000000E+00  0.00000000000E+00  0.14999999963E+04  0.15000000000E+04  0.10566000000E+00 0. -1.
        994   -1    0    0    0    0 -0.00000000000E+00 -0.00000000000E+00  0.11368683772E-12  0.17120000000E+03  0.17120000000E+03 0.  0.
         13    1    1    2    0    0 -0.20599203050E+02 -0.29379237011E+03  0.11293372006E+04  0.11671078818E+04  0.10566000000E+00 0. -1.
        994    1    1    2    0    0  0.20609736031E+02  0.29417668816E+03  0.36918491127E+03  0.50256504433E+03  0.17120000000E+03 0.  0.
        998    1    1    2    0    0 -0.10532980493E-01 -0.38431805425E+00  0.14778843671E+01  0.15270738400E+01  0.10000000000E-02 0. -1.
</event>
<event>
 5    1  0.5722211E-009  0.3883008E+03  0.7957747E-01  0.3415793E+00
         13   -1    0    0    0    0  0.00000000000E+00  0.00000000000E+00  0.14999999963E+04  0.15000000000E+04  0.10566000000E+00 0. -1.
        994   -1    0    0    0    0 -0.00000000000E+00 -0.00000000000E+00  0.11368683772E-12  0.17120000000E+03  0.17120000000E+03 0.  0.
         13    1    1    2    0    0  0.83880652461E+02  0.24738025256E+03  0.12324514734E+04  0.12598291942E+04  0.10566000000E+00 0. -1.
        994    1    1    2    0    0 -0.83902775129E+02 -0.24742497664E+03  0.26730026781E+03  0.41111758405E+03  0.17120000000E+03 0.  0.
        998    1    1    2    0    0  0.22122668478E-01  0.44724084625E-01  0.24825509279E+00  0.25322173545E+00  0.10000000000E-02 0.  1.
</event>
<event>
 5    1  0.5722211E-009  0.3880894E+03  0.7957747E-01  0.3416674E+00
         13   -1    0    0    0    0  0.00000000000E+00  0.00000000000E+00  0.14999999963E+04  0.15000000000E+04  0.10566000000E+00 0.  1.
        994   -1    0    0    0    0 -0.00000000000E+00 -0.00000000000E+00  0.11368683772E-12  0.17120000000E+03  0.17120000000E+03 0.  0.
         13    1    1    2    0    0  0.48076158276E+02 -0.22143336823E+03  0.12548546340E+04  0.12751487040E+04  0.10566000000E+00 0.  1.
        994    1    1    2    0    0 -0.48595172853E+02  0.23078698914E+03  0.20878488485E+03  0.35850340769E+03  0.17120000000E+03 0.  0.
        998    1    1    2    0    0  0.51901457744E+00 -0.93536209121E+01  0.36360477416E+02  0.37547888346E+02  0.10000000000E-02 0.  1.
</event>
<event>
 5    1  0.5722211E-009  0.3849924E+03  0.7957747E-01  0.3429704E+00
         13   -1    0    0    0    0  0.00000000000E+00  0.00000000000E+00  0.14999999963E+04  0.15000000000E+04  0.10566000000E+00 0. -1.
        994   -1    0    0    0    0 -0.00000000000E+00 -0.00000000000E+00  0.11368683772E-12  0.17120000000E+03  0.17120000000E+03 0.  0.
         13    1    1    2    0    0 -0.11511678793E+03 -0.99614188856E+02  0.83212476672E+03  0.84593528123E+03  0.10566000000E+00 0. -1.
        994    1    1    2    0    0  0.15568299043E+03  0.19676614634E+03  0.24723316392E+03  0.39164752928E+03  0.17120000000E+03 0.  0.
        998    1    1    2    0    0 -0.40566202495E+02 -0.97151957481E+02  0.42064206564E+03  0.43361718948E+03  0.10000000000E-02 0.  1.
</event>
<event>
 5    1  0.5722211E-009  0.3882936E+03  0.7957747E-01  0.3415823E+00
         13   -1    0    0    0    0  0.00000000000E+00  0.00000000000E+00  0.14999999963E+04  0.15000000000E+04  0.10566000000E+00 0. -1.
        994   -1    0    0    0    0 -0.00000000000E+00 -0.00000000000E+00  0.11368683772E-12  0.17120000000E+03  0.17120000000E+03 0.  0.
         13    1    1    2    0    0  0.31870689495E+03 -0.66523871500E+02  0.97576392177E+03  0.10286470496E+04  0.10566000000E+00 0. -1.
        994    1    1    2    0    0 -0.32035351140E+03  0.66772719957E+02  0.51851362651E+03  0.63659311124E+03  0.17120000000E+03 0.  0.
        998    1    1    2    0    0  0.16466164476E+01 -0.24884845688E+00  0.57224480014E+01  0.59598392099E+01  0.10000000000E-02 0.  1.
</event>
<event>
 5    1  0.5722211E-009  0.3883009E+03  0.7957747E-01  0.3415792E+00
         13   -1    0    0    0    0  0.00000000000E+00  0.00000000000E+00  0.14999999963E+04  0.15000000000E+04  0.10566000000E+00 0.  1.
        994   -1    0    0    0    0 -0.00000000000E+00 -0.00000000000E+00  0.11368683772E-12  0.17120000000E+03  0.17120000000E+03 0.  0.
         13    1    1    2    0    0 -0.20612250172E+03  0.13300339731E+03  0.12706286799E+04  0.12940918216E+04  0.10566000000E+00 0.  1.
        994    1    1    2    0    0  0.20616927323E+03 -0.13303655427E+03  0.22909727999E+03  0.37682820714E+03  0.17120000000E+03 0.  0.
        998    1    1    2    0    0 -0.46771516743E-01  0.33156962483E-01  0.27403637599E+00  0.27997123835E+00  0.10000000000E-02 0.  1.
</event>
<event>
 5    1  0.5722211E-009  0.3883009E+03  0.7957747E-01  0.3415792E+00
         13   -1    0    0    0    0  0.00000000000E+00  0.00000000000E+00  0.14999999963E+04  0.15000000000E+04  0.10566000000E+00 0. -1.
        994   -1    0    0    0    0 -0.00000000000E+00 -0.00000000000E+00  0.11368683772E-12  0.17120000000E+03  0.17120000000E+03 0.  0.
         13    1    1    2    0    0  0.25742619684E+03  0.17485129210E+02  0.98443377209E+03  0.10176855307E+04  0.10566000000E+00 0. -1.
        994    1    1    2    0    0 -0.29494220005E+03 -0.19930434152E+02  0.37177794338E+03  0.50489246654E+03  0.17120000000E+03 0.  0.
        998    1    1    2    0    0  0.37516003214E+02  0.24453049421E+01  0.14378828080E+03  0.14862200278E+03  0.10000000000E-02 0. -1.
</event>
<event>
 5    1  0.5722211E-009  0.3882846E+03  0.7957747E-01  0.3415860E+00
         13   -1    0    0    0    0  0.00000000000E+00  0.00000000000E+00  0.14999999963E+04  0.15000000000E+04  0.10566000000E+00 0.  1.
        994   -1    0    0    0    0 -0.00000000000E+00 -0.00000000000E+00  0.11368683772E-12  0.17120000000E+03  0.17120000000E+03 0.  0.
         13    1    1    2    0    0 -0.23524074839E+01  0.22802079906E+03  0.13007935751E+04  0.13206297569E+04  0.10566000000E+00 0.  1.
        994    1    1    2    0    0  0.21661457151E+01 -0.22903192540E+03  0.19469231824E+03  0.34594053509E+03  0.17120000000E+03 0.  0.
        998    1    1    2    0    0  0.18626176872E+00  0.10111263350E+01  0.45141029129E+01  0.46297079843E+01  0.10000000000E-02 0.  1.
</event>
<event>
 5    1  0.5722211E-009  0.3883007E+03  0.7957747E-01  0.3415793E+00
         13   -1    0    0    0    0  0.00000000000E+00  0.00000000000E+00  0.14999999963E+04  0.15000000000E+04  0.10566000000E+00 0.  1.
        994   -1    0    0    0    0 -0.00000000000E+00 -0.00000000000E+00  0.11368683772E-12  0.17120000000E+03  0.17120000000E+03 0.  0.
         13    1    1    2    0    0 -0.21544522249E+03  0.63342898162E+02  0.13037785554E+04  0.13229767569E+04  0.10566000000E+00 0.  1.
        994    1    1    2    0    0  0.21668351172E+03 -0.63695825229E+02  0.18843792655E+03  0.34033394565E+03  0.17120000000E+03 0.  0.
        998    1    1    2    0    0 -0.12382892301E+01  0.35292706674E+00  0.77835143327E+01  0.78892974401E+01  0.10000000000E-02 0. -1.
</event>
<event>
 5    1  0.5722211E-009  0.3883010E+03  0.7957747E-01  0.3415792E+00
         13   -1    0    0    0    0  0.00000000000E+00  0.00000000000E+00  0.14999999963E+04  0.15000000000E+04  0.10566000000E+00 0.  1.
        994   -1    0    0    0    0 -0.00000000000E+00 -0.00000000000E+00  0.11368683772E-12  0.17120000000E+03  0.17120000000E+03 0.  0.
         13    1    1    2    0    0 -0.29146491858E+03  0.15666875423E+03  0.95141885227E+03  0.10073205751E+04  0.10566000000E+00 0.  1.
        994    1    1    2    0    0  0.29202683776E+03 -0.15697003408E+03  0.54674429644E+03  0.66193506574E+03  0.17120000000E+03 0.  0.
        998    1    1    2    0    0 -0.56191917946E+00  0.30127984899E+00  0.18368475698E+01  0.19443592020E+01  0.10000000000E-02 0.  1.
</event>
<event>
 5    1  0.5722211E-009  0.3883010E+03  0.7957747E-01  0.3415792E+00
         13   -1    0    0    0    0  0.00000000000E+00  0.00000000000E+00  0.14999999963E+04  0.15000000000E+04  0.10566000000E+00 0.  1.
        994   -1    0    0    0    0 -0.00000000000E+00 -0.00000000000E+00  0.11368683772E-12  0.17120000000E+03  0.17120000000E+03 0.  0.
         13    1    1    2    0    0 -0.26032534445E+03 -0.12010328990E+03  0.11437437953E+04  0.11791284772E+04  0.10566000000E+00 0.  1.
        994    1    1    2    0    0  0.26221966932E+03  0.12097858301E+03  0.34792686421E+03  0.48348476228E+03  0.17120000000E+03 0.  0.
        998    1    1    2    0    0 -0.18943248648E+01 -0.87529310958E+00  0.83293367825E+01  0.85867605624E+01  0.10000000000E-02 0. -1.
</event>
<event>
 5    1  0.5722211E-009  0.3883010E+03  0.7957747E-01  0.3415792E+00
         13   -1    0    0    0    0  0.00000000000E+00  0.00000000000E+00  0.14999999963E+04  0.15000000000E+04  0.10566000000E+00 0. -1.
        994   -1    0    0    0    0 -0.00000000000E+00 -0.00000000000E+00  0.11368683772E-12  0.17120000000E+03  0.17120000000E+03 0.  0.
         13    1    1    2    0    0 -0.26396721403E+03  0.10061483955E+03  0.11679761752E+04  0.12016531916E+04  0.10566000000E+00 0. -1.
        994    1    1    2    0    0  0.26454223923E+03 -0.10083614081E+03  0.32945564778E+03  0.46690575868E+03  0.17120000000E+03 0.  0.
        998    1    1    2    0    0 -0.57502520328E+00  0.22130126054E+00  0.25681733343E+01  0.26410496980E+01  0.10000000000E-02 0. -1.
</event>
<event>
 5    1  0.5722211E-009  0.3883007E+03  0.7957747E-01  0.3415793E+00
         13   -1    0    0    0    0  0.00000000000E+00  0.00000000000E+00  0.14999999963E+04  0.15000000000E+04  0.10566000000E+00 0. -1.
        994   -1    0    0    0    0 -0.00000000000E+00 -0.00000000000E+00  0.11368683772E-12  0.17120000000E+03  0.17120000000E+03 0.  0.
         13    1    1    2    0    0 -0.31309235008E+03  0.42669891802E+02  0.38386257282E+03  0.49719012995E+03  0.10566000000E+00 0. -1.
        994    1    1    2    0    0  0.31514632681E+03 -0.42982386901E+02  0.11136717138E+04  0.11707855563E+04  0.17120000000E+03 0.  0.
        998    1    1    2    0    0 -0.20539767348E+01  0.31249509922E+00  0.24657096870E+01  0.32243137060E+01  0.10000000000E-02 0.  1.
</event>
<event>
 5    1  0.5722211E-009  0.3883006E+03  0.7957747E-01  0.3415794E+00
         13   -1    0    0    0    0  0.00000000000E+00  0.00000000000E+00  0.14999999963E+04  0.15000000000E+04  0.10566000000E+00 0. -1.
        994   -1    0    0    0    0 -0.00000000000E+00 -0.00000000000E+00  0.11368683772E-12  0.17120000000E+03  0.17120000000E+03 0.  0.
         13    1    1    2    0    0 -0.70401078432E+02  0.91983269783E+02  0.64405451310E+03  0.65438785194E+03  0.10566000000E+00 0. -1.
        994    1    1    2    0    0  0.14149820306E+03 -0.18586332107E+03  0.20383599649E+03  0.35415458355E+03  0.17120000000E+03 0.  0.
        998    1    1    2    0    0 -0.71097124627E+02  0.93880051285E+02  0.65210948669E+03  0.66265756450E+03  0.10000000000E-02 0. -1.
</event>
<event>
 5    1  0.5722211E-009  0.3883007E+03  0.7957747E-01  0.3415793E+00
         13   -1    0    0    0    0  0.00000000000E+00  0.00000000000E+00  0.14999999963E+04  0.15000000000E+04  0.10566000000E+00 0.  1.
        994   -1    0    0    0    0 -0.00000000000E+00 -0.00000000000E+00  0.11368683772E-12  0.17120000000E+03  0.17120000000E+03 0.  0.
         13    1    1    2    0    0 -0.21423789893E+03 -0.92748061051E+02  0.12392401481E+04  0.12610377615E+04  0.10566000000E+00 0.  1.
        994    1    1    2    0    0  0.22123023828E+03  0.95808056980E+02  0.21963580530E+03  0.36833589165E+03  0.17120000000E+03 0.  0.
        998    1    1    2    0    0 -0.69923393479E+01 -0.30599959295E+01  0.41124042881E+02  0.41826346823E+02  0.10000000000E-02 0. -1.
</event>
<event>
 5    1  0.5722211E-009  0.3882994E+03  0.7957747E-01  0.3415798E+00
         13   -1    0    0    0    0  0.00000000000E+00  0.00000000000E+00  0.14999999963E+04  0.15000000000E+04  0.10566000000E+00 0. -1.
        994   -1    0    0    0    0 -0.00000000000E+00 -0.00000000000E+00  0.11368683772E-12  0.17120000000E+03  0.17120000000E+03 0.  0.
         13    1    1    2    0    0  0.19030007166E+03  0.12077801933E+03  0.97308315686E+03  0.99884547782E+03  0.10566000000E+00 0. -1.
        994    1    1    2    0    0 -0.23304496539E+03 -0.14738094820E+03  0.30702208718E+03  0.44676962945E+03  0.17120000000E+03 0.  0.
        998    1    1    2    0    0  0.42744893725E+02  0.26602928870E+02  0.21989475224E+03  0.22558489273E+03  0.10000000000E-02 0. -1.
</event>
<event>
 5    1  0.5722211E-009  0.3869690E+03  0.7957747E-01  0.3421364E+00
         13   -1    0    0    0    0  0.00000000000E+00  0.00000000000E+00  0.14999999963E+04  0.15000000000E+04  0.10566000000E+00 0. -1.
        994   -1    0    0    0    0 -0.00000000000E+00 -0.00000000000E+00  0.11368683772E-12  0.17120000000E+03  0.17120000000E+03 0.  0.
         13    1    1    2    0    0  0.27092422125E+02  0.31555379413E+03  0.93440076229E+03  0.98661694292E+03  0.10566000000E+00 0. -1.
        994    1    1    2    0    0 -0.20119773897E+02 -0.32569857959E+03  0.51987911029E+03  0.63723472863E+03  0.17120000000E+03 0.  0.
        998    1    1    2    0    0 -0.69726482278E+01  0.10144785458E+02  0.45720123700E+02  0.47348328454E+02  0.10000000000E-02 0.  1.
</event>
<event>
 5    1  0.5722211E-009  0.3862218E+03  0.7957747E-01  0.3424507E+00
         13   -1    0    0    0    0  0.00000000000E+00  0.00000000000E+00  0.14999999963E+04  0.15000000000E+04  0.10566000000E+00 0. -1.
        994   -1    0    0    0    0 -0.00000000000E+00 -0.00000000000E+00  0.11368683772E-12  0.17120000000E+03  0.17120000000E+03 0.  0.
         13    1    1    2    0    0 -0.13757364873E+02 -0.22791035025E+00  0.45066705514E+02  0.47120442923E+02  0.10566000000E+00 0. -1.
        994    1    1    2    0    0  0.22902507185E+03  0.24353003368E+03  0.58214573947E+03  0.69279323238E+03  0.17120000000E+03 0.  0.
        998    1    1    2    0    0 -0.21526770698E+03 -0.24330212333E+03  0.87278755129E+03  0.93128632470E+03  0.10000000000E-02 0. -1.
</event>
<event>
 5    1  0.5722211E-009  0.3835474E+03  0.7957747E-01  0.3435856E+00
         13   -1    0    0    0    0  0.00000000000E+00  0.00000000000E+00  0.14999999963E+04  0.15000000000E+04  0.10566000000E+00 0.  1.
        994   -1    0    0    0    0 -0.00000000000E+00 -0.00000000000E+00  0.11368683772E-12  0.17120000000E+03  0.17120000000E+03 0.  0.
         13    1    1    2    0    0  0.35384386370E+02  0.15169749295E+03  0.83089631751E+03  0.84537144841E+03  0.10566000000E+00 0.  1.
        994    1    1    2    0    0 -0.11112342864E+03 -0.20929056487E+03  0.21766107315E+03  0.36446774850E+03  0.17120000000E+03 0.  0.
        998    1    1    2    0    0  0.75739042271E+02  0.57593071915E+02  0.45144260562E+03  0.46136080309E+03  0.10000000000E-02 0.  1.
</event>
<event>
 5    1  0.5722211E-009  0.3882342E+03  0.7957747E-01  0.3416070E+00
         13   -1    0    0    0    0  0.00000000000E+00  0.00000000000E+00  0.14999999963E+04  0.15000000000E+04  0.10566000000E+00 0. -1.
        994   -1    0    0    0    0 -0.00000000000E+00 -0.00000000000E+00  0.11368683772E-12  0.17120000000E+03  0.17120000000E+03 0.  0.
         13    1    1    2    0    0 -0.27760211772E+03  0.10001544444E+03  0.11211260631E+04  0.11593056911E+04  0.10566000000E+00 0. -1.
        994    1    1    2    0    0  0.27858255509E+03 -0.99939793107E+02  0.37324161411E+03  0.50617679199E+03  0.17120000000E+03 0.  0.
        998    1    1    2    0    0 -0.98043736241E+00 -0.75651329227E-01  0.56323190784E+01  0.57175169214E+01  0.10000000000E-02 0. -1.
</event>
<event>
 5    1  0.5722211E-009  0.3883009E+03  0.7957747E-01  0.3415792E+00
         13   -1    0    0    0    0  0.00000000000E+00  0.00000000000E+00  0.14999999963E+04  0.15000000000E+04  0.10566000000E+00 0.  1.
        994   -1    0    0    0    0 -0.00000000000E+00 -0.00000000000E+00  0.11368683772E-12  0.17120000000E+03  0.17120000000E+03 0.  0.
         13    1    1    2    0    0  0.66866443307E+02 -0.33139829461E+03  0.90105255323E+03  0.96238852121E+03  0.10566000000E+00 0.  1.
        994    1    1    2    0    0 -0.66874448452E+02  0.33144447633E+03  0.59882981309E+03  0.70868485083E+03  0.17120000000E+03 0.  0.
        998    1    1    2    0    0  0.80051454311E-02 -0.46181720002E-01  0.11762995352E+00  0.12662795734E+00  0.10000000000E-02 0. -1.
</event>
<event>
 5    1  0.5722211E-009  0.3883009E+03  0.7957747E-01  0.3415792E+00
         13   -1    0    0    0    0  0.00000000000E+00  0.00000000000E+00  0.14999999963E+04  0.15000000000E+04  0.10566000000E+00 0.  1.
        994   -1    0    0    0    0 -0.00000000000E+00 -0.00000000000E+00  0.11368683772E-12  0.17120000000E+03  0.17120000000E+03 0.  0.
         13    1    1    2    0    0  0.67638263065E+02  0.21075036870E+03  0.13172582569E+04  0.13357245147E+04  0.10566000000E+00 0.  1.
        994    1    1    2    0    0 -0.67743777008E+02 -0.21109540413E+03  0.18054945756E+03  0.33325371055E+03  0.17120000000E+03 0.  0.
        998    1    1    2    0    0  0.10551394262E+00  0.34503542606E+00  0.21922817938E+01  0.22217747638E+01  0.10000000000E-02 0.  1.
</event>
<event>
 5    1  0.5722211E-009  0.3883006E+03  0.7957747E-01  0.3415793E+00
         13   -1    0    0    0    0  0.00000000000E+00  0.00000000000E+00  0.14999999963E+04  0.15000000000E+04  0.10566000000E+00 0.  1.
        994   -1    0    0    0    0 -0.00000000000E+00 -0.00000000000E+00  0.11368683772E-12  0.17120000000E+03  0.17120000000E+03 0.  0.
         13    1    1    2    0    0 -0.32139198469E+03  0.39164545739E+01  0.10141946338E+04  0.10639073798E+04  0.10566000000E+00 0.  1.
        994    1    1    2    0    0  0.32149889955E+03 -0.39170889456E+01  0.48542077262E+03  0.60689344410E+03  0.17120000000E+03 0.  0.
        998    1    1    2    0    0 -0.10691485735E+00  0.63437169776E-03  0.38458987671E+00  0.39917610452E+00  0.10000000000E-02 0. -1.
</event>
<event>
 5    1  0.5722211E-009  0.3883005E+03  0.7957747E-01  0.3415794E+00
         13   -1    0    0    0    0  0.00000000000E+00  0.00000000000E+00  0.14999999963E+04  0.15000000000E+04  0.10566000000E+00 0.  1.
        994   -1    0    0    0    0 -0.00000000000E+00 -0.00000000000E+00  0.11368683772E-12  0.17120000000E+03  0.17120000000E+03 0.  0.
         13    1    1    2    0    0  0.28413143010E+02  0.48970215145E+02  0.25337760566E+03  0.25962590564E+03  0.10566000000E+00 0.  1.
        994    1    1    2    0    0 -0.13448669927E+03 -0.23321197511E+03  0.28845432252E+03  0.43010444522E+03  0.17120000000E+03 0.  0.
        998    1    1    2    0    0  0.10607355626E+03  0.18424175997E+03  0.95816806810E+03  0.98146964914E+03  0.10000000000E-02 0.  1.
</event>
<event>
 5    1  0.5722211E-009  0.3883010E+03  0.7957747E-01  0.3415792E+00
         13   -1    0    0    0    0  0.00000000000E+00  0.00000000000E+00  0.14999999963E+04  0.15000000000E+04  0.10566000000E+00 0. -1.
        994   -1    0    0    0    0 -0.00000000000E+00 -0.00000000000E+00  0.11368683772E-12  0.17120000000E+03  0.17120000000E+03 0.  0.
         13    1    1    2    0    0  0.44555351857E+02 -0.22271178519E+03  0.13022214859E+04  0.13218799219E+04  0.10566000000E+00 0. -1.
        994    1    1    2    0    0 -0.44739791382E+02  0.22358438759E+03  0.19265080813E+03  0.34411538934E+03  0.17120000000E+03 0.  0.
        998    1    1    2    0    0  0.18443952465E+00 -0.87260239709E+00  0.51277022850E+01  0.52046887136E+01  0.10000000000E-02 0. -1.
</event>
<event>
 5    1  0.5722211E-009  0.3883010E+03  0.7957747E-01  0.3415792E+00
         13   -1    0    0    0    0  0.00000000000E+00  0.00000000000E+00  0.14999999963E+04  0.15000000000E+04  0.10566000000E+00 0.  1.
        994   -1    0    0    0    0 -0.00000000000E+00 -0.00000000000E+00  0.11368683772E-12  0.17120000000E+03  0.17120000000E+03 0.  0.
         13    1    1    2    0    0  0.17857777379E+03 -0.11785676207E+03  0.12471924610E+04  0.12654126930E+04  0.10566000000E+00 0.  1.
        994    1    1    2    0    0 -0.18798685710E+03  0.12406362911E+03  0.18725072530E+03  0.33926850228E+03  0.17120000000E+03 0.  0.
        998    1    1    2    0    0  0.94090833176E+01 -0.62068670362E+01  0.65556809941E+02  0.66518804694E+02  0.10000000000E-02 0.  1.
</event>
<event>
 5    1  0.5722211E-009  0.3765867E+03  0.7957747E-01  0.3466157E+00
         13   -1    0    0    0    0  0.00000000000E+00  0.00000000000E+00  0.14999999963E+04  0.15000000000E+04  0.10566000000E+00 0.  1.
        994   -1    0    0    0    0 -0.00000000000E+00 -0.00000000000E+00  0.11368683772E-12  0.17120000000E+03  0.17120000000E+03 0.  0.
         13    1    1    2    0    0 -0.26666671886E+02 -0.62029151551E+02  0.15238346688E+03  0.16667171078E+03  0.10566000000E+00 0.  1.
        994    1    1    2    0    0  0.14272630340E+03  0.16753666931E+03  0.19254140175E+03  0.33885242309E+03  0.17120000000E+03 0.  0.
        998    1    1    2    0    0 -0.11605963151E+03 -0.10550751775E+03  0.11550751277E+04  0.11656758661E+04  0.10000000000E-02 0.  1.
</event>
<event>
 5    1  0.5722211E-009  0.3882971E+03  0.7957747E-01  0.3415808E+00
         13   -1    0    0    0    0  0.00000000000E+00  0.00000000000E+00  0.14999999963E+04  0.15000000000E+04  0.10566000000E+00 0.  1.
        994   -1    0    0    0    0 -0.00000000000E+00 -0.00000000000E+00  0.11368683772E-12  0.17120000000E+03  0.17120000000E+03 0.  0.
         13    1    1    2    0    0 -0.19701812756E+03  0.16313136638E+03  0.12425102614E+04  0.12685660196E+04  0.10566000000E+00 0.  1.
        994    1    1    2    0    0  0.19736991974E+03 -0.16342619889E+03  0.25469682003E+03  0.39980359908E+03  0.17120000000E+03 0.  0.
        998    1    1    2    0    0 -0.35179218289E+00  0.29483251177E+00  0.27929148619E+01  0.28303813128E+01  0.10000000000E-02 0. -1.
</event>
<event>
 5    1  0.5722211E-009  0.3882672E+03  0.7957747E-01  0.3415933E+00
         13   -1    0    0    0    0  0.00000000000E+00  0.00000000000E+00  0.14999999963E+04  0.15000000000E+04  0.10566000000E+00 0.  1.
        994   -1    0    0    0    0 -0.00000000000E+00 -0.00000000000E+00  0.11368683772E-12  0.17120000000E+03  0.17120000000E+03 0.  0.
         13    1    1    2    0    0  0.93374561132E+02 -0.28965901483E+03  0.10245254995E+04  0.10687720355E+04  0.10566000000E+00 0.  1.
        994    1    1    2    0    0 -0.97229015009E+02  0.29779000281E+03  0.44413659377E+03  0.56982376316E+03  0.17120000000E+03 0.  0.
        998    1    1    2    0    0  0.38544538772E+01 -0.81309879814E+01  0.31337902969E+02  0.32604201320E+02  0.10000000000E-02 0. -1.
</event>
<event>
 5    1  0.5722211E-009  0.3882926E+03  0.7957747E-01  0.3415827E+00
         13   -1    0    0    0    0  0.00000000000E+00  0.00000000000E+00  0.14999999963E+04  0.15000000000E+04  0.10566000000E+00 0. -1.
        994   -1    0    0    0    0 -0.00000000000E+00 -0.00000000000E+00  0.11368683772E-12  0.17120000000E+03  0.17120000000E+03 0.  0.
         13    1    1    2    0    0 -0.13148459974E+03 -0.21599796191E+03  0.12524495064E+04  0.12777218386E+04  0.10566000000E+00 0. -1.
        994    1    1    2    0    0  0.13162840709E+03  0.21611565092E+03  0.24693046591E+03  0.39283088870E+03  0.17120000000E+03 0.  0.
        998    1    1    2    0    0 -0.14380734799E+00 -0.11768900917E+00  0.62002393819E+00  0.64727269381E+00  0.10000000000E-02 0.  1.
</event>
<event>
 5    1  0.5722211E-009  0.3881618E+03  0.7957747E-01  0.3416372E+00
         13   -1    0    0    0    0  0.00000000000E+00  0.00000000000E+00  0.14999999963E+04  0.15000000000E+04  0.10566000000E+00 0. -1.
        994   -1    0    0    0    0 -0.00000000000E+00 -0.00000000000E+00  0.11368683772E-12  0.17120000000E+03  0.17120000000E+03 0.  0.
         13    1    1    2    0    0  0.29839067447E+03 -0.58357147360E+01  0.91194260654E+03  0.95953654384E+03  0.10566000000E+00 0. -1.
        994    1    1    2    0    0 -0.32486676659E+03  0.21016271031E+01  0.50495250411E+03  0.62436311893E+03  0.17120000000E+03 0.  0.
        998    1    1    2    0    0  0.26476092125E+02  0.37340876329E+01  0.83104885627E+02  0.87300337232E+02  0.10000000000E-02 0. -1.
</event>
<event>
 5    1  0.5722211E-009  0.3883001E+03  0.7957747E-01  0.3415796E+00
         13   -1    0    0    0    0  0.00000000000E+00  0.00000000000E+00  0.14999999963E+04  0.15000000000E+04  0.10566000000E+00 0. -1.
        994   -1    0    0    0    0 -0.00000000000E+00 -0.00000000000E+00  0.11368683772E-12  0.17120000000E+03  0.17120000000E+03 0.  0.
         13    1    1    2    0    0  0.21406104304E+03 -0.24386801961E+03  0.99750761788E+03  0.10489591031E+04  0.10566000000E+00 0. -1.
        994    1    1    2    0    0 -0.21409901329E+03  0.24390931117E+03  0.50236231448E+03  0.62209924817E+03  0.17120000000E+03 0.  0.
        998    1    1    2    0    0  0.37970241249E-01 -0.41291562701E-01  0.13006392400E+00  0.14164870878E+00  0.10000000000E-02 0.  1.
</event>
<event>
 5    1  0.5722211E-009  0.3882816E+03  0.7957747E-01  0.3415873E+00
         13   -1    0    0    0    0  0.00000000000E+00  0.00000000000E+00  0.14999999963E+04  0.15000000000E+04  0.10566000000E+00 0.  1.
        994   -1    0    0    0    0 -0.00000000000E+00 -0.00000000000E+00  0.11368683772E-12  0.17120000000E+03  0.17120000000E+03 0.  0.
         13    1    1    2    0    0 -0.17360337501E+03  0.17054031851E+03  0.12729195090E+04  0.12959730783E+04  0.10566000000E+00 0.  1.
        994    1    1    2    0    0  0.17381104648E+03 -0.17060612745E+03  0.22507326393E+03  0.37320791087E+03  0.17120000000E+03 0.  0.
        998    1    1    2    0    0 -0.20767147103E+00  0.65808941088E-01  0.20072233203E+01  0.20190108256E+01  0.10000000000E-02 0.  1.
</event>
<event>
 5    1  0.5722211E-009  0.3883010E+03  0.7957747E-01  0.3415792E+00
         13   -1    0    0    0    0  0.00000000000E+00  0.00000000000E+00  0.14999999963E+04  0.15000000000E+04  0.10566000000E+00 0.  1.
        994   -1    0    0    0    0 -0.00000000000E+00 -0.00000000000E+00  0.11368683772E-12  0.17120000000E+03  0.17120000000E+03 0.  0.
         13    1    1    2    0    0  0.81903027635E+02  0.18707861880E+03  0.11923168609E+04  0.12096801327E+04  0.10566000000E+00 0.  1.
        994    1    1    2    0    0 -0.90193193149E+02 -0.20610873705E+03  0.18675965892E+03  0.33882773467E+03  0.17120000000E+03 0.  0.
        998    1    1    2    0    0  0.82901655140E+01  0.19030118256E+02  0.12092347649E+03  0.12269213264E+03  0.10000000000E-02 0.  1.
</event>
<event>
 5    1  0.5722211E-009  0.3880917E+03  0.7957747E-01  0.3416665E+00
         13   -1    0    0    0    0  0.00000000000E+00  0.00000000000E+00  0.14999999963E+04  0.15000000000E+04  0.10566000000E+00 0.  1.
        994   -1    0    0    0    0 -0.00000000000E+00 -0.00000000000E+00  0.11368683772E-12  0.17120000000E+03  0.17120000000E+03 0.  0.
         13    1    1    2    0    0 -0.29401426488E+03  0.36751316072E+02  0.87194872814E+03  0.92091782633E+03  0.10566000000E+00 0.  1.
        994    1    1    2    0    0  0.32626416271E+03 -0.35455460381E+02  0.52555479201E+03  0.64282398286E+03  0.17120000000E+03 0.  0.
        998    1    1    2    0    0 -0.32249897830E+02 -0.12958556912E+01  0.10249647613E+03  0.10745819081E+03  0.10000000000E-02 0.  1.
</event>
<event>
 5    1  0.5722211E-009  0.3882976E+03  0.7957747E-01  0.3415806E+00
         13   -1    0    0    0    0  0.00000000000E+00  0.00000000000E+00  0.14999999963E+04  0.15000000000E+04  0.10566000000E+00 0.  1.
        994   -1    0    0    0    0 -0.00000000000E+00 -0.00000000000E+00  0.11368683772E-12  0.17120000000E+03  0.17120000000E+03 0.  0.
         13    1    1    2    0    0  0.12017595438E+03 -0.19934134446E+03  0.12491190863E+04  0.12706210035E+04  0.10566000000E+00 0.  1.
        994    1    1    2    0    0 -0.12374083511E+03  0.20513500546E+03  0.21636110560E+03  0.36539531025E+03  0.17120000000E+03 0.  0.
        998    1    1    2    0    0  0.35648807332E+01 -0.57936609959E+01  0.34519804356E+02  0.35183686222E+02  0.10000000000E-02 0.  1.
</event>
<event>
 5    1  0.5722211E-009  0.3875971E+03  0.7957747E-01  0.3418732E+00
         13   -1    0    0    0    0  0.00000000000E+00  0.00000000000E+00  0.14999999963E+04  0.15000000000E+04  0.10566000000E+00 0. -1.
        994   -1    0    0    0    0 -0.00000000000E+00 -0.00000000000E+00  0.11368683772E-12  0.17120000000E+03  0.17120000000E+03 0.  0.
         13    1    1    2    0    0  0.21391298827E+03 -0.23658782508E+03  0.10202792726E+04  0.10689725772E+04  0.10566000000E+00 0. -1.
        994    1    1    2    0    0 -0.21526222511E+03  0.23599131733E+03  0.47627301271E+03  0.59847735968E+03  0.17120000000E+03 0.  0.
        998    1    1    2    0    0  0.13492368309E+01  0.59650775133E+00  0.34477109206E+01  0.37500630815E+01  0.10000000000E-02 0. -1.
</event>
<event>
 5    1  0.5722211E-009  0.3882803E+03  0.7957747E-01  0.3415878E+00
         13   -1    0    0    0    0  0.00000000000E+00  0.00000000000E+00  0.14999999963E+04  0.15000000000E+04  0.10566000000E+00 0.  1.
        994   -1    0    0    0    0 -0.00000000000E+00 -0.00000000000E+00  0.11368683772E-12  0.17120000000E+03  0.17120000000E+03 0.  0.
         13    1    1    2    0    0  0.20867253553E+03  0.26106294754E+03  0.82286715186E+03  0.88814888979E+03  0.10566000000E+00 0.  1.
        994    1    1    2    0    0 -0.21390155173E+03 -0.26836529481E+03  0.65288789492E+03  0.75719604372E+03  0.17120000000E+03 0.  0.
        998    1    1    2    0    0  0.52290162006E+01  0.73023472657E+01  0.24244949502E+02  0.25855066494E+02  0.10000000000E-02 0. -1.
</event>
<event>
 5    1  0.5722211E-009  0.3883009E+03  0.7957747E-01  0.3415792E+00
         13   -1    0    0    0    0  0.00000000000E+00  0.00000000000E+00  0.14999999963E+04  0.15000000000E+04  0.10566000000E+00 0.  1.
        994   -1    0    0    0    0 -0.00000000000E+00 -0.00000000000E+00  0.11368683772E-12  0.17120000000E+03  0.17120000000E+03 0.  0.
         13    1    1    2    0    0  0.15257311143E+03 -0.37640403081E+01  0.39019301074E+03  0.41897890057E+03  0.10566000000E+00 0.  1.
        994    1    1    2    0    0 -0.34088364197E+03  0.84121030109E+01  0.62700083419E+03  0.73396996322E+03  0.17120000000E+03 0.  0.
        998    1    1    2    0    0  0.18831053053E+03 -0.46480627029E+01  0.48280615135E+03  0.51825113620E+03  0.10000000000E-02 0.  1.
</event>
<event>
 5    1  0.5722211E-009  0.3883003E+03  0.7957747E-01  0.3415795E+00
         13   -1    0    0    0    0  0.00000000000E+00  0.00000000000E+00  0.14999999963E+04  0.15000000000E+04  0.10566000000E+00 0.  1.
        994   -1    0    0    0    0 -0.00000000000E+00 -0.00000000000E+00  0.11368683772E-12  0.17120000000E+03  0.17120000000E+03 0.  0.
         13    1    1    2    0    0  0.17386070607E+03 -0.12349414521E+03  0.12446312189E+04  0.12627688748E+04  0.10566000000E+00 0.  1.
        994    1    1    2    0    0 -0.18334650856E+03  0.13051159238E+03  0.18690365728E+03  0.33895668610E+03  0.17120000000E+03 0.  0.
        998    1    1    2    0    0  0.94858024847E+01 -0.70174471746E+01  0.68465120106E+02  0.69474439082E+02  0.10000000000E-02 0. -1.
</event>
<event>
 5    1  0.5722211E-009  0.3883009E+03  0.7957747E-01  0.3415792E+00
         13   -1    0    0    0    0  0.00000000000E+00  0.00000000000E+00  0.14999999963E+04  0.15000000000E+04  0.10566000000E+00 0.  1.
        994   -1    0    0    0    0 -0.00000000000E+00 -0.00000000000E+00  0.11368683772E-12  0.17120000000E+03  0.17120000000E+03 0.  0.
         13    1    1    2    0    0 -0.44122462810E+02 -0.16671113989E+03  0.95744666498E+03  0.97285328972E+03  0.10566000000E+00 0.  1.
        994    1    1    2    0    0  0.59575241244E+02  0.22575017568E+03  0.20359634110E+03  0.35393962945E+03  0.17120000000E+03 0.  0.
        998    1    1    2    0    0 -0.15452778434E+02 -0.59039035798E+02  0.33895699021E+03  0.34440708082E+03  0.10000000000E-02 0.  1.
</event>
<event>
 5    1  0.5722211E-009  0.3883010E+03  0.7957747E-01  0.3415792E+00
         13   -1    0    0    0    0  0.00000000000E+00  0.00000000000E+00  0.14999999963E+04  0.15000000000E+04  0.10566000000E+00 0. -1.
        994   -1    0    0    0    0 -0.00000000000E+00 -0.00000000000E+00  0.11368683772E-12  0.17120000000E+03  0.17120000000E+03 0.  0.
         13    1    1    2    0    0 -0.23740962151E+03 -0.33097459944E+02  0.12823217015E+04  0.13045335287E+04  0.10566000000E+00 0. -1.
        994    1    1    2    0    0  0.23754427713E+03  0.33115364085E+02  0.21694683890E+03  0.36592250798E+03  0.17120000000E+03 0.  0.
        998    1    1    2    0    0 -0.13465562500E+00 -0.17904141034E-01  0.73145591532E+00  0.74396334027E+00  0.10000000000E-02 0. -1.
</event>
<event>
 5    1  0.5722211E-009  0.3883007E+03  0.7957747E-01  0.3415793E+00
         13   -1    0    0    0    0  0.00000000000E+00  0.00000000000E+00  0.14999999963E+04  0.15000000000E+04  0.10566000000E+00 0.  1.
        994   -1    0    0    0    0 -0.00000000000E+00 -0.00000000000E+00  0.11368683772E-12  0.17120000000E+03  0.17120000000E+03 0.  0.
         13    1    1    2    0    0  0.28371850135E+03  0.91081381382E+02  0.10852203269E+04  0.11253866780E+04  0.10566000000E+00 0.  1.
        994    1    1    2    0    0 -0.28803609412E+03 -0.92525085978E+02  0.39801785502E+03  0.52844426003E+03  0.17120000000E+03 0.  0.
        998    1    1    2    0    0  0.43175927701E+01  0.14437045958E+01  0.16761814369E+02  0.17369061927E+02  0.10000000000E-02 0.  1.
</event>
<event>
 5    1  0.5722211E-009  0.3882959E+03  0.7957747E-01  0.3415813E+00
         13   -1    0    0    0    0  0.00000000000E+00  0.00000000000E+00  0.14999999963E+04  0.15000000000E+04  0.10566000000E+00 0. -1.
        994   -1    0    0    0    0 -0.00000000000E+00 -0.00000000000E+00  0.11368683772E-12  0.17120000000E+03  0.17120000000E+03 0.  0.
         13    1    1    2    0    0  0.21053081728E+03  0.18585585568E+03  0.11754768087E+04  0.12085575547E+04  0.10566000000E+00 0. -1.
        994    1    1    2    0    0 -0.21071963545E+03 -0.18600906768E+03  0.32310383185E+03  0.46120241129E+03  0.17120000000E+03 0.  0.
        998    1    1    2    0    0  0.18881816790E+00  0.15321199837E+00  0.14193557253E+01  0.14400339898E+01  0.10000000000E-02 0.  1.
</event>
<event>
 5    1  0.5722211E-009  0.3883004E+03  0.7957747E-01  0.3415794E+00
         13   -1    0    0    0    0  0.00000000000E+00  0.00000000000E+00  0.14999999963E+04  0.15000000000E+04  0.10566000000E+00 0.  1.
        994   -1    0    0    0    0 -0.00000000000E+00 -0.00000000000E+00  0.11368683772E-12  0.17120000000E+03  0.17120000000E+03 0.  0.
         13    1    1    2    0    0 -0.10938085491E+03 -0.15943477923E+01  0.44226035507E+03  0.45558857119E+03  0.10566000000E+00 0.  1.
        994    1    1    2    0    0  0.28688638205E+03  0.31132907021E+01  0.34168663695E+03  0.47788354926E+03  0.17120000000E+03 0.  0.
        998    1    1    2    0    0 -0.17750552714E+03 -0.15189429099E+01  0.71605300426E+03  0.73772787955E+03  0.10000000000E-02 0.  1.
</event>
<event>
 5    1  0.5722211E-009  0.3883010E+03  0.7957747E-01  0.3415792E+00
         13   -1    0    0    0    0  0.00000000000E+00  0.00000000000E+00  0.14999999963E+04  0.15000000000E+04  0.10566000000E+00 0.  1.
        994   -1    0    0    0    0 -0.00000000000E+00 -0.00000000000E+00  0.11368683772E-12  0.17120000000E+03  0.17120000000E+03 0.  0.
         13    1    1    2    0    0 -0.14420277248E+03  0.17093929996E+03  0.12516601646E+04  0.12714825452E+04  0.10566000000E+00 0.  1.
        994    1    1    2    0    0  0.14967448430E+03 -0.17742829400E+03  0.20084555943E+03  0.35147066663E+03  0.17120000000E+03 0.  0.
        998    1    1    2    0    0 -0.54717118206E+01  0.64889940412E+01  0.47494272224E+02  0.48246788173E+02  0.10000000000E-02 0.  1.
</event>
<event>
 5    1  0.5722211E-009  0.3883006E+03  0.7957747E-01  0.3415794E+00
         13   -1    0    0    0    0  0.00000000000E+00  0.00000000000E+00  0.14999999963E+04  0.15000000000E+04  0.10566000000E+00 0.  1.
        994   -1    0    0    0    0 -0.00000000000E+00 -0.00000000000E+00  0.11368683772E-12  0.17120000000E+03  0.17120000000E+03 0.  0.
         13    1    1    2    0    0 -0.21569392073E+02 -0.25989559364E+03  0.12334392213E+04  0.12607074530E+04  0.10566000000E+00 0.  1.
        994    1    1    2    0    0  0.21579492075E+02  0.25995289336E+03  0.26623189516E+03  0.41015855867E+03  0.17120000000E+03 0.  0.
        998    1    1    2    0    0 -0.10100001597E-01 -0.57299721504E-01  0.32887981007E+00  0.33398831954E+00  0.10000000000E-02 0. -1.
</event>
<event>
 5    1  0.5722211E-009  0.3883004E+03  0.7957747E-01  0.3415794E+00
         13   -1    0    0    0    0  0.00000000000E+00  0.00000000000E+00  0.14999999963E+04  0.15000000000E+04  0.10566000000E+00 0. -1.
        994   -1    0    0    0    0 -0.00000000000E+00 -0.00000000000E+00  0.11368683772E-12  0.17120000000E+03  0.17120000000E+03 0.  0.
         13    1    1    2    0    0  0.54661955797E+02  0.18031333182E+03  0.11070143630E+04  0.11229343873E+04  0.10566000000E+00 0. -1.
        994    1    1    2    0    0 -0.65004443460E+02 -0.21453628294E+03  0.18521050641E+03  0.33743705495E+03  0.17120000000E+03 0.  0.
        998    1    1    2    0    0  0.10342487663E+02  0.34222951123E+02  0.20777512685E+03  0.21082855777E+03  0.10000000000E-02 0.  1.
</event>
<event>
 5    1  0.5722211E-009  0.3882961E+03  0.7957747E-01  0.3415812E+00
         13   -1    0    0    0    0  0.00000000000E+00  0.00000000000E+00  0.14999999963E+04  0.15000000000E+04  0.10566000000E+00 0.  1.
        994   -1    0    0    0    0 -0.00000000000E+00 -0.00000000000E+00  0.11368683772E-12  0.17120000000E+03  0.17120000000E+03 0.  0.
         13    1    1    2    0    0  0.23475528311E+03  0.24807844045E+03  0.85154484390E+03  0.91748656007E+03  0.10566000000E+00 0.  1.
        994    1    1    2    0    0 -0.23547960771E+03 -0.24891630162E+03  0.64605806497E+03  0.75107285544E+03  0.17120000000E+03 0.  0.
        998    1    1    2    0    0  0.72432459527E+00  0.83786116860E+00  0.23970874026E+01  0.26405844946E+01  0.10000000000E-02 0.  1.
</event>
<event>
 5    1  0.5722211E-009  0.3883010E+03  0.7957747E-01  0.3415792E+00
         13   -1    0    0    0    0  0.00000000000E+00  0.00000000000E+00  0.14999999963E+04  0.15000000000E+04  0.10566000000E+00 0.  1.
        994   -1    0    0    0    0 -0.00000000000E+00 -0.00000000000E+00  0.11368683772E-12  0.17120000000E+03  0.17120000000E+03 0.  0.
         13    1    1    2    0    0  0.47450947324E+02 -0.21701697867E+03  0.13165466721E+04  0.13351565872E+04  0.10566000000E+00 0.  1.
        994    1    1    2    0    0 -0.47503098861E+02  0.21728081703E+03  0.18188777487E+03  0.33445493044E+03  0.17120000000E+03 0.  0.
        998    1    1    2    0    0  0.52151536885E-01 -0.26383836185E+00  0.15655493061E+01  0.15884823240E+01  0.10000000000E-02 0. -1.
</event>
<event>
 5    1  0.5722211E-009  0.3879084E+03  0.7957747E-01  0.3417430E+00
         13   -1    0    0    0    0  0.00000000000E+00  0.00000000000E+00  0.14999999963E+04  0.15000000000E+04  0.10566000000E+00 0. -1.
        994   -1    0    0    0    0 -0.00000000000E+00 -0.00000000000E+00  0.11368683772E-12  0.17120000000E+03  0.17120000000E+03 0.  0.
         13    1    1    2    0    0  0.71500600465E+02  0.65318987625E+01  0.29794287492E+03  0.30647180857E+03  0.10566000000E+00 0. -1.
        994    1    1    2    0    0 -0.29874805034E+03 -0.45882138493E+02  0.39810097431E+03  0.52834590370E+03  0.17120000000E+03 0.  0.
        998    1    1    2    0    0  0.22724744988E+03  0.39350239730E+02  0.80395614705E+03  0.83638228773E+03  0.10000000000E-02 0.  1.
</event>
<event>
 5    1  0.5722211E-009  0.3882986E+03  0.7957747E-01  0.3415802E+00
         13   -1    0    0    0    0  0.00000000000E+00  0.00000000000E+00  0.14999999963E+04  0.15000000000E+04  0.10566000000E+00 0. -1.
        994   -1    0    0    0    0 -0.00000000000E+00 -0.00000000000E+00  0.11368683772E-12  0.17120000000E+03  0.17120000000E+03 0.  0.
         13    1    1    2    0    0  0.23993071974E+02  0.22874111226E+03  0.13031001617E+04  0.13232415526E+04  0.10566000000E+00 0. -1.
        994    1    1    2    0    0 -0.23980329930E+02 -0.22876919178E+03  0.19662008365E+03  0.34767700042E+03  0.17120000000E+03 0.  0.
        998    1    1    2    0    0 -0.12742043641E-01  0.28079516155E-01  0.27975090271E+00  0.28144695143E+00  0.10000000000E-02 0. -1.
</event>
<event>
 5    1  0.5722211E-009  0.3883002E+03  0.7957747E-01  0.3415795E+00
         13   -1    0    0    0    0  0.00000000000E+00  0.00000000000E+00  0.14999999963E+04  0.15000000000E+04  0.10566000000E+00 0.  1.
        994   -1    0    0    0    0 -0.00000000000E+00 -0.00000000000E+00  0.11368683772E-12  0.17120000000E+03  0.17120000000E+03 0.  0.
         13    1    1    2    0    0 -0.19143226385E+03  0.61949345916E+02  0.11328050497E+04  0.11505352341E+04  0.10566000000E+00 0.  1.
        994    1    1    2    0    0  0.22020280161E+03 -0.71080458197E+02  0.19935854557E+03  0.35013565238E+03  0.17120000000E+03 0.  0.
        998    1    1    2    0    0 -0.28770537764E+02  0.91311122810E+01  0.16783640101E+03  0.17052911353E+03  0.10000000000E-02 0. -1.
</event>
<event>
 5    1  0.5722211E-009  0.3882997E+03  0.7957747E-01  0.3415797E+00
         13   -1    0    0    0    0  0.00000000000E+00  0.00000000000E+00  0.14999999963E+04  0.15000000000E+04  0.10566000000E+00 0.  1.
        994   -1    0    0    0    0 -0.00000000000E+00 -0.00000000000E+00  0.11368683772E-12  0.17120000000E+03  0.17120000000E+03 0.  0.
         13    1    1    2    0    0 -0.27998141157E+03  0.10976372294E+03  0.68625290144E+03  0.74925344283E+03  0.10566000000E+00 0.  1.
        994    1    1    2    0    0  0.32261785516E+03 -0.12694131611E+03  0.70963075808E+03  0.80813466144E+03  0.17120000000E+03 0.  0.
        998    1    1    2    0    0 -0.42636443585E+02  0.17177593176E+02  0.10411633675E+03  0.11381189573E+03  0.10000000000E-02 0. -1.
</event>
<event>
 5    1  0.5722211E-009  0.3881551E+03  0.7957747E-01  0.3416400E+00
         13   -1    0    0    0    0  0.00000000000E+00  0.00000000000E+00  0.14999999963E+04  0.15000000000E+04  0.10566000000E+00 0. -1.
        994   -1    0    0    0    0 -0.00000000000E+00 -0.00000000000E+00  0.11368683772E-12  0.17120000000E+03  0.17120000000E+03 0.  0.
         13    1    1    2    0    0 -0.15144177938E+03 -0.55474379300E+02  0.87137147710E+03  0.88617169982E+03  0.10566000000E+00 0. -1.
        994    1    1    2    0    0  0.23076189074E+03  0.83079240508E+02  0.22908419478E+03  0.37675219803E+03  0.17120000000E+03 0.  0.
        998    1    1    2    0    0 -0.79320111360E+02 -0.27604861208E+02  0.39954432439E+03  0.40827610215E+03  0.10000000000E-02 0. -1.
</event>
<event>
 5    1  0.5722211E-009  0.3882833E+03  0.7957747E-01  0.3415866E+00
         13   -1    0    0    0    0  0.00000000000E+00  0.00000000000E+00  0.14999999963E+04  0.15000000000E+04  0.10566000000E+00 0.  1.
        994   -1    0    0    0    0 -0.00000000000E+00 -0.00000000000E+00  0.11368683772E-12  0.17120000000E+03  0.17120000000E+03 0.  0.
         13    1    1    2    0    0  0.78606558178E+02 -0.26440335433E+03  0.11512204528E+04  0.11838060090E+04  0.10566000000E+00 0.  1.
        994    1    1    2    0    0 -0.80945932713E+02  0.26987156135E+03  0.32523263842E+03  0.46310756066E+03  0.17120000000E+03 0.  0.
        998    1    1    2    0    0  0.23393745343E+01 -0.54682070149E+01  0.23546905015E+02  0.24286430326E+02  0.10000000000E-02 0.  1.
</event>
<event>
 5    1  0.5722211E-009  0.3883010E+03  0.7957747E-01  0.3415792E+00
         13   -1    0    0    0    0  0.00000000000E+00  0.00000000000E+00  0.14999999963E+04  0.15000000000E+04  0.10566000000E+00 0. -1.
        994   -1    0    0    0    0 -0.00000000000E+00 -0.00000000000E+00  0.11368683772E-12  0.17120000000E+03  0.17120000000E+03 0.  0.
         13    1    1    2    0    0  0.22295242793E+03 -0.72196050060E+02  0.12874458643E+04  0.13086011307E+04  0.10566000000E+00 0. -1.
        994    1    1    2    0    0 -0.22385696359E+03  0.72487744336E+02  0.20735136548E+03  0.35731000825E+03  0.17120000000E+03 0.  0.
        998    1    1    2    0    0  0.90453566303E+00 -0.29169427635E+00  0.52027665179E+01  0.52888610074E+01  0.10000000000E-02 0. -1.
</event>
<event>
 5    1  0.5722211E-009  0.3882864E+03  0.7957747E-01  0.3415853E+00
         13   -1    0    0    0    0  0.00000000000E+00  0.00000000000E+00  0.14999999963E+04  0.15000000000E+04  0.10566000000E+00 0. -1.
        994   -1    0    0    0    0 -0.00000000000E+00 -0.00000000000E+00  0.11368683772E-12  0.17120000000E+03  0.17120000000E+03 0.  0.
         13    1    1    2    0    0 -0.18184836427E+03 -0.15558387210E+03  0.12506121579E+04  0.12733051282E+04  0.10566000000E+00 0. -1.
        994    1    1    2    0    0  0.18474535717E+03  0.15876230305E+03  0.22515516465E+03  0.37328354375E+03  0.17120000000E+03 0.  0.
        998    1    1    2    0    0 -0.28969929033E+01 -0.31784309526E+01  0.24232673722E+02  0.24611328041E+02  0.10000000000E-02 0.  1.
</event>
<event>
 5    1  0.5722211E-009  0.3882824E+03  0.7957747E-01  0.3415869E+00
         13   -1    0    0    0    0  0.00000000000E+00  0.00000000000E+00  0.14999999963E+04  0.15000000000E+04  0.10566000000E+00 0. -1.
        994   -1    0    0    0    0 -0.00000000000E+00 -0.00000000000E+00  0.11368683772E-12  0.17120000000E+03  0.17120000000E+03 0.  0.
         13    1    1    2    0    0  0.21726677431E+03  0.71611466621E+02  0.12971362531E+04  0.13171543279E+04  0.10566000000E+00 0. -1.
        994    1    1    2    0    0 -0.21859814331E+03 -0.71754714895E+02  0.19674331924E+03  0.34778047822E+03  0.17120000000E+03 0.  0.
        998    1    1    2    0    0  0.13313690016E+01  0.14324827469E+00  0.61204239902E+01  0.62651938762E+01  0.10000000000E-02 0.  1.
</event>
<event>
 5    1  0.5722211E-009  0.3883010E+03  0.7957747E-01  0.3415792E+00
         13   -1    0    0    0    0  0.00000000000E+00  0.00000000000E+00  0.14999999963E+04  0.15000000000E+04  0.10566000000E+00 0. -1.
        994   -1    0    0    0    0 -0.00000000000E+00 -0.00000000000E+00  0.11368683772E-12  0.17120000000E+03  0.17120000000E+03 0.  0.
         13    1    1    2    0    0  0.18031235444E+03 -0.14174993532E+03  0.13046300952E+04  0.13246377942E+04  0.10566000000E+00 0. -1.
        994    1    1    2    0    0 -0.18031974359E+03  0.14175510950E+03  0.19531607323E+03  0.34650761819E+03  0.17120000000E+03 0.  0.
        998    1    1    2    0    0  0.73891523482E-02 -0.51741796400E-02  0.53827837163E-01  0.54587615455E-01  0.10000000000E-02 0.  0.
</event>
<event>
 5    1  0.8167345E-009  0.3883008E+03  0.7957747E-01  0.3415793E+00
         13   -1    0    0    0    0  0.00000000000E+00  0.00000000000E+00  0.14999999963E+04  0.15000000000E+04  0.10566000000E+00 0.  1.
        994   -1    0    0    0    0 -0.00000000000E+00 -0.00000000000E+00  0.11368683772E-12  0.17120000000E+03  0.17120000000E+03 0.  0.
         13    1    1    2    0    0  0.20491910482E+03  0.23537779805E+03  0.10613104282E+04  0.11062433654E+04  0.10566000000E+00 0.  1.
        994    1    1    2    0    0 -0.20493022250E+03 -0.23538880814E+03  0.43864795747E+03  0.56491216811E+03  0.17120000000E+03 0.  0.
        998    1    1    2    0    0  0.11117681073E-01  0.11010096255E-01  0.41610611075E-01  0.44466481826E-01  0.10000000000E-02 0.  1.
</event>
<event>
 5    1  0.5722211E-009  0.3883006E+03  0.7957747E-01  0.3415793E+00
         13   -1    0    0    0    0  0.00000000000E+00  0.00000000000E+00  0.14999999963E+04  0.15000000000E+04  0.10566000000E+00 0. -1.
        994   -1    0    0    0    0 -0.00000000000E+00 -0.00000000000E+00  0.11368683772E-12  0.17120000000E+03  0.17120000000E+03 0.  0.
         13    1    1    2    0    0 -0.23848828680E+03 -0.10092456112E+03  0.11987648817E+04  0.12264174178E+04  0.10566000000E+00 0. -1.
        994    1    1    2    0    0  0.24362436479E+03  0.10311691937E+03  0.27586176433E+03  0.41880196179E+03  0.17120000000E+03 0.  0.
        998    1    1    2    0    0 -0.51360779941E+01 -0.21923582512E+01  0.25373350251E+02  0.25980620390E+02  0.10000000000E-02 0.  1.
</event>
<event>
 5    1  0.5722211E-009  0.3855059E+03  0.7957747E-01  0.3427530E+00
         13   -1    0    0    0    0  0.00000000000E+00  0.00000000000E+00  0.14999999963E+04  0.15000000000E+04  0.10566000000E+00 0. -1.
        994   -1    0    0    0    0 -0.00000000000E+00 -0.00000000000E+00  0.11368683772E-12  0.17120000000E+03  0.17120000000E+03 0.  0.
         13    1    1    2    0    0 -0.14452954980E+03  0.57120500252E+02  0.93687339674E+03  0.94967537348E+03  0.10566000000E+00 0. -1.
        994    1    1    2    0    0  0.16827928114E+03 -0.93252758781E+02  0.13415762604E+03  0.29038199342E+03  0.17120000000E+03 0.  0.
        998    1    1    2    0    0 -0.23749731338E+02  0.36132258529E+02  0.42896897350E+03  0.43114263309E+03  0.10000000000E-02 0. -1.
</event>
<event>
 5    1  0.5722211E-009  0.3881746E+03  0.7957747E-01  0.3416319E+00
         13   -1    0    0    0    0  0.00000000000E+00  0.00000000000E+00  0.14999999963E+04  0.15000000000E+04  0.10566000000E+00 0.  1.
        994   -1    0    0    0    0 -0.00000000000E+00 -0.00000000000E+00  0.11368683772E-12  0.17120000000E+03  0.17120000000E+03 0.  0.
         13    1    1    2    0    0  0.17531222316E+03 -0.76731270431E+02  0.78673951781E+03  0.80967965487E+03  0.10566000000E+00 0.  1.
        994    1    1    2    0    0 -0.26408037121E+03  0.11783931272E+03  0.34957837172E+03  0.48491135690E+03  0.17120000000E+03 0.  0.
        998    1    1    2    0    0  0.88768148041E+02 -0.41108042289E+02  0.36368210675E+03  0.37660898823E+03  0.10000000000E-02 0. -1.
</event>
<event>
 5    1  0.5722211E-009  0.3883006E+03  0.7957747E-01  0.3415793E+00
         13   -1    0    0    0    0  0.00000000000E+00  0.00000000000E+00  0.14999999963E+04  0.15000000000E+04  0.10566000000E+00 0. -1.
        994   -1    0    0    0    0 -0.00000000000E+00 -0.00000000000E+00  0.11368683772E-12  0.17120000000E+03  0.17120000000E+03 0.  0.
         13    1    1    2    0    0  0.83141475314E+02  0.26076617332E+03  0.11987608545E+04  0.12296093280E+04  0.10566000000E+00 0. -1.
        994    1    1    2    0    0 -0.83147092232E+02 -0.26078823064E+03  0.30116463762E+03  0.44151276215E+03  0.17120000000E+03 0.  0.
        998    1    1    2    0    0  0.56169174910E-02  0.22057321574E-01  0.74504178186E-01  0.77909869493E-01  0.10000000000E-02 0.  1.
</event>
<event>
 5    1  0.5722211E-009  0.3877815E+03  0.7957747E-01  0.3417961E+00
         13   -1    0    0    0    0  0.00000000000E+00  0.00000000000E+00  0.14999999963E+04  0.15000000000E+04  0.10566000000E+00 0.  1.
        994   -1    0    0    0    0 -0.00000000000E+00 -0.00000000000E+00  0.11368683772E-12  0.17120000000E+03  0.17120000000E+03 0.  0.
         13    1    1    2    0    0  0.21419545595E+03  0.48346601843E+02  0.12567153832E+04  0.12757549345E+04  0.10566000000E+00 0.  1.
        994    1    1    2    0    0 -0.21885059812E+03 -0.53822727928E+02  0.18817828981E+03  0.33987200399E+03  0.17120000000E+03 0.  0.
        998    1    1    2    0    0  0.46551421669E+01  0.54761260849E+01  0.55106323272E+02  0.55573061559E+02  0.10000000000E-02 0. -1.
</event>
<event>
 5    1  0.5722211E-009  0.3883010E+03  0.7957747E-01  0.3415792E+00
         13   -1    0    0    0    0  0.00000000000E+00  0.00000000000E+00  0.14999999963E+04  0.15000000000E+04  0.10566000000E+00 0.  1.
        994   -1    0    0    0    0 -0.00000000000E+00 -0.00000000000E+00  0.11368683772E-12  0.17120000000E+03  0.17120000000E+03 0.  0.
         13    1    1    2    0    0 -0.19592201049E+03 -0.14497120169E+03  0.12715725070E+04  0.12947195585E+04  0.10566000000E+00 0.  1.
        994    1    1    2    0    0  0.19624357467E+03  0.14521056321E+03  0.22632358752E+03  0.37433868960E+03  0.17120000000E+03 0.  0.
        998    1    1    2    0    0 -0.32156417996E+00 -0.23936151557E+00  0.21039017519E+01  0.21417518621E+01  0.10000000000E-02 0. -1.
</event>
<event>
 5    1  0.5722211E-009  0.3883009E+03  0.7957747E-01  0.3415792E+00
         13   -1    0    0    0    0  0.00000000000E+00  0.00000000000E+00  0.14999999963E+04  0.15000000000E+04  0.10566000000E+00 0. -1.
        994   -1    0    0    0    0 -0.00000000000E+00 -0.00000000000E+00  0.11368683772E-12  0.17120000000E+03  0.17120000000E+03 0.  0.
         13    1    1    2    0    0  0.19133433662E+03  0.20010942191E+03  0.11801417313E+04  0.12121827941E+04  0.10566000000E+00 0. -1.
        994    1    1    2    0    0 -0.19226147991E+03 -0.20105858152E+03  0.31429826661E+03  0.45330108124E+03  0.17120000000E+03 0.  0.
        998    1    1    2    0    0  0.92714329009E+00  0.94915961571E+00  0.55599983560E+01  0.57161246815E+01  0.10000000000E-02 0. -1.
</event>
<event>
 5    1  0.5722211E-009  0.3875296E+03  0.7957747E-01  0.3419014E+00
         13   -1    0    0    0    0  0.00000000000E+00  0.00000000000E+00  0.14999999963E+04  0.15000000000E+04  0.10566000000E+00 0.  1.
        994   -1    0    0    0    0 -0.00000000000E+00 -0.00000000000E+00  0.11368683772E-12  0.17120000000E+03  0.17120000000E+03 0.  0.
         13    1    1    2    0    0  0.18476387202E+03 -0.73056155337E+02  0.11344535895E+04  0.11517203863E+04  0.10566000000E+00 0.  1.
        994    1    1    2    0    0 -0.20511809703E+03  0.76157366864E+02  0.17612383248E+03  0.32894136655E+03  0.17120000000E+03 0.  0.
        998    1    1    2    0    0  0.20354225011E+02 -0.31012115269E+01  0.18942257427E+03  0.19053824716E+03  0.10000000000E-02 0.  1.
</event>
<event>
 5    1  0.5722211E-009  0.3600773E+03  0.7957747E-01  0.3542775E+00
         13   -1    0    0    0    0  0.00000000000E+00  0.00000000000E+00  0.14999999963E+04  0.15000000000E+04  0.10566000000E+00 0.  1.
        994   -1    0    0    0    0 -0.00000000000E+00 -0.00000000000E+00  0.11368683772E-12  0.17120000000E+03  0.17120000000E+03 0.  0.
         13    1    1    2    0    0  0.20015300741E+03  0.39528555572E+02  0.11259714499E+04  0.11443056630E+04  0.10566000000E+00 0.  1.
        994    1    1    2    0    0 -0.25422829278E+03 -0.54102784730E+02  0.28676672173E+03  0.42320648490E+03  0.17120000000E+03 0.  0.
        998    1    1    2    0    0  0.54075285377E+02  0.14574229158E+02  0.87261824626E+02  0.10368785214E+03  0.10000000000E-02 0. -1.
</event>
<event>
 5    1  0.5722211E-009  0.3883010E+03  0.7957747E-01  0.3415792E+00
         13   -1    0    0    0    0  0.00000000000E+00  0.00000000000E+00  0.14999999963E+04  0.15000000000E+04  0.10566000000E+00 0.  1.
        994   -1    0    0    0    0 -0.00000000000E+00 -0.00000000000E+00  0.11368683772E-12  0.17120000000E+03  0.17120000000E+03 0.  0.
         13    1    1    2    0    0  0.23753269913E+03  0.27369675317E+02  0.12301986437E+04  0.12532196920E+04  0.10566000000E+00 0.  1.
        994    1    1    2    0    0 -0.24490811476E+03 -0.28203531829E+02  0.23171917117E+03  0.37918153722E+03  0.17120000000E+03 0.  0.
        998    1    1    2    0    0  0.73754156290E+01  0.83385651217E+00  0.38082181452E+02  0.38798770825E+02  0.10000000000E-02 0.  1.
</event>
<event>
 5    1  0.9587841E-009  0.3883009E+03  0.7957747E-01  0.3415792E+00
         13   -1    0    0    0    0  0.00000000000E+00  0.00000000000E+00  0.14999999963E+04  0.15000000000E+04  0.10566000000E+00 0.  1.
        994   -1    0    0    0    0 -0.00000000000E+00 -0.00000000000E+00  0.11368683772E-12  0.17120000000E+03  0.17120000000E+03 0.  0.
         13    1    1    2    0    0 -0.21835586817E+03  0.30027527122E+02  0.13218079573E+04  0.13400586647E+04  0.10566000000E+00 0.  1.
        994    1    1    2    0    0  0.21836072948E+03 -0.30027027946E+02  0.17816116093E+03  0.33111005701E+03  0.17120000000E+03 0.  0.
        998    1    1    2    0    0 -0.48613050418E-02 -0.49917605155E-03  0.30878004719E-01  0.31278309399E-01  0.10000000000E-02 0.  1.
</event>
<event>
 5    1  0.5722211E-009  0.3883009E+03  0.7957747E-01  0.3415792E+00
         13   -1    0    0    0    0  0.00000000000E+00  0.00000000000E+00  0.14999999963E+04  0.15000000000E+04  0.10566000000E+00 0.  1.
        994   -1    0    0    0    0 -0.00000000000E+00 -0.00000000000E+00  0.11368683772E-12  0.17120000000E+03  0.17120000000E+03 0.  0.
         13    1    1    2    0    0 -0.97067104483E+02 -0.23866109043E+03  0.12403437887E+04  0.12668203757E+04  0.10566000000E+00 0.  1.
        994    1    1    2    0    0  0.97141739190E+02  0.23886028491E+03  0.25867889408E+03  0.40337942863E+03  0.17120000000E+03 0.  0.
        998    1    1    2    0    0 -0.74634707014E-01 -0.19919448085E+00  0.97731349683E+00  0.10001957067E+01  0.10000000000E-02 0.  1.
</event>
<event>
 5    1  0.5722211E-009  0.3882969E+03  0.7957747E-01  0.3415809E+00
         13   -1    0    0    0    0  0.00000000000E+00  0.00000000000E+00  0.14999999963E+04  0.15000000000E+04  0.10566000000E+00 0. -1.
        994   -1    0    0    0    0 -0.00000000000E+00 -0.00000000000E+00  0.11368683772E-12  0.17120000000E+03  0.17120000000E+03 0.  0.
         13    1    1    2    0    0  0.13039781140E+02 -0.15353471384E+03  0.84797567709E+03  0.86186176638E+03  0.10566000000E+00 0. -1.
        994    1    1    2    0    0 -0.21030313330E+02  0.23511435207E+03  0.20892337545E+03  0.35871917908E+03  0.17120000000E+03 0.  0.
        998    1    1    2    0    0  0.79905321898E+01 -0.81579638232E+02  0.44310094373E+03  0.45061905454E+03  0.10000000000E-02 0. -1.
</event>
<event>
 5    1  0.5722211E-009  0.3883008E+03  0.7957747E-01  0.3415793E+00
         13   -1    0    0    0    0  0.00000000000E+00  0.00000000000E+00  0.14999999963E+04  0.15000000000E+04  0.10566000000E+00 0. -1.
        994   -1    0    0    0    0 -0.00000000000E+00 -0.00000000000E+00  0.11368683772E-12  0.17120000000E+03  0.17120000000E+03 0.  0.
         13    1    1    2    0    0  0.16665237379E+03 -0.17086911601E+02  0.76374792634E+03  0.78190528991E+03  0.10566000000E+00 0. -1.
        994    1    1    2    0    0 -0.26590280284E+03  0.27243546443E+02  0.28321415194E+03  0.42540123089E+03  0.17120000000E+03 0.  0.
        998    1    1    2    0    0  0.99250429057E+02 -0.10156634842E+02  0.45303791800E+03  0.46389347920E+03  0.10000000000E-02 0. -1.
</event>
<event>
 5    1  0.5722211E-009  0.3873705E+03  0.7957747E-01  0.3419681E+00
         13   -1    0    0    0    0  0.00000000000E+00  0.00000000000E+00  0.14999999963E+04  0.15000000000E+04  0.10566000000E+00 0. -1.
        994   -1    0    0    0    0 -0.00000000000E+00 -0.00000000000E+00  0.11368683772E-12  0.17120000000E+03  0.17120000000E+03 0.  0.
         13    1    1    2    0    0  0.76056240118E+02 -0.13909105563E+03  0.45619722429E+03  0.48295630447E+03  0.10566000000E+00 0. -1.
        994    1    1    2    0    0 -0.13087541733E+03  0.29258626865E+03  0.48419994073E+03  0.60538758004E+03  0.17120000000E+03 0.  0.
        998    1    1    2    0    0  0.54819177209E+02 -0.15349521302E+03  0.55960283126E+03  0.58285611549E+03  0.10000000000E-02 0.  1.
</event>
<event>
 5    1  0.5722211E-009  0.3883005E+03  0.7957747E-01  0.3415794E+00
         13   -1    0    0    0    0  0.00000000000E+00  0.00000000000E+00  0.14999999963E+04  0.15000000000E+04  0.10566000000E+00 0.  1.
        994   -1    0    0    0    0 -0.00000000000E+00 -0.00000000000E+00  0.11368683772E-12  0.17120000000E+03  0.17120000000E+03 0.  0.
         13    1    1    2    0    0 -0.28847307780E+03  0.21153261531E+02  0.11436685176E+04  0.11796787132E+04  0.10566000000E+00 0.  1.
        994    1    1    2    0    0  0.28938202560E+03 -0.21192003103E+02  0.35257932335E+03  0.48766041155E+03  0.17120000000E+03 0.  0.
        998    1    1    2    0    0 -0.90894780204E+00  0.38741572440E-01  0.37521553009E+01  0.38608752141E+01  0.10000000000E-02 0.  1.
</event>
<event>
 5    1  0.5722211E-009  0.3882469E+03  0.7957747E-01  0.3416017E+00
         13   -1    0    0    0    0  0.00000000000E+00  0.00000000000E+00  0.14999999963E+04  0.15000000000E+04  0.10566000000E+00 0.  1.
        994   -1    0    0    0    0 -0.00000000000E+00 -0.00000000000E+00  0.11368683772E-12  0.17120000000E+03  0.17120000000E+03 0.  0.
         13    1    1    2    0    0 -0.13376974015E+03  0.17830274469E+03  0.12572123190E+04  0.12768198927E+04  0.10566000000E+00 0.  1.
        994    1    1    2    0    0  0.13804114176E+03 -0.18601911661E+03  0.19993867774E+03  0.35063283278E+03  0.17120000000E+03 0.  0.
        998    1    1    2    0    0 -0.42714016103E+01  0.77163719201E+01  0.42848999502E+02  0.43747274506E+02  0.10000000000E-02 0.  1.
</event>
<event>
 5    1  0.5722211E-009  0.3883006E+03  0.7957747E-01  0.3415794E+00
         13   -1    0    0    0    0  0.00000000000E+00  0.00000000000E+00  0.14999999963E+04  0.15000000000E+04  0.10566000000E+00 0.  1.
        994   -1    0    0    0    0 -0.00000000000E+00 -0.00000000000E+00  0.11368683772E-12  0.17120000000E+03  0.17120000000E+03 0.  0.
         13    1    1    2    0    0  0.17261058763E+03  0.25500125035E+03  0.10785125409E+04  0.11216101661E+04  0.10566000000E+00 0.  1.
        994    1    1    2    0    0 -0.17270691520E+03 -0.25512228534E+03  0.42089857010E+03  0.54898096993E+03  0.17120000000E+03 0.  0.
        998    1    1    2    0    0  0.96327569665E-01  0.12103498748E+00  0.58888530081E+00  0.60886399662E+00  0.10000000000E-02 0. -1.
</event>
<event>
 5    1  0.5722211E-009  0.3850435E+03  0.7957747E-01  0.3429488E+00
         13   -1    0    0    0    0  0.00000000000E+00  0.00000000000E+00  0.14999999963E+04  0.15000000000E+04  0.10566000000E+00 0. -1.
        994   -1    0    0    0    0 -0.00000000000E+00 -0.00000000000E+00  0.11368683772E-12  0.17120000000E+03  0.17120000000E+03 0.  0.
         13    1    1    2    0    0  0.45907032472E+01  0.11449669897E+02  0.69062878531E+02  0.70155982297E+02  0.10566000000E+00 0. -1.
        994    1    1    2    0    0 -0.12604892579E+03  0.69354237369E+02  0.72918513416E+02  0.23521243915E+03  0.17120000000E+03 0.  0.
        998    1    1    2    0    0  0.12145822254E+03 -0.80803907266E+02  0.13580186043E+04  0.13658315785E+04  0.10000000000E-02 0. -1.
</event>
<event>
 5    1  0.5722211E-009  0.3882993E+03  0.7957747E-01  0.3415799E+00
         13   -1    0    0    0    0  0.00000000000E+00  0.00000000000E+00  0.14999999963E+04  0.15000000000E+04  0.10566000000E+00 0.  1.
        994   -1    0    0    0    0 -0.00000000000E+00 -0.00000000000E+00  0.11368683772E-12  0.17120000000E+03  0.17120000000E+03 0.  0.
         13    1    1    2    0    0 -0.22951992112E+03 -0.17413836356E+02  0.86220397740E+03  0.89240032816E+03  0.10566000000E+00 0.  1.
        994    1    1    2    0    0  0.29718979949E+03  0.22189103654E+02  0.38063621691E+03  0.51284257123E+03  0.17120000000E+03 0.  0.
        998    1    1    2    0    0 -0.67669878370E+02 -0.47752672982E+01  0.25715980197E+03  0.26595710061E+03  0.10000000000E-02 0. -1.
</event>
<event>
 5    1  0.5722211E-009  0.3883009E+03  0.7957747E-01  0.3415792E+00
         13   -1    0    0    0    0  0.00000000000E+00  0.00000000000E+00  0.14999999963E+04  0.15000000000E+04  0.10566000000E+00 0.  1.
        994   -1    0    0    0    0 -0.00000000000E+00 -0.00000000000E+00  0.11368683772E-12  0.17120000000E+03  0.17120000000E+03 0.  0.
         13    1    1    2    0    0  0.12037808577E+03  0.19157141535E+03  0.13097720430E+04  0.13291701570E+04  0.10566000000E+00 0.  1.
        994    1    1    2    0    0 -0.12045519075E+03 -0.19167846679E+03  0.18946892485E+03  0.34125943370E+03  0.17120000000E+03 0.  0.
        998    1    1    2    0    0  0.77104977866E-01  0.10705143476E+00  0.75902847333E+00  0.77040924879E+00  0.10000000000E-02 0. -1.
</event>
<event>
 5    1  0.5722211E-009  0.3882585E+03  0.7957747E-01  0.3415969E+00
         13   -1    0    0    0    0  0.00000000000E+00  0.00000000000E+00  0.14999999963E+04  0.15000000000E+04  0.10566000000E+00 0.  1.
        994   -1    0    0    0    0 -0.00000000000E+00 -0.00000000000E+00  0.11368683772E-12  0.17120000000E+03  0.17120000000E+03 0.  0.
         13    1    1    2    0    0  0.27923036162E+02  0.26914802351E+03  0.84918887046E+03  0.89125871855E+03  0.10566000000E+00 0.  1.
        994    1    1    2    0    0 -0.33537167630E+02 -0.31904557282E+03  0.48173603886E+03  0.60356761865E+03  0.17120000000E+03 0.  0.
        998    1    1    2    0    0  0.56141314674E+01  0.49897549314E+02  0.16907508696E+03  0.17637366280E+03  0.10000000000E-02 0.  1.
</event>
<event>
 5    1  0.5722211E-009  0.3882920E+03  0.7957747E-01  0.3415830E+00
         13   -1    0    0    0    0  0.00000000000E+00  0.00000000000E+00  0.14999999963E+04  0.15000000000E+04  0.10566000000E+00 0.  1.
        994   -1    0    0    0    0 -0.00000000000E+00 -0.00000000000E+00  0.11368683772E-12  0.17120000000E+03  0.17120000000E+03 0.  0.
         13    1    1    2    0    0  0.43681923475E+02 -0.24530363496E+03  0.12544998179E+04  0.12790042173E+04  0.10566000000E+00 0.  1.
        994    1    1    2    0    0 -0.44023790014E+02  0.24643833651E+03  0.24052370056E+03  0.38708014457E+03  0.17120000000E+03 0.  0.
        998    1    1    2    0    0  0.34186653951E+00 -0.11347015506E+01  0.49764778481E+01  0.51156380944E+01  0.10000000000E-02 0. -1.
</event>
<event>
 5    1  0.5722211E-009  0.3882982E+03  0.7957747E-01  0.3415803E+00
         13   -1    0    0    0    0  0.00000000000E+00  0.00000000000E+00  0.14999999963E+04  0.15000000000E+04  0.10566000000E+00 0.  1.
        994   -1    0    0    0    0 -0.00000000000E+00 -0.00000000000E+00  0.11368683772E-12  0.17120000000E+03  0.17120000000E+03 0.  0.
         13    1    1    2    0    0 -0.22582088391E+03  0.92511570975E+02  0.12672292016E+04  0.12905128140E+04  0.10566000000E+00 0.  1.
        994    1    1    2    0    0  0.22658678219E+03 -0.92781755877E+02  0.22793662925E+03  0.37578527252E+03  0.17120000000E+03 0.  0.
        998    1    1    2    0    0 -0.76589828236E+00  0.27018490174E+00  0.48341653843E+01  0.49019135062E+01  0.10000000000E-02 0. -1.
</event>
<event>
 5    1  0.5722211E-009  0.3883008E+03  0.7957747E-01  0.3415793E+00
         13   -1    0    0    0    0  0.00000000000E+00  0.00000000000E+00  0.14999999963E+04  0.15000000000E+04  0.10566000000E+00 0.  1.
        994   -1    0    0    0    0 -0.00000000000E+00 -0.00000000000E+00  0.11368683772E-12  0.17120000000E+03  0.17120000000E+03 0.  0.
         13    1    1    2    0    0  0.12622114116E+03  0.19768260056E+03  0.12854855399E+04  0.13067070336E+04  0.10566000000E+00 0.  1.
        994    1    1    2    0    0 -0.12686845509E+03 -0.19866895612E+03  0.20822803110E+03  0.35809679133E+03  0.17120000000E+03 0.  0.
        998    1    1    2    0    0  0.64731392996E+00  0.98635555393E+00  0.62864252591E+01  0.63961751180E+01  0.10000000000E-02 0. -1.
</event>
<event>
 5    1  0.5722211E-009  0.3883009E+03  0.7957747E-01  0.3415792E+00
         13   -1    0    0    0    0  0.00000000000E+00  0.00000000000E+00  0.14999999963E+04  0.15000000000E+04  0.10566000000E+00 0.  1.
        994   -1    0    0    0    0 -0.00000000000E+00 -0.00000000000E+00  0.11368683772E-12  0.17120000000E+03  0.17120000000E+03 0.  0.
         13    1    1    2    0    0  0.80182701547E+01  0.34576982510E+03  0.63917785467E+03  0.72675264408E+03  0.10566000000E+00 0.  1.
        994    1    1    2    0    0 -0.80396610075E+01 -0.34714476576E+03  0.85830740123E+03  0.94158120179E+03  0.17120000000E+03 0.  0.
        998    1    1    2    0    0  0.21390852808E-01  0.13749406659E+01  0.25147403716E+01  0.28661541375E+01  0.10000000000E-02 0.  1.
</event>
<event>
 5    1  0.5722211E-009  0.3872700E+03  0.7957747E-01  0.3420101E+00
         13   -1    0    0    0    0  0.00000000000E+00  0.00000000000E+00  0.14999999963E+04  0.15000000000E+04  0.10566000000E+00 0.  1.
        994   -1    0    0    0    0 -0.00000000000E+00 -0.00000000000E+00  0.11368683772E-12  0.17120000000E+03  0.17120000000E+03 0.  0.
         13    1    1    2    0    0 -0.20649879502E+03 -0.34908043464E+02  0.11309654134E+04  0.11501926366E+04  0.10566000000E+00 0.  1.
        994    1    1    2    0    0  0.22327812270E+03  0.41631604563E+02  0.19225072265E+03  0.34330174910E+03  0.17120000000E+03 0.  0.
        998    1    1    2    0    0 -0.16779327684E+02 -0.67235610988E+01  0.17678386027E+03  0.17770561433E+03  0.10000000000E-02 0. -1.
</event>
<event>
 5    1  0.5722211E-009  0.3882962E+03  0.7957747E-01  0.3415812E+00
         13   -1    0    0    0    0  0.00000000000E+00  0.00000000000E+00  0.14999999963E+04  0.15000000000E+04  0.10566000000E+00 0.  1.
        994   -1    0    0    0    0 -0.00000000000E+00 -0.00000000000E+00  0.11368683772E-12  0.17120000000E+03  0.17120000000E+03 0.  0.
         13    1    1    2    0    0  0.17406359913E+03 -0.18577243238E+03  0.12410080815E+04  0.12668506632E+04  0.10566000000E+00 0.  1.
        994    1    1    2    0    0 -0.17499419667E+03  0.18658631838E+03  0.25361636229E+03  0.39883345182E+03  0.17120000000E+03 0.  0.
        998    1    1    2    0    0  0.93059753687E+00 -0.81388599413E+00  0.53755524668E+01  0.55158850161E+01  0.10000000000E-02 0. -1.
</event>
<event>
 5    1  0.5722211E-009  0.3882987E+03  0.7957747E-01  0.3415802E+00
         13   -1    0    0    0    0  0.00000000000E+00  0.00000000000E+00  0.14999999963E+04  0.15000000000E+04  0.10566000000E+00 0. -1.
        994   -1    0    0    0    0 -0.00000000000E+00 -0.00000000000E+00  0.11368683772E-12  0.17120000000E+03  0.17120000000E+03 0.  0.
         13    1    1    2    0    0 -0.24904151309E+03  0.17585244071E+03  0.10135697995E+04  0.10584278463E+04  0.10566000000E+00 0. -1.
        994    1    1    2    0    0  0.25759031478E+03 -0.18149620465E+03  0.45275075061E+03  0.57756932462E+03  0.17120000000E+03 0.  0.
        998    1    1    2    0    0 -0.85488016874E+01  0.56437639313E+01  0.33679446178E+02  0.35202829112E+02  0.10000000000E-02 0.  1.
</event>
<event>
 5    1  0.5722211E-009  0.3883009E+03  0.7957747E-01  0.3415792E+00
         13   -1    0    0    0    0  0.00000000000E+00  0.00000000000E+00  0.14999999963E+04  0.15000000000E+04  0.10566000000E+00 0. -1.
        994   -1    0    0    0    0 -0.00000000000E+00 -0.00000000000E+00  0.11368683772E-12  0.17120000000E+03  0.17120000000E+03 0.  0.
         13    1    1    2    0    0  0.12393503896E+03 -0.18342052947E+03  0.13199116775E+04  0.13383459314E+04  0.10566000000E+00 0. -1.
        994    1    1    2    0    0 -0.12394734427E+03  0.18343463093E+03  0.17996244967E+03  0.33272681176E+03  0.17120000000E+03 0.  0.
        998    1    1    2    0    0  0.12305312516E-01 -0.14101459949E-01  0.12586914581E+00  0.12725688097E+00  0.10000000000E-02 0. -1.
</event>
<event>
 5    1  0.5722211E-009  0.3882439E+03  0.7957747E-01  0.3416030E+00
         13   -1    0    0    0    0  0.00000000000E+00  0.00000000000E+00  0.14999999963E+04  0.15000000000E+04  0.10566000000E+00 0. -1.
        994   -1    0    0    0    0 -0.00000000000E+00 -0.00000000000E+00  0.11368683772E-12  0.17120000000E+03  0.17120000000E+03 0.  0.
         13    1    1    2    0    0 -0.79241939178E+02 -0.21770427409E+03  0.11991614791E+04  0.12213364401E+04  0.10566000000E+00 0. -1.
        994    1    1    2    0    0  0.85719620164E+02  0.23128085222E+03  0.23209842804E+03  0.37949678020E+03  0.17120000000E+03 0.  0.
        998    1    1    2    0    0 -0.64776809859E+01 -0.13576578127E+02  0.68740089180E+02  0.70366779705E+02  0.10000000000E-02 0. -1.
</event>
<event>
 5    1  0.5722211E-009  0.3883009E+03  0.7957747E-01  0.3415792E+00
         13   -1    0    0    0    0  0.00000000000E+00  0.00000000000E+00  0.14999999963E+04  0.15000000000E+04  0.10566000000E+00 0. -1.
        994   -1    0    0    0    0 -0.00000000000E+00 -0.00000000000E+00  0.11368683772E-12  0.17120000000E+03  0.17120000000E+03 0.  0.
         13    1    1    2    0    0  0.12981464582E+03 -0.13825422536E+03  0.10896648035E+04  0.11060449666E+04  0.10566000000E+00 0. -1.
        994    1    1    2    0    0 -0.15588798426E+03  0.16607215791E+03  0.19217522915E+03  0.34368849845E+03  0.17120000000E+03 0.  0.
        998    1    1    2    0    0  0.26073338435E+02 -0.27817932556E+02  0.21815996365E+03  0.22146653492E+03  0.10000000000E-02 0. -1.
</event>
<event>
 5    1  0.5722211E-009  0.3879763E+03  0.7957747E-01  0.3417146E+00
         13   -1    0    0    0    0  0.00000000000E+00  0.00000000000E+00  0.14999999963E+04  0.15000000000E+04  0.10566000000E+00 0. -1.
        994   -1    0    0    0    0 -0.00000000000E+00 -0.00000000000E+00  0.11368683772E-12  0.17120000000E+03  0.17120000000E+03 0.  0.
         13    1    1    2    0    0  0.23319169090E+03  0.62855189424E+02  0.12494848585E+04  0.12726121021E+04  0.10566000000E+00 0. -1.
        994    1    1    2    0    0 -0.23583169374E+03 -0.61694596446E+02  0.22601464874E+03  0.37391826974E+03  0.17120000000E+03 0.  0.
        998    1    1    2    0    0  0.26400028413E+01 -0.11605929776E+01  0.24500489033E+02  0.24669628187E+02  0.10000000000E-02 0. -1.
</event>
<event>
 5    1  0.5722211E-009  0.3860591E+03  0.7957747E-01  0.3425193E+00
         13   -1    0    0    0    0  0.00000000000E+00  0.00000000000E+00  0.14999999963E+04  0.15000000000E+04  0.10566000000E+00 0. -1.
        994   -1    0    0    0    0 -0.00000000000E+00 -0.00000000000E+00  0.11368683772E-12  0.17120000000E+03  0.17120000000E+03 0.  0.
         13    1    1    2    0    0  0.15914932613E+03 -0.28079533543E+02  0.82209202690E+03  0.83782592468E+03  0.10566000000E+00 0. -1.
        994    1    1    2    0    0 -0.21135149743E+03  0.45199662306E+02  0.17303228043E+03  0.32551816387E+03  0.17120000000E+03 0.  0.
        998    1    1    2    0    0  0.52202171302E+02 -0.17120128763E+02  0.50487568895E+03  0.50785591145E+03  0.10000000000E-02 0. -1.
</event>
<event>
 5    1  0.5722211E-009  0.3882537E+03  0.7957747E-01  0.3415989E+00
         13   -1    0    0    0    0  0.00000000000E+00  0.00000000000E+00  0.14999999963E+04  0.15000000000E+04  0.10566000000E+00 0. -1.
        994   -1    0    0    0    0 -0.00000000000E+00 -0.00000000000E+00  0.11368683772E-12  0.17120000000E+03  0.17120000000E+03 0.  0.
         13    1    1    2    0    0 -0.49132533295E+01 -0.26555124804E+03  0.10519359994E+04  0.10849474473E+04  0.10566000000E+00 0. -1.
        994    1    1    2    0    0  0.77186814353E+01  0.28927750921E+03  0.35006115995E+03  0.48537955363E+03  0.17120000000E+03 0.  0.
        998    1    1    2    0    0 -0.28054281058E+01 -0.23726261169E+02  0.98002836891E+02  0.10087299904E+03  0.10000000000E-02 0. -1.
</event>
<event>
 5    1  0.5722211E-009  0.3882765E+03  0.7957747E-01  0.3415894E+00
         13   -1    0    0    0    0  0.00000000000E+00  0.00000000000E+00  0.14999999963E+04  0.15000000000E+04  0.10566000000E+00 0.  1.
        994   -1    0    0    0    0 -0.00000000000E+00 -0.00000000000E+00  0.11368683772E-12  0.17120000000E+03  0.17120000000E+03 0.  0.
         13    1    1    2    0    0 -0.21744790674E+03  0.19874422092E+03  0.11171286090E+04  0.11553177908E+04  0.10566000000E+00 0.  1.
        994    1    1    2    0    0  0.21852766620E+03 -0.20037199202E+03  0.37502222192E+03  0.50779364215E+03  0.17120000000E+03 0.  0.
        998    1    1    2    0    0 -0.10797594564E+01  0.16277710990E+01  0.78491653513E+01  0.80885670515E+01  0.10000000000E-02 0.  1.
</event>
<event>
 5    1  0.5722211E-009  0.3863869E+03  0.7957747E-01  0.3423812E+00
         13   -1    0    0    0    0  0.00000000000E+00  0.00000000000E+00  0.14999999963E+04  0.15000000000E+04  0.10566000000E+00 0.  1.
        994   -1    0    0    0    0 -0.00000000000E+00 -0.00000000000E+00  0.11368683772E-12  0.17120000000E+03  0.17120000000E+03 0.  0.
         13    1    1    2    0    0  0.43946689778E+02 -0.13151190377E+03  0.66905816407E+03  0.68327558895E+03  0.10566000000E+00 0.  1.
        994    1    1    2    0    0 -0.76450924375E+02  0.20715777509E+03  0.18127294028E+03  0.33305916365E+03  0.17120000000E+03 0.  0.
        998    1    1    2    0    0  0.32504234597E+02 -0.75645871311E+02  0.64966889192E+03  0.65486524740E+03  0.10000000000E-02 0.  1.
</event>
<event>
 5    1  0.5722211E-009  0.3882191E+03  0.7957747E-01  0.3416133E+00
         13   -1    0    0    0    0  0.00000000000E+00  0.00000000000E+00  0.14999999963E+04  0.15000000000E+04  0.10566000000E+00 0. -1.
        994   -1    0    0    0    0 -0.00000000000E+00 -0.00000000000E+00  0.11368683772E-12  0.17120000000E+03  0.17120000000E+03 0.  0.
         13    1    1    2    0    0 -0.23112089068E+03  0.14500153004E+03  0.11844935428E+04  0.12155111164E+04  0.10566000000E+00 0. -1.
        994    1    1    2    0    0  0.23378568658E+03 -0.14572783766E+03  0.30645228652E+03  0.44622280739E+03  0.17120000000E+03 0.  0.
        998    1    1    2    0    0 -0.26647958987E+01  0.72630762149E+00  0.90541669247E+01  0.94660762538E+01  0.10000000000E-02 0.  1.
</event>
<event>
 5    1  0.5722211E-009  0.3882929E+03  0.7957747E-01  0.3415825E+00
         13   -1    0    0    0    0  0.00000000000E+00  0.00000000000E+00  0.14999999963E+04  0.15000000000E+04  0.10566000000E+00 0.  1.
        994   -1    0    0    0    0 -0.00000000000E+00 -0.00000000000E+00  0.11368683772E-12  0.17120000000E+03  0.17120000000E+03 0.  0.
         13    1    1    2    0    0  0.20773752932E+03  0.14648022263E+03  0.12392138209E+04  0.12650147200E+04  0.10566000000E+00 0.  1.
        994    1    1    2    0    0 -0.20899744191E+03 -0.14756955749E+03  0.25371425644E+03  0.39891987785E+03  0.17120000000E+03 0.  0.
        998    1    1    2    0    0  0.12599125895E+01  0.10893348580E+01  0.70719189088E+01  0.72654021374E+01  0.10000000000E-02 0. -1.
</event>
<event>
 5    1  0.5722211E-009  0.3883010E+03  0.7957747E-01  0.3415792E+00
         13   -1    0    0    0    0  0.00000000000E+00  0.00000000000E+00  0.14999999963E+04  0.15000000000E+04  0.10566000000E+00 0.  1.
        994   -1    0    0    0    0 -0.00000000000E+00 -0.00000000000E+00  0.11368683772E-12  0.17120000000E+03  0.17120000000E+03 0.  0.
         13    1    1    2    0    0  0.24371455089E+03 -0.10793377842E+02  0.11878027516E+04  0.12125958384E+04  0.10566000000E+00 0.  1.
        994    1    1    2    0    0 -0.25567512479E+03  0.11315905607E+02  0.25389775230E+03  0.39908812032E+03  0.17120000000E+03 0.  0.
        998    1    1    2    0    0  0.11960573900E+02 -0.52252776565E+00  0.58299492358E+02  0.59516041312E+02  0.10000000000E-02 0.  1.
</event>
<event>
 5    1  0.5722211E-009  0.3883008E+03  0.7957747E-01  0.3415793E+00
         13   -1    0    0    0    0  0.00000000000E+00  0.00000000000E+00  0.14999999963E+04  0.15000000000E+04  0.10566000000E+00 0. -1.
        994   -1    0    0    0    0 -0.00000000000E+00 -0.00000000000E+00  0.11368683772E-12  0.17120000000E+03  0.17120000000E+03 0.  0.
         13    1    1    2    0    0 -0.11568141566E+03 -0.18471739128E+03  0.12013508535E+04  0.12209613380E+04  0.10566000000E+00 0. -1.
        994    1    1    2    0    0  0.12457989660E+03  0.19906547873E+03  0.20638561644E+03  0.35644309242E+03  0.17120000000E+03 0.  0.
        998    1    1    2    0    0 -0.88984809421E+01 -0.14348087452E+02  0.92263526354E+02  0.93795569580E+02  0.10000000000E-02 0. -1.
</event>
<event>
 5    1  0.5722211E-009  0.3881186E+03  0.7957747E-01  0.3416553E+00
         13   -1    0    0    0    0  0.00000000000E+00  0.00000000000E+00  0.14999999963E+04  0.15000000000E+04  0.10566000000E+00 0.  1.
        994   -1    0    0    0    0 -0.00000000000E+00 -0.00000000000E+00  0.11368683772E-12  0.17120000000E+03  0.17120000000E+03 0.  0.
         13    1    1    2    0    0  0.19357034437E+03 -0.10812987311E+03  0.12589137696E+04  0.12782900446E+04  0.10566000000E+00 0.  1.
        994    1    1    2    0    0 -0.20182260576E+03  0.11389633906E+03  0.20031327390E+03  0.35091250754E+03  0.17120000000E+03 0.  0.
        998    1    1    2    0    0  0.82522613858E+01 -0.57664659478E+01  0.40772952822E+02  0.41997447903E+02  0.10000000000E-02 0. -1.
</event>
<event>
 5    1  0.5722211E-009  0.3883010E+03  0.7957747E-01  0.3415792E+00
         13   -1    0    0    0    0  0.00000000000E+00  0.00000000000E+00  0.14999999963E+04  0.15000000000E+04  0.10566000000E+00 0.  1.
        994   -1    0    0    0    0 -0.00000000000E+00 -0.00000000000E+00  0.11368683772E-12  0.17120000000E+03  0.17120000000E+03 0.  0.
         13    1    1    2    0    0  0.11740340288E+03 -0.20591766298E+03  0.12062572340E+04  0.12293259001E+04  0.10566000000E+00 0.  1.
        994    1    1    2    0    0 -0.12302091397E+03  0.21577952139E+03  0.23596811583E+03  0.38299522036E+03  0.17120000000E+03 0.  0.
        998    1    1    2    0    0  0.56175110955E+01 -0.98618584094E+01  0.57774646431E+02  0.58878879519E+02  0.10000000000E-02 0. -1.
</event>
<event>
 5    1  0.5722211E-009  0.3883010E+03  0.7957747E-01  0.3415792E+00
         13   -1    0    0    0    0  0.00000000000E+00  0.00000000000E+00  0.14999999963E+04  0.15000000000E+04  0.10566000000E+00 0. -1.
        994   -1    0    0    0    0 -0.00000000000E+00 -0.00000000000E+00  0.11368683772E-12  0.17120000000E+03  0.17120000000E+03 0.  0.
         13    1    1    2    0    0  0.12198050904E+03 -0.18366473115E+03  0.13052995780E+04  0.13237896274E+04  0.10566000000E+00 0. -1.
        994    1    1    2    0    0 -0.12315742229E+03  0.18542186454E+03  0.18223238397E+03  0.33476424583E+03  0.17120000000E+03 0.  0.
        998    1    1    2    0    0  0.11769132537E+01 -0.17571333939E+01  0.12468034297E+02  0.12646126791E+02  0.10000000000E-02 0.  1.
</event>
<event>
 5    1  0.5722211E-009  0.3882990E+03  0.7957747E-01  0.3415800E+00
         13   -1    0    0    0    0  0.00000000000E+00  0.00000000000E+00  0.14999999963E+04  0.15000000000E+04  0.10566000000E+00 0. -1.
        994   -1    0    0    0    0 -0.00000000000E+00 -0.00000000000E+00  0.11368683772E-12  0.17120000000E+03  0.17120000000E+03 0.  0.
         13    1    1    2    0    0 -0.16336140543E+03 -0.11540739505E+03  0.12051539325E+04  0.12216389924E+04  0.10566000000E+00 0. -1.
        994    1    1    2    0    0  0.17901891846E+03  0.12711515586E+03  0.17658190464E+03  0.32969174249E+03  0.17120000000E+03 0.  0.
        998    1    1    2    0    0 -0.15657513031E+02 -0.11707760808E+02  0.11826415913E+03  0.11986926509E+03  0.10000000000E-02 0. -1.
</event>
<event>
 5    1  0.5722211E-009  0.3883004E+03  0.7957747E-01  0.3415794E+00
         13   -1    0    0    0    0  0.00000000000E+00  0.00000000000E+00  0.14999999963E+04  0.15000000000E+04  0.10566000000E+00 0.  1.
        994   -1    0    0    0    0 -0.00000000000E+00 -0.00000000000E+00  0.11368683772E-12  0.17120000000E+03  0.17120000000E+03 0.  0.
         13    1    1    2    0    0  0.10398183747E+03  0.21621872711E+03  0.11417591475E+04  0.11666947856E+04  0.10566000000E+00 0.  1.
        994    1    1    2    0    0 -0.11236637861E+03 -0.23424506873E+03  0.26356875340E+03  0.40776817315E+03  0.17120000000E+03 0.  0.
        998    1    1    2    0    0  0.83845411434E+01  0.18026341617E+02  0.94672095332E+02  0.96737041292E+02  0.10000000000E-02 0.  1.
</event>
<event>
 5    1  0.5722211E-009  0.3883010E+03  0.7957747E-01  0.3415792E+00
         13   -1    0    0    0    0  0.00000000000E+00  0.00000000000E+00  0.14999999963E+04  0.15000000000E+04  0.10566000000E+00 0.  1.
        994   -1    0    0    0    0 -0.00000000000E+00 -0.00000000000E+00  0.11368683772E-12  0.17120000000E+03  0.17120000000E+03 0.  0.
         13    1    1    2    0    0  0.29649197051E+02 -0.22884820426E+03  0.13005576365E+04  0.13208712097E+04  0.10566000000E+00 0.  1.
        994    1    1    2    0    0 -0.29672101214E+02  0.22902372129E+03  0.19844705173E+03  0.34931786506E+03  0.17120000000E+03 0.  0.
        998    1    1    2    0    0  0.22904163089E-01 -0.17551703445E+00  0.99530803786E+00  0.10109252793E+01  0.10000000000E-02 0.  0.
</event>
<event>
 5    1  0.5722211E-009  0.3883010E+03  0.7957747E-01  0.3415792E+00
         13   -1    0    0    0    0  0.00000000000E+00  0.00000000000E+00  0.14999999963E+04  0.15000000000E+04  0.10566000000E+00 0.  1.
        994   -1    0    0    0    0 -0.00000000000E+00 -0.00000000000E+00  0.11368683772E-12  0.17120000000E+03  0.17120000000E+03 0.  0.
         13    1    1    2    0    0  0.18513285313E+03 -0.14002960541E+03  0.12868463022E+04  0.13076145764E+04  0.10566000000E+00 0.  1.
        994    1    1    2    0    0 -0.18642805577E+03  0.14100798672E+03  0.20415015052E+03  0.35443673096E+03  0.17120000000E+03 0.  0.
        998    1    1    2    0    0  0.12952026376E+01 -0.97838130353E+00  0.90035435454E+01  0.91486926510E+01  0.10000000000E-02 0.  0.
</event>
<event>
 5    1  0.5722211E-009  0.3878321E+03  0.7957747E-01  0.3417749E+00
         13   -1    0    0    0    0  0.00000000000E+00  0.00000000000E+00  0.14999999963E+04  0.15000000000E+04  0.10566000000E+00 0.  1.
        994   -1    0    0    0    0 -0.00000000000E+00 -0.00000000000E+00  0.11368683772E-12  0.17120000000E+03  0.17120000000E+03 0.  0.
         13    1    1    2    0    0 -0.14437958480E+03 -0.19019827508E+03  0.10840538530E+04  0.11100421685E+04  0.10566000000E+00 0.  1.
        994    1    1    2    0    0  0.15778204296E+03  0.20842313031E+03  0.26851559576E+03  0.41200174696E+03  0.17120000000E+03 0.  0.
        998    1    1    2    0    0 -0.13402458157E+02 -0.18224855229E+02  0.14743054750E+03  0.14915608459E+03  0.10000000000E-02 0.  1.
</event>
<event>
 5    1  0.5722211E-009  0.3882935E+03  0.7957747E-01  0.3415823E+00
         13   -1    0    0    0    0  0.00000000000E+00  0.00000000000E+00  0.14999999963E+04  0.15000000000E+04  0.10566000000E+00 0.  1.
        994   -1    0    0    0    0 -0.00000000000E+00 -0.00000000000E+00  0.11368683772E-12  0.17120000000E+03  0.17120000000E+03 0.  0.
         13    1    1    2    0    0 -0.29989337079E+03 -0.46726235028E+02  0.10961848449E+04  0.11374271845E+04  0.10566000000E+00 0.  1.
        994    1    1    2    0    0  0.30008962829E+03  0.46829261227E+02  0.40279490497E+03  0.53272876793E+03  0.17120000000E+03 0.  0.
        998    1    1    2    0    0 -0.19625750088E+00 -0.10302619838E+00  0.10202464547E+01  0.10440475240E+01  0.10000000000E-02 0. -1.
</event>
<event>
 5    1  0.5722211E-009  0.3882839E+03  0.7957747E-01  0.3415863E+00
         13   -1    0    0    0    0  0.00000000000E+00  0.00000000000E+00  0.14999999963E+04  0.15000000000E+04  0.10566000000E+00 0. -1.
        994   -1    0    0    0    0 -0.00000000000E+00 -0.00000000000E+00  0.11368683772E-12  0.17120000000E+03  0.17120000000E+03 0.  0.
         13    1    1    2    0    0 -0.21927885482E+03 -0.69054878534E+02  0.12236830667E+04  0.12450911820E+04  0.10566000000E+00 0. -1.
        994    1    1    2    0    0  0.22901376127E+03  0.73196682575E+02  0.21823396393E+03  0.36707023878E+03  0.17120000000E+03 0.  0.
        998    1    1    2    0    0 -0.97349064511E+01 -0.41418040417E+01  0.58082965611E+02  0.59038579247E+02  0.10000000000E-02 0.  1.
</event>
<event>
 5    1  0.5722211E-009  0.3883009E+03  0.7957747E-01  0.3415792E+00
         13   -1    0    0    0    0  0.00000000000E+00  0.00000000000E+00  0.14999999963E+04  0.15000000000E+04  0.10566000000E+00 0. -1.
        994   -1    0    0    0    0 -0.00000000000E+00 -0.00000000000E+00  0.11368683772E-12  0.17120000000E+03  0.17120000000E+03 0.  0.
         13    1    1    2    0    0  0.20310015007E+03 -0.56629378159E+02  0.12721652875E+04  0.12895197119E+04  0.10566000000E+00 0. -1.
        994    1    1    2    0    0 -0.21136287683E+03  0.58955012291E+02  0.17634464931E+03  0.32947964204E+03  0.17120000000E+03 0.  0.
        998    1    1    2    0    0  0.82627267518E+01 -0.23256341329E+01  0.51490059441E+02  0.52200646066E+02  0.10000000000E-02 0. -1.
</event>
<event>
 5    1  0.5722211E-009  0.3882713E+03  0.7957747E-01  0.3415916E+00
         13   -1    0    0    0    0  0.00000000000E+00  0.00000000000E+00  0.14999999963E+04  0.15000000000E+04  0.10566000000E+00 0. -1.
        994   -1    0    0    0    0 -0.00000000000E+00 -0.00000000000E+00  0.11368683772E-12  0.17120000000E+03  0.17120000000E+03 0.  0.
         13    1    1    2    0    0 -0.91756052549E+02  0.22713911621E+03  0.12597919254E+04  0.12833888958E+04  0.10566000000E+00 0. -1.
        994    1    1    2    0    0  0.92372317551E+02 -0.22822290232E+03  0.23104210979E+03  0.37856074109E+03  0.17120000000E+03 0.  0.
        998    1    1    2    0    0 -0.61626500261E+00  0.10837861065E+01  0.91659610892E+01  0.92503631586E+01  0.10000000000E-02 0.  1.
</event>
<event>
 5    1  0.5722211E-009  0.3883010E+03  0.7957747E-01  0.3415792E+00
         13   -1    0    0    0    0  0.00000000000E+00  0.00000000000E+00  0.14999999963E+04  0.15000000000E+04  0.10566000000E+00 0.  1.
        994   -1    0    0    0    0 -0.00000000000E+00 -0.00000000000E+00  0.11368683772E-12  0.17120000000E+03  0.17120000000E+03 0.  0.
         13    1    1    2    0    0  0.15765661446E+03  0.19961378617E+03  0.12490572881E+04  0.12746942347E+04  0.10566000000E+00 0.  1.
        994    1    1    2    0    0 -0.15772820051E+03 -0.19970339584E+03  0.25037082695E+03  0.39592249561E+03  0.17120000000E+03 0.  0.
        998    1    1    2    0    0  0.71586049763E-01  0.89609668088E-01  0.57188117863E+00  0.58326969543E+00  0.10000000000E-02 0.  1.
</event>
<event>
 5    1  0.5722211E-009  0.3883010E+03  0.7957747E-01  0.3415792E+00
         13   -1    0    0    0    0  0.00000000000E+00  0.00000000000E+00  0.14999999963E+04  0.15000000000E+04  0.10566000000E+00 0. -1.
        994   -1    0    0    0    0 -0.00000000000E+00 -0.00000000000E+00  0.11368683772E-12  0.17120000000E+03  0.17120000000E+03 0.  0.
         13    1    1    2    0    0 -0.24060481824E+03  0.74958656360E+02  0.12540760119E+04  0.12791466427E+04  0.10566000000E+00 0. -1.
        994    1    1    2    0    0  0.24079629314E+03 -0.75017625681E+02  0.24492583040E+03  0.39103529425E+03  0.17120000000E+03 0.  0.
        998    1    1    2    0    0 -0.19147490000E+00  0.58969320526E-01  0.99815399146E+00  0.10180630672E+01  0.10000000000E-02 0.  0.
</event>
<event>
 5    1  0.5722211E-009  0.3882112E+03  0.7957747E-01  0.3416166E+00
         13   -1    0    0    0    0  0.00000000000E+00  0.00000000000E+00  0.14999999963E+04  0.15000000000E+04  0.10566000000E+00 0. -1.
        994   -1    0    0    0    0 -0.00000000000E+00 -0.00000000000E+00  0.11368683772E-12  0.17120000000E+03  0.17120000000E+03 0.  0.
         13    1    1    2    0    0  0.17403553267E+03 -0.17776973341E+03  0.11527931944E+04  0.11793314229E+04  0.10566000000E+00 0. -1.
        994    1    1    2    0    0 -0.18595414722E+03  0.18639775305E+03  0.27272221729E+03  0.41594460570E+03  0.17120000000E+03 0.  0.
        998    1    1    2    0    0  0.11918614544E+02 -0.86280196336E+01  0.74484584562E+02  0.75923971404E+02  0.10000000000E-02 0. -1.
</event>
<event>
 5    1  0.5722211E-009  0.3883008E+03  0.7957747E-01  0.3415793E+00
         13   -1    0    0    0    0  0.00000000000E+00  0.00000000000E+00  0.14999999963E+04  0.15000000000E+04  0.10566000000E+00 0.  1.
        994   -1    0    0    0    0 -0.00000000000E+00 -0.00000000000E+00  0.11368683772E-12  0.17120000000E+03  0.17120000000E+03 0.  0.
         13    1    1    2    0    0 -0.23751525517E+03  0.29343798487E+02  0.12840672841E+04  0.13061789143E+04  0.10566000000E+00 0.  1.
        994    1    1    2    0    0  0.23752607446E+03 -0.29345864777E+02  0.21585342826E+03  0.36494103403E+03  0.17120000000E+03 0.  0.
        998    1    1    2    0    0 -0.10819290441E-01  0.20662896942E-02  0.79283896109E-01  0.80051625724E-01  0.10000000000E-02 0. -1.
</event>
<event>
 5    1  0.5722211E-009  0.3882979E+03  0.7957747E-01  0.3415805E+00
         13   -1    0    0    0    0  0.00000000000E+00  0.00000000000E+00  0.14999999963E+04  0.15000000000E+04  0.10566000000E+00 0. -1.
        994   -1    0    0    0    0 -0.00000000000E+00 -0.00000000000E+00  0.11368683772E-12  0.17120000000E+03  0.17120000000E+03 0.  0.
         13    1    1    2    0    0  0.13263531884E+03 -0.17920048520E+03  0.13161924070E+04  0.13349409744E+04  0.10566000000E+00 0. -1.
        994    1    1    2    0    0 -0.13271961163E+03  0.17925156187E+03  0.18306815414E+03  0.33551305012E+03  0.17120000000E+03 0.  0.
        998    1    1    2    0    0  0.84292785337E-01 -0.51076669332E-01  0.73943513036E+00  0.74597547669E+00  0.10000000000E-02 0.  1.
</event>
<event>
 5    1  0.5722211E-009  0.3882986E+03  0.7957747E-01  0.3415802E+00
         13   -1    0    0    0    0  0.00000000000E+00  0.00000000000E+00  0.14999999963E+04  0.15000000000E+04  0.10566000000E+00 0. -1.
        994   -1    0    0    0    0 -0.00000000000E+00 -0.00000000000E+00  0.11368683772E-12  0.17120000000E+03  0.17120000000E+03 0.  0.
         13    1    1    2    0    0 -0.67928578827E+02  0.10527534022E+03  0.75230634898E+03  0.76266771464E+03  0.10566000000E+00 0. -1.
        994    1    1    2    0    0  0.11787143766E+03 -0.18540688745E+03  0.17684785272E+03  0.32993028467E+03  0.17120000000E+03 0.  0.
        998    1    1    2    0    0 -0.49942858834E+02  0.80131547228E+02  0.57084579459E+03  0.57860200069E+03  0.10000000000E-02 0. -1.
</event>
<event>
 5    1  0.5722211E-009  0.3875724E+03  0.7957747E-01  0.3418835E+00
         13   -1    0    0    0    0  0.00000000000E+00  0.00000000000E+00  0.14999999963E+04  0.15000000000E+04  0.10566000000E+00 0.  1.
        994   -1    0    0    0    0 -0.00000000000E+00 -0.00000000000E+00  0.11368683772E-12  0.17120000000E+03  0.17120000000E+03 0.  0.
         13    1    1    2    0    0  0.19208730242E+03  0.88975244471E+02  0.11204101034E+04  0.11402337203E+04  0.10566000000E+00 0.  1.
        994    1    1    2    0    0 -0.21383335012E+03 -0.11260019104E+03  0.22198045524E+03  0.37011926072E+03  0.17120000000E+03 0.  0.
        998    1    1    2    0    0  0.21746047697E+02  0.23624946566E+02  0.15760943762E+03  0.16084701899E+03  0.10000000000E-02 0. -1.
</event>
<event>
 5    1  0.5722211E-009  0.3882973E+03  0.7957747E-01  0.3415807E+00
         13   -1    0    0    0    0  0.00000000000E+00  0.00000000000E+00  0.14999999963E+04  0.15000000000E+04  0.10566000000E+00 0. -1.
        994   -1    0    0    0    0 -0.00000000000E+00 -0.00000000000E+00  0.11368683772E-12  0.17120000000E+03  0.17120000000E+03 0.  0.
         13    1    1    2    0    0 -0.15690769387E+03 -0.18465875240E+03  0.12697456355E+04  0.12926611579E+04  0.10566000000E+00 0. -1.
        994    1    1    2    0    0  0.15749850650E+03  0.18558422063E+03  0.22473387567E+03  0.37291022696E+03  0.17120000000E+03 0.  0.
        998    1    1    2    0    0 -0.59081263760E+00 -0.92546822380E+00  0.55204851267E+01  0.56286151085E+01  0.10000000000E-02 0. -1.
</event>
<event>
 5    1  0.5722211E-009  0.3883009E+03  0.7957747E-01  0.3415792E+00
         13   -1    0    0    0    0  0.00000000000E+00  0.00000000000E+00  0.14999999963E+04  0.15000000000E+04  0.10566000000E+00 0. -1.
        994   -1    0    0    0    0 -0.00000000000E+00 -0.00000000000E+00  0.11368683772E-12  0.17120000000E+03  0.17120000000E+03 0.  0.
         13    1    1    2    0    0  0.22719901196E+02 -0.18240439338E+03  0.10118908639E+04  0.10284506251E+04  0.10566000000E+00 0. -1.
        994    1    1    2    0    0 -0.29007620857E+02  0.23329960798E+03  0.20692705343E+03  0.35692911704E+03  0.17120000000E+03 0.  0.
        998    1    1    2    0    0  0.62877196608E+01 -0.50895214595E+02  0.28118207891E+03  0.28582025784E+03  0.10000000000E-02 0. -1.
</event>
<event>
 5    1  0.5722211E-009  0.3883005E+03  0.7957747E-01  0.3415794E+00
         13   -1    0    0    0    0  0.00000000000E+00  0.00000000000E+00  0.14999999963E+04  0.15000000000E+04  0.10566000000E+00 0. -1.
        994   -1    0    0    0    0 -0.00000000000E+00 -0.00000000000E+00  0.11368683772E-12  0.17120000000E+03  0.17120000000E+03 0.  0.
         13    1    1    2    0    0  0.14470533539E+03 -0.19387729279E+03  0.12783804473E+04  0.13010705660E+04  0.10566000000E+00 0. -1.
        994    1    1    2    0    0 -0.14471003534E+03  0.19389528397E+03  0.22150631653E+03  0.37001468044E+03  0.17120000000E+03 0.  0.
        998    1    1    2    0    0  0.46999517391E-02 -0.17991185550E-01  0.11323249015E+00  0.11475351467E+00  0.10000000000E-02 0.  1.
</event>
<event>
 5    1  0.5722211E-009  0.3883009E+03  0.7957747E-01  0.3415792E+00
         13   -1    0    0    0    0  0.00000000000E+00  0.00000000000E+00  0.14999999963E+04  0.15000000000E+04  0.10566000000E+00 0. -1.
        994   -1    0    0    0    0 -0.00000000000E+00 -0.00000000000E+00  0.11368683772E-12  0.17120000000E+03  0.17120000000E+03 0.  0.
         13    1    1    2    0    0 -0.12834384987E+03 -0.18291052354E+03  0.13141487167E+04  0.13330098515E+04  0.10566000000E+00 0. -1.
        994    1    1    2    0    0  0.12849289604E+03  0.18313236628E+03  0.18434575137E+03  0.33666108175E+03  0.17120000000E+03 0.  0.
        998    1    1    2    0    0 -0.14904617026E+00 -0.22184274263E+00  0.15055282482E+01  0.15290667969E+01  0.10000000000E-02 0. -1.
</event>
<event>
 5    1  0.5722211E-009  0.3883010E+03  0.7957747E-01  0.3415792E+00
         13   -1    0    0    0    0  0.00000000000E+00  0.00000000000E+00  0.14999999963E+04  0.15000000000E+04  0.10566000000E+00 0. -1.
        994   -1    0    0    0    0 -0.00000000000E+00 -0.00000000000E+00  0.11368683772E-12  0.17120000000E+03  0.17120000000E+03 0.  0.
         13    1    1    2    0    0 -0.21092531091E+03 -0.74139887353E+02  0.13127967200E+04  0.13316987080E+04  0.10566000000E+00 0. -1.
        994    1    1    2    0    0  0.21130302962E+03  0.74281334380E+02  0.18485000611E+03  0.33711370741E+03  0.17120000000E+03 0.  0.
        998    1    1    2    0    0 -0.37771871237E+00 -0.14144702613E+00  0.23532701605E+01  0.23875845818E+01  0.10000000000E-02 0.  1.
</event>
<event>
 5    1  0.5722211E-009  0.3882988E+03  0.7957747E-01  0.3415801E+00
         13   -1    0    0    0    0  0.00000000000E+00  0.00000000000E+00  0.14999999963E+04  0.15000000000E+04  0.10566000000E+00 0.  1.
        994   -1    0    0    0    0 -0.00000000000E+00 -0.00000000000E+00  0.11368683772E-12  0.17120000000E+03  0.17120000000E+03 0.  0.
         13    1    1    2    0    0 -0.30006409801E+03 -0.12344590540E+03  0.99546982437E+03  0.10470136278E+04  0.10566000000E+00 0.  1.
        994    1    1    2    0    0  0.30034655227E+03  0.12351060682E+03  0.50355673067E+03  0.62317071694E+03  0.17120000000E+03 0.  0.
        998    1    1    2    0    0 -0.28245426273E+00 -0.64701419051E-01  0.97344124213E+00  0.10156552250E+01  0.10000000000E-02 0.  1.
</event>
<event>
 5    1  0.5722211E-009  0.3882984E+03  0.7957747E-01  0.3415803E+00
         13   -1    0    0    0    0  0.00000000000E+00  0.00000000000E+00  0.14999999963E+04  0.15000000000E+04  0.10566000000E+00 0. -1.
        994   -1    0    0    0    0 -0.00000000000E+00 -0.00000000000E+00  0.11368683772E-12  0.17120000000E+03  0.17120000000E+03 0.  0.
         13    1    1    2    0    0  0.26103778619E+03  0.12331384302E+03  0.11188861261E+04  0.11555315678E+04  0.10566000000E+00 0. -1.
        994    1    1    2    0    0 -0.26501521054E+03 -0.12533149237E+03  0.36298735600E+03  0.49700131329E+03  0.17120000000E+03 0.  0.
        998    1    1    2    0    0  0.39774243520E+01  0.20176493529E+01  0.18126514149E+02  0.18667118941E+02  0.10000000000E-02 0. -1.
</event>
<event>
 5    1  0.5722211E-009  0.3883010E+03  0.7957747E-01  0.3415792E+00
         13   -1    0    0    0    0  0.00000000000E+00  0.00000000000E+00  0.14999999963E+04  0.15000000000E+04  0.10566000000E+00 0. -1.
        994   -1    0    0    0    0 -0.00000000000E+00 -0.00000000000E+00  0.11368683772E-12  0.17120000000E+03  0.17120000000E+03 0.  0.
         13    1    1    2    0    0  0.19875574800E+03  0.10274051816E+03  0.13048016333E+04  0.13238454497E+04  0.10566000000E+00 0. -1.
        994    1    1    2    0    0 -0.19999499719E+03 -0.10338711855E+03  0.18706336040E+03  0.33910033322E+03  0.17120000000E+03 0.  0.
        998    1    1    2    0    0  0.12392491921E+01  0.64660038717E+00  0.81350026016E+01  0.82542170403E+01  0.10000000000E-02 0.  0.
</event>
<event>
 5    1  0.5722211E-009  0.3883009E+03  0.7957747E-01  0.3415792E+00
         13   -1    0    0    0    0  0.00000000000E+00  0.00000000000E+00  0.14999999963E+04  0.15000000000E+04  0.10566000000E+00 0. -1.
        994   -1    0    0    0    0 -0.00000000000E+00 -0.00000000000E+00  0.11368683772E-12  0.17120000000E+03  0.17120000000E+03 0.  0.
         13    1    1    2    0    0  0.54892175980E+02 -0.19997646812E+03  0.11383233927E+04  0.11570582943E+04  0.10566000000E+00 0. -1.
        994    1    1    2    0    0 -0.62394539471E+02  0.22706307543E+03  0.20772340024E+03  0.35764391479E+03  0.17120000000E+03 0.  0.
        998    1    1    2    0    0  0.75023634907E+01 -0.27086607304E+02  0.15395320334E+03  0.15649779095E+03  0.10000000000E-02 0. -1.
</event>
<event>
 5    1  0.5722211E-009  0.3882970E+03  0.7957747E-01  0.3415809E+00
         13   -1    0    0    0    0  0.00000000000E+00  0.00000000000E+00  0.14999999963E+04  0.15000000000E+04  0.10566000000E+00 0. -1.
        994   -1    0    0    0    0 -0.00000000000E+00 -0.00000000000E+00  0.11368683772E-12  0.17120000000E+03  0.17120000000E+03 0.  0.
         13    1    1    2    0    0  0.20742546584E+03 -0.84296298226E+02  0.13032497454E+04  0.13223430341E+04  0.10566000000E+00 0. -1.
        994    1    1    2    0    0 -0.20892934788E+03  0.84689923747E+02  0.18765254925E+03  0.33962740589E+03  0.17120000000E+03 0.  0.
        998    1    1    2    0    0  0.15038820402E+01 -0.39362552133E+00  0.90977016099E+01  0.92295600017E+01  0.10000000000E-02 0. -1.
</event>
<event>
 5    1  0.5722211E-009  0.3883009E+03  0.7957747E-01  0.3415792E+00
         13   -1    0    0    0    0  0.00000000000E+00  0.00000000000E+00  0.14999999963E+04  0.15000000000E+04  0.10566000000E+00 0.  1.
        994   -1    0    0    0    0 -0.00000000000E+00 -0.00000000000E+00  0.11368683772E-12  0.17120000000E+03  0.17120000000E+03 0.  0.
         13    1    1    2    0    0 -0.15965211140E+03 -0.75462993779E+02  0.10071748796E+04  0.10225383657E+04  0.10566000000E+00 0.  1.
        994    1    1    2    0    0  0.20685020122E+03  0.97874830017E+02  0.19426584212E+03  0.34556496569E+03  0.17120000000E+03 0.  0.
        998    1    1    2    0    0 -0.47198089827E+02 -0.22411836237E+02  0.29855927456E+03  0.30309666860E+03  0.10000000000E-02 0.  1.
</event>
<event>
 5    1  0.5722211E-009  0.3882993E+03  0.7957747E-01  0.3415799E+00
         13   -1    0    0    0    0  0.00000000000E+00  0.00000000000E+00  0.14999999963E+04  0.15000000000E+04  0.10566000000E+00 0. -1.
        994   -1    0    0    0    0 -0.00000000000E+00 -0.00000000000E+00  0.11368683772E-12  0.17120000000E+03  0.17120000000E+03 0.  0.
         13    1    1    2    0    0 -0.14917464411E+03  0.88837020449E+01  0.69117599464E+03  0.70714656284E+03  0.10566000000E+00 0. -1.
        994    1    1    2    0    0  0.26329344885E+03 -0.15447540259E+02  0.27374999303E+03  0.41690594310E+03  0.17120000000E+03 0.  0.
        998    1    1    2    0    0 -0.11411880474E+03  0.65638382138E+01  0.53507400861E+03  0.54714749406E+03  0.10000000000E-02 0. -1.
</event>
<event>
 5    1  0.5722211E-009  0.3883007E+03  0.7957747E-01  0.3415793E+00
         13   -1    0    0    0    0  0.00000000000E+00  0.00000000000E+00  0.14999999963E+04  0.15000000000E+04  0.10566000000E+00 0.  1.
        994   -1    0    0    0    0 -0.00000000000E+00 -0.00000000000E+00  0.11368683772E-12  0.17120000000E+03  0.17120000000E+03 0.  0.
         13    1    1    2    0    0 -0.55925908682E+02  0.22237756365E+03  0.12076956998E+04  0.12292714926E+04  0.10566000000E+00 0.  1.
        994    1    1    2    0    0  0.59254118440E+02 -0.23508322557E+03  0.22258657047E+03  0.37098435931E+03  0.17120000000E+03 0.  0.
        998    1    1    2    0    0 -0.33282097576E+01  0.12705661921E+02  0.69717726056E+02  0.70944148120E+02  0.10000000000E-02 0. -1.
</event>
<event>
 5    1  0.5722211E-009  0.3883009E+03  0.7957747E-01  0.3415792E+00
         13   -1    0    0    0    0  0.00000000000E+00  0.00000000000E+00  0.14999999963E+04  0.15000000000E+04  0.10566000000E+00 0. -1.
        994   -1    0    0    0    0 -0.00000000000E+00 -0.00000000000E+00  0.11368683772E-12  0.17120000000E+03  0.17120000000E+03 0.  0.
         13    1    1    2    0    0  0.22694981264E+03 -0.71896141186E+02  0.12832592334E+04  0.13051549884E+04  0.10566000000E+00 0. -1.
        994    1    1    2    0    0 -0.22741203592E+03  0.72026341902E+02  0.21417367098E+03  0.36343339053E+03  0.17120000000E+03 0.  0.
        998    1    1    2    0    0  0.46222328738E+00 -0.13020071581E+00  0.25670919133E+01  0.26116210455E+01  0.10000000000E-02 0. -1.
</event>
<event>
 5    1  0.5722211E-009  0.3883007E+03  0.7957747E-01  0.3415793E+00
         13   -1    0    0    0    0  0.00000000000E+00  0.00000000000E+00  0.14999999963E+04  0.15000000000E+04  0.10566000000E+00 0.  1.
        994   -1    0    0    0    0 -0.00000000000E+00 -0.00000000000E+00  0.11368683772E-12  0.17120000000E+03  0.17120000000E+03 0.  0.
         13    1    1    2    0    0  0.19523468215E+02 -0.21857918534E+03  0.13232781231E+04  0.13413511950E+04  0.10566000000E+00 0.  1.
        994    1    1    2    0    0 -0.19533142057E+02  0.21862734219E+03  0.17646847274E+03  0.32959068595E+03  0.17120000000E+03 0.  0.
        998    1    1    2    0    0  0.96738424280E-02 -0.48156845237E-01  0.25340040373E+00  0.25811902212E+00  0.10000000000E-02 0. -1.
</event>
<event>
 5    1  0.5722211E-009  0.3883003E+03  0.7957747E-01  0.3415795E+00
         13   -1    0    0    0    0  0.00000000000E+00  0.00000000000E+00  0.14999999963E+04  0.15000000000E+04  0.10566000000E+00 0.  1.
        994   -1    0    0    0    0 -0.00000000000E+00 -0.00000000000E+00  0.11368683772E-12  0.17120000000E+03  0.17120000000E+03 0.  0.
         13    1    1    2    0    0 -0.19644303997E+03  0.55492225422E+02  0.11417964515E+04  0.11599001694E+04  0.10566000000E+00 0.  1.
        994    1    1    2    0    0  0.22375887411E+03 -0.63035114012E+02  0.20153699756E+03  0.35209098359E+03  0.17120000000E+03 0.  0.
        998    1    1    2    0    0 -0.27315834136E+02  0.75428885902E+01  0.15666654719E+03  0.15920884703E+03  0.10000000000E-02 0. -1.
</event>
<event>
 5    1  0.5722211E-009  0.3881570E+03  0.7957747E-01  0.3416393E+00
         13   -1    0    0    0    0  0.00000000000E+00  0.00000000000E+00  0.14999999963E+04  0.15000000000E+04  0.10566000000E+00 0. -1.
        994   -1    0    0    0    0 -0.00000000000E+00 -0.00000000000E+00  0.11368683772E-12  0.17120000000E+03  0.17120000000E+03 0.  0.
         13    1    1    2    0    0  0.18357382005E+02 -0.12862920044E+02  0.70371184047E+02  0.73855012656E+02  0.10566000000E+00 0. -1.
        994    1    1    2    0    0 -0.28022414696E+03  0.13859007937E+03  0.44158785131E+03  0.56748749155E+03  0.17120000000E+03 0.  0.
        998    1    1    2    0    0  0.26186676496E+03 -0.12572715933E+03  0.98804096092E+03  0.10298574958E+04  0.10000000000E-02 0. -1.
</event>
<event>
 5    1  0.5722211E-009  0.3880113E+03  0.7957747E-01  0.3417000E+00
         13   -1    0    0    0    0  0.00000000000E+00  0.00000000000E+00  0.14999999963E+04  0.15000000000E+04  0.10566000000E+00 0. -1.
        994   -1    0    0    0    0 -0.00000000000E+00 -0.00000000000E+00  0.11368683772E-12  0.17120000000E+03  0.17120000000E+03 0.  0.
         13    1    1    2    0    0  0.23054684366E+03  0.24406586584E+02  0.12199976250E+04  0.12418299983E+04  0.10566000000E+00 0. -1.
        994    1    1    2    0    0 -0.23790817696E+03 -0.24956993036E+02  0.21601691105E+03  0.36496013210E+03  0.17120000000E+03 0.  0.
        998    1    1    2    0    0  0.73613333020E+01  0.55040645180E+00  0.63985460239E+02  0.64409869572E+02  0.10000000000E-02 0.  1.
</event>
<event>
 5    1  0.5722211E-009  0.3883009E+03  0.7957747E-01  0.3415792E+00
         13   -1    0    0    0    0  0.00000000000E+00  0.00000000000E+00  0.14999999963E+04  0.15000000000E+04  0.10566000000E+00 0. -1.
        994   -1    0    0    0    0 -0.00000000000E+00 -0.00000000000E+00  0.11368683772E-12  0.17120000000E+03  0.17120000000E+03 0.  0.
         13    1    1    2    0    0 -0.94351492332E+02  0.13319380780E+03  0.97326279384E+03  0.98685524348E+03  0.10566000000E+00 0. -1.
        994    1    1    2    0    0  0.12812088965E+03 -0.18067440816E+03  0.18016044431E+03  0.33290453560E+03  0.17120000000E+03 0.  0.
        998    1    1    2    0    0 -0.33769397321E+02  0.47480600358E+02  0.34657675813E+03  0.35144022092E+03  0.10000000000E-02 0.  1.
</event>
<event>
 5    1  0.5722211E-009  0.3877952E+03  0.7957747E-01  0.3417903E+00
         13   -1    0    0    0    0  0.00000000000E+00  0.00000000000E+00  0.14999999963E+04  0.15000000000E+04  0.10566000000E+00 0.  1.
        994   -1    0    0    0    0 -0.00000000000E+00 -0.00000000000E+00  0.11368683772E-12  0.17120000000E+03  0.17120000000E+03 0.  0.
         13    1    1    2    0    0 -0.14499268960E+03  0.16489461535E+03  0.12785172735E+04  0.12972353464E+04  0.10566000000E+00 0.  1.
        994    1    1    2    0    0  0.15259619143E+03 -0.16788336598E+03  0.19106772915E+03  0.34247151609E+03  0.17120000000E+03 0.  0.
        998    1    1    2    0    0 -0.76035018332E+01  0.29887506302E+01  0.30414993672E+02  0.31493137531E+02  0.10000000000E-02 0.  1.
</event>
<event>
 5    1  0.5722211E-009  0.3883010E+03  0.7957747E-01  0.3415792E+00
         13   -1    0    0    0    0  0.00000000000E+00  0.00000000000E+00  0.14999999963E+04  0.15000000000E+04  0.10566000000E+00 0. -1.
        994   -1    0    0    0    0 -0.00000000000E+00 -0.00000000000E+00  0.11368683772E-12  0.17120000000E+03  0.17120000000E+03 0.  0.
         13    1    1    2    0    0  0.13928142869E+03  0.19168651090E+03  0.11287898292E+04  0.11533904476E+04  0.10566000000E+00 0. -1.
        994    1    1    2    0    0 -0.15266805258E+03 -0.21001710511E+03  0.26316656228E+03  0.40740741061E+03  0.17120000000E+03 0.  0.
        998    1    1    2    0    0  0.13386623886E+02  0.18330594211E+02  0.10804360477E+03  0.11040214181E+03  0.10000000000E-02 0.  1.
</event>
<event>
 5    1  0.5722211E-009  0.3883010E+03  0.7957747E-01  0.3415792E+00
         13   -1    0    0    0    0  0.00000000000E+00  0.00000000000E+00  0.14999999963E+04  0.15000000000E+04  0.10566000000E+00 0. -1.
        994   -1    0    0    0    0 -0.00000000000E+00 -0.00000000000E+00  0.11368683772E-12  0.17120000000E+03  0.17120000000E+03 0.  0.
         13    1    1    2    0    0 -0.25874108493E+02 -0.26900501794E+03  0.12080012673E+04  0.12378611562E+04  0.10566000000E+00 0. -1.
        994    1    1    2    0    0  0.25883315916E+02  0.26909714246E+03  0.29158185431E+03  0.43291181075E+03  0.17120000000E+03 0.  0.
        998    1    1    2    0    0 -0.92074225851E-02 -0.92124519027E-01  0.41687470180E+00  0.42703304397E+00  0.10000000000E-02 0.  0.
</event>
<event>
 5    1  0.5722211E-009  0.3882997E+03  0.7957747E-01  0.3415797E+00
         13   -1    0    0    0    0  0.00000000000E+00  0.00000000000E+00  0.14999999963E+04  0.15000000000E+04  0.10566000000E+00 0.  1.
        994   -1    0    0    0    0 -0.00000000000E+00 -0.00000000000E+00  0.11368683772E-12  0.17120000000E+03  0.17120000000E+03 0.  0.
         13    1    1    2    0    0 -0.24169397981E+03 -0.81034183327E+02  0.11957157097E+04  0.12225868428E+04  0.10566000000E+00 0.  1.
        994    1    1    2    0    0  0.24877908118E+03  0.83190286157E+02  0.27002733144E+03  0.41356481314E+03  0.17120000000E+03 0.  0.
        998    1    1    2    0    0 -0.70851013692E+01 -0.21561028302E+01  0.34256955182E+02  0.35048344044E+02  0.10000000000E-02 0.  1.
</event>
<event>
 5    1  0.5722211E-009  0.3882961E+03  0.7957747E-01  0.3415812E+00
         13   -1    0    0    0    0  0.00000000000E+00  0.00000000000E+00  0.14999999963E+04  0.15000000000E+04  0.10566000000E+00 0. -1.
        994   -1    0    0    0    0 -0.00000000000E+00 -0.00000000000E+00  0.11368683772E-12  0.17120000000E+03  0.17120000000E+03 0.  0.
         13    1    1    2    0    0 -0.36082048037E+02  0.73600973622E+02  0.44329463975E+03  0.45080945676E+03  0.10566000000E+00 0. -1.
        994    1    1    2    0    0  0.10193981380E+03 -0.21593152398E+03  0.21469005578E+03  0.36389477701E+03  0.17120000000E+03 0.  0.
        998    1    1    2    0    0 -0.65857765760E+02  0.14233055036E+03  0.84201530075E+03  0.85649576623E+03  0.10000000000E-02 0. -1.
</event>
<event>
 5    1  0.5722211E-009  0.3883008E+03  0.7957747E-01  0.3415793E+00
         13   -1    0    0    0    0  0.00000000000E+00  0.00000000000E+00  0.14999999963E+04  0.15000000000E+04  0.10566000000E+00 0. -1.
        994   -1    0    0    0    0 -0.00000000000E+00 -0.00000000000E+00  0.11368683772E-12  0.17120000000E+03  0.17120000000E+03 0.  0.
         13    1    1    2    0    0  0.45089493350E+02 -0.20206325146E+03  0.11680386783E+04  0.11862449094E+04  0.10566000000E+00 0. -1.
        994    1    1    2    0    0 -0.50441911165E+02  0.22516069363E+03  0.19805397809E+03  0.34896495898E+03  0.17120000000E+03 0.  0.
        998    1    1    2    0    0  0.53524178148E+01 -0.23097442170E+02  0.13390733992E+03  0.13599013162E+03  0.10000000000E-02 0. -1.
</event>
<event>
 5    1  0.5722211E-009  0.3883006E+03  0.7957747E-01  0.3415793E+00
         13   -1    0    0    0    0  0.00000000000E+00  0.00000000000E+00  0.14999999963E+04  0.15000000000E+04  0.10566000000E+00 0.  1.
        994   -1    0    0    0    0 -0.00000000000E+00 -0.00000000000E+00  0.11368683772E-12  0.17120000000E+03  0.17120000000E+03 0.  0.
         13    1    1    2    0    0  0.22025975898E+03  0.94476645982E+02  0.12814836087E+04  0.13037025920E+04  0.10566000000E+00 0.  1.
        994    1    1    2    0    0 -0.22048154533E+03 -0.94572546336E+02  0.21709164343E+03  0.36605231867E+03  0.17120000000E+03 0.  0.
        998    1    1    2    0    0  0.22178635887E+00  0.95900354299E-01  0.14247441883E+01  0.14450892944E+01  0.10000000000E-02 0. -1.
</event>
<event>
 5    1  0.5722211E-009  0.3883009E+03  0.7957747E-01  0.3415792E+00
         13   -1    0    0    0    0  0.00000000000E+00  0.00000000000E+00  0.14999999963E+04  0.15000000000E+04  0.10566000000E+00 0. -1.
        994   -1    0    0    0    0 -0.00000000000E+00 -0.00000000000E+00  0.11368683772E-12  0.17120000000E+03  0.17120000000E+03 0.  0.
         13    1    1    2    0    0  0.17758431811E+03  0.12264650399E+03  0.12742434042E+04  0.12923910473E+04  0.10566000000E+00 0. -1.
        994    1    1    2    0    0 -0.18357587779E+03 -0.12677665441E+03  0.18317793594E+03  0.33561290086E+03  0.17120000000E+03 0.  0.
        998    1    1    2    0    0  0.59915596835E+01  0.41301504184E+01  0.42578656160E+02  0.43196051803E+02  0.10000000000E-02 0. -1.
</event>
<event>
 5    1  0.5722211E-009  0.3883010E+03  0.7957747E-01  0.3415792E+00
         13   -1    0    0    0    0  0.00000000000E+00  0.00000000000E+00  0.14999999963E+04  0.15000000000E+04  0.10566000000E+00 0. -1.
        994   -1    0    0    0    0 -0.00000000000E+00 -0.00000000000E+00  0.11368683772E-12  0.17120000000E+03  0.17120000000E+03 0.  0.
         13    1    1    2    0    0  0.18736868684E+03 -0.14207373235E+03  0.12902193789E+04  0.13114717027E+04  0.10566000000E+00 0. -1.
        994    1    1    2    0    0 -0.18765719599E+03  0.14229507334E+03  0.20777804823E+03  0.35769298069E+03  0.17120000000E+03 0.  0.
        998    1    1    2    0    0  0.28850915491E+00 -0.22134099877E+00  0.20025691769E+01  0.20353166040E+01  0.10000000000E-02 0.  1.
</event>
<event>
 5    1  0.5722211E-009  0.3883010E+03  0.7957747E-01  0.3415792E+00
         13   -1    0    0    0    0  0.00000000000E+00  0.00000000000E+00  0.14999999963E+04  0.15000000000E+04  0.10566000000E+00 0.  1.
        994   -1    0    0    0    0 -0.00000000000E+00 -0.00000000000E+00  0.11368683772E-12  0.17120000000E+03  0.17120000000E+03 0.  0.
         13    1    1    2    0    0  0.16494573110E+03  0.14203551592E+03  0.13159424444E+04  0.13338237178E+04  0.10566000000E+00 0.  1.
        994    1    1    2    0    0 -0.16599639679E+03 -0.14294236959E+03  0.17566382108E+03  0.32886857984E+03  0.17120000000E+03 0.  0.
        998    1    1    2    0    0  0.10506656865E+01  0.90685366376E+00  0.83937307976E+01  0.85077023722E+01  0.10000000000E-02 0.  0.
</event>
<event>
 5    1  0.5722211E-009  0.3883007E+03  0.7957747E-01  0.3415793E+00
         13   -1    0    0    0    0  0.00000000000E+00  0.00000000000E+00  0.14999999963E+04  0.15000000000E+04  0.10566000000E+00 0.  1.
        994   -1    0    0    0    0 -0.00000000000E+00 -0.00000000000E+00  0.11368683772E-12  0.17120000000E+03  0.17120000000E+03 0.  0.
         13    1    1    2    0    0 -0.18854750096E+03  0.22600258133E+03  0.11280497492E+04  0.11658145541E+04  0.10566000000E+00 0.  1.
        994    1    1    2    0    0  0.18894393107E+03 -0.22652435148E+03  0.36948099662E+03  0.50283072476E+03  0.17120000000E+03 0.  0.
        998    1    1    2    0    0 -0.39643010592E+00  0.52177014891E+00  0.24692505033E+01  0.25547211130E+01  0.10000000000E-02 0. -1.
</event>
<event>
 5    1  0.5722211E-009  0.3883007E+03  0.7957747E-01  0.3415793E+00
         13   -1    0    0    0    0  0.00000000000E+00  0.00000000000E+00  0.14999999963E+04  0.15000000000E+04  0.10566000000E+00 0.  1.
        994   -1    0    0    0    0 -0.00000000000E+00 -0.00000000000E+00  0.11368683772E-12  0.17120000000E+03  0.17120000000E+03 0.  0.
         13    1    1    2    0    0  0.87833703620E+02 -0.21621093795E+03  0.12963507253E+04  0.13171891069E+04  0.10566000000E+00 0.  1.
        994    1    1    2    0    0 -0.87844423284E+02  0.21625064904E+03  0.20345924583E+03  0.35381646461E+03  0.17120000000E+03 0.  0.
        998    1    1    2    0    0  0.10719664036E-01 -0.39711090029E-01  0.19002516929E+00  0.19442851343E+00  0.10000000000E-02 0. -1.
</event>
<event>
 5    1  0.5722211E-009  0.3883009E+03  0.7957747E-01  0.3415792E+00
         13   -1    0    0    0    0  0.00000000000E+00  0.00000000000E+00  0.14999999963E+04  0.15000000000E+04  0.10566000000E+00 0. -1.
        994   -1    0    0    0    0 -0.00000000000E+00 -0.00000000000E+00  0.11368683772E-12  0.17120000000E+03  0.17120000000E+03 0.  0.
         13    1    1    2    0    0  0.13025273555E+03 -0.12524109079E+03  0.93648963466E+03  0.95376304863E+03  0.10566000000E+00 0. -1.
        994    1    1    2    0    0 -0.17692300964E+03  0.17010910952E+03  0.22925481061E+03  0.37696958587E+03  0.17120000000E+03 0.  0.
        998    1    1    2    0    0  0.46670274092E+02 -0.44868018735E+02  0.33425555101E+03  0.34046736550E+03  0.10000000000E-02 0. -1.
</event>
<event>
 5    1  0.5722211E-009  0.3882999E+03  0.7957747E-01  0.3415797E+00
         13   -1    0    0    0    0  0.00000000000E+00  0.00000000000E+00  0.14999999963E+04  0.15000000000E+04  0.10566000000E+00 0. -1.
        994   -1    0    0    0    0 -0.00000000000E+00 -0.00000000000E+00  0.11368683772E-12  0.17120000000E+03  0.17120000000E+03 0.  0.
         13    1    1    2    0    0  0.62430648707E+02 -0.25114361988E+03  0.12232223763E+04  0.12502974433E+04  0.10566000000E+00 0. -1.
        994    1    1    2    0    0 -0.63040009048E+02  0.25318537674E+03  0.26640831365E+03  0.41031659401E+03  0.17120000000E+03 0.  0.
        998    1    1    2    0    0  0.60936034130E+00 -0.20417568686E+01  0.10369306377E+02  0.10585962728E+02  0.10000000000E-02 0.  1.
</event>
<event>
 5    1  0.5722211E-009  0.3878912E+03  0.7957747E-01  0.3417502E+00
         13   -1    0    0    0    0  0.00000000000E+00  0.00000000000E+00  0.14999999963E+04  0.15000000000E+04  0.10566000000E+00 0.  1.
        994   -1    0    0    0    0 -0.00000000000E+00 -0.00000000000E+00  0.11368683772E-12  0.17120000000E+03  0.17120000000E+03 0.  0.
         13    1    1    2    0    0 -0.63884113499E+02  0.27482313096E+02  0.31573100584E+03  0.32329945361E+03  0.10566000000E+00 0.  1.
        994    1    1    2    0    0  0.21684186622E+03 -0.13089713512E+03  0.24817103779E+03  0.39376739190E+03  0.17120000000E+03 0.  0.
        998    1    1    2    0    0 -0.15295775272E+03  0.10341482203E+03  0.93609795265E+03  0.95413315449E+03  0.10000000000E-02 0.  1.
</event>
<event>
 5    1  0.5722211E-009  0.3881546E+03  0.7957747E-01  0.3416403E+00
         13   -1    0    0    0    0  0.00000000000E+00  0.00000000000E+00  0.14999999963E+04  0.15000000000E+04  0.10566000000E+00 0.  1.
        994   -1    0    0    0    0 -0.00000000000E+00 -0.00000000000E+00  0.11368683772E-12  0.17120000000E+03  0.17120000000E+03 0.  0.
         13    1    1    2    0    0  0.24214053866E+02  0.23895594645E+03  0.10925596816E+04  0.11186478149E+04  0.10566000000E+00 0.  1.
        994    1    1    2    0    0 -0.23072753542E+02 -0.26416368636E+03  0.27777981251E+03  0.42045911737E+03  0.17120000000E+03 0.  0.
        998    1    1    2    0    0 -0.11413003241E+01  0.25207739912E+02  0.12966050216E+03  0.13209306772E+03  0.10000000000E-02 0. -1.
</event>
<event>
 5    1  0.5722211E-009  0.3876005E+03  0.7957747E-01  0.3418717E+00
         13   -1    0    0    0    0  0.00000000000E+00  0.00000000000E+00  0.14999999963E+04  0.15000000000E+04  0.10566000000E+00 0. -1.
        994   -1    0    0    0    0 -0.00000000000E+00 -0.00000000000E+00  0.11368683772E-12  0.17120000000E+03  0.17120000000E+03 0.  0.
         13    1    1    2    0    0 -0.98114884264E+01 -0.33771094128E+03  0.70471499502E+03  0.78151659006E+03  0.10566000000E+00 0. -1.
        994    1    1    2    0    0  0.44275365324E+01  0.34763243109E+03  0.77196947571E+03  0.86377903521E+03  0.17120000000E+03 0.  0.
        998    1    1    2    0    0  0.53839518940E+01 -0.99214898124E+01  0.23315525541E+02  0.25904374733E+02  0.10000000000E-02 0.  1.
</event>
<event>
 5    1  0.5722211E-009  0.3883000E+03  0.7957747E-01  0.3415796E+00
         13   -1    0    0    0    0  0.00000000000E+00  0.00000000000E+00  0.14999999963E+04  0.15000000000E+04  0.10566000000E+00 0.  1.
        994   -1    0    0    0    0 -0.00000000000E+00 -0.00000000000E+00  0.11368683772E-12  0.17120000000E+03  0.17120000000E+03 0.  0.
         13    1    1    2    0    0  0.42969767674E+01 -0.25099278541E+03  0.12578026641E+04  0.12826080443E+04  0.10566000000E+00 0.  1.
        994    1    1    2    0    0 -0.42926740528E+01  0.25099743770E+03  0.24214168422E+03  0.38853593916E+03  0.17120000000E+03 0.  0.
        998    1    1    2    0    0 -0.43027145267E-02 -0.46522833954E-02  0.55647926429E-01  0.56016504790E-01  0.10000000000E-02 0.  1.
</event>
<event>
 5    1  0.5722211E-009  0.3882525E+03  0.7957747E-01  0.3415994E+00
         13   -1    0    0    0    0  0.00000000000E+00  0.00000000000E+00  0.14999999963E+04  0.15000000000E+04  0.10566000000E+00 0.  1.
        994   -1    0    0    0    0 -0.00000000000E+00 -0.00000000000E+00  0.11368683772E-12  0.17120000000E+03  0.17120000000E+03 0.  0.
         13    1    1    2    0    0  0.15410200806E+03  0.11235660048E+03  0.10811581734E+04  0.10978499177E+04  0.10566000000E+00 0.  1.
        994    1    1    2    0    0 -0.18352768776E+03 -0.13361448688E+03  0.19075321323E+03  0.34239081710E+03  0.17120000000E+03 0.  0.
        998    1    1    2    0    0  0.29425679697E+02  0.21257886408E+02  0.22808860961E+03  0.23095926522E+03  0.10000000000E-02 0.  1.
</event>
<event>
 5    1  0.5722211E-009  0.3882839E+03  0.7957747E-01  0.3415863E+00
         13   -1    0    0    0    0  0.00000000000E+00  0.00000000000E+00  0.14999999963E+04  0.15000000000E+04  0.10566000000E+00 0.  1.
        994   -1    0    0    0    0 -0.00000000000E+00 -0.00000000000E+00  0.11368683772E-12  0.17120000000E+03  0.17120000000E+03 0.  0.
         13    1    1    2    0    0  0.12937157366E+03  0.17812018732E+03  0.13174318263E+04  0.13356984814E+04  0.10566000000E+00 0.  1.
        994    1    1    2    0    0 -0.12958553514E+03 -0.17882907729E+03  0.17897741173E+03  0.33183520566E+03  0.17120000000E+03 0.  0.
        998    1    1    2    0    0  0.21396148200E+00  0.70888997887E+00  0.35907582740E+01  0.36663129300E+01  0.10000000000E-02 0.  1.
</event>
<event>
 5    1  0.5722211E-009  0.3883010E+03  0.7957747E-01  0.3415792E+00
         13   -1    0    0    0    0  0.00000000000E+00  0.00000000000E+00  0.14999999963E+04  0.15000000000E+04  0.10566000000E+00 0.  1.
        994   -1    0    0    0    0 -0.00000000000E+00 -0.00000000000E+00  0.11368683772E-12  0.17120000000E+03  0.17120000000E+03 0.  0.
         13    1    1    2    0    0  0.23342046787E+03  0.15031758988E+03  0.11838194018E+04  0.12159395051E+04  0.10566000000E+00 0.  1.
        994    1    1    2    0    0 -0.23383228059E+03 -0.15058212877E+03  0.31410085286E+03  0.45312393307E+03  0.17120000000E+03 0.  0.
        998    1    1    2    0    0  0.41181272487E+00  0.26453889099E+00  0.20797415928E+01  0.21365618732E+01  0.10000000000E-02 0.  1.
</event>
<event>
 5    1  0.5722211E-009  0.3883001E+03  0.7957747E-01  0.3415796E+00
         13   -1    0    0    0    0  0.00000000000E+00  0.00000000000E+00  0.14999999963E+04  0.15000000000E+04  0.10566000000E+00 0.  1.
        994   -1    0    0    0    0 -0.00000000000E+00 -0.00000000000E+00  0.11368683772E-12  0.17120000000E+03  0.17120000000E+03 0.  0.
         13    1    1    2    0    0 -0.20656855031E+03  0.18532558392E+03  0.11204393480E+04  0.11542965311E+04  0.10566000000E+00 0.  1.
        994    1    1    2    0    0  0.21353183875E+03 -0.19175358020E+03  0.34198442985E+03  0.47815067912E+03  0.17120000000E+03 0.  0.
        998    1    1    2    0    0 -0.69632884395E+01  0.64279962808E+01  0.37576218398E+02  0.38752789734E+02  0.10000000000E-02 0.  1.
</event>
<event>
 5    1  0.5722211E-009  0.3854363E+03  0.7957747E-01  0.3427824E+00
         13   -1    0    0    0    0  0.00000000000E+00  0.00000000000E+00  0.14999999963E+04  0.15000000000E+04  0.10566000000E+00 0.  1.
        994   -1    0    0    0    0 -0.00000000000E+00 -0.00000000000E+00  0.11368683772E-12  0.17120000000E+03  0.17120000000E+03 0.  0.
         13    1    1    2    0    0 -0.20620138243E+03  0.60977910533E+02  0.72553428565E+03  0.75672803999E+03  0.10566000000E+00 0.  1.
        994    1    1    2    0    0  0.30751604483E+03 -0.10799938916E+03  0.52583690623E+03  0.64190644010E+03  0.17120000000E+03 0.  0.
        998    1    1    2    0    0 -0.10131466240E+03  0.47021478623E+02  0.24862880440E+03  0.27256551991E+03  0.10000000000E-02 0. -1.
</event>
<event>
 5    1  0.5722211E-009  0.3882986E+03  0.7957747E-01  0.3415802E+00
         13   -1    0    0    0    0  0.00000000000E+00  0.00000000000E+00  0.14999999963E+04  0.15000000000E+04  0.10566000000E+00 0.  1.
        994   -1    0    0    0    0 -0.00000000000E+00 -0.00000000000E+00  0.11368683772E-12  0.17120000000E+03  0.17120000000E+03 0.  0.
         13    1    1    2    0    0 -0.16554869188E+02  0.23995281089E+03  0.12797654074E+04  0.13021716186E+04  0.10566000000E+00 0.  1.
        994    1    1    2    0    0  0.16629414440E+02 -0.24018000855E+03  0.21892283521E+03  0.36769501181E+03  0.17120000000E+03 0.  0.
        998    1    1    2    0    0 -0.74545251682E-01  0.22719766850E+00  0.13117536283E+01  0.13333695499E+01  0.10000000000E-02 0.  1.
</event>
<event>
 5    1  0.5722211E-009  0.3873727E+03  0.7957747E-01  0.3419671E+00
         13   -1    0    0    0    0  0.00000000000E+00  0.00000000000E+00  0.14999999963E+04  0.15000000000E+04  0.10566000000E+00 0.  1.
        994   -1    0    0    0    0 -0.00000000000E+00 -0.00000000000E+00  0.11368683772E-12  0.17120000000E+03  0.17120000000E+03 0.  0.
         13    1    1    2    0    0  0.62954180732E+02 -0.16068280581E+03  0.77208537162E+03  0.79113717217E+03  0.10566000000E+00 0.  1.
        994    1    1    2    0    0 -0.74154835160E+02  0.24713168921E+03  0.26068359073E+03  0.40476954662E+03  0.17120000000E+03 0.  0.
        998    1    1    2    0    0  0.11200654428E+02 -0.86448883405E+02  0.46723103393E+03  0.47529328121E+03  0.10000000000E-02 0. -1.
</event>
<event>
 5    1  0.5722211E-009  0.3883009E+03  0.7957747E-01  0.3415792E+00
         13   -1    0    0    0    0  0.00000000000E+00  0.00000000000E+00  0.14999999963E+04  0.15000000000E+04  0.10566000000E+00 0.  1.
        994   -1    0    0    0    0 -0.00000000000E+00 -0.00000000000E+00  0.11368683772E-12  0.17120000000E+03  0.17120000000E+03 0.  0.
         13    1    1    2    0    0  0.24748794025E+03  0.32526681060E+02  0.12592784818E+04  0.12837797986E+04  0.10566000000E+00 0.  1.
        994    1    1    2    0    0 -0.24774767779E+03 -0.32567772178E+02  0.23943301673E+03  0.38610514259E+03  0.17120000000E+03 0.  0.
        998    1    1    2    0    0  0.25973754555E+00  0.41091118500E-01  0.12884977914E+01  0.13150587938E+01  0.10000000000E-02 0. -1.
</event>
<event>
 5    1  0.5722211E-009  0.3882995E+03  0.7957747E-01  0.3415798E+00
         13   -1    0    0    0    0  0.00000000000E+00  0.00000000000E+00  0.14999999963E+04  0.15000000000E+04  0.10566000000E+00 0. -1.
        994   -1    0    0    0    0 -0.00000000000E+00 -0.00000000000E+00  0.11368683772E-12  0.17120000000E+03  0.17120000000E+03 0.  0.
         13    1    1    2    0    0  0.22799631776E+03 -0.53795262159E+02  0.12945560361E+04  0.13155803255E+04  0.10566000000E+00 0. -1.
        994    1    1    2    0    0 -0.22801470046E+03  0.53810093287E+02  0.20523921542E+03  0.35541356940E+03  0.17120000000E+03 0.  0.
        998    1    1    2    0    0  0.18382704983E-01 -0.14831128118E-01  0.20474480155E+00  0.20610511873E+00  0.10000000000E-02 0. -1.
</event>
<event>
 5    1  0.5722211E-009  0.3883009E+03  0.7957747E-01  0.3415792E+00
         13   -1    0    0    0    0  0.00000000000E+00  0.00000000000E+00  0.14999999963E+04  0.15000000000E+04  0.10566000000E+00 0. -1.
        994   -1    0    0    0    0 -0.00000000000E+00 -0.00000000000E+00  0.11368683772E-12  0.17120000000E+03  0.17120000000E+03 0.  0.
         13    1    1    2    0    0 -0.50489053314E+01 -0.76041890892E+02  0.42000777402E+03  0.42686578923E+03  0.10566000000E+00 0. -1.
        994    1    1    2    0    0  0.15920730185E+02  0.23390446519E+03  0.20558259494E+03  0.35572238027E+03  0.17120000000E+03 0.  0.
        998    1    1    2    0    0 -0.10871824853E+02 -0.15786257430E+03  0.87440962733E+03  0.88861183050E+03  0.10000000000E-02 0. -1.
</event>
<event>
 5    1  0.5722211E-009  0.3882924E+03  0.7957747E-01  0.3415828E+00
         13   -1    0    0    0    0  0.00000000000E+00  0.00000000000E+00  0.14999999963E+04  0.15000000000E+04  0.10566000000E+00 0.  1.
        994   -1    0    0    0    0 -0.00000000000E+00 -0.00000000000E+00  0.11368683772E-12  0.17120000000E+03  0.17120000000E+03 0.  0.
         13    1    1    2    0    0  0.16442150399E+03  0.11557550711E+03  0.11819054006E+04  0.11988713509E+04  0.10566000000E+00 0.  1.
        994    1    1    2    0    0 -0.18200106688E+03 -0.12893696092E+03  0.18308995984E+03  0.33553017991E+03  0.17120000000E+03 0.  0.
        998    1    1    2    0    0  0.17579562896E+02  0.13361453812E+02  0.13500463580E+03  0.13679846917E+03  0.10000000000E-02 0. -1.
</event>
<event>
 5    1  0.5722211E-009  0.3883010E+03  0.7957747E-01  0.3415792E+00
         13   -1    0    0    0    0  0.00000000000E+00  0.00000000000E+00  0.14999999963E+04  0.15000000000E+04  0.10566000000E+00 0. -1.
        994   -1    0    0    0    0 -0.00000000000E+00 -0.00000000000E+00  0.11368683772E-12  0.17120000000E+03  0.17120000000E+03 0.  0.
         13    1    1    2    0    0  0.72199163567E+02  0.24044171176E+03  0.12450082561E+04  0.12700671262E+04  0.10566000000E+00 0. -1.
        994    1    1    2    0    0 -0.72697584516E+02 -0.24212480348E+03  0.24633671242E+03  0.39230163795E+03  0.17120000000E+03 0.  0.
        998    1    1    2    0    0  0.49842094956E+00  0.16830917219E+01  0.86550277409E+01  0.88312358922E+01  0.10000000000E-02 0.  1.
</event>
<event>
 5    1  0.5722211E-009  0.3883009E+03  0.7957747E-01  0.3415792E+00
         13   -1    0    0    0    0  0.00000000000E+00  0.00000000000E+00  0.14999999963E+04  0.15000000000E+04  0.10566000000E+00 0. -1.
        994   -1    0    0    0    0 -0.00000000000E+00 -0.00000000000E+00  0.11368683772E-12  0.17120000000E+03  0.17120000000E+03 0.  0.
         13    1    1    2    0    0 -0.24492851737E+03 -0.54368908985E+01  0.12702956578E+04  0.12937042196E+04  0.10566000000E+00 0. -1.
        994    1    1    2    0    0  0.24513037278E+03  0.54478772162E+01  0.22870381355E+03  0.37647503683E+03  0.17120000000E+03 0.  0.
        998    1    1    2    0    0 -0.20185541496E+00 -0.10986317697E-01  0.10005249230E+01  0.10207435669E+01  0.10000000000E-02 0.  1.
</event>
<event>
 5    1  0.5722211E-009  0.3882976E+03  0.7957747E-01  0.3415806E+00
         13   -1    0    0    0    0  0.00000000000E+00  0.00000000000E+00  0.14999999963E+04  0.15000000000E+04  0.10566000000E+00 0. -1.
        994   -1    0    0    0    0 -0.00000000000E+00 -0.00000000000E+00  0.11368683772E-12  0.17120000000E+03  0.17120000000E+03 0.  0.
         13    1    1    2    0    0  0.21806328979E+03  0.93823460218E+02  0.11558490388E+04  0.11799751912E+04  0.10566000000E+00 0. -1.
        994    1    1    2    0    0 -0.23491817329E+03 -0.10174054509E+03  0.25409456782E+03  0.39926329164E+03  0.17120000000E+03 0.  0.
        998    1    1    2    0    0  0.16854883500E+02  0.79170848698E+01  0.90056389621E+02  0.91961517187E+02  0.10000000000E-02 0.  1.
</event>
<event>
 5    1  0.5722211E-009  0.3883009E+03  0.7957747E-01  0.3415792E+00
         13   -1    0    0    0    0  0.00000000000E+00  0.00000000000E+00  0.14999999963E+04  0.15000000000E+04  0.10566000000E+00 0.  1.
        994   -1    0    0    0    0 -0.00000000000E+00 -0.00000000000E+00  0.11368683772E-12  0.17120000000E+03  0.17120000000E+03 0.  0.
         13    1    1    2    0    0  0.22150248513E+03  0.93783982007E+02  0.12750660112E+04  0.12975562147E+04  0.10566000000E+00 0.  1.
        994    1    1    2    0    0 -0.22230044017E+03 -0.94110059350E+02  0.22032158849E+03  0.36895152977E+03  0.17120000000E+03 0.  0.
        998    1    1    2    0    0  0.79795503835E+00  0.32607734238E+00  0.46123965759E+01  0.46922555184E+01  0.10000000000E-02 0.  1.
</event>
<event>
 5    1  0.6555038E-009  0.3882995E+03  0.7957747E-01  0.3415798E+00
         13   -1    0    0    0    0  0.00000000000E+00  0.00000000000E+00  0.14999999963E+04  0.15000000000E+04  0.10566000000E+00 0.  1.
        994   -1    0    0    0    0 -0.00000000000E+00 -0.00000000000E+00  0.11368683772E-12  0.17120000000E+03  0.17120000000E+03 0.  0.
         13    1    1    2    0    0  0.16498200131E+03 -0.23834770730E+03  0.11481795268E+04  0.11842064547E+04  0.10566000000E+00 0.  1.
        994    1    1    2    0    0 -0.16498468848E+03  0.23837013422E+03  0.35169706475E+03  0.48686808652E+03  0.17120000000E+03 0.  0.
        998    1    1    2    0    0  0.26871725265E-02 -0.22426922109E-01  0.12340472381E+00  0.12545881232E+00  0.10000000000E-02 0.  1.
</event>
<event>
 5    1  0.5722211E-009  0.3882979E+03  0.7957747E-01  0.3415805E+00
         13   -1    0    0    0    0  0.00000000000E+00  0.00000000000E+00  0.14999999963E+04  0.15000000000E+04  0.10566000000E+00 0. -1.
        994   -1    0    0    0    0 -0.00000000000E+00 -0.00000000000E+00  0.11368683772E-12  0.17120000000E+03  0.17120000000E+03 0.  0.
         13    1    1    2    0    0 -0.23816084585E+03 -0.42056203038E+02  0.12757835143E+04  0.12985041006E+04  0.10566000000E+00 0. -1.
        994    1    1    2    0    0  0.23848794316E+03  0.42170894525E+02  0.22204615716E+03  0.37049806921E+03  0.17120000000E+03 0.  0.
        998    1    1    2    0    0 -0.32709731216E+00 -0.11469148666E+00  0.21703247987E+01  0.21978301847E+01  0.10000000000E-02 0.  1.
</event>
<event>
 5    1  0.5722211E-009  0.3883009E+03  0.7957747E-01  0.3415792E+00
         13   -1    0    0    0    0  0.00000000000E+00  0.00000000000E+00  0.14999999963E+04  0.15000000000E+04  0.10566000000E+00 0. -1.
        994   -1    0    0    0    0 -0.00000000000E+00 -0.00000000000E+00  0.11368683772E-12  0.17120000000E+03  0.17120000000E+03 0.  0.
         13    1    1    2    0    0  0.24401408101E+03  0.31887269180E+02  0.12552208743E+04  0.12791165404E+04  0.10566000000E+00 0. -1.
        994    1    1    2    0    0 -0.24588813199E+03 -0.32135084239E+02  0.23503516864E+03  0.38215783073E+03  0.17120000000E+03 0.  0.
        998    1    1    2    0    0  0.18740509828E+01  0.24781505907E+00  0.97439533752E+01  0.99256288349E+01  0.10000000000E-02 0.  1.
</event>
<event>
 5    1  0.5722211E-009  0.3883010E+03  0.7957747E-01  0.3415792E+00
         13   -1    0    0    0    0  0.00000000000E+00  0.00000000000E+00  0.14999999963E+04  0.15000000000E+04  0.10566000000E+00 0.  1.
        994   -1    0    0    0    0 -0.00000000000E+00 -0.00000000000E+00  0.11368683772E-12  0.17120000000E+03  0.17120000000E+03 0.  0.
         13    1    1    2    0    0 -0.19700600009E+03  0.12864647554E+03  0.11610653871E+04  0.11846662500E+04  0.10566000000E+00 0.  1.
        994    1    1    2    0    0  0.21235706941E+03 -0.13872480871E+03  0.24837661234E+03  0.39413256531E+03  0.17120000000E+03 0.  0.
        998    1    1    2    0    0 -0.15351069323E+02  0.10078333168E+02  0.90557996880E+02  0.92401184671E+02  0.10000000000E-02 0.  1.
</event>
<event>
 5    1  0.5722211E-009  0.3883010E+03  0.7957747E-01  0.3415792E+00
         13   -1    0    0    0    0  0.00000000000E+00  0.00000000000E+00  0.14999999963E+04  0.15000000000E+04  0.10566000000E+00 0. -1.
        994   -1    0    0    0    0 -0.00000000000E+00 -0.00000000000E+00  0.11368683772E-12  0.17120000000E+03  0.17120000000E+03 0.  0.
         13    1    1    2    0    0  0.12117039747E+03 -0.22887331311E+03  0.11892916495E+04  0.12171605882E+04  0.10566000000E+00 0. -1.
        994    1    1    2    0    0 -0.12438373970E+03  0.23492646827E+03  0.27925018153E+03  0.42184341180E+03  0.17120000000E+03 0.  0.
        998    1    1    2    0    0  0.32133422333E+01 -0.60531551591E+01  0.31458165269E+02  0.32196000043E+02  0.10000000000E-02 0. -1.
</event>
<event>
 5    1  0.5722211E-009  0.3882825E+03  0.7957747E-01  0.3415869E+00
         13   -1    0    0    0    0  0.00000000000E+00  0.00000000000E+00  0.14999999963E+04  0.15000000000E+04  0.10566000000E+00 0.  1.
        994   -1    0    0    0    0 -0.00000000000E+00 -0.00000000000E+00  0.11368683772E-12  0.17120000000E+03  0.17120000000E+03 0.  0.
         13    1    1    2    0    0 -0.13174979451E+03 -0.67160082554E+02  0.69311226319E+03  0.70871228689E+03  0.10566000000E+00 0.  1.
        994    1    1    2    0    0  0.23568026786E+03  0.11499584372E+03  0.26984870272E+03  0.41339689778E+03  0.17120000000E+03 0.  0.
        998    1    1    2    0    0 -0.10393047335E+03 -0.47835761169E+02  0.53703903037E+03  0.54909081533E+03  0.10000000000E-02 0.  1.
</event>
<event>
 5    1  0.5722211E-009  0.3883003E+03  0.7957747E-01  0.3415795E+00
         13   -1    0    0    0    0  0.00000000000E+00  0.00000000000E+00  0.14999999963E+04  0.15000000000E+04  0.10566000000E+00 0.  1.
        994   -1    0    0    0    0 -0.00000000000E+00 -0.00000000000E+00  0.11368683772E-12  0.17120000000E+03  0.17120000000E+03 0.  0.
         13    1    1    2    0    0  0.19783422401E+03 -0.13091472983E+03  0.12690296602E+04  0.12910125236E+04  0.10566000000E+00 0.  1.
        994    1    1    2    0    0 -0.20000768706E+03  0.13245381146E+03  0.21705172607E+03  0.36601636417E+03  0.17120000000E+03 0.  0.
        998    1    1    2    0    0  0.21734630529E+01 -0.15390816255E+01  0.13918610040E+02  0.14171112177E+02  0.10000000000E-02 0.  1.
</event>
<event>
 5    1  0.5722211E-009  0.3882923E+03  0.7957747E-01  0.3415828E+00
         13   -1    0    0    0    0  0.00000000000E+00  0.00000000000E+00  0.14999999963E+04  0.15000000000E+04  0.10566000000E+00 0. -1.
        994   -1    0    0    0    0 -0.00000000000E+00 -0.00000000000E+00  0.11368683772E-12  0.17120000000E+03  0.17120000000E+03 0.  0.
         13    1    1    2    0    0  0.13159745711E+03 -0.17932958525E+03  0.13120704155E+04  0.13307914101E+04  0.10566000000E+00 0. -1.
        994    1    1    2    0    0 -0.13210813038E+03  0.17976608258E+03  0.18317168382E+03  0.33560349866E+03  0.17120000000E+03 0.  0.
        998    1    1    2    0    0  0.51067327091E+00 -0.43649733124E+00  0.47578969384E+01  0.48050911944E+01  0.10000000000E-02 0. -1.
</event>
<event>
 5    1  0.5722211E-009  0.3883010E+03  0.7957747E-01  0.3415792E+00
         13   -1    0    0    0    0  0.00000000000E+00  0.00000000000E+00  0.14999999963E+04  0.15000000000E+04  0.10566000000E+00 0.  1.
        994   -1    0    0    0    0 -0.00000000000E+00 -0.00000000000E+00  0.11368683772E-12  0.17120000000E+03  0.17120000000E+03 0.  0.
         13    1    1    2    0    0  0.22010453658E+03  0.13301621775E+03  0.12403897377E+04  0.12667699214E+04  0.10566000000E+00 0.  1.
        994    1    1    2    0    0 -0.22041705033E+03 -0.13320443797E+03  0.25788780934E+03  0.40266941848E+03  0.17120000000E+03 0.  0.
        998    1    1    2    0    0  0.31251374592E+00  0.18822021859E+00  0.17224492224E+01  0.17606601080E+01  0.10000000000E-02 0.  1.
</event>
<event>
 5    1  0.5722211E-009  0.3883006E+03  0.7957747E-01  0.3415793E+00
         13   -1    0    0    0    0  0.00000000000E+00  0.00000000000E+00  0.14999999963E+04  0.15000000000E+04  0.10566000000E+00 0.  1.
        994   -1    0    0    0    0 -0.00000000000E+00 -0.00000000000E+00  0.11368683772E-12  0.17120000000E+03  0.17120000000E+03 0.  0.
         13    1    1    2    0    0  0.47140733183E+01  0.12027740925E+03  0.71950444037E+03  0.72950361791E+03  0.10566000000E+00 0.  1.
        994    1    1    2    0    0 -0.92475720693E+01 -0.22056208097E+03  0.17879243507E+03  0.33167653518E+03  0.17120000000E+03 0.  0.
        998    1    1    2    0    0  0.45334987511E+01  0.10028467172E+03  0.60170312084E+03  0.61001984691E+03  0.10000000000E-02 0.  1.
</event>
<event>
 5    1  0.5722211E-009  0.3882937E+03  0.7957747E-01  0.3415822E+00
         13   -1    0    0    0    0  0.00000000000E+00  0.00000000000E+00  0.14999999963E+04  0.15000000000E+04  0.10566000000E+00 0.  1.
        994   -1    0    0    0    0 -0.00000000000E+00 -0.00000000000E+00  0.11368683772E-12  0.17120000000E+03  0.17120000000E+03 0.  0.
         13    1    1    2    0    0  0.23268483905E+03 -0.82451116227E+02  0.11734413327E+04  0.11991267628E+04  0.10566000000E+00 0.  1.
        994    1    1    2    0    0 -0.24453489713E+03  0.87117648428E+02  0.26304309565E+03  0.40729339640E+03  0.17120000000E+03 0.  0.
        998    1    1    2    0    0  0.11850058084E+02 -0.46665322006E+01  0.63515567964E+02  0.64779840801E+02  0.10000000000E-02 0.  1.
</event>
<event>
 5    1  0.5722211E-009  0.3883007E+03  0.7957747E-01  0.3415793E+00
         13   -1    0    0    0    0  0.00000000000E+00  0.00000000000E+00  0.14999999963E+04  0.15000000000E+04  0.10566000000E+00 0.  1.
        994   -1    0    0    0    0 -0.00000000000E+00 -0.00000000000E+00  0.11368683772E-12  0.17120000000E+03  0.17120000000E+03 0.  0.
         13    1    1    2    0    0  0.28681127070E+03  0.26402389839E+02  0.11535485757E+04  0.11889626230E+04  0.10566000000E+00 0.  1.
        994    1    1    2    0    0 -0.28696058937E+03 -0.26422167523E+02  0.34589521464E+03  0.48166113638E+03  0.17120000000E+03 0.  0.
        998    1    1    2    0    0  0.14931867543E+00  0.19777684106E-01  0.55620591604E+00  0.57624061351E+00  0.10000000000E-02 0.  1.
</event>
<event>
 5    1  0.5722211E-009  0.3883010E+03  0.7957747E-01  0.3415792E+00
         13   -1    0    0    0    0  0.00000000000E+00  0.00000000000E+00  0.14999999963E+04  0.15000000000E+04  0.10566000000E+00 0.  1.
        994   -1    0    0    0    0 -0.00000000000E+00 -0.00000000000E+00  0.11368683772E-12  0.17120000000E+03  0.17120000000E+03 0.  0.
         13    1    1    2    0    0 -0.99881532300E+02  0.23577314765E+03  0.12452135905E+04  0.12712679477E+04  0.10566000000E+00 0.  1.
        994    1    1    2    0    0  0.99910774983E+02 -0.23584448315E+03  0.25441073802E+03  0.39954855376E+03  0.17120000000E+03 0.  0.
        998    1    1    2    0    0 -0.29242683753E-01  0.71335497033E-01  0.37566774586E+00  0.38349855668E+00  0.10000000000E-02 0.  1.
</event>
<event>
 5    1  0.5722211E-009  0.3882993E+03  0.7957747E-01  0.3415799E+00
         13   -1    0    0    0    0  0.00000000000E+00  0.00000000000E+00  0.14999999963E+04  0.15000000000E+04  0.10566000000E+00 0. -1.
        994   -1    0    0    0    0 -0.00000000000E+00 -0.00000000000E+00  0.11368683772E-12  0.17120000000E+03  0.17120000000E+03 0.  0.
         13    1    1    2    0    0  0.62825537222E+01  0.21938676537E+03  0.13230339704E+04  0.13411148054E+04  0.10566000000E+00 0. -1.
        994    1    1    2    0    0 -0.62673007856E+01 -0.21943707932E+03  0.17652237420E+03  0.32963843743E+03  0.17120000000E+03 0.  0.
        998    1    1    2    0    0 -0.15252936519E-01  0.50313942780E-01  0.44365168105E+00  0.44675715888E+00  0.10000000000E-02 0. -1.
</event>
<event>
 5    1  0.5722211E-009  0.3882992E+03  0.7957747E-01  0.3415799E+00
         13   -1    0    0    0    0  0.00000000000E+00  0.00000000000E+00  0.14999999963E+04  0.15000000000E+04  0.10566000000E+00 0. -1.
        994   -1    0    0    0    0 -0.00000000000E+00 -0.00000000000E+00  0.11368683772E-12  0.17120000000E+03  0.17120000000E+03 0.  0.
         13    1    1    2    0    0  0.21403976073E+03 -0.93580201721E+02  0.12742887799E+04  0.12955239013E+04  0.10566000000E+00 0. -1.
        994    1    1    2    0    0 -0.21665025605E+03  0.94914560728E+02  0.20991644701E+03  0.35961154321E+03  0.17120000000E+03 0.  0.
        998    1    1    2    0    0  0.26104953222E+01 -0.13343590068E+01  0.15794769411E+02  0.16064555441E+02  0.10000000000E-02 0. -1.
</event>
<event>
 5    1  0.5722211E-009  0.3827010E+03  0.7957747E-01  0.3439481E+00
         13   -1    0    0    0    0  0.00000000000E+00  0.00000000000E+00  0.14999999963E+04  0.15000000000E+04  0.10566000000E+00 0.  1.
        994   -1    0    0    0    0 -0.00000000000E+00 -0.00000000000E+00  0.11368683772E-12  0.17120000000E+03  0.17120000000E+03 0.  0.
         13    1    1    2    0    0 -0.14626300984E+03  0.10546398346E+03  0.60197662992E+03  0.62840384625E+03  0.10566000000E+00 0.  1.
        994    1    1    2    0    0  0.21787567024E+03 -0.15560486352E+03  0.29545457603E+03  0.43391880316E+03  0.17120000000E+03 0.  0.
        998    1    1    2    0    0 -0.71612660405E+02  0.50140880061E+02  0.60256879033E+03  0.60887735059E+03  0.10000000000E-02 0. -1.
</event>
<event>
 5    1  0.5722211E-009  0.3883009E+03  0.7957747E-01  0.3415792E+00
         13   -1    0    0    0    0  0.00000000000E+00  0.00000000000E+00  0.14999999963E+04  0.15000000000E+04  0.10566000000E+00 0. -1.
        994   -1    0    0    0    0 -0.00000000000E+00 -0.00000000000E+00  0.11368683772E-12  0.17120000000E+03  0.17120000000E+03 0.  0.
         13    1    1    2    0    0  0.24559499113E+03 -0.12608754294E+03  0.10274174169E+04  0.10638616113E+04  0.10566000000E+00 0. -1.
        994    1    1    2    0    0 -0.26629318197E+03  0.13680840347E+03  0.38577519770E+03  0.51745583500E+03  0.17120000000E+03 0.  0.
        998    1    1    2    0    0  0.20698190842E+02 -0.10720860527E+02  0.86807381663E+02  0.89882553739E+02  0.10000000000E-02 0. -1.
</event>
<event>
 5    1  0.5722211E-009  0.3882977E+03  0.7957747E-01  0.3415806E+00
         13   -1    0    0    0    0  0.00000000000E+00  0.00000000000E+00  0.14999999963E+04  0.15000000000E+04  0.10566000000E+00 0. -1.
        994   -1    0    0    0    0 -0.00000000000E+00 -0.00000000000E+00  0.11368683772E-12  0.17120000000E+03  0.17120000000E+03 0.  0.
         13    1    1    2    0    0  0.29063750779E+03 -0.60185995101E+02  0.11238610935E+04  0.11623924826E+04  0.10566000000E+00 0. -1.
        994    1    1    2    0    0 -0.29063365938E+03  0.60190866717E+02  0.37613171832E+03  0.50879796965E+03  0.17120000000E+03 0.  0.
        998    1    1    2    0    0 -0.38484136461E-02 -0.48716160059E-02  0.71844139308E-02  0.95477082920E-02  0.10000000000E-02 0. -1.
</event>
<event>
 5    1  0.5722211E-009  0.3883010E+03  0.7957747E-01  0.3415792E+00
         13   -1    0    0    0    0  0.00000000000E+00  0.00000000000E+00  0.14999999963E+04  0.15000000000E+04  0.10566000000E+00 0. -1.
        994   -1    0    0    0    0 -0.00000000000E+00 -0.00000000000E+00  0.11368683772E-12  0.17120000000E+03  0.17120000000E+03 0.  0.
         13    1    1    2    0    0  0.19776729200E+03 -0.11711686076E+03  0.12867836696E+04  0.13071497560E+04  0.10566000000E+00 0. -1.
        994    1    1    2    0    0 -0.19968916616E+03  0.11825362949E+03  0.20074276628E+03  0.35137840312E+03  0.17120000000E+03 0.  0.
        998    1    1    2    0    0  0.19218741591E+01 -0.11367687275E+01  0.12473560356E+02  0.12671840923E+02  0.10000000000E-02 0. -1.
</event>
<event>
 5    1  0.5722211E-009  0.3883004E+03  0.7957747E-01  0.3415794E+00
         13   -1    0    0    0    0  0.00000000000E+00  0.00000000000E+00  0.14999999963E+04  0.15000000000E+04  0.10566000000E+00 0. -1.
        994   -1    0    0    0    0 -0.00000000000E+00 -0.00000000000E+00  0.11368683772E-12  0.17120000000E+03  0.17120000000E+03 0.  0.
         13    1    1    2    0    0 -0.12998850535E+03 -0.17695208841E+03  0.13208532907E+04  0.13389781477E+04  0.10566000000E+00 0. -1.
        994    1    1    2    0    0  0.13016684620E+03  0.17724263655E+03  0.17721869731E+03  0.33026393496E+03  0.17120000000E+03 0.  0.
        998    1    1    2    0    0 -0.17834084448E+00 -0.29054814072E+00  0.19280082283E+01  0.19579173648E+01  0.10000000000E-02 0.  1.
</event>
<event>
 5    1  0.5722211E-009  0.3883008E+03  0.7957747E-01  0.3415792E+00
         13   -1    0    0    0    0  0.00000000000E+00  0.00000000000E+00  0.14999999963E+04  0.15000000000E+04  0.10566000000E+00 0. -1.
        994   -1    0    0    0    0 -0.00000000000E+00 -0.00000000000E+00  0.11368683772E-12  0.17120000000E+03  0.17120000000E+03 0.  0.
         13    1    1    2    0    0  0.15570803118E+03  0.20881038594E+03  0.12345070989E+04  0.12616871865E+04  0.10566000000E+00 0. -1.
        994    1    1    2    0    0 -0.15572833397E+03 -0.20883558218E+03  0.26536094550E+03  0.40937694828E+03  0.17120000000E+03 0.  0.
        998    1    1    2    0    0  0.20302785454E-01  0.25196231962E-01  0.13195189439E+00  0.13586521128E+00  0.10000000000E-02 0.  1.
</event>
<event>
 5    1  0.5722211E-009  0.3882638E+03  0.7957747E-01  0.3415947E+00
         13   -1    0    0    0    0  0.00000000000E+00  0.00000000000E+00  0.14999999963E+04  0.15000000000E+04  0.10566000000E+00 0.  1.
        994   -1    0    0    0    0 -0.00000000000E+00 -0.00000000000E+00  0.11368683772E-12  0.17120000000E+03  0.17120000000E+03 0.  0.
         13    1    1    2    0    0  0.29450411768E+02  0.22787879866E+03  0.12973869018E+04  0.13175768888E+04  0.10566000000E+00 0.  1.
        994    1    1    2    0    0 -0.29295783701E+02 -0.22843266405E+03  0.19722684234E+03  0.34820624964E+03  0.17120000000E+03 0.  0.
        998    1    1    2    0    0 -0.15462806722E+00  0.55386538985E+00  0.53862521038E+01  0.54168615853E+01  0.10000000000E-02 0.  1.
</event>
<event>
 5    1  0.5722211E-009  0.3880509E+03  0.7957747E-01  0.3416835E+00
         13   -1    0    0    0    0  0.00000000000E+00  0.00000000000E+00  0.14999999963E+04  0.15000000000E+04  0.10566000000E+00 0. -1.
        994   -1    0    0    0    0 -0.00000000000E+00 -0.00000000000E+00  0.11368683772E-12  0.17120000000E+03  0.17120000000E+03 0.  0.
         13    1    1    2    0    0 -0.19728308780E+03  0.17795848713E+03  0.12109982420E+04  0.12398010296E+04  0.10566000000E+00 0. -1.
        994    1    1    2    0    0  0.19920307905E+03 -0.17873154680E+03  0.28460707283E+03  0.42654127401E+03  0.17120000000E+03 0.  0.
        998    1    1    2    0    0 -0.19199912418E+01  0.77305966640E+00  0.43946814878E+01  0.48576963672E+01  0.10000000000E-02 0. -1.
</event>
<event>
 5    1  0.5722211E-009  0.3848623E+03  0.7957747E-01  0.3430256E+00
         13   -1    0    0    0    0  0.00000000000E+00  0.00000000000E+00  0.14999999963E+04  0.15000000000E+04  0.10566000000E+00 0. -1.
        994   -1    0    0    0    0 -0.00000000000E+00 -0.00000000000E+00  0.11368683772E-12  0.17120000000E+03  0.17120000000E+03 0.  0.
         13    1    1    2    0    0  0.61213311741E+02 -0.16986217011E+03  0.10005143023E+04  0.10166755169E+04  0.10566000000E+00 0. -1.
        994    1    1    2    0    0 -0.11524516955E+03  0.21147962303E+03  0.22420494933E+03  0.37092098804E+03  0.17120000000E+03 0.  0.
        998    1    1    2    0    0  0.54031857806E+02 -0.41617452917E+02  0.27528074461E+03  0.28360349504E+03  0.10000000000E-02 0. -1.
</event>
<event>
 5    1  0.5722211E-009  0.3875843E+03  0.7957747E-01  0.3418785E+00
         13   -1    0    0    0    0  0.00000000000E+00  0.00000000000E+00  0.14999999963E+04  0.15000000000E+04  0.10566000000E+00 0. -1.
        994   -1    0    0    0    0 -0.00000000000E+00 -0.00000000000E+00  0.11368683772E-12  0.17120000000E+03  0.17120000000E+03 0.  0.
         13    1    1    2    0    0  0.22229193026E+03  0.18690894527E+03  0.99050574325E+03  0.10322065174E+04  0.10566000000E+00 0. -1.
        994    1    1    2    0    0 -0.24386365458E+03 -0.19362456829E+03  0.43800593327E+03  0.56402002895E+03  0.17120000000E+03 0.  0.
        998    1    1    2    0    0  0.21571724324E+02  0.67156230286E+01  0.71488319759E+02  0.74973453609E+02  0.10000000000E-02 0. -1.
</event>
<event>
 5    1  0.5722211E-009  0.3882944E+03  0.7957747E-01  0.3415819E+00
         13   -1    0    0    0    0  0.00000000000E+00  0.00000000000E+00  0.14999999963E+04  0.15000000000E+04  0.10566000000E+00 0. -1.
        994   -1    0    0    0    0 -0.00000000000E+00 -0.00000000000E+00  0.11368683772E-12  0.17120000000E+03  0.17120000000E+03 0.  0.
         13    1    1    2    0    0  0.14552812832E+03 -0.23407136105E+03  0.10527284347E+04  0.10882118390E+04  0.10566000000E+00 0. -1.
        994    1    1    2    0    0 -0.15584585283E+03  0.25149543752E+03  0.37271665928E+03  0.50573217521E+03  0.17120000000E+03 0.  0.
        998    1    1    2    0    0  0.10317724507E+02 -0.17424076465E+02  0.74554902334E+02  0.77255985805E+02  0.10000000000E-02 0. -1.
</event>
<event>
 5    1  0.5722211E-009  0.3849747E+03  0.7957747E-01  0.3429779E+00
         13   -1    0    0    0    0  0.00000000000E+00  0.00000000000E+00  0.14999999963E+04  0.15000000000E+04  0.10566000000E+00 0. -1.
        994   -1    0    0    0    0 -0.00000000000E+00 -0.00000000000E+00  0.11368683772E-12  0.17120000000E+03  0.17120000000E+03 0.  0.
         13    1    1    2    0    0  0.43729488428E+01 -0.15546580993E+02  0.76285999089E+02  0.77976815036E+02  0.10566000000E+00 0. -1.
        994    1    1    2    0    0  0.12312994222E+03  0.77791465703E+02  0.74833276190E+02  0.23690072611E+03  0.17120000000E+03 0.  0.
        998    1    1    2    0    0 -0.12750289106E+03 -0.62244884710E+02  0.13488807210E+04  0.13563224589E+04  0.10000000000E-02 0. -1.
</event>
<event>
 5    1  0.5722211E-009  0.3883008E+03  0.7957747E-01  0.3415793E+00
         13   -1    0    0    0    0  0.00000000000E+00  0.00000000000E+00  0.14999999963E+04  0.15000000000E+04  0.10566000000E+00 0. -1.
        994   -1    0    0    0    0 -0.00000000000E+00 -0.00000000000E+00  0.11368683772E-12  0.17120000000E+03  0.17120000000E+03 0.  0.
         13    1    1    2    0    0  0.16101804554E+02 -0.21630414650E+03  0.11566439463E+04  0.11768058386E+04  0.10566000000E+00 0. -1.
        994    1    1    2    0    0 -0.17794098863E+02  0.23984565129E+03  0.21837797038E+03  0.36720695030E+03  0.17120000000E+03 0.  0.
        998    1    1    2    0    0  0.16922943094E+01 -0.23541504790E+02  0.12497807956E+03  0.12718721114E+03  0.10000000000E-02 0. -1.
</event>
<event>
 5    1  0.5722211E-009  0.3883010E+03  0.7957747E-01  0.3415792E+00
         13   -1    0    0    0    0  0.00000000000E+00  0.00000000000E+00  0.14999999963E+04  0.15000000000E+04  0.10566000000E+00 0. -1.
        994   -1    0    0    0    0 -0.00000000000E+00 -0.00000000000E+00  0.11368683772E-12  0.17120000000E+03  0.17120000000E+03 0.  0.
         13    1    1    2    0    0  0.15298856948E+03  0.16487727557E+03  0.13113774666E+04  0.13305265460E+04  0.10566000000E+00 0. -1.
        994    1    1    2    0    0 -0.15316723352E+03 -0.16506301298E+03  0.18714482620E+03  0.33917344479E+03  0.17120000000E+03 0.  0.
        998    1    1    2    0    0  0.17866403688E+00  0.18573740980E+00  0.14777034408E+01  0.15000092275E+01  0.10000000000E-02 0. -1.
</event>
<event>
 5    1  0.5722211E-009  0.3883010E+03  0.7957747E-01  0.3415792E+00
         13   -1    0    0    0    0  0.00000000000E+00  0.00000000000E+00  0.14999999963E+04  0.15000000000E+04  0.10566000000E+00 0. -1.
        994   -1    0    0    0    0 -0.00000000000E+00 -0.00000000000E+00  0.11368683772E-12  0.17120000000E+03  0.17120000000E+03 0.  0.
         13    1    1    2    0    0  0.22944457585E+03  0.64424579991E+02  0.12765015279E+04  0.12985574696E+04  0.10566000000E+00 0. -1.
        994    1    1    2    0    0 -0.23070476093E+03 -0.64778047148E+02  0.21648496702E+03  0.36550795211E+03  0.17120000000E+03 0.  0.
        998    1    1    2    0    0  0.12601850836E+01  0.35346715699E+00  0.70135013447E+01  0.71345783049E+01  0.10000000000E-02 0.  1.
</event>
<event>
 5    1  0.5722211E-009  0.3883010E+03  0.7957747E-01  0.3415792E+00
         13   -1    0    0    0    0  0.00000000000E+00  0.00000000000E+00  0.14999999963E+04  0.15000000000E+04  0.10566000000E+00 0. -1.
        994   -1    0    0    0    0 -0.00000000000E+00 -0.00000000000E+00  0.11368683772E-12  0.17120000000E+03  0.17120000000E+03 0.  0.
         13    1    1    2    0    0  0.22663334503E+02 -0.22970698039E+03  0.12963341506E+04  0.13167236478E+04  0.10566000000E+00 0. -1.
        994    1    1    2    0    0 -0.22731731650E+02  0.23041799268E+03  0.19965121988E+03  0.35039867661E+03  0.17120000000E+03 0.  0.
        998    1    1    2    0    0  0.68397146371E-01 -0.71101228721E+00  0.40146258260E+01  0.40776755836E+01  0.10000000000E-02 0.  1.
</event>
<event>
 5    1  0.5722211E-009  0.3861053E+03  0.7957747E-01  0.3424998E+00
         13   -1    0    0    0    0  0.00000000000E+00  0.00000000000E+00  0.14999999963E+04  0.15000000000E+04  0.10566000000E+00 0.  1.
        994   -1    0    0    0    0 -0.00000000000E+00 -0.00000000000E+00  0.11368683772E-12  0.17120000000E+03  0.17120000000E+03 0.  0.
         13    1    1    2    0    0  0.46037842214E+02 -0.20223330502E+03  0.12534827428E+04  0.12705261864E+04  0.10566000000E+00 0.  1.
        994    1    1    2    0    0 -0.40839514531E+02  0.22138028746E+03  0.18984315123E+03  0.34062730321E+03  0.17120000000E+03 0.  0.
        998    1    1    2    0    0 -0.51983276836E+01 -0.19146982442E+02  0.56674102202E+02  0.60046510379E+02  0.10000000000E-02 0. -1.
</event>
<event>
 5    1  0.5722211E-009  0.3883001E+03  0.7957747E-01  0.3415795E+00
         13   -1    0    0    0    0  0.00000000000E+00  0.00000000000E+00  0.14999999963E+04  0.15000000000E+04  0.10566000000E+00 0. -1.
        994   -1    0    0    0    0 -0.00000000000E+00 -0.00000000000E+00  0.11368683772E-12  0.17120000000E+03  0.17120000000E+03 0.  0.
         13    1    1    2    0    0 -0.12608030997E+03  0.19525453847E+03  0.12961496559E+04  0.13168236484E+04  0.10566000000E+00 0. -1.
        994    1    1    2    0    0  0.12626256572E+03 -0.19548574959E+03  0.20204168855E+03  0.35254389472E+03  0.17120000000E+03 0.  0.
        998    1    1    2    0    0 -0.18225574665E+00  0.23121111784E+00  0.18086518067E+01  0.18324568470E+01  0.10000000000E-02 0. -1.
</event>
<event>
 5    1  0.5722211E-009  0.3883010E+03  0.7957747E-01  0.3415792E+00
         13   -1    0    0    0    0  0.00000000000E+00  0.00000000000E+00  0.14999999963E+04  0.15000000000E+04  0.10566000000E+00 0.  1.
        994   -1    0    0    0    0 -0.00000000000E+00 -0.00000000000E+00  0.11368683772E-12  0.17120000000E+03  0.17120000000E+03 0.  0.
         13    1    1    2    0    0 -0.10863056032E+03  0.17956591027E+03  0.11058174517E+04  0.11255562013E+04  0.10566000000E+00 0.  1.
        994    1    1    2    0    0  0.12548615264E+03 -0.20746046387E+03  0.22263795180E+03  0.37103061350E+03  0.17120000000E+03 0.  0.
        998    1    1    2    0    0 -0.16855592321E+02  0.27894553601E+02  0.17154459282E+03  0.17461318519E+03  0.10000000000E-02 0.  1.
</event>
<event>
 5    1  0.5722211E-009  0.3883008E+03  0.7957747E-01  0.3415793E+00
         13   -1    0    0    0    0  0.00000000000E+00  0.00000000000E+00  0.14999999963E+04  0.15000000000E+04  0.10566000000E+00 0.  1.
        994   -1    0    0    0    0 -0.00000000000E+00 -0.00000000000E+00  0.11368683772E-12  0.17120000000E+03  0.17120000000E+03 0.  0.
         13    1    1    2    0    0  0.12804908544E+03 -0.19870054532E+03  0.12903504217E+04  0.13118241867E+04  0.10566000000E+00 0.  1.
        994    1    1    2    0    0 -0.12805203331E+03  0.19870572878E+03  0.20962711183E+03  0.35935255099E+03  0.17120000000E+03 0.  0.
        998    1    1    2    0    0  0.29478756629E-02 -0.51834531519E-02  0.22462756183E-01  0.23262277894E-01  0.10000000000E-02 0. -1.
</event>
<event>
 5    1  0.5865081E-009  0.3883009E+03  0.7957747E-01  0.3415792E+00
         13   -1    0    0    0    0  0.00000000000E+00  0.00000000000E+00  0.14999999963E+04  0.15000000000E+04  0.10566000000E+00 0. -1.
        994   -1    0    0    0    0 -0.00000000000E+00 -0.00000000000E+00  0.11368683772E-12  0.17120000000E+03  0.17120000000E+03 0.  0.
         13    1    1    2    0    0  0.17104778113E+03  0.15736761572E+03  0.12984974717E+04  0.13191351732E+04  0.10566000000E+00 0. -1.
        994    1    1    2    0    0 -0.17105393813E+03 -0.15737115936E+03  0.20146491242E+03  0.35202653662E+03  0.17120000000E+03 0.  0.
        998    1    1    2    0    0  0.61570060213E-02  0.35436370399E-02  0.37612164819E-01  0.38290221062E-01  0.10000000000E-02 0. -1.
</event>
<event>
 5    1  0.5722211E-009  0.3883010E+03  0.7957747E-01  0.3415792E+00
         13   -1    0    0    0    0  0.00000000000E+00  0.00000000000E+00  0.14999999963E+04  0.15000000000E+04  0.10566000000E+00 0. -1.
        994   -1    0    0    0    0 -0.00000000000E+00 -0.00000000000E+00  0.11368683772E-12  0.17120000000E+03  0.17120000000E+03 0.  0.
         13    1    1    2    0    0  0.82011991313E+02  0.20364987651E+03  0.12312088001E+04  0.12506295853E+04  0.10566000000E+00 0. -1.
        994    1    1    2    0    0 -0.86589356518E+02 -0.21500448194E+03  0.20015408404E+03  0.35085002676E+03  0.17120000000E+03 0.  0.
        998    1    1    2    0    0  0.45773652053E+01  0.11354605434E+02  0.68637112145E+02  0.69720387989E+02  0.10000000000E-02 0. -1.
</event>
<event>
 5    1  0.5722211E-009  0.3883008E+03  0.7957747E-01  0.3415793E+00
         13   -1    0    0    0    0  0.00000000000E+00  0.00000000000E+00  0.14999999963E+04  0.15000000000E+04  0.10566000000E+00 0.  1.
        994   -1    0    0    0    0 -0.00000000000E+00 -0.00000000000E+00  0.11368683772E-12  0.17120000000E+03  0.17120000000E+03 0.  0.
         13    1    1    2    0    0 -0.24049467483E+03 -0.67193236917E+02  0.12578474482E+04  0.12823934005E+04  0.10566000000E+00 0.  1.
        994    1    1    2    0    0  0.24090328032E+03  0.67288153466E+02  0.24000531714E+03  0.38661877647E+03  0.17120000000E+03 0.  0.
        998    1    1    2    0    0 -0.40860549498E+00 -0.94916548507E-01  0.21472309877E+01  0.21878230085E+01  0.10000000000E-02 0. -1.
</event>
<event>
 5    1  0.5722211E-009  0.3883010E+03  0.7957747E-01  0.3415792E+00
         13   -1    0    0    0    0  0.00000000000E+00  0.00000000000E+00  0.14999999963E+04  0.15000000000E+04  0.10566000000E+00 0. -1.
        994   -1    0    0    0    0 -0.00000000000E+00 -0.00000000000E+00  0.11368683772E-12  0.17120000000E+03  0.17120000000E+03 0.  0.
         13    1    1    2    0    0  0.20712736021E+03  0.77212247882E+02  0.13173151109E+04  0.13357329775E+04  0.10566000000E+00 0. -1.
        994    1    1    2    0    0 -0.20752852309E+03 -0.77361781739E+02  0.18013815444E+03  0.33288455635E+03  0.17120000000E+03 0.  0.
        998    1    1    2    0    0  0.40116288340E+00  0.14953385717E+00  0.25467309088E+01  0.25824661383E+01  0.10000000000E-02 0.  0.
</event>
<event>
 5    1  0.5722211E-009  0.3860855E+03  0.7957747E-01  0.3425081E+00
         13   -1    0    0    0    0  0.00000000000E+00  0.00000000000E+00  0.14999999963E+04  0.15000000000E+04  0.10566000000E+00 0. -1.
        994   -1    0    0    0    0 -0.00000000000E+00 -0.00000000000E+00  0.11368683772E-12  0.17120000000E+03  0.17120000000E+03 0.  0.
         13    1    1    2    0    0 -0.17134095745E+02  0.10595108443E+02  0.10015982119E+03  0.10216572079E+03  0.10566000000E+00 0. -1.
        994    1    1    2    0    0  0.67224223491E+02 -0.50185748659E+02  0.24504735429E+02  0.19221765697E+03  0.17120000000E+03 0.  0.
        998    1    1    2    0    0 -0.50090127745E+02  0.39590640216E+02  0.13753354397E+04  0.13768166222E+04  0.10000000000E-02 0. -1.
</event>
<event>
 5    1  0.5722211E-009  0.3882808E+03  0.7957747E-01  0.3415876E+00
         13   -1    0    0    0    0  0.00000000000E+00  0.00000000000E+00  0.14999999963E+04  0.15000000000E+04  0.10566000000E+00 0.  1.
        994   -1    0    0    0    0 -0.00000000000E+00 -0.00000000000E+00  0.11368683772E-12  0.17120000000E+03  0.17120000000E+03 0.  0.
         13    1    1    2    0    0  0.20549114374E+03 -0.98957916429E+02  0.13071087877E+04  0.13268581964E+04  0.10566000000E+00 0.  1.
        994    1    1    2    0    0 -0.20552211808E+03  0.98972904748E+02  0.19286167036E+03  0.34429644319E+03  0.17120000000E+03 0.  0.
        998    1    1    2    0    0  0.30974345615E-01 -0.14988318403E-01  0.29538258662E-01  0.45360428786E-01  0.10000000000E-02 0. -1.
</event>
<event>
 5    1  0.5722211E-009  0.3881915E+03  0.7957747E-01  0.3416249E+00
         13   -1    0    0    0    0  0.00000000000E+00  0.00000000000E+00  0.14999999963E+04  0.15000000000E+04  0.10566000000E+00 0.  1.
        994   -1    0    0    0    0 -0.00000000000E+00 -0.00000000000E+00  0.11368683772E-12  0.17120000000E+03  0.17120000000E+03 0.  0.
         13    1    1    2    0    0  0.27127677430E+03  0.43463509933E+02  0.11527619419E+04  0.11850486364E+04  0.10566000000E+00 0.  1.
        994    1    1    2    0    0 -0.27697736359E+03 -0.42607355505E+02  0.32075427161E+03  0.45904748060E+03  0.17120000000E+03 0.  0.
        998    1    1    2    0    0  0.57005892875E+01 -0.85615442814E+00  0.26483782817E+02  0.27103882968E+02  0.10000000000E-02 0. -1.
</event>
<event>
 5    1  0.5722211E-009  0.3872966E+03  0.7957747E-01  0.3419990E+00
         13   -1    0    0    0    0  0.00000000000E+00  0.00000000000E+00  0.14999999963E+04  0.15000000000E+04  0.10566000000E+00 0. -1.
        994   -1    0    0    0    0 -0.00000000000E+00 -0.00000000000E+00  0.11368683772E-12  0.17120000000E+03  0.17120000000E+03 0.  0.
         13    1    1    2    0    0  0.74244364122E+02  0.11431801939E+03  0.64449253407E+03  0.65874993191E+03  0.10566000000E+00 0. -1.
        994    1    1    2    0    0 -0.13934863773E+03 -0.24395424726E+03  0.32496365120E+03  0.46243111075E+03  0.17120000000E+03 0.  0.
        998    1    1    2    0    0  0.65104273606E+02  0.12963622788E+03  0.53054381102E+03  0.55001895734E+03  0.10000000000E-02 0. -1.
</event>
<event>
 5    1  0.5722211E-009  0.3883009E+03  0.7957747E-01  0.3415792E+00
         13   -1    0    0    0    0  0.00000000000E+00  0.00000000000E+00  0.14999999963E+04  0.15000000000E+04  0.10566000000E+00 0.  1.
        994   -1    0    0    0    0 -0.00000000000E+00 -0.00000000000E+00  0.11368683772E-12  0.17120000000E+03  0.17120000000E+03 0.  0.
         13    1    1    2    0    0 -0.11975408716E+03 -0.20380766522E+03  0.12762641079E+04  0.12979709896E+04  0.10566000000E+00 0.  1.
        994    1    1    2    0    0  0.12070626241E+03  0.20541453730E+03  0.21355402374E+03  0.36287724505E+03  0.17120000000E+03 0.  0.
        998    1    1    2    0    0 -0.95217524318E+00 -0.16068720810E+01  0.10181864683E+02  0.10351765308E+02  0.10000000000E-02 0.  1.
</event>
<event>
 5    1  0.5722211E-009  0.3883010E+03  0.7957747E-01  0.3415792E+00
         13   -1    0    0    0    0  0.00000000000E+00  0.00000000000E+00  0.14999999963E+04  0.15000000000E+04  0.10566000000E+00 0. -1.
        994   -1    0    0    0    0 -0.00000000000E+00 -0.00000000000E+00  0.11368683772E-12  0.17120000000E+03  0.17120000000E+03 0.  0.
         13    1    1    2    0    0  0.63542119522E+02 -0.19074130486E+03  0.12161734526E+04  0.12326790840E+04  0.10566000000E+00 0. -1.
        994    1    1    2    0    0 -0.69213739600E+02  0.20772843499E+03  0.17547274545E+03  0.32869707764E+03  0.17120000000E+03 0.  0.
        998    1    1    2    0    0  0.56716200779E+01 -0.16987130135E+02  0.10835379827E+03  0.10982383833E+03  0.10000000000E-02 0. -1.
</event>
<event>
 5    1  0.5722211E-009  0.3883001E+03  0.7957747E-01  0.3415795E+00
         13   -1    0    0    0    0  0.00000000000E+00  0.00000000000E+00  0.14999999963E+04  0.15000000000E+04  0.10566000000E+00 0.  1.
        994   -1    0    0    0    0 -0.00000000000E+00 -0.00000000000E+00  0.11368683772E-12  0.17120000000E+03  0.17120000000E+03 0.  0.
         13    1    1    2    0    0  0.28013608842E+03 -0.19807619002E+03  0.80452209046E+03  0.87462346772E+03  0.10566000000E+00 0.  1.
        994    1    1    2    0    0 -0.28226682807E+03  0.19950410850E+03  0.68928017606E+03  0.78986900980E+03  0.17120000000E+03 0.  0.
        998    1    1    2    0    0  0.21307396488E+01 -0.14279184772E+01  0.61977297581E+01  0.67075224772E+01  0.10000000000E-02 0. -1.
</event>
<event>
 5    1  0.5722211E-009  0.3883008E+03  0.7957747E-01  0.3415792E+00
         13   -1    0    0    0    0  0.00000000000E+00  0.00000000000E+00  0.14999999963E+04  0.15000000000E+04  0.10566000000E+00 0. -1.
        994   -1    0    0    0    0 -0.00000000000E+00 -0.00000000000E+00  0.11368683772E-12  0.17120000000E+03  0.17120000000E+03 0.  0.
         13    1    1    2    0    0 -0.51853584156E+02 -0.20396933889E+03  0.12549145038E+04  0.12724396679E+04  0.10566000000E+00 0. -1.
        994    1    1    2    0    0  0.54446354141E+02  0.21458695773E+03  0.17996571419E+03  0.33272971943E+03  0.17120000000E+03 0.  0.
        998    1    1    2    0    0 -0.25927699850E+01 -0.10617618843E+02  0.65119778254E+02  0.66030612650E+02  0.10000000000E-02 0. -1.
</event>
<event>
 5    1  0.5722211E-009  0.3882663E+03  0.7957747E-01  0.3415937E+00
         13   -1    0    0    0    0  0.00000000000E+00  0.00000000000E+00  0.14999999963E+04  0.15000000000E+04  0.10566000000E+00 0. -1.
        994   -1    0    0    0    0 -0.00000000000E+00 -0.00000000000E+00  0.11368683772E-12  0.17120000000E+03  0.17120000000E+03 0.  0.
         13    1    1    2    0    0  0.14640236473E+03 -0.18949585441E+03  0.12803115142E+04  0.13025129235E+04  0.10566000000E+00 0. -1.
        994    1    1    2    0    0 -0.14678223882E+03  0.18958418597E+03  0.21683238263E+03  0.36580447149E+03  0.17120000000E+03 0.  0.
        998    1    1    2    0    0  0.37987408962E+00 -0.88331566067E-01  0.28560994555E+01  0.28826050526E+01  0.10000000000E-02 0. -1.
</event>
<event>
 5    1  0.5722211E-009  0.3883009E+03  0.7957747E-01  0.3415792E+00
         13   -1    0    0    0    0  0.00000000000E+00  0.00000000000E+00  0.14999999963E+04  0.15000000000E+04  0.10566000000E+00 0.  1.
        994   -1    0    0    0    0 -0.00000000000E+00 -0.00000000000E+00  0.11368683772E-12  0.17120000000E+03  0.17120000000E+03 0.  0.
         13    1    1    2    0    0 -0.25684782670E+03 -0.97976355859E+02  0.11938494559E+04  0.12250904893E+04  0.10566000000E+00 0.  1.
        994    1    1    2    0    0  0.25704659502E+03  0.98058213918E+02  0.30519886595E+03  0.44513385976E+03  0.17120000000E+03 0.  0.
        998    1    1    2    0    0 -0.19876832811E+00 -0.81858059620E-01  0.95167441306E+00  0.97565095124E+00  0.10000000000E-02 0.  1.
</event>
<event>
 5    1  0.5722211E-009  0.3881619E+03  0.7957747E-01  0.3416372E+00
         13   -1    0    0    0    0  0.00000000000E+00  0.00000000000E+00  0.14999999963E+04  0.15000000000E+04  0.10566000000E+00 0. -1.
        994   -1    0    0    0    0 -0.00000000000E+00 -0.00000000000E+00  0.11368683772E-12  0.17120000000E+03  0.17120000000E+03 0.  0.
         13    1    1    2    0    0  0.95951646354E+02  0.23689571533E+03  0.11994282688E+04  0.12263582190E+04  0.10566000000E+00 0. -1.
        994    1    1    2    0    0 -0.96932284519E+02 -0.24200792478E+03  0.26609774276E+03  0.40997701416E+03  0.17120000000E+03 0.  0.
        998    1    1    2    0    0  0.98063816495E+00  0.51122094557E+01  0.34473984770E+02  0.34864766795E+02  0.10000000000E-02 0.  1.
</event>
<event>
 5    1  0.5722211E-009  0.3883010E+03  0.7957747E-01  0.3415792E+00
         13   -1    0    0    0    0  0.00000000000E+00  0.00000000000E+00  0.14999999963E+04  0.15000000000E+04  0.10566000000E+00 0. -1.
        994   -1    0    0    0    0 -0.00000000000E+00 -0.00000000000E+00  0.11368683772E-12  0.17120000000E+03  0.17120000000E+03 0.  0.
         13    1    1    2    0    0 -0.12068912708E+03  0.21669880052E+03  0.12571335254E+04  0.12813699495E+04  0.10566000000E+00 0. -1.
        994    1    1    2    0    0  0.12119413383E+03 -0.21760810307E+03  0.23757704514E+03  0.38443932808E+03  0.17120000000E+03 0.  0.
        998    1    1    2    0    0 -0.50500675470E+00  0.90930254781E+00  0.52894257404E+01  0.53907224571E+01  0.10000000000E-02 0. -1.
</event>
<event>
 5    1  0.5722211E-009  0.3883008E+03  0.7957747E-01  0.3415793E+00
         13   -1    0    0    0    0  0.00000000000E+00  0.00000000000E+00  0.14999999963E+04  0.15000000000E+04  0.10566000000E+00 0.  1.
        994   -1    0    0    0    0 -0.00000000000E+00 -0.00000000000E+00  0.11368683772E-12  0.17120000000E+03  0.17120000000E+03 0.  0.
         13    1    1    2    0    0  0.20971712329E+03  0.79890257160E+02  0.13142692831E+04  0.13332919728E+04  0.10566000000E+00 0.  1.
        994    1    1    2    0    0 -0.20972361213E+03 -0.79893532309E+02  0.18570141974E+03  0.33787782893E+03  0.17120000000E+03 0.  0.
        998    1    1    2    0    0  0.64888371486E-02  0.32751493977E-02  0.29293435479E-01  0.30198294211E-01  0.10000000000E-02 0. -1.
</event>
<event>
 5    1  0.5722211E-009  0.3883000E+03  0.7957747E-01  0.3415796E+00
         13   -1    0    0    0    0  0.00000000000E+00  0.00000000000E+00  0.14999999963E+04  0.15000000000E+04  0.10566000000E+00 0.  1.
        994   -1    0    0    0    0 -0.00000000000E+00 -0.00000000000E+00  0.11368683772E-12  0.17120000000E+03  0.17120000000E+03 0.  0.
         13    1    1    2    0    0  0.12211230827E+03 -0.18991675195E+03  0.11925475854E+04  0.12137337201E+04  0.10566000000E+00 0.  1.
        994    1    1    2    0    0 -0.13089481870E+03  0.20333062502E+03  0.22123765689E+03  0.36977335959E+03  0.17120000000E+03 0.  0.
        998    1    1    2    0    0  0.87825104349E+01 -0.13413873073E+02  0.86214753954E+02  0.87692920357E+02  0.10000000000E-02 0. -1.
</event>
<event>
 5    1  0.5722211E-009  0.3883006E+03  0.7957747E-01  0.3415794E+00
         13   -1    0    0    0    0  0.00000000000E+00  0.00000000000E+00  0.14999999963E+04  0.15000000000E+04  0.10566000000E+00 0.  1.
        994   -1    0    0    0    0 -0.00000000000E+00 -0.00000000000E+00  0.11368683772E-12  0.17120000000E+03  0.17120000000E+03 0.  0.
         13    1    1    2    0    0  0.26741828752E+02  0.26547538050E+03  0.12180112243E+04  0.12468936028E+04  0.10566000000E+00 0.  1.
        994    1    1    2    0    0 -0.26746662433E+02 -0.26548416638E+03  0.28195212779E+03  0.42426839255E+03  0.17120000000E+03 0.  0.
        998    1    1    2    0    0  0.48336807579E-02  0.87858788150E-02  0.36644192268E-01  0.38004643969E-01  0.10000000000E-02 0.  0.
</event>
<event>
 5    1  0.5722211E-009  0.3882975E+03  0.7957747E-01  0.3415806E+00
         13   -1    0    0    0    0  0.00000000000E+00  0.00000000000E+00  0.14999999963E+04  0.15000000000E+04  0.10566000000E+00 0. -1.
        994   -1    0    0    0    0 -0.00000000000E+00 -0.00000000000E+00  0.11368683772E-12  0.17120000000E+03  0.17120000000E+03 0.  0.
         13    1    1    2    0    0 -0.20903079772E+03  0.93016709777E+02  0.13032217719E+04  0.13231526671E+04  0.10566000000E+00 0. -1.
        994    1    1    2    0    0  0.20927718089E+03 -0.93129495483E+02  0.19471725638E+03  0.34596862762E+03  0.17120000000E+03 0.  0.
        998    1    1    2    0    0 -0.24638317077E+00  0.11278570600E+00  0.20609680339E+01  0.20787052507E+01  0.10000000000E-02 0.  1.
</event>
<event>
 5    1  0.5722211E-009  0.3882987E+03  0.7957747E-01  0.3415802E+00
         13   -1    0    0    0    0  0.00000000000E+00  0.00000000000E+00  0.14999999963E+04  0.15000000000E+04  0.10566000000E+00 0. -1.
        994   -1    0    0    0    0 -0.00000000000E+00 -0.00000000000E+00  0.11368683772E-12  0.17120000000E+03  0.17120000000E+03 0.  0.
         13    1    1    2    0    0  0.22145136622E+03 -0.25985568008E+03  0.75635398683E+03  0.82984157924E+03  0.10566000000E+00 0. -1.
        994    1    1    2    0    0 -0.22549502470E+03  0.26438597853E+03  0.72969021425E+03  0.82613872962E+03  0.17120000000E+03 0.  0.
        998    1    1    2    0    0  0.40436584731E+01 -0.45302984531E+01  0.13955795201E+02  0.15219691147E+02  0.10000000000E-02 0. -1.
</event>
<event>
 5    1  0.5722211E-009  0.3883008E+03  0.7957747E-01  0.3415793E+00
         13   -1    0    0    0    0  0.00000000000E+00  0.00000000000E+00  0.14999999963E+04  0.15000000000E+04  0.10566000000E+00 0.  1.
        994   -1    0    0    0    0 -0.00000000000E+00 -0.00000000000E+00  0.11368683772E-12  0.17120000000E+03  0.17120000000E+03 0.  0.
         13    1    1    2    0    0  0.20482658820E+03 -0.10936133387E+03  0.12590802167E+04  0.12803112262E+04  0.10566000000E+00 0.  1.
        994    1    1    2    0    0 -0.20950381569E+03  0.11181937913E+03  0.21190825959E+03  0.36140001774E+03  0.17120000000E+03 0.  0.
        998    1    1    2    0    0  0.46772274980E+01 -0.24580452610E+01  0.29011519950E+02  0.29488756067E+02  0.10000000000E-02 0. -1.
</event>
<event>
 5    1  0.5722211E-009  0.3883009E+03  0.7957747E-01  0.3415792E+00
         13   -1    0    0    0    0  0.00000000000E+00  0.00000000000E+00  0.14999999963E+04  0.15000000000E+04  0.10566000000E+00 0.  1.
        994   -1    0    0    0    0 -0.00000000000E+00 -0.00000000000E+00  0.11368683772E-12  0.17120000000E+03  0.17120000000E+03 0.  0.
         13    1    1    2    0    0  0.53727267802E+02 -0.27328546492E+03  0.10467640789E+04  0.10831835544E+04  0.10566000000E+00 0.  1.
        994    1    1    2    0    0 -0.57418927308E+02  0.29232530340E+03  0.38023554603E+03  0.51248368431E+03  0.17120000000E+03 0.  0.
        998    1    1    2    0    0  0.36916595055E+01 -0.19039838479E+02  0.73000371386E+02  0.75532761255E+02  0.10000000000E-02 0.  1.
</event>
<event>
 5    1  0.5722211E-009  0.3883010E+03  0.7957747E-01  0.3415792E+00
         13   -1    0    0    0    0  0.00000000000E+00  0.00000000000E+00  0.14999999963E+04  0.15000000000E+04  0.10566000000E+00 0.  1.
        994   -1    0    0    0    0 -0.00000000000E+00 -0.00000000000E+00  0.11368683772E-12  0.17120000000E+03  0.17120000000E+03 0.  0.
         13    1    1    2    0    0 -0.21608423582E+03 -0.85665878068E+02  0.12846493206E+04  0.13055094514E+04  0.10566000000E+00 0.  1.
        994    1    1    2    0    0  0.21778652750E+03  0.86340879055E+02  0.20523490472E+03  0.35541036151E+03  0.17120000000E+03 0.  0.
        998    1    1    2    0    0 -0.17022916793E+01 -0.67500098646E+00  0.10115770926E+02  0.10280187047E+02  0.10000000000E-02 0. -1.
</event>
<event>
 5    1  0.5722211E-009  0.3883007E+03  0.7957747E-01  0.3415793E+00
         13   -1    0    0    0    0  0.00000000000E+00  0.00000000000E+00  0.14999999963E+04  0.15000000000E+04  0.10566000000E+00 0. -1.
        994   -1    0    0    0    0 -0.00000000000E+00 -0.00000000000E+00  0.11368683772E-12  0.17120000000E+03  0.17120000000E+03 0.  0.
         13    1    1    2    0    0 -0.28485424783E+03  0.12104576095E+03  0.10705671495E+04  0.11144092837E+04  0.10566000000E+00 0. -1.
        994    1    1    2    0    0  0.28512197135E+03 -0.12117934544E+03  0.42837807577E+03  0.55569432974E+03  0.17120000000E+03 0.  0.
        998    1    1    2    0    0 -0.26772351927E+00  0.13358449537E+00  0.10547709652E+01  0.10963865601E+01  0.10000000000E-02 0.  1.
</event>
<event>
 5    1  0.5722211E-009  0.3883009E+03  0.7957747E-01  0.3415792E+00
         13   -1    0    0    0    0  0.00000000000E+00  0.00000000000E+00  0.14999999963E+04  0.15000000000E+04  0.10566000000E+00 0. -1.
        994   -1    0    0    0    0 -0.00000000000E+00 -0.00000000000E+00  0.11368683772E-12  0.17120000000E+03  0.17120000000E+03 0.  0.
         13    1    1    2    0    0 -0.28702479273E+03 -0.11026535709E+03  0.10791333531E+04  0.11220831010E+04  0.10566000000E+00 0. -1.
        994    1    1    2    0    0  0.28733667103E+03  0.11038246630E+03  0.41972719538E+03  0.54792974908E+03  0.17120000000E+03 0.  0.
        998    1    1    2    0    0 -0.31187829739E+00 -0.11710920982E+00  0.11394477827E+01  0.11871499016E+01  0.10000000000E-02 0.  1.
</event>
<event>
 5    1  0.5722211E-009  0.3883000E+03  0.7957747E-01  0.3415796E+00
         13   -1    0    0    0    0  0.00000000000E+00  0.00000000000E+00  0.14999999963E+04  0.15000000000E+04  0.10566000000E+00 0.  1.
        994   -1    0    0    0    0 -0.00000000000E+00 -0.00000000000E+00  0.11368683772E-12  0.17120000000E+03  0.17120000000E+03 0.  0.
         13    1    1    2    0    0 -0.22780293582E+03 -0.34511664988E+02  0.12874294507E+04  0.13078837235E+04  0.10566000000E+00 0.  1.
        994    1    1    2    0    0  0.22986309830E+03  0.34793273899E+02  0.20156433958E+03  0.35211537719E+03  0.17120000000E+03 0.  0.
        998    1    1    2    0    0 -0.20601624757E+01 -0.28160891067E+00  0.11006206032E+02  0.11200899304E+02  0.10000000000E-02 0. -1.
</event>
<event>
 5    1  0.5722211E-009  0.3883010E+03  0.7957747E-01  0.3415792E+00
         13   -1    0    0    0    0  0.00000000000E+00  0.00000000000E+00  0.14999999963E+04  0.15000000000E+04  0.10566000000E+00 0. -1.
        994   -1    0    0    0    0 -0.00000000000E+00 -0.00000000000E+00  0.11368683772E-12  0.17120000000E+03  0.17120000000E+03 0.  0.
         13    1    1    2    0    0 -0.21200306050E+03  0.10722311046E+03  0.12864805156E+04  0.13082332442E+04  0.10566000000E+00 0. -1.
        994    1    1    2    0    0  0.21216946173E+03 -0.10730526335E+03  0.21250796755E+03  0.36193835982E+03  0.17120000000E+03 0.  0.
        998    1    1    2    0    0 -0.16640123654E+00  0.82152890808E-01  0.10115131151E+01  0.10283959602E+01  0.10000000000E-02 0.  1.
</event>
<event>
 5    1  0.5722211E-009  0.3883009E+03  0.7957747E-01  0.3415792E+00
         13   -1    0    0    0    0  0.00000000000E+00  0.00000000000E+00  0.14999999963E+04  0.15000000000E+04  0.10566000000E+00 0.  1.
        994   -1    0    0    0    0 -0.00000000000E+00 -0.00000000000E+00  0.11368683772E-12  0.17120000000E+03  0.17120000000E+03 0.  0.
         13    1    1    2    0    0 -0.69343083619E+02  0.24304680989E+03  0.12469922089E+04  0.12723481424E+04  0.10566000000E+00 0.  1.
        994    1    1    2    0    0  0.69576244170E+02 -0.24393977795E+03  0.24841171149E+03  0.39416403619E+03  0.17120000000E+03 0.  0.
        998    1    1    2    0    0 -0.23316055034E+00  0.89296805170E+00  0.45960758367E+01  0.46878214429E+01  0.10000000000E-02 0. -1.
</event>
<event>
 5    1  0.5722211E-009  0.3883010E+03  0.7957747E-01  0.3415792E+00
         13   -1    0    0    0    0  0.00000000000E+00  0.00000000000E+00  0.14999999963E+04  0.15000000000E+04  0.10566000000E+00 0. -1.
        994   -1    0    0    0    0 -0.00000000000E+00 -0.00000000000E+00  0.11368683772E-12  0.17120000000E+03  0.17120000000E+03 0.  0.
         13    1    1    2    0    0  0.78958138445E+02  0.25616134106E+03  0.12135141256E+04  0.12427668987E+04  0.10566000000E+00 0. -1.
        994    1    1    2    0    0 -0.79008213568E+02 -0.25631855778E+03  0.28572994339E+03  0.42765937547E+03  0.17120000000E+03 0.  0.
        998    1    1    2    0    0  0.50075122557E-01  0.15721672474E+00  0.75592732620E+00  0.77372588100E+00  0.10000000000E-02 0. -1.
</event>
<event>
 5    1  0.5722211E-009  0.3883010E+03  0.7957747E-01  0.3415792E+00
         13   -1    0    0    0    0  0.00000000000E+00  0.00000000000E+00  0.14999999963E+04  0.15000000000E+04  0.10566000000E+00 0. -1.
        994   -1    0    0    0    0 -0.00000000000E+00 -0.00000000000E+00  0.11368683772E-12  0.17120000000E+03  0.17120000000E+03 0.  0.
         13    1    1    2    0    0 -0.69485867605E+02 -0.21065825700E+03  0.13184167160E+04  0.13369472073E+04  0.10566000000E+00 0. -1.
        994    1    1    2    0    0  0.69519076712E+02  0.21075494209E+03  0.18097152372E+03  0.33363255242E+03  0.17120000000E+03 0.  0.
        998    1    1    2    0    0 -0.33209107190E-01 -0.96685088669E-01  0.61175661019E+00  0.62024027706E+00  0.10000000000E-02 0. -1.
</event>
<event>
 5    1  0.5722211E-009  0.3883010E+03  0.7957747E-01  0.3415792E+00
         13   -1    0    0    0    0  0.00000000000E+00  0.00000000000E+00  0.14999999963E+04  0.15000000000E+04  0.10566000000E+00 0.  1.
        994   -1    0    0    0    0 -0.00000000000E+00 -0.00000000000E+00  0.11368683772E-12  0.17120000000E+03  0.17120000000E+03 0.  0.
         13    1    1    2    0    0  0.11620368322E+02  0.22417698586E+03  0.13124964352E+04  0.13315544515E+04  0.10566000000E+00 0.  1.
        994    1    1    2    0    0 -0.11633089026E+02 -0.22439518000E+03  0.18621837878E+03  0.33834191310E+03  0.17120000000E+03 0.  0.
        998    1    1    2    0    0  0.12720704087E-01  0.21819413652E+00  0.12851823418E+01  0.13036353590E+01  0.10000000000E-02 0.  1.
</event>
<event>
 5    1  0.5722211E-009  0.3883005E+03  0.7957747E-01  0.3415794E+00
         13   -1    0    0    0    0  0.00000000000E+00  0.00000000000E+00  0.14999999963E+04  0.15000000000E+04  0.10566000000E+00 0. -1.
        994   -1    0    0    0    0 -0.00000000000E+00 -0.00000000000E+00  0.11368683772E-12  0.17120000000E+03  0.17120000000E+03 0.  0.
         13    1    1    2    0    0 -0.14454438518E+03  0.19381495591E+03  0.12787026202E+04  0.13013599496E+04  0.10566000000E+00 0. -1.
        994    1    1    2    0    0  0.14454942357E+03 -0.19383323201E+03  0.22118753451E+03  0.36972858032E+03  0.17120000000E+03 0.  0.
        998    1    1    2    0    0 -0.50383816782E-02  0.18276102419E-01  0.10984161847E+00  0.11147009625E+00  0.10000000000E-02 0.  1.
</event>
<event>
 5    1  0.5722211E-009  0.3883005E+03  0.7957747E-01  0.3415794E+00
         13   -1    0    0    0    0  0.00000000000E+00  0.00000000000E+00  0.14999999963E+04  0.15000000000E+04  0.10566000000E+00 0.  1.
        994   -1    0    0    0    0 -0.00000000000E+00 -0.00000000000E+00  0.11368683772E-12  0.17120000000E+03  0.17120000000E+03 0.  0.
         13    1    1    2    0    0 -0.23802460534E+03  0.38119507070E+02  0.12799397699E+04  0.13024417973E+04  0.10566000000E+00 0.  1.
        994    1    1    2    0    0  0.23808530895E+03 -0.38142931221E+02  0.21971491983E+03  0.36840681799E+03  0.17120000000E+03 0.  0.
        998    1    1    2    0    0 -0.60703617247E-01  0.23424150072E-01  0.34530651404E+00  0.35138470171E+00  0.10000000000E-02 0.  1.
</event>
<event>
 5    1  0.5722211E-009  0.3883010E+03  0.7957747E-01  0.3415792E+00
         13   -1    0    0    0    0  0.00000000000E+00  0.00000000000E+00  0.14999999963E+04  0.15000000000E+04  0.10566000000E+00 0.  1.
        994   -1    0    0    0    0 -0.00000000000E+00 -0.00000000000E+00  0.11368683772E-12  0.17120000000E+03  0.17120000000E+03 0.  0.
         13    1    1    2    0    0  0.22872801461E+03 -0.17152708096E+02  0.13043137708E+04  0.13243281858E+04  0.10566000000E+00 0.  1.
        994    1    1    2    0    0 -0.22877687099E+03  0.17156985523E+02  0.19541762103E+03  0.34659876725E+03  0.17120000000E+03 0.  0.
        998    1    1    2    0    0  0.48856374177E-01 -0.42774265129E-02  0.26860449362E+00  0.27304691111E+00  0.10000000000E-02 0. -1.
</event>
<event>
 5    1  0.5722211E-009  0.3883004E+03  0.7957747E-01  0.3415794E+00
         13   -1    0    0    0    0  0.00000000000E+00  0.00000000000E+00  0.14999999963E+04  0.15000000000E+04  0.10566000000E+00 0. -1.
        994   -1    0    0    0    0 -0.00000000000E+00 -0.00000000000E+00  0.11368683772E-12  0.17120000000E+03  0.17120000000E+03 0.  0.
         13    1    1    2    0    0  0.27982952866E+03  0.27081376380E+02  0.11719328138E+04  0.12051823502E+04  0.10566000000E+00 0. -1.
        994    1    1    2    0    0 -0.28047320186E+03 -0.27105143928E+02  0.32528797716E+03  0.46316478048E+03  0.17120000000E+03 0.  0.
        998    1    1    2    0    0  0.64367319737E+00  0.23767548042E-01  0.27792052846E+01  0.28528692742E+01  0.10000000000E-02 0.  1.
</event>
<event>
 5    1  0.5722211E-009  0.3857305E+03  0.7957747E-01  0.3426580E+00
         13   -1    0    0    0    0  0.00000000000E+00  0.00000000000E+00  0.14999999963E+04  0.15000000000E+04  0.10566000000E+00 0. -1.
        994   -1    0    0    0    0 -0.00000000000E+00 -0.00000000000E+00  0.11368683772E-12  0.17120000000E+03  0.17120000000E+03 0.  0.
         13    1    1    2    0    0  0.30701258793E+03 -0.23949685617E+02  0.76624530561E+03  0.82581002423E+03  0.10566000000E+00 0. -1.
        994    1    1    2    0    0 -0.33427750954E+03  0.32083309651E+02  0.59949528518E+03  0.70814887495E+03  0.17120000000E+03 0.  0.
        998    1    1    2    0    0  0.27264921610E+02 -0.81336240347E+01  0.13425940548E+03  0.13724110081E+03  0.10000000000E-02 0. -1.
</event>
<event>
 5    1  0.5722211E-009  0.3882943E+03  0.7957747E-01  0.3415820E+00
         13   -1    0    0    0    0  0.00000000000E+00  0.00000000000E+00  0.14999999963E+04  0.15000000000E+04  0.10566000000E+00 0.  1.
        994   -1    0    0    0    0 -0.00000000000E+00 -0.00000000000E+00  0.11368683772E-12  0.17120000000E+03  0.17120000000E+03 0.  0.
         13    1    1    2    0    0 -0.15492898026E+03 -0.15227819545E+03  0.13082818441E+04  0.13261949451E+04  0.10566000000E+00 0.  1.
        994    1    1    2    0    0  0.15673894756E+03  0.15370660707E+03  0.17653223927E+03  0.32964509740E+03  0.17120000000E+03 0.  0.
        998    1    1    2    0    0 -0.18099672960E+01 -0.14284116260E+01  0.15185912942E+02  0.15359957495E+02  0.10000000000E-02 0.  1.
</event>
<event>
 5    1  0.5722211E-009  0.3883010E+03  0.7957747E-01  0.3415792E+00
         13   -1    0    0    0    0  0.00000000000E+00  0.00000000000E+00  0.14999999963E+04  0.15000000000E+04  0.10566000000E+00 0.  1.
        994   -1    0    0    0    0 -0.00000000000E+00 -0.00000000000E+00  0.11368683772E-12  0.17120000000E+03  0.17120000000E+03 0.  0.
         13    1    1    2    0    0 -0.22767370622E+03  0.28891098691E+02  0.12514702646E+04  0.12723395169E+04  0.10566000000E+00 0.  1.
        994    1    1    2    0    0  0.23469231690E+03 -0.29779126457E+02  0.21000778515E+03  0.35969430049E+03  0.17120000000E+03 0.  0.
        998    1    1    2    0    0 -0.70186106786E+01  0.88802776642E+00  0.38521946577E+02  0.39166182584E+02  0.10000000000E-02 0. -1.
</event>
<event>
 5    1  0.5722211E-009  0.3883010E+03  0.7957747E-01  0.3415792E+00
         13   -1    0    0    0    0  0.00000000000E+00  0.00000000000E+00  0.14999999963E+04  0.15000000000E+04  0.10566000000E+00 0. -1.
        994   -1    0    0    0    0 -0.00000000000E+00 -0.00000000000E+00  0.11368683772E-12  0.17120000000E+03  0.17120000000E+03 0.  0.
         13    1    1    2    0    0  0.39183439697E+02 -0.30081545832E+03  0.10934973304E+04  0.11347958868E+04  0.10566000000E+00 0. -1.
        994    1    1    2    0    0 -0.39264170556E+02  0.30149066880E+03  0.40404453203E+03  0.53385365253E+03  0.17120000000E+03 0.  0.
        998    1    1    2    0    0  0.80730859289E-01 -0.67521047847E+00  0.24581338373E+01  0.25504606690E+01  0.10000000000E-02 0.  1.
</event>
<event>
 5    1  0.5722211E-009  0.3830474E+03  0.7957747E-01  0.3437996E+00
         13   -1    0    0    0    0  0.00000000000E+00  0.00000000000E+00  0.14999999963E+04  0.15000000000E+04  0.10566000000E+00 0. -1.
        994   -1    0    0    0    0 -0.00000000000E+00 -0.00000000000E+00  0.11368683772E-12  0.17120000000E+03  0.17120000000E+03 0.  0.
         13    1    1    2    0    0  0.18936602990E+02  0.17489263892E+02  0.65823797534E+02  0.70691249600E+02  0.10566000000E+00 0. -1.
        994    1    1    2    0    0 -0.10613875726E+03 -0.10106107140E+03  0.77275471231E+02  0.23824297345E+03  0.17120000000E+03 0.  0.
        998    1    1    2    0    0  0.87202154267E+02  0.83571807507E+02  0.13569007275E+04  0.13622657769E+04  0.10000000000E-02 0. -1.
</event>
<event>
 5    1  0.5722211E-009  0.3882974E+03  0.7957747E-01  0.3415807E+00
         13   -1    0    0    0    0  0.00000000000E+00  0.00000000000E+00  0.14999999963E+04  0.15000000000E+04  0.10566000000E+00 0. -1.
        994   -1    0    0    0    0 -0.00000000000E+00 -0.00000000000E+00  0.11368683772E-12  0.17120000000E+03  0.17120000000E+03 0.  0.
         13    1    1    2    0    0 -0.16706331045E+03  0.23595088154E+03  0.11063972209E+04  0.11435461467E+04  0.10566000000E+00 0. -1.
        994    1    1    2    0    0  0.17087481046E+03 -0.24078118463E+03  0.37047288456E+03  0.50371954291E+03  0.17120000000E+03 0.  0.
        998    1    1    2    0    0 -0.38115000052E+01  0.48303030912E+01  0.23129890849E+02  0.23934310350E+02  0.10000000000E-02 0.  1.
</event>
<event>
 5    1  0.5722211E-009  0.3883009E+03  0.7957747E-01  0.3415792E+00
         13   -1    0    0    0    0  0.00000000000E+00  0.00000000000E+00  0.14999999963E+04  0.15000000000E+04  0.10566000000E+00 0. -1.
        994   -1    0    0    0    0 -0.00000000000E+00 -0.00000000000E+00  0.11368683772E-12  0.17120000000E+03  0.17120000000E+03 0.  0.
         13    1    1    2    0    0 -0.19992177865E+03 -0.12793173445E+03  0.12781536988E+04  0.13000046674E+04  0.10566000000E+00 0. -1.
        994    1    1    2    0    0  0.20106161641E+03  0.12864658567E+03  0.21449368696E+03  0.36372063365E+03  0.17120000000E+03 0.  0.
        998    1    1    2    0    0 -0.11398377596E+01 -0.71485122231E+00  0.73526105175E+01  0.74746989779E+01  0.10000000000E-02 0. -1.
</event>
<event>
 5    1  0.5722211E-009  0.3726539E+03  0.7957747E-01  0.3483782E+00
         13   -1    0    0    0    0  0.00000000000E+00  0.00000000000E+00  0.14999999963E+04  0.15000000000E+04  0.10566000000E+00 0. -1.
        994   -1    0    0    0    0 -0.00000000000E+00 -0.00000000000E+00  0.11368683772E-12  0.17120000000E+03  0.17120000000E+03 0.  0.
         13    1    1    2    0    0  0.28709950400E+02 -0.11836391492E+02  0.12209935527E+03  0.12598660697E+03  0.10566000000E+00 0. -1.
        994    1    1    2    0    0  0.82441372137E+02 -0.13358965064E+03  0.97688968884E+02  0.25198283521E+03  0.17120000000E+03 0.  0.
        998    1    1    2    0    0 -0.11115132254E+03  0.14542604213E+03  0.12802116721E+04  0.12932305578E+04  0.10000000000E-02 0. -1.
</event>
<event>
 5    1  0.5722211E-009  0.3883009E+03  0.7957747E-01  0.3415792E+00
         13   -1    0    0    0    0  0.00000000000E+00  0.00000000000E+00  0.14999999963E+04  0.15000000000E+04  0.10566000000E+00 0.  1.
        994   -1    0    0    0    0 -0.00000000000E+00 -0.00000000000E+00  0.11368683772E-12  0.17120000000E+03  0.17120000000E+03 0.  0.
         13    1    1    2    0    0  0.72280672911E+02  0.19756852559E+03  0.12223818266E+04  0.12403528366E+04  0.10566000000E+00 0.  1.
        994    1    1    2    0    0 -0.77568915521E+02 -0.21196743947E+03  0.18817370361E+03  0.34009691969E+03  0.17120000000E+03 0.  0.
        998    1    1    2    0    0  0.52882426105E+01  0.14398913883E+02  0.89444466027E+02  0.90750243717E+02  0.10000000000E-02 0. -1.
</event>
<event>
 5    1  0.5722211E-009  0.3883009E+03  0.7957747E-01  0.3415792E+00
         13   -1    0    0    0    0  0.00000000000E+00  0.00000000000E+00  0.14999999963E+04  0.15000000000E+04  0.10566000000E+00 0. -1.
        994   -1    0    0    0    0 -0.00000000000E+00 -0.00000000000E+00  0.11368683772E-12  0.17120000000E+03  0.17120000000E+03 0.  0.
         13    1    1    2    0    0 -0.69697659560E+02 -0.26381275607E+03  0.11882588025E+04  0.12191857639E+04  0.10566000000E+00 0. -1.
        994    1    1    2    0    0  0.70181864753E+02  0.26555259722E+03  0.30390371537E+03  0.44397137774E+03  0.17120000000E+03 0.  0.
        998    1    1    2    0    0 -0.48420519372E+00 -0.17398411514E+01  0.78374784295E+01  0.80428583870E+01  0.10000000000E-02 0.  1.
</event>
<event>
 5    1  0.5722211E-009  0.3883010E+03  0.7957747E-01  0.3415792E+00
         13   -1    0    0    0    0  0.00000000000E+00  0.00000000000E+00  0.14999999963E+04  0.15000000000E+04  0.10566000000E+00 0.  1.
        994   -1    0    0    0    0 -0.00000000000E+00 -0.00000000000E+00  0.11368683772E-12  0.17120000000E+03  0.17120000000E+03 0.  0.
         13    1    1    2    0    0  0.79714505022E+02 -0.22611726538E+03  0.12822073260E+04  0.13044305494E+04  0.10566000000E+00 0.  1.
        994    1    1    2    0    0 -0.79759509176E+02  0.22624719426E+03  0.21706103574E+03  0.36602500659E+03  0.17120000000E+03 0.  0.
        998    1    1    2    0    0  0.45004153544E-01 -0.12992887752E+00  0.73163450400E+00  0.74444404390E+00  0.10000000000E-02 0.  1.
</event>
<event>
 5    1  0.5722211E-009  0.3808957E+03  0.7957747E-01  0.3447268E+00
         13   -1    0    0    0    0  0.00000000000E+00  0.00000000000E+00  0.14999999963E+04  0.15000000000E+04  0.10566000000E+00 0.  1.
        994   -1    0    0    0    0 -0.00000000000E+00 -0.00000000000E+00  0.11368683772E-12  0.17120000000E+03  0.17120000000E+03 0.  0.
         13    1    1    2    0    0 -0.19558799883E+03 -0.27362010807E+02  0.82126902643E+03  0.84468110543E+03  0.10566000000E+00 0.  1.
        994    1    1    2    0    0  0.28801232582E+03  0.88902677317E+02  0.41738732991E+03  0.54256465885E+03  0.17120000000E+03 0.  0.
        998    1    1    2    0    0 -0.92424326988E+02 -0.61540666510E+02  0.26134363993E+03  0.28395423573E+03  0.10000000000E-02 0. -1.
</event>
<event>
 5    1  0.5722211E-009  0.3882727E+03  0.7957747E-01  0.3415910E+00
         13   -1    0    0    0    0  0.00000000000E+00  0.00000000000E+00  0.14999999963E+04  0.15000000000E+04  0.10566000000E+00 0.  1.
        994   -1    0    0    0    0 -0.00000000000E+00 -0.00000000000E+00  0.11368683772E-12  0.17120000000E+03  0.17120000000E+03 0.  0.
         13    1    1    2    0    0 -0.17890574807E+03 -0.14413284900E+03  0.12593438677E+04  0.12801283268E+04  0.10566000000E+00 0.  1.
        994    1    1    2    0    0  0.18352022634E+03  0.14693822440E+03  0.20696781774E+03  0.35695326423E+03  0.17120000000E+03 0.  0.
        998    1    1    2    0    0 -0.46144782704E+01 -0.28053753996E+01  0.33688310822E+02  0.34118408930E+02  0.10000000000E-02 0. -1.
</event>
<event>
 5    1  0.5722211E-009  0.3850515E+03  0.7957747E-01  0.3429454E+00
         13   -1    0    0    0    0  0.00000000000E+00  0.00000000000E+00  0.14999999963E+04  0.15000000000E+04  0.10566000000E+00 0. -1.
        994   -1    0    0    0    0 -0.00000000000E+00 -0.00000000000E+00  0.11368683772E-12  0.17120000000E+03  0.17120000000E+03 0.  0.
         13    1    1    2    0    0 -0.12318646961E+02 -0.72795491733E+01  0.80242041231E+02  0.81507896821E+02  0.10566000000E+00 0. -1.
        994    1    1    2    0    0  0.53242768242E+02 -0.98997776422E+02  0.44316700402E+02  0.20954417682E+03  0.17120000000E+03 0.  0.
        998    1    1    2    0    0 -0.40924121281E+02  0.10627732560E+03  0.13754412546E+04  0.13801479264E+04  0.10000000000E-02 0. -1.
</event>
<event>
 5    1  0.5722211E-009  0.3882998E+03  0.7957747E-01  0.3415797E+00
         13   -1    0    0    0    0  0.00000000000E+00  0.00000000000E+00  0.14999999963E+04  0.15000000000E+04  0.10566000000E+00 0. -1.
        994   -1    0    0    0    0 -0.00000000000E+00 -0.00000000000E+00  0.11368683772E-12  0.17120000000E+03  0.17120000000E+03 0.  0.
         13    1    1    2    0    0  0.18154578622E+03 -0.14952850374E+03  0.12219476691E+04  0.12443768573E+04  0.10566000000E+00 0. -1.
        994    1    1    2    0    0 -0.18890737877E+03  0.15589965642E+03  0.22812024203E+03  0.37595077531E+03  0.17120000000E+03 0.  0.
        998    1    1    2    0    0  0.73615925506E+01 -0.63711526822E+01  0.49932085191E+02  0.50872367391E+02  0.10000000000E-02 0. -1.
</event>
<event>
 5    1  0.5722211E-009  0.3882779E+03  0.7957747E-01  0.3415888E+00
         13   -1    0    0    0    0  0.00000000000E+00  0.00000000000E+00  0.14999999963E+04  0.15000000000E+04  0.10566000000E+00 0. -1.
        994   -1    0    0    0    0 -0.00000000000E+00 -0.00000000000E+00  0.11368683772E-12  0.17120000000E+03  0.17120000000E+03 0.  0.
         13    1    1    2    0    0  0.14833295228E+03 -0.18614151390E+03  0.12837662164E+04  0.13056442997E+04  0.10566000000E+00 0. -1.
        994    1    1    2    0    0 -0.14854285395E+03  0.18627671005E+03  0.21358186327E+03  0.36289205624E+03  0.17120000000E+03 0.  0.
        998    1    1    2    0    0  0.20990167208E+00 -0.13519614698E+00  0.26519166282E+01  0.26636440289E+01  0.10000000000E-02 0. -1.
</event>
<event>
 5    1  0.5722211E-009  0.3883010E+03  0.7957747E-01  0.3415792E+00
         13   -1    0    0    0    0  0.00000000000E+00  0.00000000000E+00  0.14999999963E+04  0.15000000000E+04  0.10566000000E+00 0.  1.
        994   -1    0    0    0    0 -0.00000000000E+00 -0.00000000000E+00  0.11368683772E-12  0.17120000000E+03  0.17120000000E+03 0.  0.
         13    1    1    2    0    0  0.91559890125E+01 -0.26515832844E+03  0.12193556485E+04  0.12478866054E+04  0.10566000000E+00 0.  1.
        994    1    1    2    0    0 -0.91678389611E+01  0.26553640653E+03  0.27890752780E+03  0.42153586031E+03  0.17120000000E+03 0.  0.
        998    1    1    2    0    0  0.11849948655E-01 -0.37807808794E+00  0.17368199873E+01  0.17775342838E+01  0.10000000000E-02 0.  0.
</event>
<event>
 5    1  0.5722211E-009  0.3882964E+03  0.7957747E-01  0.3415811E+00
         13   -1    0    0    0    0  0.00000000000E+00  0.00000000000E+00  0.14999999963E+04  0.15000000000E+04  0.10566000000E+00 0. -1.
        994   -1    0    0    0    0 -0.00000000000E+00 -0.00000000000E+00  0.11368683772E-12  0.17120000000E+03  0.17120000000E+03 0.  0.
         13    1    1    2    0    0  0.18733313774E+03  0.14933063452E+03  0.12126486048E+04  0.12360865636E+04  0.10566000000E+00 0. -1.
        994    1    1    2    0    0 -0.19535404862E+03 -0.15537097730E+03  0.23880460024E+03  0.38553913160E+03  0.17120000000E+03 0.  0.
        998    1    1    2    0    0  0.80209108898E+01  0.60403427841E+01  0.48546791234E+02  0.49574304761E+02  0.10000000000E-02 0. -1.
</event>
<event>
 5    1  0.5722211E-009  0.3883008E+03  0.7957747E-01  0.3415793E+00
         13   -1    0    0    0    0  0.00000000000E+00  0.00000000000E+00  0.14999999963E+04  0.15000000000E+04  0.10566000000E+00 0. -1.
        994   -1    0    0    0    0 -0.00000000000E+00 -0.00000000000E+00  0.11368683772E-12  0.17120000000E+03  0.17120000000E+03 0.  0.
         13    1    1    2    0    0  0.28159415875E+03  0.11497849113E+03  0.10712761675E+04  0.11136193074E+04  0.10566000000E+00 0. -1.
        994    1    1    2    0    0 -0.28454393043E+03 -0.11613475393E+03  0.41769284377E+03  0.54610372746E+03  0.17120000000E+03 0.  0.
        998    1    1    2    0    0  0.29497716838E+01  0.11562628043E+01  0.11030984999E+02  0.11476965092E+02  0.10000000000E-02 0.  1.
</event>
<event>
 5    1  0.5722211E-009  0.3857951E+03  0.7957747E-01  0.3426307E+00
         13   -1    0    0    0    0  0.00000000000E+00  0.00000000000E+00  0.14999999963E+04  0.15000000000E+04  0.10566000000E+00 0. -1.
        994   -1    0    0    0    0 -0.00000000000E+00 -0.00000000000E+00  0.11368683772E-12  0.17120000000E+03  0.17120000000E+03 0.  0.
         13    1    1    2    0    0 -0.10435074205E+02  0.27007570329E+02  0.15133704588E+03  0.15408183620E+03  0.10566000000E+00 0. -1.
        994    1    1    2    0    0  0.86713356781E+02 -0.80276527899E+02  0.48460979476E+02  0.21359174541E+03  0.17120000000E+03 0.  0.
        998    1    1    2    0    0 -0.76278282575E+02  0.53268957570E+02  0.13002019709E+04  0.13035264184E+04  0.10000000000E-02 0. -1.
</event>
<event>
 5    1  0.5722211E-009  0.3882309E+03  0.7957747E-01  0.3416084E+00
         13   -1    0    0    0    0  0.00000000000E+00  0.00000000000E+00  0.14999999963E+04  0.15000000000E+04  0.10566000000E+00 0.  1.
        994   -1    0    0    0    0 -0.00000000000E+00 -0.00000000000E+00  0.11368683772E-12  0.17120000000E+03  0.17120000000E+03 0.  0.
         13    1    1    2    0    0  0.23497424823E+03  0.24999488265E+02  0.12790674804E+04  0.13007119213E+04  0.10566000000E+00 0.  1.
        994    1    1    2    0    0 -0.23620615225E+03 -0.24429260978E+02  0.21198383844E+03  0.36143702482E+03  0.17120000000E+03 0.  0.
        998    1    1    2    0    0  0.12319040195E+01 -0.57022728633E+00  0.89486774435E+01  0.90510538425E+01  0.10000000000E-02 0. -1.
</event>
<event>
 5    1  0.5722211E-009  0.3883009E+03  0.7957747E-01  0.3415792E+00
         13   -1    0    0    0    0  0.00000000000E+00  0.00000000000E+00  0.14999999963E+04  0.15000000000E+04  0.10566000000E+00 0.  1.
        994   -1    0    0    0    0 -0.00000000000E+00 -0.00000000000E+00  0.11368683772E-12  0.17120000000E+03  0.17120000000E+03 0.  0.
         13    1    1    2    0    0 -0.22374399705E+03  0.10329008296E+03  0.12242179287E+04  0.12487753062E+04  0.10566000000E+00 0.  1.
        994    1    1    2    0    0  0.22928318495E+03 -0.10580468647E+03  0.24565676259E+03  0.39169132692E+03  0.17120000000E+03 0.  0.
        998    1    1    2    0    0 -0.55391878969E+01  0.25146035108E+01  0.30125305028E+02  0.30733366842E+02  0.10000000000E-02 0. -1.
</event>
<event>
 5    1  0.5722211E-009  0.3883009E+03  0.7957747E-01  0.3415792E+00
         13   -1    0    0    0    0  0.00000000000E+00  0.00000000000E+00  0.14999999963E+04  0.15000000000E+04  0.10566000000E+00 0.  1.
        994   -1    0    0    0    0 -0.00000000000E+00 -0.00000000000E+00  0.11368683772E-12  0.17120000000E+03  0.17120000000E+03 0.  0.
         13    1    1    2    0    0  0.11699382359E+03 -0.20371040829E+03  0.12926853504E+04  0.13138572645E+04  0.10566000000E+00 0.  1.
        994    1    1    2    0    0 -0.11704028892E+03  0.20379656058E+03  0.20675647599E+03  0.35677604698E+03  0.17120000000E+03 0.  0.
        998    1    1    2    0    0  0.46465322570E-01 -0.86152291988E-01  0.55816992435E+00  0.56668854591E+00  0.10000000000E-02 0. -1.
</event>
<event>
 5    1  0.5722211E-009  0.3883008E+03  0.7957747E-01  0.3415793E+00
         13   -1    0    0    0    0  0.00000000000E+00  0.00000000000E+00  0.14999999963E+04  0.15000000000E+04  0.10566000000E+00 0.  1.
        994   -1    0    0    0    0 -0.00000000000E+00 -0.00000000000E+00  0.11368683772E-12  0.17120000000E+03  0.17120000000E+03 0.  0.
         13    1    1    2    0    0 -0.18450749019E+03  0.20594356364E+03  0.11905692028E+04  0.12222564392E+04  0.10566000000E+00 0.  1.
        994    1    1    2    0    0  0.18452258369E+03 -0.20595466110E+03  0.30933807153E+03  0.44884895992E+03  0.17120000000E+03 0.  0.
        998    1    1    2    0    0 -0.15093499625E-01  0.11097464227E-01  0.92721940047E-01  0.94600875310E-01  0.10000000000E-02 0. -1.
</event>
<event>
 5    1  0.5722211E-009  0.3883010E+03  0.7957747E-01  0.3415792E+00
         13   -1    0    0    0    0  0.00000000000E+00  0.00000000000E+00  0.14999999963E+04  0.15000000000E+04  0.10566000000E+00 0. -1.
        994   -1    0    0    0    0 -0.00000000000E+00 -0.00000000000E+00  0.11368683772E-12  0.17120000000E+03  0.17120000000E+03 0.  0.
         13    1    1    2    0    0  0.14924457917E+03 -0.21788738918E+03  0.12018496107E+04  0.12305248298E+04  0.10566000000E+00 0. -1.
        994    1    1    2    0    0 -0.15107563130E+03  0.22058224139E+03  0.28338557041E+03  0.42555515871E+03  0.17120000000E+03 0.  0.
        998    1    1    2    0    0  0.18310521305E+01 -0.26948522035E+01  0.14764815157E+02  0.15120011505E+02  0.10000000000E-02 0. -1.
</event>
<event>
 5    1  0.5722211E-009  0.3883009E+03  0.7957747E-01  0.3415792E+00
         13   -1    0    0    0    0  0.00000000000E+00  0.00000000000E+00  0.14999999963E+04  0.15000000000E+04  0.10566000000E+00 0. -1.
        994   -1    0    0    0    0 -0.00000000000E+00 -0.00000000000E+00  0.11368683772E-12  0.17120000000E+03  0.17120000000E+03 0.  0.
         13    1    1    2    0    0 -0.18590890724E+03 -0.10772868470E+03  0.11200830522E+04  0.11405058730E+04  0.10566000000E+00 0. -1.
        994    1    1    2    0    0  0.21128868355E+03  0.12244580266E+03  0.22649799178E+03  0.37449521048E+03  0.17120000000E+03 0.  0.
        998    1    1    2    0    0 -0.25379776312E+02 -0.14717117966E+02  0.15341895227E+03  0.15619891653E+03  0.10000000000E-02 0. -1.
</event>
<event>
 5    1  0.5722211E-009  0.3883010E+03  0.7957747E-01  0.3415792E+00
         13   -1    0    0    0    0  0.00000000000E+00  0.00000000000E+00  0.14999999963E+04  0.15000000000E+04  0.10566000000E+00 0.  1.
        994   -1    0    0    0    0 -0.00000000000E+00 -0.00000000000E+00  0.11368683772E-12  0.17120000000E+03  0.17120000000E+03 0.  0.
         13    1    1    2    0    0 -0.19900715467E+03 -0.14261740290E+03  0.12714871893E+04  0.12948448768E+04  0.10566000000E+00 0.  1.
        994    1    1    2    0    0  0.19907358621E+03  0.14266777881E+03  0.22808961519E+03  0.37592379600E+03  0.17120000000E+03 0.  0.
        998    1    1    2    0    0 -0.66431544237E-01 -0.50375908622E-01  0.42319176892E+00  0.43132720239E+00  0.10000000000E-02 0.  1.
</event>
<event>
 5    1  0.5722211E-009  0.3882984E+03  0.7957747E-01  0.3415802E+00
         13   -1    0    0    0    0  0.00000000000E+00  0.00000000000E+00  0.14999999963E+04  0.15000000000E+04  0.10566000000E+00 0.  1.
        994   -1    0    0    0    0 -0.00000000000E+00 -0.00000000000E+00  0.11368683772E-12  0.17120000000E+03  0.17120000000E+03 0.  0.
         13    1    1    2    0    0 -0.24257550805E+03 -0.48553194002E+02  0.12659710955E+04  0.12899159335E+04  0.10566000000E+00 0.  1.
        994    1    1    2    0    0  0.24260949515E+03  0.48542121847E+02  0.23375350632E+03  0.38100636011E+03  0.17120000000E+03 0.  0.
        998    1    1    2    0    0 -0.33987099983E-01  0.11072154828E-01  0.27539446976E+00  0.27770637290E+00  0.10000000000E-02 0.  1.
</event>
<event>
 5    1  0.5722211E-009  0.3883009E+03  0.7957747E-01  0.3415792E+00
         13   -1    0    0    0    0  0.00000000000E+00  0.00000000000E+00  0.14999999963E+04  0.15000000000E+04  0.10566000000E+00 0. -1.
        994   -1    0    0    0    0 -0.00000000000E+00 -0.00000000000E+00  0.11368683772E-12  0.17120000000E+03  0.17120000000E+03 0.  0.
         13    1    1    2    0    0  0.81766532483E+02  0.20346605364E+03  0.13237107250E+04  0.13417504595E+04  0.10566000000E+00 0. -1.
        994    1    1    2    0    0 -0.81779849108E+02 -0.20348905026E+03  0.17611766536E+03  0.32927588638E+03  0.17120000000E+03 0.  0.
        998    1    1    2    0    0  0.13316625030E-01  0.22996622228E-01  0.17160589796E+00  0.17365414292E+00  0.10000000000E-02 0.  0.
</event>
<event>
 5    1  0.5722211E-009  0.3882383E+03  0.7957747E-01  0.3416053E+00
         13   -1    0    0    0    0  0.00000000000E+00  0.00000000000E+00  0.14999999963E+04  0.15000000000E+04  0.10566000000E+00 0.  1.
        994   -1    0    0    0    0 -0.00000000000E+00 -0.00000000000E+00  0.11368683772E-12  0.17120000000E+03  0.17120000000E+03 0.  0.
         13    1    1    2    0    0  0.27453009544E+02  0.13886787790E+02  0.16402781943E+03  0.16688812815E+03  0.10566000000E+00 0.  1.
        994    1    1    2    0    0 -0.20716321383E+03 -0.13193863785E+03  0.22974253989E+03  0.37737975033E+03  0.17120000000E+03 0.  0.
        998    1    1    2    0    0  0.17971020429E+03  0.11805185006E+03  0.11062296370E+04  0.11269321215E+04  0.10000000000E-02 0.  1.
</event>
<event>
 5    1  0.5722211E-009  0.3883007E+03  0.7957747E-01  0.3415793E+00
         13   -1    0    0    0    0  0.00000000000E+00  0.00000000000E+00  0.14999999963E+04  0.15000000000E+04  0.10566000000E+00 0. -1.
        994   -1    0    0    0    0 -0.00000000000E+00 -0.00000000000E+00  0.11368683772E-12  0.17120000000E+03  0.17120000000E+03 0.  0.
         13    1    1    2    0    0  0.13835861821E+03 -0.22077866167E+03  0.12290416418E+04  0.12563557192E+04  0.10566000000E+00 0. -1.
        994    1    1    2    0    0 -0.13876584789E+03  0.22139268979E+03  0.26735882445E+03  0.41117011643E+03  0.17120000000E+03 0.  0.
        998    1    1    2    0    0  0.40722968718E+00 -0.61402811180E+00  0.35995299878E+01  0.36741643503E+01  0.10000000000E-02 0.  1.
</event>
<event>
 5    1  0.5722211E-009  0.3878323E+03  0.7957747E-01  0.3417748E+00
         13   -1    0    0    0    0  0.00000000000E+00  0.00000000000E+00  0.14999999963E+04  0.15000000000E+04  0.10566000000E+00 0. -1.
        994   -1    0    0    0    0 -0.00000000000E+00 -0.00000000000E+00  0.11368683772E-12  0.17120000000E+03  0.17120000000E+03 0.  0.
         13    1    1    2    0    0 -0.11916213721E+03  0.37402540426E+02  0.75302268792E+03  0.76330973049E+03  0.10566000000E+00 0. -1.
        994    1    1    2    0    0  0.19044717167E+03 -0.67409388616E+02  0.14685304016E+03  0.30280258631E+03  0.17120000000E+03 0.  0.
        998    1    1    2    0    0 -0.71285034466E+02  0.30006848190E+02  0.60012426820E+03  0.60508768320E+03  0.10000000000E-02 0. -1.
</event>
<event>
 5    1  0.5722211E-009  0.3882912E+03  0.7957747E-01  0.3415833E+00
         13   -1    0    0    0    0  0.00000000000E+00  0.00000000000E+00  0.14999999963E+04  0.15000000000E+04  0.10566000000E+00 0. -1.
        994   -1    0    0    0    0 -0.00000000000E+00 -0.00000000000E+00  0.11368683772E-12  0.17120000000E+03  0.17120000000E+03 0.  0.
         13    1    1    2    0    0  0.17122498732E+03  0.18297242120E+03  0.12080940445E+04  0.12338104128E+04  0.10566000000E+00 0. -1.
        994    1    1    2    0    0 -0.17636354048E+03 -0.18834671585E+03  0.25912052624E+03  0.40377155781E+03  0.17120000000E+03 0.  0.
        998    1    1    2    0    0  0.51385531522E+01  0.53742946468E+01  0.32785425580E+02  0.33618029433E+02  0.10000000000E-02 0. -1.
</event>
<event>
 5    1  0.5722211E-009  0.3882653E+03  0.7957747E-01  0.3415940E+00
         13   -1    0    0    0    0  0.00000000000E+00  0.00000000000E+00  0.14999999963E+04  0.15000000000E+04  0.10566000000E+00 0.  1.
        994   -1    0    0    0    0 -0.00000000000E+00 -0.00000000000E+00  0.11368683772E-12  0.17120000000E+03  0.17120000000E+03 0.  0.
         13    1    1    2    0    0  0.27297428982E+03 -0.26165778857E+02  0.11583100221E+04  0.11903284124E+04  0.10566000000E+00 0.  1.
        994    1    1    2    0    0 -0.27883433830E+03  0.25980632483E+02  0.31999815479E+03  0.45840139675E+03  0.17120000000E+03 0.  0.
        998    1    1    2    0    0  0.58600484783E+01  0.18514637374E+00  0.21691819409E+02  0.22470190868E+02  0.10000000000E-02 0. -1.
</event>
<event>
 5    1  0.5722211E-009  0.3883010E+03  0.7957747E-01  0.3415792E+00
         13   -1    0    0    0    0  0.00000000000E+00  0.00000000000E+00  0.14999999963E+04  0.15000000000E+04  0.10566000000E+00 0. -1.
        994   -1    0    0    0    0 -0.00000000000E+00 -0.00000000000E+00  0.11368683772E-12  0.17120000000E+03  0.17120000000E+03 0.  0.
         13    1    1    2    0    0 -0.22110867088E+03 -0.10183484289E+03  0.12653837124E+04  0.12885865630E+04  0.10566000000E+00 0. -1.
        994    1    1    2    0    0  0.22231211570E+03  0.10238383488E+03  0.22772720204E+03  0.37559851568E+03  0.17120000000E+03 0.  0.
        998    1    1    2    0    0 -0.12034448171E+01 -0.54899198708E+00  0.68890818107E+01  0.70149212985E+01  0.10000000000E-02 0. -1.
</event>
<event>
 5    1  0.5722211E-009  0.3883005E+03  0.7957747E-01  0.3415794E+00
         13   -1    0    0    0    0  0.00000000000E+00  0.00000000000E+00  0.14999999963E+04  0.15000000000E+04  0.10566000000E+00 0.  1.
        994   -1    0    0    0    0 -0.00000000000E+00 -0.00000000000E+00  0.11368683772E-12  0.17120000000E+03  0.17120000000E+03 0.  0.
         13    1    1    2    0    0  0.20444565930E+03 -0.11795427139E+03  0.12909259324E+04  0.13123265645E+04  0.10566000000E+00 0.  1.
        994    1    1    2    0    0 -0.20446941530E+03  0.11797518347E+03  0.20893985424E+03  0.35873554103E+03  0.17120000000E+03 0.  0.
        998    1    1    2    0    0  0.23755994215E-01 -0.20912081279E-01  0.13420958944E+00  0.13789443899E+00  0.10000000000E-02 0. -1.
</event>
<event>
 5    1  0.5722211E-009  0.3882989E+03  0.7957747E-01  0.3415801E+00
         13   -1    0    0    0    0  0.00000000000E+00  0.00000000000E+00  0.14999999963E+04  0.15000000000E+04  0.10566000000E+00 0. -1.
        994   -1    0    0    0    0 -0.00000000000E+00 -0.00000000000E+00  0.11368683772E-12  0.17120000000E+03  0.17120000000E+03 0.  0.
         13    1    1    2    0    0  0.18920526602E+03 -0.17405776990E+03  0.12416632823E+04  0.12679993918E+04  0.10566000000E+00 0. -1.
        994    1    1    2    0    0 -0.18934787358E+03  0.17416890127E+03  0.25721723386E+03  0.40206662233E+03  0.17120000000E+03 0.  0.
        998    1    1    2    0    0  0.14260756779E+00 -0.11113136209E+00  0.11194801484E+01  0.11339858468E+01  0.10000000000E-02 0. -1.
</event>
<event>
 5    1  0.5722211E-009  0.4076432E+03  0.7957747E-01  0.3338972E+00
         13   -1    0    0    0    0  0.00000000000E+00  0.00000000000E+00  0.14999999963E+04  0.15000000000E+04  0.10566000000E+00 0.  1.
        994   -1    0    0    0    0 -0.00000000000E+00 -0.00000000000E+00  0.11368683772E-12  0.17120000000E+03  0.17120000000E+03 0.  0.
         13    1    1    2    0    0  0.81736377244E+02 -0.99230425887E+02  0.51786181857E+03  0.53358072218E+03  0.10566000000E+00 0.  1.
        994    1    1    2    0    0  0.14043205288E+03  0.14007331322E+03  0.21816597649E+03  0.34095091707E+03  0.17120000000E+03 0.  0.
        998    1    1    2    0    0 -0.22216843012E+03 -0.40842887331E+02  0.76397220121E+03  0.79666836075E+03  0.10000000000E-02 0.  1.
</event>
<event>
 5    1  0.5722211E-009  0.3882905E+03  0.7957747E-01  0.3415836E+00
         13   -1    0    0    0    0  0.00000000000E+00  0.00000000000E+00  0.14999999963E+04  0.15000000000E+04  0.10566000000E+00 0.  1.
        994   -1    0    0    0    0 -0.00000000000E+00 -0.00000000000E+00  0.11368683772E-12  0.17120000000E+03  0.17120000000E+03 0.  0.
         13    1    1    2    0    0  0.18181243091E+03  0.15658152107E+03  0.12679278836E+04  0.12904319672E+04  0.10566000000E+00 0.  1.
        994    1    1    2    0    0 -0.18302446608E+03 -0.15805214756E+03  0.22125919784E+03  0.36978846543E+03  0.17120000000E+03 0.  0.
        998    1    1    2    0    0  0.12120351719E+01  0.14706264892E+01  0.10812914873E+02  0.10979567413E+02  0.10000000000E-02 0.  1.
</event>
<event>
 5    1  0.5722211E-009  0.3729587E+03  0.7957747E-01  0.3482403E+00
         13   -1    0    0    0    0  0.00000000000E+00  0.00000000000E+00  0.14999999963E+04  0.15000000000E+04  0.10566000000E+00 0. -1.
        994   -1    0    0    0    0 -0.00000000000E+00 -0.00000000000E+00  0.11368683772E-12  0.17120000000E+03  0.17120000000E+03 0.  0.
         13    1    1    2    0    0 -0.66678613613E+02  0.11923388528E+03  0.77921434777E+03  0.79109908852E+03  0.10566000000E+00 0. -1.
        994    1    1    2    0    0  0.16082407145E+03 -0.24344700862E+03  0.40309780330E+03  0.52623959086E+03  0.17120000000E+03 0.  0.
        998    1    1    2    0    0 -0.94145457841E+02  0.12421312333E+03  0.31768784521E+03  0.35386132063E+03  0.10000000000E-02 0. -1.
</event>
<event>
 5    1  0.5722211E-009  0.3882992E+03  0.7957747E-01  0.3415799E+00
         13   -1    0    0    0    0  0.00000000000E+00  0.00000000000E+00  0.14999999963E+04  0.15000000000E+04  0.10566000000E+00 0.  1.
        994   -1    0    0    0    0 -0.00000000000E+00 -0.00000000000E+00  0.11368683772E-12  0.17120000000E+03  0.17120000000E+03 0.  0.
         13    1    1    2    0    0 -0.26269026814E+03  0.21667599589E+03  0.87485403238E+03  0.93878871601E+03  0.10566000000E+00 0.  1.
        994    1    1    2    0    0  0.26288780913E+03 -0.21681604782E+03  0.62462422892E+03  0.73183609239E+03  0.17120000000E+03 0.  0.
        998    1    1    2    0    0 -0.19754098349E+00  0.14005192152E+00  0.52173498184E+00  0.57519159604E+00  0.10000000000E-02 0.  1.
</event>
<event>
 5    1  0.5722211E-009  0.3883003E+03  0.7957747E-01  0.3415795E+00
         13   -1    0    0    0    0  0.00000000000E+00  0.00000000000E+00  0.14999999963E+04  0.15000000000E+04  0.10566000000E+00 0.  1.
        994   -1    0    0    0    0 -0.00000000000E+00 -0.00000000000E+00  0.11368683772E-12  0.17120000000E+03  0.17120000000E+03 0.  0.
         13    1    1    2    0    0  0.21902946785E+03 -0.34622896146E+02  0.13189899113E+04  0.13375002991E+04  0.10566000000E+00 0.  1.
        994    1    1    2    0    0 -0.21907705674E+03  0.34644229116E+02  0.18073790821E+03  0.33342257102E+03  0.17120000000E+03 0.  0.
        998    1    1    2    0    0  0.47588892935E-01 -0.21332970522E-01  0.27217676850E+00  0.27712991840E+00  0.10000000000E-02 0.  1.
</event>
<event>
 5    1  0.5722211E-009  0.3883004E+03  0.7957747E-01  0.3415794E+00
         13   -1    0    0    0    0  0.00000000000E+00  0.00000000000E+00  0.14999999963E+04  0.15000000000E+04  0.10566000000E+00 0.  1.
        994   -1    0    0    0    0 -0.00000000000E+00 -0.00000000000E+00  0.11368683772E-12  0.17120000000E+03  0.17120000000E+03 0.  0.
         13    1    1    2    0    0 -0.19903336272E+03 -0.25557463473E+03  0.87589158871E+03  0.93387298907E+03  0.10566000000E+00 0.  1.
        994    1    1    2    0    0  0.20690404819E+03  0.26598183810E+03  0.58873917992E+03  0.69962767622E+03  0.17120000000E+03 0.  0.
        998    1    1    2    0    0 -0.78706854702E+01 -0.10407203372E+02  0.35369227648E+02  0.37699334705E+02  0.10000000000E-02 0.  1.
</event>
<event>
 5    1  0.5722211E-009  0.3883006E+03  0.7957747E-01  0.3415794E+00
         13   -1    0    0    0    0  0.00000000000E+00  0.00000000000E+00  0.14999999963E+04  0.15000000000E+04  0.10566000000E+00 0. -1.
        994   -1    0    0    0    0 -0.00000000000E+00 -0.00000000000E+00  0.11368683772E-12  0.17120000000E+03  0.17120000000E+03 0.  0.
         13    1    1    2    0    0 -0.16764245925E+03 -0.22405570045E+02  0.60956352381E+03  0.63259284254E+03  0.10566000000E+00 0. -1.
        994    1    1    2    0    0  0.30172159451E+03  0.39984930882E+02  0.40535536754E+03  0.53503002653E+03  0.17120000000E+03 0.  0.
        998    1    1    2    0    0 -0.13407913526E+03 -0.17579360837E+02  0.48508110493E+03  0.50357713093E+03  0.10000000000E-02 0. -1.
</event>
<event>
 5    1  0.5722211E-009  0.3883010E+03  0.7957747E-01  0.3415792E+00
         13   -1    0    0    0    0  0.00000000000E+00  0.00000000000E+00  0.14999999963E+04  0.15000000000E+04  0.10566000000E+00 0.  1.
        994   -1    0    0    0    0 -0.00000000000E+00 -0.00000000000E+00  0.11368683772E-12  0.17120000000E+03  0.17120000000E+03 0.  0.
         13    1    1    2    0    0 -0.23686653273E+03  0.32340248124E+02  0.12805679692E+04  0.13026918211E+04  0.10566000000E+00 0.  1.
        994    1    1    2    0    0  0.23741125672E+03 -0.32417416873E+02  0.21645859459E+03  0.36548427723E+03  0.17120000000E+03 0.  0.
        998    1    1    2    0    0 -0.54472398717E+00  0.77168748845E-01  0.29734324974E+01  0.30239016278E+01  0.10000000000E-02 0.  1.
</event>
<event>
 5    1  0.5722211E-009  0.3882924E+03  0.7957747E-01  0.3415827E+00
         13   -1    0    0    0    0  0.00000000000E+00  0.00000000000E+00  0.14999999963E+04  0.15000000000E+04  0.10566000000E+00 0.  1.
        994   -1    0    0    0    0 -0.00000000000E+00 -0.00000000000E+00  0.11368683772E-12  0.17120000000E+03  0.17120000000E+03 0.  0.
         13    1    1    2    0    0 -0.19550299557E+03 -0.10104455840E+03  0.12685285903E+04  0.12874766870E+04  0.10566000000E+00 0.  1.
        994    1    1    2    0    0  0.20218266931E+03  0.10449039471E+03  0.19182112819E+03  0.34336694596E+03  0.17120000000E+03 0.  0.
        998    1    1    2    0    0 -0.66796737403E+01 -0.34458363133E+01  0.39650277806E+02  0.40356367035E+02  0.10000000000E-02 0. -1.
</event>
<event>
 5    1  0.5722211E-009  0.3882986E+03  0.7957747E-01  0.3415802E+00
         13   -1    0    0    0    0  0.00000000000E+00  0.00000000000E+00  0.14999999963E+04  0.15000000000E+04  0.10566000000E+00 0.  1.
        994   -1    0    0    0    0 -0.00000000000E+00 -0.00000000000E+00  0.11368683772E-12  0.17120000000E+03  0.17120000000E+03 0.  0.
         13    1    1    2    0    0  0.24069404299E+03  0.46006153408E+02  0.12712064321E+04  0.12946103632E+04  0.10566000000E+00 0.  1.
        994    1    1    2    0    0 -0.24072611847E+03 -0.46027295841E+02  0.22847382737E+03  0.37626759876E+03  0.17120000000E+03 0.  0.
        998    1    1    2    0    0  0.32075482544E-01  0.21142432333E-01  0.31973683646E+00  0.32203801579E+00  0.10000000000E-02 0. -1.
</event>
<event>
 5    1  0.5722211E-009  0.3883008E+03  0.7957747E-01  0.3415792E+00
         13   -1    0    0    0    0  0.00000000000E+00  0.00000000000E+00  0.14999999963E+04  0.15000000000E+04  0.10566000000E+00 0.  1.
        994   -1    0    0    0    0 -0.00000000000E+00 -0.00000000000E+00  0.11368683772E-12  0.17120000000E+03  0.17120000000E+03 0.  0.
         13    1    1    2    0    0 -0.54606994255E+02  0.23317582147E+03  0.12833639966E+04  0.13055175397E+04  0.10566000000E+00 0.  1.
        994    1    1    2    0    0  0.54616262832E+02 -0.23323942583E+03  0.21631797996E+03  0.36535800851E+03  0.17120000000E+03 0.  0.
        998    1    1    2    0    0 -0.92685770665E-02  0.63604360283E-01  0.31801971780E+00  0.32445178699E+00  0.10000000000E-02 0. -1.
</event>
<event>
 5    1  0.5722211E-009  0.3883010E+03  0.7957747E-01  0.3415792E+00
         13   -1    0    0    0    0  0.00000000000E+00  0.00000000000E+00  0.14999999963E+04  0.15000000000E+04  0.10566000000E+00 0. -1.
        994   -1    0    0    0    0 -0.00000000000E+00 -0.00000000000E+00  0.11368683772E-12  0.17120000000E+03  0.17120000000E+03 0.  0.
         13    1    1    2    0    0 -0.50503566130E+02  0.26741864111E+03  0.12027494469E+04  0.12331543225E+04  0.10566000000E+00 0. -1.
        994    1    1    2    0    0  0.50519858235E+02 -0.26749776437E+03  0.29688991119E+03  0.43767610099E+03  0.17120000000E+03 0.  0.
        998    1    1    2    0    0 -0.16292104905E-01  0.79123252399E-01  0.36063815345E+00  0.36957651370E+00  0.10000000000E-02 0. -1.
</event>
<event>
 5    1  0.5722211E-009  0.3883007E+03  0.7957747E-01  0.3415793E+00
         13   -1    0    0    0    0  0.00000000000E+00  0.00000000000E+00  0.14999999963E+04  0.15000000000E+04  0.10566000000E+00 0.  1.
        994   -1    0    0    0    0 -0.00000000000E+00 -0.00000000000E+00  0.11368683772E-12  0.17120000000E+03  0.17120000000E+03 0.  0.
         13    1    1    2    0    0 -0.29843040971E+03 -0.35804488173E+02  0.11018173339E+04  0.11420788586E+04  0.10566000000E+00 0.  1.
        994    1    1    2    0    0  0.29945547220E+03  0.35898026092E+02  0.39434241996E+03  0.52514534397E+03  0.17120000000E+03 0.  0.
        998    1    1    2    0    0 -0.10250624867E+01 -0.93537918449E-01  0.38402424216E+01  0.39757974421E+01  0.10000000000E-02 0.  1.
</event>
<event>
 5    1  0.5722211E-009  0.3882849E+03  0.7957747E-01  0.3415859E+00
         13   -1    0    0    0    0  0.00000000000E+00  0.00000000000E+00  0.14999999963E+04  0.15000000000E+04  0.10566000000E+00 0.  1.
        994   -1    0    0    0    0 -0.00000000000E+00 -0.00000000000E+00  0.11368683772E-12  0.17120000000E+03  0.17120000000E+03 0.  0.
         13    1    1    2    0    0 -0.20817275323E+03  0.48366611129E+02  0.12290349142E+04  0.12474782786E+04  0.10566000000E+00 0.  1.
        994    1    1    2    0    0  0.22093478253E+03 -0.52467017515E+02  0.19083873784E+03  0.34248186802E+03  0.17120000000E+03 0.  0.
        998    1    1    2    0    0 -0.12762029308E+02  0.41004063860E+01  0.80126344286E+02  0.81239853362E+02  0.10000000000E-02 0. -1.
</event>
<event>
 5    1  0.5722211E-009  0.3882952E+03  0.7957747E-01  0.3415816E+00
         13   -1    0    0    0    0  0.00000000000E+00  0.00000000000E+00  0.14999999963E+04  0.15000000000E+04  0.10566000000E+00 0.  1.
        994   -1    0    0    0    0 -0.00000000000E+00 -0.00000000000E+00  0.11368683772E-12  0.17120000000E+03  0.17120000000E+03 0.  0.
         13    1    1    2    0    0  0.11462053755E+03 -0.21036721851E+03  0.12829862768E+04  0.13051613050E+04  0.10566000000E+00 0.  1.
        994    1    1    2    0    0 -0.11460963855E+03  0.21046231646E+03  0.21653301003E+03  0.36554854716E+03  0.17120000000E+03 0.  0.
        998    1    1    2    0    0 -0.10898998311E-01 -0.95097949229E-01  0.48070939948E+00  0.49014787040E+00  0.10000000000E-02 0. -1.
</event>
<event>
 5    1  0.5722211E-009  0.3882973E+03  0.7957747E-01  0.3415807E+00
         13   -1    0    0    0    0  0.00000000000E+00  0.00000000000E+00  0.14999999963E+04  0.15000000000E+04  0.10566000000E+00 0. -1.
        994   -1    0    0    0    0 -0.00000000000E+00 -0.00000000000E+00  0.11368683772E-12  0.17120000000E+03  0.17120000000E+03 0.  0.
         13    1    1    2    0    0 -0.23609697636E+03 -0.83001117621E+02  0.12590436387E+04  0.12836751393E+04  0.10566000000E+00 0. -1.
        994    1    1    2    0    0  0.23619295300E+03  0.82989638794E+02  0.24053598615E+03  0.38709351819E+03  0.17120000000E+03 0.  0.
        998    1    1    2    0    0 -0.95976632732E-01  0.11478827050E-01  0.42037140755E+00  0.43134255272E+00  0.10000000000E-02 0.  1.
</event>
<event>
 5    1  0.5722211E-009  0.3883000E+03  0.7957747E-01  0.3415796E+00
         13   -1    0    0    0    0  0.00000000000E+00  0.00000000000E+00  0.14999999963E+04  0.15000000000E+04  0.10566000000E+00 0. -1.
        994   -1    0    0    0    0 -0.00000000000E+00 -0.00000000000E+00  0.11368683772E-12  0.17120000000E+03  0.17120000000E+03 0.  0.
         13    1    1    2    0    0  0.91163186745E+01  0.22679303152E+03  0.13077836484E+04  0.13273342716E+04  0.10566000000E+00 0. -1.
        994    1    1    2    0    0 -0.91351944207E+01 -0.22702532331E+03  0.19107219091E+03  0.34269807607E+03  0.17120000000E+03 0.  0.
        998    1    1    2    0    0  0.18875746250E-01  0.23229179439E+00  0.11441569796E+01  0.11676523307E+01  0.10000000000E-02 0.  1.
</event>
<event>
 5    1  0.5722211E-009  0.3883008E+03  0.7957747E-01  0.3415793E+00
         13   -1    0    0    0    0  0.00000000000E+00  0.00000000000E+00  0.14999999963E+04  0.15000000000E+04  0.10566000000E+00 0. -1.
        994   -1    0    0    0    0 -0.00000000000E+00 -0.00000000000E+00  0.11368683772E-12  0.17120000000E+03  0.17120000000E+03 0.  0.
         13    1    1    2    0    0  0.21033427393E+03  0.89961032312E+02  0.78225755670E+03  0.81502171155E+03  0.10566000000E+00 0. -1.
        994    1    1    2    0    0 -0.28626443551E+03 -0.12268146698E+03  0.43569050525E+03  0.56225770403E+03  0.17120000000E+03 0.  0.
        998    1    1    2    0    0  0.75930161578E+02  0.32720434670E+02  0.28205193433E+03  0.29392058441E+03  0.10000000000E-02 0.  1.
</event>
<event>
 5    1  0.5722211E-009  0.3881350E+03  0.7957747E-01  0.3416484E+00
         13   -1    0    0    0    0  0.00000000000E+00  0.00000000000E+00  0.14999999963E+04  0.15000000000E+04  0.10566000000E+00 0.  1.
        994   -1    0    0    0    0 -0.00000000000E+00 -0.00000000000E+00  0.11368683772E-12  0.17120000000E+03  0.17120000000E+03 0.  0.
         13    1    1    2    0    0  0.89058022128E+01 -0.11651015411E+03  0.69771433220E+03  0.70743143120E+03  0.10566000000E+00 0.  1.
        994    1    1    2    0    0 -0.10826060214E+02  0.20993572937E+03  0.16016647084E+03  0.31488561801E+03  0.17120000000E+03 0.  0.
        998    1    1    2    0    0  0.19202580017E+01 -0.93425575266E+02  0.64211919324E+03  0.64888295079E+03  0.10000000000E-02 0.  1.
</event>
<event>
 5    1  0.5722211E-009  0.3883009E+03  0.7957747E-01  0.3415792E+00
         13   -1    0    0    0    0  0.00000000000E+00  0.00000000000E+00  0.14999999963E+04  0.15000000000E+04  0.10566000000E+00 0.  1.
        994   -1    0    0    0    0 -0.00000000000E+00 -0.00000000000E+00  0.11368683772E-12  0.17120000000E+03  0.17120000000E+03 0.  0.
         13    1    1    2    0    0 -0.94465396746E+02  0.21500735466E+03  0.12895428519E+04  0.13107527043E+04  0.10566000000E+00 0.  1.
        994    1    1    2    0    0  0.94680249465E+02 -0.21548886373E+03  0.20749870409E+03  0.35744223621E+03  0.17120000000E+03 0.  0.
        998    1    1    2    0    0 -0.21485271871E+00  0.48150906218E+00  0.29584403288E+01  0.30050595413E+01  0.10000000000E-02 0.  1.
</event>
<event>
 5    1  0.5722211E-009  0.3882396E+03  0.7957747E-01  0.3416048E+00
         13   -1    0    0    0    0  0.00000000000E+00  0.00000000000E+00  0.14999999963E+04  0.15000000000E+04  0.10566000000E+00 0.  1.
        994   -1    0    0    0    0 -0.00000000000E+00 -0.00000000000E+00  0.11368683772E-12  0.17120000000E+03  0.17120000000E+03 0.  0.
         13    1    1    2    0    0 -0.11204342216E+03  0.22929611827E+03  0.12452577372E+04  0.12711401503E+04  0.10566000000E+00 0.  1.
        994    1    1    2    0    0  0.11239303188E+03 -0.22932517659E+03  0.25268126042E+03  0.39796920685E+03  0.17120000000E+03 0.  0.
        998    1    1    2    0    0 -0.34960972285E+00  0.29058320853E-01  0.20609986084E+01  0.20906428695E+01  0.10000000000E-02 0. -1.
</event>
<event>
 5    1  0.5722211E-009  0.3882995E+03  0.7957747E-01  0.3415798E+00
         13   -1    0    0    0    0  0.00000000000E+00  0.00000000000E+00  0.14999999963E+04  0.15000000000E+04  0.10566000000E+00 0. -1.
        994   -1    0    0    0    0 -0.00000000000E+00 -0.00000000000E+00  0.11368683772E-12  0.17120000000E+03  0.17120000000E+03 0.  0.
         13    1    1    2    0    0 -0.22854117062E+03 -0.21898978839E+02  0.13006040613E+04  0.13207125226E+04  0.10566000000E+00 0. -1.
        994    1    1    2    0    0  0.22897069771E+03  0.21912739724E+02  0.19660738482E+03  0.34766600688E+03  0.17120000000E+03 0.  0.
        998    1    1    2    0    0 -0.42952708574E+00 -0.13760885124E-01  0.27885501527E+01  0.28214705090E+01  0.10000000000E-02 0.  1.
</event>
<event>
 5    1  0.5722211E-009  0.3882998E+03  0.7957747E-01  0.3415797E+00
         13   -1    0    0    0    0  0.00000000000E+00  0.00000000000E+00  0.14999999963E+04  0.15000000000E+04  0.10566000000E+00 0.  1.
        994   -1    0    0    0    0 -0.00000000000E+00 -0.00000000000E+00  0.11368683772E-12  0.17120000000E+03  0.17120000000E+03 0.  0.
         13    1    1    2    0    0 -0.11588166619E+03  0.18042213647E+03  0.12298258616E+04  0.12483798977E+04  0.10566000000E+00 0.  1.
        994    1    1    2    0    0  0.12350754533E+03 -0.19174357158E+03  0.19277319162E+03  0.34422471498E+03  0.17120000000E+03 0.  0.
        998    1    1    2    0    0 -0.76258791438E+01  0.11321435110E+02  0.77400943048E+02  0.78595387342E+02  0.10000000000E-02 0.  1.
</event>
<event>
 5    1  0.5722211E-009  0.3883010E+03  0.7957747E-01  0.3415792E+00
         13   -1    0    0    0    0  0.00000000000E+00  0.00000000000E+00  0.14999999963E+04  0.15000000000E+04  0.10566000000E+00 0. -1.
        994   -1    0    0    0    0 -0.00000000000E+00 -0.00000000000E+00  0.11368683772E-12  0.17120000000E+03  0.17120000000E+03 0.  0.
         13    1    1    2    0    0 -0.30221925123E+02 -0.22696504139E+03  0.12805548563E+04  0.13008640383E+04  0.10566000000E+00 0. -1.
        994    1    1    2    0    0  0.30651811360E+02  0.23021782374E+03  0.20109220510E+03  0.35169204549E+03  0.17120000000E+03 0.  0.
        998    1    1    2    0    0 -0.42988623696E+00 -0.32527823513E+01  0.18352934831E+02  0.18643916249E+02  0.10000000000E-02 0. -1.
</event>
<event>
 5    1  0.5722211E-009  0.3882751E+03  0.7957747E-01  0.3415900E+00
         13   -1    0    0    0    0  0.00000000000E+00  0.00000000000E+00  0.14999999963E+04  0.15000000000E+04  0.10566000000E+00 0.  1.
        994   -1    0    0    0    0 -0.00000000000E+00 -0.00000000000E+00  0.11368683772E-12  0.17120000000E+03  0.17120000000E+03 0.  0.
         13    1    1    2    0    0 -0.92452583805E+02 -0.19170257564E+03  0.11707028637E+04  0.11898918287E+04  0.10566000000E+00 0.  1.
        994    1    1    2    0    0  0.10380133027E+03  0.21068476587E+03  0.20648964865E+03  0.35652517686E+03  0.17120000000E+03 0.  0.
        998    1    1    2    0    0 -0.11348746468E+02 -0.18982190226E+02  0.12280748394E+03  0.12478299446E+03  0.10000000000E-02 0.  1.
</event>
<event>
 5    1  0.5722211E-009  0.3883010E+03  0.7957747E-01  0.3415792E+00
         13   -1    0    0    0    0  0.00000000000E+00  0.00000000000E+00  0.14999999963E+04  0.15000000000E+04  0.10566000000E+00 0. -1.
        994   -1    0    0    0    0 -0.00000000000E+00 -0.00000000000E+00  0.11368683772E-12  0.17120000000E+03  0.17120000000E+03 0.  0.
         13    1    1    2    0    0  0.24259672212E+03 -0.16241928539E+03  0.11403249674E+04  0.11771041739E+04  0.10566000000E+00 0. -1.
        994    1    1    2    0    0 -0.24269919751E+03  0.16249197912E+03  0.35918001803E+03  0.49358511839E+03  0.17120000000E+03 0.  0.
        998    1    1    2    0    0  0.10247538596E+00 -0.72693732132E-01  0.49501088474E+00  0.51070770449E+00  0.10000000000E-02 0. -1.
</event>
<event>
 5    1  0.5722211E-009  0.3882925E+03  0.7957747E-01  0.3415827E+00
         13   -1    0    0    0    0  0.00000000000E+00  0.00000000000E+00  0.14999999963E+04  0.15000000000E+04  0.10566000000E+00 0. -1.
        994   -1    0    0    0    0 -0.00000000000E+00 -0.00000000000E+00  0.11368683772E-12  0.17120000000E+03  0.17120000000E+03 0.  0.
         13    1    1    2    0    0  0.18269946211E+03  0.13274742750E+03  0.13094364415E+04  0.13287681433E+04  0.10566000000E+00 0. -1.
        994    1    1    2    0    0 -0.18299353356E+03 -0.13296846898E+03  0.18912532214E+03  0.34094731931E+03  0.17120000000E+03 0.  0.
        998    1    1    2    0    0  0.29407145189E+00  0.22104148000E+00  0.14382325917E+01  0.14845374170E+01  0.10000000000E-02 0.  1.
</event>
<event>
 5    1  0.5722211E-009  0.3883007E+03  0.7957747E-01  0.3415793E+00
         13   -1    0    0    0    0  0.00000000000E+00  0.00000000000E+00  0.14999999963E+04  0.15000000000E+04  0.10566000000E+00 0. -1.
        994   -1    0    0    0    0 -0.00000000000E+00 -0.00000000000E+00  0.11368683772E-12  0.17120000000E+03  0.17120000000E+03 0.  0.
         13    1    1    2    0    0  0.55026309501E+02 -0.21922794360E+03  0.13108689018E+04  0.13302127930E+04  0.10566000000E+00 0. -1.
        994    1    1    2    0    0 -0.55038233582E+02  0.21927916768E+03  0.18888093791E+03  0.34073157946E+03  0.17120000000E+03 0.  0.
        998    1    1    2    0    0  0.11924080570E-01 -0.51224079675E-01  0.25015660701E+00  0.25562749866E+00  0.10000000000E-02 0.  1.
</event>
<event>
 5    1  0.5722211E-009  0.3880948E+03  0.7957747E-01  0.3416652E+00
         13   -1    0    0    0    0  0.00000000000E+00  0.00000000000E+00  0.14999999963E+04  0.15000000000E+04  0.10566000000E+00 0.  1.
        994   -1    0    0    0    0 -0.00000000000E+00 -0.00000000000E+00  0.11368683772E-12  0.17120000000E+03  0.17120000000E+03 0.  0.
         13    1    1    2    0    0  0.15076442413E+03  0.12488549837E+03  0.11833843230E+04  0.11994685350E+04  0.10566000000E+00 0.  1.
        994    1    1    2    0    0 -0.16359049901E+03 -0.14259863168E+03  0.17219330638E+03  0.32566270263E+03  0.17120000000E+03 0.  0.
        998    1    1    2    0    0  0.12826074885E+02  0.17713133302E+02  0.14442236689E+03  0.14606876240E+03  0.10000000000E-02 0. -1.
</event>
<event>
 5    1  0.5722211E-009  0.3882876E+03  0.7957747E-01  0.3415847E+00
         13   -1    0    0    0    0  0.00000000000E+00  0.00000000000E+00  0.14999999963E+04  0.15000000000E+04  0.10566000000E+00 0. -1.
        994   -1    0    0    0    0 -0.00000000000E+00 -0.00000000000E+00  0.11368683772E-12  0.17120000000E+03  0.17120000000E+03 0.  0.
         13    1    1    2    0    0  0.22982244875E+03  0.17325707836E+02  0.12898174520E+04  0.13102471556E+04  0.10566000000E+00 0. -1.
        994    1    1    2    0    0 -0.23168693573E+03 -0.17194480773E+02  0.20126174136E+03  0.35183833630E+03  0.17120000000E+03 0.  0.
        998    1    1    2    0    0  0.18644869776E+01 -0.13122706290E+00  0.89208029102E+01  0.91145080939E+01  0.10000000000E-02 0.  1.
</event>
<event>
 5    1  0.5722211E-009  0.3882756E+03  0.7957747E-01  0.3415898E+00
         13   -1    0    0    0    0  0.00000000000E+00  0.00000000000E+00  0.14999999963E+04  0.15000000000E+04  0.10566000000E+00 0.  1.
        994   -1    0    0    0    0 -0.00000000000E+00 -0.00000000000E+00  0.11368683772E-12  0.17120000000E+03  0.17120000000E+03 0.  0.
         13    1    1    2    0    0 -0.78673446792E+02  0.14766193978E+02  0.37171258370E+03  0.38023388560E+03  0.10566000000E+00 0.  1.
        994    1    1    2    0    0  0.25312652987E+03 -0.50466516374E+02  0.25934755478E+03  0.40396844378E+03  0.17120000000E+03 0.  0.
        998    1    1    2    0    0 -0.17445308308E+03  0.35700322396E+02  0.86893985780E+03  0.88699767062E+03  0.10000000000E-02 0.  1.
</event>
<event>
 5    1  0.5722211E-009  0.3882931E+03  0.7957747E-01  0.3415825E+00
         13   -1    0    0    0    0  0.00000000000E+00  0.00000000000E+00  0.14999999963E+04  0.15000000000E+04  0.10566000000E+00 0. -1.
        994   -1    0    0    0    0 -0.00000000000E+00 -0.00000000000E+00  0.11368683772E-12  0.17120000000E+03  0.17120000000E+03 0.  0.
         13    1    1    2    0    0  0.19735738826E+03  0.92920457029E+02  0.12256003692E+04  0.12448616093E+04  0.10566000000E+00 0. -1.
        994    1    1    2    0    0 -0.20974737463E+03 -0.97825457566E+02  0.19946414773E+03  0.35022730839E+03  0.17120000000E+03 0.  0.
        998    1    1    2    0    0  0.12389986370E+02  0.49050005369E+01  0.74935479326E+02  0.76111082343E+02  0.10000000000E-02 0. -1.
</event>
<event>
 5    1  0.5722211E-009  0.3883010E+03  0.7957747E-01  0.3415792E+00
         13   -1    0    0    0    0  0.00000000000E+00  0.00000000000E+00  0.14999999963E+04  0.15000000000E+04  0.10566000000E+00 0. -1.
        994   -1    0    0    0    0 -0.00000000000E+00 -0.00000000000E+00  0.11368683772E-12  0.17120000000E+03  0.17120000000E+03 0.  0.
         13    1    1    2    0    0  0.33474478273E+03  0.90848922639E+02  0.77483348758E+03  0.84892552144E+03  0.10566000000E+00 0. -1.
        994    1    1    2    0    0 -0.33516982218E+03 -0.90965336837E+02  0.72418022876E+03  0.82119421937E+03  0.17120000000E+03 0.  0.
        998    1    1    2    0    0  0.42503944692E+00  0.11641419747E+00  0.98627993572E+00  0.10802591858E+01  0.10000000000E-02 0.  0.
</event>
<event>
 5    1  0.5722211E-009  0.3883009E+03  0.7957747E-01  0.3415792E+00
         13   -1    0    0    0    0  0.00000000000E+00  0.00000000000E+00  0.14999999963E+04  0.15000000000E+04  0.10566000000E+00 0.  1.
        994   -1    0    0    0    0 -0.00000000000E+00 -0.00000000000E+00  0.11368683772E-12  0.17120000000E+03  0.17120000000E+03 0.  0.
         13    1    1    2    0    0  0.15316990021E+03  0.18886881999E+03  0.12737602923E+04  0.12967643359E+04  0.10566000000E+00 0.  1.
        994    1    1    2    0    0 -0.15333261041E+03 -0.18908491629E+03  0.22480451985E+03  0.37297520981E+03  0.17120000000E+03 0.  0.
        998    1    1    2    0    0  0.16271019809E+00  0.21609630535E+00  0.14351841056E+01  0.14604542577E+01  0.10000000000E-02 0. -1.
</event>
<event>
 5    1  0.5722211E-009  0.3883009E+03  0.7957747E-01  0.3415792E+00
         13   -1    0    0    0    0  0.00000000000E+00  0.00000000000E+00  0.14999999963E+04  0.15000000000E+04  0.10566000000E+00 0.  1.
        994   -1    0    0    0    0 -0.00000000000E+00 -0.00000000000E+00  0.11368683772E-12  0.17120000000E+03  0.17120000000E+03 0.  0.
         13    1    1    2    0    0 -0.46062325961E+02 -0.22114504537E+03  0.12654982881E+04  0.12855009908E+04  0.10566000000E+00 0.  1.
        994    1    1    2    0    0  0.47346079241E+02  0.22709168108E+03  0.20053614183E+03  0.35119291993E+03  0.17120000000E+03 0.  0.
        998    1    1    2    0    0 -0.12837532800E+01 -0.59466357068E+01  0.33965566310E+02  0.34506089237E+02  0.10000000000E-02 0.  1.
</event>
<event>
 5    1  0.5722211E-009  0.3882971E+03  0.7957747E-01  0.3415808E+00
         13   -1    0    0    0    0  0.00000000000E+00  0.00000000000E+00  0.14999999963E+04  0.15000000000E+04  0.10566000000E+00 0.  1.
        994   -1    0    0    0    0 -0.00000000000E+00 -0.00000000000E+00  0.11368683772E-12  0.17120000000E+03  0.17120000000E+03 0.  0.
         13    1    1    2    0    0  0.52505973811E+02 -0.27659700967E+03  0.11742515996E+04  0.12075303779E+04  0.10566000000E+00 0.  1.
        994    1    1    2    0    0 -0.52518658223E+02  0.27672737263E+03  0.32494355194E+03  0.46285418888E+03  0.17120000000E+03 0.  0.
        998    1    1    2    0    0  0.12684412023E-01 -0.13036295306E+00  0.80484469830E+00  0.81543324817E+00  0.10000000000E-02 0.  1.
</event>
<event>
 5    1  0.5722211E-009  0.3883007E+03  0.7957747E-01  0.3415793E+00
         13   -1    0    0    0    0  0.00000000000E+00  0.00000000000E+00  0.14999999963E+04  0.15000000000E+04  0.10566000000E+00 0.  1.
        994   -1    0    0    0    0 -0.00000000000E+00 -0.00000000000E+00  0.11368683772E-12  0.17120000000E+03  0.17120000000E+03 0.  0.
         13    1    1    2    0    0 -0.13550926801E+03  0.16221344239E+03  0.11556327923E+04  0.11748034407E+04  0.10566000000E+00 0.  1.
        994    1    1    2    0    0  0.15153314245E+03 -0.18108017022E+03  0.20905639144E+03  0.35884026546E+03  0.17120000000E+03 0.  0.
        998    1    1    2    0    0 -0.16023874441E+02  0.18866727835E+02  0.13531081256E+03  0.13755629381E+03  0.10000000000E-02 0. -1.
</event>
<event>
 5    1  0.5722211E-009  0.3883000E+03  0.7957747E-01  0.3415796E+00
         13   -1    0    0    0    0  0.00000000000E+00  0.00000000000E+00  0.14999999963E+04  0.15000000000E+04  0.10566000000E+00 0. -1.
        994   -1    0    0    0    0 -0.00000000000E+00 -0.00000000000E+00  0.11368683772E-12  0.17120000000E+03  0.17120000000E+03 0.  0.
         13    1    1    2    0    0  0.12939316661E+03 -0.18268013432E+03  0.11207157144E+04  0.11428553481E+04  0.10566000000E+00 0. -1.
        994    1    1    2    0    0 -0.14506610386E+03  0.20531387207E+03  0.24298585574E+03  0.38929362523E+03  0.17120000000E+03 0.  0.
        998    1    1    2    0    0  0.15672937255E+02 -0.22633737753E+02  0.13629842614E+03  0.13905102666E+03  0.10000000000E-02 0. -1.
</event>
<event>
 5    1  0.5722211E-009  0.3883010E+03  0.7957747E-01  0.3415792E+00
         13   -1    0    0    0    0  0.00000000000E+00  0.00000000000E+00  0.14999999963E+04  0.15000000000E+04  0.10566000000E+00 0.  1.
        994   -1    0    0    0    0 -0.00000000000E+00 -0.00000000000E+00  0.11368683772E-12  0.17120000000E+03  0.17120000000E+03 0.  0.
         13    1    1    2    0    0  0.12193028414E+03  0.18835829857E+03  0.12255172779E+04  0.12458886196E+04  0.10566000000E+00 0.  1.
        994    1    1    2    0    0 -0.12837087810E+03 -0.19837164414E+03  0.20940155628E+03  0.35915016820E+03  0.17120000000E+03 0.  0.
        998    1    1    2    0    0  0.64405939594E+01  0.10013345572E+02  0.65081162142E+02  0.66161212254E+02  0.10000000000E-02 0. -1.
</event>
<event>
 5    1  0.5722211E-009  0.3883010E+03  0.7957747E-01  0.3415792E+00
         13   -1    0    0    0    0  0.00000000000E+00  0.00000000000E+00  0.14999999963E+04  0.15000000000E+04  0.10566000000E+00 0.  1.
        994   -1    0    0    0    0 -0.00000000000E+00 -0.00000000000E+00  0.11368683772E-12  0.17120000000E+03  0.17120000000E+03 0.  0.
         13    1    1    2    0    0  0.64747772595E+02  0.25507233885E+03  0.12265774145E+04  0.12544904691E+04  0.10566000000E+00 0.  1.
        994    1    1    2    0    0 -0.64785865964E+02 -0.25523431828E+03  0.27265156965E+03  0.41592076660E+03  0.17120000000E+03 0.  0.
        998    1    1    2    0    0  0.38093368460E-01  0.16197943100E+00  0.77101213257E+00  0.78876431801E+00  0.10000000000E-02 0.  1.
</event>
<event>
 5    1  0.5722211E-009  0.3883007E+03  0.7957747E-01  0.3415793E+00
         13   -1    0    0    0    0  0.00000000000E+00  0.00000000000E+00  0.14999999963E+04  0.15000000000E+04  0.10566000000E+00 0.  1.
        994   -1    0    0    0    0 -0.00000000000E+00 -0.00000000000E+00  0.11368683772E-12  0.17120000000E+03  0.17120000000E+03 0.  0.
         13    1    1    2    0    0 -0.25820027398E+03  0.32470582813E+02  0.11714235523E+04  0.11999811958E+04  0.10566000000E+00 0.  1.
        994    1    1    2    0    0  0.26704145912E+03 -0.33474529965E+02  0.28823462691E+03  0.42990734490E+03  0.17120000000E+03 0.  0.
        998    1    1    2    0    0 -0.88411851328E+01  0.10039471520E+01  0.40341817065E+02  0.41311459300E+02  0.10000000000E-02 0.  1.
</event>
<event>
 5    1  0.5722211E-009  0.3684392E+03  0.7957747E-01  0.3503095E+00
         13   -1    0    0    0    0  0.00000000000E+00  0.00000000000E+00  0.14999999963E+04  0.15000000000E+04  0.10566000000E+00 0. -1.
        994   -1    0    0    0    0 -0.00000000000E+00 -0.00000000000E+00  0.11368683772E-12  0.17120000000E+03  0.17120000000E+03 0.  0.
         13    1    1    2    0    0 -0.14296128495E+03 -0.74760009912E+02  0.93474659423E+03  0.94856638917E+03  0.10566000000E+00 0. -1.
        994    1    1    2    0    0  0.15314057189E+03  0.76544924354E+01  0.96951509473E+02  0.24943869227E+03  0.17120000000E+03 0.  0.
        998    1    1    2    0    0 -0.10179286932E+02  0.67105517477E+02  0.46830189258E+03  0.47319491856E+03  0.10000000000E-02 0. -1.
</event>
<event>
 5    1  0.5722211E-009  0.3882835E+03  0.7957747E-01  0.3415865E+00
         13   -1    0    0    0    0  0.00000000000E+00  0.00000000000E+00  0.14999999963E+04  0.15000000000E+04  0.10566000000E+00 0. -1.
        994   -1    0    0    0    0 -0.00000000000E+00 -0.00000000000E+00  0.11368683772E-12  0.17120000000E+03  0.17120000000E+03 0.  0.
         13    1    1    2    0    0  0.17866752253E+02  0.29607346687E+03  0.11236589895E+04  0.11621481207E+04  0.10566000000E+00 0. -1.
        994    1    1    2    0    0 -0.17782654665E+02 -0.29620961614E+03  0.37595182086E+03  0.50863107565E+03  0.17120000000E+03 0.  0.
        998    1    1    2    0    0 -0.84097588074E-01  0.13614927849E+00  0.38918589710E+00  0.42080362743E+00  0.10000000000E-02 0.  1.
</event>
<event>
 5    1  0.5722211E-009  0.3883010E+03  0.7957747E-01  0.3415792E+00
         13   -1    0    0    0    0  0.00000000000E+00  0.00000000000E+00  0.14999999963E+04  0.15000000000E+04  0.10566000000E+00 0.  1.
        994   -1    0    0    0    0 -0.00000000000E+00 -0.00000000000E+00  0.11368683772E-12  0.17120000000E+03  0.17120000000E+03 0.  0.
         13    1    1    2    0    0 -0.15235063425E+03 -0.14755790357E+03  0.96417724966E+03  0.98722937081E+03  0.10566000000E+00 0.  1.
        994    1    1    2    0    0  0.19218456610E+03  0.18611558381E+03  0.28386025695E+03  0.42598122431E+03  0.17120000000E+03 0.  0.
        998    1    1    2    0    0 -0.39833931854E+02 -0.38557680241E+02  0.25196248966E+03  0.25798940488E+03  0.10000000000E-02 0.  1.
</event>
<event>
 5    1  0.5722211E-009  0.3882997E+03  0.7957747E-01  0.3415797E+00
         13   -1    0    0    0    0  0.00000000000E+00  0.00000000000E+00  0.14999999963E+04  0.15000000000E+04  0.10566000000E+00 0. -1.
        994   -1    0    0    0    0 -0.00000000000E+00 -0.00000000000E+00  0.11368683772E-12  0.17120000000E+03  0.17120000000E+03 0.  0.
         13    1    1    2    0    0 -0.21200490364E+03  0.13557917876E+03  0.12280854321E+04  0.12536034591E+04  0.10566000000E+00 0. -1.
        994    1    1    2    0    0  0.21517266125E+03 -0.13761933716E+03  0.25265767058E+03  0.39797448991E+03  0.17120000000E+03 0.  0.
        998    1    1    2    0    0 -0.31677576094E+01  0.20401584061E+01  0.19256893592E+02  0.19622051025E+02  0.10000000000E-02 0.  1.
</event>
<event>
 5    1  0.5722211E-009  0.3883010E+03  0.7957747E-01  0.3415792E+00
         13   -1    0    0    0    0  0.00000000000E+00  0.00000000000E+00  0.14999999963E+04  0.15000000000E+04  0.10566000000E+00 0. -1.
        994   -1    0    0    0    0 -0.00000000000E+00 -0.00000000000E+00  0.11368683772E-12  0.17120000000E+03  0.17120000000E+03 0.  0.
         13    1    1    2    0    0  0.20486147633E+03  0.10136219493E+03  0.13061336951E+04  0.13259818097E+04  0.10566000000E+00 0. -1.
        994    1    1    2    0    0 -0.20487681900E+03 -0.10136959578E+03  0.19376479196E+03  0.34511525686E+03  0.17120000000E+03 0.  0.
        998    1    1    2    0    0  0.15342665921E-01  0.74008453543E-02  0.10150922216E+00  0.10293343525E+00  0.10000000000E-02 0.  0.
</event>
<event>
 5    1  0.5722211E-009  0.3883009E+03  0.7957747E-01  0.3415792E+00
         13   -1    0    0    0    0  0.00000000000E+00  0.00000000000E+00  0.14999999963E+04  0.15000000000E+04  0.10566000000E+00 0.  1.
        994   -1    0    0    0    0 -0.00000000000E+00 -0.00000000000E+00  0.11368683772E-12  0.17120000000E+03  0.17120000000E+03 0.  0.
         13    1    1    2    0    0  0.23847109289E+03 -0.14177584447E+03  0.11339059328E+04  0.11673523580E+04  0.10566000000E+00 0.  1.
        994    1    1    2    0    0 -0.24491389179E+03  0.14559498653E+03  0.33523968148E+03  0.47209723419E+03  0.17120000000E+03 0.  0.
        998    1    1    2    0    0  0.64427989018E+01 -0.38191420557E+01  0.30854382043E+02  0.31750407808E+02  0.10000000000E-02 0. -1.
</event>
<event>
 5    1  0.5722211E-009  0.3882719E+03  0.7957747E-01  0.3415913E+00
         13   -1    0    0    0    0  0.00000000000E+00  0.00000000000E+00  0.14999999963E+04  0.15000000000E+04  0.10566000000E+00 0. -1.
        994   -1    0    0    0    0 -0.00000000000E+00 -0.00000000000E+00  0.11368683772E-12  0.17120000000E+03  0.17120000000E+03 0.  0.
         13    1    1    2    0    0  0.19768993564E+03 -0.17450011250E+03  0.11972576153E+04  0.12259516338E+04  0.10566000000E+00 0. -1.
        994    1    1    2    0    0 -0.20104884128E+03  0.17646487671E+03  0.28384756264E+03  0.42595700265E+03  0.17120000000E+03 0.  0.
        998    1    1    2    0    0  0.33589056334E+01 -0.19647642128E+01  0.18894818338E+02  0.19291363521E+02  0.10000000000E-02 0.  1.
</event>
<event>
 5    1  0.5722211E-009  0.3882785E+03  0.7957747E-01  0.3415886E+00
         13   -1    0    0    0    0  0.00000000000E+00  0.00000000000E+00  0.14999999963E+04  0.15000000000E+04  0.10566000000E+00 0. -1.
        994   -1    0    0    0    0 -0.00000000000E+00 -0.00000000000E+00  0.11368683772E-12  0.17120000000E+03  0.17120000000E+03 0.  0.
         13    1    1    2    0    0 -0.60788130383E+02  0.24403344852E+03  0.12370906880E+04  0.12623949074E+04  0.10566000000E+00 0. -1.
        994    1    1    2    0    0  0.61732307900E+02 -0.24694761784E+03  0.25057190055E+03  0.39609307131E+03  0.17120000000E+03 0.  0.
        998    1    1    2    0    0 -0.94417751702E+00  0.29141693245E+01  0.12337407770E+02  0.12712021300E+02  0.10000000000E-02 0. -1.
</event>
<event>
 5    1  0.5722211E-009  0.3883010E+03  0.7957747E-01  0.3415792E+00
         13   -1    0    0    0    0  0.00000000000E+00  0.00000000000E+00  0.14999999963E+04  0.15000000000E+04  0.10566000000E+00 0. -1.
        994   -1    0    0    0    0 -0.00000000000E+00 -0.00000000000E+00  0.11368683772E-12  0.17120000000E+03  0.17120000000E+03 0.  0.
         13    1    1    2    0    0  0.15440038370E+03  0.17913074344E+03  0.12818867132E+04  0.13035186451E+04  0.10566000000E+00 0. -1.
        994    1    1    2    0    0 -0.15511512278E+03 -0.17995732205E+03  0.21213001104E+03  0.36159911595E+03  0.17120000000E+03 0.  0.
        998    1    1    2    0    0  0.71473907493E+00  0.82657861070E+00  0.59832720917E+01  0.60822389026E+01  0.10000000000E-02 0.  1.
</event>
<event>
 5    1  0.5722211E-009  0.3883010E+03  0.7957747E-01  0.3415792E+00
         13   -1    0    0    0    0  0.00000000000E+00  0.00000000000E+00  0.14999999963E+04  0.15000000000E+04  0.10566000000E+00 0.  1.
        994   -1    0    0    0    0 -0.00000000000E+00 -0.00000000000E+00  0.11368683772E-12  0.17120000000E+03  0.17120000000E+03 0.  0.
         13    1    1    2    0    0 -0.26281304415E+03  0.10345499268E+02  0.11760112460E+04  0.12050643914E+04  0.10566000000E+00 0.  1.
        994    1    1    2    0    0  0.27009123050E+03 -0.10628036879E+02  0.29147365051E+03  0.43281469118E+03  0.17120000000E+03 0.  0.
        998    1    1    2    0    0 -0.72781863447E+01  0.28253761071E+00  0.32515099758E+02  0.33320917413E+02  0.10000000000E-02 0.  1.
</event>
<event>
 5    1  0.5722211E-009  0.3883009E+03  0.7957747E-01  0.3415792E+00
         13   -1    0    0    0    0  0.00000000000E+00  0.00000000000E+00  0.14999999963E+04  0.15000000000E+04  0.10566000000E+00 0. -1.
        994   -1    0    0    0    0 -0.00000000000E+00 -0.00000000000E+00  0.11368683772E-12  0.17120000000E+03  0.17120000000E+03 0.  0.
         13    1    1    2    0    0 -0.13109133272E+03 -0.11726974632E+03  0.73350219035E+03  0.75429609924E+03  0.10566000000E+00 0. -1.
        994    1    1    2    0    0  0.21004313184E+03  0.18757177771E+03  0.32474200426E+03  0.46267493811E+03  0.17120000000E+03 0.  0.
        998    1    1    2    0    0 -0.78951799124E+02 -0.70302031383E+02  0.44175580167E+03  0.45422896266E+03  0.10000000000E-02 0.  1.
</event>
<event>
 5    1  0.5722211E-009  0.3882897E+03  0.7957747E-01  0.3415839E+00
         13   -1    0    0    0    0  0.00000000000E+00  0.00000000000E+00  0.14999999963E+04  0.15000000000E+04  0.10566000000E+00 0.  1.
        994   -1    0    0    0    0 -0.00000000000E+00 -0.00000000000E+00  0.11368683772E-12  0.17120000000E+03  0.17120000000E+03 0.  0.
         13    1    1    2    0    0 -0.12897046065E+03  0.91721236964E+02  0.91267602087E+03  0.92629568458E+03  0.10566000000E+00 0.  1.
        994    1    1    2    0    0  0.18314344050E+03 -0.13347564306E+03  0.18994222121E+03  0.34167931528E+03  0.17120000000E+03 0.  0.
        998    1    1    2    0    0 -0.54172979847E+02  0.41754406098E+02  0.39738175419E+03  0.40322500015E+03  0.10000000000E-02 0.  1.
</event>
<event>
 5    1  0.5722211E-009  0.3883000E+03  0.7957747E-01  0.3415796E+00
         13   -1    0    0    0    0  0.00000000000E+00  0.00000000000E+00  0.14999999963E+04  0.15000000000E+04  0.10566000000E+00 0.  1.
        994   -1    0    0    0    0 -0.00000000000E+00 -0.00000000000E+00  0.11368683772E-12  0.17120000000E+03  0.17120000000E+03 0.  0.
         13    1    1    2    0    0 -0.24337835762E+03 -0.13115470681E+03  0.11639248618E+04  0.11963091897E+04  0.10566000000E+00 0.  1.
        994    1    1    2    0    0  0.24660300888E+03  0.13285583745E+03  0.32014097743E+03  0.45854487563E+03  0.17120000000E+03 0.  0.
        998    1    1    2    0    0 -0.32246512594E+01 -0.17011306489E+01  0.15934157010E+02  0.16345934719E+02  0.10000000000E-02 0. -1.
</event>
<event>
 5    1  0.5722211E-009  0.3882993E+03  0.7957747E-01  0.3415799E+00
         13   -1    0    0    0    0  0.00000000000E+00  0.00000000000E+00  0.14999999963E+04  0.15000000000E+04  0.10566000000E+00 0. -1.
        994   -1    0    0    0    0 -0.00000000000E+00 -0.00000000000E+00  0.11368683772E-12  0.17120000000E+03  0.17120000000E+03 0.  0.
         13    1    1    2    0    0  0.18367603873E+03  0.16608416099E+03  0.12530721423E+04  0.12773060090E+04  0.10566000000E+00 0. -1.
        994    1    1    2    0    0 -0.18487549098E+03 -0.16718687397E+03  0.23799438090E+03  0.38481315379E+03  0.17120000000E+03 0.  0.
        998    1    1    2    0    0  0.11994522465E+01  0.11027129799E+01  0.89334730647E+01  0.90808371643E+01  0.10000000000E-02 0.  1.
</event>
<event>
 5    1  0.5722211E-009  0.3883010E+03  0.7957747E-01  0.3415792E+00
         13   -1    0    0    0    0  0.00000000000E+00  0.00000000000E+00  0.14999999963E+04  0.15000000000E+04  0.10566000000E+00 0. -1.
        994   -1    0    0    0    0 -0.00000000000E+00 -0.00000000000E+00  0.11368683772E-12  0.17120000000E+03  0.17120000000E+03 0.  0.
         13    1    1    2    0    0 -0.81201118551E+02 -0.17639648980E+03  0.11662732624E+04  0.11823293437E+04  0.10566000000E+00 0. -1.
        994    1    1    2    0    0  0.92023985916E+02  0.20002144974E+03  0.17771582999E+03  0.33071037264E+03  0.17120000000E+03 0.  0.
        998    1    1    2    0    0 -0.10822867365E+02 -0.23624959937E+02  0.15601090391E+03  0.15816028367E+03  0.10000000000E-02 0. -1.
</event>
<event>
 5    1  0.5722211E-009  0.3883010E+03  0.7957747E-01  0.3415792E+00
         13   -1    0    0    0    0  0.00000000000E+00  0.00000000000E+00  0.14999999963E+04  0.15000000000E+04  0.10566000000E+00 0.  1.
        994   -1    0    0    0    0 -0.00000000000E+00 -0.00000000000E+00  0.11368683772E-12  0.17120000000E+03  0.17120000000E+03 0.  0.
         13    1    1    2    0    0  0.25370784895E+03 -0.18491788708E+02  0.12080241770E+04  0.12345169267E+04  0.10566000000E+00 0.  1.
        994    1    1    2    0    0 -0.25948851937E+03  0.18899076522E+02  0.26451818959E+03  0.40862058123E+03  0.17120000000E+03 0.  0.
        998    1    1    2    0    0  0.57806704157E+01 -0.40728781448E+00  0.27457629703E+02  0.28062492115E+02  0.10000000000E-02 0.  1.
</event>
<event>
 5    1  0.5722211E-009  0.3882223E+03  0.7957747E-01  0.3416120E+00
         13   -1    0    0    0    0  0.00000000000E+00  0.00000000000E+00  0.14999999963E+04  0.15000000000E+04  0.10566000000E+00 0.  1.
        994   -1    0    0    0    0 -0.00000000000E+00 -0.00000000000E+00  0.11368683772E-12  0.17120000000E+03  0.17120000000E+03 0.  0.
         13    1    1    2    0    0 -0.31362106983E+02 -0.20448979281E+03  0.12401731817E+04  0.12573102993E+04  0.10566000000E+00 0.  1.
        994    1    1    2    0    0  0.31622325395E+02  0.21635391307E+03  0.17501335327E+03  0.32825005863E+03  0.17120000000E+03 0.  0.
        998    1    1    2    0    0 -0.26021841203E+00 -0.11864120267E+02  0.84813461329E+02  0.85639642029E+02  0.10000000000E-02 0. -1.
</event>
<event>
 5    1  0.5722211E-009  0.3877936E+03  0.7957747E-01  0.3417910E+00
         13   -1    0    0    0    0  0.00000000000E+00  0.00000000000E+00  0.14999999963E+04  0.15000000000E+04  0.10566000000E+00 0.  1.
        994   -1    0    0    0    0 -0.00000000000E+00 -0.00000000000E+00  0.11368683772E-12  0.17120000000E+03  0.17120000000E+03 0.  0.
         13    1    1    2    0    0  0.61607339557E+02  0.19240242762E+03  0.12115750449E+04  0.12283029997E+04  0.10566000000E+00 0.  1.
        994    1    1    2    0    0 -0.69669131978E+02 -0.20304034531E+03  0.16832765394E+03  0.32206025656E+03  0.17120000000E+03 0.  0.
        998    1    1    2    0    0  0.80617924212E+01  0.10637917691E+02  0.12009729740E+03  0.12083674373E+03  0.10000000000E-02 0.  1.
</event>
<event>
 5    1  0.5722211E-009  0.3883006E+03  0.7957747E-01  0.3415793E+00
         13   -1    0    0    0    0  0.00000000000E+00  0.00000000000E+00  0.14999999963E+04  0.15000000000E+04  0.10566000000E+00 0.  1.
        994   -1    0    0    0    0 -0.00000000000E+00 -0.00000000000E+00  0.11368683772E-12  0.17120000000E+03  0.17120000000E+03 0.  0.
         13    1    1    2    0    0  0.47282923337E+02  0.31629967680E+03  0.10220039024E+04  0.10708749452E+04  0.10566000000E+00 0.  1.
        994    1    1    2    0    0 -0.47330507088E+02 -0.31649513959E+03  0.47736933255E+03  0.59966679911E+03  0.17120000000E+03 0.  0.
        998    1    1    2    0    0  0.47583750513E-01  0.19546279551E+00  0.62676127722E+00  0.65825573781E+00  0.10000000000E-02 0.  1.
</event>
<event>
 5    1  0.5722211E-009  0.3877370E+03  0.7957747E-01  0.3418146E+00
         13   -1    0    0    0    0  0.00000000000E+00  0.00000000000E+00  0.14999999963E+04  0.15000000000E+04  0.10566000000E+00 0.  1.
        994   -1    0    0    0    0 -0.00000000000E+00 -0.00000000000E+00  0.11368683772E-12  0.17120000000E+03  0.17120000000E+03 0.  0.
         13    1    1    2    0    0 -0.17471745737E+03 -0.14333404128E+03  0.12963947451E+04  0.13159445975E+04  0.10566000000E+00 0.  1.
        994    1    1    2    0    0  0.17804136781E+03  0.14288575893E+03  0.19392167333E+03  0.34500742622E+03  0.17120000000E+03 0.  0.
        998    1    1    2    0    0 -0.33239104416E+01  0.44828234706E+00  0.96835778119E+01  0.10247976284E+02  0.10000000000E-02 0.  1.
</event>
<event>
 5    1  0.5722211E-009  0.3883010E+03  0.7957747E-01  0.3415792E+00
         13   -1    0    0    0    0  0.00000000000E+00  0.00000000000E+00  0.14999999963E+04  0.15000000000E+04  0.10566000000E+00 0.  1.
        994   -1    0    0    0    0 -0.00000000000E+00 -0.00000000000E+00  0.11368683772E-12  0.17120000000E+03  0.17120000000E+03 0.  0.
         13    1    1    2    0    0 -0.25760781550E+03  0.12869031291E+03  0.11541421814E+04  0.11895239255E+04  0.10566000000E+00 0.  1.
        994    1    1    2    0    0  0.25769011495E+03 -0.12873163636E+03  0.34549866911E+03  0.48130530840E+03  0.17120000000E+03 0.  0.
        998    1    1    2    0    0 -0.82299450629E-01  0.41323448349E-01  0.35914580319E+00  0.37076614585E+00  0.10000000000E-02 0.  1.
</event>
<event>
 5    1  0.5722211E-009  0.3882965E+03  0.7957747E-01  0.3415811E+00
         13   -1    0    0    0    0  0.00000000000E+00  0.00000000000E+00  0.14999999963E+04  0.15000000000E+04  0.10566000000E+00 0.  1.
        994   -1    0    0    0    0 -0.00000000000E+00 -0.00000000000E+00  0.11368683772E-12  0.17120000000E+03  0.17120000000E+03 0.  0.
         13    1    1    2    0    0 -0.13777169471E+02 -0.22564021284E+03  0.13105507978E+04  0.13299047789E+04  0.10566000000E+00 0.  1.
        994    1    1    2    0    0  0.13755745077E+02  0.22568534567E+03  0.18893139133E+03  0.34077500847E+03  0.17120000000E+03 0.  0.
        998    1    1    2    0    0  0.21424393583E-01 -0.45132830859E-01  0.51780711545E+00  0.52021263525E+00  0.10000000000E-02 0. -1.
</event>
<event>
 5    1  0.5722211E-009  0.3883010E+03  0.7957747E-01  0.3415792E+00
         13   -1    0    0    0    0  0.00000000000E+00  0.00000000000E+00  0.14999999963E+04  0.15000000000E+04  0.10566000000E+00 0. -1.
        994   -1    0    0    0    0 -0.00000000000E+00 -0.00000000000E+00  0.11368683772E-12  0.17120000000E+03  0.17120000000E+03 0.  0.
         13    1    1    2    0    0  0.24366658193E+03  0.16971287460E+03  0.11196248975E+04  0.11583331927E+04  0.10566000000E+00 0. -1.
        994    1    1    2    0    0 -0.24407489685E+03 -0.17000121778E+03  0.37849588526E+03  0.51092224896E+03  0.17120000000E+03 0.  0.
        998    1    1    2    0    0  0.40831491754E+00  0.28834318312E+00  0.18792135155E+01  0.19445583817E+01  0.10000000000E-02 0.  1.
</event>
<event>
 5    1  0.5722211E-009  0.3883010E+03  0.7957747E-01  0.3415792E+00
         13   -1    0    0    0    0  0.00000000000E+00  0.00000000000E+00  0.14999999963E+04  0.15000000000E+04  0.10566000000E+00 0. -1.
        994   -1    0    0    0    0 -0.00000000000E+00 -0.00000000000E+00  0.11368683772E-12  0.17120000000E+03  0.17120000000E+03 0.  0.
         13    1    1    2    0    0 -0.27730542065E+03  0.46433996634E+01  0.11736884582E+04  0.12060118016E+04  0.10566000000E+00 0. -1.
        994    1    1    2    0    0  0.27931580927E+03 -0.46664601790E+01  0.31782249374E+03  0.45646431918E+03  0.17120000000E+03 0.  0.
        998    1    1    2    0    0 -0.20103886190E+01  0.23060515639E-01  0.84890443061E+01  0.87238792069E+01  0.10000000000E-02 0.  1.
</event>
<event>
 5    1  0.5722211E-009  0.3883009E+03  0.7957747E-01  0.3415792E+00
         13   -1    0    0    0    0  0.00000000000E+00  0.00000000000E+00  0.14999999963E+04  0.15000000000E+04  0.10566000000E+00 0.  1.
        994   -1    0    0    0    0 -0.00000000000E+00 -0.00000000000E+00  0.11368683772E-12  0.17120000000E+03  0.17120000000E+03 0.  0.
         13    1    1    2    0    0 -0.90326727183E+02 -0.36829101159E+02  0.50409025102E+03  0.51344161564E+03  0.10566000000E+00 0.  1.
        994    1    1    2    0    0  0.22748966697E+03  0.92632524754E+02  0.22968324345E+03  0.37735416461E+03  0.17120000000E+03 0.  0.
        998    1    1    2    0    0 -0.13716293979E+03 -0.55803423595E+02  0.76622650181E+03  0.78040421976E+03  0.10000000000E-02 0.  1.
</event>
<event>
 5    1  0.5722211E-009  0.3883005E+03  0.7957747E-01  0.3415794E+00
         13   -1    0    0    0    0  0.00000000000E+00  0.00000000000E+00  0.14999999963E+04  0.15000000000E+04  0.10566000000E+00 0.  1.
        994   -1    0    0    0    0 -0.00000000000E+00 -0.00000000000E+00  0.11368683772E-12  0.17120000000E+03  0.17120000000E+03 0.  0.
         13    1    1    2    0    0 -0.11759188573E+03 -0.54960759681E+02  0.65756403764E+03  0.67025294587E+03  0.10566000000E+00 0.  1.
        994    1    1    2    0    0  0.22577591605E+03  0.10475053745E+03  0.23714130448E+03  0.38404801478E+03  0.17120000000E+03 0.  0.
        998    1    1    2    0    0 -0.10818403032E+03 -0.49789777773E+02  0.60529465416E+03  0.61689903935E+03  0.10000000000E-02 0.  1.
</event>
<event>
 5    1  0.5722211E-009  0.3882990E+03  0.7957747E-01  0.3415800E+00
         13   -1    0    0    0    0  0.00000000000E+00  0.00000000000E+00  0.14999999963E+04  0.15000000000E+04  0.10566000000E+00 0. -1.
        994   -1    0    0    0    0 -0.00000000000E+00 -0.00000000000E+00  0.11368683772E-12  0.17120000000E+03  0.17120000000E+03 0.  0.
         13    1    1    2    0    0  0.13475262176E+03  0.19951580655E+03  0.12803371564E+04  0.13027770613E+04  0.10566000000E+00 0. -1.
        994    1    1    2    0    0 -0.13480060078E+03 -0.19962427668E+03  0.21918367085E+03  0.36792930758E+03  0.17120000000E+03 0.  0.
        998    1    1    2    0    0  0.47979027104E-01  0.10847013187E+00  0.47916903133E+00  0.49363115495E+00  0.10000000000E-02 0. -1.
</event>
<event>
 5    1  0.5722211E-009  0.3883010E+03  0.7957747E-01  0.3415792E+00
         13   -1    0    0    0    0  0.00000000000E+00  0.00000000000E+00  0.14999999963E+04  0.15000000000E+04  0.10566000000E+00 0.  1.
        994   -1    0    0    0    0 -0.00000000000E+00 -0.00000000000E+00  0.11368683772E-12  0.17120000000E+03  0.17120000000E+03 0.  0.
         13    1    1    2    0    0  0.23296075482E+03  0.41165357554E+02  0.12892076279E+04  0.13107332372E+04  0.10566000000E+00 0.  1.
        994    1    1    2    0    0 -0.23306514521E+03 -0.41181458485E+02  0.21022050287E+03  0.35988522373E+03  0.17120000000E+03 0.  0.
        998    1    1    2    0    0  0.10439039031E+00  0.16100931392E-01  0.57186547022E+00  0.58153908692E+00  0.10000000000E-02 0. -1.
</event>
<event>
 5    1  0.5722211E-009  0.3883010E+03  0.7957747E-01  0.3415792E+00
         13   -1    0    0    0    0  0.00000000000E+00  0.00000000000E+00  0.14999999963E+04  0.15000000000E+04  0.10566000000E+00 0. -1.
        994   -1    0    0    0    0 -0.00000000000E+00 -0.00000000000E+00  0.11368683772E-12  0.17120000000E+03  0.17120000000E+03 0.  0.
         13    1    1    2    0    0 -0.20625813724E+03 -0.13659488578E+02  0.12209151983E+04  0.12382903268E+04  0.10566000000E+00 0. -1.
        994    1    1    2    0    0  0.22249291081E+03  0.14755068350E+02  0.18295926346E+03  0.33541666549E+03  0.17120000000E+03 0.  0.
        998    1    1    2    0    0 -0.16234773564E+02 -0.10955797725E+01  0.96125534495E+02  0.97493007701E+02  0.10000000000E-02 0. -1.
</event>
<event>
 5    1  0.5722211E-009  0.3882989E+03  0.7957747E-01  0.3415801E+00
         13   -1    0    0    0    0  0.00000000000E+00  0.00000000000E+00  0.14999999963E+04  0.15000000000E+04  0.10566000000E+00 0.  1.
        994   -1    0    0    0    0 -0.00000000000E+00 -0.00000000000E+00  0.11368683772E-12  0.17120000000E+03  0.17120000000E+03 0.  0.
         13    1    1    2    0    0 -0.22118945819E+03  0.33894964208E+02  0.13056132330E+04  0.13246507352E+04  0.10566000000E+00 0.  1.
        994    1    1    2    0    0  0.22253514413E+03 -0.33995625657E+02  0.18702641834E+03  0.33906623851E+03  0.17120000000E+03 0.  0.
        998    1    1    2    0    0 -0.13456859407E+01  0.10066144896E+00  0.73603449744E+01  0.74830262943E+01  0.10000000000E-02 0. -1.
</event>
<event>
 5    1  0.5722211E-009  0.3883008E+03  0.7957747E-01  0.3415793E+00
         13   -1    0    0    0    0  0.00000000000E+00  0.00000000000E+00  0.14999999963E+04  0.15000000000E+04  0.10566000000E+00 0. -1.
        994   -1    0    0    0    0 -0.00000000000E+00 -0.00000000000E+00  0.11368683772E-12  0.17120000000E+03  0.17120000000E+03 0.  0.
         13    1    1    2    0    0  0.68850301738E+02 -0.20765964756E+03  0.12810731443E+04  0.12996196773E+04  0.10566000000E+00 0. -1.
        994    1    1    2    0    0 -0.70706823194E+02  0.21301677275E+03  0.18573807629E+03  0.33791074754E+03  0.17120000000E+03 0.  0.
        998    1    1    2    0    0  0.18565214558E+01 -0.53571251953E+01  0.33188775666E+02  0.33669575191E+02  0.10000000000E-02 0. -1.
</event>
<event>
 5    1  0.5722211E-009  0.3883007E+03  0.7957747E-01  0.3415793E+00
         13   -1    0    0    0    0  0.00000000000E+00  0.00000000000E+00  0.14999999963E+04  0.15000000000E+04  0.10566000000E+00 0.  1.
        994   -1    0    0    0    0 -0.00000000000E+00 -0.00000000000E+00  0.11368683772E-12  0.17120000000E+03  0.17120000000E+03 0.  0.
         13    1    1    2    0    0 -0.21302137246E+03 -0.71971431576E+02  0.13128673051E+04  0.13319829443E+04  0.10566000000E+00 0.  1.
        994    1    1    2    0    0  0.21309496784E+03  0.71986489825E+02  0.18665726374E+03  0.33873572906E+03  0.17120000000E+03 0.  0.
        998    1    1    2    0    0 -0.73595381854E-01 -0.15058248890E-01  0.47542746756E+00  0.48132661260E+00  0.10000000000E-02 0.  1.
</event>
<event>
 5    1  0.5722211E-009  0.3883010E+03  0.7957747E-01  0.3415792E+00
         13   -1    0    0    0    0  0.00000000000E+00  0.00000000000E+00  0.14999999963E+04  0.15000000000E+04  0.10566000000E+00 0.  1.
        994   -1    0    0    0    0 -0.00000000000E+00 -0.00000000000E+00  0.11368683772E-12  0.17120000000E+03  0.17120000000E+03 0.  0.
         13    1    1    2    0    0  0.28106855582E+02  0.19386851022E+03  0.10693288653E+04  0.10871242927E+04  0.10566000000E+00 0.  1.
        994    1    1    2    0    0 -0.33857529629E+02 -0.23394225909E+03  0.20960042851E+03  0.35932866923E+03  0.17120000000E+03 0.  0.
        998    1    1    2    0    0  0.57506740469E+01  0.40073748874E+02  0.22107070251E+03  0.22474703804E+03  0.10000000000E-02 0.  1.
</event>
<event>
 5    1  0.5722211E-009  0.3883008E+03  0.7957747E-01  0.3415793E+00
         13   -1    0    0    0    0  0.00000000000E+00  0.00000000000E+00  0.14999999963E+04  0.15000000000E+04  0.10566000000E+00 0.  1.
        994   -1    0    0    0    0 -0.00000000000E+00 -0.00000000000E+00  0.11368683772E-12  0.17120000000E+03  0.17120000000E+03 0.  0.
         13    1    1    2    0    0 -0.17858791821E+03  0.14793941900E+03  0.10632329509E+04  0.10882297713E+04  0.10566000000E+00 0.  1.
        994    1    1    2    0    0  0.20475230596E+03 -0.16980355567E+03  0.27972872463E+03  0.42227284271E+03  0.17120000000E+03 0.  0.
        998    1    1    2    0    0 -0.26164387751E+02  0.21864136662E+02  0.15703832077E+03  0.16069738594E+03  0.10000000000E-02 0.  1.
</event>
<event>
 5    1  0.5722211E-009  0.3883010E+03  0.7957747E-01  0.3415792E+00
         13   -1    0    0    0    0  0.00000000000E+00  0.00000000000E+00  0.14999999963E+04  0.15000000000E+04  0.10566000000E+00 0.  1.
        994   -1    0    0    0    0 -0.00000000000E+00 -0.00000000000E+00  0.11368683772E-12  0.17120000000E+03  0.17120000000E+03 0.  0.
         13    1    1    2    0    0  0.23610734335E+03  0.82396708341E+01  0.12901776840E+04  0.13116299163E+04  0.10566000000E+00 0.  1.
        994    1    1    2    0    0 -0.23617066397E+03 -0.82400301204E+01  0.20946393381E+03  0.35920615277E+03  0.17120000000E+03 0.  0.
        998    1    1    2    0    0  0.63320623950E-01  0.35928624647E-03  0.35837842982E+00  0.36393094051E+00  0.10000000000E-02 0. -1.
</event>
<event>
 5    1  0.8138836E-009  0.3883008E+03  0.7957747E-01  0.3415792E+00
         13   -1    0    0    0    0  0.00000000000E+00  0.00000000000E+00  0.14999999963E+04  0.15000000000E+04  0.10566000000E+00 0.  1.
        994   -1    0    0    0    0 -0.00000000000E+00 -0.00000000000E+00  0.11368683772E-12  0.17120000000E+03  0.17120000000E+03 0.  0.
         13    1    1    2    0    0  0.16366107732E+03  0.15648599730E+03  0.13104148659E+04  0.13298345565E+04  0.10566000000E+00 0.  1.
        994    1    1    2    0    0 -0.16366372891E+03 -0.15648716385E+03  0.18957154939E+03  0.34135152109E+03  0.17120000000E+03 0.  0.
        998    1    1    2    0    0  0.26515919483E-02  0.11665499216E-02  0.13580963062E-01  0.13922440025E-01  0.10000000000E-02 0.  1.
</event>
<event>
 5    1  0.5722211E-009  0.3883010E+03  0.7957747E-01  0.3415792E+00
         13   -1    0    0    0    0  0.00000000000E+00  0.00000000000E+00  0.14999999963E+04  0.15000000000E+04  0.10566000000E+00 0. -1.
        994   -1    0    0    0    0 -0.00000000000E+00 -0.00000000000E+00  0.11368683772E-12  0.17120000000E+03  0.17120000000E+03 0.  0.
         13    1    1    2    0    0 -0.29289550672E+03 -0.67206925060E+02  0.10353312117E+04  0.10780608877E+04  0.10566000000E+00 0. -1.
        994    1    1    2    0    0  0.30248033686E+03  0.69417444621E+02  0.43075867240E+03  0.55783116590E+03  0.17120000000E+03 0.  0.
        998    1    1    2    0    0 -0.95848301432E+01 -0.22105195612E+01  0.33910112226E+02  0.35307946383E+02  0.10000000000E-02 0.  1.
</event>
<event>
 5    1  0.5722211E-009  0.3882585E+03  0.7957747E-01  0.3415969E+00
         13   -1    0    0    0    0  0.00000000000E+00  0.00000000000E+00  0.14999999963E+04  0.15000000000E+04  0.10566000000E+00 0. -1.
        994   -1    0    0    0    0 -0.00000000000E+00 -0.00000000000E+00  0.11368683772E-12  0.17120000000E+03  0.17120000000E+03 0.  0.
         13    1    1    2    0    0  0.67262627044E+02 -0.21354438722E+03  0.13025795492E+04  0.13216803545E+04  0.10566000000E+00 0. -1.
        994    1    1    2    0    0 -0.67857147725E+02  0.21455304714E+03  0.18690743104E+03  0.33894163260E+03  0.17120000000E+03 0.  0.
        998    1    1    2    0    0  0.59452068074E+00 -0.10086599148E+01  0.10513016003E+02  0.10578012864E+02  0.10000000000E-02 0.  1.
</event>
<event>
 5    1  0.5722211E-009  0.3882762E+03  0.7957747E-01  0.3415895E+00
         13   -1    0    0    0    0  0.00000000000E+00  0.00000000000E+00  0.14999999963E+04  0.15000000000E+04  0.10566000000E+00 0. -1.
        994   -1    0    0    0    0 -0.00000000000E+00 -0.00000000000E+00  0.11368683772E-12  0.17120000000E+03  0.17120000000E+03 0.  0.
         13    1    1    2    0    0 -0.20435212872E+02  0.31482579863E+03  0.10016273226E+04  0.10501381747E+04  0.10566000000E+00 0. -1.
        994    1    1    2    0    0  0.20335209268E+02 -0.31986924553E+03  0.48012046077E+03  0.60212536221E+03  0.17120000000E+03 0.  0.
        998    1    1    2    0    0  0.10000360420E+00  0.50434468945E+01  0.18252212900E+02  0.18936463081E+02  0.10000000000E-02 0.  1.
</event>
<event>
 5    1  0.5722211E-009  0.3883009E+03  0.7957747E-01  0.3415792E+00
         13   -1    0    0    0    0  0.00000000000E+00  0.00000000000E+00  0.14999999963E+04  0.15000000000E+04  0.10566000000E+00 0.  1.
        994   -1    0    0    0    0 -0.00000000000E+00 -0.00000000000E+00  0.11368683772E-12  0.17120000000E+03  0.17120000000E+03 0.  0.
         13    1    1    2    0    0  0.16835626625E+03  0.15688790075E+03  0.13030485748E+04  0.13232132274E+04  0.10566000000E+00 0.  1.
        994    1    1    2    0    0 -0.16837043771E+03 -0.15690089222E+03  0.19686004728E+03  0.34789339242E+03  0.17120000000E+03 0.  0.
        998    1    1    2    0    0  0.14171463290E-01  0.12991469532E-01  0.91374206022E-01  0.93380159448E-01  0.10000000000E-02 0.  0.
</event>
<event>
 5    1  0.5722211E-009  0.3883001E+03  0.7957747E-01  0.3415795E+00
         13   -1    0    0    0    0  0.00000000000E+00  0.00000000000E+00  0.14999999963E+04  0.15000000000E+04  0.10566000000E+00 0.  1.
        994   -1    0    0    0    0 -0.00000000000E+00 -0.00000000000E+00  0.11368683772E-12  0.17120000000E+03  0.17120000000E+03 0.  0.
         13    1    1    2    0    0  0.20399945533E+03 -0.88044951776E+02  0.13184931393E+04  0.13370833411E+04  0.10566000000E+00 0.  1.
        994    1    1    2    0    0 -0.20400189935E+03  0.88051732941E+02  0.18147636111E+03  0.33408530685E+03  0.17120000000E+03 0.  0.
        998    1    1    2    0    0  0.24440202112E-02 -0.67811653465E-02  0.30495830697E-01  0.31352083314E-01  0.10000000000E-02 0.  1.
</event>
<event>
 5    1  0.5722211E-009  0.3883010E+03  0.7957747E-01  0.3415792E+00
         13   -1    0    0    0    0  0.00000000000E+00  0.00000000000E+00  0.14999999963E+04  0.15000000000E+04  0.10566000000E+00 0.  1.
        994   -1    0    0    0    0 -0.00000000000E+00 -0.00000000000E+00  0.11368683772E-12  0.17120000000E+03  0.17120000000E+03 0.  0.
         13    1    1    2    0    0  0.13714726497E+03 -0.19417966925E+03  0.12837389502E+04  0.13055653257E+04  0.10566000000E+00 0.  1.
        994    1    1    2    0    0 -0.13743720584E+03  0.19459723257E+03  0.21351803016E+03  0.36284494991E+03  0.17120000000E+03 0.  0.
        998    1    1    2    0    0  0.28994087388E+00 -0.41756331979E+00  0.27430159206E+01  0.27897243909E+01  0.10000000000E-02 0.  1.
</event>
<event>
 5    1  0.5722211E-009  0.3875726E+03  0.7957747E-01  0.3418834E+00
         13   -1    0    0    0    0  0.00000000000E+00  0.00000000000E+00  0.14999999963E+04  0.15000000000E+04  0.10566000000E+00 0. -1.
        994   -1    0    0    0    0 -0.00000000000E+00 -0.00000000000E+00  0.11368683772E-12  0.17120000000E+03  0.17120000000E+03 0.  0.
         13    1    1    2    0    0  0.19461531718E+03  0.16216808381E+03  0.11559763966E+04  0.11834082346E+04  0.10566000000E+00 0. -1.
        994    1    1    2    0    0 -0.19968754367E+03 -0.16884293470E+03  0.26921738748E+03  0.41251726439E+03  0.17120000000E+03 0.  0.
        998    1    1    2    0    0  0.50722264943E+01  0.66748508891E+01  0.74806212238E+02  0.75274501037E+02  0.10000000000E-02 0. -1.
</event>
<event>
 5    1  0.5722211E-009  0.3883010E+03  0.7957747E-01  0.3415792E+00
         13   -1    0    0    0    0  0.00000000000E+00  0.00000000000E+00  0.14999999963E+04  0.15000000000E+04  0.10566000000E+00 0.  1.
        994   -1    0    0    0    0 -0.00000000000E+00 -0.00000000000E+00  0.11368683772E-12  0.17120000000E+03  0.17120000000E+03 0.  0.
         13    1    1    2    0    0 -0.10230821220E+03 -0.25126319424E+03  0.11857433895E+04  0.12163829824E+04  0.10566000000E+00 0.  1.
        994    1    1    2    0    0  0.10336144203E+03  0.25382541427E+03  0.30214781250E+03  0.44239537659E+03  0.17120000000E+03 0.  0.
        998    1    1    2    0    0 -0.10532298295E+01 -0.25622200313E+01  0.12108794296E+02  0.12421640990E+02  0.10000000000E-02 0.  1.
</event>
<event>
 5    1  0.5722211E-009  0.3883005E+03  0.7957747E-01  0.3415794E+00
         13   -1    0    0    0    0  0.00000000000E+00  0.00000000000E+00  0.14999999963E+04  0.15000000000E+04  0.10566000000E+00 0.  1.
        994   -1    0    0    0    0 -0.00000000000E+00 -0.00000000000E+00  0.11368683772E-12  0.17120000000E+03  0.17120000000E+03 0.  0.
         13    1    1    2    0    0 -0.13501879012E+03 -0.60637456871E+02  0.81871574818E+03  0.83198705660E+03  0.10566000000E+00 0.  1.
        994    1    1    2    0    0  0.21311463175E+03  0.95745795699E+02  0.20391591341E+03  0.35422626018E+03  0.17120000000E+03 0.  0.
        998    1    1    2    0    0 -0.78095841633E+02 -0.35108338828E+02  0.47736833469E+03  0.48498668322E+03  0.10000000000E-02 0.  1.
</event>
<event>
 5    1  0.5722211E-009  0.3882528E+03  0.7957747E-01  0.3415993E+00
         13   -1    0    0    0    0  0.00000000000E+00  0.00000000000E+00  0.14999999963E+04  0.15000000000E+04  0.10566000000E+00 0.  1.
        994   -1    0    0    0    0 -0.00000000000E+00 -0.00000000000E+00  0.11368683772E-12  0.17120000000E+03  0.17120000000E+03 0.  0.
         13    1    1    2    0    0  0.20932016613E+03  0.56361751654E+02  0.12617373320E+04  0.12802236856E+04  0.10566000000E+00 0.  1.
        994    1    1    2    0    0 -0.21702368368E+03 -0.60155601400E+02  0.18725731779E+03  0.33925317791E+03  0.17120000000E+03 0.  0.
        998    1    1    2    0    0  0.77035175456E+01  0.37938497456E+01  0.51005346512E+02  0.51723136528E+02  0.10000000000E-02 0. -1.
</event>
<event>
 5    1  0.5722211E-009  0.3883010E+03  0.7957747E-01  0.3415792E+00
         13   -1    0    0    0    0  0.00000000000E+00  0.00000000000E+00  0.14999999963E+04  0.15000000000E+04  0.10566000000E+00 0.  1.
        994   -1    0    0    0    0 -0.00000000000E+00 -0.00000000000E+00  0.11368683772E-12  0.17120000000E+03  0.17120000000E+03 0.  0.
         13    1    1    2    0    0  0.13058271176E+03 -0.19242882330E+03  0.12795096493E+04  0.13004713186E+04  0.10566000000E+00 0.  1.
        994    1    1    2    0    0 -0.13198029965E+03  0.19447871201E+03  0.20679742769E+03  0.35681281510E+03  0.17120000000E+03 0.  0.
        998    1    1    2    0    0  0.13975878918E+01 -0.20498887105E+01  0.13692919279E+02  0.13915866305E+02  0.10000000000E-02 0. -1.
</event>
<event>
 5    1  0.5722211E-009  0.3869513E+03  0.7957747E-01  0.3421438E+00
         13   -1    0    0    0    0  0.00000000000E+00  0.00000000000E+00  0.14999999963E+04  0.15000000000E+04  0.10566000000E+00 0. -1.
        994   -1    0    0    0    0 -0.00000000000E+00 -0.00000000000E+00  0.11368683772E-12  0.17120000000E+03  0.17120000000E+03 0.  0.
         13    1    1    2    0    0 -0.15498522433E+03  0.12182898620E+03  0.84590926548E+03  0.86857654713E+03  0.10566000000E+00 0. -1.
        994    1    1    2    0    0  0.19769429798E+03 -0.19130192729E+03  0.30798136929E+03  0.44703626997E+03  0.17120000000E+03 0.  0.
        998    1    1    2    0    0 -0.42709073644E+02  0.69472941092E+02  0.34610936152E+03  0.35558718290E+03  0.10000000000E-02 0.  1.
</event>
<event>
 5    1  0.5722211E-009  0.3883010E+03  0.7957747E-01  0.3415792E+00
         13   -1    0    0    0    0  0.00000000000E+00  0.00000000000E+00  0.14999999963E+04  0.15000000000E+04  0.10566000000E+00 0.  1.
        994   -1    0    0    0    0 -0.00000000000E+00 -0.00000000000E+00  0.11368683772E-12  0.17120000000E+03  0.17120000000E+03 0.  0.
         13    1    1    2    0    0  0.22606409076E+03 -0.12257813311E+03  0.12389223029E+04  0.12653295443E+04  0.10566000000E+00 0.  1.
        994    1    1    2    0    0 -0.22656009623E+03  0.12285009958E+03  0.25834446907E+03  0.40307930841E+03  0.17120000000E+03 0.  0.
        998    1    1    2    0    0  0.49600546944E+00 -0.27196647078E+00  0.27332243145E+01  0.27911473161E+01  0.10000000000E-02 0.  1.
</event>
<event>
 5    1  0.5722211E-009  0.3883010E+03  0.7957747E-01  0.3415792E+00
         13   -1    0    0    0    0  0.00000000000E+00  0.00000000000E+00  0.14999999963E+04  0.15000000000E+04  0.10566000000E+00 0.  1.
        994   -1    0    0    0    0 -0.00000000000E+00 -0.00000000000E+00  0.11368683772E-12  0.17120000000E+03  0.17120000000E+03 0.  0.
         13    1    1    2    0    0  0.14310847163E+02 -0.20649747536E+03  0.12505131736E+04  0.12675287832E+04  0.10566000000E+00 0.  1.
        994    1    1    2    0    0 -0.15145133566E+02  0.21864748589E+03  0.17586790361E+03  0.32905175531E+03  0.17120000000E+03 0.  0.
        998    1    1    2    0    0  0.83428640271E+00 -0.12150010530E+02  0.73618919021E+02  0.74619461460E+02  0.10000000000E-02 0. -1.
</event>
<event>
 5    1  0.5722211E-009  0.3882970E+03  0.7957747E-01  0.3415809E+00
         13   -1    0    0    0    0  0.00000000000E+00  0.00000000000E+00  0.14999999963E+04  0.15000000000E+04  0.10566000000E+00 0. -1.
        994   -1    0    0    0    0 -0.00000000000E+00 -0.00000000000E+00  0.11368683772E-12  0.17120000000E+03  0.17120000000E+03 0.  0.
         13    1    1    2    0    0  0.64073670703E+02  0.20172697316E+03  0.12559859496E+04  0.12736953810E+04  0.10566000000E+00 0. -1.
        994    1    1    2    0    0 -0.67227136980E+02 -0.21219629156E+03  0.18222778726E+03  0.33475836143E+03  0.17120000000E+03 0.  0.
        998    1    1    2    0    0  0.31534662767E+01  0.10469318394E+02  0.61786259436E+02  0.62746257524E+02  0.10000000000E-02 0. -1.
</event>
<event>
 5    1  0.5722211E-009  0.3883010E+03  0.7957747E-01  0.3415792E+00
         13   -1    0    0    0    0  0.00000000000E+00  0.00000000000E+00  0.14999999963E+04  0.15000000000E+04  0.10566000000E+00 0.  1.
        994   -1    0    0    0    0 -0.00000000000E+00 -0.00000000000E+00  0.11368683772E-12  0.17120000000E+03  0.17120000000E+03 0.  0.
         13    1    1    2    0    0 -0.25639103519E+03  0.15255700565E+01  0.12445994383E+04  0.12707346156E+04  0.10566000000E+00 0.  1.
        994    1    1    2    0    0  0.25643863715E+03 -0.15263213783E+01  0.25517092145E+03  0.40023086267E+03  0.17120000000E+03 0.  0.
        998    1    1    2    0    0 -0.47601952106E-01  0.75132174706E-03  0.22963656048E+00  0.23452176922E+00  0.10000000000E-02 0.  0.
</event>
<event>
 5    1  0.5722211E-009  0.3883009E+03  0.7957747E-01  0.3415792E+00
         13   -1    0    0    0    0  0.00000000000E+00  0.00000000000E+00  0.14999999963E+04  0.15000000000E+04  0.10566000000E+00 0. -1.
        994   -1    0    0    0    0 -0.00000000000E+00 -0.00000000000E+00  0.11368683772E-12  0.17120000000E+03  0.17120000000E+03 0.  0.
         13    1    1    2    0    0 -0.18106366709E+03 -0.15662682900E+03  0.12823225025E+04  0.13044796000E+04  0.10566000000E+00 0. -1.
        994    1    1    2    0    0  0.18122054499E+03  0.15677454622E+03  0.21647734501E+03  0.36550106042E+03  0.17120000000E+03 0.  0.
        998    1    1    2    0    0 -0.15687790489E+00 -0.14771722044E+00  0.12001487633E+01  0.12193396197E+01  0.10000000000E-02 0.  1.
</event>
<event>
 5    1  0.5722211E-009  0.3883010E+03  0.7957747E-01  0.3415792E+00
         13   -1    0    0    0    0  0.00000000000E+00  0.00000000000E+00  0.14999999963E+04  0.15000000000E+04  0.10566000000E+00 0.  1.
        994   -1    0    0    0    0 -0.00000000000E+00 -0.00000000000E+00  0.11368683772E-12  0.17120000000E+03  0.17120000000E+03 0.  0.
         13    1    1    2    0    0 -0.11766527896E+03 -0.21084822780E+03  0.12768208148E+04  0.12994512293E+04  0.10566000000E+00 0.  1.
        994    1    1    2    0    0  0.11784883012E+03  0.21116843630E+03  0.22125284411E+03  0.36978739334E+03  0.17120000000E+03 0.  0.
        998    1    1    2    0    0 -0.18355115145E+00 -0.32020850223E+00  0.19263373392E+01  0.19613773361E+01  0.10000000000E-02 0.  1.
</event>
<event>
 5    1  0.5722211E-009  0.3883010E+03  0.7957747E-01  0.3415792E+00
         13   -1    0    0    0    0  0.00000000000E+00  0.00000000000E+00  0.14999999963E+04  0.15000000000E+04  0.10566000000E+00 0.  1.
        994   -1    0    0    0    0 -0.00000000000E+00 -0.00000000000E+00  0.11368683772E-12  0.17120000000E+03  0.17120000000E+03 0.  0.
         13    1    1    2    0    0 -0.88910198114E+02 -0.75645680608E+02  0.44864755287E+03  0.46358594692E+03  0.10566000000E+00 0.  1.
        994    1    1    2    0    0  0.22431808560E+03  0.19076862839E+03  0.36764028711E+03  0.50117870447E+03  0.17120000000E+03 0.  0.
        998    1    1    2    0    0 -0.13540788749E+03 -0.11512294778E+03  0.68371215630E+03  0.70643534862E+03  0.10000000000E-02 0.  1.
</event>
<event>
 5    1  0.5722211E-009  0.3861822E+03  0.7957747E-01  0.3424674E+00
         13   -1    0    0    0    0  0.00000000000E+00  0.00000000000E+00  0.14999999963E+04  0.15000000000E+04  0.10566000000E+00 0. -1.
        994   -1    0    0    0    0 -0.00000000000E+00 -0.00000000000E+00  0.11368683772E-12  0.17120000000E+03  0.17120000000E+03 0.  0.
         13    1    1    2    0    0 -0.13066655483E+02  0.17540644478E+01  0.53797466990E+02  0.55389465119E+02  0.10566000000E+00 0. -1.
        994    1    1    2    0    0  0.11614648592E+03  0.12484619761E+03  0.10291030106E+03  0.26263386932E+03  0.17120000000E+03 0.  0.
        998    1    1    2    0    0 -0.10307983044E+03 -0.12660026205E+03  0.13432922282E+04  0.13531766656E+04  0.10000000000E-02 0. -1.
</event>
<event>
 5    1  0.5722211E-009  0.3883010E+03  0.7957747E-01  0.3415792E+00
         13   -1    0    0    0    0  0.00000000000E+00  0.00000000000E+00  0.14999999963E+04  0.15000000000E+04  0.10566000000E+00 0.  1.
        994   -1    0    0    0    0 -0.00000000000E+00 -0.00000000000E+00  0.11368683772E-12  0.17120000000E+03  0.17120000000E+03 0.  0.
         13    1    1    2    0    0 -0.24944701129E+03 -0.23761653017E+03  0.64066727774E+03  0.72742009787E+03  0.10566000000E+00 0.  1.
        994    1    1    2    0    0  0.25154315102E+03  0.23960630656E+03  0.85395887937E+03  0.93767816794E+03  0.17120000000E+03 0.  0.
        998    1    1    2    0    0 -0.20961397270E+01 -0.19897763842E+01  0.53738391692E+01  0.61017341986E+01  0.10000000000E-02 0.  1.
</event>
<event>
 5    1  0.5722211E-009  0.3882476E+03  0.7957747E-01  0.3416014E+00
         13   -1    0    0    0    0  0.00000000000E+00  0.00000000000E+00  0.14999999963E+04  0.15000000000E+04  0.10566000000E+00 0.  1.
        994   -1    0    0    0    0 -0.00000000000E+00 -0.00000000000E+00  0.11368683772E-12  0.17120000000E+03  0.17120000000E+03 0.  0.
         13    1    1    2    0    0 -0.51911667735E+02 -0.16405246205E+03  0.10299882392E+04  0.10442623308E+04  0.10566000000E+00 0.  1.
        994    1    1    2    0    0  0.68615201015E+02  0.20680793436E+03  0.17359907665E+03  0.32699181479E+03  0.17120000000E+03 0.  0.
        998    1    1    2    0    0 -0.16703533279E+02 -0.42755472313E+02  0.29641268045E+03  0.29994585440E+03  0.10000000000E-02 0. -1.
</event>
<event>
 5    1  0.5722211E-009  0.3883010E+03  0.7957747E-01  0.3415792E+00
         13   -1    0    0    0    0  0.00000000000E+00  0.00000000000E+00  0.14999999963E+04  0.15000000000E+04  0.10566000000E+00 0. -1.
        994   -1    0    0    0    0 -0.00000000000E+00 -0.00000000000E+00  0.11368683772E-12  0.17120000000E+03  0.17120000000E+03 0.  0.
         13    1    1    2    0    0  0.15399383231E+02 -0.30939264176E+03  0.94796557040E+03  0.99729618549E+03  0.10566000000E+00 0. -1.
        994    1    1    2    0    0 -0.16126499300E+02  0.32464049844E+03  0.50524151885E+03  0.62468387972E+03  0.17120000000E+03 0.  0.
        998    1    1    2    0    0  0.72711606894E+00 -0.15247856687E+02  0.46792907032E+02  0.49219934791E+02  0.10000000000E-02 0. -1.
</event>
<event>
 5    1  0.5722211E-009  0.3883005E+03  0.7957747E-01  0.3415794E+00
         13   -1    0    0    0    0  0.00000000000E+00  0.00000000000E+00  0.14999999963E+04  0.15000000000E+04  0.10566000000E+00 0. -1.
        994   -1    0    0    0    0 -0.00000000000E+00 -0.00000000000E+00  0.11368683772E-12  0.17120000000E+03  0.17120000000E+03 0.  0.
         13    1    1    2    0    0 -0.11010662788E+03 -0.19866444974E+03  0.10391767382E+04  0.10637101755E+04  0.10566000000E+00 0. -1.
        994    1    1    2    0    0  0.12885887563E+03  0.23306086812E+03  0.28056198330E+03  0.42302061953E+03  0.17120000000E+03 0.  0.
        998    1    1    2    0    0 -0.18752247750E+02 -0.34396418379E+02  0.18026127481E+03  0.18446920500E+03  0.10000000000E-02 0. -1.
</event>
<event>
 5    1  0.5722211E-009  0.3882739E+03  0.7957747E-01  0.3415905E+00
         13   -1    0    0    0    0  0.00000000000E+00  0.00000000000E+00  0.14999999963E+04  0.15000000000E+04  0.10566000000E+00 0.  1.
        994   -1    0    0    0    0 -0.00000000000E+00 -0.00000000000E+00  0.11368683772E-12  0.17120000000E+03  0.17120000000E+03 0.  0.
         13    1    1    2    0    0  0.17542195006E+03 -0.14854171557E+03  0.12966148853E+04  0.13168324395E+04  0.10566000000E+00 0.  1.
        994    1    1    2    0    0 -0.17645316447E+03  0.14895935178E+03  0.19844984743E+03  0.34930844490E+03  0.17120000000E+03 0.  0.
        998    1    1    2    0    0  0.10312144067E+01 -0.41763620901E+00  0.49352635377E+01  0.50591155691E+01  0.10000000000E-02 0.  1.
</event>
<event>
 5    1  0.5722211E-009  0.3883010E+03  0.7957747E-01  0.3415792E+00
         13   -1    0    0    0    0  0.00000000000E+00  0.00000000000E+00  0.14999999963E+04  0.15000000000E+04  0.10566000000E+00 0.  1.
        994   -1    0    0    0    0 -0.00000000000E+00 -0.00000000000E+00  0.11368683772E-12  0.17120000000E+03  0.17120000000E+03 0.  0.
         13    1    1    2    0    0  0.20624793359E+03  0.11624781671E+03  0.12850327659E+04  0.13066602410E+04  0.10566000000E+00 0.  1.
        994    1    1    2    0    0 -0.20677643128E+03 -0.11654764218E+03  0.21166101057E+03  0.36117816770E+03  0.17120000000E+03 0.  0.
        998    1    1    2    0    0  0.52849769255E+00  0.29982546897E+00  0.33062198516E+01  0.33615912646E+01  0.10000000000E-02 0. -1.
</event>
<event>
 5    1  0.5722211E-009  0.3882932E+03  0.7957747E-01  0.3415824E+00
         13   -1    0    0    0    0  0.00000000000E+00  0.00000000000E+00  0.14999999963E+04  0.15000000000E+04  0.10566000000E+00 0.  1.
        994   -1    0    0    0    0 -0.00000000000E+00 -0.00000000000E+00  0.11368683772E-12  0.17120000000E+03  0.17120000000E+03 0.  0.
         13    1    1    2    0    0  0.15064774741E+02  0.25417867679E+03  0.12485238074E+04  0.12742234717E+04  0.10566000000E+00 0.  1.
        994    1    1    2    0    0 -0.15005230897E+02 -0.25426381501E+03  0.25093469822E+03  0.39642515984E+03  0.17120000000E+03 0.  0.
        998    1    1    2    0    0 -0.59543843345E-01  0.85138224532E-01  0.54149067965E+00  0.55136842738E+00  0.10000000000E-02 0.  1.
</event>
<event>
 5    1  0.5722211E-009  0.3882999E+03  0.7957747E-01  0.3415796E+00
         13   -1    0    0    0    0  0.00000000000E+00  0.00000000000E+00  0.14999999963E+04  0.15000000000E+04  0.10566000000E+00 0.  1.
        994   -1    0    0    0    0 -0.00000000000E+00 -0.00000000000E+00  0.11368683772E-12  0.17120000000E+03  0.17120000000E+03 0.  0.
         13    1    1    2    0    0 -0.20942226605E+03  0.79488097779E+02  0.13078769215E+04  0.13269205312E+04  0.10566000000E+00 0.  1.
        994    1    1    2    0    0  0.21026109925E+03 -0.79893926056E+02  0.18666365869E+03  0.33874109693E+03  0.17120000000E+03 0.  0.
        998    1    1    2    0    0 -0.83883319253E+00  0.40582827694E+00  0.54594161150E+01  0.55383718756E+01  0.10000000000E-02 0. -1.
</event>
<event>
 5    1  0.5722211E-009  0.3883009E+03  0.7957747E-01  0.3415792E+00
         13   -1    0    0    0    0  0.00000000000E+00  0.00000000000E+00  0.14999999963E+04  0.15000000000E+04  0.10566000000E+00 0. -1.
        994   -1    0    0    0    0 -0.00000000000E+00 -0.00000000000E+00  0.11368683772E-12  0.17120000000E+03  0.17120000000E+03 0.  0.
         13    1    1    2    0    0  0.18694563479E+03  0.99741068880E+02  0.12579025543E+04  0.12756236900E+04  0.10566000000E+00 0. -1.
        994    1    1    2    0    0 -0.19594729631E+03 -0.10448919416E+03  0.18123667272E+03  0.33387049310E+03  0.17120000000E+03 0.  0.
        998    1    1    2    0    0  0.90016615192E+01  0.47481252807E+01  0.60860769248E+02  0.61705816892E+02  0.10000000000E-02 0.  1.
</event>
<event>
 5    1  0.5722211E-009  0.3883005E+03  0.7957747E-01  0.3415794E+00
         13   -1    0    0    0    0  0.00000000000E+00  0.00000000000E+00  0.14999999963E+04  0.15000000000E+04  0.10566000000E+00 0. -1.
        994   -1    0    0    0    0 -0.00000000000E+00 -0.00000000000E+00  0.11368683772E-12  0.17120000000E+03  0.17120000000E+03 0.  0.
         13    1    1    2    0    0  0.20819177205E+03  0.13964452238E+03  0.12557151705E+04  0.12804940480E+04  0.10566000000E+00 0. -1.
        994    1    1    2    0    0 -0.20855337412E+03 -0.13986132602E+03  0.24231721152E+03  0.38869367293E+03  0.17120000000E+03 0.  0.
        998    1    1    2    0    0  0.36160207480E+00  0.21680363758E+00  0.19676142944E+01  0.20122790287E+01  0.10000000000E-02 0. -1.
</event>
<event>
 5    1  0.5722211E-009  0.3883010E+03  0.7957747E-01  0.3415792E+00
         13   -1    0    0    0    0  0.00000000000E+00  0.00000000000E+00  0.14999999963E+04  0.15000000000E+04  0.10566000000E+00 0.  1.
        994   -1    0    0    0    0 -0.00000000000E+00 -0.00000000000E+00  0.11368683772E-12  0.17120000000E+03  0.17120000000E+03 0.  0.
         13    1    1    2    0    0  0.23742285018E+03 -0.16363683733E+03  0.10826639808E+04  0.11204052530E+04  0.10566000000E+00 0.  1.
        994    1    1    2    0    0 -0.24541412304E+03  0.16915188806E+03  0.38079660672E+03  0.51298727929E+03  0.17120000000E+03 0.  0.
        998    1    1    2    0    0  0.79912728529E+01 -0.55150507332E+01  0.36539408732E+02  0.37807467753E+02  0.10000000000E-02 0.  1.
</event>
<event>
 5    1  0.5722211E-009  0.3882996E+03  0.7957747E-01  0.3415798E+00
         13   -1    0    0    0    0  0.00000000000E+00  0.00000000000E+00  0.14999999963E+04  0.15000000000E+04  0.10566000000E+00 0.  1.
        994   -1    0    0    0    0 -0.00000000000E+00 -0.00000000000E+00  0.11368683772E-12  0.17120000000E+03  0.17120000000E+03 0.  0.
         13    1    1    2    0    0 -0.22511608415E+03  0.15474139957E+03  0.11992933913E+04  0.12300108949E+04  0.10566000000E+00 0.  1.
        994    1    1    2    0    0  0.22523973335E+03 -0.15480259685E+03  0.29997414360E+03  0.44044376292E+03  0.17120000000E+03 0.  0.
        998    1    1    2    0    0 -0.12364920030E+00  0.61197282310E-01  0.73246139592E+00  0.74534215540E+00  0.10000000000E-02 0.  1.
</event>
<event>
 5    1  0.5722211E-009  0.3879774E+03  0.7957747E-01  0.3417142E+00
         13   -1    0    0    0    0  0.00000000000E+00  0.00000000000E+00  0.14999999963E+04  0.15000000000E+04  0.10566000000E+00 0. -1.
        994   -1    0    0    0    0 -0.00000000000E+00 -0.00000000000E+00  0.11368683772E-12  0.17120000000E+03  0.17120000000E+03 0.  0.
         13    1    1    2    0    0 -0.30581876488E+03 -0.14670961249E+03  0.53172943669E+03  0.63070201550E+03  0.10566000000E+00 0. -1.
        994    1    1    2    0    0  0.30581470998E+03  0.14739337672E+03  0.96687945811E+03  0.10389479154E+04  0.17120000000E+03 0.  0.
        998    1    1    2    0    0  0.40549017734E-02 -0.68376423048E+00  0.13911014832E+01  0.15500691280E+01  0.10000000000E-02 0. -1.
</event>
<event>
 5    1  0.5722211E-009  0.3883010E+03  0.7957747E-01  0.3415792E+00
         13   -1    0    0    0    0  0.00000000000E+00  0.00000000000E+00  0.14999999963E+04  0.15000000000E+04  0.10566000000E+00 0.  1.
        994   -1    0    0    0    0 -0.00000000000E+00 -0.00000000000E+00  0.11368683772E-12  0.17120000000E+03  0.17120000000E+03 0.  0.
         13    1    1    2    0    0 -0.24778800636E+03 -0.59662203030E+02  0.11897281126E+04  0.12167216065E+04  0.10566000000E+00 0.  1.
        994    1    1    2    0    0  0.25576438596E+03  0.61586066658E+02  0.27198885789E+03  0.41532594856E+03  0.17120000000E+03 0.  0.
        998    1    1    2    0    0 -0.79763795967E+01 -0.19238636277E+01  0.38283025787E+02  0.39152444970E+02  0.10000000000E-02 0.  1.
</event>
<event>
 5    1  0.5722211E-009  0.3883010E+03  0.7957747E-01  0.3415792E+00
         13   -1    0    0    0    0  0.00000000000E+00  0.00000000000E+00  0.14999999963E+04  0.15000000000E+04  0.10566000000E+00 0. -1.
        994   -1    0    0    0    0 -0.00000000000E+00 -0.00000000000E+00  0.11368683772E-12  0.17120000000E+03  0.17120000000E+03 0.  0.
         13    1    1    2    0    0  0.76451065767E+02 -0.21675645940E+03  0.13012514731E+04  0.13213945420E+04  0.10566000000E+00 0. -1.
        994    1    1    2    0    0 -0.76558995696E+02  0.21706386675E+03  0.19690978227E+03  0.34793807556E+03  0.17120000000E+03 0.  0.
        998    1    1    2    0    0  0.10792992924E+00 -0.30740735037E+00  0.18387408798E+01  0.18673824386E+01  0.10000000000E-02 0.  0.
</event>
<event>
 5    1  0.5722211E-009  0.3883005E+03  0.7957747E-01  0.3415794E+00
         13   -1    0    0    0    0  0.00000000000E+00  0.00000000000E+00  0.14999999963E+04  0.15000000000E+04  0.10566000000E+00 0. -1.
        994   -1    0    0    0    0 -0.00000000000E+00 -0.00000000000E+00  0.11368683772E-12  0.17120000000E+03  0.17120000000E+03 0.  0.
         13    1    1    2    0    0 -0.21710395338E+03  0.76859642342E+01  0.12685783046E+04  0.12870447260E+04  0.10566000000E+00 0. -1.
        994    1    1    2    0    0  0.22467134296E+03 -0.78628680302E+01  0.18643405562E+03  0.33853527753E+03  0.17120000000E+03 0.  0.
        998    1    1    2    0    0 -0.75673895792E+01  0.17690379598E+00  0.44987636089E+02  0.45619996514E+02  0.10000000000E-02 0.  1.
</event>
<event>
 5    1  0.5722211E-009  0.3883010E+03  0.7957747E-01  0.3415792E+00
         13   -1    0    0    0    0  0.00000000000E+00  0.00000000000E+00  0.14999999963E+04  0.15000000000E+04  0.10566000000E+00 0.  1.
        994   -1    0    0    0    0 -0.00000000000E+00 -0.00000000000E+00  0.11368683772E-12  0.17120000000E+03  0.17120000000E+03 0.  0.
         13    1    1    2    0    0  0.25364123529E+03  0.20794080177E+03  0.97632422093E+03  0.10299428377E+04  0.10566000000E+00 0.  1.
        994    1    1    2    0    0 -0.25368812761E+03 -0.20797660782E+03  0.52350383564E+03  0.64107537889E+03  0.17120000000E+03 0.  0.
        998    1    1    2    0    0  0.46892316165E-01  0.35806053321E-01  0.17193970930E+00  0.18178346020E+00  0.10000000000E-02 0.  1.
</event>
<event>
 5    1  0.5722211E-009  0.3857810E+03  0.7957747E-01  0.3426367E+00
         13   -1    0    0    0    0  0.00000000000E+00  0.00000000000E+00  0.14999999963E+04  0.15000000000E+04  0.10566000000E+00 0. -1.
        994   -1    0    0    0    0 -0.00000000000E+00 -0.00000000000E+00  0.11368683772E-12  0.17120000000E+03  0.17120000000E+03 0.  0.
         13    1    1    2    0    0  0.80146250872E+02 -0.22357743210E+03  0.40289273256E+03  0.46768884398E+03  0.10566000000E+00 0. -1.
        994    1    1    2    0    0 -0.12343131516E+03  0.32256651815E+03  0.81998870959E+03  0.90607691288E+03  0.17120000000E+03 0.  0.
        998    1    1    2    0    0  0.43285064288E+02 -0.98989086048E+02  0.27711855413E+03  0.29743424314E+03  0.10000000000E-02 0. -1.
</event>
<event>
 5    1  0.5722211E-009  0.3883010E+03  0.7957747E-01  0.3415792E+00
         13   -1    0    0    0    0  0.00000000000E+00  0.00000000000E+00  0.14999999963E+04  0.15000000000E+04  0.10566000000E+00 0.  1.
        994   -1    0    0    0    0 -0.00000000000E+00 -0.00000000000E+00  0.11368683772E-12  0.17120000000E+03  0.17120000000E+03 0.  0.
         13    1    1    2    0    0  0.29717155965E+03 -0.42599514557E+02  0.10857469187E+04  0.11264865899E+04  0.10566000000E+00 0.  1.
        994    1    1    2    0    0 -0.30049022003E+03  0.43075248164E+02  0.40212931435E+03  0.53213463973E+03  0.17120000000E+03 0.  0.
        998    1    1    2    0    0  0.33186603831E+01 -0.47573360657E+00  0.12123763192E+02  0.12578770375E+02  0.10000000000E-02 0.  0.
</event>
<event>
 5    1  0.5722211E-009  0.3882947E+03  0.7957747E-01  0.3415818E+00
         13   -1    0    0    0    0  0.00000000000E+00  0.00000000000E+00  0.14999999963E+04  0.15000000000E+04  0.10566000000E+00 0. -1.
        994   -1    0    0    0    0 -0.00000000000E+00 -0.00000000000E+00  0.11368683772E-12  0.17120000000E+03  0.17120000000E+03 0.  0.
         13    1    1    2    0    0  0.13254329276E+03  0.30171558217E+02  0.74727479496E+03  0.75953780533E+03  0.10566000000E+00 0. -1.
        994    1    1    2    0    0 -0.22848122341E+03 -0.50023902315E+02  0.20445452580E+03  0.35470713747E+03  0.17120000000E+03 0.  0.
        998    1    1    2    0    0  0.95937930651E+02  0.19852344098E+02  0.54827067552E+03  0.55695505720E+03  0.10000000000E-02 0. -1.
</event>
<event>
 5    1  0.5722211E-009  0.3883003E+03  0.7957747E-01  0.3415795E+00
         13   -1    0    0    0    0  0.00000000000E+00  0.00000000000E+00  0.14999999963E+04  0.15000000000E+04  0.10566000000E+00 0.  1.
        994   -1    0    0    0    0 -0.00000000000E+00 -0.00000000000E+00  0.11368683772E-12  0.17120000000E+03  0.17120000000E+03 0.  0.
         13    1    1    2    0    0  0.24237640991E+03 -0.19115253532E+02  0.89892279273E+03  0.93122173270E+03  0.10566000000E+00 0.  1.
        994    1    1    2    0    0 -0.29937584708E+03  0.23146160977E+02  0.38917915149E+03  0.52051080155E+03  0.17120000000E+03 0.  0.
        998    1    1    2    0    0  0.56999437170E+02 -0.40309074458E+01  0.21189805207E+03  0.21946746575E+03  0.10000000000E-02 0.  1.
</event>
<event>
 5    1  0.5722211E-009  0.3882991E+03  0.7957747E-01  0.3415800E+00
         13   -1    0    0    0    0  0.00000000000E+00  0.00000000000E+00  0.14999999963E+04  0.15000000000E+04  0.10566000000E+00 0. -1.
        994   -1    0    0    0    0 -0.00000000000E+00 -0.00000000000E+00  0.11368683772E-12  0.17120000000E+03  0.17120000000E+03 0.  0.
         13    1    1    2    0    0 -0.14371387205E+03 -0.18187882407E+03  0.12966053637E+04  0.13171632640E+04  0.10566000000E+00 0. -1.
        994    1    1    2    0    0  0.14399680628E+03  0.18214796282E+03  0.20097766822E+03  0.35158842942E+03  0.17120000000E+03 0.  0.
        998    1    1    2    0    0 -0.28293422678E+00 -0.26913874941E+00  0.24169643587E+01  0.24483065892E+01  0.10000000000E-02 0. -1.
</event>
<event>
 5    1  0.5722211E-009  0.3882436E+03  0.7957747E-01  0.3416031E+00
         13   -1    0    0    0    0  0.00000000000E+00  0.00000000000E+00  0.14999999963E+04  0.15000000000E+04  0.10566000000E+00 0.  1.
        994   -1    0    0    0    0 -0.00000000000E+00 -0.00000000000E+00  0.11368683772E-12  0.17120000000E+03  0.17120000000E+03 0.  0.
         13    1    1    2    0    0  0.16299783769E+03  0.13580994819E+03  0.11915820838E+04  0.12103224821E+04  0.10566000000E+00 0.  1.
        994    1    1    2    0    0 -0.17696759473E+03 -0.14618473273E+03  0.19572816652E+03  0.34685221758E+03  0.17120000000E+03 0.  0.
        998    1    1    2    0    0  0.13969757038E+02  0.10374784538E+02  0.11268974595E+03  0.11402530031E+03  0.10000000000E-02 0.  1.
</event>
<event>
 5    1  0.5722211E-009  0.3883007E+03  0.7957747E-01  0.3415793E+00
         13   -1    0    0    0    0  0.00000000000E+00  0.00000000000E+00  0.14999999963E+04  0.15000000000E+04  0.10566000000E+00 0. -1.
        994   -1    0    0    0    0 -0.00000000000E+00 -0.00000000000E+00  0.11368683772E-12  0.17120000000E+03  0.17120000000E+03 0.  0.
         13    1    1    2    0    0  0.11731629031E+03 -0.28369397567E+03  0.10823876683E+04  0.11250815345E+04  0.10566000000E+00 0. -1.
        994    1    1    2    0    0 -0.11738160697E+03  0.28386196208E+03  0.41702796623E+03  0.54550693835E+03  0.17120000000E+03 0.  0.
        998    1    1    2    0    0  0.65316659419E-01 -0.16798641427E+00  0.58436178624E+00  0.61152710373E+00  0.10000000000E-02 0. -1.
</event>
<event>
 5    1  0.5722211E-009  0.3882719E+03  0.7957747E-01  0.3415913E+00
         13   -1    0    0    0    0  0.00000000000E+00  0.00000000000E+00  0.14999999963E+04  0.15000000000E+04  0.10566000000E+00 0.  1.
        994   -1    0    0    0    0 -0.00000000000E+00 -0.00000000000E+00  0.11368683772E-12  0.17120000000E+03  0.17120000000E+03 0.  0.
         13    1    1    2    0    0 -0.25372483465E+03  0.67242482599E+02  0.12288929863E+04  0.12566128386E+04  0.10566000000E+00 0.  1.
        994    1    1    2    0    0  0.25377144039E+03 -0.67377397653E+02  0.27071054888E+03  0.41416578679E+03  0.17120000000E+03 0.  0.
        998    1    1    2    0    0 -0.46605736268E-01  0.13491505375E+00  0.39646112990E+00  0.42137464791E+00  0.10000000000E-02 0. -1.
</event>
<event>
 5    1  0.5722211E-009  0.3883010E+03  0.7957747E-01  0.3415792E+00
         13   -1    0    0    0    0  0.00000000000E+00  0.00000000000E+00  0.14999999963E+04  0.15000000000E+04  0.10566000000E+00 0.  1.
        994   -1    0    0    0    0 -0.00000000000E+00 -0.00000000000E+00  0.11368683772E-12  0.17120000000E+03  0.17120000000E+03 0.  0.
         13    1    1    2    0    0  0.62373505801E+02 -0.22908648849E+03  0.12767763219E+04  0.12986642602E+04  0.10566000000E+00 0.  1.
        994    1    1    2    0    0 -0.62776811879E+02  0.23055636100E+03  0.21503618393E+03  0.36420758381E+03  0.17120000000E+03 0.  0.
        998    1    1    2    0    0  0.40330607806E+00 -0.14698725147E+01  0.81874904981E+01  0.83281560179E+01  0.10000000000E-02 0. -1.
</event>
<event>
 5    1  0.5722211E-009  0.3883010E+03  0.7957747E-01  0.3415792E+00
         13   -1    0    0    0    0  0.00000000000E+00  0.00000000000E+00  0.14999999963E+04  0.15000000000E+04  0.10566000000E+00 0. -1.
        994   -1    0    0    0    0 -0.00000000000E+00 -0.00000000000E+00  0.11368683772E-12  0.17120000000E+03  0.17120000000E+03 0.  0.
         13    1    1    2    0    0 -0.10551070905E+03  0.15787230350E+03  0.11460468709E+04  0.11616710444E+04  0.10566000000E+00 0. -1.
        994    1    1    2    0    0  0.12186592882E+03 -0.18234141974E+03  0.17613412828E+03  0.32929070607E+03  0.17120000000E+03 0.  0.
        998    1    1    2    0    0 -0.16355219771E+02  0.24469116234E+02  0.17781899708E+03  0.18023824951E+03  0.10000000000E-02 0. -1.
</event>
<event>
 5    1  0.5722211E-009  0.3882527E+03  0.7957747E-01  0.3415993E+00
         13   -1    0    0    0    0  0.00000000000E+00  0.00000000000E+00  0.14999999963E+04  0.15000000000E+04  0.10566000000E+00 0.  1.
        994   -1    0    0    0    0 -0.00000000000E+00 -0.00000000000E+00  0.11368683772E-12  0.17120000000E+03  0.17120000000E+03 0.  0.
         13    1    1    2    0    0 -0.33717906785E+03 -0.68446519912E+02  0.59544499836E+03  0.68769863103E+03  0.10566000000E+00 0.  1.
        994    1    1    2    0    0  0.33793795212E+03  0.69043685377E+02  0.90292342750E+03  0.98160544309E+03  0.17120000000E+03 0.  0.
        998    1    1    2    0    0 -0.75888426937E+00 -0.59716546507E+00  0.16315704201E+01  0.18959258854E+01  0.10000000000E-02 0.  1.
</event>
<event>
 5    1  0.5722211E-009  0.3883009E+03  0.7957747E-01  0.3415792E+00
         13   -1    0    0    0    0  0.00000000000E+00  0.00000000000E+00  0.14999999963E+04  0.15000000000E+04  0.10566000000E+00 0.  1.
        994   -1    0    0    0    0 -0.00000000000E+00 -0.00000000000E+00  0.11368683772E-12  0.17120000000E+03  0.17120000000E+03 0.  0.
         13    1    1    2    0    0 -0.23153272353E+03  0.33288509957E+02  0.12141284557E+04  0.12364560021E+04  0.10566000000E+00 0.  1.
        994    1    1    2    0    0  0.24246559125E+03 -0.34905506992E+02  0.22819751157E+03  0.37602061333E+03  0.17120000000E+03 0.  0.
        998    1    1    2    0    0 -0.10932867726E+02  0.16169970347E+01  0.57674028972E+02  0.58723384567E+02  0.10000000000E-02 0. -1.
</event>
<event>
 5    1  0.5722211E-009  0.3883010E+03  0.7957747E-01  0.3415792E+00
         13   -1    0    0    0    0  0.00000000000E+00  0.00000000000E+00  0.14999999963E+04  0.15000000000E+04  0.10566000000E+00 0.  1.
        994   -1    0    0    0    0 -0.00000000000E+00 -0.00000000000E+00  0.11368683772E-12  0.17120000000E+03  0.17120000000E+03 0.  0.
         13    1    1    2    0    0 -0.21689854376E+03 -0.94219164201E+02  0.12898342513E+04  0.13113331522E+04  0.10566000000E+00 0.  1.
        994    1    1    2    0    0  0.21694331152E+03  0.94237001842E+02  0.20990914344E+03  0.35960575833E+03  0.17120000000E+03 0.  0.
        998    1    1    2    0    0 -0.44767758225E-01 -0.17837640771E-01  0.25660157596E+00  0.26108945285E+00  0.10000000000E-02 0.  0.
</event>
<event>
 5    1  0.5722211E-009  0.3883009E+03  0.7957747E-01  0.3415792E+00
         13   -1    0    0    0    0  0.00000000000E+00  0.00000000000E+00  0.14999999963E+04  0.15000000000E+04  0.10566000000E+00 0. -1.
        994   -1    0    0    0    0 -0.00000000000E+00 -0.00000000000E+00  0.11368683772E-12  0.17120000000E+03  0.17120000000E+03 0.  0.
         13    1    1    2    0    0  0.15490862233E+03 -0.19967327347E+03  0.12536907009E+04  0.12789083165E+04  0.10566000000E+00 0. -1.
        994    1    1    2    0    0 -0.15492195956E+03  0.19969145837E+03  0.24618614877E+03  0.39216648499E+03  0.17120000000E+03 0.  0.
        998    1    1    2    0    0  0.13337225223E-01 -0.18184900837E-01  0.12314661446E+00  0.12519848581E+00  0.10000000000E-02 0.  1.
</event>
<event>
 5    1  0.5722211E-009  0.3882904E+03  0.7957747E-01  0.3415836E+00
         13   -1    0    0    0    0  0.00000000000E+00  0.00000000000E+00  0.14999999963E+04  0.15000000000E+04  0.10566000000E+00 0. -1.
        994   -1    0    0    0    0 -0.00000000000E+00 -0.00000000000E+00  0.11368683772E-12  0.17120000000E+03  0.17120000000E+03 0.  0.
         13    1    1    2    0    0  0.37195221024E+02  0.31985670015E+02  0.27682025854E+03  0.28113348120E+03  0.10566000000E+00 0. -1.
        994    1    1    2    0    0 -0.17432956875E+03 -0.15709743697E+03  0.20606170482E+03  0.35614781964E+03  0.17120000000E+03 0.  0.
        998    1    1    2    0    0  0.13713434773E+03  0.12511176696E+03  0.10171180329E+04  0.10339186992E+04  0.10000000000E-02 0. -1.
</event>
<event>
 5    1  0.5722211E-009  0.3883008E+03  0.7957747E-01  0.3415793E+00
         13   -1    0    0    0    0  0.00000000000E+00  0.00000000000E+00  0.14999999963E+04  0.15000000000E+04  0.10566000000E+00 0.  1.
        994   -1    0    0    0    0 -0.00000000000E+00 -0.00000000000E+00  0.11368683772E-12  0.17120000000E+03  0.17120000000E+03 0.  0.
         13    1    1    2    0    0 -0.43097995411E+02 -0.22430782472E+03  0.13065206387E+04  0.13263361671E+04  0.10566000000E+00 0.  1.
        994    1    1    2    0    0  0.43102133747E+02  0.22431398429E+03  0.19343862239E+03  0.34482241533E+03  0.17120000000E+03 0.  0.
        998    1    1    2    0    0 -0.41383356802E-02 -0.61595750651E-02  0.40735149288E-01  0.41417611891E-01  0.10000000000E-02 0. -1.
</event>
<event>
 5    1  0.5722211E-009  0.3883001E+03  0.7957747E-01  0.3415796E+00
         13   -1    0    0    0    0  0.00000000000E+00  0.00000000000E+00  0.14999999963E+04  0.15000000000E+04  0.10566000000E+00 0. -1.
        994   -1    0    0    0    0 -0.00000000000E+00 -0.00000000000E+00  0.11368683772E-12  0.17120000000E+03  0.17120000000E+03 0.  0.
         13    1    1    2    0    0 -0.17289266627E+03  0.12633158990E+03  0.12618301328E+04  0.12798698527E+04  0.10566000000E+00 0. -1.
        994    1    1    2    0    0  0.18037218020E+03 -0.13199727085E+03  0.18396295271E+03  0.33631712843E+03  0.17120000000E+03 0.  0.
        998    1    1    2    0    0 -0.74795139307E+01  0.56656809588E+01  0.54206910809E+02  0.55013018913E+02  0.10000000000E-02 0. -1.
</event>
<event>
 5    1  0.5722211E-009  0.3882805E+03  0.7957747E-01  0.3415877E+00
         13   -1    0    0    0    0  0.00000000000E+00  0.00000000000E+00  0.14999999963E+04  0.15000000000E+04  0.10566000000E+00 0.  1.
        994   -1    0    0    0    0 -0.00000000000E+00 -0.00000000000E+00  0.11368683772E-12  0.17120000000E+03  0.17120000000E+03 0.  0.
         13    1    1    2    0    0 -0.21697968281E+03  0.42183033192E+02  0.13092573268E+04  0.13277855060E+04  0.10566000000E+00 0.  1.
        994    1    1    2    0    0  0.21847221400E+03 -0.42017769005E+02  0.18203211918E+03  0.33457545280E+03  0.17120000000E+03 0.  0.
        998    1    1    2    0    0 -0.14925311909E+01 -0.16526418626E+00  0.87105503304E+01  0.88390412186E+01  0.10000000000E-02 0.  1.
</event>
<event>
 5    1  0.5722211E-009  0.3882824E+03  0.7957747E-01  0.3415869E+00
         13   -1    0    0    0    0  0.00000000000E+00  0.00000000000E+00  0.14999999963E+04  0.15000000000E+04  0.10566000000E+00 0. -1.
        994   -1    0    0    0    0 -0.00000000000E+00 -0.00000000000E+00  0.11368683772E-12  0.17120000000E+03  0.17120000000E+03 0.  0.
         13    1    1    2    0    0 -0.22571904837E+03 -0.18710364544E+03  0.10746586312E+04  0.11139335922E+04  0.10566000000E+00 0. -1.
        994    1    1    2    0    0  0.23280103310E+03  0.19232454580E+03  0.39584726958E+03  0.52648794170E+03  0.17120000000E+03 0.  0.
        998    1    1    2    0    0 -0.70819847235E+01 -0.52209003542E+01  0.29494095467E+02  0.30778466118E+02  0.10000000000E-02 0.  1.
</event>
<event>
 5    1  0.5722211E-009  0.3883009E+03  0.7957747E-01  0.3415792E+00
         13   -1    0    0    0    0  0.00000000000E+00  0.00000000000E+00  0.14999999963E+04  0.15000000000E+04  0.10566000000E+00 0. -1.
        994   -1    0    0    0    0 -0.00000000000E+00 -0.00000000000E+00  0.11368683772E-12  0.17120000000E+03  0.17120000000E+03 0.  0.
         13    1    1    2    0    0 -0.96572353284E+02  0.21498473995E+03  0.12871369681E+04  0.13085359161E+04  0.10566000000E+00 0. -1.
        994    1    1    2    0    0  0.96812058905E+02 -0.21554910103E+03  0.20941762611E+03  0.35916454701E+03  0.17120000000E+03 0.  0.
        998    1    1    2    0    0 -0.23970562119E+00  0.56436108255E+00  0.34454020846E+01  0.34995369323E+01  0.10000000000E-02 0.  1.
</event>
<event>
 5    1  0.5722211E-009  0.3883004E+03  0.7957747E-01  0.3415794E+00
         13   -1    0    0    0    0  0.00000000000E+00  0.00000000000E+00  0.14999999963E+04  0.15000000000E+04  0.10566000000E+00 0.  1.
        994   -1    0    0    0    0 -0.00000000000E+00 -0.00000000000E+00  0.11368683772E-12  0.17120000000E+03  0.17120000000E+03 0.  0.
         13    1    1    2    0    0 -0.23413913567E+03 -0.16200760167E+02  0.12918736642E+04  0.13130198685E+04  0.10566000000E+00 0.  1.
        994    1    1    2    0    0  0.23442730591E+03  0.16218648144E+02  0.20670316067E+03  0.35672796769E+03  0.17120000000E+03 0.  0.
        998    1    1    2    0    0 -0.28817023377E+00 -0.17887977839E-01  0.14231713887E+01  0.14521638561E+01  0.10000000000E-02 0.  1.
</event>
<event>
 5    1  0.5722211E-009  0.3866834E+03  0.7957747E-01  0.3422564E+00
         13   -1    0    0    0    0  0.00000000000E+00  0.00000000000E+00  0.14999999963E+04  0.15000000000E+04  0.10566000000E+00 0. -1.
        994   -1    0    0    0    0 -0.00000000000E+00 -0.00000000000E+00  0.11368683772E-12  0.17120000000E+03  0.17120000000E+03 0.  0.
         13    1    1    2    0    0 -0.14666952069E+02 -0.49739954382E+01  0.46088527799E+02  0.48621226561E+02  0.10566000000E+00 0. -1.
        994    1    1    2    0    0  0.16650038713E+03  0.11193533401E+03  0.14582663790E+03  0.30137476045E+03  0.17120000000E+03 0.  0.
        998    1    1    2    0    0 -0.15183343506E+03 -0.10696133857E+03  0.13080848306E+04  0.13212040130E+04  0.10000000000E-02 0. -1.
</event>
<event>
 5    1  0.5722211E-009  0.3883010E+03  0.7957747E-01  0.3415792E+00
         13   -1    0    0    0    0  0.00000000000E+00  0.00000000000E+00  0.14999999963E+04  0.15000000000E+04  0.10566000000E+00 0.  1.
        994   -1    0    0    0    0 -0.00000000000E+00 -0.00000000000E+00  0.11368683772E-12  0.17120000000E+03  0.17120000000E+03 0.  0.
         13    1    1    2    0    0  0.24122080559E+03  0.52201861847E+02  0.12665555341E+04  0.12903780235E+04  0.10566000000E+00 0.  1.
        994    1    1    2    0    0 -0.24136852670E+03 -0.52233098576E+02  0.23269426921E+03  0.38005673944E+03  0.17120000000E+03 0.  0.
        998    1    1    2    0    0  0.14772110990E+00  0.31236728754E-01  0.75019298060E+00  0.76523706632E+00  0.10000000000E-02 0.  1.
</event>
<event>
 5    1  0.5722211E-009  0.3883010E+03  0.7957747E-01  0.3415792E+00
         13   -1    0    0    0    0  0.00000000000E+00  0.00000000000E+00  0.14999999963E+04  0.15000000000E+04  0.10566000000E+00 0. -1.
        994   -1    0    0    0    0 -0.00000000000E+00 -0.00000000000E+00  0.11368683772E-12  0.17120000000E+03  0.17120000000E+03 0.  0.
         13    1    1    2    0    0  0.20739167801E+03 -0.86106219363E+02  0.12697394116E+04  0.12894432030E+04  0.10566000000E+00 0. -1.
        994    1    1    2    0    0 -0.21276169232E+03  0.88349762979E+02  0.19732253370E+03  0.34830854231E+03  0.17120000000E+03 0.  0.
        998    1    1    2    0    0  0.53700143059E+01 -0.22435436162E+01  0.32938050930E+02  0.33448254688E+02  0.10000000000E-02 0. -1.
</event>
<event>
 5    1  0.5722211E-009  0.3883010E+03  0.7957747E-01  0.3415792E+00
         13   -1    0    0    0    0  0.00000000000E+00  0.00000000000E+00  0.14999999963E+04  0.15000000000E+04  0.10566000000E+00 0.  1.
        994   -1    0    0    0    0 -0.00000000000E+00 -0.00000000000E+00  0.11368683772E-12  0.17120000000E+03  0.17120000000E+03 0.  0.
         13    1    1    2    0    0 -0.22048898602E+03  0.92450591220E+02  0.12773030949E+04  0.12994867111E+04  0.10566000000E+00 0.  1.
        994    1    1    2    0    0  0.22139469376E+03 -0.92823266572E+02  0.21743077112E+03  0.36635686083E+03  0.17120000000E+03 0.  0.
        998    1    1    2    0    0 -0.90570774599E+00  0.37267535180E+00  0.52661302323E+01  0.53564281067E+01  0.10000000000E-02 0. -1.
</event>
<event>
 5    1  0.5722211E-009  0.3883006E+03  0.7957747E-01  0.3415794E+00
         13   -1    0    0    0    0  0.00000000000E+00  0.00000000000E+00  0.14999999963E+04  0.15000000000E+04  0.10566000000E+00 0. -1.
        994   -1    0    0    0    0 -0.00000000000E+00 -0.00000000000E+00  0.11368683772E-12  0.17120000000E+03  0.17120000000E+03 0.  0.
         13    1    1    2    0    0  0.17896686225E+02 -0.43064568342E+02  0.16405266141E+03  0.17055244150E+03  0.10566000000E+00 0. -1.
        994    1    1    2    0    0 -0.11701153596E+03  0.28355791868E+03  0.41524704520E+03  0.54390839426E+03  0.17120000000E+03 0.  0.
        998    1    1    2    0    0  0.99114849736E+02 -0.24049335033E+03  0.92070028967E+03  0.95673916424E+03  0.10000000000E-02 0. -1.
</event>
<event>
 5    1  0.5722211E-009  0.3881016E+03  0.7957747E-01  0.3416624E+00
         13   -1    0    0    0    0  0.00000000000E+00  0.00000000000E+00  0.14999999963E+04  0.15000000000E+04  0.10566000000E+00 0. -1.
        994   -1    0    0    0    0 -0.00000000000E+00 -0.00000000000E+00  0.11368683772E-12  0.17120000000E+03  0.17120000000E+03 0.  0.
         13    1    1    2    0    0  0.18945206659E+03  0.10832172771E+03  0.12218737565E+04  0.12412095594E+04  0.10566000000E+00 0. -1.
        994    1    1    2    0    0 -0.19795855292E+03 -0.11486926976E+03  0.19459743479E+03  0.34577469462E+03  0.17120000000E+03 0.  0.
        998    1    1    2    0    0  0.85064863350E+01  0.65475420555E+01  0.83528804948E+02  0.84215745996E+02  0.10000000000E-02 0.  1.
</event>
<event>
 5    1  0.5722211E-009  0.3883010E+03  0.7957747E-01  0.3415792E+00
         13   -1    0    0    0    0  0.00000000000E+00  0.00000000000E+00  0.14999999963E+04  0.15000000000E+04  0.10566000000E+00 0.  1.
        994   -1    0    0    0    0 -0.00000000000E+00 -0.00000000000E+00  0.11368683772E-12  0.17120000000E+03  0.17120000000E+03 0.  0.
         13    1    1    2    0    0 -0.13399720487E+03  0.17306343672E+03  0.13200839570E+04  0.13381060753E+04  0.10566000000E+00 0.  1.
        994    1    1    2    0    0  0.13435456910E+03 -0.17352522551E+03  0.17639566815E+03  0.32952545557E+03  0.17120000000E+03 0.  0.
        998    1    1    2    0    0 -0.35736423734E+00  0.46178878682E+00  0.35203711136E+01  0.35684691199E+01  0.10000000000E-02 0.  0.
</event>
<event>
 5    1  0.5722211E-009  0.3883010E+03  0.7957747E-01  0.3415792E+00
         13   -1    0    0    0    0  0.00000000000E+00  0.00000000000E+00  0.14999999963E+04  0.15000000000E+04  0.10566000000E+00 0. -1.
        994   -1    0    0    0    0 -0.00000000000E+00 -0.00000000000E+00  0.11368683772E-12  0.17120000000E+03  0.17120000000E+03 0.  0.
         13    1    1    2    0    0  0.18308572659E+03  0.91362978748E+02  0.12219561623E+04  0.12389691081E+04  0.10566000000E+00 0. -1.
        994    1    1    2    0    0 -0.19787067821E+03 -0.98703099448E+02  0.17947341106E+03  0.33228790591E+03  0.17120000000E+03 0.  0.
        998    1    1    2    0    0  0.14784951625E+02  0.73401206994E+01  0.98570422928E+02  0.99942985965E+02  0.10000000000E-02 0. -1.
</event>
<event>
 5    1  0.5722211E-009  0.3882974E+03  0.7957747E-01  0.3415807E+00
         13   -1    0    0    0    0  0.00000000000E+00  0.00000000000E+00  0.14999999963E+04  0.15000000000E+04  0.10566000000E+00 0. -1.
        994   -1    0    0    0    0 -0.00000000000E+00 -0.00000000000E+00  0.11368683772E-12  0.17120000000E+03  0.17120000000E+03 0.  0.
         13    1    1    2    0    0  0.26945779790E+02  0.23494220527E+03  0.12893547342E+04  0.13108621425E+04  0.10566000000E+00 0. -1.
        994    1    1    2    0    0 -0.26915093715E+02 -0.23506872490E+03  0.21007680589E+03  0.35975468318E+03  0.17120000000E+03 0.  0.
        998    1    1    2    0    0 -0.30686075267E-01  0.12651962849E+00  0.56845615678E+00  0.58317429109E+00  0.10000000000E-02 0.  1.
</event>
<event>
 5    1  0.5722211E-009  0.3882709E+03  0.7957747E-01  0.3415917E+00
         13   -1    0    0    0    0  0.00000000000E+00  0.00000000000E+00  0.14999999963E+04  0.15000000000E+04  0.10566000000E+00 0.  1.
        994   -1    0    0    0    0 -0.00000000000E+00 -0.00000000000E+00  0.11368683772E-12  0.17120000000E+03  0.17120000000E+03 0.  0.
         13    1    1    2    0    0 -0.22665367599E+03  0.14820562336E+03  0.12068361770E+04  0.12368469448E+04  0.10566000000E+00 0.  1.
        994    1    1    2    0    0  0.22666121329E+03 -0.14826866281E+03  0.29303509366E+03  0.43420952097E+03  0.17120000000E+03 0.  0.
        998    1    1    2    0    0 -0.75373039498E-02  0.63039457977E-01  0.12872559884E+00  0.14353419108E+00  0.10000000000E-02 0.  1.
</event>
<event>
 5    1  0.5722211E-009  0.3882695E+03  0.7957747E-01  0.3415923E+00
         13   -1    0    0    0    0  0.00000000000E+00  0.00000000000E+00  0.14999999963E+04  0.15000000000E+04  0.10566000000E+00 0.  1.
        994   -1    0    0    0    0 -0.00000000000E+00 -0.00000000000E+00  0.11368683772E-12  0.17120000000E+03  0.17120000000E+03 0.  0.
         13    1    1    2    0    0 -0.11525184597E+03  0.51183161342E+02  0.56745018300E+03  0.58129375135E+03  0.10566000000E+00 0.  1.
        994    1    1    2    0    0  0.24759062669E+03 -0.10235197155E+03  0.28495288186E+03  0.42694804061E+03  0.17120000000E+03 0.  0.
        998    1    1    2    0    0 -0.13233878072E+03  0.51168810212E+02  0.64759693142E+03  0.66295820804E+03  0.10000000000E-02 0.  1.
</event>
<event>
 5    1  0.5722211E-009  0.3883010E+03  0.7957747E-01  0.3415792E+00
         13   -1    0    0    0    0  0.00000000000E+00  0.00000000000E+00  0.14999999963E+04  0.15000000000E+04  0.10566000000E+00 0. -1.
        994   -1    0    0    0    0 -0.00000000000E+00 -0.00000000000E+00  0.11368683772E-12  0.17120000000E+03  0.17120000000E+03 0.  0.
         13    1    1    2    0    0  0.21253765791E+03 -0.15952262477E+03  0.12174717195E+04  0.12461368797E+04  0.10566000000E+00 0. -1.
        994    1    1    2    0    0 -0.21292693170E+03  0.15980551390E+03  0.28032763838E+03  0.42281048397E+03  0.17120000000E+03 0.  0.
        998    1    1    2    0    0  0.38927379335E+00 -0.28288912768E+00  0.22006383575E+01  0.22526363500E+01  0.10000000000E-02 0. -1.
</event>
<event>
 5    1  0.5722211E-009  0.3877700E+03  0.7957747E-01  0.3418009E+00
         13   -1    0    0    0    0  0.00000000000E+00  0.00000000000E+00  0.14999999963E+04  0.15000000000E+04  0.10566000000E+00 0.  1.
        994   -1    0    0    0    0 -0.00000000000E+00 -0.00000000000E+00  0.11368683772E-12  0.17120000000E+03  0.17120000000E+03 0.  0.
         13    1    1    2    0    0  0.10966079210E+03 -0.77860516655E+01  0.51301743189E+03  0.52466466292E+03  0.10566000000E+00 0.  1.
        994    1    1    2    0    0 -0.25059257907E+03  0.48415438502E+02  0.25308026560E+03  0.39812027856E+03  0.17120000000E+03 0.  0.
        998    1    1    2    0    0  0.14093178696E+03 -0.40629386837E+02  0.73390229879E+03  0.74841505852E+03  0.10000000000E-02 0.  1.
</event>
<event>
 5    1  0.5722211E-009  0.3883010E+03  0.7957747E-01  0.3415792E+00
         13   -1    0    0    0    0  0.00000000000E+00  0.00000000000E+00  0.14999999963E+04  0.15000000000E+04  0.10566000000E+00 0. -1.
        994   -1    0    0    0    0 -0.00000000000E+00 -0.00000000000E+00  0.11368683772E-12  0.17120000000E+03  0.17120000000E+03 0.  0.
         13    1    1    2    0    0  0.27199346204E+03  0.32068729616E+02  0.11907645947E+04  0.12218548106E+04  0.10566000000E+00 0. -1.
        994    1    1    2    0    0 -0.27303878526E+03 -0.32192281038E+02  0.30465927700E+03  0.44464956570E+03  0.17120000000E+03 0.  0.
        998    1    1    2    0    0  0.10453232223E+01  0.12355142234E+00  0.45761245360E+01  0.46956237458E+01  0.10000000000E-02 0.  0.
</event>
<event>
 5    1  0.5722211E-009  0.3883010E+03  0.7957747E-01  0.3415792E+00
         13   -1    0    0    0    0  0.00000000000E+00  0.00000000000E+00  0.14999999963E+04  0.15000000000E+04  0.10566000000E+00 0.  1.
        994   -1    0    0    0    0 -0.00000000000E+00 -0.00000000000E+00  0.11368683772E-12  0.17120000000E+03  0.17120000000E+03 0.  0.
         13    1    1    2    0    0 -0.16652635319E+03 -0.52641171418E+02  0.94699453710E+03  0.96296458071E+03  0.10566000000E+00 0.  1.
        994    1    1    2    0    0  0.22651129670E+03  0.71569794673E+02  0.21206001403E+03  0.36153629499E+03  0.17120000000E+03 0.  0.
        998    1    1    2    0    0 -0.59984943510E+02 -0.18928623255E+02  0.34094544515E+03  0.34669912430E+03  0.10000000000E-02 0.  1.
</event>
<event>
 5    1  0.5722211E-009  0.3867301E+03  0.7957747E-01  0.3422368E+00
         13   -1    0    0    0    0  0.00000000000E+00  0.00000000000E+00  0.14999999963E+04  0.15000000000E+04  0.10566000000E+00 0. -1.
        994   -1    0    0    0    0 -0.00000000000E+00 -0.00000000000E+00  0.11368683772E-12  0.17120000000E+03  0.17120000000E+03 0.  0.
         13    1    1    2    0    0  0.31132977730E+01  0.10094782189E+02  0.58947810216E+02  0.59886999789E+02  0.10566000000E+00 0. -1.
        994    1    1    2    0    0 -0.94277189292E+02 -0.16021288286E+02  0.31271596330E+02  0.19857548398E+03  0.17120000000E+03 0.  0.
        998    1    1    2    0    0  0.91163891519E+02  0.59265060967E+01  0.14097805897E+04  0.14127375162E+04  0.10000000000E-02 0. -1.
</event>
<event>
 5    1  0.5722211E-009  0.3883010E+03  0.7957747E-01  0.3415792E+00
         13   -1    0    0    0    0  0.00000000000E+00  0.00000000000E+00  0.14999999963E+04  0.15000000000E+04  0.10566000000E+00 0.  1.
        994   -1    0    0    0    0 -0.00000000000E+00 -0.00000000000E+00  0.11368683772E-12  0.17120000000E+03  0.17120000000E+03 0.  0.
         13    1    1    2    0    0 -0.15983256965E+02 -0.22659922821E+03  0.13083005337E+04  0.13278753603E+04  0.10566000000E+00 0.  1.
        994    1    1    2    0    0  0.15991357865E+02  0.22668999546E+03  0.19115736354E+03  0.34277493375E+03  0.17120000000E+03 0.  0.
        998    1    1    2    0    0 -0.81008994744E-02 -0.90767254826E-01  0.54209899863E+00  0.54970596089E+00  0.10000000000E-02 0.  1.
</event>
<event>
 5    1  0.5722211E-009  0.3882884E+03  0.7957747E-01  0.3415844E+00
         13   -1    0    0    0    0  0.00000000000E+00  0.00000000000E+00  0.14999999963E+04  0.15000000000E+04  0.10566000000E+00 0.  1.
        994   -1    0    0    0    0 -0.00000000000E+00 -0.00000000000E+00  0.11368683772E-12  0.17120000000E+03  0.17120000000E+03 0.  0.
         13    1    1    2    0    0  0.13530168694E+03 -0.20929749972E+03  0.12477344364E+04  0.12723809276E+04  0.10566000000E+00 0.  1.
        994    1    1    2    0    0 -0.13622734068E+03  0.21123363946E+03  0.24290862287E+03  0.38921918998E+03  0.17120000000E+03 0.  0.
        998    1    1    2    0    0  0.92565374101E+00 -0.19361397318E+01  0.93569369924E+01  0.95998824362E+01  0.10000000000E-02 0. -1.
</event>
<event>
 5    1  0.5722211E-009  0.3883008E+03  0.7957747E-01  0.3415792E+00
         13   -1    0    0    0    0  0.00000000000E+00  0.00000000000E+00  0.14999999963E+04  0.15000000000E+04  0.10566000000E+00 0.  1.
        994   -1    0    0    0    0 -0.00000000000E+00 -0.00000000000E+00  0.11368683772E-12  0.17120000000E+03  0.17120000000E+03 0.  0.
         13    1    1    2    0    0 -0.13768767680E+03 -0.17575828600E+03  0.13161542764E+04  0.13349572884E+04  0.10566000000E+00 0.  1.
        994    1    1    2    0    0  0.13771002930E+03  0.17579668440E+03  0.18358515874E+03  0.33597838758E+03  0.17120000000E+03 0.  0.
        998    1    1    2    0    0 -0.22352500206E-01 -0.38398400736E-01  0.26056112998E+00  0.26432399419E+00  0.10000000000E-02 0.  1.
</event>
<event>
 5    1  0.5722211E-009  0.3882730E+03  0.7957747E-01  0.3415909E+00
         13   -1    0    0    0    0  0.00000000000E+00  0.00000000000E+00  0.14999999963E+04  0.15000000000E+04  0.10566000000E+00 0.  1.
        994   -1    0    0    0    0 -0.00000000000E+00 -0.00000000000E+00  0.11368683772E-12  0.17120000000E+03  0.17120000000E+03 0.  0.
         13    1    1    2    0    0  0.61206426867E+02  0.22918429286E+03  0.12378853184E+04  0.12604093539E+04  0.10566000000E+00 0.  1.
        994    1    1    2    0    0 -0.64048914525E+02 -0.23566684012E+03  0.22656396783E+03  0.37454211312E+03  0.17120000000E+03 0.  0.
        998    1    1    2    0    0  0.28424876580E+01  0.64825472637E+01  0.35550710084E+02  0.36248532985E+02  0.10000000000E-02 0. -1.
</event>
<event>
 5    1  0.5722211E-009  0.3882896E+03  0.7957747E-01  0.3415839E+00
         13   -1    0    0    0    0  0.00000000000E+00  0.00000000000E+00  0.14999999963E+04  0.15000000000E+04  0.10566000000E+00 0. -1.
        994   -1    0    0    0    0 -0.00000000000E+00 -0.00000000000E+00  0.11368683772E-12  0.17120000000E+03  0.17120000000E+03 0.  0.
         13    1    1    2    0    0  0.55886117654E+02 -0.21726855840E+03  0.12668526807E+04  0.12865631000E+04  0.10566000000E+00 0. -1.
        994    1    1    2    0    0 -0.56872326192E+02  0.22311030054E+03  0.19707520076E+03  0.34808151696E+03  0.17120000000E+03 0.  0.
        998    1    1    2    0    0  0.98620853846E+00 -0.58417421372E+01  0.36072114841E+02  0.36555383031E+02  0.10000000000E-02 0. -1.
</event>
<event>
 5    1  0.5722211E-009  0.3883009E+03  0.7957747E-01  0.3415792E+00
         13   -1    0    0    0    0  0.00000000000E+00  0.00000000000E+00  0.14999999963E+04  0.15000000000E+04  0.10566000000E+00 0.  1.
        994   -1    0    0    0    0 -0.00000000000E+00 -0.00000000000E+00  0.11368683772E-12  0.17120000000E+03  0.17120000000E+03 0.  0.
         13    1    1    2    0    0 -0.12115882113E+03 -0.26098876836E+03  0.11486020613E+04  0.11840951412E+04  0.10566000000E+00 0.  1.
        994    1    1    2    0    0  0.12156664005E+03  0.26185727700E+03  0.34765231979E+03  0.48323830244E+03  0.17120000000E+03 0.  0.
        998    1    1    2    0    0 -0.40781892215E+00 -0.86850863678E+00  0.37456152017E+01  0.38665563186E+01  0.10000000000E-02 0.  1.
</event>
<event>
 5    1  0.5722211E-009  0.3882589E+03  0.7957747E-01  0.3415967E+00
         13   -1    0    0    0    0  0.00000000000E+00  0.00000000000E+00  0.14999999963E+04  0.15000000000E+04  0.10566000000E+00 0.  1.
        994   -1    0    0    0    0 -0.00000000000E+00 -0.00000000000E+00  0.11368683772E-12  0.17120000000E+03  0.17120000000E+03 0.  0.
         13    1    1    2    0    0 -0.11204288454E+03  0.15059527321E+03  0.62258357547E+03  0.65026368797E+03  0.10566000000E+00 0.  1.
        994    1    1    2    0    0  0.18948022064E+03 -0.24903695426E+03  0.44260947828E+03  0.56844942507E+03  0.17120000000E+03 0.  0.
        998    1    1    2    0    0 -0.77437336107E+02  0.98441681053E+02  0.43480694254E+03  0.45248688696E+03  0.10000000000E-02 0.  1.
</event>
<event>
 5    1  0.5722211E-009  0.3883003E+03  0.7957747E-01  0.3415795E+00
         13   -1    0    0    0    0  0.00000000000E+00  0.00000000000E+00  0.14999999963E+04  0.15000000000E+04  0.10566000000E+00 0. -1.
        994   -1    0    0    0    0 -0.00000000000E+00 -0.00000000000E+00  0.11368683772E-12  0.17120000000E+03  0.17120000000E+03 0.  0.
         13    1    1    2    0    0 -0.58097418330E+01 -0.26593836524E+03  0.12179535644E+04  0.12466626903E+04  0.10566000000E+00 0. -1.
        994    1    1    2    0    0  0.58332467513E+01  0.26627532795E+03  0.28063591207E+03  0.42308690855E+03  0.17120000000E+03 0.  0.
        998    1    1    2    0    0 -0.23504918264E-01 -0.33696270721E+00  0.14105198263E+01  0.14504011609E+01  0.10000000000E-02 0. -1.
</event>
<event>
 5    1  0.5722211E-009  0.3871835E+03  0.7957747E-01  0.3420464E+00
         13   -1    0    0    0    0  0.00000000000E+00  0.00000000000E+00  0.14999999963E+04  0.15000000000E+04  0.10566000000E+00 0. -1.
        994   -1    0    0    0    0 -0.00000000000E+00 -0.00000000000E+00  0.11368683772E-12  0.17120000000E+03  0.17120000000E+03 0.  0.
         13    1    1    2    0    0 -0.71816235415E+01  0.75807469259E+01  0.58747881111E+02  0.59668820499E+02  0.10566000000E+00 0. -1.
        994    1    1    2    0    0  0.22933453441E+02 -0.67682969870E+02  0.17407290686E+02  0.18633137542E+03  0.17120000000E+03 0.  0.
        998    1    1    2    0    0 -0.15751829899E+02  0.60102222944E+02  0.14238448245E+04  0.14251998041E+04  0.10000000000E-02 0. -1.
</event>
<event>
 5    1  0.5722211E-009  0.3883009E+03  0.7957747E-01  0.3415792E+00
         13   -1    0    0    0    0  0.00000000000E+00  0.00000000000E+00  0.14999999963E+04  0.15000000000E+04  0.10566000000E+00 0. -1.
        994   -1    0    0    0    0 -0.00000000000E+00 -0.00000000000E+00  0.11368683772E-12  0.17120000000E+03  0.17120000000E+03 0.  0.
         13    1    1    2    0    0  0.12771475880E+03 -0.19381926413E+03  0.12988043954E+04  0.13193823689E+04  0.10566000000E+00 0. -1.
        994    1    1    2    0    0 -0.12773650157E+03  0.19386327023E+03  0.20091696748E+03  0.35153470554E+03  0.17120000000E+03 0.  0.
        998    1    1    2    0    0  0.21742771540E-01 -0.44006101644E-01  0.27863339234E+00  0.28292552452E+00  0.10000000000E-02 0. -1.
</event>
<event>
 5    1  0.5722211E-009  0.3883005E+03  0.7957747E-01  0.3415794E+00
         13   -1    0    0    0    0  0.00000000000E+00  0.00000000000E+00  0.14999999963E+04  0.15000000000E+04  0.10566000000E+00 0.  1.
        994   -1    0    0    0    0 -0.00000000000E+00 -0.00000000000E+00  0.11368683772E-12  0.17120000000E+03  0.17120000000E+03 0.  0.
         13    1    1    2    0    0 -0.26009234541E+03  0.26672633358E+01  0.12350999935E+04  0.12621914068E+04  0.10566000000E+00 0.  1.
        994    1    1    2    0    0  0.26017040585E+03 -0.26818737855E+01  0.26454033026E+03  0.40864025605E+03  0.17120000000E+03 0.  0.
        998    1    1    2    0    0 -0.78060442916E-01  0.14610449671E-01  0.35967253300E+00  0.36833711323E+00  0.10000000000E-02 0.  1.
</event>
<event>
 5    1  0.5722211E-009  0.3883010E+03  0.7957747E-01  0.3415792E+00
         13   -1    0    0    0    0  0.00000000000E+00  0.00000000000E+00  0.14999999963E+04  0.15000000000E+04  0.10566000000E+00 0. -1.
        994   -1    0    0    0    0 -0.00000000000E+00 -0.00000000000E+00  0.11368683772E-12  0.17120000000E+03  0.17120000000E+03 0.  0.
         13    1    1    2    0    0 -0.17703029056E+03 -0.22020552906E+03  0.11656385611E+04  0.11993929570E+04  0.10566000000E+00 0. -1.
        994    1    1    2    0    0  0.17760695483E+03  0.22092262026E+03  0.33057566852E+03  0.46791104621E+03  0.17120000000E+03 0.  0.
        998    1    1    2    0    0 -0.57666427255E+00 -0.71709120582E+00  0.37857666209E+01  0.38959968414E+01  0.10000000000E-02 0.  1.
</event>
<event>
 5    1  0.5722211E-009  0.3883008E+03  0.7957747E-01  0.3415793E+00
         13   -1    0    0    0    0  0.00000000000E+00  0.00000000000E+00  0.14999999963E+04  0.15000000000E+04  0.10566000000E+00 0. -1.
        994   -1    0    0    0    0 -0.00000000000E+00 -0.00000000000E+00  0.11368683772E-12  0.17120000000E+03  0.17120000000E+03 0.  0.
         13    1    1    2    0    0  0.20435384833E+03 -0.11183283701E+03  0.76261908385E+03  0.79740513980E+03  0.10566000000E+00 0. -1.
        994    1    1    2    0    0 -0.27815970350E+03  0.15237327388E+03  0.46276731966E+03  0.58656071074E+03  0.17120000000E+03 0.  0.
        998    1    1    2    0    0  0.73805855171E+02 -0.40540436869E+02  0.27461359278E+03  0.28723414946E+03  0.10000000000E-02 0. -1.
</event>
<event>
 5    1  0.5722211E-009  0.3882695E+03  0.7957747E-01  0.3415923E+00
         13   -1    0    0    0    0  0.00000000000E+00  0.00000000000E+00  0.14999999963E+04  0.15000000000E+04  0.10566000000E+00 0. -1.
        994   -1    0    0    0    0 -0.00000000000E+00 -0.00000000000E+00  0.11368683772E-12  0.17120000000E+03  0.17120000000E+03 0.  0.
         13    1    1    2    0    0 -0.29884969835E+03  0.59051523689E+01  0.10773866791E+04  0.11180823228E+04  0.10566000000E+00 0. -1.
        994    1    1    2    0    0  0.30383819144E+03 -0.68730574472E+01  0.40365473500E+03  0.53348989736E+03  0.17120000000E+03 0.  0.
        998    1    1    2    0    0 -0.49884930869E+01  0.96790507832E+00  0.18958582139E+02  0.19627779835E+02  0.10000000000E-02 0.  1.
</event>
<event>
 5    1  0.5722211E-009  0.3879447E+03  0.7957747E-01  0.3417279E+00
         13   -1    0    0    0    0  0.00000000000E+00  0.00000000000E+00  0.14999999963E+04  0.15000000000E+04  0.10566000000E+00 0.  1.
        994   -1    0    0    0    0 -0.00000000000E+00 -0.00000000000E+00  0.11368683772E-12  0.17120000000E+03  0.17120000000E+03 0.  0.
         13    1    1    2    0    0  0.23510818757E+02  0.10754936257E+03  0.57816983054E+03  0.58855754867E+03  0.10566000000E+00 0.  1.
        994    1    1    2    0    0 -0.73116077869E+02 -0.22501909005E+03  0.21056371000E+03  0.36003620332E+03  0.17120000000E+03 0.  0.
        998    1    1    2    0    0  0.49605259112E+02  0.11746972748E+03  0.71126645574E+03  0.72260624801E+03  0.10000000000E-02 0.  1.
</event>
<event>
 5    1  0.5722211E-009  0.3862224E+03  0.7957747E-01  0.3424504E+00
         13   -1    0    0    0    0  0.00000000000E+00  0.00000000000E+00  0.14999999963E+04  0.15000000000E+04  0.10566000000E+00 0.  1.
        994   -1    0    0    0    0 -0.00000000000E+00 -0.00000000000E+00  0.11368683772E-12  0.17120000000E+03  0.17120000000E+03 0.  0.
         13    1    1    2    0    0 -0.14254191494E+02 -0.53747614107E+02  0.28675259764E+03  0.29209425091E+03  0.10566000000E+00 0.  1.
        994    1    1    2    0    0 -0.46224449963E+01  0.17904938939E+03  0.11427504010E+03  0.27285211311E+03  0.17120000000E+03 0.  0.
        998    1    1    2    0    0  0.18876636490E+02 -0.12530177528E+03  0.10989723585E+04  0.11062536360E+04  0.10000000000E-02 0.  1.
</event>
<event>
 5    1  0.5722211E-009  0.3883009E+03  0.7957747E-01  0.3415792E+00
         13   -1    0    0    0    0  0.00000000000E+00  0.00000000000E+00  0.14999999963E+04  0.15000000000E+04  0.10566000000E+00 0. -1.
        994   -1    0    0    0    0 -0.00000000000E+00 -0.00000000000E+00  0.11368683772E-12  0.17120000000E+03  0.17120000000E+03 0.  0.
         13    1    1    2    0    0  0.82477512755E+02  0.22932668960E+03  0.12745338802E+04  0.12976247121E+04  0.10566000000E+00 0. -1.
        994    1    1    2    0    0 -0.82480507868E+02 -0.22933498964E+03  0.22541219679E+03  0.37352064215E+03  0.17120000000E+03 0.  0.
        998    1    1    2    0    0  0.29951128288E-02  0.83000426642E-02  0.53919335987E-01  0.54645733616E-01  0.10000000000E-02 0. -1.
</event>
<event>
 5    1  0.5722211E-009  0.3882332E+03  0.7957747E-01  0.3416074E+00
         13   -1    0    0    0    0  0.00000000000E+00  0.00000000000E+00  0.14999999963E+04  0.15000000000E+04  0.10566000000E+00 0.  1.
        994   -1    0    0    0    0 -0.00000000000E+00 -0.00000000000E+00  0.11368683772E-12  0.17120000000E+03  0.17120000000E+03 0.  0.
         13    1    1    2    0    0  0.19414568452E+03  0.14850326341E+03  0.74130772041E+03  0.78056576505E+03  0.10566000000E+00 0.  1.
        994    1    1    2    0    0 -0.25583173600E+03 -0.19901233166E+03  0.50024735683E+03  0.62017146283E+03  0.17120000000E+03 0.  0.
        998    1    1    2    0    0  0.61686051487E+02  0.50509068248E+02  0.25844491904E+03  0.27046277212E+03  0.10000000000E-02 0.  1.
</event>
<event>
 5    1  0.5722211E-009  0.3883009E+03  0.7957747E-01  0.3415792E+00
         13   -1    0    0    0    0  0.00000000000E+00  0.00000000000E+00  0.14999999963E+04  0.15000000000E+04  0.10566000000E+00 0.  1.
        994   -1    0    0    0    0 -0.00000000000E+00 -0.00000000000E+00  0.11368683772E-12  0.17120000000E+03  0.17120000000E+03 0.  0.
         13    1    1    2    0    0  0.21688781413E+03 -0.17754008178E+03  0.11782713501E+04  0.12111499454E+04  0.10566000000E+00 0.  1.
        994    1    1    2    0    0 -0.21699854023E+03  0.17763645816E+03  0.32112080111E+03  0.45942473446E+03  0.17120000000E+03 0.  0.
        998    1    1    2    0    0  0.11072609943E+00 -0.96376383931E-01  0.60784509542E+00  0.62532018719E+00  0.10000000000E-02 0. -1.
</event>
<event>
 5    1  0.5722211E-009  0.3883010E+03  0.7957747E-01  0.3415792E+00
         13   -1    0    0    0    0  0.00000000000E+00  0.00000000000E+00  0.14999999963E+04  0.15000000000E+04  0.10566000000E+00 0. -1.
        994   -1    0    0    0    0 -0.00000000000E+00 -0.00000000000E+00  0.11368683772E-12  0.17120000000E+03  0.17120000000E+03 0.  0.
         13    1    1    2    0    0 -0.26230490416E+03 -0.11482073419E+03  0.11292954720E+04  0.11650304451E+04  0.10566000000E+00 0. -1.
        994    1    1    2    0    0  0.26618796946E+03  0.11652431391E+03  0.35400716906E+03  0.48894219143E+03  0.17120000000E+03 0.  0.
        998    1    1    2    0    0 -0.38830653016E+01 -0.17035797237E+01  0.16697355178E+02  0.17227363435E+02  0.10000000000E-02 0.  1.
</event>
<event>
 5    1  0.5722211E-009  0.3882627E+03  0.7957747E-01  0.3415951E+00
         13   -1    0    0    0    0  0.00000000000E+00  0.00000000000E+00  0.14999999963E+04  0.15000000000E+04  0.10566000000E+00 0.  1.
        994   -1    0    0    0    0 -0.00000000000E+00 -0.00000000000E+00  0.11368683772E-12  0.17120000000E+03  0.17120000000E+03 0.  0.
         13    1    1    2    0    0 -0.66568548484E+02  0.16214974633E+03  0.70705539743E+03  0.72845813749E+03  0.10566000000E+00 0.  1.
        994    1    1    2    0    0  0.10780406062E+03 -0.26227058290E+03  0.33098044947E+03  0.46825748480E+03  0.17120000000E+03 0.  0.
        998    1    1    2    0    0 -0.41235512132E+02  0.10012083657E+03  0.46196414938E+03  0.47448437770E+03  0.10000000000E-02 0.  1.
</event>
<event>
 5    1  0.5722211E-009  0.3883009E+03  0.7957747E-01  0.3415792E+00
         13   -1    0    0    0    0  0.00000000000E+00  0.00000000000E+00  0.14999999963E+04  0.15000000000E+04  0.10566000000E+00 0. -1.
        994   -1    0    0    0    0 -0.00000000000E+00 -0.00000000000E+00  0.11368683772E-12  0.17120000000E+03  0.17120000000E+03 0.  0.
         13    1    1    2    0    0  0.25041142059E+03  0.88996880833E+02  0.12123100641E+04  0.12410971063E+04  0.10566000000E+00 0. -1.
        994    1    1    2    0    0 -0.25152853118E+03 -0.89412546751E+02  0.28227517738E+03  0.42455850160E+03  0.17120000000E+03 0.  0.
        998    1    1    2    0    0  0.11171105941E+01  0.41566591863E+00  0.54147547568E+01  0.55443921499E+01  0.10000000000E-02 0.  1.
</event>
<event>
 5    1  0.5722211E-009  0.3883010E+03  0.7957747E-01  0.3415792E+00
         13   -1    0    0    0    0  0.00000000000E+00  0.00000000000E+00  0.14999999963E+04  0.15000000000E+04  0.10566000000E+00 0. -1.
        994   -1    0    0    0    0 -0.00000000000E+00 -0.00000000000E+00  0.11368683772E-12  0.17120000000E+03  0.17120000000E+03 0.  0.
         13    1    1    2    0    0 -0.14392897166E+03  0.17227745569E+03  0.13031410901E+04  0.13223357299E+04  0.10566000000E+00 0. -1.
        994    1    1    2    0    0  0.14484487686E+03 -0.17337431343E+03  0.18856479065E+03  0.34044795664E+03  0.17120000000E+03 0.  0.
        998    1    1    2    0    0 -0.91590520350E+00  0.10968577419E+01  0.82941154845E+01  0.84163134399E+01  0.10000000000E-02 0.  0.
</event>
<event>
 5    1  0.5722211E-009  0.3882880E+03  0.7957747E-01  0.3415846E+00
         13   -1    0    0    0    0  0.00000000000E+00  0.00000000000E+00  0.14999999963E+04  0.15000000000E+04  0.10566000000E+00 0. -1.
        994   -1    0    0    0    0 -0.00000000000E+00 -0.00000000000E+00  0.11368683772E-12  0.17120000000E+03  0.17120000000E+03 0.  0.
         13    1    1    2    0    0 -0.16824443519E+03  0.14063185866E+03  0.12814598192E+04  0.13000856852E+04  0.10566000000E+00 0. -1.
        994    1    1    2    0    0  0.17306065444E+03 -0.14395855383E+03  0.18702519922E+03  0.33906034932E+03  0.17120000000E+03 0.  0.
        998    1    1    2    0    0 -0.48162192463E+01  0.33266951774E+01  0.31514977878E+02  0.32053965438E+02  0.10000000000E-02 0.  1.
</event>
<event>
 5    1  0.5722211E-009  0.3883009E+03  0.7957747E-01  0.3415792E+00
         13   -1    0    0    0    0  0.00000000000E+00  0.00000000000E+00  0.14999999963E+04  0.15000000000E+04  0.10566000000E+00 0. -1.
        994   -1    0    0    0    0 -0.00000000000E+00 -0.00000000000E+00  0.11368683772E-12  0.17120000000E+03  0.17120000000E+03 0.  0.
         13    1    1    2    0    0 -0.22129833657E+03  0.55666145449E+01  0.13184644618E+04  0.13369190286E+04  0.10566000000E+00 0. -1.
        994    1    1    2    0    0  0.22149757063E+03 -0.55745155755E+01  0.18030391938E+03  0.33303332020E+03  0.17120000000E+03 0.  0.
        998    1    1    2    0    0 -0.19923406562E+00  0.79010305640E-02  0.12316151107E+01  0.12476511612E+01  0.10000000000E-02 0.  1.
</event>
<event>
 5    1  0.5722211E-009  0.3817666E+03  0.7957747E-01  0.3443502E+00
         13   -1    0    0    0    0  0.00000000000E+00  0.00000000000E+00  0.14999999963E+04  0.15000000000E+04  0.10566000000E+00 0.  1.
        994   -1    0    0    0    0 -0.00000000000E+00 -0.00000000000E+00  0.11368683772E-12  0.17120000000E+03  0.17120000000E+03 0.  0.
         13    1    1    2    0    0  0.62166107951E+02 -0.21210882542E+03  0.96968283925E+03  0.99455497520E+03  0.10566000000E+00 0.  1.
        994    1    1    2    0    0 -0.10254559190E+03  0.22585323906E+03  0.24569776681E+03  0.38884716359E+03  0.17120000000E+03 0.  0.
        998    1    1    2    0    0  0.40379483948E+02 -0.13744413639E+02  0.28461939022E+03  0.28779786121E+03  0.10000000000E-02 0.  1.
</event>
<event>
 5    1  0.5722211E-009  0.3883010E+03  0.7957747E-01  0.3415792E+00
         13   -1    0    0    0    0  0.00000000000E+00  0.00000000000E+00  0.14999999963E+04  0.15000000000E+04  0.10566000000E+00 0.  1.
        994   -1    0    0    0    0 -0.00000000000E+00 -0.00000000000E+00  0.11368683772E-12  0.17120000000E+03  0.17120000000E+03 0.  0.
         13    1    1    2    0    0 -0.13702422304E+03  0.20885332071E+03  0.12573142230E+04  0.12818870519E+04  0.10566000000E+00 0.  1.
        994    1    1    2    0    0  0.13727981454E+03 -0.20924592402E+03  0.24032064328E+03  0.38690186842E+03  0.17120000000E+03 0.  0.
        998    1    1    2    0    0 -0.25559149848E+00  0.39260331725E+00  0.23651300086E+01  0.24110797035E+01  0.10000000000E-02 0.  1.
</event>
<event>
 5    1  0.5722211E-009  0.3866757E+03  0.7957747E-01  0.3422596E+00
         13   -1    0    0    0    0  0.00000000000E+00  0.00000000000E+00  0.14999999963E+04  0.15000000000E+04  0.10566000000E+00 0. -1.
        994   -1    0    0    0    0 -0.00000000000E+00 -0.00000000000E+00  0.11368683772E-12  0.17120000000E+03  0.17120000000E+03 0.  0.
         13    1    1    2    0    0 -0.14835505024E+03  0.12360867163E+03  0.96783938057E+03  0.98691509380E+03  0.10566000000E+00 0. -1.
        994    1    1    2    0    0  0.19478000839E+03 -0.13610573588E+03  0.21453423241E+03  0.36304049344E+03  0.17120000000E+03 0.  0.
        998    1    1    2    0    0 -0.46424958143E+02  0.12497064250E+02  0.31762638330E+03  0.32124441275E+03  0.10000000000E-02 0. -1.
</event>
<event>
 5    1  0.5722211E-009  0.3883009E+03  0.7957747E-01  0.3415792E+00
         13   -1    0    0    0    0  0.00000000000E+00  0.00000000000E+00  0.14999999963E+04  0.15000000000E+04  0.10566000000E+00 0.  1.
        994   -1    0    0    0    0 -0.00000000000E+00 -0.00000000000E+00  0.11368683772E-12  0.17120000000E+03  0.17120000000E+03 0.  0.
         13    1    1    2    0    0 -0.20758763313E+03  0.78196252669E+02  0.13190979313E+04  0.13376197676E+04  0.10566000000E+00 0.  1.
        994    1    1    2    0    0  0.20759996109E+03 -0.78200502078E+02  0.18081340788E+03  0.33349061582E+03  0.17120000000E+03 0.  0.
        998    1    1    2    0    0 -0.12327960831E-01  0.42494099392E-02  0.88657129199E-01  0.89616531181E-01  0.10000000000E-02 0.  1.
</event>
<event>
 5    1  0.5722211E-009  0.3861952E+03  0.7957747E-01  0.3424619E+00
         13   -1    0    0    0    0  0.00000000000E+00  0.00000000000E+00  0.14999999963E+04  0.15000000000E+04  0.10566000000E+00 0. -1.
        994   -1    0    0    0    0 -0.00000000000E+00 -0.00000000000E+00  0.11368683772E-12  0.17120000000E+03  0.17120000000E+03 0.  0.
         13    1    1    2    0    0 -0.62790779505E+02  0.20314770685E+03  0.10268754647E+04  0.10486586213E+04  0.10566000000E+00 0. -1.
        994    1    1    2    0    0  0.55021651980E+02 -0.25693441849E+03  0.27502280414E+03  0.41712067845E+03  0.17120000000E+03 0.  0.
        998    1    1    2    0    0  0.77691275249E+01  0.53786711637E+02  0.19810172743E+03  0.20542070028E+03  0.10000000000E-02 0. -1.
</event>
<event>
 5    1  0.5722211E-009  0.3879681E+03  0.7957747E-01  0.3417181E+00
         13   -1    0    0    0    0  0.00000000000E+00  0.00000000000E+00  0.14999999963E+04  0.15000000000E+04  0.10566000000E+00 0. -1.
        994   -1    0    0    0    0 -0.00000000000E+00 -0.00000000000E+00  0.11368683772E-12  0.17120000000E+03  0.17120000000E+03 0.  0.
         13    1    1    2    0    0 -0.53390960129E+02  0.24619017468E+03  0.12377686955E+04  0.12631435197E+04  0.10566000000E+00 0. -1.
        994    1    1    2    0    0  0.55598760532E+02 -0.24902066349E+03  0.25256426698E+03  0.39774446818E+03  0.17120000000E+03 0.  0.
        998    1    1    2    0    0 -0.22078004030E+01  0.28304888074E+01  0.96670338008E+01  0.10312012074E+02  0.10000000000E-02 0.  1.
</event>
<event>
 5    1  0.5722211E-009  0.3882865E+03  0.7957747E-01  0.3415852E+00
         13   -1    0    0    0    0  0.00000000000E+00  0.00000000000E+00  0.14999999963E+04  0.15000000000E+04  0.10566000000E+00 0.  1.
        994   -1    0    0    0    0 -0.00000000000E+00 -0.00000000000E+00  0.11368683772E-12  0.17120000000E+03  0.17120000000E+03 0.  0.
         13    1    1    2    0    0 -0.27486919633E+02  0.25116002834E+03  0.12519397949E+04  0.12771805478E+04  0.10566000000E+00 0.  1.
        994    1    1    2    0    0  0.27370054370E+02 -0.25146868777E+03  0.24672100398E+03  0.39264018466E+03  0.17120000000E+03 0.  0.
        998    1    1    2    0    0  0.11686526285E+00  0.30865942937E+00  0.13391974136E+01  0.13792675033E+01  0.10000000000E-02 0. -1.
</event>
<event>
 5    1  0.1164973E-008  0.3883009E+03  0.7957747E-01  0.3415792E+00
         13   -1    0    0    0    0  0.00000000000E+00  0.00000000000E+00  0.14999999963E+04  0.15000000000E+04  0.10566000000E+00 0. -1.
        994   -1    0    0    0    0 -0.00000000000E+00 -0.00000000000E+00  0.11368683772E-12  0.17120000000E+03  0.17120000000E+03 0.  0.
         13    1    1    2    0    0 -0.19942743327E+03 -0.10240714849E+03  0.13147260363E+04  0.13337027731E+04  0.10566000000E+00 0. -1.
        994    1    1    2    0    0  0.19943065067E+03  0.10240904721E+03  0.18524731451E+03  0.33747030227E+03  0.17120000000E+03 0.  0.
        998    1    1    2    0    0 -0.32173972388E-02 -0.18987239697E-02  0.26645476370E-01  0.26924676575E-01  0.10000000000E-02 0.  0.
</event>
<event>
 5    1  0.5722211E-009  0.3876095E+03  0.7957747E-01  0.3418680E+00
         13   -1    0    0    0    0  0.00000000000E+00  0.00000000000E+00  0.14999999963E+04  0.15000000000E+04  0.10566000000E+00 0. -1.
        994   -1    0    0    0    0 -0.00000000000E+00 -0.00000000000E+00  0.11368683772E-12  0.17120000000E+03  0.17120000000E+03 0.  0.
         13    1    1    2    0    0  0.13631424029E+03  0.15282580358E+03  0.11833825939E+04  0.12009711374E+04  0.10566000000E+00 0. -1.
        994    1    1    2    0    0 -0.14150500914E+03 -0.17360169479E+03  0.18570189078E+03  0.33757347094E+03  0.17120000000E+03 0.  0.
        998    1    1    2    0    0  0.51907688468E+01  0.20775891209E+02  0.13091551164E+03  0.13265539162E+03  0.10000000000E-02 0. -1.
</event>
<event>
 5    1  0.5722211E-009  0.3882617E+03  0.7957747E-01  0.3415956E+00
         13   -1    0    0    0    0  0.00000000000E+00  0.00000000000E+00  0.14999999963E+04  0.15000000000E+04  0.10566000000E+00 0.  1.
        994   -1    0    0    0    0 -0.00000000000E+00 -0.00000000000E+00  0.11368683772E-12  0.17120000000E+03  0.17120000000E+03 0.  0.
         13    1    1    2    0    0  0.98445916531E+02 -0.28847276985E+02  0.53467818640E+03  0.54443047127E+03  0.10566000000E+00 0.  1.
        994    1    1    2    0    0 -0.24094303412E+03  0.67387838457E+02  0.24021991383E+03  0.38679414869E+03  0.17120000000E+03 0.  0.
        998    1    1    2    0    0  0.14249711759E+03 -0.38540561472E+02  0.72510189605E+03  0.73997538003E+03  0.10000000000E-02 0.  1.
</event>
<event>
 5    1  0.5722211E-009  0.3882289E+03  0.7957747E-01  0.3416093E+00
         13   -1    0    0    0    0  0.00000000000E+00  0.00000000000E+00  0.14999999963E+04  0.15000000000E+04  0.10566000000E+00 0.  1.
        994   -1    0    0    0    0 -0.00000000000E+00 -0.00000000000E+00  0.11368683772E-12  0.17120000000E+03  0.17120000000E+03 0.  0.
         13    1    1    2    0    0 -0.11789617050E+03 -0.19583305389E+03  0.12197953841E+04  0.12410281553E+04  0.10566000000E+00 0.  1.
        994    1    1    2    0    0  0.12476267226E+03  0.20392543977E+03  0.21538193146E+03  0.36448611191E+03  0.17120000000E+03 0.  0.
        998    1    1    2    0    0 -0.68665017642E+01 -0.80923858859E+01  0.64822680721E+02  0.65685732794E+02  0.10000000000E-02 0.  1.
</event>
<event>
 5    1  0.8289165E-009  0.3883009E+03  0.7957747E-01  0.3415792E+00
         13   -1    0    0    0    0  0.00000000000E+00  0.00000000000E+00  0.14999999963E+04  0.15000000000E+04  0.10566000000E+00 0. -1.
        994   -1    0    0    0    0 -0.00000000000E+00 -0.00000000000E+00  0.11368683772E-12  0.17120000000E+03  0.17120000000E+03 0.  0.
         13    1    1    2    0    0 -0.19807767154E+03  0.16891594923E+03  0.12350696849E+04  0.12622062033E+04  0.10566000000E+00 0. -1.
        994    1    1    2    0    0  0.19808124965E+03 -0.16891969262E+03  0.26490267088E+03  0.40896565755E+03  0.17120000000E+03 0.  0.
        998    1    1    2    0    0 -0.35781077276E-02  0.37433884711E-02  0.27640506891E-01  0.28139179686E-01  0.10000000000E-02 0. -1.
</event>
<event>
 5    1  0.5722211E-009  0.3849799E+03  0.7957747E-01  0.3429757E+00
         13   -1    0    0    0    0  0.00000000000E+00  0.00000000000E+00  0.14999999963E+04  0.15000000000E+04  0.10566000000E+00 0. -1.
        994   -1    0    0    0    0 -0.00000000000E+00 -0.00000000000E+00  0.11368683772E-12  0.17120000000E+03  0.17120000000E+03 0.  0.
         13    1    1    2    0    0  0.52265018658E+02 -0.21930625098E+03  0.11224534288E+04  0.11448705494E+04  0.10566000000E+00 0. -1.
        994    1    1    2    0    0 -0.34685892919E+02  0.24135104265E+03  0.23072427454E+03  0.37682431957E+03  0.17120000000E+03 0.  0.
        998    1    1    2    0    0 -0.17579125739E+02 -0.22044791663E+02  0.14682229295E+03  0.14950513104E+03  0.10000000000E-02 0. -1.
</event>
<event>
 5    1  0.5722211E-009  0.3883010E+03  0.7957747E-01  0.3415792E+00
         13   -1    0    0    0    0  0.00000000000E+00  0.00000000000E+00  0.14999999963E+04  0.15000000000E+04  0.10566000000E+00 0.  1.
        994   -1    0    0    0    0 -0.00000000000E+00 -0.00000000000E+00  0.11368683772E-12  0.17120000000E+03  0.17120000000E+03 0.  0.
         13    1    1    2    0    0 -0.22299790980E+03 -0.98663643745E+02  0.12701032305E+04  0.12932999689E+04  0.10566000000E+00 0.  1.
        994    1    1    2    0    0  0.22351349891E+03  0.98890906841E+02  0.22696245515E+03  0.37491211196E+03  0.17120000000E+03 0.  0.
        998    1    1    2    0    0 -0.51558910501E+00 -0.22726309653E+00  0.29343106713E+01  0.29879191348E+01  0.10000000000E-02 0.  0.
</event>
<event>
 5    1  0.5722211E-009  0.3882342E+03  0.7957747E-01  0.3416070E+00
         13   -1    0    0    0    0  0.00000000000E+00  0.00000000000E+00  0.14999999963E+04  0.15000000000E+04  0.10566000000E+00 0. -1.
        994   -1    0    0    0    0 -0.00000000000E+00 -0.00000000000E+00  0.11368683772E-12  0.17120000000E+03  0.17120000000E+03 0.  0.
         13    1    1    2    0    0 -0.36662569611E+02  0.21613159486E+03  0.13236392794E+04  0.13416698414E+04  0.10566000000E+00 0. -1.
        994    1    1    2    0    0  0.36780987226E+02 -0.21619355536E+03  0.17617602500E+03  0.32930218066E+03  0.17120000000E+03 0.  0.
        998    1    1    2    0    0 -0.11841761500E+00  0.61960500673E-01  0.18469192780E+00  0.22797794494E+00  0.10000000000E-02 0. -1.
</event>
<event>
 5    1  0.5722211E-009  0.3831919E+03  0.7957747E-01  0.3437377E+00
         13   -1    0    0    0    0  0.00000000000E+00  0.00000000000E+00  0.14999999963E+04  0.15000000000E+04  0.10566000000E+00 0.  1.
        994   -1    0    0    0    0 -0.00000000000E+00 -0.00000000000E+00  0.11368683772E-12  0.17120000000E+03  0.17120000000E+03 0.  0.
         13    1    1    2    0    0  0.76735273765E+01  0.17062244565E+02  0.10118364606E+03  0.10289871042E+03  0.10566000000E+00 0.  1.
        994    1    1    2    0    0 -0.41964553686E+02  0.63742338157E+02  0.22041484740E+02  0.18873096325E+03  0.17120000000E+03 0.  0.
        998    1    1    2    0    0  0.34291026310E+02 -0.80804582722E+02  0.13767748655E+04  0.13795703263E+04  0.10000000000E-02 0.  1.
</event>
<event>
 5    1  0.5722211E-009  0.3881357E+03  0.7957747E-01  0.3416481E+00
         13   -1    0    0    0    0  0.00000000000E+00  0.00000000000E+00  0.14999999963E+04  0.15000000000E+04  0.10566000000E+00 0.  1.
        994   -1    0    0    0    0 -0.00000000000E+00 -0.00000000000E+00  0.11368683772E-12  0.17120000000E+03  0.17120000000E+03 0.  0.
         13    1    1    2    0    0  0.13841967077E+03  0.18762796493E+03  0.12587558065E+04  0.12801681335E+04  0.10566000000E+00 0.  1.
        994    1    1    2    0    0 -0.13928121055E+03 -0.19200631480E+03  0.21156528684E+03  0.36101937778E+03  0.17120000000E+03 0.  0.
        998    1    1    2    0    0  0.86153977553E+00  0.43783498713E+01  0.29678902895E+02  0.30012488675E+02  0.10000000000E-02 0. -1.
</event>
<event>
 5    1  0.5722211E-009  0.3883008E+03  0.7957747E-01  0.3415792E+00
         13   -1    0    0    0    0  0.00000000000E+00  0.00000000000E+00  0.14999999963E+04  0.15000000000E+04  0.10566000000E+00 0. -1.
        994   -1    0    0    0    0 -0.00000000000E+00 -0.00000000000E+00  0.11368683772E-12  0.17120000000E+03  0.17120000000E+03 0.  0.
         13    1    1    2    0    0 -0.20291281339E+03 -0.86666011087E+02  0.13121349482E+04  0.13305573046E+04  0.10566000000E+00 0. -1.
        994    1    1    2    0    0  0.20400159901E+03  0.87102328182E+02  0.18077304304E+03  0.33345434629E+03  0.17120000000E+03 0.  0.
        998    1    1    2    0    0 -0.10887856202E+01 -0.43631709490E+00  0.70920050346E+01  0.71883491252E+01  0.10000000000E-02 0.  1.
</event>
<event>
 5    1  0.5722211E-009  0.3883010E+03  0.7957747E-01  0.3415792E+00
         13   -1    0    0    0    0  0.00000000000E+00  0.00000000000E+00  0.14999999963E+04  0.15000000000E+04  0.10566000000E+00 0. -1.
        994   -1    0    0    0    0 -0.00000000000E+00 -0.00000000000E+00  0.11368683772E-12  0.17120000000E+03  0.17120000000E+03 0.  0.
         13    1    1    2    0    0  0.18816199862E+03  0.14846858793E+03  0.12311158583E+04  0.12542304920E+04  0.10566000000E+00 0. -1.
        994    1    1    2    0    0 -0.19375420590E+03 -0.15289157880E+03  0.23236908014E+03  0.37976487011E+03  0.17120000000E+03 0.  0.
        998    1    1    2    0    0  0.55922072759E+01  0.44229908675E+01  0.36515057818E+02  0.37204637868E+02  0.10000000000E-02 0.  1.
</event>
<event>
 5    1  0.5722211E-009  0.3861595E+03  0.7957747E-01  0.3424770E+00
         13   -1    0    0    0    0  0.00000000000E+00  0.00000000000E+00  0.14999999963E+04  0.15000000000E+04  0.10566000000E+00 0.  1.
        994   -1    0    0    0    0 -0.00000000000E+00 -0.00000000000E+00  0.11368683772E-12  0.17120000000E+03  0.17120000000E+03 0.  0.
         13    1    1    2    0    0 -0.16927931742E+03 -0.69265758465E+02  0.10320321247E+04  0.10481142830E+04  0.10566000000E+00 0.  1.
        994    1    1    2    0    0  0.19199054288E+03  0.77309447629E+02  0.15686596626E+03  0.31105223134E+03  0.17120000000E+03 0.  0.
        998    1    1    2    0    0 -0.22711225457E+02 -0.80436891636E+01  0.31110190528E+03  0.31203348565E+03  0.10000000000E-02 0.  1.
</event>
<event>
 5    1  0.5722211E-009  0.3883010E+03  0.7957747E-01  0.3415792E+00
         13   -1    0    0    0    0  0.00000000000E+00  0.00000000000E+00  0.14999999963E+04  0.15000000000E+04  0.10566000000E+00 0. -1.
        994   -1    0    0    0    0 -0.00000000000E+00 -0.00000000000E+00  0.11368683772E-12  0.17120000000E+03  0.17120000000E+03 0.  0.
         13    1    1    2    0    0  0.20871311518E+03  0.83074753648E+02  0.13098304823E+04  0.13289539054E+04  0.10566000000E+00 0. -1.
        994    1    1    2    0    0 -0.20919595113E+03 -0.83273316336E+02  0.18710811377E+03  0.33914049805E+03  0.17120000000E+03 0.  0.
        998    1    1    2    0    0  0.48283594719E+00  0.19856268781E+00  0.30614001954E+01  0.31055965368E+01  0.10000000000E-02 0.  1.
</event>
<event>
 5    1  0.5722211E-009  0.3883010E+03  0.7957747E-01  0.3415792E+00
         13   -1    0    0    0    0  0.00000000000E+00  0.00000000000E+00  0.14999999963E+04  0.15000000000E+04  0.10566000000E+00 0. -1.
        994   -1    0    0    0    0 -0.00000000000E+00 -0.00000000000E+00  0.11368683772E-12  0.17120000000E+03  0.17120000000E+03 0.  0.
         13    1    1    2    0    0 -0.10156309272E+03 -0.23283641778E+03  0.11968804893E+04  0.12235402634E+04  0.10566000000E+00 0. -1.
        994    1    1    2    0    0  0.10454530569E+03  0.23968631345E+03  0.26789247745E+03  0.41164920658E+03  0.17120000000E+03 0.  0.
        998    1    1    2    0    0 -0.29822129648E+01 -0.68498956684E+01  0.35227029481E+02  0.36010530014E+02  0.10000000000E-02 0.  1.
</event>
<event>
 5    1  0.5722211E-009  0.3882987E+03  0.7957747E-01  0.3415801E+00
         13   -1    0    0    0    0  0.00000000000E+00  0.00000000000E+00  0.14999999963E+04  0.15000000000E+04  0.10566000000E+00 0. -1.
        994   -1    0    0    0    0 -0.00000000000E+00 -0.00000000000E+00  0.11368683772E-12  0.17120000000E+03  0.17120000000E+03 0.  0.
         13    1    1    2    0    0 -0.13444777419E+03 -0.17817336404E+03  0.13163925995E+04  0.13351821744E+04  0.10566000000E+00 0. -1.
        994    1    1    2    0    0  0.13444518957E+03  0.17819549280E+03  0.18342096740E+03  0.33583006705E+03  0.17120000000E+03 0.  0.
        998    1    1    2    0    0  0.25846173468E-02 -0.22128763139E-01  0.18642941116E+00  0.18775858902E+00  0.10000000000E-02 0. -1.
</event>
<event>
 5    1  0.5722211E-009  0.3883010E+03  0.7957747E-01  0.3415792E+00
         13   -1    0    0    0    0  0.00000000000E+00  0.00000000000E+00  0.14999999963E+04  0.15000000000E+04  0.10566000000E+00 0.  1.
        994   -1    0    0    0    0 -0.00000000000E+00 -0.00000000000E+00  0.11368683772E-12  0.17120000000E+03  0.17120000000E+03 0.  0.
         13    1    1    2    0    0  0.21866781272E+03 -0.72627427137E+02  0.12991777490E+04  0.13194518522E+04  0.10566000000E+00 0.  1.
        994    1    1    2    0    0 -0.21909783657E+03  0.72769012480E+02  0.19830324802E+03  0.34918878754E+03  0.17120000000E+03 0.  0.
        998    1    1    2    0    0  0.43002385045E+00 -0.14158534274E+00  0.25189992367E+01  0.25593602864E+01  0.10000000000E-02 0. -1.
</event>
<event>
 5    1  0.9663823E-009  0.3883010E+03  0.7957747E-01  0.3415792E+00
         13   -1    0    0    0    0  0.00000000000E+00  0.00000000000E+00  0.14999999963E+04  0.15000000000E+04  0.10566000000E+00 0.  1.
        994   -1    0    0    0    0 -0.00000000000E+00 -0.00000000000E+00  0.11368683772E-12  0.17120000000E+03  0.17120000000E+03 0.  0.
         13    1    1    2    0    0 -0.19611559778E+02  0.31519717703E+03  0.10437278263E+04  0.10904593804E+04  0.10566000000E+00 0.  1.
        994    1    1    2    0    0  0.19612068130E+02 -0.31521660038E+03  0.45620564963E+03  0.58067131247E+03  0.17120000000E+03 0.  0.
        998    1    1    2    0    0 -0.50835168758E-03  0.19423354176E-01  0.66520327361E-01  0.69307135716E-01  0.10000000000E-02 0. -1.
</event>
<event>
 5    1  0.5722211E-009  0.3883010E+03  0.7957747E-01  0.3415792E+00
         13   -1    0    0    0    0  0.00000000000E+00  0.00000000000E+00  0.14999999963E+04  0.15000000000E+04  0.10566000000E+00 0.  1.
        994   -1    0    0    0    0 -0.00000000000E+00 -0.00000000000E+00  0.11368683772E-12  0.17120000000E+03  0.17120000000E+03 0.  0.
         13    1    1    2    0    0  0.15787265195E+03 -0.15065960787E+03  0.13044482030E+04  0.13225759778E+04  0.10566000000E+00 0.  1.
        994    1    1    2    0    0 -0.15985251984E+03  0.15254559731E+03  0.17916987722E+03  0.33201546992E+03  0.17120000000E+03 0.  0.
        998    1    1    2    0    0  0.19798678982E+01 -0.18859894383E+01  0.16381916094E+02  0.16608552284E+02  0.10000000000E-02 0. -1.
</event>
<event>
 5    1  0.7407082E-009  0.3883005E+03  0.7957747E-01  0.3415794E+00
         13   -1    0    0    0    0  0.00000000000E+00  0.00000000000E+00  0.14999999963E+04  0.15000000000E+04  0.10566000000E+00 0. -1.
        994   -1    0    0    0    0 -0.00000000000E+00 -0.00000000000E+00  0.11368683772E-12  0.17120000000E+03  0.17120000000E+03 0.  0.
         13    1    1    2    0    0 -0.21324004392E+03 -0.69752659250E+02  0.13143131497E+04  0.13333250978E+04  0.10566000000E+00 0. -1.
        994    1    1    2    0    0  0.21324983303E+03  0.69752967708E+02  0.18559125706E+03  0.33777880704E+03  0.17120000000E+03 0.  0.
        998    1    1    2    0    0 -0.97891074031E-02 -0.30845825464E-03  0.95589503286E-01  0.96095134678E-01  0.10000000000E-02 0. -1.
</event>
<event>
 5    1  0.5722211E-009  0.3883010E+03  0.7957747E-01  0.3415792E+00
         13   -1    0    0    0    0  0.00000000000E+00  0.00000000000E+00  0.14999999963E+04  0.15000000000E+04  0.10566000000E+00 0. -1.
        994   -1    0    0    0    0 -0.00000000000E+00 -0.00000000000E+00  0.11368683772E-12  0.17120000000E+03  0.17120000000E+03 0.  0.
         13    1    1    2    0    0 -0.74287078353E+02  0.20770021990E+03  0.13206345777E+04  0.13389300393E+04  0.10566000000E+00 0. -1.
        994    1    1    2    0    0  0.74322073711E+02 -0.20780616293E+03  0.17868279040E+03  0.33157827368E+03  0.17120000000E+03 0.  0.
        998    1    1    2    0    0 -0.34995358151E-01  0.10594302672E+00  0.68262822316E+00  0.69168698923E+00  0.10000000000E-02 0. -1.
</event>
<event>
 5    1  0.5722211E-009  0.3883002E+03  0.7957747E-01  0.3415795E+00
         13   -1    0    0    0    0  0.00000000000E+00  0.00000000000E+00  0.14999999963E+04  0.15000000000E+04  0.10566000000E+00 0.  1.
        994   -1    0    0    0    0 -0.00000000000E+00 -0.00000000000E+00  0.11368683772E-12  0.17120000000E+03  0.17120000000E+03 0.  0.
         13    1    1    2    0    0  0.48239032754E+02  0.23667868310E+03  0.12728431525E+04  0.12955591478E+04  0.10566000000E+00 0.  1.
        994    1    1    2    0    0 -0.48472085349E+02 -0.23751419525E+03  0.22252995582E+03  0.37093335957E+03  0.17120000000E+03 0.  0.
        998    1    1    2    0    0  0.23305259473E+00  0.83551214426E+00  0.46268879479E+01  0.47074926593E+01  0.10000000000E-02 0. -1.
</event>
<event>
 5    1  0.5722211E-009  0.3883010E+03  0.7957747E-01  0.3415792E+00
         13   -1    0    0    0    0  0.00000000000E+00  0.00000000000E+00  0.14999999963E+04  0.15000000000E+04  0.10566000000E+00 0.  1.
        994   -1    0    0    0    0 -0.00000000000E+00 -0.00000000000E+00  0.11368683772E-12  0.17120000000E+03  0.17120000000E+03 0.  0.
         13    1    1    2    0    0  0.18257832024E+03  0.17311225151E+03  0.12422990638E+04  0.12675210726E+04  0.10566000000E+00 0.  1.
        994    1    1    2    0    0 -0.18398547995E+03 -0.17445052595E+03  0.24810878677E+03  0.39389218437E+03  0.17120000000E+03 0.  0.
        998    1    1    2    0    0  0.14071597089E+01  0.13382744400E+01  0.95921457565E+01  0.97867429790E+01  0.10000000000E-02 0. -1.
</event>
<event>
 5    1  0.5722211E-009  0.3883009E+03  0.7957747E-01  0.3415792E+00
         13   -1    0    0    0    0  0.00000000000E+00  0.00000000000E+00  0.14999999963E+04  0.15000000000E+04  0.10566000000E+00 0.  1.
        994   -1    0    0    0    0 -0.00000000000E+00 -0.00000000000E+00  0.11368683772E-12  0.17120000000E+03  0.17120000000E+03 0.  0.
         13    1    1    2    0    0  0.17815399420E+03  0.14772402630E+03  0.13004457741E+04  0.13208786682E+04  0.10566000000E+00 0.  1.
        994    1    1    2    0    0 -0.17816770251E+03 -0.14773174913E+03  0.19947384964E+03  0.35023942755E+03  0.17120000000E+03 0.  0.
        998    1    1    2    0    0  0.13708305886E-01  0.77228328962E-02  0.80372539390E-01  0.81904242175E-01  0.10000000000E-02 0. -1.
</event>
<event>
 5    1  0.5722211E-009  0.3883010E+03  0.7957747E-01  0.3415792E+00
         13   -1    0    0    0    0  0.00000000000E+00  0.00000000000E+00  0.14999999963E+04  0.15000000000E+04  0.10566000000E+00 0.  1.
        994   -1    0    0    0    0 -0.00000000000E+00 -0.00000000000E+00  0.11368683772E-12  0.17120000000E+03  0.17120000000E+03 0.  0.
         13    1    1    2    0    0 -0.30321584025E+03 -0.44417470472E+02  0.10795403201E+04  0.11221943109E+04  0.10566000000E+00 0.  1.
        994    1    1    2    0    0  0.30404374776E+03  0.44540569478E+02  0.41751234310E+03  0.54594180964E+03  0.17120000000E+03 0.  0.
        998    1    1    2    0    0 -0.82790751107E+00 -0.12309900539E+00  0.29473330899E+01  0.30638794942E+01  0.10000000000E-02 0. -1.
</event>
<event>
 5    1  0.5722211E-009  0.3883010E+03  0.7957747E-01  0.3415792E+00
         13   -1    0    0    0    0  0.00000000000E+00  0.00000000000E+00  0.14999999963E+04  0.15000000000E+04  0.10566000000E+00 0. -1.
        994   -1    0    0    0    0 -0.00000000000E+00 -0.00000000000E+00  0.11368683772E-12  0.17120000000E+03  0.17120000000E+03 0.  0.
         13    1    1    2    0    0  0.11047648216E+03 -0.18834605261E+03  0.12582752235E+04  0.12770809832E+04  0.10566000000E+00 0. -1.
        994    1    1    2    0    0 -0.11493338970E+03  0.19594673523E+03  0.19098882359E+03  0.34262366797E+03  0.17120000000E+03 0.  0.
        998    1    1    2    0    0  0.44569075409E+01 -0.76006826165E+01  0.50735949231E+02  0.51495348785E+02  0.10000000000E-02 0. -1.
</event>
<event>
 5    1  0.5722211E-009  0.3879895E+03  0.7957747E-01  0.3417091E+00
         13   -1    0    0    0    0  0.00000000000E+00  0.00000000000E+00  0.14999999963E+04  0.15000000000E+04  0.10566000000E+00 0. -1.
        994   -1    0    0    0    0 -0.00000000000E+00 -0.00000000000E+00  0.11368683772E-12  0.17120000000E+03  0.17120000000E+03 0.  0.
         13    1    1    2    0    0  0.70549932975E+02 -0.29487972920E+03  0.10402028870E+04  0.10834913036E+04  0.10566000000E+00 0. -1.
        994    1    1    2    0    0 -0.75200624275E+02  0.30076276360E+03  0.43042517024E+03  0.55739451113E+03  0.17120000000E+03 0.  0.
        998    1    1    2    0    0  0.46506912995E+01 -0.58830343996E+01  0.29371939041E+02  0.30314185249E+02  0.10000000000E-02 0. -1.
</event>
<event>
 5    1  0.5722211E-009  0.3883008E+03  0.7957747E-01  0.3415792E+00
         13   -1    0    0    0    0  0.00000000000E+00  0.00000000000E+00  0.14999999963E+04  0.15000000000E+04  0.10566000000E+00 0.  1.
        994   -1    0    0    0    0 -0.00000000000E+00 -0.00000000000E+00  0.11368683772E-12  0.17120000000E+03  0.17120000000E+03 0.  0.
         13    1    1    2    0    0 -0.22039492394E+03 -0.16213346480E+03  0.11970450397E+04  0.12279161296E+04  0.10566000000E+00 0.  1.
        994    1    1    2    0    0  0.22063489085E+03  0.16229376966E+03  0.30166423570E+03  0.44196128092E+03  0.17120000000E+03 0.  0.
        998    1    1    2    0    0 -0.23996691375E+00 -0.16030485474E+00  0.12907208382E+01  0.13225895237E+01  0.10000000000E-02 0.  1.
</event>
<event>
 5    1  0.5722211E-009  0.3882948E+03  0.7957747E-01  0.3415818E+00
         13   -1    0    0    0    0  0.00000000000E+00  0.00000000000E+00  0.14999999963E+04  0.15000000000E+04  0.10566000000E+00 0. -1.
        994   -1    0    0    0    0 -0.00000000000E+00 -0.00000000000E+00  0.11368683772E-12  0.17120000000E+03  0.17120000000E+03 0.  0.
         13    1    1    2    0    0  0.14161259871E+02  0.21425979411E+02  0.10586885060E+03  0.10893960972E+03  0.10566000000E+00 0. -1.
        994    1    1    2    0    0 -0.16007729623E+03 -0.22950685483E+03  0.31924788394E+03  0.45774096232E+03  0.17120000000E+03 0.  0.
        998    1    1    2    0    0  0.14591603636E+03  0.20808087542E+03  0.10748832617E+04  0.11045194280E+04  0.10000000000E-02 0. -1.
</event>
<event>
 5    1  0.5722211E-009  0.3876397E+03  0.7957747E-01  0.3418554E+00
         13   -1    0    0    0    0  0.00000000000E+00  0.00000000000E+00  0.14999999963E+04  0.15000000000E+04  0.10566000000E+00 0.  1.
        994   -1    0    0    0    0 -0.00000000000E+00 -0.00000000000E+00  0.11368683772E-12  0.17120000000E+03  0.17120000000E+03 0.  0.
         13    1    1    2    0    0  0.25477846408E+03 -0.53973284301E+02  0.11871644307E+04  0.12153948238E+04  0.10566000000E+00 0.  1.
        994    1    1    2    0    0 -0.26002283650E+03  0.50685568619E+02  0.27806628790E+03  0.42048924224E+03  0.17120000000E+03 0.  0.
        998    1    1    2    0    0  0.52443724197E+01  0.32877156819E+01  0.34769277695E+02  0.35315933924E+02  0.10000000000E-02 0.  1.
</event>
<event>
 5    1  0.5722211E-009  0.3883007E+03  0.7957747E-01  0.3415793E+00
         13   -1    0    0    0    0  0.00000000000E+00  0.00000000000E+00  0.14999999963E+04  0.15000000000E+04  0.10566000000E+00 0. -1.
        994   -1    0    0    0    0 -0.00000000000E+00 -0.00000000000E+00  0.11368683772E-12  0.17120000000E+03  0.17120000000E+03 0.  0.
         13    1    1    2    0    0 -0.13728231021E+03  0.44042616302E+02  0.82988747867E+03  0.84231788724E+03  0.10566000000E+00 0. -1.
        994    1    1    2    0    0  0.21673576955E+03 -0.69091914676E+02  0.19160420253E+03  0.34317589791E+03  0.17120000000E+03 0.  0.
        998    1    1    2    0    0 -0.79453459338E+02  0.25049298374E+02  0.47850831508E+03  0.48570621486E+03  0.10000000000E-02 0. -1.
</event>
<event>
 5    1  0.5722211E-009  0.3874206E+03  0.7957747E-01  0.3419471E+00
         13   -1    0    0    0    0  0.00000000000E+00  0.00000000000E+00  0.14999999963E+04  0.15000000000E+04  0.10566000000E+00 0.  1.
        994   -1    0    0    0    0 -0.00000000000E+00 -0.00000000000E+00  0.11368683772E-12  0.17120000000E+03  0.17120000000E+03 0.  0.
         13    1    1    2    0    0  0.18090424712E+03  0.64977175558E+02  0.97866063513E+03  0.99735902757E+03  0.10566000000E+00 0.  1.
        994    1    1    2    0    0 -0.23512478263E+03 -0.64752324814E+02  0.22709861547E+03  0.37464616390E+03  0.17120000000E+03 0.  0.
        998    1    1    2    0    0  0.54220535517E+02 -0.22485074380E+00  0.29424074568E+03  0.29919480853E+03  0.10000000000E-02 0. -1.
</event>
<event>
 5    1  0.5722211E-009  0.3883006E+03  0.7957747E-01  0.3415793E+00
         13   -1    0    0    0    0  0.00000000000E+00  0.00000000000E+00  0.14999999963E+04  0.15000000000E+04  0.10566000000E+00 0. -1.
        994   -1    0    0    0    0 -0.00000000000E+00 -0.00000000000E+00  0.11368683772E-12  0.17120000000E+03  0.17120000000E+03 0.  0.
         13    1    1    2    0    0 -0.10544230055E+02  0.18797071144E+02  0.93830571412E+02  0.96274077334E+02  0.10566000000E+00 0. -1.
        994    1    1    2    0    0  0.13560319565E+03 -0.24026189098E+03  0.30746073368E+03  0.44716389130E+03  0.17120000000E+03 0.  0.
        998    1    1    2    0    0 -0.12505896560E+03  0.22146481983E+03  0.10987086912E+04  0.11277620314E+04  0.10000000000E-02 0. -1.
</event>
<event>
 5    1  0.5722211E-009  0.3822452E+03  0.7957747E-01  0.3441440E+00
         13   -1    0    0    0    0  0.00000000000E+00  0.00000000000E+00  0.14999999963E+04  0.15000000000E+04  0.10566000000E+00 0.  1.
        994   -1    0    0    0    0 -0.00000000000E+00 -0.00000000000E+00  0.11368683772E-12  0.17120000000E+03  0.17120000000E+03 0.  0.
         13    1    1    2    0    0  0.19621858044E+02  0.11796619039E+02  0.73866304912E+02  0.77333173342E+02  0.10566000000E+00 0.  1.
        994    1    1    2    0    0  0.30513793310E+02 -0.17424097229E+03  0.11491378054E+03  0.27167190684E+03  0.17120000000E+03 0.  0.
        998    1    1    2    0    0 -0.50135651354E+02  0.16244435325E+03  0.13112199108E+04  0.13221949198E+04  0.10000000000E-02 0.  1.
</event>
<event>
 5    1  0.5722211E-009  0.3882917E+03  0.7957747E-01  0.3415831E+00
         13   -1    0    0    0    0  0.00000000000E+00  0.00000000000E+00  0.14999999963E+04  0.15000000000E+04  0.10566000000E+00 0.  1.
        994   -1    0    0    0    0 -0.00000000000E+00 -0.00000000000E+00  0.11368683772E-12  0.17120000000E+03  0.17120000000E+03 0.  0.
         13    1    1    2    0    0 -0.15732202863E+03 -0.18250503424E+03  0.10472497220E+04  0.10746116972E+04  0.10566000000E+00 0.  1.
        994    1    1    2    0    0  0.17950189995E+03  0.20729287572E+03  0.30259032506E+03  0.44278845201E+03  0.17120000000E+03 0.  0.
        998    1    1    2    0    0 -0.22179871318E+02 -0.24787841480E+02  0.15015994917E+03  0.15379985082E+03  0.10000000000E-02 0. -1.
</event>
<event>
 5    1  0.5722211E-009  0.3883010E+03  0.7957747E-01  0.3415792E+00
         13   -1    0    0    0    0  0.00000000000E+00  0.00000000000E+00  0.14999999963E+04  0.15000000000E+04  0.10566000000E+00 0.  1.
        994   -1    0    0    0    0 -0.00000000000E+00 -0.00000000000E+00  0.11368683772E-12  0.17120000000E+03  0.17120000000E+03 0.  0.
         13    1    1    2    0    0  0.15657671789E+03  0.20017630743E+03  0.12413904357E+04  0.12671373437E+04  0.10566000000E+00 0.  1.
        994    1    1    2    0    0 -0.15733609738E+03 -0.20115009352E+03  0.25254858332E+03  0.39787716019E+03  0.17120000000E+03 0.  0.
        998    1    1    2    0    0  0.75937949404E+00  0.97378608577E+00  0.60609772382E+01  0.61854961513E+01  0.10000000000E-02 0. -1.
</event>
<event>
 5    1  0.5722211E-009  0.3882871E+03  0.7957747E-01  0.3415850E+00
         13   -1    0    0    0    0  0.00000000000E+00  0.00000000000E+00  0.14999999963E+04  0.15000000000E+04  0.10566000000E+00 0.  1.
        994   -1    0    0    0    0 -0.00000000000E+00 -0.00000000000E+00  0.11368683772E-12  0.17120000000E+03  0.17120000000E+03 0.  0.
         13    1    1    2    0    0 -0.37987402764E+02  0.30765252322E+03  0.10695579206E+04  0.11135740992E+04  0.10566000000E+00 0.  1.
        994    1    1    2    0    0  0.37920765892E+02 -0.30783116386E+03  0.42998492664E+03  0.55713058350E+03  0.17120000000E+03 0.  0.
        998    1    1    2    0    0  0.66636871852E-01  0.17864064410E+00  0.45714905896E+00  0.49531728672E+00  0.10000000000E-02 0. -1.
</event>
<event>
 5    1  0.5722211E-009  0.3882891E+03  0.7957747E-01  0.3415841E+00
         13   -1    0    0    0    0  0.00000000000E+00  0.00000000000E+00  0.14999999963E+04  0.15000000000E+04  0.10566000000E+00 0.  1.
        994   -1    0    0    0    0 -0.00000000000E+00 -0.00000000000E+00  0.11368683772E-12  0.17120000000E+03  0.17120000000E+03 0.  0.
         13    1    1    2    0    0 -0.20762058017E+03  0.14329463842E+03  0.12440678229E+04  0.12693874183E+04  0.10566000000E+00 0.  1.
        994    1    1    2    0    0  0.20857949455E+03 -0.14426896378E+03  0.24829576676E+03  0.39405477696E+03  0.17120000000E+03 0.  0.
        998    1    1    2    0    0 -0.95891437844E+00  0.97432535266E+00  0.76364066165E+01  0.77578046953E+01  0.10000000000E-02 0. -1.
</event>
<event>
 5    1  0.5722211E-009  0.3883010E+03  0.7957747E-01  0.3415792E+00
         13   -1    0    0    0    0  0.00000000000E+00  0.00000000000E+00  0.14999999963E+04  0.15000000000E+04  0.10566000000E+00 0. -1.
        994   -1    0    0    0    0 -0.00000000000E+00 -0.00000000000E+00  0.11368683772E-12  0.17120000000E+03  0.17120000000E+03 0.  0.
         13    1    1    2    0    0 -0.17866598195E+03 -0.14733610143E+03  0.12706204356E+04  0.12915516879E+04  0.10566000000E+00 0. -1.
        994    1    1    2    0    0  0.18170460961E+03  0.14984523727E+03  0.20780916615E+03  0.35772091052E+03  0.17120000000E+03 0.  0.
        998    1    1    2    0    0 -0.30386276604E+01 -0.25091358490E+01  0.21570394510E+02  0.21927401603E+02  0.10000000000E-02 0.  1.
</event>
<event>
 5    1  0.5722211E-009  0.3882761E+03  0.7957747E-01  0.3415896E+00
         13   -1    0    0    0    0  0.00000000000E+00  0.00000000000E+00  0.14999999963E+04  0.15000000000E+04  0.10566000000E+00 0.  1.
        994   -1    0    0    0    0 -0.00000000000E+00 -0.00000000000E+00  0.11368683772E-12  0.17120000000E+03  0.17120000000E+03 0.  0.
         13    1    1    2    0    0  0.54405406575E+02  0.22874176063E+03  0.11874624464E+04  0.12105163419E+04  0.10566000000E+00 0.  1.
        994    1    1    2    0    0 -0.57610366644E+02 -0.24184706974E+03  0.23653634091E+03  0.38349425036E+03  0.17120000000E+03 0.  0.
        998    1    1    2    0    0  0.32049600687E+01  0.13105309112E+02  0.76001208994E+02  0.77189407728E+02  0.10000000000E-02 0. -1.
</event>
<event>
 5    1  0.5722211E-009  0.3883010E+03  0.7957747E-01  0.3415792E+00
         13   -1    0    0    0    0  0.00000000000E+00  0.00000000000E+00  0.14999999963E+04  0.15000000000E+04  0.10566000000E+00 0. -1.
        994   -1    0    0    0    0 -0.00000000000E+00 -0.00000000000E+00  0.11368683772E-12  0.17120000000E+03  0.17120000000E+03 0.  0.
         13    1    1    2    0    0 -0.19483608745E+03  0.17384801322E+03  0.78947089317E+03  0.83153384477E+03  0.10566000000E+00 0. -1.
        994    1    1    2    0    0  0.24347520518E+03 -0.21734768022E+03  0.51318519544E+03  0.63181379730E+03  0.17120000000E+03 0.  0.
        998    1    1    2    0    0 -0.48639117737E+02  0.43499667003E+02  0.19734390766E+03  0.20785235793E+03  0.10000000000E-02 0.  1.
</event>
<event>
 5    1  0.5722211E-009  0.3883009E+03  0.7957747E-01  0.3415792E+00
         13   -1    0    0    0    0  0.00000000000E+00  0.00000000000E+00  0.14999999963E+04  0.15000000000E+04  0.10566000000E+00 0. -1.
        994   -1    0    0    0    0 -0.00000000000E+00 -0.00000000000E+00  0.11368683772E-12  0.17120000000E+03  0.17120000000E+03 0.  0.
         13    1    1    2    0    0  0.83980177221E+01 -0.23876544520E+03  0.12163036809E+04  0.12395459330E+04  0.10566000000E+00 0. -1.
        994    1    1    2    0    0 -0.86728154477E+01  0.24818338468E+03  0.23585348475E+03  0.38289230395E+03  0.17120000000E+03 0.  0.
        998    1    1    2    0    0  0.27479772553E+00 -0.94179394816E+01  0.47842830594E+02  0.48761763075E+02  0.10000000000E-02 0. -1.
</event>
<event>
 5    1  0.5722211E-009  0.3882577E+03  0.7957747E-01  0.3415972E+00
         13   -1    0    0    0    0  0.00000000000E+00  0.00000000000E+00  0.14999999963E+04  0.15000000000E+04  0.10566000000E+00 0. -1.
        994   -1    0    0    0    0 -0.00000000000E+00 -0.00000000000E+00  0.11368683772E-12  0.17120000000E+03  0.17120000000E+03 0.  0.
         13    1    1    2    0    0  0.12008335538E+03 -0.28548678750E+02  0.74508412718E+03  0.75523864244E+03  0.10566000000E+00 0. -1.
        994    1    1    2    0    0 -0.20800730376E+03  0.53624813400E+02  0.16804513643E+03  0.32201128382E+03  0.17120000000E+03 0.  0.
        998    1    1    2    0    0  0.87923948381E+02 -0.25076134650E+02  0.58687073267E+03  0.59395007374E+03  0.10000000000E-02 0.  1.
</event>
<event>
 5    1  0.5722211E-009  0.3883009E+03  0.7957747E-01  0.3415792E+00
         13   -1    0    0    0    0  0.00000000000E+00  0.00000000000E+00  0.14999999963E+04  0.15000000000E+04  0.10566000000E+00 0. -1.
        994   -1    0    0    0    0 -0.00000000000E+00 -0.00000000000E+00  0.11368683772E-12  0.17120000000E+03  0.17120000000E+03 0.  0.
         13    1    1    2    0    0 -0.17468705570E+03  0.16125143264E+03  0.12873652889E+04  0.13091321516E+04  0.10566000000E+00 0. -1.
        994    1    1    2    0    0  0.17470281372E+03 -0.16126790972E+03  0.21249962810E+03  0.36193085496E+03  0.17120000000E+03 0.  0.
        998    1    1    2    0    0 -0.15758020585E-01  0.16477082043E-01  0.13507924299E+00  0.13699347186E+00  0.10000000000E-02 0.  1.
</event>
<event>
 5    1  0.5722211E-009  0.3881709E+03  0.7957747E-01  0.3416335E+00
         13   -1    0    0    0    0  0.00000000000E+00  0.00000000000E+00  0.14999999963E+04  0.15000000000E+04  0.10566000000E+00 0.  1.
        994   -1    0    0    0    0 -0.00000000000E+00 -0.00000000000E+00  0.11368683772E-12  0.17120000000E+03  0.17120000000E+03 0.  0.
         13    1    1    2    0    0 -0.13138359740E+02 -0.23470204775E+03  0.12397812340E+04  0.12618697187E+04  0.10566000000E+00 0.  1.
        994    1    1    2    0    0  0.12711706836E+02  0.24017082818E+03  0.21857193565E+03  0.36732376081E+03  0.17120000000E+03 0.  0.
        998    1    1    2    0    0  0.42665290376E+00 -0.54687804275E+01  0.41646826615E+02  0.42006520448E+02  0.10000000000E-02 0.  1.
</event>
<event>
 5    1  0.5722211E-009  0.3883010E+03  0.7957747E-01  0.3415792E+00
         13   -1    0    0    0    0  0.00000000000E+00  0.00000000000E+00  0.14999999963E+04  0.15000000000E+04  0.10566000000E+00 0. -1.
        994   -1    0    0    0    0 -0.00000000000E+00 -0.00000000000E+00  0.11368683772E-12  0.17120000000E+03  0.17120000000E+03 0.  0.
         13    1    1    2    0    0 -0.11404782765E+03 -0.18708603871E+03  0.13122712308E+04  0.13304374796E+04  0.10566000000E+00 0. -1.
        994    1    1    2    0    0  0.11484578691E+03  0.18838997709E+03  0.17856996359E+03  0.33147701298E+03  0.17120000000E+03 0.  0.
        998    1    1    2    0    0 -0.79795926049E+00 -0.13039383782E+01  0.91588018834E+01  0.92855073752E+01  0.10000000000E-02 0. -1.
</event>
<event>
 5    1  0.5722211E-009  0.3883009E+03  0.7957747E-01  0.3415792E+00
         13   -1    0    0    0    0  0.00000000000E+00  0.00000000000E+00  0.14999999963E+04  0.15000000000E+04  0.10566000000E+00 0. -1.
        994   -1    0    0    0    0 -0.00000000000E+00 -0.00000000000E+00  0.11368683772E-12  0.17120000000E+03  0.17120000000E+03 0.  0.
         13    1    1    2    0    0 -0.12892512900E+03  0.23213263133E+03  0.12211998220E+04  0.12497344773E+04  0.10566000000E+00 0. -1.
        994    1    1    2    0    0  0.12894770916E+03 -0.23217390474E+03  0.27859900176E+03  0.42125891981E+03  0.17120000000E+03 0.  0.
        998    1    1    2    0    0 -0.22580163470E-01  0.41273406202E-01  0.20117257033E+00  0.20660290631E+00  0.10000000000E-02 0. -1.
</event>
<event>
 5    1  0.5722211E-009  0.3687422E+03  0.7957747E-01  0.3501692E+00
         13   -1    0    0    0    0  0.00000000000E+00  0.00000000000E+00  0.14999999963E+04  0.15000000000E+04  0.10566000000E+00 0.  1.
        994   -1    0    0    0    0 -0.00000000000E+00 -0.00000000000E+00  0.11368683772E-12  0.17120000000E+03  0.17120000000E+03 0.  0.
         13    1    1    2    0    0  0.16501468042E+03  0.14290789174E+03  0.70046385589E+03  0.73369076241E+03  0.10566000000E+00 0.  1.
        994    1    1    2    0    0 -0.13454101385E+03 -0.23999589987E+03  0.35157432715E+03  0.47813519414E+03  0.17120000000E+03 0.  0.
        998    1    1    2    0    0 -0.30473666571E+02  0.97088008131E+02  0.44796181324E+03  0.45937404345E+03  0.10000000000E-02 0.  1.
</event>
<event>
 5    1  0.5722211E-009  0.3880939E+03  0.7957747E-01  0.3416656E+00
         13   -1    0    0    0    0  0.00000000000E+00  0.00000000000E+00  0.14999999963E+04  0.15000000000E+04  0.10566000000E+00 0. -1.
        994   -1    0    0    0    0 -0.00000000000E+00 -0.00000000000E+00  0.11368683772E-12  0.17120000000E+03  0.17120000000E+03 0.  0.
         13    1    1    2    0    0  0.21713514184E+03 -0.60067072295E+02  0.13076269268E+04  0.13268925781E+04  0.10566000000E+00 0. -1.
        994    1    1    2    0    0 -0.21788134379E+03  0.60998644006E+02  0.18949164227E+03  0.34118856521E+03  0.17120000000E+03 0.  0.
        998    1    1    2    0    0  0.74620194592E+00 -0.93157171031E+00  0.28814272153E+01  0.31188566804E+01  0.10000000000E-02 0. -1.
</event>
<event>
 5    1  0.5722211E-009  0.3883010E+03  0.7957747E-01  0.3415792E+00
         13   -1    0    0    0    0  0.00000000000E+00  0.00000000000E+00  0.14999999963E+04  0.15000000000E+04  0.10566000000E+00 0.  1.
        994   -1    0    0    0    0 -0.00000000000E+00 -0.00000000000E+00  0.11368683772E-12  0.17120000000E+03  0.17120000000E+03 0.  0.
         13    1    1    2    0    0 -0.26373545842E+03 -0.46930186789E+02  0.12147704944E+04  0.12439558673E+04  0.10566000000E+00 0.  1.
        994    1    1    2    0    0  0.26379370808E+03  0.46940811093E+02  0.28496135158E+03  0.42696952123E+03  0.17120000000E+03 0.  0.
        998    1    1    2    0    0 -0.58249660825E-01 -0.10624304785E-01  0.26815027770E+00  0.27461148969E+00  0.10000000000E-02 0.  0.
</event>
<event>
 5    1  0.5722211E-009  0.3883010E+03  0.7957747E-01  0.3415792E+00
         13   -1    0    0    0    0  0.00000000000E+00  0.00000000000E+00  0.14999999963E+04  0.15000000000E+04  0.10566000000E+00 0.  1.
        994   -1    0    0    0    0 -0.00000000000E+00 -0.00000000000E+00  0.11368683772E-12  0.17120000000E+03  0.17120000000E+03 0.  0.
         13    1    1    2    0    0 -0.19398889805E+02  0.30707964187E+03  0.10583777920E+04  0.11021967996E+04  0.10566000000E+00 0.  1.
        994    1    1    2    0    0  0.19579343516E+02 -0.30994632793E+03  0.43173916189E+03  0.55871121414E+03  0.17120000000E+03 0.  0.
        998    1    1    2    0    0 -0.18045371083E+00  0.28666860666E+01  0.98830424329E+01  0.10291986265E+02  0.10000000000E-02 0. -1.
</event>
<event>
 5    1  0.5722211E-009  0.3883008E+03  0.7957747E-01  0.3415793E+00
         13   -1    0    0    0    0  0.00000000000E+00  0.00000000000E+00  0.14999999963E+04  0.15000000000E+04  0.10566000000E+00 0.  1.
        994   -1    0    0    0    0 -0.00000000000E+00 -0.00000000000E+00  0.11368683772E-12  0.17120000000E+03  0.17120000000E+03 0.  0.
         13    1    1    2    0    0  0.32491508209E+03 -0.11084424299E+03  0.84138669957E+03  0.90872869778E+03  0.10566000000E+00 0.  1.
        994    1    1    2    0    0 -0.32517906061E+03  0.11094796440E+03  0.65790219378E+03  0.76170572325E+03  0.17120000000E+03 0.  0.
        998    1    1    2    0    0  0.26397851392E+00 -0.10372141367E+00  0.71110292646E+00  0.76557897012E+00  0.10000000000E-02 0.  1.
</event>
<event>
 5    1  0.5722211E-009  0.3883010E+03  0.7957747E-01  0.3415792E+00
         13   -1    0    0    0    0  0.00000000000E+00  0.00000000000E+00  0.14999999963E+04  0.15000000000E+04  0.10566000000E+00 0.  1.
        994   -1    0    0    0    0 -0.00000000000E+00 -0.00000000000E+00  0.11368683772E-12  0.17120000000E+03  0.17120000000E+03 0.  0.
         13    1    1    2    0    0 -0.20267073718E+03  0.81216689774E+02  0.13165814507E+04  0.13345629643E+04  0.10566000000E+00 0.  1.
        994    1    1    2    0    0  0.20373979944E+03 -0.81648111146E+02  0.17645500700E+03  0.32957871506E+03  0.17120000000E+03 0.  0.
        998    1    1    2    0    0 -0.10690622522E+01  0.43142137232E+00  0.69635386130E+01  0.70583205874E+01  0.10000000000E-02 0.  1.
</event>
<event>
 5    1  0.5722211E-009  0.3883009E+03  0.7957747E-01  0.3415792E+00
         13   -1    0    0    0    0  0.00000000000E+00  0.00000000000E+00  0.14999999963E+04  0.15000000000E+04  0.10566000000E+00 0. -1.
        994   -1    0    0    0    0 -0.00000000000E+00 -0.00000000000E+00  0.11368683772E-12  0.17120000000E+03  0.17120000000E+03 0.  0.
         13    1    1    2    0    0  0.20492285310E+03  0.12860658909E+03  0.12741763878E+04  0.12969419837E+04  0.10566000000E+00 0. -1.
        994    1    1    2    0    0 -0.20541833649E+03 -0.12890025923E+03  0.22275289566E+03  0.37113375261E+03  0.17120000000E+03 0.  0.
        998    1    1    2    0    0  0.49548339142E+00  0.29367014186E+00  0.30707127749E+01  0.31242637356E+01  0.10000000000E-02 0.  1.
</event>
<event>
 5    1  0.5722211E-009  0.3883009E+03  0.7957747E-01  0.3415792E+00
         13   -1    0    0    0    0  0.00000000000E+00  0.00000000000E+00  0.14999999963E+04  0.15000000000E+04  0.10566000000E+00 0. -1.
        994   -1    0    0    0    0 -0.00000000000E+00 -0.00000000000E+00  0.11368683772E-12  0.17120000000E+03  0.17120000000E+03 0.  0.
         13    1    1    2    0    0  0.90454503566E+02  0.17446813795E+03  0.10513121432E+04  0.10695225019E+04  0.10566000000E+00 0. -1.
        994    1    1    2    0    0 -0.11029940500E+03 -0.21294555253E+03  0.21689242163E+03  0.36587365257E+03  0.17120000000E+03 0.  0.
        998    1    1    2    0    0  0.19844901430E+02  0.38477414583E+02  0.23179543143E+03  0.23580384556E+03  0.10000000000E-02 0. -1.
</event>
<event>
 5    1  0.5722211E-009  0.3883007E+03  0.7957747E-01  0.3415793E+00
         13   -1    0    0    0    0  0.00000000000E+00  0.00000000000E+00  0.14999999963E+04  0.15000000000E+04  0.10566000000E+00 0. -1.
        994   -1    0    0    0    0 -0.00000000000E+00 -0.00000000000E+00  0.11368683772E-12  0.17120000000E+03  0.17120000000E+03 0.  0.
         13    1    1    2    0    0  0.28845591414E+02 -0.22039932437E+03  0.12579063816E+04  0.12773943817E+04  0.10566000000E+00 0. -1.
        994    1    1    2    0    0 -0.29961074002E+02  0.22822518571E+03  0.19693785427E+03  0.34796315867E+03  0.17120000000E+03 0.  0.
        998    1    1    2    0    0  0.11154825886E+01 -0.78258613420E+01  0.45155760437E+02  0.45842459672E+02  0.10000000000E-02 0. -1.
</event>
<event>
 5    1  0.5722211E-009  0.3883006E+03  0.7957747E-01  0.3415794E+00
         13   -1    0    0    0    0  0.00000000000E+00  0.00000000000E+00  0.14999999963E+04  0.15000000000E+04  0.10566000000E+00 0.  1.
        994   -1    0    0    0    0 -0.00000000000E+00 -0.00000000000E+00  0.11368683772E-12  0.17120000000E+03  0.17120000000E+03 0.  0.
         13    1    1    2    0    0  0.10555862235E+03 -0.30112330393E+03  0.98115225377E+03  0.10317352486E+04  0.10566000000E+00 0.  1.
        994    1    1    2    0    0 -0.10726438051E+03  0.30628374562E+03  0.50222830274E+03  0.62197917026E+03  0.17120000000E+03 0.  0.
        998    1    1    2    0    0  0.17057581677E+01 -0.51604416914E+01  0.16619439766E+02  0.17485581161E+02  0.10000000000E-02 0.  1.
</event>
<event>
 5    1  0.5722211E-009  0.3883010E+03  0.7957747E-01  0.3415792E+00
         13   -1    0    0    0    0  0.00000000000E+00  0.00000000000E+00  0.14999999963E+04  0.15000000000E+04  0.10566000000E+00 0.  1.
        994   -1    0    0    0    0 -0.00000000000E+00 -0.00000000000E+00  0.11368683772E-12  0.17120000000E+03  0.17120000000E+03 0.  0.
         13    1    1    2    0    0 -0.16561144920E+03 -0.15936378913E+03  0.13024122961E+04  0.13225361128E+04  0.10566000000E+00 0.  1.
        994    1    1    2    0    0  0.16573628773E+03  0.15948806706E+03  0.19659336555E+03  0.34765406941E+03  0.17120000000E+03 0.  0.
        998    1    1    2    0    0 -0.12483852878E+00 -0.12427792394E+00  0.99433459384E+00  0.10098177782E+01  0.10000000000E-02 0.  1.
</event>
<event>
 5    1  0.5722211E-009  0.3883007E+03  0.7957747E-01  0.3415793E+00
         13   -1    0    0    0    0  0.00000000000E+00  0.00000000000E+00  0.14999999963E+04  0.15000000000E+04  0.10566000000E+00 0.  1.
        994   -1    0    0    0    0 -0.00000000000E+00 -0.00000000000E+00  0.11368683772E-12  0.17120000000E+03  0.17120000000E+03 0.  0.
         13    1    1    2    0    0  0.12122873638E+03 -0.23282333363E+03  0.12293778816E+04  0.12570891369E+04  0.10566000000E+00 0.  1.
        994    1    1    2    0    0 -0.12123547040E+03  0.23283813566E+03  0.27051990165E+03  0.41400735971E+03  0.17120000000E+03 0.  0.
        998    1    1    2    0    0  0.67340273064E-02 -0.14802027927E-01  0.10221301805E+00  0.10350337295E+00  0.10000000000E-02 0.  1.
</event>
<event>
 5    1  0.5722211E-009  0.3883009E+03  0.7957747E-01  0.3415792E+00
         13   -1    0    0    0    0  0.00000000000E+00  0.00000000000E+00  0.14999999963E+04  0.15000000000E+04  0.10566000000E+00 0. -1.
        994   -1    0    0    0    0 -0.00000000000E+00 -0.00000000000E+00  0.11368683772E-12  0.17120000000E+03  0.17120000000E+03 0.  0.
         13    1    1    2    0    0 -0.11490926380E+03 -0.23726215071E+03  0.11478645654E+04  0.11777480795E+04  0.10566000000E+00 0. -1.
        994    1    1    2    0    0  0.11976891764E+03  0.24719706285E+03  0.30394227273E+03  0.44400599846E+03  0.17120000000E+03 0.  0.
        998    1    1    2    0    0 -0.48596538354E+01 -0.99349121388E+01  0.48193158147E+02  0.49445922054E+02  0.10000000000E-02 0. -1.
</event>
<event>
 5    1  0.5722211E-009  0.3883003E+03  0.7957747E-01  0.3415795E+00
         13   -1    0    0    0    0  0.00000000000E+00  0.00000000000E+00  0.14999999963E+04  0.15000000000E+04  0.10566000000E+00 0. -1.
        994   -1    0    0    0    0 -0.00000000000E+00 -0.00000000000E+00  0.11368683772E-12  0.17120000000E+03  0.17120000000E+03 0.  0.
         13    1    1    2    0    0  0.11401487841E+03  0.21172225013E+03  0.12791543612E+04  0.13015612143E+04  0.10566000000E+00 0. -1.
        994    1    1    2    0    0 -0.11418563465E+03 -0.21199036281E+03  0.21898919273E+03  0.36775532575E+03  0.17120000000E+03 0.  0.
        998    1    1    2    0    0  0.17075624147E+00  0.26811267675E+00  0.18564423599E+01  0.18834599377E+01  0.10000000000E-02 0.  1.
</event>
<event>
 5    1  0.5722211E-009  0.3882881E+03  0.7957747E-01  0.3415846E+00
         13   -1    0    0    0    0  0.00000000000E+00  0.00000000000E+00  0.14999999963E+04  0.15000000000E+04  0.10566000000E+00 0.  1.
        994   -1    0    0    0    0 -0.00000000000E+00 -0.00000000000E+00  0.11368683772E-12  0.17120000000E+03  0.17120000000E+03 0.  0.
         13    1    1    2    0    0 -0.22343711483E+03 -0.63420382769E+02  0.12715865400E+04  0.12926247054E+04  0.10566000000E+00 0.  1.
        994    1    1    2    0    0  0.22656182018E+03  0.64756386348E+02  0.20806326593E+03  0.35794330636E+03  0.17120000000E+03 0.  0.
        998    1    1    2    0    0 -0.31247053502E+01 -0.13360035790E+01  0.20350190349E+02  0.20631988206E+02  0.10000000000E-02 0. -1.
</event>
<event>
 5    1  0.5722211E-009  0.3882998E+03  0.7957747E-01  0.3415797E+00
         13   -1    0    0    0    0  0.00000000000E+00  0.00000000000E+00  0.14999999963E+04  0.15000000000E+04  0.10566000000E+00 0.  1.
        994   -1    0    0    0    0 -0.00000000000E+00 -0.00000000000E+00  0.11368683772E-12  0.17120000000E+03  0.17120000000E+03 0.  0.
         13    1    1    2    0    0 -0.13708975976E+01 -0.32405544702E+03  0.99595896972E+03  0.10473528979E+04  0.10566000000E+00 0.  1.
        994    1    1    2    0    0  0.13404143867E+01  0.32454832689E+03  0.50239285925E+03  0.62212654518E+03  0.17120000000E+03 0.  0.
        998    1    1    2    0    0  0.30483210900E-01 -0.49287987441E+00  0.16481673083E+01  0.17205569659E+01  0.10000000000E-02 0. -1.
</event>
<event>
 5    1  0.5722211E-009  0.3882858E+03  0.7957747E-01  0.3415855E+00
         13   -1    0    0    0    0  0.00000000000E+00  0.00000000000E+00  0.14999999963E+04  0.15000000000E+04  0.10566000000E+00 0. -1.
        994   -1    0    0    0    0 -0.00000000000E+00 -0.00000000000E+00  0.11368683772E-12  0.17120000000E+03  0.17120000000E+03 0.  0.
         13    1    1    2    0    0 -0.21132182084E+03 -0.14436398961E+03  0.97989155373E+03  0.10127612461E+04  0.10566000000E+00 0. -1.
        994    1    1    2    0    0  0.24239004754E+03  0.16698335434E+03  0.36722559488E+03  0.50079981361E+03  0.17120000000E+03 0.  0.
        998    1    1    2    0    0 -0.31068226703E+02 -0.22619364732E+02  0.15288284766E+03  0.15763894025E+03  0.10000000000E-02 0. -1.
</event>
<event>
 5    1  0.5722211E-009  0.3883009E+03  0.7957747E-01  0.3415792E+00
         13   -1    0    0    0    0  0.00000000000E+00  0.00000000000E+00  0.14999999963E+04  0.15000000000E+04  0.10566000000E+00 0. -1.
        994   -1    0    0    0    0 -0.00000000000E+00 -0.00000000000E+00  0.11368683772E-12  0.17120000000E+03  0.17120000000E+03 0.  0.
         13    1    1    2    0    0  0.19370936449E+03 -0.21978267576E+03  0.11184564784E+04  0.11561888460E+04  0.10566000000E+00 0. -1.
        994    1    1    2    0    0 -0.19542096952E+03  0.22172195008E+03  0.37154365464E+03  0.50468218294E+03  0.17120000000E+03 0.  0.
        998    1    1    2    0    0  0.17116050266E+01 -0.19392743154E+01  0.99998632719E+01  0.10328971057E+02  0.10000000000E-02 0. -1.
</event>
<event>
 5    1  0.5722211E-009  0.3882953E+03  0.7957747E-01  0.3415816E+00
         13   -1    0    0    0    0  0.00000000000E+00  0.00000000000E+00  0.14999999963E+04  0.15000000000E+04  0.10566000000E+00 0. -1.
        994   -1    0    0    0    0 -0.00000000000E+00 -0.00000000000E+00  0.11368683772E-12  0.17120000000E+03  0.17120000000E+03 0.  0.
         13    1    1    2    0    0  0.19879972055E+03  0.22011556293E+03  0.11241256239E+04  0.11625964990E+04  0.10566000000E+00 0. -1.
        994    1    1    2    0    0 -0.19887530161E+03 -0.22013771467E+03  0.37564366037E+03  0.50835971377E+03  0.17120000000E+03 0.  0.
        998    1    1    2    0    0  0.75581068058E-01  0.22151740276E-01  0.23071199557E+00  0.24378724812E+00  0.10000000000E-02 0.  1.
</event>
<event>
 5    1  0.5722211E-009  0.3883010E+03  0.7957747E-01  0.3415792E+00
         13   -1    0    0    0    0  0.00000000000E+00  0.00000000000E+00  0.14999999963E+04  0.15000000000E+04  0.10566000000E+00 0. -1.
        994   -1    0    0    0    0 -0.00000000000E+00 -0.00000000000E+00  0.11368683772E-12  0.17120000000E+03  0.17120000000E+03 0.  0.
         13    1    1    2    0    0  0.24208886434E+03  0.95632989226E+02  0.12349545131E+04  0.12620876941E+04  0.10566000000E+00 0. -1.
        994    1    1    2    0    0 -0.24211851740E+03 -0.95644817290E+02  0.26489899543E+03  0.40896237642E+03  0.17120000000E+03 0.  0.
        998    1    1    2    0    0  0.29653058193E-01  0.11828063482E-01  0.14648770359E+00  0.14992949759E+00  0.10000000000E-02 0.  1.
</event>
<event>
 5    1  0.5722211E-009  0.3882970E+03  0.7957747E-01  0.3415808E+00
         13   -1    0    0    0    0  0.00000000000E+00  0.00000000000E+00  0.14999999963E+04  0.15000000000E+04  0.10566000000E+00 0. -1.
        994   -1    0    0    0    0 -0.00000000000E+00 -0.00000000000E+00  0.11368683772E-12  0.17120000000E+03  0.17120000000E+03 0.  0.
         13    1    1    2    0    0 -0.24811184374E+03 -0.88804431104E+02  0.11594952658E+04  0.11890647571E+04  0.10566000000E+00 0. -1.
        994    1    1    2    0    0  0.25696563750E+03  0.92412444709E+02  0.29932222000E+03  0.43985751122E+03  0.17120000000E+03 0.  0.
        998    1    1    2    0    0 -0.88537937591E+01 -0.36080136049E+01  0.41182510493E+02  0.42277731699E+02  0.10000000000E-02 0.  1.
</event>
<event>
 5    1  0.5722211E-009  0.3846897E+03  0.7957747E-01  0.3430989E+00
         13   -1    0    0    0    0  0.00000000000E+00  0.00000000000E+00  0.14999999963E+04  0.15000000000E+04  0.10566000000E+00 0.  1.
        994   -1    0    0    0    0 -0.00000000000E+00 -0.00000000000E+00  0.11368683772E-12  0.17120000000E+03  0.17120000000E+03 0.  0.
         13    1    1    2    0    0  0.12700666493E+02 -0.23848872287E+02  0.14587666438E+03  0.14835797253E+03  0.10566000000E+00 0.  1.
        994    1    1    2    0    0 -0.80356011217E+02  0.25193950417E+02  0.25489747523E+02  0.19248633953E+03  0.17120000000E+03 0.  0.
        998    1    1    2    0    0  0.67655344724E+02 -0.13450781297E+01  0.13286335844E+04  0.13303556879E+04  0.10000000000E-02 0.  1.
</event>
<event>
 5    1  0.5722211E-009  0.3882535E+03  0.7957747E-01  0.3415990E+00
         13   -1    0    0    0    0  0.00000000000E+00  0.00000000000E+00  0.14999999963E+04  0.15000000000E+04  0.10566000000E+00 0. -1.
        994   -1    0    0    0    0 -0.00000000000E+00 -0.00000000000E+00  0.11368683772E-12  0.17120000000E+03  0.17120000000E+03 0.  0.
         13    1    1    2    0    0  0.89934429310E+02 -0.26350117089E+03  0.11718457355E+04  0.12044681431E+04  0.10566000000E+00 0. -1.
        994    1    1    2    0    0 -0.90835707539E+02  0.26474796925E+03  0.31958188264E+03  0.45802252422E+03  0.17120000000E+03 0.  0.
        998    1    1    2    0    0  0.90127822956E+00 -0.12467983653E+01  0.85723781199E+01  0.87093327093E+01  0.10000000000E-02 0. -1.
</event>
<event>
 5    1  0.5722211E-009  0.3860532E+03  0.7957747E-01  0.3425218E+00
         13   -1    0    0    0    0  0.00000000000E+00  0.00000000000E+00  0.14999999963E+04  0.15000000000E+04  0.10566000000E+00 0. -1.
        994   -1    0    0    0    0 -0.00000000000E+00 -0.00000000000E+00  0.11368683772E-12  0.17120000000E+03  0.17120000000E+03 0.  0.
         13    1    1    2    0    0 -0.30243960541E+03  0.15143316964E+03  0.59954310610E+03  0.68837029789E+03  0.10566000000E+00 0. -1.
        994    1    1    2    0    0  0.31091505215E+03 -0.14613667799E+03  0.87952818703E+03  0.95963710334E+03  0.17120000000E+03 0.  0.
        998    1    1    2    0    0 -0.84754467431E+01 -0.52964916528E+01  0.20928703148E+02  0.23192598772E+02  0.10000000000E-02 0.  1.
</event>
<event>
 5    1  0.5722211E-009  0.3882996E+03  0.7957747E-01  0.3415797E+00
         13   -1    0    0    0    0  0.00000000000E+00  0.00000000000E+00  0.14999999963E+04  0.15000000000E+04  0.10566000000E+00 0.  1.
        994   -1    0    0    0    0 -0.00000000000E+00 -0.00000000000E+00  0.11368683772E-12  0.17120000000E+03  0.17120000000E+03 0.  0.
         13    1    1    2    0    0 -0.96564617348E+00  0.27812718268E+03  0.11358830110E+04  0.11694382789E+04  0.10566000000E+00 0.  1.
        994    1    1    2    0    0  0.96651035746E+00 -0.28520177627E+03  0.33614910418E+03  0.47291293869E+03  0.17120000000E+03 0.  0.
        998    1    1    2    0    0 -0.86418397927E-03  0.70745935987E+01  0.27967881077E+02  0.28848782440E+02  0.10000000000E-02 0.  1.
</event>
<event>
 5    1  0.5722211E-009  0.3883006E+03  0.7957747E-01  0.3415793E+00
         13   -1    0    0    0    0  0.00000000000E+00  0.00000000000E+00  0.14999999963E+04  0.15000000000E+04  0.10566000000E+00 0. -1.
        994   -1    0    0    0    0 -0.00000000000E+00 -0.00000000000E+00  0.11368683772E-12  0.17120000000E+03  0.17120000000E+03 0.  0.
         13    1    1    2    0    0 -0.10160986220E+03 -0.32734840507E+02  0.55450001873E+03  0.56468257969E+03  0.10566000000E+00 0. -1.
        994    1    1    2    0    0  0.23256835276E+03  0.75622657720E+02  0.22727861193E+03  0.37519572560E+03  0.17120000000E+03 0.  0.
        998    1    1    2    0    0 -0.13095849056E+03 -0.42887817213E+02  0.71822136562E+03  0.73132169471E+03  0.10000000000E-02 0. -1.
</event>
<event>
 5    1  0.5722211E-009  0.3883010E+03  0.7957747E-01  0.3415792E+00
         13   -1    0    0    0    0  0.00000000000E+00  0.00000000000E+00  0.14999999963E+04  0.15000000000E+04  0.10566000000E+00 0. -1.
        994   -1    0    0    0    0 -0.00000000000E+00 -0.00000000000E+00  0.11368683772E-12  0.17120000000E+03  0.17120000000E+03 0.  0.
         13    1    1    2    0    0 -0.11493695677E+03  0.11596920983E+03  0.96096213978E+03  0.97473463410E+03  0.10566000000E+00 0. -1.
        994    1    1    2    0    0  0.15737264588E+03 -0.15878333276E+03  0.18405040451E+03  0.33639602827E+03  0.17120000000E+03 0.  0.
        998    1    1    2    0    0 -0.42435689115E+02  0.42814122927E+02  0.35498745199E+03  0.36006933764E+03  0.10000000000E-02 0. -1.
</event>
<event>
 5    1  0.5722211E-009  0.3883008E+03  0.7957747E-01  0.3415793E+00
         13   -1    0    0    0    0  0.00000000000E+00  0.00000000000E+00  0.14999999963E+04  0.15000000000E+04  0.10566000000E+00 0.  1.
        994   -1    0    0    0    0 -0.00000000000E+00 -0.00000000000E+00  0.11368683772E-12  0.17120000000E+03  0.17120000000E+03 0.  0.
         13    1    1    2    0    0  0.14479471472E+03  0.15147221066E+03  0.12599605102E+04  0.12772665495E+04  0.10566000000E+00 0.  1.
        994    1    1    2    0    0 -0.15189697780E+03 -0.15905609829E+03  0.17727352435E+03  0.33031330083E+03  0.17120000000E+03 0.  0.
        998    1    1    2    0    0  0.71022630815E+01  0.75838876298E+01  0.62765961725E+02  0.63620149676E+02  0.10000000000E-02 0.  1.
</event>
<event>
 5    1  0.5722211E-009  0.3882950E+03  0.7957747E-01  0.3415817E+00
         13   -1    0    0    0    0  0.00000000000E+00  0.00000000000E+00  0.14999999963E+04  0.15000000000E+04  0.10566000000E+00 0. -1.
        994   -1    0    0    0    0 -0.00000000000E+00 -0.00000000000E+00  0.11368683772E-12  0.17120000000E+03  0.17120000000E+03 0.  0.
         13    1    1    2    0    0  0.23706798301E+03  0.12315205300E+03  0.12140941990E+04  0.12431381226E+04  0.10566000000E+00 0. -1.
        994    1    1    2    0    0 -0.23752167181E+03 -0.12327063233E+03  0.28406600750E+03  0.42616326682E+03  0.17120000000E+03 0.  0.
        998    1    1    2    0    0  0.45368879646E+00  0.11857932957E+00  0.18397897853E+01  0.18986105540E+01  0.10000000000E-02 0.  1.
</event>
<event>
 5    1  0.5722211E-009  0.3860781E+03  0.7957747E-01  0.3425113E+00
         13   -1    0    0    0    0  0.00000000000E+00  0.00000000000E+00  0.14999999963E+04  0.15000000000E+04  0.10566000000E+00 0. -1.
        994   -1    0    0    0    0 -0.00000000000E+00 -0.00000000000E+00  0.11368683772E-12  0.17120000000E+03  0.17120000000E+03 0.  0.
         13    1    1    2    0    0 -0.62764413778E+01 -0.37483442524E+02  0.22613152966E+03  0.22930303541E+03  0.10566000000E+00 0. -1.
        994    1    1    2    0    0  0.26075048631E+02  0.10794558989E+03  0.42608602351E+02  0.20846364559E+03  0.17120000000E+03 0.  0.
        998    1    1    2    0    0 -0.19798607253E+02 -0.70462147361E+02  0.12312598643E+04  0.12334333190E+04  0.10000000000E-02 0. -1.
</event>
<event>
 5    1  0.5722211E-009  0.3882986E+03  0.7957747E-01  0.3415802E+00
         13   -1    0    0    0    0  0.00000000000E+00  0.00000000000E+00  0.14999999963E+04  0.15000000000E+04  0.10566000000E+00 0.  1.
        994   -1    0    0    0    0 -0.00000000000E+00 -0.00000000000E+00  0.11368683772E-12  0.17120000000E+03  0.17120000000E+03 0.  0.
         13    1    1    2    0    0 -0.18618283739E+03 -0.11818740197E+03  0.13212864256E+04  0.13395634141E+04  0.10566000000E+00 0.  1.
        994    1    1    2    0    0  0.18621660553E+03  0.11818646064E+03  0.17842295652E+03  0.33134401318E+03  0.17120000000E+03 0.  0.
        998    1    1    2    0    0 -0.33768146126E-01  0.94132747422E-03  0.29061418960E+00  0.29257269351E+00  0.10000000000E-02 0. -1.
</event>
<event>
 5    1  0.5722211E-009  0.3883010E+03  0.7957747E-01  0.3415792E+00
         13   -1    0    0    0    0  0.00000000000E+00  0.00000000000E+00  0.14999999963E+04  0.15000000000E+04  0.10566000000E+00 0. -1.
        994   -1    0    0    0    0 -0.00000000000E+00 -0.00000000000E+00  0.11368683772E-12  0.17120000000E+03  0.17120000000E+03 0.  0.
         13    1    1    2    0    0  0.26890773455E+02  0.23843756575E+03  0.12757562485E+04  0.12981254189E+04  0.10566000000E+00 0. -1.
        994    1    1    2    0    0 -0.26992203549E+02 -0.23937779545E+03  0.21922239581E+03  0.36796495326E+03  0.17120000000E+03 0.  0.
        998    1    1    2    0    0  0.10143009407E+00  0.94022969715E+00  0.50213519352E+01  0.51096277951E+01  0.10000000000E-02 0. -1.
</event>
<event>
 5    1  0.5722211E-009  0.3883010E+03  0.7957747E-01  0.3415792E+00
         13   -1    0    0    0    0  0.00000000000E+00  0.00000000000E+00  0.14999999963E+04  0.15000000000E+04  0.10566000000E+00 0. -1.
        994   -1    0    0    0    0 -0.00000000000E+00 -0.00000000000E+00  0.11368683772E-12  0.17120000000E+03  0.17120000000E+03 0.  0.
         13    1    1    2    0    0 -0.19230702787E+03 -0.15377201800E+03  0.12679282384E+04  0.12916152118E+04  0.10566000000E+00 0. -1.
        994    1    1    2    0    0  0.19241537445E+03  0.15386084473E+03  0.23135751455E+03  0.37885693264E+03  0.17120000000E+03 0.  0.
        998    1    1    2    0    0 -0.10834658629E+00 -0.88826733240E-01  0.71424336270E+00  0.72785558489E+00  0.10000000000E-02 0.  1.
</event>
<event>
 5    1  0.5722211E-009  0.3882914E+03  0.7957747E-01  0.3415832E+00
         13   -1    0    0    0    0  0.00000000000E+00  0.00000000000E+00  0.14999999963E+04  0.15000000000E+04  0.10566000000E+00 0.  1.
        994   -1    0    0    0    0 -0.00000000000E+00 -0.00000000000E+00  0.11368683772E-12  0.17120000000E+03  0.17120000000E+03 0.  0.
         13    1    1    2    0    0 -0.38929869239E+02 -0.23465146369E+03  0.12810083607E+04  0.13029041697E+04  0.10566000000E+00 0.  1.
        994    1    1    2    0    0  0.38962568189E+02  0.23533212847E+03  0.21416609476E+03  0.36342241064E+03  0.17120000000E+03 0.  0.
        998    1    1    2    0    0 -0.32698949672E-01 -0.68066478212E+00  0.48255408064E+01  0.48734196250E+01  0.10000000000E-02 0.  1.
</event>
<event>
 5    1  0.5722211E-009  0.3882454E+03  0.7957747E-01  0.3416024E+00
         13   -1    0    0    0    0  0.00000000000E+00  0.00000000000E+00  0.14999999963E+04  0.15000000000E+04  0.10566000000E+00 0. -1.
        994   -1    0    0    0    0 -0.00000000000E+00 -0.00000000000E+00  0.11368683772E-12  0.17120000000E+03  0.17120000000E+03 0.  0.
         13    1    1    2    0    0 -0.13863635967E+03  0.10653183965E+03  0.85581943838E+03  0.87349641977E+03  0.10566000000E+00 0. -1.
        994    1    1    2    0    0  0.20068472161E+03 -0.15100664900E+03  0.24250743583E+03  0.38884014963E+03  0.17120000000E+03 0.  0.
        998    1    1    2    0    0 -0.62048361940E+02  0.44474809355E+02  0.40167312207E+03  0.40886343060E+03  0.10000000000E-02 0. -1.
</event>
<event>
 5    1  0.5722211E-009  0.3882936E+03  0.7957747E-01  0.3415823E+00
         13   -1    0    0    0    0  0.00000000000E+00  0.00000000000E+00  0.14999999963E+04  0.15000000000E+04  0.10566000000E+00 0.  1.
        994   -1    0    0    0    0 -0.00000000000E+00 -0.00000000000E+00  0.11368683772E-12  0.17120000000E+03  0.17120000000E+03 0.  0.
         13    1    1    2    0    0  0.21715515561E+03  0.26866008445E+02  0.13208501690E+04  0.13388514945E+04  0.10566000000E+00 0.  1.
        994    1    1    2    0    0 -0.21776981979E+03 -0.26897484963E+02  0.17634194405E+03  0.32947396003E+03  0.17120000000E+03 0.  0.
        998    1    1    2    0    0  0.61466417939E+00  0.31476518274E-01  0.28078831842E+01  0.28745454946E+01  0.10000000000E-02 0. -1.
</event>
<event>
 5    1  0.5722211E-009  0.3882934E+03  0.7957747E-01  0.3415823E+00
         13   -1    0    0    0    0  0.00000000000E+00  0.00000000000E+00  0.14999999963E+04  0.15000000000E+04  0.10566000000E+00 0.  1.
        994   -1    0    0    0    0 -0.00000000000E+00 -0.00000000000E+00  0.11368683772E-12  0.17120000000E+03  0.17120000000E+03 0.  0.
         13    1    1    2    0    0 -0.20332938230E+03  0.13682270411E+03  0.10764382907E+04  0.11039849161E+04  0.10566000000E+00 0.  1.
        994    1    1    2    0    0  0.22703206767E+03 -0.15153112928E+03  0.29898322699E+03  0.43955164988E+03  0.17120000000E+03 0.  0.
        998    1    1    2    0    0 -0.23702685372E+02  0.14708425172E+02  0.12457847858E+03  0.12766343404E+03  0.10000000000E-02 0. -1.
</event>
<event>
 5    1  0.5722211E-009  0.3843475E+03  0.7957747E-01  0.3432444E+00
         13   -1    0    0    0    0  0.00000000000E+00  0.00000000000E+00  0.14999999963E+04  0.15000000000E+04  0.10566000000E+00 0. -1.
        994   -1    0    0    0    0 -0.00000000000E+00 -0.00000000000E+00  0.11368683772E-12  0.17120000000E+03  0.17120000000E+03 0.  0.
         13    1    1    2    0    0 -0.25053706285E+02  0.14990593923E+03  0.79035463274E+03  0.80483534680E+03  0.10566000000E+00 0. -1.
        994    1    1    2    0    0  0.10594594098E+02 -0.20019790544E+03  0.14809019824E+03  0.30237657578E+03  0.17120000000E+03 0.  0.
        998    1    1    2    0    0  0.14459112187E+02  0.50291966211E+02  0.56155516530E+03  0.56398807742E+03  0.10000000000E-02 0.  1.
</event>
<event>
 5    1  0.5722211E-009  0.3874151E+03  0.7957747E-01  0.3419494E+00
         13   -1    0    0    0    0  0.00000000000E+00  0.00000000000E+00  0.14999999963E+04  0.15000000000E+04  0.10566000000E+00 0. -1.
        994   -1    0    0    0    0 -0.00000000000E+00 -0.00000000000E+00  0.11368683772E-12  0.17120000000E+03  0.17120000000E+03 0.  0.
         13    1    1    2    0    0  0.17389843770E+03  0.16508319570E+02  0.95111814986E+03  0.96702582045E+03  0.10566000000E+00 0. -1.
        994    1    1    2    0    0 -0.22068839011E+03 -0.13261125689E+02  0.18050249991E+03  0.33282099612E+03  0.17120000000E+03 0.  0.
        998    1    1    2    0    0  0.46789952411E+02 -0.32471938815E+01  0.36837934650E+03  0.37135318343E+03  0.10000000000E-02 0.  1.
</event>
<event>
 5    1  0.5722211E-009  0.3882349E+03  0.7957747E-01  0.3416067E+00
         13   -1    0    0    0    0  0.00000000000E+00  0.00000000000E+00  0.14999999963E+04  0.15000000000E+04  0.10566000000E+00 0.  1.
        994   -1    0    0    0    0 -0.00000000000E+00 -0.00000000000E+00  0.11368683772E-12  0.17120000000E+03  0.17120000000E+03 0.  0.
         13    1    1    2    0    0 -0.13505873111E+03 -0.22010514847E+03  0.12028798028E+04  0.12302873519E+04  0.10566000000E+00 0.  1.
        994    1    1    2    0    0  0.13653426313E+03  0.22518298481E+03  0.27280786318E+03  0.41603191208E+03  0.17120000000E+03 0.  0.
        998    1    1    2    0    0 -0.14755320213E+01 -0.50778363429E+01  0.24312330319E+02  0.24880735986E+02  0.10000000000E-02 0.  1.
</event>
<event>
 5    1  0.5722211E-009  0.3875597E+03  0.7957747E-01  0.3418888E+00
         13   -1    0    0    0    0  0.00000000000E+00  0.00000000000E+00  0.14999999963E+04  0.15000000000E+04  0.10566000000E+00 0. -1.
        994   -1    0    0    0    0 -0.00000000000E+00 -0.00000000000E+00  0.11368683772E-12  0.17120000000E+03  0.17120000000E+03 0.  0.
         13    1    1    2    0    0  0.14442388703E+03 -0.15820638642E+03  0.10433460016E+04  0.10651095766E+04  0.10566000000E+00 0. -1.
        994    1    1    2    0    0 -0.16007852371E+03  0.19648900686E+03  0.24909300360E+03  0.39444876475E+03  0.17120000000E+03 0.  0.
        998    1    1    2    0    0  0.15654636678E+02 -0.38282620442E+02  0.20756099103E+03  0.21164165865E+03  0.10000000000E-02 0.  1.
</event>
<event>
 5    1  0.5722211E-009  0.3882987E+03  0.7957747E-01  0.3415801E+00
         13   -1    0    0    0    0  0.00000000000E+00  0.00000000000E+00  0.14999999963E+04  0.15000000000E+04  0.10566000000E+00 0.  1.
        994   -1    0    0    0    0 -0.00000000000E+00 -0.00000000000E+00  0.11368683772E-12  0.17120000000E+03  0.17120000000E+03 0.  0.
         13    1    1    2    0    0 -0.34621341953E+02  0.29669924818E+03  0.11112018846E+04  0.11506514332E+04  0.10566000000E+00 0.  1.
        994    1    1    2    0    0  0.34628345155E+02 -0.29746216954E+03  0.38612673207E+03  0.51777037171E+03  0.17120000000E+03 0.  0.
        998    1    1    2    0    0 -0.70032017215E-02  0.76292136704E+00  0.26713796422E+01  0.27781951425E+01  0.10000000000E-02 0.  1.
</event>
<event>
 5    1  0.5722211E-009  0.3883003E+03  0.7957747E-01  0.3415795E+00
         13   -1    0    0    0    0  0.00000000000E+00  0.00000000000E+00  0.14999999963E+04  0.15000000000E+04  0.10566000000E+00 0. -1.
        994   -1    0    0    0    0 -0.00000000000E+00 -0.00000000000E+00  0.11368683772E-12  0.17120000000E+03  0.17120000000E+03 0.  0.
         13    1    1    2    0    0  0.80531998393E+02 -0.45361598366E+01  0.47216578447E+03  0.47900576061E+03  0.10566000000E+00 0. -1.
        994    1    1    2    0    0 -0.22494418845E+03  0.11785729023E+02  0.18728547883E+03  0.33929939862E+03  0.17120000000E+03 0.  0.
        998    1    1    2    0    0  0.14441219006E+03 -0.72495691866E+01  0.84054873298E+03  0.85289484077E+03  0.10000000000E-02 0.  1.
</event>
<event>
 5    1  0.5722211E-009  0.3758948E+03  0.7957747E-01  0.3469231E+00
         13   -1    0    0    0    0  0.00000000000E+00  0.00000000000E+00  0.14999999963E+04  0.15000000000E+04  0.10566000000E+00 0.  1.
        994   -1    0    0    0    0 -0.00000000000E+00 -0.00000000000E+00  0.11368683772E-12  0.17120000000E+03  0.17120000000E+03 0.  0.
         13    1    1    2    0    0  0.18635850190E+03 -0.68769752228E+01  0.59658187673E+03  0.62504938271E+03  0.10566000000E+00 0.  1.
        994    1    1    2    0    0 -0.24853771526E+03 -0.19262586719E+02  0.25885245725E+03  0.39806541897E+03  0.17120000000E+03 0.  0.
        998    1    1    2    0    0  0.62179213358E+02  0.26139561942E+02  0.64456566229E+03  0.64808519832E+03  0.10000000000E-02 0.  1.
</event>
<event>
 5    1  0.5722211E-009  0.3883010E+03  0.7957747E-01  0.3415792E+00
         13   -1    0    0    0    0  0.00000000000E+00  0.00000000000E+00  0.14999999963E+04  0.15000000000E+04  0.10566000000E+00 0. -1.
        994   -1    0    0    0    0 -0.00000000000E+00 -0.00000000000E+00  0.11368683772E-12  0.17120000000E+03  0.17120000000E+03 0.  0.
         13    1    1    2    0    0 -0.22464814718E+03 -0.45669190288E+02  0.12321411665E+04  0.12532854146E+04  0.10566000000E+00 0. -1.
        994    1    1    2    0    0  0.23425194236E+03  0.47582806347E+02  0.21521920402E+03  0.36437184543E+03  0.17120000000E+03 0.  0.
        998    1    1    2    0    0 -0.96037951814E+01 -0.19136160587E+01  0.52639625735E+02  0.53542740001E+02  0.10000000000E-02 0. -1.
</event>
<event>
 5    1  0.5722211E-009  0.3883003E+03  0.7957747E-01  0.3415795E+00
         13   -1    0    0    0    0  0.00000000000E+00  0.00000000000E+00  0.14999999963E+04  0.15000000000E+04  0.10566000000E+00 0. -1.
        994   -1    0    0    0    0 -0.00000000000E+00 -0.00000000000E+00  0.11368683772E-12  0.17120000000E+03  0.17120000000E+03 0.  0.
         13    1    1    2    0    0  0.16439591122E+03  0.16057783967E+03  0.13034199642E+04  0.13235236576E+04  0.10566000000E+00 0. -1.
        994    1    1    2    0    0 -0.16442603527E+03 -0.16060363217E+03  0.19626731374E+03  0.34736111783E+03  0.17120000000E+03 0.  0.
        998    1    1    2    0    0  0.30124047828E-01  0.25792498962E-01  0.31271838406E+00  0.31522452155E+00  0.10000000000E-02 0. -1.
</event>
<event>
 5    1  0.5722211E-009  0.3883010E+03  0.7957747E-01  0.3415792E+00
         13   -1    0    0    0    0  0.00000000000E+00  0.00000000000E+00  0.14999999963E+04  0.15000000000E+04  0.10566000000E+00 0.  1.
        994   -1    0    0    0    0 -0.00000000000E+00 -0.00000000000E+00  0.11368683772E-12  0.17120000000E+03  0.17120000000E+03 0.  0.
         13    1    1    2    0    0  0.24597482988E+03  0.74449468504E+02  0.12416852607E+04  0.12680018289E+04  0.10566000000E+00 0.  1.
        994    1    1    2    0    0 -0.24620811573E+03 -0.74519330960E+02  0.25713716150E+03  0.40199568003E+03  0.17120000000E+03 0.  0.
        998    1    1    2    0    0  0.23328585773E+00  0.69862456694E-01  0.11775740591E+01  0.12024910473E+01  0.10000000000E-02 0.  0.
</event>
<event>
 5    1  0.5722211E-009  0.3879305E+03  0.7957747E-01  0.3417338E+00
         13   -1    0    0    0    0  0.00000000000E+00  0.00000000000E+00  0.14999999963E+04  0.15000000000E+04  0.10566000000E+00 0. -1.
        994   -1    0    0    0    0 -0.00000000000E+00 -0.00000000000E+00  0.11368683772E-12  0.17120000000E+03  0.17120000000E+03 0.  0.
         13    1    1    2    0    0 -0.25623624076E+03 -0.93520532195E+02  0.10819006645E+04  0.11157563175E+04  0.10566000000E+00 0. -1.
        994    1    1    2    0    0  0.27504210532E+03  0.95079497590E+02  0.35645806280E+03  0.49097867682E+03  0.17120000000E+03 0.  0.
        998    1    1    2    0    0 -0.18805864561E+02 -0.15589653953E+01  0.61641269013E+02  0.64465005712E+02  0.10000000000E-02 0. -1.
</event>
<event>
 5    1  0.5722211E-009  0.3883010E+03  0.7957747E-01  0.3415792E+00
         13   -1    0    0    0    0  0.00000000000E+00  0.00000000000E+00  0.14999999963E+04  0.15000000000E+04  0.10566000000E+00 0. -1.
        994   -1    0    0    0    0 -0.00000000000E+00 -0.00000000000E+00  0.11368683772E-12  0.17120000000E+03  0.17120000000E+03 0.  0.
         13    1    1    2    0    0  0.10343765330E+03 -0.20805265356E+03  0.12966002640E+04  0.13172537760E+04  0.10566000000E+00 0. -1.
        994    1    1    2    0    0 -0.10356699543E+03  0.20830009806E+03  0.20185763795E+03  0.35237905640E+03  0.17120000000E+03 0.  0.
        998    1    1    2    0    0  0.12934212941E+00 -0.24744450020E+00  0.15420943438E+01  0.15671675508E+01  0.10000000000E-02 0. -1.
</event>
<event>
 5    1  0.5722211E-009  0.3883007E+03  0.7957747E-01  0.3415793E+00
         13   -1    0    0    0    0  0.00000000000E+00  0.00000000000E+00  0.14999999963E+04  0.15000000000E+04  0.10566000000E+00 0. -1.
        994   -1    0    0    0    0 -0.00000000000E+00 -0.00000000000E+00  0.11368683772E-12  0.17120000000E+03  0.17120000000E+03 0.  0.
         13    1    1    2    0    0 -0.52640015485E+01 -0.25593340318E+03  0.12281298295E+04  0.12545248128E+04  0.10566000000E+00 0. -1.
        994    1    1    2    0    0  0.52760082579E+01  0.25841395014E+03  0.26020418898E+03  0.40474839821E+03  0.17120000000E+03 0.  0.
        998    1    1    2    0    0 -0.12006709444E-01 -0.24805469645E+01  0.11665977766E+02  0.11926788991E+02  0.10000000000E-02 0.  1.
</event>
<event>
 5    1  0.5722211E-009  0.3882677E+03  0.7957747E-01  0.3415931E+00
         13   -1    0    0    0    0  0.00000000000E+00  0.00000000000E+00  0.14999999963E+04  0.15000000000E+04  0.10566000000E+00 0. -1.
        994   -1    0    0    0    0 -0.00000000000E+00 -0.00000000000E+00  0.11368683772E-12  0.17120000000E+03  0.17120000000E+03 0.  0.
         13    1    1    2    0    0  0.17680258489E+03 -0.15817525148E+03  0.12501894373E+04  0.12724984105E+04  0.10566000000E+00 0. -1.
        994    1    1    2    0    0 -0.18055486659E+03  0.16250309913E+03  0.22368808616E+03  0.37195848823E+03  0.17120000000E+03 0.  0.
        998    1    1    2    0    0  0.37522816933E+01 -0.43278476488E+01  0.26122472775E+02  0.26743101317E+02  0.10000000000E-02 0.  1.
</event>
<event>
 5    1  0.5722211E-009  0.3876222E+03  0.7957747E-01  0.3418627E+00
         13   -1    0    0    0    0  0.00000000000E+00  0.00000000000E+00  0.14999999963E+04  0.15000000000E+04  0.10566000000E+00 0. -1.
        994   -1    0    0    0    0 -0.00000000000E+00 -0.00000000000E+00  0.11368683772E-12  0.17120000000E+03  0.17120000000E+03 0.  0.
         13    1    1    2    0    0  0.19396825292E+03 -0.48030982794E+02  0.12073497834E+04  0.12237745582E+04  0.10566000000E+00 0. -1.
        994    1    1    2    0    0 -0.20458999335E+03  0.51591509484E+02  0.16209514713E+03  0.31639062241E+03  0.17120000000E+03 0.  0.
        998    1    1    2    0    0  0.10621740424E+02 -0.35605266898E+01  0.13055506570E+03  0.13103481943E+03  0.10000000000E-02 0. -1.
</event>
<event>
 5    1  0.5722211E-009  0.3883001E+03  0.7957747E-01  0.3415795E+00
         13   -1    0    0    0    0  0.00000000000E+00  0.00000000000E+00  0.14999999963E+04  0.15000000000E+04  0.10566000000E+00 0.  1.
        994   -1    0    0    0    0 -0.00000000000E+00 -0.00000000000E+00  0.11368683772E-12  0.17120000000E+03  0.17120000000E+03 0.  0.
         13    1    1    2    0    0  0.20762347980E+03 -0.74238175783E+02  0.13112764596E+04  0.13296859707E+04  0.10566000000E+00 0.  1.
        994    1    1    2    0    0 -0.20886384393E+03  0.74771313483E+02  0.18082195485E+03  0.33349793699E+03  0.17120000000E+03 0.  0.
        998    1    1    2    0    0  0.12403641279E+01 -0.53313769952E+00  0.79015818278E+01  0.80160922748E+01  0.10000000000E-02 0.  1.
</event>
<event>
 5    1  0.5722211E-009  0.3882995E+03  0.7957747E-01  0.3415798E+00
         13   -1    0    0    0    0  0.00000000000E+00  0.00000000000E+00  0.14999999963E+04  0.15000000000E+04  0.10566000000E+00 0. -1.
        994   -1    0    0    0    0 -0.00000000000E+00 -0.00000000000E+00  0.11368683772E-12  0.17120000000E+03  0.17120000000E+03 0.  0.
         13    1    1    2    0    0  0.23167283375E+03 -0.19032114983E+02  0.12955121589E+04  0.13162014619E+04  0.10566000000E+00 0. -1.
        994    1    1    2    0    0 -0.23210082171E+03  0.19030462412E+02  0.20237499178E+03  0.35284277977E+03  0.17120000000E+03 0.  0.
        998    1    1    2    0    0  0.42798795794E+00  0.16525705049E-02  0.21128456337E+01  0.21557583573E+01  0.10000000000E-02 0.  1.
</event>
<event>
 5    1  0.5722211E-009  0.3883001E+03  0.7957747E-01  0.3415796E+00
         13   -1    0    0    0    0  0.00000000000E+00  0.00000000000E+00  0.14999999963E+04  0.15000000000E+04  0.10566000000E+00 0.  1.
        994   -1    0    0    0    0 -0.00000000000E+00 -0.00000000000E+00  0.11368683772E-12  0.17120000000E+03  0.17120000000E+03 0.  0.
         13    1    1    2    0    0  0.15579119204E+02  0.22739803153E+03  0.12741636001E+04  0.12943899972E+04  0.10566000000E+00 0.  1.
        994    1    1    2    0    0 -0.16008754534E+02 -0.23170763707E+03  0.20111496927E+03  0.35171206997E+03  0.17120000000E+03 0.  0.
        998    1    1    2    0    0  0.42963533001E+00  0.43096055369E+01  0.24721426884E+02  0.25097932875E+02  0.10000000000E-02 0.  1.
</event>
<event>
 5    1  0.5722211E-009  0.3879225E+03  0.7957747E-01  0.3417371E+00
         13   -1    0    0    0    0  0.00000000000E+00  0.00000000000E+00  0.14999999963E+04  0.15000000000E+04  0.10566000000E+00 0. -1.
        994   -1    0    0    0    0 -0.00000000000E+00 -0.00000000000E+00  0.11368683772E-12  0.17120000000E+03  0.17120000000E+03 0.  0.
         13    1    1    2    0    0  0.12973173963E+03  0.12141721024E+03  0.10085078247E+04  0.10240412623E+04  0.10566000000E+00 0. -1.
        994    1    1    2    0    0 -0.16256332192E+03 -0.14819002606E+03  0.17780182456E+03  0.33062069850E+03  0.17120000000E+03 0.  0.
        998    1    1    2    0    0  0.32831582288E+02  0.26772815814E+02  0.31369034702E+03  0.31653803922E+03  0.10000000000E-02 0. -1.
</event>
<event>
 5    1  0.5722211E-009  0.3882561E+03  0.7957747E-01  0.3415979E+00
         13   -1    0    0    0    0  0.00000000000E+00  0.00000000000E+00  0.14999999963E+04  0.15000000000E+04  0.10566000000E+00 0. -1.
        994   -1    0    0    0    0 -0.00000000000E+00 -0.00000000000E+00  0.11368683772E-12  0.17120000000E+03  0.17120000000E+03 0.  0.
         13    1    1    2    0    0 -0.14362275125E+03  0.18509332724E+03  0.12833467822E+04  0.13045558665E+04  0.10566000000E+00 0. -1.
        994    1    1    2    0    0  0.14413465501E+03 -0.18597055516E+03  0.20738476896E+03  0.35732020452E+03  0.17120000000E+03 0.  0.
        998    1    1    2    0    0 -0.51190375967E+00  0.87722792569E+00  0.92684451460E+01  0.93239289314E+01  0.10000000000E-02 0. -1.
</event>
<event>
 5    1  0.5722211E-009  0.3879850E+03  0.7957747E-01  0.3417110E+00
         13   -1    0    0    0    0  0.00000000000E+00  0.00000000000E+00  0.14999999963E+04  0.15000000000E+04  0.10566000000E+00 0.  1.
        994   -1    0    0    0    0 -0.00000000000E+00 -0.00000000000E+00  0.11368683772E-12  0.17120000000E+03  0.17120000000E+03 0.  0.
         13    1    1    2    0    0  0.16403568707E+03 -0.27580783876E+02  0.45094672945E+03  0.48064682485E+03  0.10566000000E+00 0.  1.
        994    1    1    2    0    0 -0.33601587503E+03  0.60037412652E+02  0.63415716678E+03  0.74025395059E+03  0.17120000000E+03 0.  0.
        998    1    1    2    0    0  0.17198018796E+03 -0.32456628775E+02  0.41489610005E+03  0.45029922456E+03  0.10000000000E-02 0.  1.
</event>
<event>
 5    1  0.5722211E-009  0.3883010E+03  0.7957747E-01  0.3415792E+00
         13   -1    0    0    0    0  0.00000000000E+00  0.00000000000E+00  0.14999999963E+04  0.15000000000E+04  0.10566000000E+00 0.  1.
        994   -1    0    0    0    0 -0.00000000000E+00 -0.00000000000E+00  0.11368683772E-12  0.17120000000E+03  0.17120000000E+03 0.  0.
         13    1    1    2    0    0  0.25525142411E+03 -0.33072002291E+02  0.12394888658E+04  0.12659303718E+04  0.10566000000E+00 0.  1.
        994    1    1    2    0    0 -0.25565987059E+03  0.33124320668E+02  0.25852607348E+03  0.40324231018E+03  0.17120000000E+03 0.  0.
        998    1    1    2    0    0  0.40844648203E+00 -0.52318376511E-01  0.19850570334E+01  0.20273179738E+01  0.10000000000E-02 0.  1.
</event>
<event>
 5    1  0.5722211E-009  0.3883010E+03  0.7957747E-01  0.3415792E+00
         13   -1    0    0    0    0  0.00000000000E+00  0.00000000000E+00  0.14999999963E+04  0.15000000000E+04  0.10566000000E+00 0. -1.
        994   -1    0    0    0    0 -0.00000000000E+00 -0.00000000000E+00  0.11368683772E-12  0.17120000000E+03  0.17120000000E+03 0.  0.
         13    1    1    2    0    0  0.22253513648E+03  0.16044094748E+03  0.11691564478E+04  0.12009121513E+04  0.10566000000E+00 0. -1.
        994    1    1    2    0    0 -0.22565574191E+03 -0.16271941563E+03  0.31434723199E+03  0.45334506100E+03  0.17120000000E+03 0.  0.
        998    1    1    2    0    0  0.31206054317E+01  0.22784681458E+01  0.16496316469E+02  0.16942787651E+02  0.10000000000E-02 0. -1.
</event>
<event>
 5    1  0.5722211E-009  0.3883008E+03  0.7957747E-01  0.3415793E+00
         13   -1    0    0    0    0  0.00000000000E+00  0.00000000000E+00  0.14999999963E+04  0.15000000000E+04  0.10566000000E+00 0.  1.
        994   -1    0    0    0    0 -0.00000000000E+00 -0.00000000000E+00  0.11368683772E-12  0.17120000000E+03  0.17120000000E+03 0.  0.
         13    1    1    2    0    0 -0.19533646343E+03  0.23454628599E+03  0.10867612362E+04  0.11288127790E+04  0.10566000000E+00 0.  1.
        994    1    1    2    0    0  0.19570639486E+03 -0.23497918743E+03  0.41128748935E+03  0.54035455990E+03  0.17120000000E+03 0.  0.
        998    1    1    2    0    0 -0.36993142849E+00  0.43290143672E+00  0.19512706828E+01  0.20326611113E+01  0.10000000000E-02 0. -1.
</event>
<event>
 5    1  0.5722211E-009  0.3882996E+03  0.7957747E-01  0.3415798E+00
         13   -1    0    0    0    0  0.00000000000E+00  0.00000000000E+00  0.14999999963E+04  0.15000000000E+04  0.10566000000E+00 0.  1.
        994   -1    0    0    0    0 -0.00000000000E+00 -0.00000000000E+00  0.11368683772E-12  0.17120000000E+03  0.17120000000E+03 0.  0.
         13    1    1    2    0    0 -0.23837766185E+03 -0.12875155815E+03  0.11336689466E+04  0.11655926240E+04  0.10566000000E+00 0.  1.
        994    1    1    2    0    0  0.24735307974E+03  0.13342062885E+03  0.32299923504E+03  0.46111013446E+03  0.17120000000E+03 0.  0.
        998    1    1    2    0    0 -0.89754178907E+01 -0.46690707015E+01  0.43331814634E+02  0.44497241578E+02  0.10000000000E-02 0. -1.
</event>
<event>
 5    1  0.5722211E-009  0.3882999E+03  0.7957747E-01  0.3415796E+00
         13   -1    0    0    0    0  0.00000000000E+00  0.00000000000E+00  0.14999999963E+04  0.15000000000E+04  0.10566000000E+00 0. -1.
        994   -1    0    0    0    0 -0.00000000000E+00 -0.00000000000E+00  0.11368683772E-12  0.17120000000E+03  0.17120000000E+03 0.  0.
         13    1    1    2    0    0  0.14534000891E+03 -0.39589414113E+02  0.66479941397E+03  0.68165189934E+03  0.10566000000E+00 0. -1.
        994    1    1    2    0    0 -0.26300628539E+03  0.72607237536E+02  0.29865028302E+03  0.43925567571E+03  0.17120000000E+03 0.  0.
        998    1    1    2    0    0  0.11766627648E+03 -0.33017823423E+02  0.53655029929E+03  0.55029242495E+03  0.10000000000E-02 0. -1.
</event>
<event>
 5    1  0.5722211E-009  0.3883010E+03  0.7957747E-01  0.3415792E+00
         13   -1    0    0    0    0  0.00000000000E+00  0.00000000000E+00  0.14999999963E+04  0.15000000000E+04  0.10566000000E+00 0.  1.
        994   -1    0    0    0    0 -0.00000000000E+00 -0.00000000000E+00  0.11368683772E-12  0.17120000000E+03  0.17120000000E+03 0.  0.
         13    1    1    2    0    0  0.15419972009E+03  0.17167901184E+03  0.12382014857E+04  0.12595214040E+04  0.10566000000E+00 0.  1.
        994    1    1    2    0    0 -0.15992528821E+03 -0.17802294643E+03  0.21580152166E+03  0.36489451081E+03  0.17120000000E+03 0.  0.
        998    1    1    2    0    0  0.57255681198E+01  0.63439345911E+01  0.45996988960E+02  0.46784085230E+02  0.10000000000E-02 0.  1.
</event>
<event>
 5    1  0.5722211E-009  0.3877770E+03  0.7957747E-01  0.3417980E+00
         13   -1    0    0    0    0  0.00000000000E+00  0.00000000000E+00  0.14999999963E+04  0.15000000000E+04  0.10566000000E+00 0.  1.
        994   -1    0    0    0    0 -0.00000000000E+00 -0.00000000000E+00  0.11368683772E-12  0.17120000000E+03  0.17120000000E+03 0.  0.
         13    1    1    2    0    0 -0.42073854701E+02  0.21987900640E+03  0.65244274731E+03  0.68978151352E+03  0.10566000000E+00 0.  1.
        994    1    1    2    0    0  0.46511535118E+02 -0.32232312797E+03  0.51158097134E+03  0.63014288218E+03  0.17120000000E+03 0.  0.
        998    1    1    2    0    0 -0.44376804170E+01  0.10244412157E+03  0.33597627763E+03  0.35127560430E+03  0.10000000000E-02 0.  1.
</event>
<event>
 5    1  0.5722211E-009  0.3883007E+03  0.7957747E-01  0.3415793E+00
         13   -1    0    0    0    0  0.00000000000E+00  0.00000000000E+00  0.14999999963E+04  0.15000000000E+04  0.10566000000E+00 0. -1.
        994   -1    0    0    0    0 -0.00000000000E+00 -0.00000000000E+00  0.11368683772E-12  0.17120000000E+03  0.17120000000E+03 0.  0.
         13    1    1    2    0    0  0.28398461742E+03 -0.16028335927E+02  0.10810022199E+04  0.11177969320E+04  0.10566000000E+00 0. -1.
        994    1    1    2    0    0 -0.29571468535E+03  0.16694696506E+02  0.37385847085E+03  0.50675978949E+03  0.17120000000E+03 0.  0.
        998    1    1    2    0    0  0.11730067926E+02 -0.66636057935E+00  0.45139305481E+02  0.46643278512E+02  0.10000000000E-02 0. -1.
</event>
<event>
 5    1  0.5722211E-009  0.3882241E+03  0.7957747E-01  0.3416113E+00
         13   -1    0    0    0    0  0.00000000000E+00  0.00000000000E+00  0.14999999963E+04  0.15000000000E+04  0.10566000000E+00 0. -1.
        994   -1    0    0    0    0 -0.00000000000E+00 -0.00000000000E+00  0.11368683772E-12  0.17120000000E+03  0.17120000000E+03 0.  0.
         13    1    1    2    0    0  0.12597363641E+03 -0.19717282657E+03  0.12939440552E+04  0.13149287850E+04  0.10566000000E+00 0. -1.
        994    1    1    2    0    0 -0.12631454035E+03  0.19728106874E+03  0.20529452147E+03  0.35542997022E+03  0.17120000000E+03 0.  0.
        998    1    1    2    0    0  0.34090394575E+00 -0.10824216548E+00  0.76141965511E+00  0.84124476688E+00  0.10000000000E-02 0.  1.
</event>
<event>
 5    1  0.5722211E-009  0.3882943E+03  0.7957747E-01  0.3415820E+00
         13   -1    0    0    0    0  0.00000000000E+00  0.00000000000E+00  0.14999999963E+04  0.15000000000E+04  0.10566000000E+00 0. -1.
        994   -1    0    0    0    0 -0.00000000000E+00 -0.00000000000E+00  0.11368683772E-12  0.17120000000E+03  0.17120000000E+03 0.  0.
         13    1    1    2    0    0 -0.15765717762E+03 -0.16646933304E+03  0.12723647956E+04  0.12928573041E+04  0.10566000000E+00 0. -1.
        994    1    1    2    0    0  0.16097760121E+03  0.16938841431E+03  0.20401701133E+03  0.35431427280E+03  0.17120000000E+03 0.  0.
        998    1    1    2    0    0 -0.33204235878E+01 -0.29190812727E+01  0.23618189303E+02  0.24028423070E+02  0.10000000000E-02 0.  1.
</event>
<event>
 5    1  0.5722211E-009  0.3883010E+03  0.7957747E-01  0.3415792E+00
         13   -1    0    0    0    0  0.00000000000E+00  0.00000000000E+00  0.14999999963E+04  0.15000000000E+04  0.10566000000E+00 0.  1.
        994   -1    0    0    0    0 -0.00000000000E+00 -0.00000000000E+00  0.11368683772E-12  0.17120000000E+03  0.17120000000E+03 0.  0.
         13    1    1    2    0    0  0.37443060481E+02 -0.26486048612E+03  0.11413304958E+04  0.11722578094E+04  0.10566000000E+00 0.  1.
        994    1    1    2    0    0 -0.38912854861E+02  0.27527707845E+03  0.31377250894E+03  0.45282922560E+03  0.17120000000E+03 0.  0.
        998    1    1    2    0    0  0.14697943796E+01 -0.10416592321E+02  0.44896991500E+02  0.46112964965E+02  0.10000000000E-02 0. -1.
</event>
<event>
 5    1  0.5722211E-009  0.3883010E+03  0.7957747E-01  0.3415792E+00
         13   -1    0    0    0    0  0.00000000000E+00  0.00000000000E+00  0.14999999963E+04  0.15000000000E+04  0.10566000000E+00 0. -1.
        994   -1    0    0    0    0 -0.00000000000E+00 -0.00000000000E+00  0.11368683772E-12  0.17120000000E+03  0.17120000000E+03 0.  0.
         13    1    1    2    0    0  0.96915323768E+02 -0.20301563480E+03  0.13110663386E+04  0.13302266286E+04  0.10566000000E+00 0. -1.
        994    1    1    2    0    0 -0.97039780426E+02  0.20327077152E+03  0.18727154155E+03  0.33928718782E+03  0.17120000000E+03 0.  0.
        998    1    1    2    0    0  0.12445665799E+00 -0.25513671594E+00  0.16621160759E+01  0.16861835764E+01  0.10000000000E-02 0.  1.
</event>
<event>
 5    1  0.5722211E-009  0.3883010E+03  0.7957747E-01  0.3415792E+00
         13   -1    0    0    0    0  0.00000000000E+00  0.00000000000E+00  0.14999999963E+04  0.15000000000E+04  0.10566000000E+00 0. -1.
        994   -1    0    0    0    0 -0.00000000000E+00 -0.00000000000E+00  0.11368683772E-12  0.17120000000E+03  0.17120000000E+03 0.  0.
         13    1    1    2    0    0 -0.26129342706E+03  0.52532932465E+02  0.12025897382E+04  0.12317694807E+04  0.10566000000E+00 0. -1.
        994    1    1    2    0    0  0.26349247178E+03 -0.52981139929E+02  0.28722925096E+03  0.42900508910E+03  0.17120000000E+03 0.  0.
        998    1    1    2    0    0 -0.21990447178E+01  0.44820746410E+00  0.10181007089E+02  0.10425430156E+02  0.10000000000E-02 0. -1.
</event>
<event>
 5    1  0.5722211E-009  0.3882402E+03  0.7957747E-01  0.3416045E+00
         13   -1    0    0    0    0  0.00000000000E+00  0.00000000000E+00  0.14999999963E+04  0.15000000000E+04  0.10566000000E+00 0.  1.
        994   -1    0    0    0    0 -0.00000000000E+00 -0.00000000000E+00  0.11368683772E-12  0.17120000000E+03  0.17120000000E+03 0.  0.
         13    1    1    2    0    0  0.26450437974E+03  0.94411425005E+02  0.11280235745E+04  0.11624600122E+04  0.10566000000E+00 0.  1.
        994    1    1    2    0    0 -0.26998920460E+03 -0.97214559392E+02  0.34201202352E+03  0.47814904098E+03  0.17120000000E+03 0.  0.
        998    1    1    2    0    0  0.54848248567E+01  0.28031343871E+01  0.29964398218E+02  0.30590946825E+02  0.10000000000E-02 0.  1.
</event>
<event>
 5    1  0.5722211E-009  0.3883010E+03  0.7957747E-01  0.3415792E+00
         13   -1    0    0    0    0  0.00000000000E+00  0.00000000000E+00  0.14999999963E+04  0.15000000000E+04  0.10566000000E+00 0.  1.
        994   -1    0    0    0    0 -0.00000000000E+00 -0.00000000000E+00  0.11368683772E-12  0.17120000000E+03  0.17120000000E+03 0.  0.
         13    1    1    2    0    0 -0.19837739748E+03  0.98628808506E+02  0.12874243461E+04  0.13063470794E+04  0.10566000000E+00 0.  1.
        994    1    1    2    0    0  0.20213566684E+03 -0.10048335326E+03  0.18821039934E+03  0.34012986713E+03  0.17120000000E+03 0.  0.
        998    1    1    2    0    0 -0.37582693586E+01  0.18545447536E+01  0.24365250792E+02  0.24723053451E+02  0.10000000000E-02 0. -1.
</event>
<event>
 5    1  0.5722211E-009  0.3882995E+03  0.7957747E-01  0.3415798E+00
         13   -1    0    0    0    0  0.00000000000E+00  0.00000000000E+00  0.14999999963E+04  0.15000000000E+04  0.10566000000E+00 0. -1.
        994   -1    0    0    0    0 -0.00000000000E+00 -0.00000000000E+00  0.11368683772E-12  0.17120000000E+03  0.17120000000E+03 0.  0.
         13    1    1    2    0    0  0.20838221844E+03  0.20377551962E+03  0.10296719444E+04  0.10701270652E+04  0.10566000000E+00 0. -1.
        994    1    1    2    0    0 -0.21921436048E+03 -0.21483022614E+03  0.41600665175E+03  0.54458969528E+03  0.17120000000E+03 0.  0.
        998    1    1    2    0    0  0.10832142045E+02  0.11054706518E+02  0.54321400126E+02  0.56483239551E+02  0.10000000000E-02 0.  1.
</event>
<event>
 5    1  0.5722211E-009  0.3790799E+03  0.7957747E-01  0.3455175E+00
         13   -1    0    0    0    0  0.00000000000E+00  0.00000000000E+00  0.14999999963E+04  0.15000000000E+04  0.10566000000E+00 0.  1.
        994   -1    0    0    0    0 -0.00000000000E+00 -0.00000000000E+00  0.11368683772E-12  0.17120000000E+03  0.17120000000E+03 0.  0.
         13    1    1    2    0    0 -0.68459091379E+02  0.52391780931E+02  0.19517889812E+03  0.21336906837E+03  0.10566000000E+00 0.  1.
        994    1    1    2    0    0  0.21738852433E+03 -0.14336530086E+03  0.28220028136E+03  0.42042575896E+03  0.17120000000E+03 0.  0.
        998    1    1    2    0    0 -0.14892943295E+03  0.90973519928E+02  0.10226208168E+04  0.10374051727E+04  0.10000000000E-02 0.  1.
</event>
<event>
 5    1  0.5722211E-009  0.3767922E+03  0.7957747E-01  0.3465246E+00
         13   -1    0    0    0    0  0.00000000000E+00  0.00000000000E+00  0.14999999963E+04  0.15000000000E+04  0.10566000000E+00 0. -1.
        994   -1    0    0    0    0 -0.00000000000E+00 -0.00000000000E+00  0.11368683772E-12  0.17120000000E+03  0.17120000000E+03 0.  0.
         13    1    1    2    0    0 -0.20921234356E+03  0.10065826766E+03  0.77293737027E+03  0.80705271269E+03  0.10566000000E+00 0. -1.
        994    1    1    2    0    0  0.28670616990E+03 -0.59391188016E+02  0.39481869566E+03  0.52049878340E+03  0.17120000000E+03 0.  0.
        998    1    1    2    0    0 -0.77493826348E+02 -0.41267079641E+02  0.33224393035E+03  0.34364850391E+03  0.10000000000E-02 0.  1.
</event>
<event>
 5    1  0.5722211E-009  0.3882912E+03  0.7957747E-01  0.3415833E+00
         13   -1    0    0    0    0  0.00000000000E+00  0.00000000000E+00  0.14999999963E+04  0.15000000000E+04  0.10566000000E+00 0.  1.
        994   -1    0    0    0    0 -0.00000000000E+00 -0.00000000000E+00  0.11368683772E-12  0.17120000000E+03  0.17120000000E+03 0.  0.
         13    1    1    2    0    0 -0.21004936995E+03 -0.88284220723E+02  0.11027147334E+04  0.11260082752E+04  0.10566000000E+00 0.  1.
        994    1    1    2    0    0  0.23599262455E+03  0.99290765771E+02  0.25417004374E+03  0.39932821857E+03  0.17120000000E+03 0.  0.
        998    1    1    2    0    0 -0.25943254607E+02 -0.11006545048E+02  0.14311521918E+03  0.14586350625E+03  0.10000000000E-02 0. -1.
</event>
<event>
 5    1  0.5722211E-009  0.3883008E+03  0.7957747E-01  0.3415793E+00
         13   -1    0    0    0    0  0.00000000000E+00  0.00000000000E+00  0.14999999963E+04  0.15000000000E+04  0.10566000000E+00 0.  1.
        994   -1    0    0    0    0 -0.00000000000E+00 -0.00000000000E+00  0.11368683772E-12  0.17120000000E+03  0.17120000000E+03 0.  0.
         13    1    1    2    0    0 -0.18902994581E+03  0.14574265935E+03  0.12854030112E+04  0.13073768223E+04  0.10566000000E+00 0.  1.
        994    1    1    2    0    0  0.18904056674E+03 -0.14575562396E+03  0.21451763295E+03  0.36374206883E+03  0.17120000000E+03 0.  0.
        998    1    1    2    0    0 -0.10620933249E-01  0.12964608971E-01  0.79352147660E-01  0.81108869103E-01  0.10000000000E-02 0. -1.
</event>
<event>
 5    1  0.5722211E-009  0.3882965E+03  0.7957747E-01  0.3415811E+00
         13   -1    0    0    0    0  0.00000000000E+00  0.00000000000E+00  0.14999999963E+04  0.15000000000E+04  0.10566000000E+00 0. -1.
        994   -1    0    0    0    0 -0.00000000000E+00 -0.00000000000E+00  0.11368683772E-12  0.17120000000E+03  0.17120000000E+03 0.  0.
         13    1    1    2    0    0 -0.17293947237E+03 -0.17305065498E+03  0.12708588049E+04  0.12941934567E+04  0.10566000000E+00 0. -1.
        994    1    1    2    0    0  0.17303871828E+03  0.17325951842E+03  0.22799063783E+03  0.37583298111E+03  0.17120000000E+03 0.  0.
        998    1    1    2    0    0 -0.99245912386E-01 -0.20886344524E+00  0.11505535588E+01  0.11735621762E+01  0.10000000000E-02 0.  1.
</event>
<event>
 5    1  0.6881186E-009  0.3883010E+03  0.7957747E-01  0.3415792E+00
         13   -1    0    0    0    0  0.00000000000E+00  0.00000000000E+00  0.14999999963E+04  0.15000000000E+04  0.10566000000E+00 0. -1.
        994   -1    0    0    0    0 -0.00000000000E+00 -0.00000000000E+00  0.11368683772E-12  0.17120000000E+03  0.17120000000E+03 0.  0.
         13    1    1    2    0    0  0.93613935446E+02 -0.28556473100E+03  0.11097506626E+04  0.11497205438E+04  0.10566000000E+00 0. -1.
        994    1    1    2    0    0 -0.93619589188E+02  0.28557924259E+03  0.39019428905E+03  0.52142224204E+03  0.17120000000E+03 0.  0.
        998    1    1    2    0    0  0.56537423417E-02 -0.14511590608E-01  0.55044613298E-01  0.57214163609E-01  0.10000000000E-02 0.  0.
</event>
<event>
 5    1  0.5722211E-009  0.3883000E+03  0.7957747E-01  0.3415796E+00
         13   -1    0    0    0    0  0.00000000000E+00  0.00000000000E+00  0.14999999963E+04  0.15000000000E+04  0.10566000000E+00 0. -1.
        994   -1    0    0    0    0 -0.00000000000E+00 -0.00000000000E+00  0.11368683772E-12  0.17120000000E+03  0.17120000000E+03 0.  0.
         13    1    1    2    0    0  0.24005590429E+03  0.24648416979E+03  0.76228000820E+03  0.83633253267E+03  0.10566000000E+00 0. -1.
        994    1    1    2    0    0 -0.24237924838E+03 -0.24901261613E+03  0.72994692154E+03  0.82636973039E+03  0.17120000000E+03 0.  0.
        998    1    1    2    0    0  0.23233440874E+01  0.25284463361E+01  0.77730665375E+01  0.84977369352E+01  0.10000000000E-02 0. -1.
</event>
<event>
 5    1  0.5722211E-009  0.3882917E+03  0.7957747E-01  0.3415830E+00
         13   -1    0    0    0    0  0.00000000000E+00  0.00000000000E+00  0.14999999963E+04  0.15000000000E+04  0.10566000000E+00 0. -1.
        994   -1    0    0    0    0 -0.00000000000E+00 -0.00000000000E+00  0.11368683772E-12  0.17120000000E+03  0.17120000000E+03 0.  0.
         13    1    1    2    0    0  0.85570095450E+02  0.13653658347E+03  0.96419376396E+03  0.97756539704E+03  0.10566000000E+00 0. -1.
        994    1    1    2    0    0 -0.11743750553E+03 -0.18519890256E+03  0.17610558419E+03  0.32926101803E+03  0.17120000000E+03 0.  0.
        998    1    1    2    0    0  0.31867410080E+02  0.48662319097E+02  0.35970064813E+03  0.36437358493E+03  0.10000000000E-02 0.  1.
</event>
<event>
 5    1  0.5722211E-009  0.3882914E+03  0.7957747E-01  0.3415832E+00
         13   -1    0    0    0    0  0.00000000000E+00  0.00000000000E+00  0.14999999963E+04  0.15000000000E+04  0.10566000000E+00 0. -1.
        994   -1    0    0    0    0 -0.00000000000E+00 -0.00000000000E+00  0.11368683772E-12  0.17120000000E+03  0.17120000000E+03 0.  0.
         13    1    1    2    0    0  0.21541593287E+03 -0.54030135031E+02  0.44063632094E+03  0.49344063283E+03  0.10566000000E+00 0. -1.
        994    1    1    2    0    0 -0.33794559354E+03  0.85008853524E+02  0.80225703318E+03  0.89126848742E+03  0.17120000000E+03 0.  0.
        998    1    1    2    0    0  0.12252966067E+03 -0.30978718493E+02  0.25710664215E+03  0.28649087976E+03  0.10000000000E-02 0. -1.
</event>
<event>
 5    1  0.5722211E-009  0.3882978E+03  0.7957747E-01  0.3415805E+00
         13   -1    0    0    0    0  0.00000000000E+00  0.00000000000E+00  0.14999999963E+04  0.15000000000E+04  0.10566000000E+00 0. -1.
        994   -1    0    0    0    0 -0.00000000000E+00 -0.00000000000E+00  0.11368683772E-12  0.17120000000E+03  0.17120000000E+03 0.  0.
         13    1    1    2    0    0 -0.16905065026E+03 -0.20393743690E+02  0.84474360015E+03  0.86173417495E+03  0.10566000000E+00 0. -1.
        994    1    1    2    0    0  0.25058199900E+03  0.28906315907E+02  0.24500831603E+03  0.39110794961E+03  0.17120000000E+03 0.  0.
        998    1    1    2    0    0 -0.81531348743E+02 -0.85125722172E+01  0.41024808010E+03  0.41835787544E+03  0.10000000000E-02 0.  1.
</event>
<event>
 5    1  0.5722211E-009  0.3883010E+03  0.7957747E-01  0.3415792E+00
         13   -1    0    0    0    0  0.00000000000E+00  0.00000000000E+00  0.14999999963E+04  0.15000000000E+04  0.10566000000E+00 0. -1.
        994   -1    0    0    0    0 -0.00000000000E+00 -0.00000000000E+00  0.11368683772E-12  0.17120000000E+03  0.17120000000E+03 0.  0.
         13    1    1    2    0    0  0.25070256577E+03  0.23149044165E+02  0.12262408981E+04  0.12518204368E+04  0.10566000000E+00 0. -1.
        994    1    1    2    0    0 -0.25478115978E+03 -0.23536141894E+02  0.25375191997E+03  0.39895722357E+03  0.17120000000E+03 0.  0.
        998    1    1    2    0    0  0.40785940100E+01  0.38709772889E+00  0.20007178232E+02  0.20422339620E+02  0.10000000000E-02 0. -1.
</event>
<event>
 5    1  0.5722211E-009  0.3883006E+03  0.7957747E-01  0.3415793E+00
         13   -1    0    0    0    0  0.00000000000E+00  0.00000000000E+00  0.14999999963E+04  0.15000000000E+04  0.10566000000E+00 0. -1.
        994   -1    0    0    0    0 -0.00000000000E+00 -0.00000000000E+00  0.11368683772E-12  0.17120000000E+03  0.17120000000E+03 0.  0.
         13    1    1    2    0    0 -0.22202250324E+03  0.29213725598E+02  0.13150436812E+04  0.13339742607E+04  0.10566000000E+00 0. -1.
        994    1    1    2    0    0  0.22204142708E+03 -0.29220848075E+02  0.18480608133E+03  0.33707414763E+03  0.17120000000E+03 0.  0.
        998    1    1    2    0    0 -0.18923848972E-01  0.71224764306E-02  0.15023376116E+00  0.15159163804E+00  0.10000000000E-02 0.  1.
</event>
<event>
 5    1  0.5722211E-009  0.3750889E+03  0.7957747E-01  0.3472825E+00
         13   -1    0    0    0    0  0.00000000000E+00  0.00000000000E+00  0.14999999963E+04  0.15000000000E+04  0.10566000000E+00 0.  1.
        994   -1    0    0    0    0 -0.00000000000E+00 -0.00000000000E+00  0.11368683772E-12  0.17120000000E+03  0.17120000000E+03 0.  0.
         13    1    1    2    0    0  0.51598660067E+02  0.10142315335E+03  0.37084717652E+03  0.38791328574E+03  0.10566000000E+00 0.  1.
        994    1    1    2    0    0 -0.16510869402E+03 -0.13532561644E+03  0.18175049704E+03  0.32850660036E+03  0.17120000000E+03 0.  0.
        998    1    1    2    0    0  0.11351003395E+03  0.33902463089E+02  0.94740232272E+03  0.95478011391E+03  0.10000000000E-02 0.  1.
</event>
<event>
 5    1  0.5722211E-009  0.3883009E+03  0.7957747E-01  0.3415792E+00
         13   -1    0    0    0    0  0.00000000000E+00  0.00000000000E+00  0.14999999963E+04  0.15000000000E+04  0.10566000000E+00 0. -1.
        994   -1    0    0    0    0 -0.00000000000E+00 -0.00000000000E+00  0.11368683772E-12  0.17120000000E+03  0.17120000000E+03 0.  0.
         13    1    1    2    0    0 -0.20273619385E+03  0.18187389998E+03  0.12000859019E+04  0.12306040236E+04  0.10566000000E+00 0. -1.
        994    1    1    2    0    0  0.20301245617E+03 -0.18212570822E+03  0.29833320078E+03  0.43897149069E+03  0.17120000000E+03 0.  0.
        998    1    1    2    0    0 -0.27626231849E+00  0.25180823879E+00  0.15808935854E+01  0.16244856990E+01  0.10000000000E-02 0.  1.
</event>
<event>
 5    1  0.5722211E-009  0.3882849E+03  0.7957747E-01  0.3415859E+00
         13   -1    0    0    0    0  0.00000000000E+00  0.00000000000E+00  0.14999999963E+04  0.15000000000E+04  0.10566000000E+00 0. -1.
        994   -1    0    0    0    0 -0.00000000000E+00 -0.00000000000E+00  0.11368683772E-12  0.17120000000E+03  0.17120000000E+03 0.  0.
         13    1    1    2    0    0 -0.24832359532E+03  0.21372496554E+03  0.45233464107E+03  0.55852449146E+03  0.10566000000E+00 0. -1.
        994    1    1    2    0    0  0.24987063237E+03 -0.21560278575E+03  0.10444025766E+04  0.11086054646E+04  0.17120000000E+03 0.  0.
        998    1    1    2    0    0 -0.15470370539E+01  0.18778202110E+01  0.32627786453E+01  0.40700439653E+01  0.10000000000E-02 0. -1.
</event>
<event>
 5    1  0.5722211E-009  0.3882864E+03  0.7957747E-01  0.3415853E+00
         13   -1    0    0    0    0  0.00000000000E+00  0.00000000000E+00  0.14999999963E+04  0.15000000000E+04  0.10566000000E+00 0. -1.
        994   -1    0    0    0    0 -0.00000000000E+00 -0.00000000000E+00  0.11368683772E-12  0.17120000000E+03  0.17120000000E+03 0.  0.
         13    1    1    2    0    0 -0.57260390507E+02 -0.11516542709E+03  0.75076216428E+03  0.76169919679E+03  0.10566000000E+00 0. -1.
        994    1    1    2    0    0  0.10328745653E+03  0.19901820014E+03  0.18533512126E+03  0.33754272298E+03  0.17120000000E+03 0.  0.
        998    1    1    2    0    0 -0.46027066027E+02 -0.83852773052E+02  0.56390271074E+03  0.57195808023E+03  0.10000000000E-02 0. -1.
</event>
<event>
 5    1  0.5722211E-009  0.3883009E+03  0.7957747E-01  0.3415792E+00
         13   -1    0    0    0    0  0.00000000000E+00  0.00000000000E+00  0.14999999963E+04  0.15000000000E+04  0.10566000000E+00 0.  1.
        994   -1    0    0    0    0 -0.00000000000E+00 -0.00000000000E+00  0.11368683772E-12  0.17120000000E+03  0.17120000000E+03 0.  0.
         13    1    1    2    0    0 -0.22631521986E+03  0.10724859581E+03  0.12590472325E+04  0.12837136694E+04  0.10566000000E+00 0.  1.
        994    1    1    2    0    0  0.22634143088E+03 -0.10725803347E+03  0.24081242412E+03  0.38734324918E+03  0.17120000000E+03 0.  0.
        998    1    1    2    0    0 -0.26211018943E-01  0.94376536462E-02  0.14033962613E+00  0.14308143654E+00  0.10000000000E-02 0.  1.
</event>
<event>
 5    1  0.5722211E-009  0.3882933E+03  0.7957747E-01  0.3415824E+00
         13   -1    0    0    0    0  0.00000000000E+00  0.00000000000E+00  0.14999999963E+04  0.15000000000E+04  0.10566000000E+00 0. -1.
        994   -1    0    0    0    0 -0.00000000000E+00 -0.00000000000E+00  0.11368683772E-12  0.17120000000E+03  0.17120000000E+03 0.  0.
         13    1    1    2    0    0  0.20355551818E+03 -0.69541665589E+02  0.80215123958E+03  0.83049233263E+03  0.10566000000E+00 0. -1.
        994    1    1    2    0    0 -0.28180699948E+03  0.97196394285E+02  0.38095567957E+03  0.51312668398E+03  0.17120000000E+03 0.  0.
        998    1    1    2    0    0  0.78251481302E+02 -0.27654728696E+02  0.31689307713E+03  0.32758098339E+03  0.10000000000E-02 0. -1.
</event>
<event>
 5    1  0.5722211E-009  0.3859511E+03  0.7957747E-01  0.3425649E+00
         13   -1    0    0    0    0  0.00000000000E+00  0.00000000000E+00  0.14999999963E+04  0.15000000000E+04  0.10566000000E+00 0. -1.
        994   -1    0    0    0    0 -0.00000000000E+00 -0.00000000000E+00  0.11368683772E-12  0.17120000000E+03  0.17120000000E+03 0.  0.
         13    1    1    2    0    0  0.66612809701E+00  0.16898330532E+02  0.74053918895E+02  0.75960459248E+02  0.10566000000E+00 0. -1.
        994    1    1    2    0    0 -0.15349700926E+02 -0.78646177585E+02  0.22499912246E+02  0.19035892576E+03  0.17120000000E+03 0.  0.
        998    1    1    2    0    0  0.14683572829E+02  0.61747847053E+02  0.14034461651E+04  0.14048806150E+04  0.10000000000E-02 0. -1.
</event>
<event>
 5    1  0.5722211E-009  0.3883010E+03  0.7957747E-01  0.3415792E+00
         13   -1    0    0    0    0  0.00000000000E+00  0.00000000000E+00  0.14999999963E+04  0.15000000000E+04  0.10566000000E+00 0.  1.
        994   -1    0    0    0    0 -0.00000000000E+00 -0.00000000000E+00  0.11368683772E-12  0.17120000000E+03  0.17120000000E+03 0.  0.
         13    1    1    2    0    0  0.23778541164E+03  0.16786822950E+03  0.11422542266E+04  0.11787562826E+04  0.10566000000E+00 0.  1.
        994    1    1    2    0    0 -0.23800999772E+03 -0.16802512365E+03  0.35665084187E+03  0.49131503559E+03  0.17120000000E+03 0.  0.
        998    1    1    2    0    0  0.22458607430E+00  0.15689414598E+00  0.10949278308E+01  0.11286818119E+01  0.10000000000E-02 0.  1.
</event>
<event>
 5    1  0.5722211E-009  0.3883009E+03  0.7957747E-01  0.3415792E+00
         13   -1    0    0    0    0  0.00000000000E+00  0.00000000000E+00  0.14999999963E+04  0.15000000000E+04  0.10566000000E+00 0.  1.
        994   -1    0    0    0    0 -0.00000000000E+00 -0.00000000000E+00  0.11368683772E-12  0.17120000000E+03  0.17120000000E+03 0.  0.
         13    1    1    2    0    0 -0.95999076973E+01 -0.22523272068E+03  0.13122224217E+04  0.13314464435E+04  0.10566000000E+00 0.  1.
        994    1    1    2    0    0  0.95992831788E+01  0.22524843404E+03  0.18766952469E+03  0.33964436367E+03  0.17120000000E+03 0.  0.
        998    1    1    2    0    0  0.62451843307E-03 -0.15713361396E-01  0.10804987707E+00  0.10919283714E+00  0.10000000000E-02 0.  1.
</event>
<event>
 5    1  0.5722211E-009  0.3883009E+03  0.7957747E-01  0.3415792E+00
         13   -1    0    0    0    0  0.00000000000E+00  0.00000000000E+00  0.14999999963E+04  0.15000000000E+04  0.10566000000E+00 0.  1.
        994   -1    0    0    0    0 -0.00000000000E+00 -0.00000000000E+00  0.11368683772E-12  0.17120000000E+03  0.17120000000E+03 0.  0.
         13    1    1    2    0    0 -0.10196896586E+03 -0.21840602219E+03  0.12369639301E+04  0.12602295966E+04  0.10566000000E+00 0.  1.
        994    1    1    2    0    0  0.10445855331E+03  0.22379944183E+03  0.23274373669E+03  0.38010112667E+03  0.17120000000E+03 0.  0.
        998    1    1    2    0    0 -0.24895874519E+01 -0.53934196490E+01  0.30292329471E+02  0.30869276749E+02  0.10000000000E-02 0.  1.
</event>
<event>
 5    1  0.7377253E-009  0.3883008E+03  0.7957747E-01  0.3415793E+00
         13   -1    0    0    0    0  0.00000000000E+00  0.00000000000E+00  0.14999999963E+04  0.15000000000E+04  0.10566000000E+00 0. -1.
        994   -1    0    0    0    0 -0.00000000000E+00 -0.00000000000E+00  0.11368683772E-12  0.17120000000E+03  0.17120000000E+03 0.  0.
         13    1    1    2    0    0  0.38677090134E+02 -0.21629392324E+03  0.13230541733E+04  0.13411753558E+04  0.10566000000E+00 0. -1.
        994    1    1    2    0    0 -0.38676413314E+02  0.21630000798E+03  0.17689621424E+03  0.32997464905E+03  0.17120000000E+03 0.  0.
        998    1    1    2    0    0 -0.67682000224E-03 -0.60847415311E-02  0.49608781487E-01  0.49995133418E-01  0.10000000000E-02 0. -1.
</event>
<event>
 5    1  0.5722211E-009  0.3883010E+03  0.7957747E-01  0.3415792E+00
         13   -1    0    0    0    0  0.00000000000E+00  0.00000000000E+00  0.14999999963E+04  0.15000000000E+04  0.10566000000E+00 0. -1.
        994   -1    0    0    0    0 -0.00000000000E+00 -0.00000000000E+00  0.11368683772E-12  0.17120000000E+03  0.17120000000E+03 0.  0.
         13    1    1    2    0    0  0.13114299410E+03 -0.18908487129E+03  0.12915916522E+04  0.13119300975E+04  0.10566000000E+00 0. -1.
        994    1    1    2    0    0 -0.13201546834E+03  0.19033588309E+03  0.19985434019E+03  0.35058098859E+03  0.17120000000E+03 0.  0.
        998    1    1    2    0    0  0.87247423563E+00 -0.12510117943E+01  0.85540038735E+01  0.86889139177E+01  0.10000000000E-02 0.  1.
</event>
<event>
 5    1  0.5722211E-009  0.3883009E+03  0.7957747E-01  0.3415792E+00
         13   -1    0    0    0    0  0.00000000000E+00  0.00000000000E+00  0.14999999963E+04  0.15000000000E+04  0.10566000000E+00 0.  1.
        994   -1    0    0    0    0 -0.00000000000E+00 -0.00000000000E+00  0.11368683772E-12  0.17120000000E+03  0.17120000000E+03 0.  0.
         13    1    1    2    0    0  0.22507618193E+03  0.15150545992E+03  0.10297532520E+04  0.10648966914E+04  0.10566000000E+00 0.  1.
        994    1    1    2    0    0 -0.24589032656E+03 -0.16563646963E+03  0.37491880632E+03  0.50771157570E+03  0.17120000000E+03 0.  0.
        998    1    1    2    0    0  0.20814144627E+02  0.14131009712E+02  0.95327937925E+02  0.98591732929E+02  0.10000000000E-02 0.  1.
</event>
<event>
 5    1  0.5722211E-009  0.3883009E+03  0.7957747E-01  0.3415792E+00
         13   -1    0    0    0    0  0.00000000000E+00  0.00000000000E+00  0.14999999963E+04  0.15000000000E+04  0.10566000000E+00 0. -1.
        994   -1    0    0    0    0 -0.00000000000E+00 -0.00000000000E+00  0.11368683772E-12  0.17120000000E+03  0.17120000000E+03 0.  0.
         13    1    1    2    0    0  0.21909143061E+03 -0.28932939305E+02  0.13205879208E+04  0.13389513201E+04  0.10566000000E+00 0. -1.
        994    1    1    2    0    0 -0.21911548015E+03  0.28936247561E+02  0.17927895392E+03  0.33211335924E+03  0.17120000000E+03 0.  0.
        998    1    1    2    0    0  0.24049542863E-01 -0.33082554735E-02  0.13312158034E+00  0.13532065703E+00  0.10000000000E-02 0. -1.
</event>
<event>
 5    1  0.5722211E-009  0.3872529E+03  0.7957747E-01  0.3420173E+00
         13   -1    0    0    0    0  0.00000000000E+00  0.00000000000E+00  0.14999999963E+04  0.15000000000E+04  0.10566000000E+00 0.  1.
        994   -1    0    0    0    0 -0.00000000000E+00 -0.00000000000E+00  0.11368683772E-12  0.17120000000E+03  0.17120000000E+03 0.  0.
         13    1    1    2    0    0 -0.82306625053E+02 -0.29632786139E+03  0.10077125675E+04  0.10535982212E+04  0.10566000000E+00 0.  1.
        994    1    1    2    0    0  0.85704219594E+02  0.30689010613E+03  0.47466145959E+03  0.59677440605E+03  0.17120000000E+03 0.  0.
        998    1    1    2    0    0 -0.33975945403E+01 -0.10562244749E+02  0.17625969225E+02  0.20827372732E+02  0.10000000000E-02 0. -1.
</event>
<event>
 5    1  0.5722211E-009  0.3883010E+03  0.7957747E-01  0.3415792E+00
         13   -1    0    0    0    0  0.00000000000E+00  0.00000000000E+00  0.14999999963E+04  0.15000000000E+04  0.10566000000E+00 0.  1.
        994   -1    0    0    0    0 -0.00000000000E+00 -0.00000000000E+00  0.11368683772E-12  0.17120000000E+03  0.17120000000E+03 0.  0.
         13    1    1    2    0    0 -0.10484514571E+03  0.22907890759E+03  0.12070833075E+04  0.12330935783E+04  0.10566000000E+00 0.  1.
        994    1    1    2    0    0  0.10761964725E+03 -0.23519723450E+03  0.26066049079E+03  0.40515806675E+03  0.17120000000E+03 0.  0.
        998    1    1    2    0    0 -0.27745015444E+01  0.61183269145E+01  0.32256198017E+02  0.32948354960E+02  0.10000000000E-02 0.  1.
</event>
<event>
 5    1  0.5722211E-009  0.3883010E+03  0.7957747E-01  0.3415792E+00
         13   -1    0    0    0    0  0.00000000000E+00  0.00000000000E+00  0.14999999963E+04  0.15000000000E+04  0.10566000000E+00 0. -1.
        994   -1    0    0    0    0 -0.00000000000E+00 -0.00000000000E+00  0.11368683772E-12  0.17120000000E+03  0.17120000000E+03 0.  0.
         13    1    1    2    0    0 -0.95935556400E+02  0.21242465530E+03  0.12886092613E+04  0.13095196466E+04  0.10566000000E+00 0. -1.
        994    1    1    2    0    0  0.96401901845E+02 -0.21346125230E+03  0.20511763365E+03  0.35530510346E+03  0.17120000000E+03 0.  0.
        998    1    1    2    0    0 -0.46634544546E+00  0.10365969985E+01  0.62731012844E+01  0.63752499665E+01  0.10000000000E-02 0.  1.
</event>
<event>
 5    1  0.6495606E-009  0.3882995E+03  0.7957747E-01  0.3415798E+00
         13   -1    0    0    0    0  0.00000000000E+00  0.00000000000E+00  0.14999999963E+04  0.15000000000E+04  0.10566000000E+00 0.  1.
        994   -1    0    0    0    0 -0.00000000000E+00 -0.00000000000E+00  0.11368683772E-12  0.17120000000E+03  0.17120000000E+03 0.  0.
         13    1    1    2    0    0 -0.16223295314E+03 -0.24726543707E+03  0.11275984054E+04  0.11657349195E+04  0.10566000000E+00 0.  1.
        994    1    1    2    0    0  0.16225238413E+03  0.24727526941E+03  0.37229065371E+03  0.50535202172E+03  0.17120000000E+03 0.  0.
        998    1    1    2    0    0 -0.19430993512E-01 -0.98323350370E-02  0.11093715267E+00  0.11305879074E+00  0.10000000000E-02 0. -1.
</event>
<event>
 5    1  0.5722211E-009  0.3883009E+03  0.7957747E-01  0.3415792E+00
         13   -1    0    0    0    0  0.00000000000E+00  0.00000000000E+00  0.14999999963E+04  0.15000000000E+04  0.10566000000E+00 0. -1.
        994   -1    0    0    0    0 -0.00000000000E+00 -0.00000000000E+00  0.11368683772E-12  0.17120000000E+03  0.17120000000E+03 0.  0.
         13    1    1    2    0    0  0.21221367429E+03 -0.56819020743E+02  0.13211777732E+04  0.13393183953E+04  0.10566000000E+00 0. -1.
        994    1    1    2    0    0 -0.21245844756E+03  0.56891934761E+02  0.17728906284E+03  0.33032731644E+03  0.17120000000E+03 0.  0.
        998    1    1    2    0    0  0.24477326586E+00 -0.72914017772E-01  0.15331602856E+01  0.15542882187E+01  0.10000000000E-02 0. -1.
</event>
<event>
 5    1  0.5722211E-009  0.3867545E+03  0.7957747E-01  0.3422265E+00
         13   -1    0    0    0    0  0.00000000000E+00  0.00000000000E+00  0.14999999963E+04  0.15000000000E+04  0.10566000000E+00 0.  1.
        994   -1    0    0    0    0 -0.00000000000E+00 -0.00000000000E+00  0.11368683772E-12  0.17120000000E+03  0.17120000000E+03 0.  0.
         13    1    1    2    0    0 -0.18136727047E+01  0.65807547121E+02  0.33479173781E+03  0.34120293307E+03  0.10566000000E+00 0.  1.
        994    1    1    2    0    0 -0.65245278988E+02 -0.21909712975E+03  0.19584996741E+03  0.34630499337E+03  0.17120000000E+03 0.  0.
        998    1    1    2    0    0  0.67058951692E+02  0.15328958263E+03  0.96935829105E+03  0.98369207356E+03  0.10000000000E-02 0.  1.
</event>
<event>
 5    1  0.5722211E-009  0.3883010E+03  0.7957747E-01  0.3415792E+00
         13   -1    0    0    0    0  0.00000000000E+00  0.00000000000E+00  0.14999999963E+04  0.15000000000E+04  0.10566000000E+00 0. -1.
        994   -1    0    0    0    0 -0.00000000000E+00 -0.00000000000E+00  0.11368683772E-12  0.17120000000E+03  0.17120000000E+03 0.  0.
         13    1    1    2    0    0  0.17415062641E+02 -0.22105974280E+03  0.13028159372E+04  0.13215521449E+04  0.10566000000E+00 0. -1.
        994    1    1    2    0    0 -0.17582682550E+02  0.22318805201E+03  0.18466045792E+03  0.33694358876E+03  0.17120000000E+03 0.  0.
        998    1    1    2    0    0  0.16761990863E+00 -0.21283092077E+01  0.12523601146E+02  0.12704266337E+02  0.10000000000E-02 0.  1.
</event>
<event>
 5    1  0.5722211E-009  0.3882598E+03  0.7957747E-01  0.3415964E+00
         13   -1    0    0    0    0  0.00000000000E+00  0.00000000000E+00  0.14999999963E+04  0.15000000000E+04  0.10566000000E+00 0.  1.
        994   -1    0    0    0    0 -0.00000000000E+00 -0.00000000000E+00  0.11368683772E-12  0.17120000000E+03  0.17120000000E+03 0.  0.
         13    1    1    2    0    0 -0.18922921973E+03 -0.19251422057E+03  0.10631201265E+04  0.10968563430E+04  0.10566000000E+00 0.  1.
        994    1    1    2    0    0  0.20433298433E+03  0.20567344263E+03  0.35187485693E+03  0.48701015228E+03  0.17120000000E+03 0.  0.
        998    1    1    2    0    0 -0.15103764599E+02 -0.13159222060E+02  0.85005012883E+02  0.87333504719E+02  0.10000000000E-02 0.  1.
</event>
<event>
 5    1  0.5722211E-009  0.3805345E+03  0.7957747E-01  0.3448835E+00
         13   -1    0    0    0    0  0.00000000000E+00  0.00000000000E+00  0.14999999963E+04  0.15000000000E+04  0.10566000000E+00 0. -1.
        994   -1    0    0    0    0 -0.00000000000E+00 -0.00000000000E+00  0.11368683772E-12  0.17120000000E+03  0.17120000000E+03 0.  0.
         13    1    1    2    0    0  0.68200585484E+01 -0.10849817662E+02  0.18428848455E+02  0.22446945478E+02  0.10566000000E+00 0. -1.
        994    1    1    2    0    0  0.46514092527E+02  0.60654844831E+02  0.23612952519E+02  0.18896979264E+03  0.17120000000E+03 0.  0.
        998    1    1    2    0    0 -0.53334151075E+02 -0.49805027169E+02  0.14579581953E+04  0.14597832619E+04  0.10000000000E-02 0. -1.
</event>
<event>
 5    1  0.5722211E-009  0.3881723E+03  0.7957747E-01  0.3416328E+00
         13   -1    0    0    0    0  0.00000000000E+00  0.00000000000E+00  0.14999999963E+04  0.15000000000E+04  0.10566000000E+00 0. -1.
        994   -1    0    0    0    0 -0.00000000000E+00 -0.00000000000E+00  0.11368683772E-12  0.17120000000E+03  0.17120000000E+03 0.  0.
         13    1    1    2    0    0 -0.20916745345E+03  0.88974142750E+02  0.12617165213E+04  0.12820280859E+04  0.10566000000E+00 0. -1.
        994    1    1    2    0    0  0.21347623308E+03 -0.90279005351E+02  0.20031782760E+03  0.35094026978E+03  0.17120000000E+03 0.  0.
        998    1    1    2    0    0 -0.43087796335E+01  0.13048626011E+01  0.37965647365E+02  0.38231644343E+02  0.10000000000E-02 0.  1.
</event>
<event>
 5    1  0.5722211E-009  0.3883009E+03  0.7957747E-01  0.3415792E+00
         13   -1    0    0    0    0  0.00000000000E+00  0.00000000000E+00  0.14999999963E+04  0.15000000000E+04  0.10566000000E+00 0. -1.
        994   -1    0    0    0    0 -0.00000000000E+00 -0.00000000000E+00  0.11368683772E-12  0.17120000000E+03  0.17120000000E+03 0.  0.
         13    1    1    2    0    0 -0.17320739992E+03  0.12218065748E+03  0.11920814202E+04  0.12107795175E+04  0.10566000000E+00 0. -1.
        994    1    1    2    0    0  0.18901368987E+03 -0.13326826038E+03  0.19911786306E+03  0.34991994452E+03  0.17120000000E+03 0.  0.
        998    1    1    2    0    0 -0.15806289942E+02  0.11087602899E+02  0.10880071301E+03  0.11050053798E+03  0.10000000000E-02 0.  1.
</event>
<event>
 5    1  0.2053375E-008  0.3883008E+03  0.7957747E-01  0.3415793E+00
         13   -1    0    0    0    0  0.00000000000E+00  0.00000000000E+00  0.14999999963E+04  0.15000000000E+04  0.10566000000E+00 0. -1.
        994   -1    0    0    0    0 -0.00000000000E+00 -0.00000000000E+00  0.11368683772E-12  0.17120000000E+03  0.17120000000E+03 0.  0.
         13    1    1    2    0    0  0.82379426384E+01  0.24266762820E+03  0.12765820924E+04  0.12994680802E+04  0.10566000000E+00 0. -1.
        994    1    1    2    0    0 -0.82369730495E+01 -0.24266919160E+03  0.22340681061E+03  0.37172063072E+03  0.17120000000E+03 0.  0.
        998    1    1    2    0    0 -0.96958891037E-03  0.15633970626E-02  0.11093235398E-01  0.11289117974E-01  0.10000000000E-02 0.  1.
</event>
<event>
 5    1  0.5722211E-009  0.3882984E+03  0.7957747E-01  0.3415802E+00
         13   -1    0    0    0    0  0.00000000000E+00  0.00000000000E+00  0.14999999963E+04  0.15000000000E+04  0.10566000000E+00 0.  1.
        994   -1    0    0    0    0 -0.00000000000E+00 -0.00000000000E+00  0.11368683772E-12  0.17120000000E+03  0.17120000000E+03 0.  0.
         13    1    1    2    0    0 -0.14307828731E+03 -0.18944954638E+03  0.12877041036E+04  0.13094061236E+04  0.10566000000E+00 0.  1.
        994    1    1    2    0    0  0.14309435708E+03  0.18949672839E+03  0.21186532194E+03  0.36136042913E+03  0.17120000000E+03 0.  0.
        998    1    1    2    0    0 -0.16069776049E-01 -0.47182002062E-01  0.43057078702E+00  0.43344732282E+00  0.10000000000E-02 0. -1.
</event>
<event>
 5    1  0.5722211E-009  0.3882826E+03  0.7957747E-01  0.3415868E+00
         13   -1    0    0    0    0  0.00000000000E+00  0.00000000000E+00  0.14999999963E+04  0.15000000000E+04  0.10566000000E+00 0.  1.
        994   -1    0    0    0    0 -0.00000000000E+00 -0.00000000000E+00  0.11368683772E-12  0.17120000000E+03  0.17120000000E+03 0.  0.
         13    1    1    2    0    0 -0.24351238287E+03 -0.59481151161E+02  0.12379032046E+04  0.12630283619E+04  0.10566000000E+00 0.  1.
        994    1    1    2    0    0  0.24635185541E+03  0.60652945060E+02  0.24853931063E+03  0.39427052304E+03  0.17120000000E+03 0.  0.
        998    1    1    2    0    0 -0.28394725462E+01 -0.11717938987E+01  0.13557481066E+02  0.13901115032E+02  0.10000000000E-02 0. -1.
</event>
<event>
 5    1  0.5722211E-009  0.3828007E+03  0.7957747E-01  0.3439053E+00
         13   -1    0    0    0    0  0.00000000000E+00  0.00000000000E+00  0.14999999963E+04  0.15000000000E+04  0.10566000000E+00 0.  1.
        994   -1    0    0    0    0 -0.00000000000E+00 -0.00000000000E+00  0.11368683772E-12  0.17120000000E+03  0.17120000000E+03 0.  0.
         13    1    1    2    0    0 -0.15006815602E+02  0.11280408612E+03  0.50647179327E+03  0.51909888740E+03  0.10566000000E+00 0.  1.
        994    1    1    2    0    0 -0.68178711783E+02 -0.24881768773E+03  0.26874812327E+03  0.40999216118E+03  0.17120000000E+03 0.  0.
        998    1    1    2    0    0  0.83185527385E+02  0.13601360161E+03  0.72478007973E+03  0.74210895141E+03  0.10000000000E-02 0.  1.
</event>
<event>
 5    1  0.5722211E-009  0.3882913E+03  0.7957747E-01  0.3415832E+00
         13   -1    0    0    0    0  0.00000000000E+00  0.00000000000E+00  0.14999999963E+04  0.15000000000E+04  0.10566000000E+00 0. -1.
        994   -1    0    0    0    0 -0.00000000000E+00 -0.00000000000E+00  0.11368683772E-12  0.17120000000E+03  0.17120000000E+03 0.  0.
         13    1    1    2    0    0  0.14148544085E+02 -0.11615626516E+03  0.54710649180E+03  0.55948010132E+03  0.10566000000E+00 0. -1.
        994    1    1    2    0    0 -0.31019190385E+02  0.25816844408E+03  0.26415220271E+03  0.40828784196E+03  0.17120000000E+03 0.  0.
        998    1    1    2    0    0  0.16870646300E+02 -0.14201217892E+03  0.68874130176E+03  0.70343205672E+03  0.10000000000E-02 0. -1.
</event>
<event>
 5    1  0.5722211E-009  0.3877355E+03  0.7957747E-01  0.3418153E+00
         13   -1    0    0    0    0  0.00000000000E+00  0.00000000000E+00  0.14999999963E+04  0.15000000000E+04  0.10566000000E+00 0. -1.
        994   -1    0    0    0    0 -0.00000000000E+00 -0.00000000000E+00  0.11368683772E-12  0.17120000000E+03  0.17120000000E+03 0.  0.
         13    1    1    2    0    0  0.17830551785E+03 -0.13999293703E+03  0.11587183599E+04  0.11806858722E+04  0.10566000000E+00 0. -1.
        994    1    1    2    0    0 -0.18889132627E+03  0.14965956854E+03  0.22026565185E+03  0.36865202696E+03  0.17120000000E+03 0.  0.
        998    1    1    2    0    0  0.10585808418E+02 -0.96666315162E+01  0.12101598457E+03  0.12186210086E+03  0.10000000000E-02 0.  1.
</event>
<event>
 5    1  0.5722211E-009  0.3820013E+03  0.7957747E-01  0.3442490E+00
         13   -1    0    0    0    0  0.00000000000E+00  0.00000000000E+00  0.14999999963E+04  0.15000000000E+04  0.10566000000E+00 0. -1.
        994   -1    0    0    0    0 -0.00000000000E+00 -0.00000000000E+00  0.11368683772E-12  0.17120000000E+03  0.17120000000E+03 0.  0.
         13    1    1    2    0    0  0.35973600213E+01  0.28671539525E+02  0.16054570127E+03  0.16312550854E+03  0.10566000000E+00 0. -1.
        994    1    1    2    0    0 -0.26942141644E+02  0.11555211561E+02  0.59855683430E+01  0.17379490481E+03  0.17120000000E+03 0.  0.
        998    1    1    2    0    0  0.23344781623E+02 -0.40226751086E+02  0.13334687267E+04  0.13342795866E+04  0.10000000000E-02 0. -1.
</event>
<event>
 5    1  0.5722211E-009  0.3879811E+03  0.7957747E-01  0.3417126E+00
         13   -1    0    0    0    0  0.00000000000E+00  0.00000000000E+00  0.14999999963E+04  0.15000000000E+04  0.10566000000E+00 0. -1.
        994   -1    0    0    0    0 -0.00000000000E+00 -0.00000000000E+00  0.11368683772E-12  0.17120000000E+03  0.17120000000E+03 0.  0.
         13    1    1    2    0    0 -0.12714382702E+03  0.24368146404E+03  0.10377688148E+04  0.10735503402E+04  0.10566000000E+00 0. -1.
        994    1    1    2    0    0  0.13814257904E+03 -0.25944533799E+03  0.36657734834E+03  0.50008364087E+03  0.17120000000E+03 0.  0.
        998    1    1    2    0    0 -0.10998752022E+02  0.15763873950E+02  0.95653833114E+02  0.97566018974E+02  0.10000000000E-02 0.  1.
</event>
<event>
 5    1  0.5722211E-009  0.3883007E+03  0.7957747E-01  0.3415793E+00
         13   -1    0    0    0    0  0.00000000000E+00  0.00000000000E+00  0.14999999963E+04  0.15000000000E+04  0.10566000000E+00 0. -1.
        994   -1    0    0    0    0 -0.00000000000E+00 -0.00000000000E+00  0.11368683772E-12  0.17120000000E+03  0.17120000000E+03 0.  0.
         13    1    1    2    0    0  0.75954702607E+02 -0.92672085553E+01  0.39525768189E+03  0.40259613045E+03  0.10566000000E+00 0. -1.
        994    1    1    2    0    0 -0.24415732067E+03  0.28829824318E+02  0.23019584260E+03  0.37781413679E+03  0.17120000000E+03 0.  0.
        998    1    1    2    0    0  0.16820261807E+03 -0.19562615763E+02  0.87454647179E+03  0.89078973275E+03  0.10000000000E-02 0. -1.
</event>
<event>
 5    1  0.5722211E-009  0.3882482E+03  0.7957747E-01  0.3416012E+00
         13   -1    0    0    0    0  0.00000000000E+00  0.00000000000E+00  0.14999999963E+04  0.15000000000E+04  0.10566000000E+00 0.  1.
        994   -1    0    0    0    0 -0.00000000000E+00 -0.00000000000E+00  0.11368683772E-12  0.17120000000E+03  0.17120000000E+03 0.  0.
         13    1    1    2    0    0 -0.24135781567E+03  0.68720554470E+02  0.11804436804E+04  0.12068236837E+04  0.10566000000E+00 0.  1.
        994    1    1    2    0    0  0.25142918933E+03 -0.70065213510E+02  0.26674014488E+03  0.41059166611E+03  0.17120000000E+03 0.  0.
        998    1    1    2    0    0 -0.10071373658E+02  0.13446590395E+01  0.52816171008E+02  0.53784650192E+02  0.10000000000E-02 0.  1.
</event>
