<event>
 5    1  0.1106231E-008  0.3797924E+03  0.7957747E-01  0.3452063E+00
         13   -1    0    0    0    0  0.00000000000E+00  0.00000000000E+00  0.14999999963E+04  0.15000000000E+04  0.10566000000E+00 0.  1.
        994   -1    0    0    0    0 -0.00000000000E+00 -0.00000000000E+00  0.11368683772E-12  0.17120000000E+03  0.17120000000E+03 0.  0.
         13    1    1    2    0    0  0.18702977092E+02  0.18693599700E+02  0.74093817889E+02  0.78671195715E+02  0.10566000000E+00 0.  1.
        994    1    1    2    0    0 -0.21628049664E+02 -0.30402743980E+02  0.89089425247E+01  0.17544488773E+03  0.17120000000E+03 0.  0.
        998    1    1    2    0    0  0.29250725720E+01  0.11709144280E+02  0.14169972359E+04  0.14170839166E+04  0.10000000000E+02 0.  1.
</event>
<event>
 5    1  0.1106231E-008  0.3833934E+03  0.7957747E-01  0.3436515E+00
         13   -1    0    0    0    0  0.00000000000E+00  0.00000000000E+00  0.14999999963E+04  0.15000000000E+04  0.10566000000E+00 0. -1.
        994   -1    0    0    0    0 -0.00000000000E+00 -0.00000000000E+00  0.11368683772E-12  0.17120000000E+03  0.17120000000E+03 0.  0.
         13    1    1    2    0    0  0.12071031399E+02  0.21788557367E+02  0.13585530761E+03  0.13811997249E+03  0.10566000000E+00 0. -1.
        994    1    1    2    0    0 -0.33535754224E+01 -0.55003952366E+01  0.25671001373E+01  0.17134039459E+03  0.17120000000E+03 0.  0.
        998    1    1    2    0    0 -0.87174559768E+01 -0.16288162131E+02  0.13615775885E+04  0.13617396329E+04  0.10000000000E+02 0. -1.
</event>
<event>
 5    1  0.1106231E-008  0.3704301E+03  0.7957747E-01  0.3493917E+00
         13   -1    0    0    0    0  0.00000000000E+00  0.00000000000E+00  0.14999999963E+04  0.15000000000E+04  0.10566000000E+00 0. -1.
        994   -1    0    0    0    0 -0.00000000000E+00 -0.00000000000E+00  0.11368683772E-12  0.17120000000E+03  0.17120000000E+03 0.  0.
         13    1    1    2    0    0 -0.15952910031E+02  0.91106345686E+01  0.10109987982E+02  0.20969549870E+02  0.10566000000E+00 0. -1.
        994    1    1    2    0    0  0.71602024507E+01 -0.19287749043E+02  0.12649806372E+02  0.17289518028E+03  0.17120000000E+03 0.  0.
        998    1    1    2    0    0  0.87927075803E+01  0.10177114474E+02  0.14772402019E+04  0.14773352699E+04  0.10000000000E+02 0. -1.
</event>
<event>
 5    1  0.1106231E-008  0.3837997E+03  0.7957747E-01  0.3434779E+00
         13   -1    0    0    0    0  0.00000000000E+00  0.00000000000E+00  0.14999999963E+04  0.15000000000E+04  0.10566000000E+00 0.  1.
        994   -1    0    0    0    0 -0.00000000000E+00 -0.00000000000E+00  0.11368683772E-12  0.17120000000E+03  0.17120000000E+03 0.  0.
         13    1    1    2    0    0 -0.18104348718E+02 -0.22093435771E+02  0.17163585200E+03  0.17399644882E+03  0.10566000000E+00 0.  1.
        994    1    1    2    0    0  0.24090248912E+02  0.11509407286E+02  0.45841240652E+01  0.17332991877E+03  0.17120000000E+03 0.  0.
        998    1    1    2    0    0 -0.59859001938E+01  0.10584028484E+02  0.13237800202E+04  0.13238736324E+04  0.10000000000E+02 0.  1.
</event>
<event>
 5    1  0.1106231E-008  0.3848825E+03  0.7957747E-01  0.3430171E+00
         13   -1    0    0    0    0  0.00000000000E+00  0.00000000000E+00  0.14999999963E+04  0.15000000000E+04  0.10566000000E+00 0. -1.
        994   -1    0    0    0    0 -0.00000000000E+00 -0.00000000000E+00  0.11368683772E-12  0.17120000000E+03  0.17120000000E+03 0.  0.
         13    1    1    2    0    0  0.15969938886E+02 -0.61165162044E+01  0.82045916982E+02  0.83809273806E+02  0.10566000000E+00 0. -1.
        994    1    1    2    0    0 -0.17247285346E+02  0.76190481693E+01  0.28589712594E+01  0.17225891113E+03  0.17120000000E+03 0.  0.
        998    1    1    2    0    0  0.12773464599E+01 -0.15025319649E+01  0.14150951080E+04  0.14151318151E+04  0.10000000000E+02 0.  0.
</event>
<event>
 5    1  0.1106231E-008  0.3829803E+03  0.7957747E-01  0.3438283E+00
         13   -1    0    0    0    0  0.00000000000E+00  0.00000000000E+00  0.14999999963E+04  0.15000000000E+04  0.10566000000E+00 0.  1.
        994   -1    0    0    0    0 -0.00000000000E+00 -0.00000000000E+00  0.11368683772E-12  0.17120000000E+03  0.17120000000E+03 0.  0.
         13    1    1    2    0    0 -0.11442397417E+02  0.54220920187E+01  0.29782857992E+02  0.32362900592E+02  0.10566000000E+00 0.  1.
        994    1    1    2    0    0  0.28838898688E+01 -0.82428642310E+01  0.28887036856E+01  0.17144691960E+03  0.17120000000E+03 0.  0.
        998    1    1    2    0    0  0.85585075484E+01  0.28207722123E+01  0.14673284346E+04  0.14673901798E+04  0.10000000000E+02 0.  1.
</event>
<event>
 5    1  0.1106231E-008  0.2106250E+03  0.7957747E-01  0.4854356E+00
         13   -1    0    0    0    0  0.00000000000E+00  0.00000000000E+00  0.14999999963E+04  0.15000000000E+04  0.10566000000E+00 0.  1.
        994   -1    0    0    0    0 -0.00000000000E+00 -0.00000000000E+00  0.11368683772E-12  0.17120000000E+03  0.17120000000E+03 0.  0.
         13    1    1    2    0    0  0.14865142559E+03  0.78799674816E+02  0.18813282050E+03  0.25238978663E+03  0.10566000000E+00 0.  1.
        994    1    1    2    0    0 -0.89957663853E+02 -0.34823199763E+02  0.13222945196E+03  0.23685249522E+03  0.17120000000E+03 0.  0.
        998    1    1    2    0    0 -0.58693761739E+02 -0.43976475054E+02  0.11796377238E+04  0.11819577182E+04  0.10000000000E+02 0.  0.
</event>
<event>
 5    1  0.1106231E-008  0.3829567E+03  0.7957747E-01  0.3438384E+00
         13   -1    0    0    0    0  0.00000000000E+00  0.00000000000E+00  0.14999999963E+04  0.15000000000E+04  0.10566000000E+00 0. -1.
        994   -1    0    0    0    0 -0.00000000000E+00 -0.00000000000E+00  0.11368683772E-12  0.17120000000E+03  0.17120000000E+03 0.  0.
         13    1    1    2    0    0 -0.24098152945E+02  0.10902561942E+02  0.12459899433E+03  0.12737545832E+03  0.10566000000E+00 0. -1.
        994    1    1    2    0    0  0.22076012098E+02 -0.83682822622E+01  0.44954145501E+01  0.17287864880E+03  0.17120000000E+03 0.  0.
        998    1    1    2    0    0  0.20221408476E+01 -0.25342796801E+01  0.13709055874E+04  0.13709458929E+04  0.10000000000E+02 0. -1.
</event>
<event>
 5    1  0.1106231E-008  0.4002803E+03  0.7957747E-01  0.3367344E+00
         13   -1    0    0    0    0  0.00000000000E+00  0.00000000000E+00  0.14999999963E+04  0.15000000000E+04  0.10566000000E+00 0.  1.
        994   -1    0    0    0    0 -0.00000000000E+00 -0.00000000000E+00  0.11368683772E-12  0.17120000000E+03  0.17120000000E+03 0.  0.
         13    1    1    2    0    0 -0.48003556968E+02 -0.27231322736E+02  0.52495260109E+02  0.76168562527E+02  0.10566000000E+00 0.  1.
        994    1    1    2    0    0 -0.14861264690E+02 -0.22531373961E+02  0.30806785785E+02  0.17603129850E+03  0.17120000000E+03 0.  0.
        998    1    1    2    0    0  0.62864821658E+02  0.49762696697E+02  0.14166979504E+04  0.14190001390E+04  0.10000000000E+02 0.  1.
</event>
<event>
 5    1  0.1106231E-008  0.3741670E+03  0.7957747E-01  0.3476956E+00
         13   -1    0    0    0    0  0.00000000000E+00  0.00000000000E+00  0.14999999963E+04  0.15000000000E+04  0.10566000000E+00 0. -1.
        994   -1    0    0    0    0 -0.00000000000E+00 -0.00000000000E+00  0.11368683772E-12  0.17120000000E+03  0.17120000000E+03 0.  0.
         13    1    1    2    0    0 -0.15940463989E+02 -0.44026055012E+02  0.14070902765E+03  0.14829508940E+03  0.10566000000E+00 0. -1.
        994    1    1    2    0    0  0.17759720513E+02  0.39970254244E+02  0.13656297699E+02  0.17722574126E+03  0.17120000000E+03 0.  0.
        998    1    1    2    0    0 -0.18192565231E+01  0.40558007687E+01  0.13456346709E+04  0.13456791693E+04  0.10000000000E+02 0. -1.
</event>
<event>
 5    1  0.1106231E-008  0.3839490E+03  0.7957747E-01  0.3434142E+00
         13   -1    0    0    0    0  0.00000000000E+00  0.00000000000E+00  0.14999999963E+04  0.15000000000E+04  0.10566000000E+00 0.  1.
        994   -1    0    0    0    0 -0.00000000000E+00 -0.00000000000E+00  0.11368683772E-12  0.17120000000E+03  0.17120000000E+03 0.  0.
         13    1    1    2    0    0 -0.20819929198E+02  0.14051386679E+02  0.14075977863E+03  0.14298334646E+03  0.10566000000E+00 0.  1.
        994    1    1    2    0    0  0.17929197222E+02 -0.87409572321E+01  0.34668462068E+01  0.17239292175E+03  0.17120000000E+03 0.  0.
        998    1    1    2    0    0  0.28907319765E+01 -0.53104294470E+01  0.13557733714E+04  0.13558237318E+04  0.10000000000E+02 0.  1.
</event>
<event>
 5    1  0.1106231E-008  0.4082256E+03  0.7957747E-01  0.3336771E+00
         13   -1    0    0    0    0  0.00000000000E+00  0.00000000000E+00  0.14999999963E+04  0.15000000000E+04  0.10566000000E+00 0. -1.
        994   -1    0    0    0    0 -0.00000000000E+00 -0.00000000000E+00  0.11368683772E-12  0.17120000000E+03  0.17120000000E+03 0.  0.
         13    1    1    2    0    0  0.47008548796E+02 -0.47800106414E+02  0.55847841708E+02  0.87256211358E+02  0.10566000000E+00 0. -1.
        994    1    1    2    0    0 -0.47871125151E+02  0.43805642395E+02  0.50053810485E+02  0.18980359025E+03  0.17120000000E+03 0.  0.
        998    1    1    2    0    0  0.86257635520E+00  0.39944640190E+01  0.13940983441E+04  0.13941401984E+04  0.10000000000E+02 0. -1.
</event>
<event>
 5    1  0.1106231E-008  0.3755263E+03  0.7957747E-01  0.3470872E+00
         13   -1    0    0    0    0  0.00000000000E+00  0.00000000000E+00  0.14999999963E+04  0.15000000000E+04  0.10566000000E+00 0.  1.
        994   -1    0    0    0    0 -0.00000000000E+00 -0.00000000000E+00  0.11368683772E-12  0.17120000000E+03  0.17120000000E+03 0.  0.
         13    1    1    2    0    0  0.25500708640E+02 -0.90363449241E+02  0.32482325656E+03  0.33812127745E+03  0.10566000000E+00 0.  1.
        994    1    1    2    0    0 -0.12458655395E+02  0.47461593541E+02  0.22525505072E+02  0.17951228185E+03  0.17120000000E+03 0.  0.
        998    1    1    2    0    0 -0.13042053245E+02  0.42901855700E+02  0.11526512346E+04  0.11535664407E+04  0.10000000000E+02 0.  1.
</event>
<event>
 5    1  0.1106231E-008  0.3851811E+03  0.7957747E-01  0.3428904E+00
         13   -1    0    0    0    0  0.00000000000E+00  0.00000000000E+00  0.14999999963E+04  0.15000000000E+04  0.10566000000E+00 0.  1.
        994   -1    0    0    0    0 -0.00000000000E+00 -0.00000000000E+00  0.11368683772E-12  0.17120000000E+03  0.17120000000E+03 0.  0.
         13    1    1    2    0    0  0.30582347739E+01 -0.10367111878E+02  0.36126802765E+02  0.37709240919E+02  0.10566000000E+00 0.  1.
        994    1    1    2    0    0 -0.91487422568E+01  0.14909595936E+02  0.25466003069E+01  0.17211019932E+03  0.17120000000E+03 0.  0.
        998    1    1    2    0    0  0.60905074829E+01 -0.45424840581E+01  0.14613265932E+04  0.14613805598E+04  0.10000000000E+02 0.  1.
</event>
<event>
 5    1  0.1106231E-008  0.3864584E+03  0.7957747E-01  0.3423510E+00
         13   -1    0    0    0    0  0.00000000000E+00  0.00000000000E+00  0.14999999963E+04  0.15000000000E+04  0.10566000000E+00 0. -1.
        994   -1    0    0    0    0 -0.00000000000E+00 -0.00000000000E+00  0.11368683772E-12  0.17120000000E+03  0.17120000000E+03 0.  0.
         13    1    1    2    0    0 -0.24412521605E+03  0.95442369346E+01  0.11556359139E+04  0.11811784751E+04  0.10566000000E+00 0. -1.
        994    1    1    2    0    0  0.25325591591E+03 -0.10905083535E+02  0.25104482062E+03  0.39571507648E+03  0.17120000000E+03 0.  0.
        998    1    1    2    0    0 -0.91306998586E+01  0.13608466002E+01  0.93319261802E+02  0.94306448384E+02  0.10000000000E+02 0.  1.
</event>
<event>
 5    1  0.1106231E-008  0.4031100E+03  0.7957747E-01  0.3356319E+00
         13   -1    0    0    0    0  0.00000000000E+00  0.00000000000E+00  0.14999999963E+04  0.15000000000E+04  0.10566000000E+00 0.  1.
        994   -1    0    0    0    0 -0.00000000000E+00 -0.00000000000E+00  0.11368683772E-12  0.17120000000E+03  0.17120000000E+03 0.  0.
         13    1    1    2    0    0  0.11778286527E+03  0.17745125486E+02  0.34387059181E+03  0.36391577035E+03  0.10566000000E+00 0.  1.
        994    1    1    2    0    0  0.10239601524E+02 -0.23513362146E+02  0.32263425529E+02  0.17609115896E+03  0.17120000000E+03 0.  0.
        998    1    1    2    0    0 -0.12802246680E+03  0.57682366600E+01  0.11238659789E+04  0.11311930707E+04  0.10000000000E+02 0.  1.
</event>
<event>
 5    1  0.1106231E-008  0.3821618E+03  0.7957747E-01  0.3441799E+00
         13   -1    0    0    0    0  0.00000000000E+00  0.00000000000E+00  0.14999999963E+04  0.15000000000E+04  0.10566000000E+00 0.  1.
        994   -1    0    0    0    0 -0.00000000000E+00 -0.00000000000E+00  0.11368683772E-12  0.17120000000E+03  0.17120000000E+03 0.  0.
         13    1    1    2    0    0  0.32367467550E+01  0.10568153917E+02  0.19375776319E+02  0.22306821351E+02  0.10566000000E+00 0.  1.
        994    1    1    2    0    0  0.64725724148E+01 -0.22043805087E+00  0.31850775650E+01  0.17135205720E+03  0.17120000000E+03 0.  0.
        998    1    1    2    0    0 -0.97093191698E+01 -0.10347715866E+02  0.14774391424E+04  0.14775411215E+04  0.10000000000E+02 0.  1.
</event>
<event>
 5    1  0.1106231E-008  0.3851345E+03  0.7957747E-01  0.3429102E+00
         13   -1    0    0    0    0  0.00000000000E+00  0.00000000000E+00  0.14999999963E+04  0.15000000000E+04  0.10566000000E+00 0. -1.
        994   -1    0    0    0    0 -0.00000000000E+00 -0.00000000000E+00  0.11368683772E-12  0.17120000000E+03  0.17120000000E+03 0.  0.
         13    1    1    2    0    0  0.61470955812E+01  0.14723079375E+02  0.77975393848E+02  0.79591011177E+02  0.10566000000E+00 0. -1.
        994    1    1    2    0    0 -0.35963219048E+01 -0.16692315699E+02  0.25224156574E+01  0.17206792123E+03  0.17120000000E+03 0.  0.
        998    1    1    2    0    0 -0.25507736765E+01  0.19692363247E+01  0.14195021868E+04  0.14195410676E+04  0.10000000000E+02 0. -1.
</event>
<event>
 5    1  0.1106231E-008  0.3841005E+03  0.7957747E-01  0.3433496E+00
         13   -1    0    0    0    0  0.00000000000E+00  0.00000000000E+00  0.14999999963E+04  0.15000000000E+04  0.10566000000E+00 0.  1.
        994   -1    0    0    0    0 -0.00000000000E+00 -0.00000000000E+00  0.11368683772E-12  0.17120000000E+03  0.17120000000E+03 0.  0.
         13    1    1    2    0    0 -0.42901987225E+02 -0.11164481639E+03  0.36260539987E+03  0.38182172897E+03  0.10566000000E+00 0.  1.
        994    1    1    2    0    0  0.26340432273E+02  0.74863060679E+02  0.42156253667E+02  0.19335171566E+03  0.17120000000E+03 0.  0.
        998    1    1    2    0    0  0.16561554952E+02  0.36781755715E+02  0.10952383427E+04  0.10960265554E+04  0.10000000000E+02 0.  1.
</event>
<event>
 5    1  0.1106231E-008  0.3786370E+03  0.7957747E-01  0.3457115E+00
         13   -1    0    0    0    0  0.00000000000E+00  0.00000000000E+00  0.14999999963E+04  0.15000000000E+04  0.10566000000E+00 0.  1.
        994   -1    0    0    0    0 -0.00000000000E+00 -0.00000000000E+00  0.11368683772E-12  0.17120000000E+03  0.17120000000E+03 0.  0.
         13    1    1    2    0    0  0.30209025804E+01  0.16980726213E+02  0.28655028138E+02  0.33445369137E+02  0.10566000000E+00 0.  1.
        994    1    1    2    0    0 -0.12402124038E+02 -0.12478642376E+02  0.58628545090E+01  0.17220145835E+03  0.17120000000E+03 0.  0.
        998    1    1    2    0    0  0.93812214580E+01 -0.45020838373E+01  0.14654821136E+04  0.14655531725E+04  0.10000000000E+02 0.  1.
</event>
<event>
 5    1  0.1106231E-008  0.3735177E+03  0.7957747E-01  0.3479879E+00
         13   -1    0    0    0    0  0.00000000000E+00  0.00000000000E+00  0.14999999963E+04  0.15000000000E+04  0.10566000000E+00 0.  1.
        994   -1    0    0    0    0 -0.00000000000E+00 -0.00000000000E+00  0.11368683772E-12  0.17120000000E+03  0.17120000000E+03 0.  0.
         13    1    1    2    0    0 -0.15516123308E+03  0.24022136583E+02  0.72713182425E+03  0.74389029587E+03  0.10566000000E+00 0.  1.
        994    1    1    2    0    0  0.15849949841E+03 -0.22567312788E+02  0.10078775239E+03  0.25514502863E+03  0.17120000000E+03 0.  0.
        998    1    1    2    0    0 -0.33382653292E+01 -0.14548237955E+01  0.67208041964E+03  0.67216467550E+03  0.10000000000E+02 0.  0.
</event>
<event>
 5    1  0.1106231E-008  0.3778185E+03  0.7957747E-01  0.3460712E+00
         13   -1    0    0    0    0  0.00000000000E+00  0.00000000000E+00  0.14999999963E+04  0.15000000000E+04  0.10566000000E+00 0. -1.
        994   -1    0    0    0    0 -0.00000000000E+00 -0.00000000000E+00  0.11368683772E-12  0.17120000000E+03  0.17120000000E+03 0.  0.
         13    1    1    2    0    0 -0.16504793163E+02 -0.16616440057E+03  0.84654280686E+03  0.86285442064E+03  0.10566000000E+00 0. -1.
        994    1    1    2    0    0  0.30536299044E+02  0.17288422151E+03  0.11722590437E+03  0.27179546034E+03  0.17120000000E+03 0.  0.
        998    1    1    2    0    0 -0.14031505881E+02 -0.67198209354E+01  0.53623128505E+03  0.53655011902E+03  0.10000000000E+02 0. -1.
</event>
<event>
 5    1  0.1106231E-008  0.3835488E+03  0.7957747E-01  0.3435850E+00
         13   -1    0    0    0    0  0.00000000000E+00  0.00000000000E+00  0.14999999963E+04  0.15000000000E+04  0.10566000000E+00 0. -1.
        994   -1    0    0    0    0 -0.00000000000E+00 -0.00000000000E+00  0.11368683772E-12  0.17120000000E+03  0.17120000000E+03 0.  0.
         13    1    1    2    0    0 -0.27461005726E+02  0.31720729261E+01  0.14258045228E+03  0.14523555150E+03  0.10566000000E+00 0. -1.
        994    1    1    2    0    0  0.33648053196E+02  0.41936671038E+01  0.61607339757E+01  0.17463439802E+03  0.17120000000E+03 0.  0.
        998    1    1    2    0    0 -0.61870474701E+01 -0.73657400299E+01  0.13512588100E+04  0.13513300505E+04  0.10000000000E+02 0. -1.
</event>
<event>
 5    1  0.1106231E-008  0.4085903E+03  0.7957747E-01  0.3335396E+00
         13   -1    0    0    0    0  0.00000000000E+00  0.00000000000E+00  0.14999999963E+04  0.15000000000E+04  0.10566000000E+00 0. -1.
        994   -1    0    0    0    0 -0.00000000000E+00 -0.00000000000E+00  0.11368683772E-12  0.17120000000E+03  0.17120000000E+03 0.  0.
         13    1    1    2    0    0 -0.26612882019E+02  0.95295265549E+02  0.16423778754E+03  0.19173808997E+03  0.10566000000E+00 0. -1.
        994    1    1    2    0    0 -0.10127753157E+03 -0.43568871732E+02  0.84316020599E+02  0.22039513678E+03  0.17120000000E+03 0.  0.
        998    1    1    2    0    0  0.12789041359E+03 -0.51726393817E+02  0.12514461881E+04  0.12590667733E+04  0.10000000000E+02 0. -1.
</event>
<event>
 5    1  0.1106231E-008  0.3701962E+03  0.7957747E-01  0.3494990E+00
         13   -1    0    0    0    0  0.00000000000E+00  0.00000000000E+00  0.14999999963E+04  0.15000000000E+04  0.10566000000E+00 0.  1.
        994   -1    0    0    0    0 -0.00000000000E+00 -0.00000000000E+00  0.11368683772E-12  0.17120000000E+03  0.17120000000E+03 0.  0.
         13    1    1    2    0    0  0.45990101582E+02  0.44781625468E+01  0.11930044715E+03  0.12793651253E+03  0.10566000000E+00 0.  1.
        994    1    1    2    0    0 -0.16164691764E+02  0.28991192390E+01  0.10098984186E+02  0.17228212802E+03  0.17120000000E+03 0.  0.
        998    1    1    2    0    0 -0.29825409818E+02 -0.73772817858E+01  0.13706005649E+04  0.13709813595E+04  0.10000000000E+02 0.  1.
</event>
<event>
 5    1  0.1106231E-008  0.3840588E+03  0.7957747E-01  0.3433674E+00
         13   -1    0    0    0    0  0.00000000000E+00  0.00000000000E+00  0.14999999963E+04  0.15000000000E+04  0.10566000000E+00 0.  1.
        994   -1    0    0    0    0 -0.00000000000E+00 -0.00000000000E+00  0.11368683772E-12  0.17120000000E+03  0.17120000000E+03 0.  0.
         13    1    1    2    0    0 -0.46557206249E+02 -0.11790767025E+03  0.39230119271E+03  0.41227421594E+03  0.10566000000E+00 0.  1.
        994    1    1    2    0    0  0.27594393446E+02  0.85578786477E+02  0.48962632311E+02  0.19947921849E+03  0.17120000000E+03 0.  0.
        998    1    1    2    0    0  0.18962812803E+02  0.32328883772E+02  0.10587361713E+04  0.10594465656E+04  0.10000000000E+02 0.  1.
</event>
<event>
 5    1  0.1106231E-008  0.3800833E+03  0.7957747E-01  0.3450796E+00
         13   -1    0    0    0    0  0.00000000000E+00  0.00000000000E+00  0.14999999963E+04  0.15000000000E+04  0.10566000000E+00 0. -1.
        994   -1    0    0    0    0 -0.00000000000E+00 -0.00000000000E+00  0.11368683772E-12  0.17120000000E+03  0.17120000000E+03 0.  0.
         13    1    1    2    0    0  0.13495424680E+03 -0.46076920482E+02  0.76743585318E+03  0.78057256629E+03  0.10566000000E+00 0. -1.
        994    1    1    2    0    0 -0.15754510098E+03  0.39285097890E+02  0.97915274433E+02  0.25546157975E+03  0.17120000000E+03 0.  0.
        998    1    1    2    0    0  0.22590854185E+02  0.67918225920E+01  0.63464886866E+03  0.63516585397E+03  0.10000000000E+02 0.  0.
</event>
<event>
 5    1  0.1106231E-008  0.3760771E+03  0.7957747E-01  0.3468419E+00
         13   -1    0    0    0    0  0.00000000000E+00  0.00000000000E+00  0.14999999963E+04  0.15000000000E+04  0.10566000000E+00 0.  1.
        994   -1    0    0    0    0 -0.00000000000E+00 -0.00000000000E+00  0.11368683772E-12  0.17120000000E+03  0.17120000000E+03 0.  0.
         13    1    1    2    0    0 -0.71085345377E+01 -0.15739163011E+02  0.21730421287E+02  0.27757429437E+02  0.10566000000E+00 0.  1.
        994    1    1    2    0    0  0.10258561194E+02  0.88227755612E+01  0.67469532998E+01  0.17186634582E+03  0.17120000000E+03 0.  0.
        998    1    1    2    0    0 -0.31500266565E+01  0.69163874498E+01  0.14715226217E+04  0.14715762247E+04  0.10000000000E+02 0.  1.
</event>
<event>
 5    1  0.1106231E-008  0.3818712E+03  0.7957747E-01  0.3443051E+00
         13   -1    0    0    0    0  0.00000000000E+00  0.00000000000E+00  0.14999999963E+04  0.15000000000E+04  0.10566000000E+00 0.  1.
        994   -1    0    0    0    0 -0.00000000000E+00 -0.00000000000E+00  0.11368683772E-12  0.17120000000E+03  0.17120000000E+03 0.  0.
         13    1    1    2    0    0 -0.30199089552E+02  0.24499511806E+01  0.13000010833E+03  0.13348418109E+03  0.10566000000E+00 0.  1.
        994    1    1    2    0    0  0.34054011119E+02  0.13596714889E+02  0.76715109534E+01  0.17525078719E+03  0.17120000000E+03 0.  0.
        998    1    1    2    0    0 -0.38549215673E+01 -0.16046666069E+02  0.13623283770E+04  0.13624650317E+04  0.10000000000E+02 0.  1.
</event>
<event>
 5    1  0.1106231E-008  0.3705456E+03  0.7957747E-01  0.3493387E+00
         13   -1    0    0    0    0  0.00000000000E+00  0.00000000000E+00  0.14999999963E+04  0.15000000000E+04  0.10566000000E+00 0. -1.
        994   -1    0    0    0    0 -0.00000000000E+00 -0.00000000000E+00  0.11368683772E-12  0.17120000000E+03  0.17120000000E+03 0.  0.
         13    1    1    2    0    0 -0.10878107938E+03  0.19295575371E+02  0.47144240722E+03  0.48421441217E+03  0.10566000000E+00 0. -1.
        994    1    1    2    0    0  0.10245881311E+03 -0.31037563011E+02  0.49644573377E+02  0.20793066721E+03  0.17120000000E+03 0.  0.
        998    1    1    2    0    0  0.63222662787E+01  0.11741987640E+02  0.97891301568E+03  0.97905492062E+03  0.10000000000E+02 0. -1.
</event>
<event>
 5    1  0.1106231E-008  0.3818038E+03  0.7957747E-01  0.3443342E+00
         13   -1    0    0    0    0  0.00000000000E+00  0.00000000000E+00  0.14999999963E+04  0.15000000000E+04  0.10566000000E+00 0.  1.
        994   -1    0    0    0    0 -0.00000000000E+00 -0.00000000000E+00  0.11368683772E-12  0.17120000000E+03  0.17120000000E+03 0.  0.
         13    1    1    2    0    0 -0.14226699252E+02 -0.21094849218E+02  0.97182789013E+02  0.10045843558E+03  0.10566000000E+00 0.  1.
        994    1    1    2    0    0  0.20175819973E+02  0.10019714827E+02  0.49135357988E+01  0.17274559685E+03  0.17120000000E+03 0.  0.
        998    1    1    2    0    0 -0.59491207211E+01  0.11075134391E+02  0.13979036715E+04  0.13979959676E+04  0.10000000000E+02 0.  1.
</event>
<event>
 5    1  0.1106231E-008  0.3779844E+03  0.7957747E-01  0.3459982E+00
         13   -1    0    0    0    0  0.00000000000E+00  0.00000000000E+00  0.14999999963E+04  0.15000000000E+04  0.10566000000E+00 0. -1.
        994   -1    0    0    0    0 -0.00000000000E+00 -0.00000000000E+00  0.11368683772E-12  0.17120000000E+03  0.17120000000E+03 0.  0.
         13    1    1    2    0    0 -0.12360241973E+02  0.54851243915E+01  0.15946445863E+02  0.20908430618E+02  0.10566000000E+00 0. -1.
        994    1    1    2    0    0 -0.55866023702E+01 -0.73462405057E+01  0.54407693144E+01  0.17153489250E+03  0.17120000000E+03 0.  0.
        998    1    1    2    0    0  0.17946844343E+02  0.18611161142E+01  0.14786127811E+04  0.14787566769E+04  0.10000000000E+02 0. -1.
</event>
<event>
 5    1  0.1106231E-008  0.3838330E+03  0.7957747E-01  0.3434637E+00
         13   -1    0    0    0    0  0.00000000000E+00  0.00000000000E+00  0.14999999963E+04  0.15000000000E+04  0.10566000000E+00 0.  1.
        994   -1    0    0    0    0 -0.00000000000E+00 -0.00000000000E+00  0.11368683772E-12  0.17120000000E+03  0.17120000000E+03 0.  0.
         13    1    1    2    0    0 -0.63245820486E+01  0.21442381963E+02  0.11239157260E+03  0.11459342406E+03  0.10566000000E+00 0.  1.
        994    1    1    2    0    0  0.67193518577E+01 -0.12657917871E+02  0.28889185519E+01  0.17182304393E+03  0.17120000000E+03 0.  0.
        998    1    1    2    0    0 -0.39476980917E+00 -0.87844640928E+01  0.13847195051E+04  0.13847835320E+04  0.10000000000E+02 0.  1.
</event>
<event>
 5    1  0.1106231E-008  0.3751620E+03  0.7957747E-01  0.3472499E+00
         13   -1    0    0    0    0  0.00000000000E+00  0.00000000000E+00  0.14999999963E+04  0.15000000000E+04  0.10566000000E+00 0.  1.
        994   -1    0    0    0    0 -0.00000000000E+00 -0.00000000000E+00  0.11368683772E-12  0.17120000000E+03  0.17120000000E+03 0.  0.
         13    1    1    2    0    0 -0.44036276495E+02  0.51571446666E+02  0.35422861985E+03  0.36066152282E+03  0.10566000000E+00 0.  1.
        994    1    1    2    0    0  0.60739546691E+02 -0.38156995015E+00  0.19234805611E+02  0.18267144242E+03  0.17120000000E+03 0.  0.
        998    1    1    2    0    0 -0.16703270196E+02 -0.51189876716E+02  0.11265365708E+04  0.11278670348E+04  0.10000000000E+02 0.  1.
</event>
<event>
 5    1  0.1106231E-008  0.3846313E+03  0.7957747E-01  0.3431237E+00
         13   -1    0    0    0    0  0.00000000000E+00  0.00000000000E+00  0.14999999963E+04  0.15000000000E+04  0.10566000000E+00 0. -1.
        994   -1    0    0    0    0 -0.00000000000E+00 -0.00000000000E+00  0.11368683772E-12  0.17120000000E+03  0.17120000000E+03 0.  0.
         13    1    1    2    0    0 -0.20163084568E+01  0.17065424483E+02  0.93367122517E+02  0.94935372458E+02  0.10566000000E+00 0. -1.
        994    1    1    2    0    0  0.12464724557E+02  0.89051068563E+01  0.25863461439E+01  0.17190345975E+03  0.17120000000E+03 0.  0.
        998    1    1    2    0    0 -0.10448416100E+02 -0.25970531339E+02  0.14040465276E+04  0.14043611678E+04  0.10000000000E+02 0. -1.
</event>
<event>
 5    1  0.1106231E-008  0.3725365E+03  0.7957747E-01  0.3484314E+00
         13   -1    0    0    0    0  0.00000000000E+00  0.00000000000E+00  0.14999999963E+04  0.15000000000E+04  0.10566000000E+00 0.  1.
        994   -1    0    0    0    0 -0.00000000000E+00 -0.00000000000E+00  0.11368683772E-12  0.17120000000E+03  0.17120000000E+03 0.  0.
         13    1    1    2    0    0  0.16187664703E+02  0.10515866157E+02  0.93971955648E+01  0.21469568651E+02  0.10566000000E+00 0.  1.
        994    1    1    2    0    0 -0.35554636637E+02  0.47238751863E+01  0.16837660154E+02  0.17572533677E+03  0.17120000000E+03 0.  0.
        998    1    1    2    0    0  0.19366971934E+02 -0.15239741343E+02  0.14737651406E+04  0.14740050946E+04  0.10000000000E+02 0.  1.
</event>
<event>
 5    1  0.1106231E-008  0.3801604E+03  0.7957747E-01  0.3450460E+00
         13   -1    0    0    0    0  0.00000000000E+00  0.00000000000E+00  0.14999999963E+04  0.15000000000E+04  0.10566000000E+00 0.  1.
        994   -1    0    0    0    0 -0.00000000000E+00 -0.00000000000E+00  0.11368683772E-12  0.17120000000E+03  0.17120000000E+03 0.  0.
         13    1    1    2    0    0  0.45229860718E+01  0.32069349375E+02  0.14290559438E+03  0.14652958964E+03  0.10566000000E+00 0.  1.
        994    1    1    2    0    0  0.50323796487E+01 -0.26147868177E+01  0.41596646165E+01  0.17134440395E+03  0.17120000000E+03 0.  0.
        998    1    1    2    0    0 -0.95553657206E+01 -0.29454562557E+02  0.13529347373E+04  0.13533260064E+04  0.10000000000E+02 0.  1.
</event>
<event>
 5    1  0.1106231E-008  0.3851013E+03  0.7957747E-01  0.3429243E+00
         13   -1    0    0    0    0  0.00000000000E+00  0.00000000000E+00  0.14999999963E+04  0.15000000000E+04  0.10566000000E+00 0. -1.
        994   -1    0    0    0    0 -0.00000000000E+00 -0.00000000000E+00  0.11368683772E-12  0.17120000000E+03  0.17120000000E+03 0.  0.
         13    1    1    2    0    0 -0.13455886430E+02 -0.46955200859E+01  0.64749867841E+02  0.66299814012E+02  0.10566000000E+00 0. -1.
        994    1    1    2    0    0  0.51860987693E+01  0.11061502318E+02  0.20706632337E+01  0.17164783745E+03  0.17120000000E+03 0.  0.
        998    1    1    2    0    0  0.82697876609E+01 -0.63659822317E+01  0.14331794652E+04  0.14332523485E+04  0.10000000000E+02 0. -1.
</event>
<event>
 5    1  0.1106231E-008  0.3859045E+03  0.7957747E-01  0.3425845E+00
         13   -1    0    0    0    0  0.00000000000E+00  0.00000000000E+00  0.14999999963E+04  0.15000000000E+04  0.10566000000E+00 0. -1.
        994   -1    0    0    0    0 -0.00000000000E+00 -0.00000000000E+00  0.11368683772E-12  0.17120000000E+03  0.17120000000E+03 0.  0.
         13    1    1    2    0    0 -0.68526969021E+01  0.93269932524E+01  0.58241951590E+02  0.59380875263E+02  0.10566000000E+00 0. -1.
        994    1    1    2    0    0  0.12768967830E+02  0.25299173212E+01  0.17375649635E+01  0.17170295907E+03  0.17120000000E+03 0.  0.
        998    1    1    2    0    0 -0.59162709274E+01 -0.11856910574E+02  0.14400204797E+04  0.14401161657E+04  0.10000000000E+02 0. -1.
</event>
<event>
 5    1  0.1106231E-008  0.3841783E+03  0.7957747E-01  0.3433164E+00
         13   -1    0    0    0    0  0.00000000000E+00  0.00000000000E+00  0.14999999963E+04  0.15000000000E+04  0.10566000000E+00 0.  1.
        994   -1    0    0    0    0 -0.00000000000E+00 -0.00000000000E+00  0.11368683772E-12  0.17120000000E+03  0.17120000000E+03 0.  0.
         13    1    1    2    0    0  0.49091450163E+00  0.23711876106E+02  0.13135073473E+03  0.13347479441E+03  0.10566000000E+00 0.  1.
        994    1    1    2    0    0  0.25844924912E+01 -0.20320795456E+02  0.34234927403E+01  0.17245513803E+03  0.17120000000E+03 0.  0.
        998    1    1    2    0    0 -0.30754069928E+01 -0.33910806498E+01  0.13652257688E+04  0.13652700676E+04  0.10000000000E+02 0.  1.
</event>
<event>
 5    1  0.1106231E-008  0.3779375E+03  0.7957747E-01  0.3460189E+00
         13   -1    0    0    0    0  0.00000000000E+00  0.00000000000E+00  0.14999999963E+04  0.15000000000E+04  0.10566000000E+00 0.  1.
        994   -1    0    0    0    0 -0.00000000000E+00 -0.00000000000E+00  0.11368683772E-12  0.17120000000E+03  0.17120000000E+03 0.  0.
         13    1    1    2    0    0  0.32935328859E+02 -0.13166121701E+02  0.11293990078E+03  0.11837869318E+03  0.10566000000E+00 0.  1.
        994    1    1    2    0    0 -0.33184961830E+02  0.61049865284E+01  0.90195560233E+01  0.17472637163E+03  0.17120000000E+03 0.  0.
        998    1    1    2    0    0  0.24963297099E+00  0.70611351730E+01  0.13780405395E+04  0.13780949352E+04  0.10000000000E+02 0.  1.
</event>
<event>
 5    1  0.1106231E-008  0.3709235E+03  0.7957747E-01  0.3491657E+00
         13   -1    0    0    0    0  0.00000000000E+00  0.00000000000E+00  0.14999999963E+04  0.15000000000E+04  0.10566000000E+00 0. -1.
        994   -1    0    0    0    0 -0.00000000000E+00 -0.00000000000E+00  0.11368683772E-12  0.17120000000E+03  0.17120000000E+03 0.  0.
         13    1    1    2    0    0  0.38926279786E+02  0.50838203958E+01  0.83392563329E+02  0.92170663827E+02  0.10566000000E+00 0. -1.
        994    1    1    2    0    0 -0.27743459009E+02 -0.92560072615E+01  0.11740992024E+02  0.17407660406E+03  0.17120000000E+03 0.  0.
        998    1    1    2    0    0 -0.11182820777E+02  0.41721868657E+01  0.14048664409E+04  0.14049527321E+04  0.10000000000E+02 0. -1.
</event>
<event>
 5    1  0.1106231E-008  0.3844053E+03  0.7957747E-01  0.3432198E+00
         13   -1    0    0    0    0  0.00000000000E+00  0.00000000000E+00  0.14999999963E+04  0.15000000000E+04  0.10566000000E+00 0. -1.
        994   -1    0    0    0    0 -0.00000000000E+00 -0.00000000000E+00  0.11368683772E-12  0.17120000000E+03  0.17120000000E+03 0.  0.
         13    1    1    2    0    0  0.11467188051E+02  0.28537302662E+01  0.35398099457E+02  0.37318585014E+02  0.10566000000E+00 0. -1.
        994    1    1    2    0    0 -0.11282688296E+02  0.18694214607E+00  0.23453614771E+01  0.17158751331E+03  0.17120000000E+03 0.  0.
        998    1    1    2    0    0 -0.18449975488E+00 -0.30406724123E+01  0.14622565353E+04  0.14622939017E+04  0.10000000000E+02 0. -1.
</event>
<event>
 5    1  0.1106231E-008  0.3830788E+03  0.7957747E-01  0.3437861E+00
         13   -1    0    0    0    0  0.00000000000E+00  0.00000000000E+00  0.14999999963E+04  0.15000000000E+04  0.10566000000E+00 0. -1.
        994   -1    0    0    0    0 -0.00000000000E+00 -0.00000000000E+00  0.11368683772E-12  0.17120000000E+03  0.17120000000E+03 0.  0.
         13    1    1    2    0    0  0.42048263966E+01 -0.23221455441E+02  0.10212937478E+03  0.10482049855E+03  0.10566000000E+00 0. -1.
        994    1    1    2    0    0 -0.13091763933E+02  0.19853878239E+02  0.44608565713E+01  0.17290144593E+03  0.17120000000E+03 0.  0.
        998    1    1    2    0    0  0.88869375363E+01  0.33675772025E+01  0.13934097649E+04  0.13934780555E+04  0.10000000000E+02 0. -1.
</event>
<event>
 5    1  0.1106231E-008  0.3833498E+03  0.7957747E-01  0.3436701E+00
         13   -1    0    0    0    0  0.00000000000E+00  0.00000000000E+00  0.14999999963E+04  0.15000000000E+04  0.10566000000E+00 0. -1.
        994   -1    0    0    0    0 -0.00000000000E+00 -0.00000000000E+00  0.11368683772E-12  0.17120000000E+03  0.17120000000E+03 0.  0.
         13    1    1    2    0    0  0.15721335250E+02  0.15259766637E+02  0.11125150424E+03  0.11338839985E+03  0.10566000000E+00 0. -1.
        994    1    1    2    0    0  0.90242821268E+00  0.69663863000E+01  0.26148104558E+01  0.17136400482E+03  0.17120000000E+03 0.  0.
        998    1    1    2    0    0 -0.16623763462E+02 -0.22226152937E+02  0.13861336816E+04  0.13864475953E+04  0.10000000000E+02 0. -1.
</event>
<event>
 5    1  0.1106231E-008  0.3858914E+03  0.7957747E-01  0.3425900E+00
         13   -1    0    0    0    0  0.00000000000E+00  0.00000000000E+00  0.14999999963E+04  0.15000000000E+04  0.10566000000E+00 0.  1.
        994   -1    0    0    0    0 -0.00000000000E+00 -0.00000000000E+00  0.11368683772E-12  0.17120000000E+03  0.17120000000E+03 0.  0.
         13    1    1    2    0    0  0.54755056311E+01  0.94471362093E+01  0.50626810503E+02  0.51791067282E+02  0.10566000000E+00 0.  1.
        994    1    1    2    0    0  0.32172449004E+01 -0.10601871371E+02  0.15908452727E+01  0.17156550099E+03  0.17120000000E+03 0.  0.
        998    1    1    2    0    0 -0.86927505316E+01  0.11547351613E+01  0.14477823405E+04  0.14478434317E+04  0.10000000000E+02 0.  1.
</event>
<event>
 5    1  0.1106231E-008  0.3856781E+03  0.7957747E-01  0.3426801E+00
         13   -1    0    0    0    0  0.00000000000E+00  0.00000000000E+00  0.14999999963E+04  0.15000000000E+04  0.10566000000E+00 0.  1.
        994   -1    0    0    0    0 -0.00000000000E+00 -0.00000000000E+00  0.11368683772E-12  0.17120000000E+03  0.17120000000E+03 0.  0.
         13    1    1    2    0    0  0.21917074077E+03 -0.83468296112E+02  0.11675759647E+04  0.11908973149E+04  0.10566000000E+00 0.  1.
        994    1    1    2    0    0 -0.22400010770E+03  0.95472372685E+02  0.22889703820E+03  0.37549209884E+03  0.17120000000E+03 0.  0.
        998    1    1    2    0    0  0.48293669299E+01 -0.12004076573E+02  0.10352699337E+03  0.10481058628E+03  0.10000000000E+02 0.  1.
</event>
<event>
 5    1  0.1106231E-008  0.4043108E+03  0.7957747E-01  0.3351686E+00
         13   -1    0    0    0    0  0.00000000000E+00  0.00000000000E+00  0.14999999963E+04  0.15000000000E+04  0.10566000000E+00 0.  1.
        994   -1    0    0    0    0 -0.00000000000E+00 -0.00000000000E+00  0.11368683772E-12  0.17120000000E+03  0.17120000000E+03 0.  0.
         13    1    1    2    0    0  0.38816164711E+02 -0.13098586552E+03  0.29477051023E+03  0.32489022218E+03  0.10566000000E+00 0.  1.
        994    1    1    2    0    0 -0.22223896255E+02  0.87440630301E+02  0.63622257809E+02  0.20370811737E+03  0.17120000000E+03 0.  0.
        998    1    1    2    0    0 -0.16592268456E+02  0.43545235216E+02  0.11416072282E+04  0.11426016604E+04  0.10000000000E+02 0.  1.
</event>
<event>
 5    1  0.1106231E-008  0.3769102E+03  0.7957747E-01  0.3464723E+00
         13   -1    0    0    0    0  0.00000000000E+00  0.00000000000E+00  0.14999999963E+04  0.15000000000E+04  0.10566000000E+00 0.  1.
        994   -1    0    0    0    0 -0.00000000000E+00 -0.00000000000E+00  0.11368683772E-12  0.17120000000E+03  0.17120000000E+03 0.  0.
         13    1    1    2    0    0  0.19965224074E+02 -0.24713052947E+02  0.79486664666E+02  0.85600737041E+02  0.10566000000E+00 0.  1.
        994    1    1    2    0    0 -0.16301570338E+02  0.38997944689E+02  0.11759015644E+02  0.17673227021E+03  0.17120000000E+03 0.  0.
        998    1    1    2    0    0 -0.36636537363E+01 -0.14284891742E+02  0.14087543160E+04  0.14088669927E+04  0.10000000000E+02 0.  1.
</event>
<event>
 5    1  0.1106231E-008  0.3795374E+03  0.7957747E-01  0.3453175E+00
         13   -1    0    0    0    0  0.00000000000E+00  0.00000000000E+00  0.14999999963E+04  0.15000000000E+04  0.10566000000E+00 0. -1.
        994   -1    0    0    0    0 -0.00000000000E+00 -0.00000000000E+00  0.11368683772E-12  0.17120000000E+03  0.17120000000E+03 0.  0.
         13    1    1    2    0    0 -0.43310535864E+01 -0.35572173361E+02  0.13665697535E+03  0.14127730751E+03  0.10566000000E+00 0. -1.
        994    1    1    2    0    0  0.12484423142E+01  0.32070904835E+02  0.78233383841E+01  0.17435809751E+03  0.17120000000E+03 0.  0.
        998    1    1    2    0    0  0.30826112721E+01  0.35012685259E+01  0.13555196825E+04  0.13555645950E+04  0.10000000000E+02 0. -1.
</event>
<event>
 5    1  0.1106231E-008  0.3799974E+03  0.7957747E-01  0.3451170E+00
         13   -1    0    0    0    0  0.00000000000E+00  0.00000000000E+00  0.14999999963E+04  0.15000000000E+04  0.10566000000E+00 0.  1.
        994   -1    0    0    0    0 -0.00000000000E+00 -0.00000000000E+00  0.11368683772E-12  0.17120000000E+03  0.17120000000E+03 0.  0.
         13    1    1    2    0    0  0.21565608534E+01  0.35568124498E+02  0.17195826989E+03  0.17561150299E+03  0.10566000000E+00 0.  1.
        994    1    1    2    0    0 -0.48500038324E+01 -0.29473159166E+01  0.42421474758E+01  0.17134656408E+03  0.17120000000E+03 0.  0.
        998    1    1    2    0    0  0.26934429790E+01 -0.32620808581E+02  0.13237995789E+04  0.13242419329E+04  0.10000000000E+02 0.  1.
</event>
<event>
 5    1  0.1264160E-008  0.3862972E+03  0.7957747E-01  0.3424189E+00
         13   -1    0    0    0    0  0.00000000000E+00  0.00000000000E+00  0.14999999963E+04  0.15000000000E+04  0.10566000000E+00 0. -1.
        994   -1    0    0    0    0 -0.00000000000E+00 -0.00000000000E+00  0.11368683772E-12  0.17120000000E+03  0.17120000000E+03 0.  0.
         13    1    1    2    0    0 -0.21674826197E+01 -0.11340108957E+02  0.68632849735E+02  0.69597236144E+02  0.10566000000E+00 0. -1.
        994    1    1    2    0    0  0.42594879096E+01  0.70427866002E+01  0.12093323672E+01  0.17140200280E+03  0.17120000000E+03 0.  0.
        998    1    1    2    0    0 -0.20920052898E+01  0.42973223565E+01  0.14301578142E+04  0.14302007611E+04  0.10000000000E+02 0. -1.
</event>
<event>
 5    1  0.1106231E-008  0.3785915E+03  0.7957747E-01  0.3457314E+00
         13   -1    0    0    0    0  0.00000000000E+00  0.00000000000E+00  0.14999999963E+04  0.15000000000E+04  0.10566000000E+00 0. -1.
        994   -1    0    0    0    0 -0.00000000000E+00 -0.00000000000E+00  0.11368683772E-12  0.17120000000E+03  0.17120000000E+03 0.  0.
         13    1    1    2    0    0 -0.17110877661E+02  0.34365365842E+02  0.18834038764E+03  0.19221309343E+03  0.10566000000E+00 0. -1.
        994    1    1    2    0    0 -0.57474532163E+01  0.84879518181E+01  0.51988114958E+01  0.17158539036E+03  0.17120000000E+03 0.  0.
        998    1    1    2    0    0  0.22858330877E+02 -0.42853317660E+02  0.13064607971E+04  0.13074015162E+04  0.10000000000E+02 0. -1.
</event>
<event>
 5    1  0.1106231E-008  0.3853186E+03  0.7957747E-01  0.3428322E+00
         13   -1    0    0    0    0  0.00000000000E+00  0.00000000000E+00  0.14999999963E+04  0.15000000000E+04  0.10566000000E+00 0. -1.
        994   -1    0    0    0    0 -0.00000000000E+00 -0.00000000000E+00  0.11368683772E-12  0.17120000000E+03  0.17120000000E+03 0.  0.
         13    1    1    2    0    0 -0.16879946145E+02  0.52906263686E+01  0.91442345596E+02  0.93137731566E+02  0.10566000000E+00 0. -1.
        994    1    1    2    0    0  0.33315642181E+02  0.77278247713E+00  0.51289510340E+01  0.17448861093E+03  0.17120000000E+03 0.  0.
        998    1    1    2    0    0 -0.16435696036E+02 -0.60634088458E+01  0.14034286996E+04  0.14035736575E+04  0.10000000000E+02 0. -1.
</event>
<event>
 5    1  0.1106231E-008  0.3814515E+03  0.7957747E-01  0.3444862E+00
         13   -1    0    0    0    0  0.00000000000E+00  0.00000000000E+00  0.14999999963E+04  0.15000000000E+04  0.10566000000E+00 0.  1.
        994   -1    0    0    0    0 -0.00000000000E+00 -0.00000000000E+00  0.11368683772E-12  0.17120000000E+03  0.17120000000E+03 0.  0.
         13    1    1    2    0    0  0.15303065786E+02  0.53114795850E+01  0.37660795284E+02  0.40996857236E+02  0.10566000000E+00 0.  1.
        994    1    1    2    0    0 -0.72081193706E+01 -0.45002131780E+01  0.36424788170E+01  0.17144945773E+03  0.17120000000E+03 0.  0.
        998    1    1    2    0    0 -0.80949464151E+01 -0.81126640698E+00  0.14586967222E+04  0.14587536850E+04  0.10000000000E+02 0.  1.
</event>
<event>
 5    1  0.1106231E-008  0.3781124E+03  0.7957747E-01  0.3459419E+00
         13   -1    0    0    0    0  0.00000000000E+00  0.00000000000E+00  0.14999999963E+04  0.15000000000E+04  0.10566000000E+00 0. -1.
        994   -1    0    0    0    0 -0.00000000000E+00 -0.00000000000E+00  0.11368683772E-12  0.17120000000E+03  0.17120000000E+03 0.  0.
         13    1    1    2    0    0  0.10050726127E+02 -0.79439993446E+01  0.13466656352E+02  0.18587259577E+02  0.10566000000E+00 0. -1.
        994    1    1    2    0    0 -0.20637956410E+02  0.97836190896E+01  0.68458002597E+01  0.17285239202E+03  0.17120000000E+03 0.  0.
        998    1    1    2    0    0  0.10587230283E+02 -0.18396197450E+01  0.14796875397E+04  0.14797603484E+04  0.10000000000E+02 0. -1.
</event>
<event>
 5    1  0.1106231E-008  0.3849240E+03  0.7957747E-01  0.3429994E+00
         13   -1    0    0    0    0  0.00000000000E+00  0.00000000000E+00  0.14999999963E+04  0.15000000000E+04  0.10566000000E+00 0.  1.
        994   -1    0    0    0    0 -0.00000000000E+00 -0.00000000000E+00  0.11368683772E-12  0.17120000000E+03  0.17120000000E+03 0.  0.
         13    1    1    2    0    0  0.40127816073E+01 -0.17098186399E+02  0.92029546020E+02  0.93690441876E+02  0.10566000000E+00 0.  1.
        994    1    1    2    0    0 -0.32517538457E+01  0.11494524005E+02  0.21373932189E+01  0.17162956166E+03  0.17120000000E+03 0.  0.
        998    1    1    2    0    0 -0.76102776157E+00  0.56036623935E+01  0.14058330570E+04  0.14058799965E+04  0.10000000000E+02 0.  1.
</event>
<event>
 5    1  0.1106231E-008  0.3793051E+03  0.7957747E-01  0.3454190E+00
         13   -1    0    0    0    0  0.00000000000E+00  0.00000000000E+00  0.14999999963E+04  0.15000000000E+04  0.10566000000E+00 0. -1.
        994   -1    0    0    0    0 -0.00000000000E+00 -0.00000000000E+00  0.11368683772E-12  0.17120000000E+03  0.17120000000E+03 0.  0.
         13    1    1    2    0    0 -0.48498439786E+01 -0.13020211390E+02  0.19647448041E+02  0.24064086724E+02  0.10566000000E+00 0. -1.
        994    1    1    2    0    0 -0.18205104248E+01  0.10849603975E+02  0.48899805107E+01  0.17162278425E+03  0.17120000000E+03 0.  0.
        998    1    1    2    0    0  0.66703544034E+01  0.21706074157E+01  0.14754625677E+04  0.14755131290E+04  0.10000000000E+02 0. -1.
</event>
<event>
 5    1  0.1106231E-008  0.3783930E+03  0.7957747E-01  0.3458186E+00
         13   -1    0    0    0    0  0.00000000000E+00  0.00000000000E+00  0.14999999963E+04  0.15000000000E+04  0.10566000000E+00 0. -1.
        994   -1    0    0    0    0 -0.00000000000E+00 -0.00000000000E+00  0.11368683772E-12  0.17120000000E+03  0.17120000000E+03 0.  0.
         13    1    1    2    0    0 -0.47121856518E+02  0.38344316331E+02  0.26522222016E+03  0.27209114867E+03  0.10566000000E+00 0. -1.
        994    1    1    2    0    0  0.74672508859E+02 -0.34164564109E+02  0.27954059876E+02  0.19192204272E+03  0.17120000000E+03 0.  0.
        998    1    1    2    0    0 -0.27550652341E+02 -0.41797522217E+01  0.12068237162E+04  0.12071868086E+04  0.10000000000E+02 0. -1.
</event>
<event>
 5    1  0.1106231E-008  0.3841174E+03  0.7957747E-01  0.3433424E+00
         13   -1    0    0    0    0  0.00000000000E+00  0.00000000000E+00  0.14999999963E+04  0.15000000000E+04  0.10566000000E+00 0.  1.
        994   -1    0    0    0    0 -0.00000000000E+00 -0.00000000000E+00  0.11368683772E-12  0.17120000000E+03  0.17120000000E+03 0.  0.
         13    1    1    2    0    0  0.84241792717E+00 -0.15922877039E+02  0.65987994277E+02  0.67887217014E+02  0.10566000000E+00 0.  1.
        994    1    1    2    0    0  0.12971614347E+02 -0.21490049104E+01  0.26393279483E+01  0.17172445095E+03  0.17120000000E+03 0.  0.
        998    1    1    2    0    0 -0.13814032274E+02  0.18071881949E+02  0.14313726741E+04  0.14315883320E+04  0.10000000000E+02 0.  1.
</event>
<event>
 5    1  0.1106231E-008  0.3784233E+03  0.7957747E-01  0.3458053E+00
         13   -1    0    0    0    0  0.00000000000E+00  0.00000000000E+00  0.14999999963E+04  0.15000000000E+04  0.10566000000E+00 0.  1.
        994   -1    0    0    0    0 -0.00000000000E+00 -0.00000000000E+00  0.11368683772E-12  0.17120000000E+03  0.17120000000E+03 0.  0.
         13    1    1    2    0    0 -0.12393287339E+02  0.33878357735E+02  0.14588541566E+03  0.15027941429E+03  0.10566000000E+00 0.  1.
        994    1    1    2    0    0 -0.14564207491E+02 -0.77386756963E+01  0.58457341151E+01  0.17209188200E+03  0.17120000000E+03 0.  0.
        998    1    1    2    0    0  0.26957494830E+02 -0.26139682039E+02  0.13482688465E+04  0.13488287037E+04  0.10000000000E+02 0.  1.
</event>
<event>
 5    1  0.1106231E-008  0.3700859E+03  0.7957747E-01  0.3495496E+00
         13   -1    0    0    0    0  0.00000000000E+00  0.00000000000E+00  0.14999999963E+04  0.15000000000E+04  0.10566000000E+00 0.  1.
        994   -1    0    0    0    0 -0.00000000000E+00 -0.00000000000E+00  0.11368683772E-12  0.17120000000E+03  0.17120000000E+03 0.  0.
         13    1    1    2    0    0 -0.14560138462E+02 -0.74596282946E+02  0.33901436183E+03  0.34742963569E+03  0.10566000000E+00 0.  1.
        994    1    1    2    0    0  0.37426595656E+02  0.26058328292E+02  0.16447726778E+02  0.17793188093E+03  0.17120000000E+03 0.  0.
        998    1    1    2    0    0 -0.22866457194E+02  0.48537954653E+02  0.11445379077E+04  0.11458384834E+04  0.10000000000E+02 0.  1.
</event>
<event>
 5    1  0.1106231E-008  0.3824118E+03  0.7957747E-01  0.3440724E+00
         13   -1    0    0    0    0  0.00000000000E+00  0.00000000000E+00  0.14999999963E+04  0.15000000000E+04  0.10566000000E+00 0. -1.
        994   -1    0    0    0    0 -0.00000000000E+00 -0.00000000000E+00  0.11368683772E-12  0.17120000000E+03  0.17120000000E+03 0.  0.
         13    1    1    2    0    0  0.17933131954E+02  0.27565014830E+01  0.54278977873E+02  0.57231233825E+02  0.10566000000E+00 0. -1.
        994    1    1    2    0    0 -0.16851983575E+02  0.11788820982E+01  0.38676238426E+01  0.17207491865E+03  0.17120000000E+03 0.  0.
        998    1    1    2    0    0 -0.10811483783E+01 -0.39353835812E+01  0.14418533946E+04  0.14418938475E+04  0.10000000000E+02 0. -1.
</event>
<event>
 5    1  0.1106231E-008  0.3777228E+03  0.7957747E-01  0.3461134E+00
         13   -1    0    0    0    0  0.00000000000E+00  0.00000000000E+00  0.14999999963E+04  0.15000000000E+04  0.10566000000E+00 0.  1.
        994   -1    0    0    0    0 -0.00000000000E+00 -0.00000000000E+00  0.11368683772E-12  0.17120000000E+03  0.17120000000E+03 0.  0.
         13    1    1    2    0    0  0.36607142374E+01  0.13516780093E+02  0.15995890217E+02  0.21259911587E+02  0.10566000000E+00 0.  1.
        994    1    1    2    0    0 -0.16676842953E+01 -0.16685935141E+02  0.62348543403E+01  0.17213226023E+03  0.17120000000E+03 0.  0.
        998    1    1    2    0    0 -0.19930299421E+01  0.31691550472E+01  0.14777692517E+04  0.14778078282E+04  0.10000000000E+02 0.  1.
</event>
<event>
 5    1  0.1106231E-008  0.3749385E+03  0.7957747E-01  0.3473498E+00
         13   -1    0    0    0    0  0.00000000000E+00  0.00000000000E+00  0.14999999963E+04  0.15000000000E+04  0.10566000000E+00 0. -1.
        994   -1    0    0    0    0 -0.00000000000E+00 -0.00000000000E+00  0.11368683772E-12  0.17120000000E+03  0.17120000000E+03 0.  0.
         13    1    1    2    0    0  0.10264820059E+03  0.15988861211E+03  0.11014338239E+04  0.11177018838E+04  0.10566000000E+00 0. -1.
        994    1    1    2    0    0 -0.98402674905E+02 -0.13787702820E+03  0.11151954978E+03  0.26540386455E+03  0.17120000000E+03 0.  0.
        998    1    1    2    0    0 -0.42455256819E+01 -0.22011583913E+02  0.28704662256E+03  0.28809425166E+03  0.10000000000E+02 0. -1.
</event>
<event>
 5    1  0.1106231E-008  0.3842775E+03  0.7957747E-01  0.3432742E+00
         13   -1    0    0    0    0  0.00000000000E+00  0.00000000000E+00  0.14999999963E+04  0.15000000000E+04  0.10566000000E+00 0. -1.
        994   -1    0    0    0    0 -0.00000000000E+00 -0.00000000000E+00  0.11368683772E-12  0.17120000000E+03  0.17120000000E+03 0.  0.
         13    1    1    2    0    0  0.16186433670E+02 -0.92259130064E+01  0.10115151293E+03  0.10285308862E+03  0.10566000000E+00 0. -1.
        994    1    1    2    0    0 -0.13018344316E+01 -0.18747723865E+02  0.31542990647E+01  0.17225725391E+03  0.17120000000E+03 0.  0.
        998    1    1    2    0    0 -0.14884599238E+02  0.27973636872E+02  0.13956941843E+04  0.13960896575E+04  0.10000000000E+02 0. -1.
</event>
<event>
 5    1  0.1106231E-008  0.3812106E+03  0.7957747E-01  0.3445904E+00
         13   -1    0    0    0    0  0.00000000000E+00  0.00000000000E+00  0.14999999963E+04  0.15000000000E+04  0.10566000000E+00 0. -1.
        994   -1    0    0    0    0 -0.00000000000E+00 -0.00000000000E+00  0.11368683772E-12  0.17120000000E+03  0.17120000000E+03 0.  0.
         13    1    1    2    0    0  0.29220368841E+02  0.52782839449E+01  0.11748995805E+03  0.12118412290E+03  0.10566000000E+00 0. -1.
        994    1    1    2    0    0 -0.26398068851E+02 -0.49299977974E+01  0.59281899103E+01  0.17339477026E+03  0.17120000000E+03 0.  0.
        998    1    1    2    0    0 -0.28222999895E+01 -0.34828614755E+00  0.13765818483E+04  0.13766211068E+04  0.10000000000E+02 0. -1.
</event>
<event>
 5    1  0.1106231E-008  0.3847488E+03  0.7957747E-01  0.3430738E+00
         13   -1    0    0    0    0  0.00000000000E+00  0.00000000000E+00  0.14999999963E+04  0.15000000000E+04  0.10566000000E+00 0.  1.
        994   -1    0    0    0    0 -0.00000000000E+00 -0.00000000000E+00  0.11368683772E-12  0.17120000000E+03  0.17120000000E+03 0.  0.
         13    1    1    2    0    0  0.40830098681E+02  0.79298070080E+02  0.18633452561E+03  0.20658133380E+03  0.10566000000E+00 0.  1.
        994    1    1    2    0    0 -0.58443106147E+02 -0.59049050352E+02  0.44886249299E+02  0.19551624582E+03  0.17120000000E+03 0.  0.
        998    1    1    2    0    0  0.17613007466E+02 -0.20249019728E+02  0.12687792214E+04  0.12691024204E+04  0.10000000000E+02 0.  1.
</event>
<event>
 5    1  0.1106231E-008  0.3741237E+03  0.7957747E-01  0.3477151E+00
         13   -1    0    0    0    0  0.00000000000E+00  0.00000000000E+00  0.14999999963E+04  0.15000000000E+04  0.10566000000E+00 0. -1.
        994   -1    0    0    0    0 -0.00000000000E+00 -0.00000000000E+00  0.11368683772E-12  0.17120000000E+03  0.17120000000E+03 0.  0.
         13    1    1    2    0    0  0.14207232826E+02 -0.10567498642E+02  0.18660096700E+02  0.25724071703E+02  0.10566000000E+00 0. -1.
        994    1    1    2    0    0 -0.13302237834E+02  0.12765808531E+02  0.82891151454E+01  0.17238928281E+03  0.17120000000E+03 0.  0.
        998    1    1    2    0    0 -0.90499499220E+00 -0.21983098889E+01  0.14730507844E+04  0.14730866455E+04  0.10000000000E+02 0. -1.
</event>
<event>
 5    1  0.1106231E-008  0.3830942E+03  0.7957747E-01  0.3437795E+00
         13   -1    0    0    0    0  0.00000000000E+00  0.00000000000E+00  0.14999999963E+04  0.15000000000E+04  0.10566000000E+00 0.  1.
        994   -1    0    0    0    0 -0.00000000000E+00 -0.00000000000E+00  0.11368683772E-12  0.17120000000E+03  0.17120000000E+03 0.  0.
         13    1    1    2    0    0 -0.27008134284E+02 -0.16946435623E+02  0.19041136790E+03  0.19306248001E+03  0.10566000000E+00 0.  1.
        994    1    1    2    0    0  0.19943740334E+02  0.98557292761E+01  0.42186194207E+01  0.17269083626E+03  0.17120000000E+03 0.  0.
        998    1    1    2    0    0  0.70643939505E+01  0.70907063472E+01  0.13053700090E+04  0.13054466837E+04  0.10000000000E+02 0.  1.
</event>
<event>
 5    1  0.1106231E-008  0.3803800E+03  0.7957747E-01  0.3449506E+00
         13   -1    0    0    0    0  0.00000000000E+00  0.00000000000E+00  0.14999999963E+04  0.15000000000E+04  0.10566000000E+00 0.  1.
        994   -1    0    0    0    0 -0.00000000000E+00 -0.00000000000E+00  0.11368683772E-12  0.17120000000E+03  0.17120000000E+03 0.  0.
         13    1    1    2    0    0 -0.23742209980E+02  0.22498547256E+02  0.15072089126E+03  0.15422929485E+03  0.10566000000E+00 0.  1.
        994    1    1    2    0    0  0.83388651137E+01  0.57993871778E+01  0.42859929545E+01  0.17155459568E+03  0.17120000000E+03 0.  0.
        998    1    1    2    0    0  0.15403344867E+02 -0.28297934434E+02  0.13449931121E+04  0.13454161095E+04  0.10000000000E+02 0.  1.
</event>
<event>
 5    1  0.1106231E-008  0.3776802E+03  0.7957747E-01  0.3461322E+00
         13   -1    0    0    0    0  0.00000000000E+00  0.00000000000E+00  0.14999999963E+04  0.15000000000E+04  0.10566000000E+00 0.  1.
        994   -1    0    0    0    0 -0.00000000000E+00 -0.00000000000E+00  0.11368683772E-12  0.17120000000E+03  0.17120000000E+03 0.  0.
         13    1    1    2    0    0 -0.80944717068E+01  0.35855861787E+02  0.13984689872E+03  0.14459712840E+03  0.10566000000E+00 0.  1.
        994    1    1    2    0    0  0.18124007541E+02  0.15420953617E+01  0.64241543768E+01  0.17228339289E+03  0.17120000000E+03 0.  0.
        998    1    1    2    0    0 -0.10029535834E+02 -0.37397957149E+02  0.13537289432E+04  0.13543194787E+04  0.10000000000E+02 0.  1.
</event>
<event>
 5    1  0.1106231E-008  0.3950228E+03  0.7957747E-01  0.3388246E+00
         13   -1    0    0    0    0  0.00000000000E+00  0.00000000000E+00  0.14999999963E+04  0.15000000000E+04  0.10566000000E+00 0.  1.
        994   -1    0    0    0    0 -0.00000000000E+00 -0.00000000000E+00  0.11368683772E-12  0.17120000000E+03  0.17120000000E+03 0.  0.
         13    1    1    2    0    0 -0.26584765071E+02 -0.15347997254E+03  0.35258141538E+03  0.38545624569E+03  0.10566000000E+00 0.  1.
        994    1    1    2    0    0  0.26487576579E+02  0.15051031566E+03  0.12130136709E+03  0.25957351269E+03  0.17120000000E+03 0.  0.
        998    1    1    2    0    0  0.97188492037E-01  0.29696568858E+01  0.10261172138E+04  0.10261702416E+04  0.10000000000E+02 0.  0.
</event>
<event>
 5    1  0.1106231E-008  0.3796946E+03  0.7957747E-01  0.3452489E+00
         13   -1    0    0    0    0  0.00000000000E+00  0.00000000000E+00  0.14999999963E+04  0.15000000000E+04  0.10566000000E+00 0.  1.
        994   -1    0    0    0    0 -0.00000000000E+00 -0.00000000000E+00  0.11368683772E-12  0.17120000000E+03  0.17120000000E+03 0.  0.
         13    1    1    2    0    0  0.17903199377E+02 -0.37602811738E+01  0.39629968896E+02  0.43648709731E+02  0.10566000000E+00 0.  1.
        994    1    1    2    0    0  0.44082460539E+01 -0.44456911598E+01  0.44185504429E+01  0.17137141066E+03  0.17120000000E+03 0.  0.
        998    1    1    2    0    0 -0.22311445431E+02  0.82059723336E+01  0.14559514769E+04  0.14561798796E+04  0.10000000000E+02 0.  1.
</event>
<event>
 5    1  0.1106231E-008  0.3726661E+03  0.7957747E-01  0.3483727E+00
         13   -1    0    0    0    0  0.00000000000E+00  0.00000000000E+00  0.14999999963E+04  0.15000000000E+04  0.10566000000E+00 0. -1.
        994   -1    0    0    0    0 -0.00000000000E+00 -0.00000000000E+00  0.11368683772E-12  0.17120000000E+03  0.17120000000E+03 0.  0.
         13    1    1    2    0    0 -0.53857087570E+01 -0.51814052754E+02  0.16511390480E+03  0.17313669352E+03  0.10566000000E+00 0. -1.
        994    1    1    2    0    0  0.40546067585E+02  0.32946468650E+02  0.17292258497E+02  0.17982746063E+03  0.17120000000E+03 0.  0.
        998    1    1    2    0    0 -0.35160358828E+02  0.18867584104E+02  0.13175938330E+04  0.13182358458E+04  0.10000000000E+02 0. -1.
</event>
<event>
 5    1  0.1106231E-008  0.3793583E+03  0.7957747E-01  0.3453957E+00
         13   -1    0    0    0    0  0.00000000000E+00  0.00000000000E+00  0.14999999963E+04  0.15000000000E+04  0.10566000000E+00 0. -1.
        994   -1    0    0    0    0 -0.00000000000E+00 -0.00000000000E+00  0.11368683772E-12  0.17120000000E+03  0.17120000000E+03 0.  0.
         13    1    1    2    0    0  0.18088296817E+02 -0.87169178570E+02  0.51673358203E+03  0.52434650579E+03  0.10566000000E+00 0. -1.
        994    1    1    2    0    0  0.23599751960E+01  0.10108634524E+03  0.39507199105E+02  0.20271723523E+03  0.17120000000E+03 0.  0.
        998    1    1    2    0    0 -0.20448272013E+02 -0.13917166667E+02  0.94375921514E+03  0.94413625898E+03  0.10000000000E+02 0. -1.
</event>
<event>
 5    1  0.1106231E-008  0.3774291E+03  0.7957747E-01  0.3462430E+00
         13   -1    0    0    0    0  0.00000000000E+00  0.00000000000E+00  0.14999999963E+04  0.15000000000E+04  0.10566000000E+00 0.  1.
        994   -1    0    0    0    0 -0.00000000000E+00 -0.00000000000E+00  0.11368683772E-12  0.17120000000E+03  0.17120000000E+03 0.  0.
         13    1    1    2    0    0 -0.58651109010E+02  0.65372456595E+00  0.26827904261E+03  0.27461616087E+03  0.10566000000E+00 0.  1.
        994    1    1    2    0    0  0.54532751971E+02 -0.40582337173E+01  0.15585771158E+02  0.18039580528E+03  0.17120000000E+03 0.  0.
        998    1    1    2    0    0  0.41183570388E+01  0.34045091513E+01  0.12161351825E+04  0.12161880339E+04  0.10000000000E+02 0.  1.
</event>
<event>
 5    1  0.1106231E-008  0.3849992E+03  0.7957747E-01  0.3429676E+00
         13   -1    0    0    0    0  0.00000000000E+00  0.00000000000E+00  0.14999999963E+04  0.15000000000E+04  0.10566000000E+00 0.  1.
        994   -1    0    0    0    0 -0.00000000000E+00 -0.00000000000E+00  0.11368683772E-12  0.17120000000E+03  0.17120000000E+03 0.  0.
         13    1    1    2    0    0 -0.20927038493E+01  0.13518464582E+02  0.57391764604E+02  0.58999611036E+02  0.10566000000E+00 0.  1.
        994    1    1    2    0    0 -0.69132364355E-01 -0.91285238736E+01  0.19046484474E+01  0.17145379090E+03  0.17120000000E+03 0.  0.
        998    1    1    2    0    0  0.21618362136E+01 -0.43899407084E+01  0.14407035832E+04  0.14407465981E+04  0.10000000000E+02 0.  1.
</event>
<event>
 5    1  0.1106231E-008  0.3845298E+03  0.7957747E-01  0.3431669E+00
         13   -1    0    0    0    0  0.00000000000E+00  0.00000000000E+00  0.14999999963E+04  0.15000000000E+04  0.10566000000E+00 0.  1.
        994   -1    0    0    0    0 -0.00000000000E+00 -0.00000000000E+00  0.11368683772E-12  0.17120000000E+03  0.17120000000E+03 0.  0.
         13    1    1    2    0    0  0.15065281793E+02 -0.51680447007E+01  0.66074643261E+02  0.67967205677E+02  0.10566000000E+00 0.  1.
        994    1    1    2    0    0 -0.14558714675E+02  0.32877960607E+01  0.25978191890E+01  0.17186900372E+03  0.17120000000E+03 0.  0.
        998    1    1    2    0    0 -0.50656711809E+00  0.18802486400E+01  0.14313275338E+04  0.14313637906E+04  0.10000000000E+02 0.  1.
</event>
<event>
 5    1  0.1106231E-008  0.3850828E+03  0.7957747E-01  0.3429321E+00
         13   -1    0    0    0    0  0.00000000000E+00  0.00000000000E+00  0.14999999963E+04  0.15000000000E+04  0.10566000000E+00 0.  1.
        994   -1    0    0    0    0 -0.00000000000E+00 -0.00000000000E+00  0.11368683772E-12  0.17120000000E+03  0.17120000000E+03 0.  0.
         13    1    1    2    0    0  0.13603794885E+02  0.45544191364E+01  0.65510724280E+02  0.67063195038E+02  0.10566000000E+00 0.  1.
        994    1    1    2    0    0 -0.51758320128E+01 -0.93614381026E+01  0.19653466967E+01  0.17154512044E+03  0.17120000000E+03 0.  0.
        998    1    1    2    0    0 -0.84279628721E+01  0.48070189662E+01  0.14325239253E+04  0.14325916845E+04  0.10000000000E+02 0.  1.
</event>
<event>
 5    1  0.1106231E-008  0.3854404E+03  0.7957747E-01  0.3427806E+00
         13   -1    0    0    0    0  0.00000000000E+00  0.00000000000E+00  0.14999999963E+04  0.15000000000E+04  0.10566000000E+00 0.  1.
        994   -1    0    0    0    0 -0.00000000000E+00 -0.00000000000E+00  0.11368683772E-12  0.17120000000E+03  0.17120000000E+03 0.  0.
         13    1    1    2    0    0 -0.58409881422E+01  0.98745324868E+01  0.45779641189E+02  0.47195447299E+02  0.10566000000E+00 0.  1.
        994    1    1    2    0    0  0.88074508553E+01 -0.81521131326E+01  0.18847565666E+01  0.17163047645E+03  0.17120000000E+03 0.  0.
        998    1    1    2    0    0 -0.29664627131E+01 -0.17224193542E+01  0.14523355985E+04  0.14523740763E+04  0.10000000000E+02 0.  1.
</event>
<event>
 5    1  0.1106231E-008  0.3769362E+03  0.7957747E-01  0.3464608E+00
         13   -1    0    0    0    0  0.00000000000E+00  0.00000000000E+00  0.14999999963E+04  0.15000000000E+04  0.10566000000E+00 0. -1.
        994   -1    0    0    0    0 -0.00000000000E+00 -0.00000000000E+00  0.11368683772E-12  0.17120000000E+03  0.17120000000E+03 0.  0.
         13    1    1    2    0    0  0.58745451840E+02  0.10377679404E+02  0.22992527999E+03  0.23753814406E+03  0.10566000000E+00 0. -1.
        994    1    1    2    0    0 -0.78582341442E+02 -0.12208030774E+02  0.27353011430E+02  0.19074026223E+03  0.17120000000E+03 0.  0.
        998    1    1    2    0    0  0.19836889602E+02  0.18303513708E+01  0.12427217049E+04  0.12429215937E+04  0.10000000000E+02 0. -1.
</event>
<event>
 5    1  0.1106231E-008  0.3688703E+03  0.7957747E-01  0.3501099E+00
         13   -1    0    0    0    0  0.00000000000E+00  0.00000000000E+00  0.14999999963E+04  0.15000000000E+04  0.10566000000E+00 0.  1.
        994   -1    0    0    0    0 -0.00000000000E+00 -0.00000000000E+00  0.11368683772E-12  0.17120000000E+03  0.17120000000E+03 0.  0.
         13    1    1    2    0    0 -0.21812440036E+01  0.12659399290E+02  0.31709600391E+01  0.13231944959E+02  0.10566000000E+00 0.  1.
        994    1    1    2    0    0  0.15322879191E+01 -0.13342890193E+02  0.10971030135E+02  0.17207609981E+03  0.17120000000E+03 0.  0.
        998    1    1    2    0    0  0.64895608451E+00  0.68349090275E+00  0.14858580061E+04  0.14858919552E+04  0.10000000000E+02 0.  1.
</event>
<event>
 5    1  0.1106231E-008  0.3827140E+03  0.7957747E-01  0.3439426E+00
         13   -1    0    0    0    0  0.00000000000E+00  0.00000000000E+00  0.14999999963E+04  0.15000000000E+04  0.10566000000E+00 0. -1.
        994   -1    0    0    0    0 -0.00000000000E+00 -0.00000000000E+00  0.11368683772E-12  0.17120000000E+03  0.17120000000E+03 0.  0.
         13    1    1    2    0    0 -0.23927915599E+02 -0.11246870449E+02  0.11936945240E+03  0.12226248227E+03  0.10566000000E+00 0. -1.
        994    1    1    2    0    0  0.19862091389E+02  0.12739393611E+02  0.46163257419E+01  0.17288014718E+03  0.17120000000E+03 0.  0.
        998    1    1    2    0    0  0.40658242104E+01 -0.14925231616E+01  0.13760142181E+04  0.13760573706E+04  0.10000000000E+02 0.  0.
</event>
<event>
 5    1  0.1106231E-008  0.3812152E+03  0.7957747E-01  0.3445884E+00
         13   -1    0    0    0    0  0.00000000000E+00  0.00000000000E+00  0.14999999963E+04  0.15000000000E+04  0.10566000000E+00 0. -1.
        994   -1    0    0    0    0 -0.00000000000E+00 -0.00000000000E+00  0.11368683772E-12  0.17120000000E+03  0.17120000000E+03 0.  0.
         13    1    1    2    0    0 -0.16728547212E+02 -0.22586578253E+02  0.10163351096E+03  0.10544846857E+03  0.10566000000E+00 0. -1.
        994    1    1    2    0    0  0.11075295619E+02  0.33149191072E+02  0.75987940995E+01  0.17489629131E+03  0.17120000000E+03 0.  0.
        998    1    1    2    0    0  0.56532515926E+01 -0.10562612819E+02  0.13907676912E+04  0.13908552401E+04  0.10000000000E+02 0. -1.
</event>
<event>
 5    1  0.1106231E-008  0.2809021E+03  0.7957747E-01  0.4042559E+00
         13   -1    0    0    0    0  0.00000000000E+00  0.00000000000E+00  0.14999999963E+04  0.15000000000E+04  0.10566000000E+00 0.  1.
        994   -1    0    0    0    0 -0.00000000000E+00 -0.00000000000E+00  0.11368683772E-12  0.17120000000E+03  0.17120000000E+03 0.  0.
         13    1    1    2    0    0 -0.82737761111E+02  0.16328315587E+03  0.55809019043E+03  0.58734282827E+03  0.10566000000E+00 0.  1.
        994    1    1    2    0    0  0.10044375597E+03 -0.11150342414E+03  0.11496945759E+03  0.25504779530E+03  0.17120000000E+03 0.  0.
        998    1    1    2    0    0 -0.17705994862E+02 -0.51779731731E+02  0.82694034826E+03  0.82880937643E+03  0.10000000000E+02 0.  1.
</event>
<event>
 5    1  0.1106231E-008  0.3855647E+03  0.7957747E-01  0.3427281E+00
         13   -1    0    0    0    0  0.00000000000E+00  0.00000000000E+00  0.14999999963E+04  0.15000000000E+04  0.10566000000E+00 0.  1.
        994   -1    0    0    0    0 -0.00000000000E+00 -0.00000000000E+00  0.11368683772E-12  0.17120000000E+03  0.17120000000E+03 0.  0.
         13    1    1    2    0    0  0.86183284778E+01  0.59161158462E+01  0.41559497268E+02  0.42854159538E+02  0.10566000000E+00 0.  1.
        994    1    1    2    0    0  0.61029889449E+01 -0.14684465705E+02  0.21805856484E+01  0.17195079227E+03  0.17120000000E+03 0.  0.
        998    1    1    2    0    0 -0.14721317423E+02  0.87683498590E+01  0.14562599134E+04  0.14563950482E+04  0.10000000000E+02 0.  1.
</event>
<event>
 5    1  0.1106231E-008  0.3710601E+03  0.7957747E-01  0.3491033E+00
         13   -1    0    0    0    0  0.00000000000E+00  0.00000000000E+00  0.14999999963E+04  0.15000000000E+04  0.10566000000E+00 0.  1.
        994   -1    0    0    0    0 -0.00000000000E+00 -0.00000000000E+00  0.11368683772E-12  0.17120000000E+03  0.17120000000E+03 0.  0.
         13    1    1    2    0    0  0.37305004529E+02  0.20542734011E+01  0.10401864491E+03  0.11052498837E+03  0.10566000000E+00 0.  1.
        994    1    1    2    0    0  0.47011312334E+02  0.68725676374E+02  0.32994731947E+02  0.19321328737E+03  0.17120000000E+03 0.  0.
        998    1    1    2    0    0 -0.84316316863E+02 -0.70779949775E+02  0.13629866194E+04  0.13674617243E+04  0.10000000000E+02 0.  1.
</event>
<event>
 5    1  0.1106231E-008  0.3843195E+03  0.7957747E-01  0.3432563E+00
         13   -1    0    0    0    0  0.00000000000E+00  0.00000000000E+00  0.14999999963E+04  0.15000000000E+04  0.10566000000E+00 0.  1.
        994   -1    0    0    0    0 -0.00000000000E+00 -0.00000000000E+00  0.11368683772E-12  0.17120000000E+03  0.17120000000E+03 0.  0.
         13    1    1    2    0    0  0.17171730570E+02 -0.77527740524E+00  0.74710625734E+02  0.76662625492E+02  0.10566000000E+00 0.  1.
        994    1    1    2    0    0 -0.10781624408E+02  0.17939547469E+02  0.34135551387E+01  0.17250844370E+03  0.17120000000E+03 0.  0.
        998    1    1    2    0    0 -0.63901061624E+01 -0.17164270064E+02  0.14218758154E+04  0.14220289308E+04  0.10000000000E+02 0.  1.
</event>
<event>
 5    1  0.1106231E-008  0.3828890E+03  0.7957747E-01  0.3438675E+00
         13   -1    0    0    0    0  0.00000000000E+00  0.00000000000E+00  0.14999999963E+04  0.15000000000E+04  0.10566000000E+00 0.  1.
        994   -1    0    0    0    0 -0.00000000000E+00 -0.00000000000E+00  0.11368683772E-12  0.17120000000E+03  0.17120000000E+03 0.  0.
         13    1    1    2    0    0  0.11049713336E+02  0.74790762202E+01  0.31776439662E+02  0.34464271754E+02  0.10566000000E+00 0.  1.
        994    1    1    2    0    0 -0.10470882174E+02 -0.84705862102E+01  0.32827259221E+01  0.17176031699E+03  0.17120000000E+03 0.  0.
        998    1    1    2    0    0 -0.57883116255E+00  0.99150998996E+00  0.14649408307E+04  0.14649754113E+04  0.10000000000E+02 0.  1.
</event>
<event>
 5    1  0.1106231E-008  0.3818603E+03  0.7957747E-01  0.3443098E+00
         13   -1    0    0    0    0  0.00000000000E+00  0.00000000000E+00  0.14999999963E+04  0.15000000000E+04  0.10566000000E+00 0. -1.
        994   -1    0    0    0    0 -0.00000000000E+00 -0.00000000000E+00  0.11368683772E-12  0.17120000000E+03  0.17120000000E+03 0.  0.
         13    1    1    2    0    0 -0.42834645445E+02  0.34885904922E+01  0.25355959944E+03  0.25717592956E+03  0.10566000000E+00 0. -1.
        994    1    1    2    0    0  0.37675695627E+02 -0.91057782043E+01  0.82047833780E+01  0.17572459050E+03  0.17120000000E+03 0.  0.
        998    1    1    2    0    0  0.51589498178E+01  0.56171877121E+01  0.12382356135E+04  0.12382994799E+04  0.10000000000E+02 0. -1.
</event>
<event>
 5    1  0.1106231E-008  0.3824845E+03  0.7957747E-01  0.3440411E+00
         13   -1    0    0    0    0  0.00000000000E+00  0.00000000000E+00  0.14999999963E+04  0.15000000000E+04  0.10566000000E+00 0. -1.
        994   -1    0    0    0    0 -0.00000000000E+00 -0.00000000000E+00  0.11368683772E-12  0.17120000000E+03  0.17120000000E+03 0.  0.
         13    1    1    2    0    0  0.23345683083E+02 -0.22164155860E+02  0.15575599245E+03  0.15904782637E+03  0.10566000000E+00 0. -1.
        994    1    1    2    0    0 -0.25548574090E+02  0.27619178316E+02  0.75919663698E+01  0.17544978371E+03  0.17120000000E+03 0.  0.
        998    1    1    2    0    0  0.22028910074E+01 -0.54550224567E+01  0.13366520375E+04  0.13367023899E+04  0.10000000000E+02 0. -1.
</event>
<event>
 5    1  0.1106231E-008  0.3858721E+03  0.7957747E-01  0.3425982E+00
         13   -1    0    0    0    0  0.00000000000E+00  0.00000000000E+00  0.14999999963E+04  0.15000000000E+04  0.10566000000E+00 0.  1.
        994   -1    0    0    0    0 -0.00000000000E+00 -0.00000000000E+00  0.11368683772E-12  0.17120000000E+03  0.17120000000E+03 0.  0.
         13    1    1    2    0    0 -0.72634596834E+01 -0.76737055639E+01  0.41008548809E+02  0.42348032341E+02  0.10566000000E+00 0.  1.
        994    1    1    2    0    0 -0.22930512556E+02  0.70295010699E+02  0.19336522909E+02  0.18748476752E+03  0.17120000000E+03 0.  0.
        998    1    1    2    0    0  0.30193972240E+02 -0.62621305135E+02  0.14396549246E+04  0.14413672001E+04  0.10000000000E+02 0.  1.
</event>
<event>
 5    1  0.1106231E-008  0.3698219E+03  0.7957747E-01  0.3496710E+00
         13   -1    0    0    0    0  0.00000000000E+00  0.00000000000E+00  0.14999999963E+04  0.15000000000E+04  0.10566000000E+00 0.  1.
        994   -1    0    0    0    0 -0.00000000000E+00 -0.00000000000E+00  0.11368683772E-12  0.17120000000E+03  0.17120000000E+03 0.  0.
         13    1    1    2    0    0 -0.12965239677E+01 -0.10981081063E+02  0.21581799037E+01  0.11266499911E+02  0.10566000000E+00 0.  1.
        994    1    1    2    0    0 -0.36394301723E+01  0.10499904212E+02  0.97895498512E+01  0.17183936897E+03  0.17120000000E+03 0.  0.
        998    1    1    2    0    0  0.49359541400E+01  0.48117685177E+00  0.14880522665E+04  0.14880941311E+04  0.10000000000E+02 0.  1.
</event>
<event>
 5    1  0.1106231E-008  0.3847037E+03  0.7957747E-01  0.3430930E+00
         13   -1    0    0    0    0  0.00000000000E+00  0.00000000000E+00  0.14999999963E+04  0.15000000000E+04  0.10566000000E+00 0.  1.
        994   -1    0    0    0    0 -0.00000000000E+00 -0.00000000000E+00  0.11368683772E-12  0.17120000000E+03  0.17120000000E+03 0.  0.
         13    1    1    2    0    0 -0.57906240528E+00 -0.15240946763E+02  0.72284366683E+02  0.73875994764E+02  0.10566000000E+00 0.  1.
        994    1    1    2    0    0 -0.20991171710E+02 -0.42091889910E+01  0.32875552186E+01  0.17256475475E+03  0.17120000000E+03 0.  0.
        998    1    1    2    0    0  0.21570234116E+02  0.19450135754E+02  0.14244280744E+04  0.14247592505E+04  0.10000000000E+02 0.  1.
</event>
<event>
 5    1  0.1106231E-008  0.3749134E+03  0.7957747E-01  0.3473610E+00
         13   -1    0    0    0    0  0.00000000000E+00  0.00000000000E+00  0.14999999963E+04  0.15000000000E+04  0.10566000000E+00 0.  1.
        994   -1    0    0    0    0 -0.00000000000E+00 -0.00000000000E+00  0.11368683772E-12  0.17120000000E+03  0.17120000000E+03 0.  0.
         13    1    1    2    0    0 -0.19180789589E+02  0.91481698325E+01  0.31518995035E+02  0.38013812129E+02  0.10566000000E+00 0.  1.
        994    1    1    2    0    0  0.72137411874E+01  0.43717945651E+00  0.69008125912E+01  0.17149137122E+03  0.17120000000E+03 0.  0.
        998    1    1    2    0    0  0.11967048402E+02 -0.95853492890E+01  0.14615801887E+04  0.14616948167E+04  0.10000000000E+02 0.  1.
</event>
<event>
 5    1  0.1106231E-008  0.3855894E+03  0.7957747E-01  0.3427176E+00
         13   -1    0    0    0    0  0.00000000000E+00  0.00000000000E+00  0.14999999963E+04  0.15000000000E+04  0.10566000000E+00 0. -1.
        994   -1    0    0    0    0 -0.00000000000E+00 -0.00000000000E+00  0.11368683772E-12  0.17120000000E+03  0.17120000000E+03 0.  0.
         13    1    1    2    0    0  0.11020911510E+02  0.59693223806E+01  0.64858578127E+02  0.66058607470E+02  0.10566000000E+00 0. -1.
        994    1    1    2    0    0 -0.27908996045E+01  0.14759733951E+02  0.20787547420E+01  0.17187030019E+03  0.17120000000E+03 0.  0.
        998    1    1    2    0    0 -0.82300119050E+01 -0.20729056331E+02  0.14330626634E+04  0.14332710923E+04  0.10000000000E+02 0. -1.
</event>
<event>
 5    1  0.1106231E-008  0.3855070E+03  0.7957747E-01  0.3427525E+00
         13   -1    0    0    0    0  0.00000000000E+00  0.00000000000E+00  0.14999999963E+04  0.15000000000E+04  0.10566000000E+00 0.  1.
        994   -1    0    0    0    0 -0.00000000000E+00 -0.00000000000E+00  0.11368683772E-12  0.17120000000E+03  0.17120000000E+03 0.  0.
         13    1    1    2    0    0  0.51696271704E+01 -0.10375665661E+02  0.44223792500E+02  0.45717988474E+02  0.10566000000E+00 0.  1.
        994    1    1    2    0    0 -0.16651952777E+02  0.20685855623E+02  0.36973866799E+01  0.17328676471E+03  0.17120000000E+03 0.  0.
        998    1    1    2    0    0  0.11482325607E+02 -0.10310189962E+02  0.14520788171E+04  0.14521952468E+04  0.10000000000E+02 0.  1.
</event>
<event>
 5    1  0.1106231E-008  0.3852446E+03  0.7957747E-01  0.3428635E+00
         13   -1    0    0    0    0  0.00000000000E+00  0.00000000000E+00  0.14999999963E+04  0.15000000000E+04  0.10566000000E+00 0. -1.
        994   -1    0    0    0    0 -0.00000000000E+00 -0.00000000000E+00  0.11368683772E-12  0.17120000000E+03  0.17120000000E+03 0.  0.
         13    1    1    2    0    0  0.36388730532E+01  0.15749605817E+02  0.79907280660E+02  0.81525923159E+02  0.10566000000E+00 0. -1.
        994    1    1    2    0    0  0.46465485607E+01 -0.23872699899E+02  0.34548308457E+01  0.17295338120E+03  0.17120000000E+03 0.  0.
        998    1    1    2    0    0 -0.82854216140E+01  0.81230940821E+01  0.14166378848E+04  0.14167206956E+04  0.10000000000E+02 0. -1.
</event>
<event>
 5    1  0.1106231E-008  0.3852126E+03  0.7957747E-01  0.3428771E+00
         13   -1    0    0    0    0  0.00000000000E+00  0.00000000000E+00  0.14999999963E+04  0.15000000000E+04  0.10566000000E+00 0. -1.
        994   -1    0    0    0    0 -0.00000000000E+00 -0.00000000000E+00  0.11368683772E-12  0.17120000000E+03  0.17120000000E+03 0.  0.
         13    1    1    2    0    0 -0.28892352832E+01 -0.17131540585E+02  0.10225905667E+03  0.10372445806E+03  0.10566000000E+00 0. -1.
        994    1    1    2    0    0  0.46984480843E+01  0.67820769420E+01  0.17483586206E+01  0.17140760992E+03  0.17120000000E+03 0.  0.
        998    1    1    2    0    0 -0.18092128011E+01  0.10349463643E+02  0.13959925810E+04  0.13960679320E+04  0.10000000000E+02 0. -1.
</event>
<event>
 5    1  0.1418711E-008  0.3859608E+03  0.7957747E-01  0.3425608E+00
         13   -1    0    0    0    0  0.00000000000E+00  0.00000000000E+00  0.14999999963E+04  0.15000000000E+04  0.10566000000E+00 0. -1.
        994   -1    0    0    0    0 -0.00000000000E+00 -0.00000000000E+00  0.11368683772E-12  0.17120000000E+03  0.17120000000E+03 0.  0.
         13    1    1    2    0    0 -0.13660714315E+01 -0.10927563514E+02  0.53376250056E+02  0.54500578250E+02  0.10566000000E+00 0. -1.
        994    1    1    2    0    0  0.46763678272E+01  0.62284264008E+01  0.13527632606E+01  0.17138241357E+03  0.17120000000E+03 0.  0.
        998    1    1    2    0    0 -0.33102963957E+01  0.46991371136E+01  0.14452709830E+04  0.14453170082E+04  0.10000000000E+02 0. -1.
</event>
<event>
 5    1  0.1106231E-008  0.3819218E+03  0.7957747E-01  0.3442833E+00
         13   -1    0    0    0    0  0.00000000000E+00  0.00000000000E+00  0.14999999963E+04  0.15000000000E+04  0.10566000000E+00 0.  1.
        994   -1    0    0    0    0 -0.00000000000E+00 -0.00000000000E+00  0.11368683772E-12  0.17120000000E+03  0.17120000000E+03 0.  0.
         13    1    1    2    0    0  0.18518233492E+02  0.11488737144E+02  0.70849110532E+02  0.74125054334E+02  0.10566000000E+00 0.  1.
        994    1    1    2    0    0 -0.20433804375E+02 -0.99896002802E+01  0.48865310180E+01  0.17277340843E+03  0.17120000000E+03 0.  0.
        998    1    1    2    0    0  0.19155708834E+01 -0.14991368642E+01  0.14242643547E+04  0.14243015372E+04  0.10000000000E+02 0.  1.
</event>
<event>
 5    1  0.1106231E-008  0.3822839E+03  0.7957747E-01  0.3441274E+00
         13   -1    0    0    0    0  0.00000000000E+00  0.00000000000E+00  0.14999999963E+04  0.15000000000E+04  0.10566000000E+00 0.  1.
        994   -1    0    0    0    0 -0.00000000000E+00 -0.00000000000E+00  0.11368683772E-12  0.17120000000E+03  0.17120000000E+03 0.  0.
         13    1    1    2    0    0 -0.40210640122E+02  0.83065772503E+01  0.39382912705E+02  0.56893934490E+02  0.10566000000E+00 0.  1.
        994    1    1    2    0    0  0.46294102936E+02 -0.14398586635E+02  0.26226460206E+02  0.17985474828E+03  0.17120000000E+03 0.  0.
        998    1    1    2    0    0 -0.60834628139E+01  0.60920093844E+01  0.14343906234E+04  0.14344513172E+04  0.10000000000E+02 0.  1.
</event>
<event>
 5    1  0.1106231E-008  0.3837052E+03  0.7957747E-01  0.3435182E+00
         13   -1    0    0    0    0  0.00000000000E+00  0.00000000000E+00  0.14999999963E+04  0.15000000000E+04  0.10566000000E+00 0. -1.
        994   -1    0    0    0    0 -0.00000000000E+00 -0.00000000000E+00  0.11368683772E-12  0.17120000000E+03  0.17120000000E+03 0.  0.
         13    1    1    2    0    0 -0.99866535668E+01  0.14877148833E+02  0.76823429269E+02  0.78885443876E+02  0.10566000000E+00 0. -1.
        994    1    1    2    0    0  0.11383292804E+02  0.11965758315E+02  0.31756696905E+01  0.17202407856E+03  0.17120000000E+03 0.  0.
        998    1    1    2    0    0 -0.13966392371E+01 -0.26842907149E+02  0.14200008973E+04  0.14202904776E+04  0.10000000000E+02 0. -1.
</event>
<event>
 5    1  0.1106231E-008  0.3796855E+03  0.7957747E-01  0.3452529E+00
         13   -1    0    0    0    0  0.00000000000E+00  0.00000000000E+00  0.14999999963E+04  0.15000000000E+04  0.10566000000E+00 0. -1.
        994   -1    0    0    0    0 -0.00000000000E+00 -0.00000000000E+00  0.11368683772E-12  0.17120000000E+03  0.17120000000E+03 0.  0.
         13    1    1    2    0    0 -0.70220073193E+01  0.11894900136E+02  0.20107162482E+02  0.24394802380E+02  0.10566000000E+00 0. -1.
        994    1    1    2    0    0  0.70877158063E+01 -0.14044694637E+02  0.51206369471E+01  0.17199752930E+03  0.17120000000E+03 0.  0.
        998    1    1    2    0    0 -0.65708486947E-01  0.21497945016E+01  0.14747721968E+04  0.14748076683E+04  0.10000000000E+02 0. -1.
</event>
<event>
 5    1  0.1106231E-008  0.3819775E+03  0.7957747E-01  0.3442593E+00
         13   -1    0    0    0    0  0.00000000000E+00  0.00000000000E+00  0.14999999963E+04  0.15000000000E+04  0.10566000000E+00 0. -1.
        994   -1    0    0    0    0 -0.00000000000E+00 -0.00000000000E+00  0.11368683772E-12  0.17120000000E+03  0.17120000000E+03 0.  0.
         13    1    1    2    0    0  0.19573548031E+02 -0.21401028241E+02  0.13888978918E+03  0.14188556126E+03  0.10566000000E+00 0. -1.
        994    1    1    2    0    0 -0.59731799274E+01  0.95346817191E+01  0.35587965126E+01  0.17160621803E+03  0.17120000000E+03 0.  0.
        998    1    1    2    0    0 -0.13600368103E+02  0.11866346522E+02  0.13575514106E+04  0.13577082207E+04  0.10000000000E+02 0. -1.
</event>
<event>
 5    1  0.1106231E-008  0.3801906E+03  0.7957747E-01  0.3450329E+00
         13   -1    0    0    0    0  0.00000000000E+00  0.00000000000E+00  0.14999999963E+04  0.15000000000E+04  0.10566000000E+00 0.  1.
        994   -1    0    0    0    0 -0.00000000000E+00 -0.00000000000E+00  0.11368683772E-12  0.17120000000E+03  0.17120000000E+03 0.  0.
         13    1    1    2    0    0 -0.18797988098E+01  0.22019165696E+02  0.57290131180E+02  0.61404784798E+02  0.10566000000E+00 0.  1.
        994    1    1    2    0    0  0.46482657006E+01 -0.21303936267E+02  0.56270317483E+01  0.17267474500E+03  0.17120000000E+03 0.  0.
        998    1    1    2    0    0 -0.27684668908E+01 -0.71522942912E+00  0.14370828334E+04  0.14371204702E+04  0.10000000000E+02 0.  1.
</event>
<event>
 5    1  0.1106231E-008  0.3770499E+03  0.7957747E-01  0.3464105E+00
         13   -1    0    0    0    0  0.00000000000E+00  0.00000000000E+00  0.14999999963E+04  0.15000000000E+04  0.10566000000E+00 0. -1.
        994   -1    0    0    0    0 -0.00000000000E+00 -0.00000000000E+00  0.11368683772E-12  0.17120000000E+03  0.17120000000E+03 0.  0.
         13    1    1    2    0    0 -0.42084694448E+02 -0.20818859141E+02  0.16536709087E+03  0.17190355526E+03  0.10566000000E+00 0. -1.
        994    1    1    2    0    0  0.48515041686E+02  0.26568611737E+02  0.16029213641E+02  0.18062662066E+03  0.17120000000E+03 0.  0.
        998    1    1    2    0    0 -0.64303472379E+01 -0.57497525958E+01  0.13186036918E+04  0.13186698241E+04  0.10000000000E+02 0. -1.
</event>
<event>
 5    1  0.1269886E-008  0.3856545E+03  0.7957747E-01  0.3426901E+00
         13   -1    0    0    0    0  0.00000000000E+00  0.00000000000E+00  0.14999999963E+04  0.15000000000E+04  0.10566000000E+00 0.  1.
        994   -1    0    0    0    0 -0.00000000000E+00 -0.00000000000E+00  0.11368683772E-12  0.17120000000E+03  0.17120000000E+03 0.  0.
         13    1    1    2    0    0 -0.85429824039E+00 -0.15887890491E+02  0.94512622761E+02  0.95842589254E+02  0.10566000000E+00 0.  1.
        994    1    1    2    0    0  0.39939970025E+01  0.13864676577E+02  0.19890006746E+01  0.17181844311E+03  0.17120000000E+03 0.  0.
        998    1    1    2    0    0 -0.31396987621E+01  0.20232139140E+01  0.14034983728E+04  0.14035389676E+04  0.10000000000E+02 0.  1.
</event>
<event>
 5    1  0.1106231E-008  0.3827884E+03  0.7957747E-01  0.3439106E+00
         13   -1    0    0    0    0  0.00000000000E+00  0.00000000000E+00  0.14999999963E+04  0.15000000000E+04  0.10566000000E+00 0.  1.
        994   -1    0    0    0    0 -0.00000000000E+00 -0.00000000000E+00  0.11368683772E-12  0.17120000000E+03  0.17120000000E+03 0.  0.
         13    1    1    2    0    0 -0.15997930405E+02  0.12784418949E+02  0.81818386503E+02  0.84342365862E+02  0.10566000000E+00 0.  1.
        994    1    1    2    0    0 -0.68950475062E+01 -0.84963439761E+01  0.31288236552E+01  0.17157785136E+03  0.17120000000E+03 0.  0.
        998    1    1    2    0    0  0.22892977911E+02 -0.42880749732E+01  0.14150527861E+04  0.14152797828E+04  0.10000000000E+02 0.  1.
</event>
<event>
 5    1  0.1106231E-008  0.3821329E+03  0.7957747E-01  0.3441924E+00
         13   -1    0    0    0    0  0.00000000000E+00  0.00000000000E+00  0.14999999963E+04  0.15000000000E+04  0.10566000000E+00 0. -1.
        994   -1    0    0    0    0 -0.00000000000E+00 -0.00000000000E+00  0.11368683772E-12  0.17120000000E+03  0.17120000000E+03 0.  0.
         13    1    1    2    0    0  0.42340311287E+02  0.35660189274E+02  0.29583062755E+03  0.30096531763E+03  0.10566000000E+00 0. -1.
        994    1    1    2    0    0 -0.52893195215E+02 -0.71571783556E+02  0.29813113410E+02  0.19523952477E+03  0.17120000000E+03 0.  0.
        998    1    1    2    0    0  0.10552883928E+02  0.35911594282E+02  0.11743562553E+04  0.11749951576E+04  0.10000000000E+02 0.  1.
</event>
<event>
 5    1  0.1106231E-008  0.3741512E+03  0.7957747E-01  0.3477027E+00
         13   -1    0    0    0    0  0.00000000000E+00  0.00000000000E+00  0.14999999963E+04  0.15000000000E+04  0.10566000000E+00 0. -1.
        994   -1    0    0    0    0 -0.00000000000E+00 -0.00000000000E+00  0.11368683772E-12  0.17120000000E+03  0.17120000000E+03 0.  0.
         13    1    1    2    0    0 -0.51119017130E+01 -0.79458087505E+02  0.22968244476E+03  0.24309207268E+03  0.10566000000E+00 0. -1.
        994    1    1    2    0    0 -0.98655355785E+01  0.54830632770E+02  0.24244785280E+02  0.18166170949E+03  0.17120000000E+03 0.  0.
        998    1    1    2    0    0  0.14977437291E+02  0.24627454735E+02  0.12460727662E+04  0.12464462178E+04  0.10000000000E+02 0. -1.
</event>
<event>
 5    1  0.1106231E-008  0.3827305E+03  0.7957747E-01  0.3439355E+00
         13   -1    0    0    0    0  0.00000000000E+00  0.00000000000E+00  0.14999999963E+04  0.15000000000E+04  0.10566000000E+00 0. -1.
        994   -1    0    0    0    0 -0.00000000000E+00 -0.00000000000E+00  0.11368683772E-12  0.17120000000E+03  0.17120000000E+03 0.  0.
         13    1    1    2    0    0  0.65085356461E+01 -0.79911777665E+01  0.18034702082E+02  0.20772135219E+02  0.10566000000E+00 0. -1.
        994    1    1    2    0    0 -0.93187000826E+01  0.50222239369E+01  0.31324584833E+01  0.17155556884E+03  0.17120000000E+03 0.  0.
        998    1    1    2    0    0  0.28101644364E+01  0.29689538296E+01  0.14788328357E+04  0.14788722959E+04  0.10000000000E+02 0. -1.
</event>
<event>
 5    1  0.1106231E-008  0.3836655E+03  0.7957747E-01  0.3435352E+00
         13   -1    0    0    0    0  0.00000000000E+00  0.00000000000E+00  0.14999999963E+04  0.15000000000E+04  0.10566000000E+00 0.  1.
        994   -1    0    0    0    0 -0.00000000000E+00 -0.00000000000E+00  0.11368683772E-12  0.17120000000E+03  0.17120000000E+03 0.  0.
         13    1    1    2    0    0 -0.16088127859E+02 -0.18405773980E+01  0.54152999990E+02  0.56522333242E+02  0.10566000000E+00 0.  1.
        994    1    1    2    0    0  0.19272303667E+02  0.33280958079E+01  0.35585054692E+01  0.17235022736E+03  0.17120000000E+03 0.  0.
        998    1    1    2    0    0 -0.31841758078E+01 -0.14875184099E+01  0.14422884908E+04  0.14423274394E+04  0.10000000000E+02 0.  1.
</event>
<event>
 5    1  0.1106231E-008  0.3833699E+03  0.7957747E-01  0.3436615E+00
         13   -1    0    0    0    0  0.00000000000E+00  0.00000000000E+00  0.14999999963E+04  0.15000000000E+04  0.10566000000E+00 0.  1.
        994   -1    0    0    0    0 -0.00000000000E+00 -0.00000000000E+00  0.11368683772E-12  0.17120000000E+03  0.17120000000E+03 0.  0.
         13    1    1    2    0    0 -0.42684600296E+01  0.24717467390E+02  0.13624224588E+03  0.13853206730E+03  0.10566000000E+00 0.  1.
        994    1    1    2    0    0 -0.82397492602E+01 -0.90070559790E+01  0.29344753302E+01  0.17165975554E+03  0.17120000000E+03 0.  0.
        998    1    1    2    0    0  0.12508209290E+02 -0.15710411411E+02  0.13608232751E+04  0.13610081772E+04  0.10000000000E+02 0.  1.
</event>
<event>
 5    1  0.1106231E-008  0.3693634E+03  0.7957747E-01  0.3498822E+00
         13   -1    0    0    0    0  0.00000000000E+00  0.00000000000E+00  0.14999999963E+04  0.15000000000E+04  0.10566000000E+00 0.  1.
        994   -1    0    0    0    0 -0.00000000000E+00 -0.00000000000E+00  0.11368683772E-12  0.17120000000E+03  0.17120000000E+03 0.  0.
         13    1    1    2    0    0 -0.18779827686E+02  0.26484220562E+01  0.14294690007E+02  0.23749639865E+02  0.10566000000E+00 0.  1.
        994    1    1    2    0    0  0.21040762362E+02 -0.13880945122E+01  0.11144473653E+02  0.17285334761E+03  0.17120000000E+03 0.  0.
        998    1    1    2    0    0 -0.22609346764E+01 -0.12603275440E+01  0.14745608326E+04  0.14745970125E+04  0.10000000000E+02 0.  1.
</event>
<event>
 5    1  0.1106231E-008  0.3796236E+03  0.7957747E-01  0.3452799E+00
         13   -1    0    0    0    0  0.00000000000E+00  0.00000000000E+00  0.14999999963E+04  0.15000000000E+04  0.10566000000E+00 0.  1.
        994   -1    0    0    0    0 -0.00000000000E+00 -0.00000000000E+00  0.11368683772E-12  0.17120000000E+03  0.17120000000E+03 0.  0.
         13    1    1    2    0    0 -0.29609818445E+02  0.21360643750E+02  0.13362745893E+03  0.13852554780E+03  0.10566000000E+00 0.  1.
        994    1    1    2    0    0  0.36208449697E+02 -0.26413655270E+02  0.11076149854E+02  0.17731569053E+03  0.17120000000E+03 0.  0.
        998    1    1    2    0    0 -0.65986312516E+01  0.50530115206E+01  0.13552963875E+04  0.13553587617E+04  0.10000000000E+02 0.  1.
</event>
<event>
 5    1  0.1106231E-008  0.3779297E+03  0.7957747E-01  0.3460223E+00
         13   -1    0    0    0    0  0.00000000000E+00  0.00000000000E+00  0.14999999963E+04  0.15000000000E+04  0.10566000000E+00 0.  1.
        994   -1    0    0    0    0 -0.00000000000E+00 -0.00000000000E+00  0.11368683772E-12  0.17120000000E+03  0.17120000000E+03 0.  0.
         13    1    1    2    0    0 -0.13911148145E+02  0.17587982251E+02  0.45629267949E+02  0.50841896306E+02  0.10566000000E+00 0.  1.
        994    1    1    2    0    0  0.10783915930E+02 -0.17601625020E+02  0.66174547172E+01  0.17256691674E+03  0.17120000000E+03 0.  0.
        998    1    1    2    0    0  0.31272322151E+01  0.13642769086E-01  0.14477532736E+04  0.14477911870E+04  0.10000000000E+02 0.  1.
</event>
<event>
 5    1  0.1106231E-008  0.3848379E+03  0.7957747E-01  0.3430360E+00
         13   -1    0    0    0    0  0.00000000000E+00  0.00000000000E+00  0.14999999963E+04  0.15000000000E+04  0.10566000000E+00 0. -1.
        994   -1    0    0    0    0 -0.00000000000E+00 -0.00000000000E+00  0.11368683772E-12  0.17120000000E+03  0.17120000000E+03 0.  0.
         13    1    1    2    0    0 -0.11385514740E+02  0.12758558716E+02  0.85974545871E+02  0.87658681648E+02  0.10566000000E+00 0. -1.
        994    1    1    2    0    0 -0.21045049878E+00 -0.13944484042E+02  0.23508487955E+01  0.17178317559E+03  0.17120000000E+03 0.  0.
        998    1    1    2    0    0  0.11595965239E+02  0.11859253261E+01  0.14116746016E+04  0.14117581428E+04  0.10000000000E+02 0. -1.
</event>
<event>
 5    1  0.1106231E-008  0.3763559E+03  0.7957747E-01  0.3467181E+00
         13   -1    0    0    0    0  0.00000000000E+00  0.00000000000E+00  0.14999999963E+04  0.15000000000E+04  0.10566000000E+00 0.  1.
        994   -1    0    0    0    0 -0.00000000000E+00 -0.00000000000E+00  0.11368683772E-12  0.17120000000E+03  0.17120000000E+03 0.  0.
         13    1    1    2    0    0  0.20460959361E+02  0.92267619565E+01  0.39228286053E+02  0.45195725294E+02  0.10566000000E+00 0.  1.
        994    1    1    2    0    0 -0.15361664970E+02 -0.12323781920E+02  0.72975592431E+01  0.17248347956E+03  0.17120000000E+03 0.  0.
        998    1    1    2    0    0 -0.50992943910E+01  0.30970199637E+01  0.14534741510E+04  0.14535207951E+04  0.10000000000E+02 0.  1.
</event>
<event>
 5    1  0.1106231E-008  0.2300244E+03  0.7957747E-01  0.4570735E+00
         13   -1    0    0    0    0  0.00000000000E+00  0.00000000000E+00  0.14999999963E+04  0.15000000000E+04  0.10566000000E+00 0.  1.
        994   -1    0    0    0    0 -0.00000000000E+00 -0.00000000000E+00  0.11368683772E-12  0.17120000000E+03  0.17120000000E+03 0.  0.
         13    1    1    2    0    0  0.54338519069E+02 -0.76363022235E+02  0.14575271853E+02  0.94849541555E+02  0.10566000000E+00 0.  1.
        994    1    1    2    0    0 -0.39854679270E+02  0.88236198555E+02  0.16774362257E+03  0.25849832709E+03  0.17120000000E+03 0.  0.
        998    1    1    2    0    0 -0.14483839799E+02 -0.11873176320E+02  0.13176811019E+04  0.13178521314E+04  0.10000000000E+02 0.  1.
</event>
<event>
 5    1  0.1762608E-008  0.3852666E+03  0.7957747E-01  0.3428542E+00
         13   -1    0    0    0    0  0.00000000000E+00  0.00000000000E+00  0.14999999963E+04  0.15000000000E+04  0.10566000000E+00 0. -1.
        994   -1    0    0    0    0 -0.00000000000E+00 -0.00000000000E+00  0.11368683772E-12  0.17120000000E+03  0.17120000000E+03 0.  0.
         13    1    1    2    0    0  0.13655646278E+02 -0.31495474510E+01  0.69920801898E+02  0.71311471914E+02  0.10566000000E+00 0. -1.
        994    1    1    2    0    0 -0.18574983819E+01 -0.63586584442E+01  0.16420162271E+01  0.17133598295E+03  0.17120000000E+03 0.  0.
        998    1    1    2    0    0 -0.11798147896E+02  0.95082058951E+01  0.14284371782E+04  0.14285525451E+04  0.10000000000E+02 0. -1.
</event>
<event>
 5    1  0.1106231E-008  0.3808310E+03  0.7957747E-01  0.3447548E+00
         13   -1    0    0    0    0  0.00000000000E+00  0.00000000000E+00  0.14999999963E+04  0.15000000000E+04  0.10566000000E+00 0.  1.
        994   -1    0    0    0    0 -0.00000000000E+00 -0.00000000000E+00  0.11368683772E-12  0.17120000000E+03  0.17120000000E+03 0.  0.
         13    1    1    2    0    0  0.14733106721E+02 -0.89766328466E+01  0.37357261412E+02  0.41148760797E+02  0.10566000000E+00 0.  1.
        994    1    1    2    0    0 -0.15117675109E+02  0.16515720595E+02  0.53872930048E+01  0.17274193484E+03  0.17120000000E+03 0.  0.
        998    1    1    2    0    0  0.38456838889E+00 -0.75390877484E+01  0.14572554419E+04  0.14573093044E+04  0.10000000000E+02 0.  1.
</event>
<event>
 5    1  0.1106231E-008  0.3794045E+03  0.7957747E-01  0.3453756E+00
         13   -1    0    0    0    0  0.00000000000E+00  0.00000000000E+00  0.14999999963E+04  0.15000000000E+04  0.10566000000E+00 0.  1.
        994   -1    0    0    0    0 -0.00000000000E+00 -0.00000000000E+00  0.11368683772E-12  0.17120000000E+03  0.17120000000E+03 0.  0.
         13    1    1    2    0    0 -0.68224670514E+01 -0.44951533266E+02  0.21611526737E+03  0.22084611465E+03  0.10566000000E+00 0.  1.
        994    1    1    2    0    0  0.68337485237E+01  0.34833281303E+02  0.86661838951E+01  0.17505599204E+03  0.17120000000E+03 0.  0.
        998    1    1    2    0    0 -0.11281472229E-01  0.10118251963E+02  0.12752185450E+04  0.12752978933E+04  0.10000000000E+02 0.  1.
</event>
<event>
 5    1  0.1106231E-008  0.3846846E+03  0.7957747E-01  0.3431011E+00
         13   -1    0    0    0    0  0.00000000000E+00  0.00000000000E+00  0.14999999963E+04  0.15000000000E+04  0.10566000000E+00 0.  1.
        994   -1    0    0    0    0 -0.00000000000E+00 -0.00000000000E+00  0.11368683772E-12  0.17120000000E+03  0.17120000000E+03 0.  0.
         13    1    1    2    0    0  0.14867107725E+02 -0.36957034086E+01  0.65056156773E+02  0.66835647778E+02  0.10566000000E+00 0.  1.
        994    1    1    2    0    0 -0.11406686886E+02  0.75780561111E+00  0.22171547237E+01  0.17159557847E+03  0.17120000000E+03 0.  0.
        998    1    1    2    0    0 -0.34604208390E+01  0.29378977975E+01  0.14327266848E+04  0.14327687738E+04  0.10000000000E+02 0.  1.
</event>
<event>
 5    1  0.1106231E-008  0.3786974E+03  0.7957747E-01  0.3456850E+00
         13   -1    0    0    0    0  0.00000000000E+00  0.00000000000E+00  0.14999999963E+04  0.15000000000E+04  0.10566000000E+00 0. -1.
        994   -1    0    0    0    0 -0.00000000000E+00 -0.00000000000E+00  0.11368683772E-12  0.17120000000E+03  0.17120000000E+03 0.  0.
         13    1    1    2    0    0  0.45016164736E+02  0.10897905681E+02  0.20247415914E+03  0.20770415431E+03  0.10566000000E+00 0. -1.
        994    1    1    2    0    0 -0.36929575427E+02 -0.18885191208E+02  0.10590090202E+02  0.17647105711E+03  0.17120000000E+03 0.  0.
        998    1    1    2    0    0 -0.80865893089E+01  0.79872855268E+01  0.12869357469E+04  0.12870247886E+04  0.10000000000E+02 0. -1.
</event>
<event>
 5    1  0.1106231E-008  0.3740597E+03  0.7957747E-01  0.3477439E+00
         13   -1    0    0    0    0  0.00000000000E+00  0.00000000000E+00  0.14999999963E+04  0.15000000000E+04  0.10566000000E+00 0. -1.
        994   -1    0    0    0    0 -0.00000000000E+00 -0.00000000000E+00  0.11368683772E-12  0.17120000000E+03  0.17120000000E+03 0.  0.
         13    1    1    2    0    0 -0.26538797860E+02  0.74559400918E+01  0.51771022954E+02  0.58652781829E+02  0.10566000000E+00 0. -1.
        994    1    1    2    0    0  0.97305357843E+01  0.23069862751E+01  0.75034750594E+01  0.17165589897E+03  0.17120000000E+03 0.  0.
        998    1    1    2    0    0  0.16808262076E+02 -0.97629263668E+01  0.14407254983E+04  0.14408913192E+04  0.10000000000E+02 0. -1.
</event>
<event>
 5    1  0.1106231E-008  0.3854431E+03  0.7957747E-01  0.3427795E+00
         13   -1    0    0    0    0  0.00000000000E+00  0.00000000000E+00  0.14999999963E+04  0.15000000000E+04  0.10566000000E+00 0.  1.
        994   -1    0    0    0    0 -0.00000000000E+00 -0.00000000000E+00  0.11368683772E-12  0.17120000000E+03  0.17120000000E+03 0.  0.
         13    1    1    2    0    0  0.96608131346E+01  0.13640286825E+02  0.95710555607E+02  0.97159201076E+02  0.10566000000E+00 0.  1.
        994    1    1    2    0    0 -0.66450672195E+00 -0.18692737985E+02  0.25600680664E+01  0.17223778323E+03  0.17120000000E+03 0.  0.
        998    1    1    2    0    0 -0.89963064127E+01  0.50524511601E+01  0.14017293726E+04  0.14018030157E+04  0.10000000000E+02 0.  1.
</event>
<event>
 5    1  0.1106231E-008  0.3705257E+03  0.7957747E-01  0.3493478E+00
         13   -1    0    0    0    0  0.00000000000E+00  0.00000000000E+00  0.14999999963E+04  0.15000000000E+04  0.10566000000E+00 0. -1.
        994   -1    0    0    0    0 -0.00000000000E+00 -0.00000000000E+00  0.11368683772E-12  0.17120000000E+03  0.17120000000E+03 0.  0.
         13    1    1    2    0    0  0.47400183732E+02  0.65672809658E+02  0.28150816930E+03  0.29292756083E+03  0.10566000000E+00 0. -1.
        994    1    1    2    0    0 -0.17822795109E+02 -0.51242716987E+02  0.21598565885E+02  0.18088506328E+03  0.17120000000E+03 0.  0.
        998    1    1    2    0    0 -0.29577388623E+02 -0.14430092671E+02  0.11968932611E+04  0.11973873759E+04  0.10000000000E+02 0. -1.
</event>
<event>
 5    1  0.1106231E-008  0.3833539E+03  0.7957747E-01  0.3436684E+00
         13   -1    0    0    0    0  0.00000000000E+00  0.00000000000E+00  0.14999999963E+04  0.15000000000E+04  0.10566000000E+00 0. -1.
        994   -1    0    0    0    0 -0.00000000000E+00 -0.00000000000E+00  0.11368683772E-12  0.17120000000E+03  0.17120000000E+03 0.  0.
         13    1    1    2    0    0 -0.38138216823E+01 -0.11970476766E+02  0.31364242591E+02  0.33787045256E+02  0.10566000000E+00 0. -1.
        994    1    1    2    0    0  0.75813844245E+01  0.72458290801E+01  0.28133367281E+01  0.17154397189E+03  0.17120000000E+03 0.  0.
        998    1    1    2    0    0 -0.37675627422E+01  0.47246476863E+01  0.14658224170E+04  0.14658689829E+04  0.10000000000E+02 0. -1.
</event>
<event>
 5    1  0.1106231E-008  0.3826745E+03  0.7957747E-01  0.3439595E+00
         13   -1    0    0    0    0  0.00000000000E+00  0.00000000000E+00  0.14999999963E+04  0.15000000000E+04  0.10566000000E+00 0.  1.
        994   -1    0    0    0    0 -0.00000000000E+00 -0.00000000000E+00  0.11368683772E-12  0.17120000000E+03  0.17120000000E+03 0.  0.
         13    1    1    2    0    0 -0.16532088777E+02  0.91686024491E+01  0.60210566326E+02  0.63108610281E+02  0.10566000000E+00 0.  1.
        994    1    1    2    0    0  0.18838142623E+02 -0.12260318749E+02  0.44649124235E+01  0.17272685511E+03  0.17120000000E+03 0.  0.
        998    1    1    2    0    0 -0.23060538456E+01  0.30917162997E+01  0.14353245175E+04  0.14353645346E+04  0.10000000000E+02 0.  1.
</event>
<event>
 5    1  0.1106231E-008  0.3822607E+03  0.7957747E-01  0.3441374E+00
         13   -1    0    0    0    0  0.00000000000E+00  0.00000000000E+00  0.14999999963E+04  0.15000000000E+04  0.10566000000E+00 0. -1.
        994   -1    0    0    0    0 -0.00000000000E+00 -0.00000000000E+00  0.11368683772E-12  0.17120000000E+03  0.17120000000E+03 0.  0.
         13    1    1    2    0    0  0.12210814478E+02 -0.29670982401E+02  0.16624305551E+03  0.16931106241E+03  0.10566000000E+00 0. -1.
        994    1    1    2    0    0 -0.20803821907E+01  0.23455622601E+02  0.48383359627E+01  0.17287956420E+03  0.17120000000E+03 0.  0.
        998    1    1    2    0    0 -0.10130432287E+02  0.62153597999E+01  0.13289186048E+04  0.13290093734E+04  0.10000000000E+02 0. -1.
</event>
<event>
 5    1  0.1106231E-008  0.3815353E+03  0.7957747E-01  0.3444500E+00
         13   -1    0    0    0    0  0.00000000000E+00  0.00000000000E+00  0.14999999963E+04  0.15000000000E+04  0.10566000000E+00 0. -1.
        994   -1    0    0    0    0 -0.00000000000E+00 -0.00000000000E+00  0.11368683772E-12  0.17120000000E+03  0.17120000000E+03 0.  0.
         13    1    1    2    0    0 -0.22303977559E+02 -0.81574597292E+01  0.88994499382E+02  0.92108868457E+02  0.10566000000E+00 0. -1.
        994    1    1    2    0    0  0.57321302397E+01 -0.11281507617E+02  0.38928968965E+01  0.17171116556E+03  0.17120000000E+03 0.  0.
        998    1    1    2    0    0  0.16571847319E+02  0.19438967346E+02  0.14071126000E+04  0.14073799660E+04  0.10000000000E+02 0. -1.
</event>
<event>
 5    1  0.1106231E-008  0.3858259E+03  0.7957747E-01  0.3426177E+00
         13   -1    0    0    0    0  0.00000000000E+00  0.00000000000E+00  0.14999999963E+04  0.15000000000E+04  0.10566000000E+00 0. -1.
        994   -1    0    0    0    0 -0.00000000000E+00 -0.00000000000E+00  0.11368683772E-12  0.17120000000E+03  0.17120000000E+03 0.  0.
         13    1    1    2    0    0 -0.14383186461E+02 -0.12468980334E+00  0.82997445181E+02  0.84234664307E+02  0.10566000000E+00 0. -1.
        994    1    1    2    0    0  0.13023512008E+02 -0.97800895804E+00  0.17802898925E+01  0.17170666207E+03  0.17120000000E+03 0.  0.
        998    1    1    2    0    0  0.13596744529E+01  0.11026987614E+01  0.14152222612E+04  0.14152586736E+04  0.10000000000E+02 0. -1.
</event>
<event>
 5    1  0.1106231E-008  0.3787526E+03  0.7957747E-01  0.3456608E+00
         13   -1    0    0    0    0  0.00000000000E+00  0.00000000000E+00  0.14999999963E+04  0.15000000000E+04  0.10566000000E+00 0. -1.
        994   -1    0    0    0    0 -0.00000000000E+00 -0.00000000000E+00  0.11368683772E-12  0.17120000000E+03  0.17120000000E+03 0.  0.
         13    1    1    2    0    0 -0.18407548982E+02  0.81306447660E+01  0.39508281246E+02  0.44338027639E+02  0.10566000000E+00 0. -1.
        994    1    1    2    0    0  0.23043654392E+02 -0.24249969069E+01  0.65684468070E+01  0.17288572848E+03  0.17120000000E+03 0.  0.
        998    1    1    2    0    0 -0.46361054103E+01 -0.57056478591E+01  0.14539232682E+04  0.14539762439E+04  0.10000000000E+02 0. -1.
</event>
<event>
 5    1  0.1106231E-008  0.3795631E+03  0.7957747E-01  0.3453063E+00
         13   -1    0    0    0    0  0.00000000000E+00  0.00000000000E+00  0.14999999963E+04  0.15000000000E+04  0.10566000000E+00 0. -1.
        994   -1    0    0    0    0 -0.00000000000E+00 -0.00000000000E+00  0.11368683772E-12  0.17120000000E+03  0.17120000000E+03 0.  0.
         13    1    1    2    0    0  0.11582014262E+02  0.18156485679E+02  0.51334824421E+02  0.55669348739E+02  0.10566000000E+00 0. -1.
        994    1    1    2    0    0 -0.13168280797E+02 -0.10059949721E+02  0.52737039580E+01  0.17208096397E+03  0.17120000000E+03 0.  0.
        998    1    1    2    0    0  0.15862665358E+01 -0.80965359583E+01  0.14433914679E+04  0.14434496873E+04  0.10000000000E+02 0. -1.
</event>
<event>
 5    1  0.1106231E-008  0.3720033E+03  0.7957747E-01  0.3486734E+00
         13   -1    0    0    0    0  0.00000000000E+00  0.00000000000E+00  0.14999999963E+04  0.15000000000E+04  0.10566000000E+00 0. -1.
        994   -1    0    0    0    0 -0.00000000000E+00 -0.00000000000E+00  0.11368683772E-12  0.17120000000E+03  0.17120000000E+03 0.  0.
         13    1    1    2    0    0  0.23641364634E+02 -0.67131779142E+02  0.31809191744E+03  0.32595715822E+03  0.10566000000E+00 0. -1.
        994    1    1    2    0    0 -0.33052608364E+01  0.36189691924E+02  0.12774175137E+02  0.17548002194E+03  0.17120000000E+03 0.  0.
        998    1    1    2    0    0 -0.20336103797E+02  0.30942087218E+02  0.11691339037E+04  0.11697628198E+04  0.10000000000E+02 0. -1.
</event>
<event>
 5    1  0.1127020E-008  0.3862452E+03  0.7957747E-01  0.3424408E+00
         13   -1    0    0    0    0  0.00000000000E+00  0.00000000000E+00  0.14999999963E+04  0.15000000000E+04  0.10566000000E+00 0.  1.
        994   -1    0    0    0    0 -0.00000000000E+00 -0.00000000000E+00  0.11368683772E-12  0.17120000000E+03  0.17120000000E+03 0.  0.
         13    1    1    2    0    0  0.29887943566E+01  0.10717107644E+02  0.62546560429E+02  0.63528518585E+02  0.10566000000E+00 0.  1.
        994    1    1    2    0    0  0.42778570698E+01 -0.79880723117E+01  0.12821769131E+01  0.17144443222E+03  0.17120000000E+03 0.  0.
        998    1    1    2    0    0 -0.72666514264E+01 -0.27290353325E+01  0.14361712589E+04  0.14362270492E+04  0.10000000000E+02 0.  1.
</event>
<event>
 5    1  0.1106231E-008  0.3730473E+03  0.7957747E-01  0.3482002E+00
         13   -1    0    0    0    0  0.00000000000E+00  0.00000000000E+00  0.14999999963E+04  0.15000000000E+04  0.10566000000E+00 0.  1.
        994   -1    0    0    0    0 -0.00000000000E+00 -0.00000000000E+00  0.11368683772E-12  0.17120000000E+03  0.17120000000E+03 0.  0.
         13    1    1    2    0    0 -0.70264047450E+02 -0.22274233993E+02  0.41250673346E+03  0.41904056388E+03  0.10566000000E+00 0.  1.
        994    1    1    2    0    0 -0.44722526344E+02  0.79789596501E+01  0.19887867329E+02  0.17823786193E+03  0.17120000000E+03 0.  0.
        998    1    1    2    0    0  0.11498657379E+03  0.14295274343E+02  0.10676053955E+04  0.10739215742E+04  0.10000000000E+02 0.  1.
</event>
<event>
 5    1  0.1106231E-008  0.3855840E+03  0.7957747E-01  0.3427199E+00
         13   -1    0    0    0    0  0.00000000000E+00  0.00000000000E+00  0.14999999963E+04  0.15000000000E+04  0.10566000000E+00 0. -1.
        994   -1    0    0    0    0 -0.00000000000E+00 -0.00000000000E+00  0.11368683772E-12  0.17120000000E+03  0.17120000000E+03 0.  0.
         13    1    1    2    0    0  0.22990409113E+01 -0.12242053670E+02  0.72420379511E+02  0.73483848564E+02  0.10566000000E+00 0. -1.
        994    1    1    2    0    0  0.78785279927E+01 -0.19024808813E+02  0.27334841207E+01  0.17245557831E+03  0.17120000000E+03 0.  0.
        998    1    1    2    0    0 -0.10177568904E+02  0.31266862484E+02  0.14248461326E+04  0.14252605731E+04  0.10000000000E+02 0. -1.
</event>
<event>
 5    1  0.1106231E-008  0.3830511E+03  0.7957747E-01  0.3437980E+00
         13   -1    0    0    0    0  0.00000000000E+00  0.00000000000E+00  0.14999999963E+04  0.15000000000E+04  0.10566000000E+00 0.  1.
        994   -1    0    0    0    0 -0.00000000000E+00 -0.00000000000E+00  0.11368683772E-12  0.17120000000E+03  0.17120000000E+03 0.  0.
         13    1    1    2    0    0 -0.14848919599E+02 -0.20669496331E+02  0.11422613832E+03  0.11702709230E+03  0.10566000000E+00 0.  1.
        994    1    1    2    0    0  0.66463134857E+01  0.29362058556E+02  0.56060644616E+01  0.17391714097E+03  0.17120000000E+03 0.  0.
        998    1    1    2    0    0  0.82026061135E+01 -0.86925622244E+01  0.13801677935E+04  0.13802557667E+04  0.10000000000E+02 0.  1.
</event>
<event>
 5    1  0.1106231E-008  0.3805808E+03  0.7957747E-01  0.3448634E+00
         13   -1    0    0    0    0  0.00000000000E+00  0.00000000000E+00  0.14999999963E+04  0.15000000000E+04  0.10566000000E+00 0. -1.
        994   -1    0    0    0    0 -0.00000000000E+00 -0.00000000000E+00  0.11368683772E-12  0.17120000000E+03  0.17120000000E+03 0.  0.
         13    1    1    2    0    0 -0.85182229729E+02  0.50367263978E+02  0.57111003189E+03  0.57962018014E+03  0.10566000000E+00 0. -1.
        994    1    1    2    0    0  0.11442535548E+03 -0.43170326137E+02  0.55471779637E+02  0.21758537950E+03  0.17120000000E+03 0.  0.
        998    1    1    2    0    0 -0.29243125752E+02 -0.71969378414E+01  0.87341818475E+03  0.87399444036E+03  0.10000000000E+02 0. -1.
</event>
<event>
 5    1  0.1106231E-008  0.3793462E+03  0.7957747E-01  0.3454010E+00
         13   -1    0    0    0    0  0.00000000000E+00  0.00000000000E+00  0.14999999963E+04  0.15000000000E+04  0.10566000000E+00 0. -1.
        994   -1    0    0    0    0 -0.00000000000E+00 -0.00000000000E+00  0.11368683772E-12  0.17120000000E+03  0.17120000000E+03 0.  0.
         13    1    1    2    0    0 -0.11183263719E+02 -0.14768663115E+02  0.35343391131E+02  0.39904201010E+02  0.10566000000E+00 0. -1.
        994    1    1    2    0    0  0.11678621085E+02  0.21463657458E+02  0.64664155063E+01  0.17305586760E+03  0.17120000000E+03 0.  0.
        998    1    1    2    0    0 -0.49535736600E+00 -0.66949943433E+01  0.14581901896E+04  0.14582399314E+04  0.10000000000E+02 0. -1.
</event>
<event>
 5    1  0.1106231E-008  0.3845624E+03  0.7957747E-01  0.3431530E+00
         13   -1    0    0    0    0  0.00000000000E+00  0.00000000000E+00  0.14999999963E+04  0.15000000000E+04  0.10566000000E+00 0.  1.
        994   -1    0    0    0    0 -0.00000000000E+00 -0.00000000000E+00  0.11368683772E-12  0.17120000000E+03  0.17120000000E+03 0.  0.
         13    1    1    2    0    0 -0.11506434761E+02  0.58510591664E+01  0.45993597960E+02  0.47770860906E+02  0.10566000000E+00 0.  1.
        994    1    1    2    0    0 -0.24541247772E-01 -0.79657891669E+01  0.20565823194E+01  0.17139756104E+03  0.17120000000E+03 0.  0.
        998    1    1    2    0    0  0.11530976009E+02  0.21147300005E+01  0.14519498160E+04  0.14520315781E+04  0.10000000000E+02 0.  1.
</event>
<event>
 5    1  0.1106231E-008  0.3817518E+03  0.7957747E-01  0.3443566E+00
         13   -1    0    0    0    0  0.00000000000E+00  0.00000000000E+00  0.14999999963E+04  0.15000000000E+04  0.10566000000E+00 0.  1.
        994   -1    0    0    0    0 -0.00000000000E+00 -0.00000000000E+00  0.11368683772E-12  0.17120000000E+03  0.17120000000E+03 0.  0.
         13    1    1    2    0    0  0.20454610759E+02 -0.69627011437E+01  0.73152978840E+02  0.76277387120E+02  0.10566000000E+00 0.  1.
        994    1    1    2    0    0 -0.58832361268E+01  0.38690371580E+01  0.34162696457E+01  0.17137879920E+03  0.17120000000E+03 0.  0.
        998    1    1    2    0    0 -0.14571374632E+02  0.30936639857E+01  0.14234307478E+04  0.14235438137E+04  0.10000000000E+02 0.  1.
</event>
<event>
 5    1  0.1106231E-008  0.3721029E+03  0.7957747E-01  0.3486282E+00
         13   -1    0    0    0    0  0.00000000000E+00  0.00000000000E+00  0.14999999963E+04  0.15000000000E+04  0.10566000000E+00 0. -1.
        994   -1    0    0    0    0 -0.00000000000E+00 -0.00000000000E+00  0.11368683772E-12  0.17120000000E+03  0.17120000000E+03 0.  0.
         13    1    1    2    0    0 -0.19124810229E+02  0.46178349490E+02  0.16803426744E+03  0.17531036628E+03  0.10566000000E+00 0. -1.
        994    1    1    2    0    0 -0.58885247730E+01 -0.10530104696E+02  0.86738673009E+01  0.17184363184E+03  0.17120000000E+03 0.  0.
        998    1    1    2    0    0  0.25013335002E+02 -0.35648244794E+02  0.13232918615E+04  0.13240460019E+04  0.10000000000E+02 0. -1.
</event>
<event>
 5    1  0.1106231E-008  0.3802146E+03  0.7957747E-01  0.3450225E+00
         13   -1    0    0    0    0  0.00000000000E+00  0.00000000000E+00  0.14999999963E+04  0.15000000000E+04  0.10566000000E+00 0. -1.
        994   -1    0    0    0    0 -0.00000000000E+00 -0.00000000000E+00  0.11368683772E-12  0.17120000000E+03  0.17120000000E+03 0.  0.
         13    1    1    2    0    0  0.11034017202E+02 -0.88538337107E+01  0.23171375750E+02  0.27148917569E+02  0.10566000000E+00 0. -1.
        994    1    1    2    0    0 -0.63671754150E+01  0.89553069059E+01  0.44283012573E+01  0.17160940620E+03  0.17120000000E+03 0.  0.
        998    1    1    2    0    0 -0.46668417869E+01 -0.10147319520E+00  0.14724003193E+04  0.14724416762E+04  0.10000000000E+02 0. -1.
</event>
<event>
 5    1  0.1106231E-008  0.3813832E+03  0.7957747E-01  0.3445158E+00
         13   -1    0    0    0    0  0.00000000000E+00  0.00000000000E+00  0.14999999963E+04  0.15000000000E+04  0.10566000000E+00 0.  1.
        994   -1    0    0    0    0 -0.00000000000E+00 -0.00000000000E+00  0.11368683772E-12  0.17120000000E+03  0.17120000000E+03 0.  0.
         13    1    1    2    0    0 -0.12465854673E+02 -0.35649364410E+01  0.22969327548E+02  0.26376267299E+02  0.10566000000E+00 0.  1.
        994    1    1    2    0    0  0.10040568214E+02  0.44239617746E+01  0.38372626973E+01  0.17159414044E+03  0.17120000000E+03 0.  0.
        998    1    1    2    0    0  0.24252864588E+01 -0.85902533357E+00  0.14731934060E+04  0.14732295923E+04  0.10000000000E+02 0.  1.
</event>
<event>
 5    1  0.1106231E-008  0.3783062E+03  0.7957747E-01  0.3458567E+00
         13   -1    0    0    0    0  0.00000000000E+00  0.00000000000E+00  0.14999999963E+04  0.15000000000E+04  0.10566000000E+00 0.  1.
        994   -1    0    0    0    0 -0.00000000000E+00 -0.00000000000E+00  0.11368683772E-12  0.17120000000E+03  0.17120000000E+03 0.  0.
         13    1    1    2    0    0  0.14381669114E+02  0.26718329552E+02  0.92932213460E+02  0.97760467486E+02  0.10566000000E+00 0.  1.
        994    1    1    2    0    0 -0.78382696402E+01 -0.10285566737E+02  0.55530242292E+01  0.17177749396E+03  0.17120000000E+03 0.  0.
        998    1    1    2    0    0 -0.65433994734E+01 -0.16432762815E+02  0.14015147586E+04  0.14016620386E+04  0.10000000000E+02 0.  1.
</event>
<event>
 5    1  0.1106231E-008  0.3742980E+03  0.7957747E-01  0.3476369E+00
         13   -1    0    0    0    0  0.00000000000E+00  0.00000000000E+00  0.14999999963E+04  0.15000000000E+04  0.10566000000E+00 0.  1.
        994   -1    0    0    0    0 -0.00000000000E+00 -0.00000000000E+00  0.11368683772E-12  0.17120000000E+03  0.17120000000E+03 0.  0.
         13    1    1    2    0    0  0.17237635492E+02 -0.49359744694E+02  0.22051753839E+03  0.22663079309E+03  0.10566000000E+00 0.  1.
        994    1    1    2    0    0 -0.89252886213E+00  0.83142263494E+01  0.72779666518E+01  0.17155853743E+03  0.17120000000E+03 0.  0.
        998    1    1    2    0    0 -0.16345106630E+02  0.41045518345E+02  0.12722044912E+04  0.12730106695E+04  0.10000000000E+02 0.  1.
</event>
<event>
 5    1  0.1106231E-008  0.3851840E+03  0.7957747E-01  0.3428892E+00
         13   -1    0    0    0    0  0.00000000000E+00  0.00000000000E+00  0.14999999963E+04  0.15000000000E+04  0.10566000000E+00 0. -1.
        994   -1    0    0    0    0 -0.00000000000E+00 -0.00000000000E+00  0.11368683772E-12  0.17120000000E+03  0.17120000000E+03 0.  0.
         13    1    1    2    0    0  0.63445317744E+01  0.13900504034E+02  0.72255293735E+02  0.73853339346E+02  0.10566000000E+00 0. -1.
        994    1    1    2    0    0 -0.82910618857E+01 -0.15430481777E+02  0.25479516437E+01  0.17211267685E+03  0.17120000000E+03 0.  0.
        998    1    1    2    0    0  0.19465301114E+01  0.15299777429E+01  0.14251967509E+04  0.14252339838E+04  0.10000000000E+02 0.  0.
</event>
<event>
 5    1  0.1106231E-008  0.3790394E+03  0.7957747E-01  0.3455352E+00
         13   -1    0    0    0    0  0.00000000000E+00  0.00000000000E+00  0.14999999963E+04  0.15000000000E+04  0.10566000000E+00 0. -1.
        994   -1    0    0    0    0 -0.00000000000E+00 -0.00000000000E+00  0.11368683772E-12  0.17120000000E+03  0.17120000000E+03 0.  0.
         13    1    1    2    0    0  0.10248672644E+02  0.53469396931E+01  0.12515896563E+02  0.17037719503E+02  0.10566000000E+00 0. -1.
        994    1    1    2    0    0 -0.21964328415E+01 -0.78860293301E+01  0.48436140753E+01  0.17146403230E+03  0.17120000000E+03 0.  0.
        998    1    1    2    0    0 -0.80522398027E+01  0.25390896370E+01  0.14826404856E+04  0.14826982482E+04  0.10000000000E+02 0. -1.
</event>
<event>
 5    1  0.1106231E-008  0.3809167E+03  0.7957747E-01  0.3447177E+00
         13   -1    0    0    0    0  0.00000000000E+00  0.00000000000E+00  0.14999999963E+04  0.15000000000E+04  0.10566000000E+00 0.  1.
        994   -1    0    0    0    0 -0.00000000000E+00 -0.00000000000E+00  0.11368683772E-12  0.17120000000E+03  0.17120000000E+03 0.  0.
         13    1    1    2    0    0 -0.11240142830E+02  0.12033846249E+02  0.35259848582E+02  0.38915579817E+02  0.10566000000E+00 0.  1.
        994    1    1    2    0    0  0.65291720117E+01 -0.12247942484E+02  0.43134319391E+01  0.17181585456E+03  0.17120000000E+03 0.  0.
        998    1    1    2    0    0  0.47109708187E+01  0.21409623514E+00  0.14604267158E+04  0.14604685656E+04  0.10000000000E+02 0.  1.
</event>
<event>
 5    1  0.1106231E-008  0.3764229E+03  0.7957747E-01  0.3466883E+00
         13   -1    0    0    0    0  0.00000000000E+00  0.00000000000E+00  0.14999999963E+04  0.15000000000E+04  0.10566000000E+00 0.  1.
        994   -1    0    0    0    0 -0.00000000000E+00 -0.00000000000E+00  0.11368683772E-12  0.17120000000E+03  0.17120000000E+03 0.  0.
         13    1    1    2    0    0 -0.42075557998E+02 -0.29558677379E+02  0.23664894625E+03  0.24217101997E+03  0.10566000000E+00 0.  1.
        994    1    1    2    0    0  0.15752406713E+02  0.11007413946E+02  0.72001741840E+01  0.17242558971E+03  0.17120000000E+03 0.  0.
        998    1    1    2    0    0  0.26323151284E+02  0.18551263433E+02  0.12561508758E+04  0.12566033903E+04  0.10000000000E+02 0.  1.
</event>
<event>
 5    1  0.1106231E-008  0.3719275E+03  0.7957747E-01  0.3487079E+00
         13   -1    0    0    0    0  0.00000000000E+00  0.00000000000E+00  0.14999999963E+04  0.15000000000E+04  0.10566000000E+00 0. -1.
        994   -1    0    0    0    0 -0.00000000000E+00 -0.00000000000E+00  0.11368683772E-12  0.17120000000E+03  0.17120000000E+03 0.  0.
         13    1    1    2    0    0 -0.10938334994E+02  0.23717851753E+02  0.37338625483E+02  0.45567178772E+02  0.10566000000E+00 0. -1.
        994    1    1    2    0    0  0.15323943904E+02 -0.19100459945E+02  0.10327471629E+02  0.17325053390E+03  0.17120000000E+03 0.  0.
        998    1    1    2    0    0 -0.43856089106E+01 -0.46173918080E+01  0.14523338992E+04  0.14523822873E+04  0.10000000000E+02 0. -1.
</event>
<event>
 5    1  0.1106231E-008  0.3757486E+03  0.7957747E-01  0.3469881E+00
         13   -1    0    0    0    0  0.00000000000E+00  0.00000000000E+00  0.14999999963E+04  0.15000000000E+04  0.10566000000E+00 0.  1.
        994   -1    0    0    0    0 -0.00000000000E+00 -0.00000000000E+00  0.11368683772E-12  0.17120000000E+03  0.17120000000E+03 0.  0.
         13    1    1    2    0    0 -0.23622577274E+02  0.26591395079E+02  0.10488598744E+03  0.11075292309E+03  0.10566000000E+00 0.  1.
        994    1    1    2    0    0  0.28954668941E+01 -0.68279003080E+01  0.64813226169E+01  0.17148309390E+03  0.17120000000E+03 0.  0.
        998    1    1    2    0    0  0.20727110380E+02 -0.19763494771E+02  0.13886326862E+04  0.13889639830E+04  0.10000000000E+02 0.  1.
</event>
<event>
 5    1  0.1106231E-008  0.3761169E+03  0.7957747E-01  0.3468243E+00
         13   -1    0    0    0    0  0.00000000000E+00  0.00000000000E+00  0.14999999963E+04  0.15000000000E+04  0.10566000000E+00 0.  1.
        994   -1    0    0    0    0 -0.00000000000E+00 -0.00000000000E+00  0.11368683772E-12  0.17120000000E+03  0.17120000000E+03 0.  0.
         13    1    1    2    0    0  0.11140233542E+02 -0.25294413744E+02  0.64987056930E+02  0.70620400045E+02  0.10566000000E+00 0.  1.
        994    1    1    2    0    0  0.80127738089E+01  0.48082990570E-01  0.63237741237E+01  0.17150404361E+03  0.17120000000E+03 0.  0.
        998    1    1    2    0    0 -0.19153007351E+02  0.25246330753E+02  0.14286891652E+04  0.14290755563E+04  0.10000000000E+02 0.  1.
</event>
<event>
 5    1  0.1106231E-008  0.3846405E+03  0.7957747E-01  0.3431199E+00
         13   -1    0    0    0    0  0.00000000000E+00  0.00000000000E+00  0.14999999963E+04  0.15000000000E+04  0.10566000000E+00 0.  1.
        994   -1    0    0    0    0 -0.00000000000E+00 -0.00000000000E+00  0.11368683772E-12  0.17120000000E+03  0.17120000000E+03 0.  0.
         13    1    1    2    0    0 -0.32523038650E+01  0.10048071760E+02  0.30318128451E+02  0.32105160073E+02  0.10566000000E+00 0.  1.
        994    1    1    2    0    0 -0.84293201373E+00 -0.90621340446E+01  0.20815247870E+01  0.17145438330E+03  0.17120000000E+03 0.  0.
        998    1    1    2    0    0  0.40952358787E+01 -0.98593771558E+00  0.14676003430E+04  0.14676404566E+04  0.10000000000E+02 0.  1.
</event>
<event>
 5    1  0.1106231E-008  0.3853941E+03  0.7957747E-01  0.3428002E+00
         13   -1    0    0    0    0  0.00000000000E+00  0.00000000000E+00  0.14999999963E+04  0.15000000000E+04  0.10566000000E+00 0. -1.
        994   -1    0    0    0    0 -0.00000000000E+00 -0.00000000000E+00  0.11368683772E-12  0.17120000000E+03  0.17120000000E+03 0.  0.
         13    1    1    2    0    0  0.11219463853E+02  0.46167980986E+01  0.51676203928E+02  0.53081375361E+02  0.10566000000E+00 0. -1.
        994    1    1    2    0    0 -0.75057967319E+01 -0.13632463470E+01  0.16257438898E+01  0.17137759033E+03  0.17120000000E+03 0.  0.
        998    1    1    2    0    0 -0.37136671210E+01 -0.32535517516E+01  0.14466980485E+04  0.14467410343E+04  0.10000000000E+02 0. -1.
</event>
<event>
 5    1  0.1106231E-008  0.3771007E+03  0.7957747E-01  0.3463881E+00
         13   -1    0    0    0    0  0.00000000000E+00  0.00000000000E+00  0.14999999963E+04  0.15000000000E+04  0.10566000000E+00 0.  1.
        994   -1    0    0    0    0 -0.00000000000E+00 -0.00000000000E+00  0.11368683772E-12  0.17120000000E+03  0.17120000000E+03 0.  0.
         13    1    1    2    0    0  0.13264881948E+02  0.67517930977E+02  0.14446647376E+03  0.16001625324E+03  0.10566000000E+00 0.  1.
        994    1    1    2    0    0 -0.14382828167E+02 -0.61730680840E+02  0.29292527925E+02  0.18489195465E+03  0.17120000000E+03 0.  0.
        998    1    1    2    0    0  0.11179462190E+01 -0.57872501373E+01  0.13262409946E+04  0.13262917921E+04  0.10000000000E+02 0.  1.
</event>
<event>
 5    1  0.1106231E-008  0.3719040E+03  0.7957747E-01  0.3487186E+00
         13   -1    0    0    0    0  0.00000000000E+00  0.00000000000E+00  0.14999999963E+04  0.15000000000E+04  0.10566000000E+00 0. -1.
        994   -1    0    0    0    0 -0.00000000000E+00 -0.00000000000E+00  0.11368683772E-12  0.17120000000E+03  0.17120000000E+03 0.  0.
         13    1    1    2    0    0  0.19243322799E+01  0.59753320904E+02  0.30548257772E+03  0.31127765559E+03  0.10566000000E+00 0. -1.
        994    1    1    2    0    0 -0.14736031351E+02  0.14441349328E+02  0.97409288943E+01  0.17271371945E+03  0.17120000000E+03 0.  0.
        998    1    1    2    0    0  0.12811699072E+02 -0.74194670232E+02  0.11847764897E+04  0.11872086250E+04  0.10000000000E+02 0. -1.
</event>
<event>
 5    1  0.1106231E-008  0.3716346E+03  0.7957747E-01  0.3488412E+00
         13   -1    0    0    0    0  0.00000000000E+00  0.00000000000E+00  0.14999999963E+04  0.15000000000E+04  0.10566000000E+00 0.  1.
        994   -1    0    0    0    0 -0.00000000000E+00 -0.00000000000E+00  0.11368683772E-12  0.17120000000E+03  0.17120000000E+03 0.  0.
         13    1    1    2    0    0  0.48095230790E+02  0.36338321348E+02  0.34217771218E+03  0.34744671922E+03  0.10566000000E+00 0.  1.
        994    1    1    2    0    0  0.25484979264E+02  0.60814527193E+01  0.10781061192E+02  0.17352849770E+03  0.17120000000E+03 0.  0.
        998    1    1    2    0    0 -0.73580210054E+02 -0.42419774067E+02  0.11470412229E+04  0.11502247831E+04  0.10000000000E+02 0. -1.
</event>
<event>
 5    1  0.1106231E-008  0.3792008E+03  0.7957747E-01  0.3454646E+00
         13   -1    0    0    0    0  0.00000000000E+00  0.00000000000E+00  0.14999999963E+04  0.15000000000E+04  0.10566000000E+00 0.  1.
        994   -1    0    0    0    0 -0.00000000000E+00 -0.00000000000E+00  0.11368683772E-12  0.17120000000E+03  0.17120000000E+03 0.  0.
         13    1    1    2    0    0 -0.10509104963E+02 -0.18350348634E+01  0.10745788002E+02  0.15142383032E+02  0.10566000000E+00 0.  1.
        994    1    1    2    0    0 -0.31185585617E+00 -0.51536140183E+01  0.46264591767E+01  0.17134030791E+03  0.17120000000E+03 0.  0.
        998    1    1    2    0    0  0.10820960819E+02  0.69886488817E+01  0.14846277491E+04  0.14847173091E+04  0.10000000000E+02 0.  1.
</event>
<event>
 5    1  0.1106231E-008  0.3859938E+03  0.7957747E-01  0.3425468E+00
         13   -1    0    0    0    0  0.00000000000E+00  0.00000000000E+00  0.14999999963E+04  0.15000000000E+04  0.10566000000E+00 0.  1.
        994   -1    0    0    0    0 -0.00000000000E+00 -0.00000000000E+00  0.11368683772E-12  0.17120000000E+03  0.17120000000E+03 0.  0.
         13    1    1    2    0    0 -0.12620641988E+02  0.21593958773E+01  0.73997851313E+02  0.75097514990E+02  0.10566000000E+00 0.  1.
        994    1    1    2    0    0  0.54493758297E+01 -0.76377684752E+01  0.14261796093E+01  0.17146283910E+03  0.17120000000E+03 0.  0.
        998    1    1    2    0    0  0.71712661578E+01  0.54783725978E+01  0.14245759654E+04  0.14246396459E+04  0.10000000000E+02 0.  1.
</event>
<event>
 5    1  0.1106231E-008  0.3880568E+03  0.7957747E-01  0.3416810E+00
         13   -1    0    0    0    0  0.00000000000E+00  0.00000000000E+00  0.14999999963E+04  0.15000000000E+04  0.10566000000E+00 0.  1.
        994   -1    0    0    0    0 -0.00000000000E+00 -0.00000000000E+00  0.11368683772E-12  0.17120000000E+03  0.17120000000E+03 0.  0.
         13    1    1    2    0    0 -0.28873811998E+02  0.24715411859E+01  0.11039638598E+02  0.31011132187E+02  0.10566000000E+00 0.  1.
        994    1    1    2    0    0  0.33846471729E+02 -0.66353766710E+01  0.25280017882E+02  0.17645999880E+03  0.17120000000E+03 0.  0.
        998    1    1    2    0    0 -0.49726597312E+01  0.41638354851E+01  0.14636803398E+04  0.14637288690E+04  0.10000000000E+02 0.  1.
</event>
<event>
 5    1  0.1106231E-008  0.3780814E+03  0.7957747E-01  0.3459555E+00
         13   -1    0    0    0    0  0.00000000000E+00  0.00000000000E+00  0.14999999963E+04  0.15000000000E+04  0.10566000000E+00 0. -1.
        994   -1    0    0    0    0 -0.00000000000E+00 -0.00000000000E+00  0.11368683772E-12  0.17120000000E+03  0.17120000000E+03 0.  0.
         13    1    1    2    0    0  0.35997360761E+01 -0.17763197216E+02  0.32109222629E+02  0.36871433618E+02  0.10566000000E+00 0. -1.
        994    1    1    2    0    0 -0.95309191586E+01 -0.11862371393E+02  0.58841896073E+01  0.17197563189E+03  0.17120000000E+03 0.  0.
        998    1    1    2    0    0  0.59311830825E+01  0.29625568609E+02  0.14620065840E+04  0.14623529345E+04  0.10000000000E+02 0. -1.
</event>
<event>
 5    1  0.1106231E-008  0.3861006E+03  0.7957747E-01  0.3425018E+00
         13   -1    0    0    0    0  0.00000000000E+00  0.00000000000E+00  0.14999999963E+04  0.15000000000E+04  0.10566000000E+00 0.  1.
        994   -1    0    0    0    0 -0.00000000000E+00 -0.00000000000E+00  0.11368683772E-12  0.17120000000E+03  0.17120000000E+03 0.  0.
         13    1    1    2    0    0 -0.20847216402E+03  0.15642236737E+03  0.11034413125E+04  0.11338039255E+04  0.10566000000E+00 0.  1.
        994    1    1    2    0    0  0.21413211198E+03 -0.16637699880E+03  0.29833730819E+03  0.43800508738E+03  0.17120000000E+03 0.  0.
        998    1    1    2    0    0 -0.56599479637E+01  0.99546314285E+01  0.98221375611E+02  0.99390987140E+02  0.10000000000E+02 0.  1.
</event>
<event>
 5    1  0.1106231E-008  0.3845190E+03  0.7957747E-01  0.3431715E+00
         13   -1    0    0    0    0  0.00000000000E+00  0.00000000000E+00  0.14999999963E+04  0.15000000000E+04  0.10566000000E+00 0. -1.
        994   -1    0    0    0    0 -0.00000000000E+00 -0.00000000000E+00  0.11368683772E-12  0.17120000000E+03  0.17120000000E+03 0.  0.
         13    1    1    2    0    0  0.54268656372E+01  0.17342341779E+02  0.86282569224E+02  0.88175396823E+02  0.10566000000E+00 0. -1.
        994    1    1    2    0    0 -0.90520423105E+01 -0.12656578391E+02  0.26670793057E+01  0.17192638471E+03  0.17120000000E+03 0.  0.
        998    1    1    2    0    0  0.36251766733E+01 -0.46857633875E+01  0.14110503477E+04  0.14110982185E+04  0.10000000000E+02 0. -1.
</event>
<event>
 5    1  0.1106231E-008  0.3790522E+03  0.7957747E-01  0.3455296E+00
         13   -1    0    0    0    0  0.00000000000E+00  0.00000000000E+00  0.14999999963E+04  0.15000000000E+04  0.10566000000E+00 0.  1.
        994   -1    0    0    0    0 -0.00000000000E+00 -0.00000000000E+00  0.11368683772E-12  0.17120000000E+03  0.17120000000E+03 0.  0.
         13    1    1    2    0    0  0.18576323936E+02  0.15657368785E+02  0.65764346981E+02  0.70108441048E+02  0.10566000000E+00 0.  1.
        994    1    1    2    0    0 -0.40065733224E+02  0.42240599383E+02  0.16064052619E+02  0.18154069792E+03  0.17120000000E+03 0.  0.
        998    1    1    2    0    0  0.21489409288E+02 -0.57897968167E+02  0.14181715967E+04  0.14195508610E+04  0.10000000000E+02 0.  1.
</event>
<event>
 5    1  0.1106231E-008  0.3704738E+03  0.7957747E-01  0.3493716E+00
         13   -1    0    0    0    0  0.00000000000E+00  0.00000000000E+00  0.14999999963E+04  0.15000000000E+04  0.10566000000E+00 0.  1.
        994   -1    0    0    0    0 -0.00000000000E+00 -0.00000000000E+00  0.11368683772E-12  0.17120000000E+03  0.17120000000E+03 0.  0.
         13    1    1    2    0    0  0.49619016224E+02  0.35693084235E+02  0.23416962479E+03  0.24201542796E+03  0.10566000000E+00 0.  1.
        994    1    1    2    0    0 -0.21303730184E+02  0.80780671407E+01  0.10815605112E+02  0.17304774313E+03  0.17120000000E+03 0.  0.
        998    1    1    2    0    0 -0.28315286040E+02 -0.43771151376E+02  0.12550147664E+04  0.12561368289E+04  0.10000000000E+02 0.  1.
</event>
<event>
 5    1  0.1106231E-008  0.3790286E+03  0.7957747E-01  0.3455399E+00
         13   -1    0    0    0    0  0.00000000000E+00  0.00000000000E+00  0.14999999963E+04  0.15000000000E+04  0.10566000000E+00 0.  1.
        994   -1    0    0    0    0 -0.00000000000E+00 -0.00000000000E+00  0.11368683772E-12  0.17120000000E+03  0.17120000000E+03 0.  0.
         13    1    1    2    0    0 -0.24479143052E+02  0.29137189295E+02  0.18386101559E+03  0.18775805831E+03  0.10566000000E+00 0.  1.
        994    1    1    2    0    0  0.31372547290E+01  0.59205592613E+01  0.47748617438E+01  0.17139759244E+03  0.17120000000E+03 0.  0.
        998    1    1    2    0    0  0.21341888323E+02 -0.35057748556E+02  0.13113641189E+04  0.13120443493E+04  0.10000000000E+02 0.  1.
</event>
<event>
 5    1  0.1106231E-008  0.3832603E+03  0.7957747E-01  0.3437084E+00
         13   -1    0    0    0    0  0.00000000000E+00  0.00000000000E+00  0.14999999963E+04  0.15000000000E+04  0.10566000000E+00 0. -1.
        994   -1    0    0    0    0 -0.00000000000E+00 -0.00000000000E+00  0.11368683772E-12  0.17120000000E+03  0.17120000000E+03 0.  0.
         13    1    1    2    0    0 -0.20882058805E+02 -0.10820455069E+02  0.10415879665E+03  0.10678112526E+03  0.10566000000E+00 0. -1.
        994    1    1    2    0    0  0.23414958594E+02  0.50157891110E+01  0.43951261186E+01  0.17292245534E+03  0.17120000000E+03 0.  0.
        998    1    1    2    0    0 -0.25328997890E+01  0.58046659575E+01  0.13914460735E+04  0.13914964194E+04  0.10000000000E+02 0. -1.
</event>
<event>
 5    1  0.1106231E-008  0.3802723E+03  0.7957747E-01  0.3449974E+00
         13   -1    0    0    0    0  0.00000000000E+00  0.00000000000E+00  0.14999999963E+04  0.15000000000E+04  0.10566000000E+00 0.  1.
        994   -1    0    0    0    0 -0.00000000000E+00 -0.00000000000E+00  0.11368683772E-12  0.17120000000E+03  0.17120000000E+03 0.  0.
         13    1    1    2    0    0  0.81193178173E+01  0.71568350064E+01  0.12783085138E+02  0.16749986233E+02  0.10566000000E+00 0.  1.
        994    1    1    2    0    0 -0.68622225923E+01 -0.10894033973E+02  0.45495929904E+01  0.17174373022E+03  0.17120000000E+03 0.  0.
        998    1    1    2    0    0 -0.12570952251E+01  0.37371989662E+01  0.14826673182E+04  0.14827062835E+04  0.10000000000E+02 0.  1.
</event>
<event>
 5    1  0.1106231E-008  0.3835457E+03  0.7957747E-01  0.3435864E+00
         13   -1    0    0    0    0  0.00000000000E+00  0.00000000000E+00  0.14999999963E+04  0.15000000000E+04  0.10566000000E+00 0.  1.
        994   -1    0    0    0    0 -0.00000000000E+00 -0.00000000000E+00  0.11368683772E-12  0.17120000000E+03  0.17120000000E+03 0.  0.
         13    1    1    2    0    0 -0.61719901981E+01  0.86407299044E+01  0.24189533000E+02  0.26417803600E+02  0.10566000000E+00 0.  1.
        994    1    1    2    0    0 -0.11775814846E+02 -0.20829431006E+01  0.28265771437E+01  0.17164043232E+03  0.17120000000E+03 0.  0.
        998    1    1    2    0    0  0.17947805044E+02 -0.65577868037E+01  0.14729838861E+04  0.14731417641E+04  0.10000000000E+02 0.  1.
</event>
<event>
 5    1  0.1106231E-008  0.3751297E+03  0.7957747E-01  0.3472643E+00
         13   -1    0    0    0    0  0.00000000000E+00  0.00000000000E+00  0.14999999963E+04  0.15000000000E+04  0.10566000000E+00 0. -1.
        994   -1    0    0    0    0 -0.00000000000E+00 -0.00000000000E+00  0.11368683772E-12  0.17120000000E+03  0.17120000000E+03 0.  0.
         13    1    1    2    0    0 -0.21529336827E+02 -0.33601984274E+01  0.32298151132E+02  0.38961327085E+02  0.10566000000E+00 0. -1.
        994    1    1    2    0    0  0.24865715165E+02  0.22085679193E+01  0.87324153451E+01  0.17323070352E+03  0.17120000000E+03 0.  0.
        998    1    1    2    0    0 -0.33363783378E+01  0.11516305080E+01  0.14589694298E+04  0.14590079694E+04  0.10000000000E+02 0. -1.
</event>
<event>
 5    1  0.1106231E-008  0.3797978E+03  0.7957747E-01  0.3452040E+00
         13   -1    0    0    0    0  0.00000000000E+00  0.00000000000E+00  0.14999999963E+04  0.15000000000E+04  0.10566000000E+00 0. -1.
        994   -1    0    0    0    0 -0.00000000000E+00 -0.00000000000E+00  0.11368683772E-12  0.17120000000E+03  0.17120000000E+03 0.  0.
         13    1    1    2    0    0 -0.69239804723E-01 -0.21574496839E+02  0.53126127596E+02  0.57339866633E+02  0.10566000000E+00 0. -1.
        994    1    1    2    0    0  0.10745050250E+02  0.15222381567E+02  0.53974788886E+01  0.17229553037E+03  0.17120000000E+03 0.  0.
        998    1    1    2    0    0 -0.10675810445E+02  0.63521152724E+01  0.14414763898E+04  0.14415646030E+04  0.10000000000E+02 0. -1.
</event>
<event>
 5    1  0.1106231E-008  0.3768131E+03  0.7957747E-01  0.3465154E+00
         13   -1    0    0    0    0  0.00000000000E+00  0.00000000000E+00  0.14999999963E+04  0.15000000000E+04  0.10566000000E+00 0.  1.
        994   -1    0    0    0    0 -0.00000000000E+00 -0.00000000000E+00  0.11368683772E-12  0.17120000000E+03  0.17120000000E+03 0.  0.
         13    1    1    2    0    0 -0.17911480246E+02  0.58420730714E+01  0.28302256360E+02  0.33999703256E+02  0.10566000000E+00 0.  1.
        994    1    1    2    0    0  0.97411548205E+01 -0.19352301524E+02  0.73381210223E+01  0.17272142221E+03  0.17120000000E+03 0.  0.
        998    1    1    2    0    0  0.81703254259E+01  0.13510228453E+02  0.14643596189E+04  0.14644788745E+04  0.10000000000E+02 0.  1.
</event>
<event>
 5    1  0.1106231E-008  0.3689474E+03  0.7957747E-01  0.3500742E+00
         13   -1    0    0    0    0  0.00000000000E+00  0.00000000000E+00  0.14999999963E+04  0.15000000000E+04  0.10566000000E+00 0.  1.
        994   -1    0    0    0    0 -0.00000000000E+00 -0.00000000000E+00  0.11368683772E-12  0.17120000000E+03  0.17120000000E+03 0.  0.
         13    1    1    2    0    0  0.46774440866E+02  0.24036749455E+02  0.13189876186E+03  0.14199615554E+03  0.10566000000E+00 0.  1.
        994    1    1    2    0    0 -0.20736262103E+02 -0.21449312051E+02  0.13489835886E+02  0.17430284342E+03  0.17120000000E+03 0.  0.
        998    1    1    2    0    0 -0.26038178763E+02 -0.25874374045E+01  0.13546113985E+04  0.13549010010E+04  0.10000000000E+02 0.  1.
</event>
<event>
 5    1  0.1106231E-008  0.3761251E+03  0.7957747E-01  0.3468206E+00
         13   -1    0    0    0    0  0.00000000000E+00  0.00000000000E+00  0.14999999963E+04  0.15000000000E+04  0.10566000000E+00 0.  1.
        994   -1    0    0    0    0 -0.00000000000E+00 -0.00000000000E+00  0.11368683772E-12  0.17120000000E+03  0.17120000000E+03 0.  0.
         13    1    1    2    0    0  0.19400129983E+02 -0.48094596146E+01  0.77627822699E+01  0.21442198995E+02  0.10566000000E+00 0.  1.
        994    1    1    2    0    0 -0.14591468561E+02  0.72630128475E+01  0.15164567110E+02  0.17264143884E+03  0.17120000000E+03 0.  0.
        998    1    1    2    0    0 -0.48086614227E+01 -0.24535532329E+01  0.14770726469E+04  0.14771163622E+04  0.10000000000E+02 0.  1.
</event>
<event>
 5    1  0.1106231E-008  0.3796962E+03  0.7957747E-01  0.3452482E+00
         13   -1    0    0    0    0  0.00000000000E+00  0.00000000000E+00  0.14999999963E+04  0.15000000000E+04  0.10566000000E+00 0. -1.
        994   -1    0    0    0    0 -0.00000000000E+00 -0.00000000000E+00  0.11368683772E-12  0.17120000000E+03  0.17120000000E+03 0.  0.
         13    1    1    2    0    0  0.15970635138E+02 -0.30001456102E+01  0.28797377087E+02  0.33066027150E+02  0.10566000000E+00 0. -1.
        994    1    1    2    0    0 -0.21122418869E+02 -0.36021887820E+02  0.10143761092E+02  0.17651081800E+03  0.17120000000E+03 0.  0.
        998    1    1    2    0    0  0.51517837315E+01  0.39022033430E+02  0.14610588581E+04  0.14616231549E+04  0.10000000000E+02 0. -1.
</event>
<event>
 5    1  0.1106231E-008  0.3787971E+03  0.7957747E-01  0.3456413E+00
         13   -1    0    0    0    0  0.00000000000E+00  0.00000000000E+00  0.14999999963E+04  0.15000000000E+04  0.10566000000E+00 0. -1.
        994   -1    0    0    0    0 -0.00000000000E+00 -0.00000000000E+00  0.11368683772E-12  0.17120000000E+03  0.17120000000E+03 0.  0.
         13    1    1    2    0    0 -0.68652034612E+02 -0.18856293750E+02  0.37490487485E+03  0.38160495021E+03  0.10566000000E+00 0. -1.
        994    1    1    2    0    0  0.74666992699E+02  0.20359434616E+02  0.25114720500E+02  0.18955172266E+03  0.17120000000E+03 0.  0.
        998    1    1    2    0    0 -0.60149580872E+01 -0.15031408659E+01  0.10999804009E+04  0.11000433271E+04  0.10000000000E+02 0.  0.
</event>
<event>
 5    1  0.1106231E-008  0.3799519E+03  0.7957747E-01  0.3451368E+00
         13   -1    0    0    0    0  0.00000000000E+00  0.00000000000E+00  0.14999999963E+04  0.15000000000E+04  0.10566000000E+00 0. -1.
        994   -1    0    0    0    0 -0.00000000000E+00 -0.00000000000E+00  0.11368683772E-12  0.17120000000E+03  0.17120000000E+03 0.  0.
         13    1    1    2    0    0 -0.32841882267E+02  0.12454123243E+02  0.14187866852E+03  0.14616176710E+03  0.10566000000E+00 0. -1.
        994    1    1    2    0    0  0.24695167418E+02 -0.95880240202E+01  0.65073223093E+01  0.17335964566E+03  0.17120000000E+03 0.  0.
        998    1    1    2    0    0  0.81467148489E+01 -0.28660992224E+01  0.13516140055E+04  0.13516785872E+04  0.10000000000E+02 0. -1.
</event>
<event>
 5    1  0.1106231E-008  0.3700839E+03  0.7957747E-01  0.3495505E+00
         13   -1    0    0    0    0  0.00000000000E+00  0.00000000000E+00  0.14999999963E+04  0.15000000000E+04  0.10566000000E+00 0. -1.
        994   -1    0    0    0    0 -0.00000000000E+00 -0.00000000000E+00  0.11368683772E-12  0.17120000000E+03  0.17120000000E+03 0.  0.
         13    1    1    2    0    0  0.28213925074E+02 -0.37032974196E+02  0.88818331630E+02  0.10028047638E+03  0.10566000000E+00 0. -1.
        994    1    1    2    0    0 -0.31842605340E+02  0.37486611335E+02  0.19491474723E+02  0.17918860212E+03  0.17120000000E+03 0.  0.
        998    1    1    2    0    0  0.36286802652E+01 -0.45363713910E+00  0.13916901899E+04  0.13917309215E+04  0.10000000000E+02 0. -1.
</event>
<event>
 5    1  0.1106231E-008  0.3731201E+03  0.7957747E-01  0.3481673E+00
         13   -1    0    0    0    0  0.00000000000E+00  0.00000000000E+00  0.14999999963E+04  0.15000000000E+04  0.10566000000E+00 0. -1.
        994   -1    0    0    0    0 -0.00000000000E+00 -0.00000000000E+00  0.11368683772E-12  0.17120000000E+03  0.17120000000E+03 0.  0.
         13    1    1    2    0    0 -0.15728451674E+02  0.33721468796E+02  0.89840043190E+02  0.97240763953E+02  0.10566000000E+00 0. -1.
        994    1    1    2    0    0  0.21527474032E+01 -0.17936463356E+02  0.87644911552E+01  0.17237345313E+03  0.17120000000E+03 0.  0.
        998    1    1    2    0    0  0.13575704271E+02 -0.15785005440E+02  0.14013954619E+04  0.14015857829E+04  0.10000000000E+02 0. -1.
</event>
<event>
 5    1  0.1106231E-008  0.3827295E+03  0.7957747E-01  0.3439359E+00
         13   -1    0    0    0    0  0.00000000000E+00  0.00000000000E+00  0.14999999963E+04  0.15000000000E+04  0.10566000000E+00 0.  1.
        994   -1    0    0    0    0 -0.00000000000E+00 -0.00000000000E+00  0.11368683772E-12  0.17120000000E+03  0.17120000000E+03 0.  0.
         13    1    1    2    0    0 -0.96313703370E+01 -0.70917959811E+01  0.23312343818E+02  0.26201782442E+02  0.10566000000E+00 0.  1.
        994    1    1    2    0    0  0.16545642448E+02  0.25769868507E+02  0.58749335217E+01  0.17401666372E+03  0.17120000000E+03 0.  0.
        998    1    1    2    0    0 -0.69142721109E+01 -0.18678072526E+02  0.14708127189E+04  0.14709815538E+04  0.10000000000E+02 0.  1.
</event>
<event>
 5    1  0.1106231E-008  0.2408631E+03  0.7957747E-01  0.4436230E+00
         13   -1    0    0    0    0  0.00000000000E+00  0.00000000000E+00  0.14999999963E+04  0.15000000000E+04  0.10566000000E+00 0. -1.
        994   -1    0    0    0    0 -0.00000000000E+00 -0.00000000000E+00  0.11368683772E-12  0.17120000000E+03  0.17120000000E+03 0.  0.
         13    1    1    2    0    0 -0.15862928098E+03 -0.64372821443E+02  0.28195163275E+03  0.32985427586E+03  0.10566000000E+00 0. -1.
        994    1    1    2    0    0  0.13297870878E+03  0.26072500650E+02  0.13380901224E+03  0.25608085449E+03  0.17120000000E+03 0.  0.
        998    1    1    2    0    0  0.25650572202E+02  0.38300320794E+02  0.10842393513E+04  0.10852648697E+04  0.10000000000E+02 0. -1.
</event>
<event>
 5    1  0.1106231E-008  0.3276834E+03  0.7957747E-01  0.3716272E+00
         13   -1    0    0    0    0  0.00000000000E+00  0.00000000000E+00  0.14999999963E+04  0.15000000000E+04  0.10566000000E+00 0.  1.
        994   -1    0    0    0    0 -0.00000000000E+00 -0.00000000000E+00  0.11368683772E-12  0.17120000000E+03  0.17120000000E+03 0.  0.
         13    1    1    2    0    0  0.15964375231E+03  0.93984253583E+02  0.90638147241E+03  0.92511975023E+03  0.10566000000E+00 0.  1.
        994    1    1    2    0    0 -0.12291956179E+03 -0.90158829857E+02  0.98520501577E+02  0.24950663819E+03  0.17120000000E+03 0.  0.
        998    1    1    2    0    0 -0.36724190521E+02 -0.38254237265E+01  0.49509802230E+03  0.49657361158E+03  0.10000000000E+02 0.  1.
</event>
<event>
 5    1  0.1106231E-008  0.3847697E+03  0.7957747E-01  0.3430650E+00
         13   -1    0    0    0    0  0.00000000000E+00  0.00000000000E+00  0.14999999963E+04  0.15000000000E+04  0.10566000000E+00 0. -1.
        994   -1    0    0    0    0 -0.00000000000E+00 -0.00000000000E+00  0.11368683772E-12  0.17120000000E+03  0.17120000000E+03 0.  0.
         13    1    1    2    0    0  0.16682513498E+02 -0.99562063057E+01  0.10424573903E+03  0.10604064113E+03  0.10566000000E+00 0. -1.
        994    1    1    2    0    0 -0.19761037989E+02  0.33389619916E+00  0.30311188995E+01  0.17236367886E+03  0.17120000000E+03 0.  0.
        998    1    1    2    0    0  0.30785244913E+01  0.96223101066E+01  0.13927231383E+04  0.13927956800E+04  0.10000000000E+02 0. -1.
</event>
<event>
 5    1  0.1106231E-008  0.3821772E+03  0.7957747E-01  0.3441733E+00
         13   -1    0    0    0    0  0.00000000000E+00  0.00000000000E+00  0.14999999963E+04  0.15000000000E+04  0.10566000000E+00 0. -1.
        994   -1    0    0    0    0 -0.00000000000E+00 -0.00000000000E+00  0.11368683772E-12  0.17120000000E+03  0.17120000000E+03 0.  0.
         13    1    1    2    0    0  0.22345156407E+02 -0.39542676654E+02  0.26882849048E+03  0.27263840109E+03  0.10566000000E+00 0. -1.
        994    1    1    2    0    0 -0.58939948426E+02  0.27483543289E+02  0.17204488362E+02  0.18394210255E+03  0.17120000000E+03 0.  0.
        998    1    1    2    0    0  0.36594792020E+02  0.12059133366E+02  0.12139670174E+04  0.12146194964E+04  0.10000000000E+02 0. -1.
</event>
<event>
 5    1  0.1106231E-008  0.3862413E+03  0.7957747E-01  0.3424425E+00
         13   -1    0    0    0    0  0.00000000000E+00  0.00000000000E+00  0.14999999963E+04  0.15000000000E+04  0.10566000000E+00 0. -1.
        994   -1    0    0    0    0 -0.00000000000E+00 -0.00000000000E+00  0.11368683772E-12  0.17120000000E+03  0.17120000000E+03 0.  0.
         13    1    1    2    0    0 -0.89641567700E+01  0.54986241071E+01  0.55129636924E+02  0.56123782883E+02  0.10566000000E+00 0. -1.
        994    1    1    2    0    0  0.10521828734E+02  0.23902409101E+01  0.13965429284E+01  0.17154536561E+03  0.17120000000E+03 0.  0.
        998    1    1    2    0    0 -0.15576719643E+01 -0.78888650171E+01  0.14434738164E+04  0.14435308515E+04  0.10000000000E+02 0. -1.
</event>
<event>
 5    1  0.1106231E-008  0.3727537E+03  0.7957747E-01  0.3483330E+00
         13   -1    0    0    0    0  0.00000000000E+00  0.00000000000E+00  0.14999999963E+04  0.15000000000E+04  0.10566000000E+00 0. -1.
        994   -1    0    0    0    0 -0.00000000000E+00 -0.00000000000E+00  0.11368683772E-12  0.17120000000E+03  0.17120000000E+03 0.  0.
         13    1    1    2    0    0 -0.19210430700E+01  0.22499437330E+02  0.28845198370E+02  0.36632932175E+02  0.10566000000E+00 0. -1.
        994    1    1    2    0    0  0.53213475328E+01 -0.21272017926E+02  0.94853908309E+01  0.17285898335E+03  0.17120000000E+03 0.  0.
        998    1    1    2    0    0 -0.34003044628E+01 -0.12274194046E+01  0.14616694071E+04  0.14617080845E+04  0.10000000000E+02 0. -1.
</event>
<event>
 5    1  0.1106231E-008  0.3819308E+03  0.7957747E-01  0.3442794E+00
         13   -1    0    0    0    0  0.00000000000E+00  0.00000000000E+00  0.14999999963E+04  0.15000000000E+04  0.10566000000E+00 0. -1.
        994   -1    0    0    0    0 -0.00000000000E+00 -0.00000000000E+00  0.11368683772E-12  0.17120000000E+03  0.17120000000E+03 0.  0.
         13    1    1    2    0    0  0.10477081121E+02  0.11320748093E+02  0.37213242754E+02  0.40283559507E+02  0.10566000000E+00 0. -1.
        994    1    1    2    0    0 -0.26102768894E+00 -0.66839847131E+01  0.33102939176E+01  0.17136260337E+03  0.17120000000E+03 0.  0.
        998    1    1    2    0    0 -0.10216053432E+02 -0.46367633796E+01  0.14594764596E+04  0.14595538371E+04  0.10000000000E+02 0. -1.
</event>
<event>
 5    1  0.1106231E-008  0.3050650E+03  0.7957747E-01  0.3860510E+00
         13   -1    0    0    0    0  0.00000000000E+00  0.00000000000E+00  0.14999999963E+04  0.15000000000E+04  0.10566000000E+00 0. -1.
        994   -1    0    0    0    0 -0.00000000000E+00 -0.00000000000E+00  0.11368683772E-12  0.17120000000E+03  0.17120000000E+03 0.  0.
         13    1    1    2    0    0 -0.15040879837E+03 -0.11727277446E+03  0.71568097189E+03  0.74065847389E+03  0.10566000000E+00 0. -1.
        994    1    1    2    0    0  0.11989051388E+03  0.10435352436E+03  0.11509376624E+03  0.26042159740E+03  0.17120000000E+03 0.  0.
        998    1    1    2    0    0  0.30518284487E+02  0.12919250103E+02  0.66922525814E+03  0.67011992870E+03  0.10000000000E+02 0. -1.
</event>
<event>
 5    1  0.1106231E-008  0.3738875E+03  0.7957747E-01  0.3478213E+00
         13   -1    0    0    0    0  0.00000000000E+00  0.00000000000E+00  0.14999999963E+04  0.15000000000E+04  0.10566000000E+00 0.  1.
        994   -1    0    0    0    0 -0.00000000000E+00 -0.00000000000E+00  0.11368683772E-12  0.17120000000E+03  0.17120000000E+03 0.  0.
         13    1    1    2    0    0 -0.27070777336E+01 -0.34173765739E+02  0.42445435724E+02  0.54560065180E+02  0.10566000000E+00 0.  1.
        994    1    1    2    0    0  0.46413934406E+01  0.13127416400E+01  0.13091848445E+02  0.17176758227E+03  0.17120000000E+03 0.  0.
        998    1    1    2    0    0 -0.19343157070E+01  0.32861024099E+02  0.14444627121E+04  0.14448723525E+04  0.10000000000E+02 0.  1.
</event>
<event>
 5    1  0.1106231E-008  0.3719503E+03  0.7957747E-01  0.3486975E+00
         13   -1    0    0    0    0  0.00000000000E+00  0.00000000000E+00  0.14999999963E+04  0.15000000000E+04  0.10566000000E+00 0.  1.
        994   -1    0    0    0    0 -0.00000000000E+00 -0.00000000000E+00  0.11368683772E-12  0.17120000000E+03  0.17120000000E+03 0.  0.
         13    1    1    2    0    0  0.44142986606E+02  0.21560251739E+02  0.13306662943E+03  0.14184564411E+03  0.10566000000E+00 0.  1.
        994    1    1    2    0    0 -0.35982510027E+02 -0.32430788621E+02  0.16355770747E+02  0.17867134162E+03  0.17120000000E+03 0.  0.
        998    1    1    2    0    0 -0.81604765793E+01  0.10870536882E+02  0.13505775961E+04  0.13506830143E+04  0.10000000000E+02 0.  1.
</event>
<event>
 5    1  0.1106231E-008  0.3827586E+03  0.7957747E-01  0.3439234E+00
         13   -1    0    0    0    0  0.00000000000E+00  0.00000000000E+00  0.14999999963E+04  0.15000000000E+04  0.10566000000E+00 0.  1.
        994   -1    0    0    0    0 -0.00000000000E+00 -0.00000000000E+00  0.11368683772E-12  0.17120000000E+03  0.17120000000E+03 0.  0.
         13    1    1    2    0    0 -0.14075278751E+02 -0.52883052771E+01  0.39466968084E+02  0.42234255982E+02  0.10566000000E+00 0.  1.
        994    1    1    2    0    0  0.87507035624E+01  0.19640759701E+02  0.42801460626E+01  0.17259807040E+03  0.17120000000E+03 0.  0.
        998    1    1    2    0    0  0.53245751881E+01 -0.14352454424E+02  0.14562528821E+04  0.14563676736E+04  0.10000000000E+02 0.  1.
</event>
<event>
 5    1  0.1106231E-008  0.3798544E+03  0.7957747E-01  0.3451793E+00
         13   -1    0    0    0    0  0.00000000000E+00  0.00000000000E+00  0.14999999963E+04  0.15000000000E+04  0.10566000000E+00 0.  1.
        994   -1    0    0    0    0 -0.00000000000E+00 -0.00000000000E+00  0.11368683772E-12  0.17120000000E+03  0.17120000000E+03 0.  0.
         13    1    1    2    0    0  0.27881406471E+02  0.14000674435E+02  0.12395405711E+03  0.12782022981E+03  0.10566000000E+00 0.  1.
        994    1    1    2    0    0 -0.21916524886E+01 -0.57508359389E+01  0.43333361681E+01  0.17136537940E+03  0.17120000000E+03 0.  0.
        998    1    1    2    0    0 -0.25689753983E+02 -0.82498384962E+01  0.13717126030E+04  0.13720143908E+04  0.10000000000E+02 0.  1.
</event>
<event>
 5    1  0.1106231E-008  0.3305750E+03  0.7957747E-01  0.3699341E+00
         13   -1    0    0    0    0  0.00000000000E+00  0.00000000000E+00  0.14999999963E+04  0.15000000000E+04  0.10566000000E+00 0.  1.
        994   -1    0    0    0    0 -0.00000000000E+00 -0.00000000000E+00  0.11368683772E-12  0.17120000000E+03  0.17120000000E+03 0.  0.
         13    1    1    2    0    0 -0.72739951108E+02 -0.23154173593E+03  0.73825114501E+03  0.77712125196E+03  0.10566000000E+00 0.  1.
        994    1    1    2    0    0  0.67153258549E+02  0.23809759842E+03  0.27637322266E+03  0.40852371377E+03  0.17120000000E+03 0.  0.
        998    1    1    2    0    0  0.55866925595E+01 -0.65558624961E+01  0.48537562860E+03  0.48555503427E+03  0.10000000000E+02 0.  1.
</event>
<event>
 5    1  0.1106231E-008  0.3772007E+03  0.7957747E-01  0.3463439E+00
         13   -1    0    0    0    0  0.00000000000E+00  0.00000000000E+00  0.14999999963E+04  0.15000000000E+04  0.10566000000E+00 0.  1.
        994   -1    0    0    0    0 -0.00000000000E+00 -0.00000000000E+00  0.11368683772E-12  0.17120000000E+03  0.17120000000E+03 0.  0.
         13    1    1    2    0    0  0.28773445898E+02  0.43140585633E+02  0.29447916578E+03  0.29901005260E+03  0.10566000000E+00 0.  1.
        994    1    1    2    0    0 -0.20522916453E+01 -0.50827752154E+01  0.56543228946E+01  0.17138103125E+03  0.17120000000E+03 0.  0.
        998    1    1    2    0    0 -0.26721154253E+02 -0.38057810418E+02  0.11998665076E+04  0.12008089161E+04  0.10000000000E+02 0.  1.
</event>
<event>
 5    1  0.1106231E-008  0.3834719E+03  0.7957747E-01  0.3436179E+00
         13   -1    0    0    0    0  0.00000000000E+00  0.00000000000E+00  0.14999999963E+04  0.15000000000E+04  0.10566000000E+00 0.  1.
        994   -1    0    0    0    0 -0.00000000000E+00 -0.00000000000E+00  0.11368683772E-12  0.17120000000E+03  0.17120000000E+03 0.  0.
         13    1    1    2    0    0 -0.45243616636E+02 -0.14689972671E+03  0.76029909915E+03  0.77568114962E+03  0.10566000000E+00 0.  1.
        994    1    1    2    0    0  0.90269227385E+02  0.18665088544E+03  0.16052891528E+03  0.31315500808E+03  0.17120000000E+03 0.  0.
        998    1    1    2    0    0 -0.45025610749E+02 -0.39751158734E+02  0.57917198186E+03  0.58236384230E+03  0.10000000000E+02 0.  1.
</event>
<event>
 5    1  0.1106231E-008  0.3834623E+03  0.7957747E-01  0.3436220E+00
         13   -1    0    0    0    0  0.00000000000E+00  0.00000000000E+00  0.14999999963E+04  0.15000000000E+04  0.10566000000E+00 0.  1.
        994   -1    0    0    0    0 -0.00000000000E+00 -0.00000000000E+00  0.11368683772E-12  0.17120000000E+03  0.17120000000E+03 0.  0.
         13    1    1    2    0    0  0.62543399829E+01  0.10032342790E+02  0.28754212034E+02  0.31089878485E+02  0.10566000000E+00 0.  1.
        994    1    1    2    0    0  0.13154674689E+01 -0.64741941067E+01  0.25397690182E+01  0.17134624615E+03  0.17120000000E+03 0.  0.
        998    1    1    2    0    0 -0.75698074517E+01 -0.35581486832E+01  0.14687060152E+04  0.14687638754E+04  0.10000000000E+02 0.  1.
</event>
<event>
 5    1  0.1106231E-008  0.3848285E+03  0.7957747E-01  0.3430400E+00
         13   -1    0    0    0    0  0.00000000000E+00  0.00000000000E+00  0.14999999963E+04  0.15000000000E+04  0.10566000000E+00 0. -1.
        994   -1    0    0    0    0 -0.00000000000E+00 -0.00000000000E+00  0.11368683772E-12  0.17120000000E+03  0.17120000000E+03 0.  0.
         13    1    1    2    0    0 -0.18847735008E+02  0.80240690183E+01  0.11906114742E+03  0.12081055743E+03  0.10566000000E+00 0. -1.
        994    1    1    2    0    0  0.15341361040E+02 -0.48046411200E+01  0.25661861192E+01  0.17197228627E+03  0.17120000000E+03 0.  0.
        998    1    1    2    0    0  0.35063739686E+01 -0.32194278982E+01  0.13783726627E+04  0.13784171563E+04  0.10000000000E+02 0. -1.
</event>
<event>
 5    1  0.1106231E-008  0.3858225E+03  0.7957747E-01  0.3426191E+00
         13   -1    0    0    0    0  0.00000000000E+00  0.00000000000E+00  0.14999999963E+04  0.15000000000E+04  0.10566000000E+00 0. -1.
        994   -1    0    0    0    0 -0.00000000000E+00 -0.00000000000E+00  0.11368683772E-12  0.17120000000E+03  0.17120000000E+03 0.  0.
         13    1    1    2    0    0 -0.11754600011E+02  0.24507673799E+01  0.59406299578E+02  0.60607726205E+02  0.10566000000E+00 0. -1.
        994    1    1    2    0    0  0.83349312064E+01 -0.58265790436E+00  0.14513498548E+01  0.17140990924E+03  0.17120000000E+03 0.  0.
        998    1    1    2    0    0  0.34196688045E+01 -0.18681094755E+01  0.14391423468E+04  0.14391823646E+04  0.10000000000E+02 0. -1.
</event>
<event>
 5    1  0.1106231E-008  0.3744314E+03  0.7957747E-01  0.3475770E+00
         13   -1    0    0    0    0  0.00000000000E+00  0.00000000000E+00  0.14999999963E+04  0.15000000000E+04  0.10566000000E+00 0. -1.
        994   -1    0    0    0    0 -0.00000000000E+00 -0.00000000000E+00  0.11368683772E-12  0.17120000000E+03  0.17120000000E+03 0.  0.
         13    1    1    2    0    0 -0.76968516256E+02  0.10321299343E+02  0.39544916452E+03  0.40300215211E+03  0.10566000000E+00 0. -1.
        994    1    1    2    0    0  0.53910939775E+02 -0.47257508114E+01  0.17011728500E+02  0.18035398819E+03  0.17120000000E+03 0.  0.
        998    1    1    2    0    0  0.23057576482E+02 -0.55955485315E+01  0.10875391033E+04  0.10878438597E+04  0.10000000000E+02 0. -1.
</event>
<event>
 5    1  0.1106231E-008  0.3857886E+03  0.7957747E-01  0.3426335E+00
         13   -1    0    0    0    0  0.00000000000E+00  0.00000000000E+00  0.14999999963E+04  0.15000000000E+04  0.10566000000E+00 0. -1.
        994   -1    0    0    0    0 -0.00000000000E+00 -0.00000000000E+00  0.11368683772E-12  0.17120000000E+03  0.17120000000E+03 0.  0.
         13    1    1    2    0    0 -0.93933190361E+01 -0.10751890917E+02  0.83084067012E+02  0.84301903633E+02  0.10566000000E+00 0. -1.
        994    1    1    2    0    0  0.52368883641E+01  0.75315572998E+01  0.15152067628E+01  0.17145228259E+03  0.17120000000E+03 0.  0.
        998    1    1    2    0    0  0.41564306720E+01  0.32203336170E+01  0.14154007225E+04  0.14154458138E+04  0.10000000000E+02 0. -1.
</event>
<event>
 5    1  0.1745613E-008  0.3861713E+03  0.7957747E-01  0.3424720E+00
         13   -1    0    0    0    0  0.00000000000E+00  0.00000000000E+00  0.14999999963E+04  0.15000000000E+04  0.10566000000E+00 0.  1.
        994   -1    0    0    0    0 -0.00000000000E+00 -0.00000000000E+00  0.11368683772E-12  0.17120000000E+03  0.17120000000E+03 0.  0.
         13    1    1    2    0    0  0.17585021903E+01  0.10060157691E+02  0.50168599798E+02  0.51197643231E+02  0.10566000000E+00 0.  1.
        994    1    1    2    0    0 -0.15115969946E+01 -0.74572824614E+01  0.12394021940E+01  0.17137348717E+03  0.17120000000E+03 0.  0.
        998    1    1    2    0    0 -0.24690519570E+00 -0.26028752295E+01  0.14485919943E+04  0.14486288696E+04  0.10000000000E+02 0.  1.
</event>
<event>
 5    1  0.1106231E-008  0.3853347E+03  0.7957747E-01  0.3428254E+00
         13   -1    0    0    0    0  0.00000000000E+00  0.00000000000E+00  0.14999999963E+04  0.15000000000E+04  0.10566000000E+00 0.  1.
        994   -1    0    0    0    0 -0.00000000000E+00 -0.00000000000E+00  0.11368683772E-12  0.17120000000E+03  0.17120000000E+03 0.  0.
         13    1    1    2    0    0  0.10896617382E+02 -0.28064978070E+01  0.49387058223E+02  0.50652792463E+02  0.10566000000E+00 0.  1.
        994    1    1    2    0    0  0.11967273946E+02 -0.11115315224E+02  0.23408884895E+01  0.17199327207E+03  0.17120000000E+03 0.  0.
        998    1    1    2    0    0 -0.22863891329E+02  0.13921813031E+02  0.14482720496E+04  0.14485539355E+04  0.10000000000E+02 0.  1.
</event>
<event>
 5    1  0.1106231E-008  0.3777036E+03  0.7957747E-01  0.3461219E+00
         13   -1    0    0    0    0  0.00000000000E+00  0.00000000000E+00  0.14999999963E+04  0.15000000000E+04  0.10566000000E+00 0.  1.
        994   -1    0    0    0    0 -0.00000000000E+00 -0.00000000000E+00  0.11368683772E-12  0.17120000000E+03  0.17120000000E+03 0.  0.
         13    1    1    2    0    0 -0.15823014758E+02 -0.41938533020E+02  0.63426753274E+02  0.77667062149E+02  0.10566000000E+00 0.  1.
        994    1    1    2    0    0  0.53531300986E+01  0.17213882670E+02  0.16240094680E+02  0.17291082798E+03  0.17120000000E+03 0.  0.
        998    1    1    2    0    0  0.10469884659E+02  0.24724650349E+02  0.14203331483E+04  0.14206221099E+04  0.10000000000E+02 0.  1.
</event>
<event>
 5    1  0.1106231E-008  0.3853688E+03  0.7957747E-01  0.3428109E+00
         13   -1    0    0    0    0  0.00000000000E+00  0.00000000000E+00  0.14999999963E+04  0.15000000000E+04  0.10566000000E+00 0. -1.
        994   -1    0    0    0    0 -0.00000000000E+00 -0.00000000000E+00  0.11368683772E-12  0.17120000000E+03  0.17120000000E+03 0.  0.
         13    1    1    2    0    0 -0.14537839882E+02 -0.12123929875E+02  0.11291311980E+03  0.11448896126E+03  0.10566000000E+00 0. -1.
        994    1    1    2    0    0  0.30841795467E+00  0.37905159581E+02  0.61812268834E+01  0.17545524731E+03  0.17120000000E+03 0.  0.
        998    1    1    2    0    0  0.14229421927E+02 -0.25781229706E+02  0.13809056496E+04  0.13812557914E+04  0.10000000000E+02 0. -1.
</event>
<event>
 5    1  0.1106231E-008  0.3687302E+03  0.7957747E-01  0.3501747E+00
         13   -1    0    0    0    0  0.00000000000E+00  0.00000000000E+00  0.14999999963E+04  0.15000000000E+04  0.10566000000E+00 0.  1.
        994   -1    0    0    0    0 -0.00000000000E+00 -0.00000000000E+00  0.11368683772E-12  0.17120000000E+03  0.17120000000E+03 0.  0.
         13    1    1    2    0    0 -0.70858359063E+02  0.13203551242E+03  0.66230385770E+03  0.67904395637E+03  0.10566000000E+00 0.  1.
        994    1    1    2    0    0  0.70246795675E+02 -0.12030960787E+03  0.80714991624E+02  0.23501779490E+03  0.17120000000E+03 0.  0.
        998    1    1    2    0    0  0.61156338755E+00 -0.11725904555E+02  0.75698114695E+03  0.75713824873E+03  0.10000000000E+02 0.  1.
</event>
<event>
 5    1  0.1106231E-008  0.3805629E+03  0.7957747E-01  0.3448711E+00
         13   -1    0    0    0    0  0.00000000000E+00  0.00000000000E+00  0.14999999963E+04  0.15000000000E+04  0.10566000000E+00 0.  1.
        994   -1    0    0    0    0 -0.00000000000E+00 -0.00000000000E+00  0.11368683772E-12  0.17120000000E+03  0.17120000000E+03 0.  0.
         13    1    1    2    0    0  0.11098338803E+02  0.45449805899E+01  0.16864416675E+02  0.20694194514E+02  0.10566000000E+00 0.  1.
        994    1    1    2    0    0 -0.11928508080E+02 -0.52220489526E+01  0.44152290642E+01  0.17175125428E+03  0.17120000000E+03 0.  0.
        998    1    1    2    0    0  0.83016927717E+00  0.67706836269E+00  0.14787203505E+04  0.14787545512E+04  0.10000000000E+02 0.  1.
</event>
<event>
 5    1  0.1106231E-008  0.3798158E+03  0.7957747E-01  0.3451961E+00
         13   -1    0    0    0    0  0.00000000000E+00  0.00000000000E+00  0.14999999963E+04  0.15000000000E+04  0.10566000000E+00 0.  1.
        994   -1    0    0    0    0 -0.00000000000E+00 -0.00000000000E+00  0.11368683772E-12  0.17120000000E+03  0.17120000000E+03 0.  0.
         13    1    1    2    0    0 -0.15385359704E+02  0.19848806912E+01  0.26830036462E+02  0.30992112951E+02  0.10566000000E+00 0.  1.
        994    1    1    2    0    0  0.92072129441E+01 -0.54107679875E+01  0.46077505040E+01  0.17159464020E+03  0.17120000000E+03 0.  0.
        998    1    1    2    0    0  0.61781467600E+01  0.34258872963E+01  0.14685622093E+04  0.14686132468E+04  0.10000000000E+02 0.  1.
</event>
<event>
 5    1  0.1106231E-008  0.4053868E+03  0.7957747E-01  0.3347558E+00
         13   -1    0    0    0    0  0.00000000000E+00  0.00000000000E+00  0.14999999963E+04  0.15000000000E+04  0.10566000000E+00 0. -1.
        994   -1    0    0    0    0 -0.00000000000E+00 -0.00000000000E+00  0.11368683772E-12  0.17120000000E+03  0.17120000000E+03 0.  0.
         13    1    1    2    0    0 -0.45514541165E+02 -0.10052919079E+03  0.19786796687E+03  0.22656000339E+03  0.10566000000E+00 0. -1.
        994    1    1    2    0    0  0.61017774301E+02  0.37871403219E+02  0.51992683489E+02  0.19279546441E+03  0.17120000000E+03 0.  0.
        998    1    1    2    0    0 -0.15503233136E+02  0.62657787567E+02  0.12501393459E+04  0.12518445322E+04  0.10000000000E+02 0. -1.
</event>
<event>
 5    1  0.1106231E-008  0.3817321E+03  0.7957747E-01  0.3443651E+00
         13   -1    0    0    0    0  0.00000000000E+00  0.00000000000E+00  0.14999999963E+04  0.15000000000E+04  0.10566000000E+00 0. -1.
        994   -1    0    0    0    0 -0.00000000000E+00 -0.00000000000E+00  0.11368683772E-12  0.17120000000E+03  0.17120000000E+03 0.  0.
         13    1    1    2    0    0  0.35094064942E+02 -0.10602606688E+01  0.21159294605E+03  0.21448613831E+03  0.10566000000E+00 0. -1.
        994    1    1    2    0    0 -0.66581141635E+01  0.24771040072E+01  0.34291054234E+01  0.17138163639E+03  0.17120000000E+03 0.  0.
        998    1    1    2    0    0 -0.28435950779E+02 -0.14168433384E+01  0.12849779448E+04  0.12853322253E+04  0.10000000000E+02 0. -1.
</event>
<event>
 5    1  0.1106231E-008  0.3820938E+03  0.7957747E-01  0.3442092E+00
         13   -1    0    0    0    0  0.00000000000E+00  0.00000000000E+00  0.14999999963E+04  0.15000000000E+04  0.10566000000E+00 0.  1.
        994   -1    0    0    0    0 -0.00000000000E+00 -0.00000000000E+00  0.11368683772E-12  0.17120000000E+03  0.17120000000E+03 0.  0.
         13    1    1    2    0    0  0.19101751936E+02 -0.14878805896E+01  0.56478528008E+02  0.59639969867E+02  0.10566000000E+00 0.  1.
        994    1    1    2    0    0 -0.20631769644E+02  0.61108755636E+00  0.44956530161E+01  0.17249838910E+03  0.17120000000E+03 0.  0.
        998    1    1    2    0    0  0.15300177081E+01  0.87679303325E+00  0.14390258153E+04  0.14390616410E+04  0.10000000000E+02 0.  1.
</event>
<event>
 5    1  0.1106231E-008  0.3793645E+03  0.7957747E-01  0.3453930E+00
         13   -1    0    0    0    0  0.00000000000E+00  0.00000000000E+00  0.14999999963E+04  0.15000000000E+04  0.10566000000E+00 0. -1.
        994   -1    0    0    0    0 -0.00000000000E+00 -0.00000000000E+00  0.11368683772E-12  0.17120000000E+03  0.17120000000E+03 0.  0.
         13    1    1    2    0    0  0.99574207301E+01 -0.19312316743E+02  0.52593193711E+02  0.56904929438E+02  0.10566000000E+00 0. -1.
        994    1    1    2    0    0 -0.82079100087E+01  0.42787063071E+01  0.47413670732E+01  0.17151559018E+03  0.17120000000E+03 0.  0.
        998    1    1    2    0    0 -0.17495107214E+01  0.15033610436E+02  0.14426654355E+04  0.14427794804E+04  0.10000000000E+02 0. -1.
</event>
<event>
 5    1  0.1106231E-008  0.3848510E+03  0.7957747E-01  0.3430304E+00
         13   -1    0    0    0    0  0.00000000000E+00  0.00000000000E+00  0.14999999963E+04  0.15000000000E+04  0.10566000000E+00 0.  1.
        994   -1    0    0    0    0 -0.00000000000E+00 -0.00000000000E+00  0.11368683772E-12  0.17120000000E+03  0.17120000000E+03 0.  0.
         13    1    1    2    0    0  0.13319069212E+02  0.99938653266E+01  0.96196222934E+02  0.97626837600E+02  0.10566000000E+00 0.  1.
        994    1    1    2    0    0  0.84457437499E+01  0.67277716563E+01  0.20878477993E+01  0.17155288574E+03  0.17120000000E+03 0.  0.
        998    1    1    2    0    0 -0.21764812962E+02 -0.16721636983E+02  0.14017159255E+04  0.14020202767E+04  0.10000000000E+02 0.  1.
</event>
<event>
 5    1  0.1106231E-008  0.3760900E+03  0.7957747E-01  0.3468362E+00
         13   -1    0    0    0    0  0.00000000000E+00  0.00000000000E+00  0.14999999963E+04  0.15000000000E+04  0.10566000000E+00 0.  1.
        994   -1    0    0    0    0 -0.00000000000E+00 -0.00000000000E+00  0.11368683772E-12  0.17120000000E+03  0.17120000000E+03 0.  0.
         13    1    1    2    0    0 -0.61979562932E+01 -0.13090670144E+02  0.14216593934E+02  0.20295393915E+02  0.10566000000E+00 0.  1.
        994    1    1    2    0    0  0.67402519022E+01  0.16023020099E+02  0.71440885974E+01  0.17222847085E+03  0.17120000000E+03 0.  0.
        998    1    1    2    0    0 -0.54229560900E+00 -0.29323499543E+01  0.14786393137E+04  0.14786761352E+04  0.10000000000E+02 0.  1.
</event>
<event>
 5    1  0.1106231E-008  0.3763827E+03  0.7957747E-01  0.3467062E+00
         13   -1    0    0    0    0  0.00000000000E+00  0.00000000000E+00  0.14999999963E+04  0.15000000000E+04  0.10566000000E+00 0. -1.
        994   -1    0    0    0    0 -0.00000000000E+00 -0.00000000000E+00  0.11368683772E-12  0.17120000000E+03  0.17120000000E+03 0.  0.
         13    1    1    2    0    0 -0.38115290903E+02 -0.80553972096E+02  0.52162425195E+03  0.52918200007E+03  0.10566000000E+00 0. -1.
        994    1    1    2    0    0  0.17817381665E+02  0.73128803249E+02  0.25385620209E+02  0.18873036498E+03  0.17120000000E+03 0.  0.
        998    1    1    2    0    0  0.20297909239E+02  0.74251688477E+01  0.95299012412E+03  0.95328763494E+03  0.10000000000E+02 0. -1.
</event>
<event>
 5    1  0.1106231E-008  0.3727464E+03  0.7957747E-01  0.3483363E+00
         13   -1    0    0    0    0  0.00000000000E+00  0.00000000000E+00  0.14999999963E+04  0.15000000000E+04  0.10566000000E+00 0. -1.
        994   -1    0    0    0    0 -0.00000000000E+00 -0.00000000000E+00  0.11368683772E-12  0.17120000000E+03  0.17120000000E+03 0.  0.
         13    1    1    2    0    0  0.65538089222E+01 -0.58230131077E+02  0.31863111413E+03  0.32397453392E+03  0.10566000000E+00 0. -1.
        994    1    1    2    0    0  0.99580194926E+02  0.11653555972E+02  0.43097037312E+02  0.20302417396E+03  0.17120000000E+03 0.  0.
        998    1    1    2    0    0 -0.10613400385E+03  0.46576575105E+02  0.11382718448E+04  0.11442012921E+04  0.10000000000E+02 0. -1.
</event>
<event>
 5    1  0.1106231E-008  0.3002169E+03  0.7957747E-01  0.3894472E+00
         13   -1    0    0    0    0  0.00000000000E+00  0.00000000000E+00  0.14999999963E+04  0.15000000000E+04  0.10566000000E+00 0. -1.
        994   -1    0    0    0    0 -0.00000000000E+00 -0.00000000000E+00  0.11368683772E-12  0.17120000000E+03  0.17120000000E+03 0.  0.
         13    1    1    2    0    0 -0.88618465951E+02  0.18771724060E+03  0.66423015325E+03  0.69591141863E+03  0.10566000000E+00 0. -1.
        994    1    1    2    0    0  0.68065999107E+02 -0.15101422066E+03  0.13624239744E+03  0.27442613931E+03  0.17120000000E+03 0.  0.
        998    1    1    2    0    0  0.20552466844E+02 -0.36703019943E+02  0.69952744558E+03  0.70086244206E+03  0.10000000000E+02 0. -1.
</event>
<event>
 5    1  0.1106231E-008  0.3788124E+03  0.7957747E-01  0.3456346E+00
         13   -1    0    0    0    0  0.00000000000E+00  0.00000000000E+00  0.14999999963E+04  0.15000000000E+04  0.10566000000E+00 0.  1.
        994   -1    0    0    0    0 -0.00000000000E+00 -0.00000000000E+00  0.11368683772E-12  0.17120000000E+03  0.17120000000E+03 0.  0.
         13    1    1    2    0    0  0.80251510086E+01  0.18892483144E+02  0.41198876651E+02  0.46029203441E+02  0.10566000000E+00 0.  1.
        994    1    1    2    0    0 -0.55560046525E+01 -0.23885974383E+02  0.67548364443E+01  0.17307939443E+03  0.17120000000E+03 0.  0.
        998    1    1    2    0    0 -0.24691463561E+01  0.49934912388E+01  0.14520462832E+04  0.14520914021E+04  0.10000000000E+02 0.  1.
</event>
<event>
 5    1  0.1106231E-008  0.3921152E+03  0.7957747E-01  0.3400045E+00
         13   -1    0    0    0    0  0.00000000000E+00  0.00000000000E+00  0.14999999963E+04  0.15000000000E+04  0.10566000000E+00 0. -1.
        994   -1    0    0    0    0 -0.00000000000E+00 -0.00000000000E+00  0.11368683772E-12  0.17120000000E+03  0.17120000000E+03 0.  0.
         13    1    1    2    0    0  0.38032438728E+01 -0.12080575925E+03  0.53183542498E+03  0.54539657733E+03  0.10566000000E+00 0. -1.
        994    1    1    2    0    0 -0.38816299245E+02 -0.14154760819E+01  0.28891944187E+02  0.17791259961E+03  0.17120000000E+03 0.  0.
        998    1    1    2    0    0  0.35013055372E+02  0.12222123533E+03  0.93927262711E+03  0.94789082306E+03  0.10000000000E+02 0. -1.
</event>
<event>
 5    1  0.1106231E-008  0.3728959E+03  0.7957747E-01  0.3482687E+00
         13   -1    0    0    0    0  0.00000000000E+00  0.00000000000E+00  0.14999999963E+04  0.15000000000E+04  0.10566000000E+00 0.  1.
        994   -1    0    0    0    0 -0.00000000000E+00 -0.00000000000E+00  0.11368683772E-12  0.17120000000E+03  0.17120000000E+03 0.  0.
         13    1    1    2    0    0  0.18478968217E+02 -0.16544939222E+02  0.18851704240E+02  0.31154537342E+02  0.10566000000E+00 0.  1.
        994    1    1    2    0    0 -0.29873201641E+02  0.11001262955E+02  0.16065965739E+02  0.17487421542E+03  0.17120000000E+03 0.  0.
        998    1    1    2    0    0  0.11394233424E+02  0.55436762667E+01  0.14650823263E+04  0.14651712472E+04  0.10000000000E+02 0.  1.
</event>
<event>
 5    1  0.1106231E-008  0.3691904E+03  0.7957747E-01  0.3499620E+00
         13   -1    0    0    0    0  0.00000000000E+00  0.00000000000E+00  0.14999999963E+04  0.15000000000E+04  0.10566000000E+00 0. -1.
        994   -1    0    0    0    0 -0.00000000000E+00 -0.00000000000E+00  0.11368683772E-12  0.17120000000E+03  0.17120000000E+03 0.  0.
         13    1    1    2    0    0 -0.58555527667E+02 -0.76178115432E+01  0.18314586421E+03  0.19242972643E+03  0.10566000000E+00 0. -1.
        994    1    1    2    0    0  0.28987175823E+02 -0.63435072435E+01  0.12751885316E+02  0.17421982386E+03  0.17120000000E+03 0.  0.
        998    1    1    2    0    0  0.29568351844E+02  0.13961318787E+02  0.13041022468E+04  0.13045504497E+04  0.10000000000E+02 0. -1.
</event>
<event>
 5    1  0.1106231E-008  0.3731617E+03  0.7957747E-01  0.3481485E+00
         13   -1    0    0    0    0  0.00000000000E+00  0.00000000000E+00  0.14999999963E+04  0.15000000000E+04  0.10566000000E+00 0.  1.
        994   -1    0    0    0    0 -0.00000000000E+00 -0.00000000000E+00  0.11368683772E-12  0.17120000000E+03  0.17120000000E+03 0.  0.
         13    1    1    2    0    0  0.10333345281E+02  0.14844248031E+02  0.17765605228E+02  0.25352664898E+02  0.10566000000E+00 0.  1.
        994    1    1    2    0    0 -0.13690226688E+02 -0.17313116439E+02  0.92938438053E+01  0.17286694837E+03  0.17120000000E+03 0.  0.
        998    1    1    2    0    0  0.33568814072E+01  0.24688684077E+01  0.14729405472E+04  0.14729803867E+04  0.10000000000E+02 0.  1.
</event>
<event>
 5    1  0.1106231E-008  0.3743551E+03  0.7957747E-01  0.3476112E+00
         13   -1    0    0    0    0  0.00000000000E+00  0.00000000000E+00  0.14999999963E+04  0.15000000000E+04  0.10566000000E+00 0. -1.
        994   -1    0    0    0    0 -0.00000000000E+00 -0.00000000000E+00  0.11368683772E-12  0.17120000000E+03  0.17120000000E+03 0.  0.
         13    1    1    2    0    0  0.34720558508E+02  0.17327343541E+02  0.11090819184E+03  0.11750060510E+03  0.10566000000E+00 0. -1.
        994    1    1    2    0    0 -0.16244495015E+02  0.77558616299E+01  0.81148855262E+01  0.17233493080E+03  0.17120000000E+03 0.  0.
        998    1    1    2    0    0 -0.18476063493E+02 -0.25083205171E+02  0.13809769189E+04  0.13813644641E+04  0.10000000000E+02 0. -1.
</event>
<event>
 5    1  0.1106231E-008  0.3762145E+03  0.7957747E-01  0.3467809E+00
         13   -1    0    0    0    0  0.00000000000E+00  0.00000000000E+00  0.14999999963E+04  0.15000000000E+04  0.10566000000E+00 0.  1.
        994   -1    0    0    0    0 -0.00000000000E+00 -0.00000000000E+00  0.11368683772E-12  0.17120000000E+03  0.17120000000E+03 0.  0.
         13    1    1    2    0    0 -0.69350989079E+02 -0.98578606035E+01  0.17078324222E+03  0.18459053088E+03  0.10566000000E+00 0.  1.
        994    1    1    2    0    0  0.42221498410E+02 -0.20695124978E+02  0.22207339482E+02  0.17892330495E+03  0.17120000000E+03 0.  0.
        998    1    1    2    0    0  0.27129490668E+02  0.30552985582E+02  0.13070094146E+04  0.13076861642E+04  0.10000000000E+02 0.  1.
</event>
<event>
 5    1  0.1106231E-008  0.3832474E+03  0.7957747E-01  0.3437140E+00
         13   -1    0    0    0    0  0.00000000000E+00  0.00000000000E+00  0.14999999963E+04  0.15000000000E+04  0.10566000000E+00 0. -1.
        994   -1    0    0    0    0 -0.00000000000E+00 -0.00000000000E+00  0.11368683772E-12  0.17120000000E+03  0.17120000000E+03 0.  0.
         13    1    1    2    0    0  0.18952959055E+02  0.22204147890E+02  0.15922588725E+02  0.33253253017E+02  0.10566000000E+00 0. -1.
        994    1    1    2    0    0 -0.14545630486E+02 -0.18590336089E+02  0.20168379680E+02  0.17399246967E+03  0.17120000000E+03 0.  0.
        998    1    1    2    0    0 -0.44073285693E+01 -0.36138118009E+01  0.14639090279E+04  0.14639542773E+04  0.10000000000E+02 0. -1.
</event>
<event>
 5    1  0.1106231E-008  0.2401882E+03  0.7957747E-01  0.4444183E+00
         13   -1    0    0    0    0  0.00000000000E+00  0.00000000000E+00  0.14999999963E+04  0.15000000000E+04  0.10566000000E+00 0. -1.
        994   -1    0    0    0    0 -0.00000000000E+00 -0.00000000000E+00  0.11368683772E-12  0.17120000000E+03  0.17120000000E+03 0.  0.
         13    1    1    2    0    0 -0.14159963224E+03  0.10781647312E+03  0.29998982169E+03  0.34881048150E+03  0.10566000000E+00 0. -1.
        994    1    1    2    0    0  0.54860171272E+02 -0.12011426238E+03  0.13750240557E+03  0.25622924493E+03  0.17120000000E+03 0.  0.
        998    1    1    2    0    0  0.86739460963E+02  0.12297789264E+02  0.10625077690E+04  0.10661602736E+04  0.10000000000E+02 0. -1.
</event>
<event>
 5    1  0.1106231E-008  0.3793648E+03  0.7957747E-01  0.3453929E+00
         13   -1    0    0    0    0  0.00000000000E+00  0.00000000000E+00  0.14999999963E+04  0.15000000000E+04  0.10566000000E+00 0. -1.
        994   -1    0    0    0    0 -0.00000000000E+00 -0.00000000000E+00  0.11368683772E-12  0.17120000000E+03  0.17120000000E+03 0.  0.
         13    1    1    2    0    0  0.42091654227E+02  0.16119123326E+02  0.20421572729E+03  0.20913060017E+03  0.10566000000E+00 0. -1.
        994    1    1    2    0    0 -0.35508325106E+02 -0.20767198313E+02  0.10143551766E+02  0.17636453532E+03  0.17120000000E+03 0.  0.
        998    1    1    2    0    0 -0.65833291209E+01  0.46480749870E+01  0.12856407172E+04  0.12857048645E+04  0.10000000000E+02 0. -1.
</event>
<event>
 5    1  0.1106231E-008  0.3792276E+03  0.7957747E-01  0.3454528E+00
         13   -1    0    0    0    0  0.00000000000E+00  0.00000000000E+00  0.14999999963E+04  0.15000000000E+04  0.10566000000E+00 0.  1.
        994   -1    0    0    0    0 -0.00000000000E+00 -0.00000000000E+00  0.11368683772E-12  0.17120000000E+03  0.17120000000E+03 0.  0.
         13    1    1    2    0    0 -0.75282196769E+00  0.23138012779E+02  0.59704880019E+02  0.64036069823E+02  0.10566000000E+00 0.  1.
        994    1    1    2    0    0  0.14984415225E+01 -0.54749180505E+01  0.46315330856E+01  0.17135667817E+03  0.17120000000E+03 0.  0.
        998    1    1    2    0    0 -0.74561955485E+00 -0.17663094729E+02  0.14356635832E+04  0.14358072520E+04  0.10000000000E+02 0.  1.
</event>
<event>
 5    1  0.1106231E-008  0.3813834E+03  0.7957747E-01  0.3445157E+00
         13   -1    0    0    0    0  0.00000000000E+00  0.00000000000E+00  0.14999999963E+04  0.15000000000E+04  0.10566000000E+00 0. -1.
        994   -1    0    0    0    0 -0.00000000000E+00 -0.00000000000E+00  0.11368683772E-12  0.17120000000E+03  0.17120000000E+03 0.  0.
         13    1    1    2    0    0  0.29777374554E+02 -0.17848591620E+02  0.19129741773E+03  0.19442216297E+03  0.10566000000E+00 0. -1.
        994    1    1    2    0    0 -0.27348176336E+01  0.12216138706E+02  0.39581335308E+01  0.17170270846E+03  0.17120000000E+03 0.  0.
        998    1    1    2    0    0 -0.27042556921E+02  0.56324529137E+01  0.13047444450E+04  0.13050751286E+04  0.10000000000E+02 0. -1.
</event>
<event>
 5    1  0.1106231E-008  0.3841143E+03  0.7957747E-01  0.3433437E+00
         13   -1    0    0    0    0  0.00000000000E+00  0.00000000000E+00  0.14999999963E+04  0.15000000000E+04  0.10566000000E+00 0. -1.
        994   -1    0    0    0    0 -0.00000000000E+00 -0.00000000000E+00  0.11368683772E-12  0.17120000000E+03  0.17120000000E+03 0.  0.
         13    1    1    2    0    0 -0.31566108274E+01  0.17945282759E+02  0.81343349872E+02  0.83359157251E+02  0.10566000000E+00 0. -1.
        994    1    1    2    0    0  0.75304913682E+00 -0.86624366709E+01  0.23199284631E+01  0.17143636417E+03  0.17120000000E+03 0.  0.
        998    1    1    2    0    0  0.24035616906E+01 -0.92828460876E+01  0.14163367179E+04  0.14164044786E+04  0.10000000000E+02 0. -1.
</event>
<event>
 5    1  0.1106231E-008  0.3849167E+03  0.7957747E-01  0.3430025E+00
         13   -1    0    0    0    0  0.00000000000E+00  0.00000000000E+00  0.14999999963E+04  0.15000000000E+04  0.10566000000E+00 0.  1.
        994   -1    0    0    0    0 -0.00000000000E+00 -0.00000000000E+00  0.11368683772E-12  0.17120000000E+03  0.17120000000E+03 0.  0.
         13    1    1    2    0    0 -0.92308722856E+01  0.53149523987E+01  0.32913410282E+02  0.34594240310E+02  0.10566000000E+00 0.  1.
        994    1    1    2    0    0  0.14228721822E+02 -0.42872894892E+00  0.23383551347E+01  0.17180671767E+03  0.17120000000E+03 0.  0.
        998    1    1    2    0    0 -0.49978495363E+01 -0.48862234498E+01  0.14647482309E+04  0.14647990420E+04  0.10000000000E+02 0.  1.
</event>
<event>
 5    1  0.1106231E-008  0.3848663E+03  0.7957747E-01  0.3430239E+00
         13   -1    0    0    0    0  0.00000000000E+00  0.00000000000E+00  0.14999999963E+04  0.15000000000E+04  0.10566000000E+00 0. -1.
        994   -1    0    0    0    0 -0.00000000000E+00 -0.00000000000E+00  0.11368683772E-12  0.17120000000E+03  0.17120000000E+03 0.  0.
         13    1    1    2    0    0  0.12056562262E+02  0.86408745403E+01  0.73060678461E+02  0.74551319959E+02  0.10566000000E+00 0. -1.
        994    1    1    2    0    0  0.21497349124E+01  0.10774017675E+02  0.20937320368E+01  0.17156492803E+03  0.17120000000E+03 0.  0.
        998    1    1    2    0    0 -0.14206297174E+02 -0.19414892215E+02  0.14248455858E+04  0.14250837520E+04  0.10000000000E+02 0. -1.
</event>
<event>
 5    1  0.1106231E-008  0.3849365E+03  0.7957747E-01  0.3429942E+00
         13   -1    0    0    0    0  0.00000000000E+00  0.00000000000E+00  0.14999999963E+04  0.15000000000E+04  0.10566000000E+00 0. -1.
        994   -1    0    0    0    0 -0.00000000000E+00 -0.00000000000E+00  0.11368683772E-12  0.17120000000E+03  0.17120000000E+03 0.  0.
         13    1    1    2    0    0  0.29441426709E+01 -0.17698757384E+02  0.93967757489E+02  0.95665378275E+02  0.10566000000E+00 0. -1.
        994    1    1    2    0    0 -0.16097072746E+01  0.15509504718E+02  0.24618348679E+01  0.17192625316E+03  0.17120000000E+03 0.  0.
        998    1    1    2    0    0 -0.13344353963E+01  0.21892526661E+01  0.14035704039E+04  0.14036083686E+04  0.10000000000E+02 0. -1.
</event>
<event>
 5    1  0.1106231E-008  0.3826058E+03  0.7957747E-01  0.3439890E+00
         13   -1    0    0    0    0  0.00000000000E+00  0.00000000000E+00  0.14999999963E+04  0.15000000000E+04  0.10566000000E+00 0.  1.
        994   -1    0    0    0    0 -0.00000000000E+00 -0.00000000000E+00  0.11368683772E-12  0.17120000000E+03  0.17120000000E+03 0.  0.
         13    1    1    2    0    0  0.17584945127E+02 -0.25313123866E+01  0.55207981145E+02  0.57996294568E+02  0.10566000000E+00 0.  1.
        994    1    1    2    0    0 -0.10175320791E+02  0.51527481510E+01  0.32547979276E+01  0.17161037753E+03  0.17120000000E+03 0.  0.
        998    1    1    2    0    0 -0.74096243354E+01 -0.26214357643E+01  0.14415372172E+04  0.14415933279E+04  0.10000000000E+02 0.  1.
</event>
<event>
 5    1  0.1106231E-008  0.3817319E+03  0.7957747E-01  0.3443652E+00
         13   -1    0    0    0    0  0.00000000000E+00  0.00000000000E+00  0.14999999963E+04  0.15000000000E+04  0.10566000000E+00 0.  1.
        994   -1    0    0    0    0 -0.00000000000E+00 -0.00000000000E+00  0.11368683772E-12  0.17120000000E+03  0.17120000000E+03 0.  0.
         13    1    1    2    0    0 -0.45421644019E+02  0.56380958594E+01  0.53471234102E+02  0.70385352956E+02  0.10566000000E+00 0.  1.
        994    1    1    2    0    0  0.38930986084E+02  0.13047519268E+01  0.22835218733E+02  0.17705426081E+03  0.17120000000E+03 0.  0.
        998    1    1    2    0    0  0.64906579356E+01 -0.69428477861E+01  0.14236935434E+04  0.14237603862E+04  0.10000000000E+02 0.  1.
</event>
<event>
 5    1  0.1106231E-008  0.3868551E+03  0.7957747E-01  0.3421842E+00
         13   -1    0    0    0    0  0.00000000000E+00  0.00000000000E+00  0.14999999963E+04  0.15000000000E+04  0.10566000000E+00 0. -1.
        994   -1    0    0    0    0 -0.00000000000E+00 -0.00000000000E+00  0.11368683772E-12  0.17120000000E+03  0.17120000000E+03 0.  0.
         13    1    1    2    0    0 -0.38362470586E+02 -0.10879990836E+03  0.28367266725E+03  0.30623404859E+03  0.10566000000E+00 0. -1.
        994    1    1    2    0    0  0.45890932326E+02  0.87975508462E+02  0.57746602946E+02  0.20613048758E+03  0.17120000000E+03 0.  0.
        998    1    1    2    0    0 -0.75284617394E+01  0.20824399901E+02  0.11585807261E+04  0.11588354638E+04  0.10000000000E+02 0. -1.
</event>
<event>
 5    1  0.1235728E-008  0.3854034E+03  0.7957747E-01  0.3427963E+00
         13   -1    0    0    0    0  0.00000000000E+00  0.00000000000E+00  0.14999999963E+04  0.15000000000E+04  0.10566000000E+00 0.  1.
        994   -1    0    0    0    0 -0.00000000000E+00 -0.00000000000E+00  0.11368683772E-12  0.17120000000E+03  0.17120000000E+03 0.  0.
         13    1    1    2    0    0 -0.45527868755E+01 -0.93527410833E+01  0.37904976746E+02  0.39306488780E+02  0.10566000000E+00 0.  1.
        994    1    1    2    0    0  0.53842504865E+00  0.74060276445E+01  0.16110923502E+01  0.17136853493E+03  0.17120000000E+03 0.  0.
        998    1    1    2    0    0  0.40143618269E+01  0.19467134388E+01  0.14604839272E+04  0.14605249763E+04  0.10000000000E+02 0.  1.
</event>
<event>
 5    1  0.1106231E-008  0.3750914E+03  0.7957747E-01  0.3472814E+00
         13   -1    0    0    0    0  0.00000000000E+00  0.00000000000E+00  0.14999999963E+04  0.15000000000E+04  0.10566000000E+00 0. -1.
        994   -1    0    0    0    0 -0.00000000000E+00 -0.00000000000E+00  0.11368683772E-12  0.17120000000E+03  0.17120000000E+03 0.  0.
         13    1    1    2    0    0  0.12625328069E+03 -0.10154264934E+03  0.93897374451E+03  0.95284967575E+03  0.10566000000E+00 0. -1.
        994    1    1    2    0    0 -0.11875237065E+03  0.85039913516E+02  0.82974045083E+02  0.23985004604E+03  0.17120000000E+03 0.  0.
        998    1    1    2    0    0 -0.75009100425E+01  0.16502735825E+02  0.47805220668E+03  0.47850027822E+03  0.10000000000E+02 0. -1.
</event>
<event>
 5    1  0.1106231E-008  0.3833139E+03  0.7957747E-01  0.3436855E+00
         13   -1    0    0    0    0  0.00000000000E+00  0.00000000000E+00  0.14999999963E+04  0.15000000000E+04  0.10566000000E+00 0.  1.
        994   -1    0    0    0    0 -0.00000000000E+00 -0.00000000000E+00  0.11368683772E-12  0.17120000000E+03  0.17120000000E+03 0.  0.
         13    1    1    2    0    0  0.13763096400E+02  0.17752965637E+02  0.95320940111E+02  0.97932034591E+02  0.10566000000E+00 0.  1.
        994    1    1    2    0    0 -0.26998730502E+02 -0.98223706491E+01  0.52037747772E+01  0.17367190241E+03  0.17120000000E+03 0.  0.
        998    1    1    2    0    0  0.13235634103E+02 -0.79305949876E+01  0.13994752814E+04  0.13995960630E+04  0.10000000000E+02 0.  1.
</event>
<event>
 5    1  0.1106231E-008  0.3697069E+03  0.7957747E-01  0.3497239E+00
         13   -1    0    0    0    0  0.00000000000E+00  0.00000000000E+00  0.14999999963E+04  0.15000000000E+04  0.10566000000E+00 0.  1.
        994   -1    0    0    0    0 -0.00000000000E+00 -0.00000000000E+00  0.11368683772E-12  0.17120000000E+03  0.17120000000E+03 0.  0.
         13    1    1    2    0    0 -0.23525249663E+02  0.42895888924E+02  0.10878855838E+03  0.11928309292E+03  0.10566000000E+00 0.  1.
        994    1    1    2    0    0 -0.35425572426E+02 -0.50639756324E+02  0.24244286119E+02  0.18362075458E+03  0.17120000000E+03 0.  0.
        998    1    1    2    0    0  0.58950822089E+02  0.77438674006E+01  0.13669671518E+04  0.13682961525E+04  0.10000000000E+02 0.  1.
</event>
<event>
 5    1  0.1106231E-008  0.3742701E+03  0.7957747E-01  0.3476494E+00
         13   -1    0    0    0    0  0.00000000000E+00  0.00000000000E+00  0.14999999963E+04  0.15000000000E+04  0.10566000000E+00 0.  1.
        994   -1    0    0    0    0 -0.00000000000E+00 -0.00000000000E+00  0.11368683772E-12  0.17120000000E+03  0.17120000000E+03 0.  0.
         13    1    1    2    0    0 -0.14514008620E+03 -0.47222131584E+02  0.55211390209E+03  0.57282226421E+03  0.10566000000E+00 0.  1.
        994    1    1    2    0    0  0.13585904886E+03  0.51631357327E+02  0.92508684151E+02  0.24288016564E+03  0.17120000000E+03 0.  0.
        998    1    1    2    0    0  0.92810373401E+01 -0.44092257432E+01  0.85537741004E+03  0.85549757015E+03  0.10000000000E+02 0.  0.
</event>
<event>
 5    1  0.1106231E-008  0.3850791E+03  0.7957747E-01  0.3429337E+00
         13   -1    0    0    0    0  0.00000000000E+00  0.00000000000E+00  0.14999999963E+04  0.15000000000E+04  0.10566000000E+00 0. -1.
        994   -1    0    0    0    0 -0.00000000000E+00 -0.00000000000E+00  0.11368683772E-12  0.17120000000E+03  0.17120000000E+03 0.  0.
         13    1    1    2    0    0 -0.58454212024E+01 -0.13202334549E+02  0.67424054453E+02  0.68952772747E+02  0.10566000000E+00 0. -1.
        994    1    1    2    0    0  0.13436682728E+02  0.48129225111E-01  0.21846780269E+01  0.17174038424E+03  0.17120000000E+03 0.  0.
        998    1    1    2    0    0 -0.75912615251E+01  0.13154205324E+02  0.14303912638E+04  0.14305068430E+04  0.10000000000E+02 0. -1.
</event>
<event>
 5    1  0.1106231E-008  0.3018642E+03  0.7957747E-01  0.3882800E+00
         13   -1    0    0    0    0  0.00000000000E+00  0.00000000000E+00  0.14999999963E+04  0.15000000000E+04  0.10566000000E+00 0. -1.
        994   -1    0    0    0    0 -0.00000000000E+00 -0.00000000000E+00  0.11368683772E-12  0.17120000000E+03  0.17120000000E+03 0.  0.
         13    1    1    2    0    0  0.15515875357E+03  0.10517496209E+03  0.81523896398E+03  0.83651096288E+03  0.10566000000E+00 0. -1.
        994    1    1    2    0    0 -0.63824644996E+02 -0.65636288124E+02  0.61788676135E+02  0.20373754717E+03  0.17120000000E+03 0.  0.
        998    1    1    2    0    0 -0.91334108578E+02 -0.39538673970E+02  0.62297235616E+03  0.63095148995E+03  0.10000000000E+02 0. -1.
</event>
<event>
 5    1  0.1106231E-008  0.3822225E+03  0.7957747E-01  0.3441538E+00
         13   -1    0    0    0    0  0.00000000000E+00  0.00000000000E+00  0.14999999963E+04  0.15000000000E+04  0.10566000000E+00 0.  1.
        994   -1    0    0    0    0 -0.00000000000E+00 -0.00000000000E+00  0.11368683772E-12  0.17120000000E+03  0.17120000000E+03 0.  0.
         13    1    1    2    0    0 -0.28728660660E+01 -0.15001515424E+02  0.34762924905E+02  0.37970658889E+02  0.10566000000E+00 0.  1.
        994    1    1    2    0    0  0.14924236973E+01  0.32313837896E+02  0.64957386390E+01  0.17435035437E+03  0.17120000000E+03 0.  0.
        998    1    1    2    0    0  0.13804423688E+01 -0.17312322472E+02  0.14587413327E+04  0.14588789867E+04  0.10000000000E+02 0.  1.
</event>
<event>
 5    1  0.1106231E-008  0.3822284E+03  0.7957747E-01  0.3441512E+00
         13   -1    0    0    0    0  0.00000000000E+00  0.00000000000E+00  0.14999999963E+04  0.15000000000E+04  0.10566000000E+00 0.  1.
        994   -1    0    0    0    0 -0.00000000000E+00 -0.00000000000E+00  0.11368683772E-12  0.17120000000E+03  0.17120000000E+03 0.  0.
         13    1    1    2    0    0 -0.20425764622E+02  0.66133372854E+01  0.79402326179E+02  0.82253806338E+02  0.10566000000E+00 0.  1.
        994    1    1    2    0    0  0.10284457541E+01 -0.10732531394E+02  0.33983016858E+01  0.17157282240E+03  0.17120000000E+03 0.  0.
        998    1    1    2    0    0  0.19397318868E+02  0.41191941084E+01  0.14171993684E+04  0.14173733713E+04  0.10000000000E+02 0.  1.
</event>
<event>
 5    1  0.1106231E-008  0.3785504E+03  0.7957747E-01  0.3457495E+00
         13   -1    0    0    0    0  0.00000000000E+00  0.00000000000E+00  0.14999999963E+04  0.15000000000E+04  0.10566000000E+00 0.  1.
        994   -1    0    0    0    0 -0.00000000000E+00 -0.00000000000E+00  0.11368683772E-12  0.17120000000E+03  0.17120000000E+03 0.  0.
         13    1    1    2    0    0 -0.12801250666E+02 -0.33484528065E+02  0.12334302909E+03  0.12844687473E+03  0.10566000000E+00 0.  1.
        994    1    1    2    0    0 -0.18328942549E+01  0.34920780334E+02  0.89851336200E+01  0.17496569100E+03  0.17120000000E+03 0.  0.
        998    1    1    2    0    0  0.14634144921E+02 -0.14362522683E+01  0.13676718336E+04  0.13677874343E+04  0.10000000000E+02 0.  1.
</event>
<event>
 5    1  0.1209079E-008  0.3857234E+03  0.7957747E-01  0.3426610E+00
         13   -1    0    0    0    0  0.00000000000E+00  0.00000000000E+00  0.14999999963E+04  0.15000000000E+04  0.10566000000E+00 0.  1.
        994   -1    0    0    0    0 -0.00000000000E+00 -0.00000000000E+00  0.11368683772E-12  0.17120000000E+03  0.17120000000E+03 0.  0.
         13    1    1    2    0    0 -0.21528892300E+01 -0.11204694077E+02  0.50147579802E+02  0.51429281790E+02  0.10566000000E+00 0.  1.
        994    1    1    2    0    0  0.26778482513E+01  0.11868562173E+02  0.17572657115E+01  0.17164079242E+03  0.17120000000E+03 0.  0.
        998    1    1    2    0    0 -0.52495902130E+00 -0.66386809578E+00  0.14480951508E+04  0.14481299258E+04  0.10000000000E+02 0.  1.
</event>
<event>
 5    1  0.1106231E-008  0.3768990E+03  0.7957747E-01  0.3464773E+00
         13   -1    0    0    0    0  0.00000000000E+00  0.00000000000E+00  0.14999999963E+04  0.15000000000E+04  0.10566000000E+00 0. -1.
        994   -1    0    0    0    0 -0.00000000000E+00 -0.00000000000E+00  0.11368683772E-12  0.17120000000E+03  0.17120000000E+03 0.  0.
         13    1    1    2    0    0  0.36052580831E+02 -0.33179000363E+02  0.18526369217E+03  0.19163319506E+03  0.10566000000E+00 0. -1.
        994    1    1    2    0    0 -0.29015699170E+02  0.39282935279E+02  0.13805232625E+02  0.17856395003E+03  0.17120000000E+03 0.  0.
        998    1    1    2    0    0 -0.70368816616E+01 -0.61039349159E+01  0.13009310715E+04  0.13010028549E+04  0.10000000000E+02 0. -1.
</event>
<event>
 5    1  0.1106231E-008  0.3764029E+03  0.7957747E-01  0.3466972E+00
         13   -1    0    0    0    0  0.00000000000E+00  0.00000000000E+00  0.14999999963E+04  0.15000000000E+04  0.10566000000E+00 0. -1.
        994   -1    0    0    0    0 -0.00000000000E+00 -0.00000000000E+00  0.11368683772E-12  0.17120000000E+03  0.17120000000E+03 0.  0.
         13    1    1    2    0    0  0.17355602269E+02  0.71534579503E+01  0.52822600795E+01  0.19501341655E+02  0.10566000000E+00 0. -1.
        994    1    1    2    0    0 -0.48928785682E+02  0.79886342712E+01  0.23208029831E+02  0.17973841268E+03  0.17120000000E+03 0.  0.
        998    1    1    2    0    0  0.31573183412E+02 -0.15142092222E+02  0.14715097064E+04  0.14719602457E+04  0.10000000000E+02 0. -1.
</event>
<event>
 5    1  0.1106231E-008  0.3815928E+03  0.7957747E-01  0.3444252E+00
         13   -1    0    0    0    0  0.00000000000E+00  0.00000000000E+00  0.14999999963E+04  0.15000000000E+04  0.10566000000E+00 0. -1.
        994   -1    0    0    0    0 -0.00000000000E+00 -0.00000000000E+00  0.11368683772E-12  0.17120000000E+03  0.17120000000E+03 0.  0.
         13    1    1    2    0    0 -0.14587046635E+03  0.14761705403E+03  0.12176534964E+04  0.12352121421E+04  0.10566000000E+00 0. -1.
        994    1    1    2    0    0  0.13337899484E+03 -0.15080435101E+03  0.15249727560E+03  0.30511762914E+03  0.17120000000E+03 0.  0.
        998    1    1    2    0    0  0.12491471508E+02  0.31872969731E+01  0.12984922431E+03  0.13087022877E+03  0.10000000000E+02 0.  1.
</event>
<event>
 5    1  0.1106231E-008  0.3798906E+03  0.7957747E-01  0.3451635E+00
         13   -1    0    0    0    0  0.00000000000E+00  0.00000000000E+00  0.14999999963E+04  0.15000000000E+04  0.10566000000E+00 0.  1.
        994   -1    0    0    0    0 -0.00000000000E+00 -0.00000000000E+00  0.11368683772E-12  0.17120000000E+03  0.17120000000E+03 0.  0.
         13    1    1    2    0    0  0.12294121044E+02  0.80299138142E+00  0.16871956218E+02  0.20891727503E+02  0.10566000000E+00 0.  1.
        994    1    1    2    0    0  0.57489730082E+01 -0.23839473519E+02  0.62020490543E+01  0.17305859297E+03  0.17120000000E+03 0.  0.
        998    1    1    2    0    0 -0.18043094052E+02  0.23036482138E+02  0.14769259910E+04  0.14772496795E+04  0.10000000000E+02 0.  1.
</event>
<event>
 5    1  0.1106231E-008  0.3835311E+03  0.7957747E-01  0.3435926E+00
         13   -1    0    0    0    0  0.00000000000E+00  0.00000000000E+00  0.14999999963E+04  0.15000000000E+04  0.10566000000E+00 0. -1.
        994   -1    0    0    0    0 -0.00000000000E+00 -0.00000000000E+00  0.11368683772E-12  0.17120000000E+03  0.17120000000E+03 0.  0.
         13    1    1    2    0    0  0.30919814754E+02 -0.45053229470E+01  0.17862685111E+03  0.18133917387E+03  0.10566000000E+00 0. -1.
        994    1    1    2    0    0 -0.34546561702E+02  0.40313776446E+01  0.63688100866E+01  0.17481338242E+03  0.17120000000E+03 0.  0.
        998    1    1    2    0    0  0.36267469478E+01  0.47394530243E+00  0.13150043351E+04  0.13150474437E+04  0.10000000000E+02 0. -1.
</event>
<event>
 5    1  0.1106231E-008  0.3741071E+03  0.7957747E-01  0.3477226E+00
         13   -1    0    0    0    0  0.00000000000E+00  0.00000000000E+00  0.14999999963E+04  0.15000000000E+04  0.10566000000E+00 0. -1.
        994   -1    0    0    0    0 -0.00000000000E+00 -0.00000000000E+00  0.11368683772E-12  0.17120000000E+03  0.17120000000E+03 0.  0.
         13    1    1    2    0    0  0.45285003547E+02 -0.45661726482E+02  0.32796001037E+03  0.33420578149E+03  0.10566000000E+00 0. -1.
        994    1    1    2    0    0 -0.41100421409E+01  0.24638181989E+02  0.92681559820E+01  0.17326070291E+03  0.17120000000E+03 0.  0.
        998    1    1    2    0    0 -0.41174961406E+02  0.21023544493E+02  0.11627718299E+04  0.11637335156E+04  0.10000000000E+02 0. -1.
</event>
<event>
 5    1  0.1106231E-008  0.3834788E+03  0.7957747E-01  0.3436150E+00
         13   -1    0    0    0    0  0.00000000000E+00  0.00000000000E+00  0.14999999963E+04  0.15000000000E+04  0.10566000000E+00 0.  1.
        994   -1    0    0    0    0 -0.00000000000E+00 -0.00000000000E+00  0.11368683772E-12  0.17120000000E+03  0.17120000000E+03 0.  0.
         13    1    1    2    0    0 -0.15464262259E+02  0.10353903907E+02  0.69160681121E+02  0.71620930673E+02  0.10566000000E+00 0.  1.
        994    1    1    2    0    0  0.11184201391E+02 -0.17905880379E+02  0.38617095124E+01  0.17254002351E+03  0.17120000000E+03 0.  0.
        998    1    1    2    0    0  0.42800608680E+01  0.75519764722E+01  0.14269776056E+04  0.14270390458E+04  0.10000000000E+02 0.  1.
</event>
<event>
 5    1  0.1106231E-008  0.3827728E+03  0.7957747E-01  0.3439173E+00
         13   -1    0    0    0    0  0.00000000000E+00  0.00000000000E+00  0.14999999963E+04  0.15000000000E+04  0.10566000000E+00 0. -1.
        994   -1    0    0    0    0 -0.00000000000E+00 -0.00000000000E+00  0.11368683772E-12  0.17120000000E+03  0.17120000000E+03 0.  0.
         13    1    1    2    0    0 -0.27203456376E+02  0.25958082294E+01  0.12303016104E+03  0.12602856005E+03  0.10566000000E+00 0. -1.
        994    1    1    2    0    0  0.29683621869E+02 -0.14128819077E+02  0.63282571916E+01  0.17444262029E+03  0.17120000000E+03 0.  0.
        998    1    1    2    0    0 -0.24801654931E+01  0.11533010848E+02  0.13706415781E+04  0.13707288197E+04  0.10000000000E+02 0. -1.
</event>
<event>
 5    1  0.1106231E-008  0.3689855E+03  0.7957747E-01  0.3500567E+00
         13   -1    0    0    0    0  0.00000000000E+00  0.00000000000E+00  0.14999999963E+04  0.15000000000E+04  0.10566000000E+00 0.  1.
        994   -1    0    0    0    0 -0.00000000000E+00 -0.00000000000E+00  0.11368683772E-12  0.17120000000E+03  0.17120000000E+03 0.  0.
         13    1    1    2    0    0  0.72387165006E+02 -0.17967096947E+01  0.25168863421E+03  0.26189751732E+03  0.10566000000E+00 0.  1.
        994    1    1    2    0    0 -0.50677563447E+02  0.30976416347E+01  0.18798665627E+02  0.17955678948E+03  0.17120000000E+03 0.  0.
        998    1    1    2    0    0 -0.21709601559E+02 -0.13009319401E+01  0.12295126964E+04  0.12297456932E+04  0.10000000000E+02 0. -1.
</event>
<event>
 5    1  0.1106231E-008  0.3713504E+03  0.7957747E-01  0.3489708E+00
         13   -1    0    0    0    0  0.00000000000E+00  0.00000000000E+00  0.14999999963E+04  0.15000000000E+04  0.10566000000E+00 0.  1.
        994   -1    0    0    0    0 -0.00000000000E+00 -0.00000000000E+00  0.11368683772E-12  0.17120000000E+03  0.17120000000E+03 0.  0.
         13    1    1    2    0    0  0.32286663149E+02 -0.98699166674E+02  0.53273209278E+03  0.54275910675E+03  0.10566000000E+00 0.  1.
        994    1    1    2    0    0 -0.33844623666E+02  0.36134041137E+02  0.20314592654E+02  0.17936903343E+03  0.17120000000E+03 0.  0.
        998    1    1    2    0    0  0.15579605167E+01  0.62565125538E+02  0.94695331085E+03  0.94907185982E+03  0.10000000000E+02 0. -1.
</event>
<event>
 5    1  0.1106231E-008  0.3830388E+03  0.7957747E-01  0.3438033E+00
         13   -1    0    0    0    0  0.00000000000E+00  0.00000000000E+00  0.14999999963E+04  0.15000000000E+04  0.10566000000E+00 0.  1.
        994   -1    0    0    0    0 -0.00000000000E+00 -0.00000000000E+00  0.11368683772E-12  0.17120000000E+03  0.17120000000E+03 0.  0.
         13    1    1    2    0    0  0.18582320983E+02 -0.27683764607E+01  0.67639378882E+02  0.70200165960E+02  0.10566000000E+00 0.  1.
        994    1    1    2    0    0 -0.93062294638E+01  0.64419470613E+01  0.30310853191E+01  0.17160050136E+03  0.17120000000E+03 0.  0.
        998    1    1    2    0    0 -0.92760915192E+01 -0.36735706006E+01  0.14293295321E+04  0.14293993327E+04  0.10000000000E+02 0.  1.
</event>
<event>
 5    1  0.1106231E-008  0.3842370E+03  0.7957747E-01  0.3432914E+00
         13   -1    0    0    0    0  0.00000000000E+00  0.00000000000E+00  0.14999999963E+04  0.15000000000E+04  0.10566000000E+00 0.  1.
        994   -1    0    0    0    0 -0.00000000000E+00 -0.00000000000E+00  0.11368683772E-12  0.17120000000E+03  0.17120000000E+03 0.  0.
         13    1    1    2    0    0 -0.18142153991E+02  0.82183602576E+01  0.88873057083E+02  0.91077497968E+02  0.10566000000E+00 0.  1.
        994    1    1    2    0    0  0.25209380449E+02 -0.12276483326E+02  0.46057438221E+01  0.17354214987E+03  0.17120000000E+03 0.  0.
        998    1    1    2    0    0 -0.70672264584E+01  0.40581230683E+01  0.14065211954E+04  0.14065803522E+04  0.10000000000E+02 0.  1.
</event>
<event>
 5    1  0.1106231E-008  0.2789819E+03  0.7957747E-01  0.4058523E+00
         13   -1    0    0    0    0  0.00000000000E+00  0.00000000000E+00  0.14999999963E+04  0.15000000000E+04  0.10566000000E+00 0.  1.
        994   -1    0    0    0    0 -0.00000000000E+00 -0.00000000000E+00  0.11368683772E-12  0.17120000000E+03  0.17120000000E+03 0.  0.
         13    1    1    2    0    0  0.33393940423E+02  0.20866191077E+03  0.39367927262E+03  0.44680905219E+03  0.10566000000E+00 0.  1.
        994    1    1    2    0    0 -0.32689617771E+02 -0.20571952001E+03  0.24902437721E+03  0.36703094211E+03  0.17120000000E+03 0.  0.
        998    1    1    2    0    0 -0.70432265215E+00 -0.29423907600E+01  0.85729634645E+03  0.85736000570E+03  0.10000000000E+02 0.  0.
</event>
<event>
 5    1  0.1106231E-008  0.3790974E+03  0.7957747E-01  0.3455098E+00
         13   -1    0    0    0    0  0.00000000000E+00  0.00000000000E+00  0.14999999963E+04  0.15000000000E+04  0.10566000000E+00 0. -1.
        994   -1    0    0    0    0 -0.00000000000E+00 -0.00000000000E+00  0.11368683772E-12  0.17120000000E+03  0.17120000000E+03 0.  0.
         13    1    1    2    0    0 -0.25298542115E+02  0.11563624622E+02  0.79829685982E+02  0.84537113599E+02  0.10566000000E+00 0. -1.
        994    1    1    2    0    0  0.19911907482E+02 -0.16971809568E+02  0.68879969868E+01  0.17332458245E+03  0.17120000000E+03 0.  0.
        998    1    1    2    0    0  0.53866346324E+01  0.54081849463E+01  0.14132823133E+04  0.14133383039E+04  0.10000000000E+02 0. -1.
</event>
<event>
 5    1  0.1106231E-008  0.3775011E+03  0.7957747E-01  0.3462112E+00
         13   -1    0    0    0    0  0.00000000000E+00  0.00000000000E+00  0.14999999963E+04  0.15000000000E+04  0.10566000000E+00 0. -1.
        994   -1    0    0    0    0 -0.00000000000E+00 -0.00000000000E+00  0.11368683772E-12  0.17120000000E+03  0.17120000000E+03 0.  0.
         13    1    1    2    0    0 -0.27156721042E+02 -0.49983397380E+02  0.24302652955E+03  0.24959513766E+03  0.10566000000E+00 0. -1.
        994    1    1    2    0    0  0.30313766904E+02  0.53110794669E+02  0.18111021897E+02  0.18269408882E+03  0.17120000000E+03 0.  0.
        998    1    1    2    0    0 -0.31570458621E+01 -0.31273972890E+01  0.12388624448E+04  0.12389107735E+04  0.10000000000E+02 0. -1.
</event>
<event>
 5    1  0.1106231E-008  0.3836475E+03  0.7957747E-01  0.3435429E+00
         13   -1    0    0    0    0  0.00000000000E+00  0.00000000000E+00  0.14999999963E+04  0.15000000000E+04  0.10566000000E+00 0.  1.
        994   -1    0    0    0    0 -0.00000000000E+00 -0.00000000000E+00  0.11368683772E-12  0.17120000000E+03  0.17120000000E+03 0.  0.
         13    1    1    2    0    0  0.14166653134E+02  0.11308654052E+02  0.72610320069E+02  0.74838823228E+02  0.10566000000E+00 0.  1.
        994    1    1    2    0    0 -0.77347762579E+01 -0.19056793898E+01  0.25127840096E+01  0.17140365358E+03  0.17120000000E+03 0.  0.
        998    1    1    2    0    0 -0.64318768765E+01 -0.94029746625E+01  0.14248768922E+04  0.14249575232E+04  0.10000000000E+02 0.  1.
</event>
<event>
 5    1  0.1106231E-008  0.3684786E+03  0.7957747E-01  0.3502912E+00
         13   -1    0    0    0    0  0.00000000000E+00  0.00000000000E+00  0.14999999963E+04  0.15000000000E+04  0.10566000000E+00 0.  1.
        994   -1    0    0    0    0 -0.00000000000E+00 -0.00000000000E+00  0.11368683772E-12  0.17120000000E+03  0.17120000000E+03 0.  0.
         13    1    1    2    0    0 -0.77130226977E+02 -0.24754019147E+02  0.45754494426E+03  0.46466032815E+03  0.10566000000E+00 0.  1.
        994    1    1    2    0    0  0.12590071500E+02 -0.13603158654E+02  0.11261522284E+02  0.17256829868E+03  0.17120000000E+03 0.  0.
        998    1    1    2    0    0  0.64540155478E+02  0.38357177801E+02  0.10311935297E+04  0.10339713732E+04  0.10000000000E+02 0.  1.
</event>
<event>
 5    1  0.1106231E-008  0.4565659E+03  0.7957747E-01  0.3173298E+00
         13   -1    0    0    0    0  0.00000000000E+00  0.00000000000E+00  0.14999999963E+04  0.15000000000E+04  0.10566000000E+00 0.  1.
        994   -1    0    0    0    0 -0.00000000000E+00 -0.00000000000E+00  0.11368683772E-12  0.17120000000E+03  0.17120000000E+03 0.  0.
         13    1    1    2    0    0 -0.29490108311E+02  0.11660301326E+03  0.11080258114E+03  0.16353333710E+03  0.10566000000E+00 0.  1.
        994    1    1    2    0    0 -0.18291727470E+03 -0.19857817741E+02  0.28923799816E+03  0.38317244407E+03  0.17120000000E+03 0.  0.
        998    1    1    2    0    0  0.21240738301E+03 -0.96745195519E+02  0.10999594170E+04  0.11244942188E+04  0.10000000000E+02 0.  1.
</event>
<event>
 5    1  0.1106231E-008  0.3826036E+03  0.7957747E-01  0.3439900E+00
         13   -1    0    0    0    0  0.00000000000E+00  0.00000000000E+00  0.14999999963E+04  0.15000000000E+04  0.10566000000E+00 0. -1.
        994   -1    0    0    0    0 -0.00000000000E+00 -0.00000000000E+00  0.11368683772E-12  0.17120000000E+03  0.17120000000E+03 0.  0.
         13    1    1    2    0    0  0.14377228851E+02 -0.46630247397E+01  0.39079652850E+02  0.41900822666E+02  0.10566000000E+00 0. -1.
        994    1    1    2    0    0 -0.12418633728E+02  0.33100135397E+01  0.33722670403E+01  0.17171485328E+03  0.17120000000E+03 0.  0.
        998    1    1    2    0    0 -0.19585951225E+01  0.13530112000E+01  0.14575480764E+04  0.14575843241E+04  0.10000000000E+02 0. -1.
</event>
<event>
 5    1  0.1106231E-008  0.3829727E+03  0.7957747E-01  0.3438316E+00
         13   -1    0    0    0    0  0.00000000000E+00  0.00000000000E+00  0.14999999963E+04  0.15000000000E+04  0.10566000000E+00 0. -1.
        994   -1    0    0    0    0 -0.00000000000E+00 -0.00000000000E+00  0.11368683772E-12  0.17120000000E+03  0.17120000000E+03 0.  0.
         13    1    1    2    0    0  0.31474765652E+02  0.10787456596E+02  0.18315197860E+03  0.18614964013E+03  0.10566000000E+00 0. -1.
        994    1    1    2    0    0 -0.33185950093E+02 -0.11232920487E+02  0.67141294042E+01  0.17487711491E+03  0.17120000000E+03 0.  0.
        998    1    1    2    0    0  0.17111844413E+01  0.44546389016E+00  0.13101338883E+04  0.13101732450E+04  0.10000000000E+02 0. -1.
</event>
<event>
 5    1  0.1106231E-008  0.2748466E+03  0.7957747E-01  0.4093751E+00
         13   -1    0    0    0    0  0.00000000000E+00  0.00000000000E+00  0.14999999963E+04  0.15000000000E+04  0.10566000000E+00 0.  1.
        994   -1    0    0    0    0 -0.00000000000E+00 -0.00000000000E+00  0.11368683772E-12  0.17120000000E+03  0.17120000000E+03 0.  0.
         13    1    1    2    0    0  0.21251871736E+03  0.13689588957E+03  0.59260295012E+03  0.64426932060E+03  0.10566000000E+00 0.  1.
        994    1    1    2    0    0 -0.11741299004E+03 -0.29979246901E+02  0.15454362790E+03  0.26053356482E+03  0.17120000000E+03 0.  0.
        998    1    1    2    0    0 -0.95105727319E+02 -0.10691664267E+03  0.75285341826E+03  0.76639711458E+03  0.10000000000E+02 0.  1.
</event>
<event>
 5    1  0.1106231E-008  0.3803171E+03  0.7957747E-01  0.3449779E+00
         13   -1    0    0    0    0  0.00000000000E+00  0.00000000000E+00  0.14999999963E+04  0.15000000000E+04  0.10566000000E+00 0.  1.
        994   -1    0    0    0    0 -0.00000000000E+00 -0.00000000000E+00  0.11368683772E-12  0.17120000000E+03  0.17120000000E+03 0.  0.
         13    1    1    2    0    0  0.30094651676E+02  0.15148897943E+01  0.10660976057E+03  0.11078643944E+03  0.10566000000E+00 0.  1.
        994    1    1    2    0    0 -0.28766717105E+02 -0.34235588820E+01  0.67808021291E+01  0.17376611881E+03  0.17120000000E+03 0.  0.
        998    1    1    2    0    0 -0.13279345710E+01  0.19086690876E+01  0.13866094336E+04  0.13866474418E+04  0.10000000000E+02 0.  1.
</event>
<event>
 5    1  0.1106231E-008  0.3777200E+03  0.7957747E-01  0.3461147E+00
         13   -1    0    0    0    0  0.00000000000E+00  0.00000000000E+00  0.14999999963E+04  0.15000000000E+04  0.10566000000E+00 0.  1.
        994   -1    0    0    0    0 -0.00000000000E+00 -0.00000000000E+00  0.11368683772E-12  0.17120000000E+03  0.17120000000E+03 0.  0.
         13    1    1    2    0    0 -0.11053298578E+02 -0.43408486591E+02  0.16446451590E+03  0.17045544952E+03  0.10566000000E+00 0.  1.
        994    1    1    2    0    0  0.16259938421E+02  0.46297518873E+02  0.13442209367E+02  0.17860005275E+03  0.17120000000E+03 0.  0.
        998    1    1    2    0    0 -0.52066398427E+01 -0.28890322821E+01  0.13220932710E+04  0.13221444977E+04  0.10000000000E+02 0.  1.
</event>
<event>
 5    1  0.1106231E-008  0.3809578E+03  0.7957747E-01  0.3446999E+00
         13   -1    0    0    0    0  0.00000000000E+00  0.00000000000E+00  0.14999999963E+04  0.15000000000E+04  0.10566000000E+00 0. -1.
        994   -1    0    0    0    0 -0.00000000000E+00 -0.00000000000E+00  0.11368683772E-12  0.17120000000E+03  0.17120000000E+03 0.  0.
         13    1    1    2    0    0  0.10758572505E+02  0.28833782826E+02  0.11560810286E+03  0.11963435345E+03  0.10566000000E+00 0. -1.
        994    1    1    2    0    0 -0.88340886206E+01 -0.36031260527E+02  0.82503647248E+01  0.17536761781E+03  0.17120000000E+03 0.  0.
        998    1    1    2    0    0 -0.19244838839E+01  0.71974777008E+01  0.13761415287E+04  0.13761980287E+04  0.10000000000E+02 0. -1.
</event>
<event>
 5    1  0.1106231E-008  0.3589719E+03  0.7957747E-01  0.3548162E+00
         13   -1    0    0    0    0  0.00000000000E+00  0.00000000000E+00  0.14999999963E+04  0.15000000000E+04  0.10566000000E+00 0.  1.
        994   -1    0    0    0    0 -0.00000000000E+00 -0.00000000000E+00  0.11368683772E-12  0.17120000000E+03  0.17120000000E+03 0.  0.
         13    1    1    2    0    0  0.31019932927E+03 -0.32893270730E+02  0.71745351284E+03  0.78233314220E+03  0.10566000000E+00 0.  1.
        994    1    1    2    0    0 -0.30547407729E+03  0.25713161690E+02  0.52866387264E+03  0.63464203203E+03  0.17120000000E+03 0.  0.
        998    1    1    2    0    0 -0.47252519751E+01  0.71801090397E+01  0.25388261079E+03  0.25422482577E+03  0.10000000000E+02 0.  0.
</event>
<event>
 5    1  0.1106231E-008  0.3743295E+03  0.7957747E-01  0.3476227E+00
         13   -1    0    0    0    0  0.00000000000E+00  0.00000000000E+00  0.14999999963E+04  0.15000000000E+04  0.10566000000E+00 0. -1.
        994   -1    0    0    0    0 -0.00000000000E+00 -0.00000000000E+00  0.11368683772E-12  0.17120000000E+03  0.17120000000E+03 0.  0.
         13    1    1    2    0    0  0.90283939097E+02 -0.46521576009E+02  0.56369262530E+03  0.57276944199E+03  0.10566000000E+00 0. -1.
        994    1    1    2    0    0 -0.76948901330E+02  0.32108683136E+02  0.31091065749E+02  0.19294609433E+03  0.17120000000E+03 0.  0.
        998    1    1    2    0    0 -0.13335037767E+02  0.14412892872E+02  0.90521630523E+03  0.90548446368E+03  0.10000000000E+02 0.  0.
</event>
<event>
 5    1  0.1106231E-008  0.3747203E+03  0.7957747E-01  0.3474475E+00
         13   -1    0    0    0    0  0.00000000000E+00  0.00000000000E+00  0.14999999963E+04  0.15000000000E+04  0.10566000000E+00 0.  1.
        994   -1    0    0    0    0 -0.00000000000E+00 -0.00000000000E+00  0.11368683772E-12  0.17120000000E+03  0.17120000000E+03 0.  0.
         13    1    1    2    0    0  0.21293048434E+02 -0.34469974125E+02  0.13398051353E+03  0.13997271948E+03  0.10566000000E+00 0.  1.
        994    1    1    2    0    0 -0.44792181990E+01 -0.48547524839E+01  0.69708940676E+01  0.17146913828E+03  0.17120000000E+03 0.  0.
        998    1    1    2    0    0 -0.16813830235E+02  0.39324726609E+02  0.13590485887E+04  0.13597581422E+04  0.10000000000E+02 0.  1.
</event>
<event>
 5    1  0.1106231E-008  0.3847158E+03  0.7957747E-01  0.3430878E+00
         13   -1    0    0    0    0  0.00000000000E+00  0.00000000000E+00  0.14999999963E+04  0.15000000000E+04  0.10566000000E+00 0. -1.
        994   -1    0    0    0    0 -0.00000000000E+00 -0.00000000000E+00  0.11368683772E-12  0.17120000000E+03  0.17120000000E+03 0.  0.
         13    1    1    2    0    0 -0.52655159853E+01  0.14806936736E+02  0.68000649475E+02  0.69793055006E+02  0.10566000000E+00 0. -1.
        994    1    1    2    0    0  0.46471641560E+01 -0.13221024110E+02  0.24180243388E+01  0.17178963431E+03  0.17120000000E+03 0.  0.
        998    1    1    2    0    0  0.61835182930E+00 -0.15859126260E+01  0.14295813225E+04  0.14296173107E+04  0.10000000000E+02 0. -1.
</event>
<event>
 5    1  0.1106231E-008  0.3847959E+03  0.7957747E-01  0.3430538E+00
         13   -1    0    0    0    0  0.00000000000E+00  0.00000000000E+00  0.14999999963E+04  0.15000000000E+04  0.10566000000E+00 0.  1.
        994   -1    0    0    0    0 -0.00000000000E+00 -0.00000000000E+00  0.11368683772E-12  0.17120000000E+03  0.17120000000E+03 0.  0.
         13    1    1    2    0    0 -0.14317830604E+02  0.35693739554E+01  0.62708445695E+02  0.64421277767E+02  0.10566000000E+00 0.  1.
        994    1    1    2    0    0  0.89857214750E+01 -0.49449273293E+01  0.20777698313E+01  0.17151954007E+03  0.17120000000E+03 0.  0.
        998    1    1    2    0    0  0.53321091290E+01  0.13755533739E+01  0.14352137808E+04  0.14352591822E+04  0.10000000000E+02 0.  1.
</event>
<event>
 5    1  0.1106231E-008  0.3725424E+03  0.7957747E-01  0.3484287E+00
         13   -1    0    0    0    0  0.00000000000E+00  0.00000000000E+00  0.14999999963E+04  0.15000000000E+04  0.10566000000E+00 0.  1.
        994   -1    0    0    0    0 -0.00000000000E+00 -0.00000000000E+00  0.11368683772E-12  0.17120000000E+03  0.17120000000E+03 0.  0.
         13    1    1    2    0    0  0.88058942662E+02 -0.19587352604E+02  0.45408889148E+03  0.46296303772E+03  0.10566000000E+00 0.  1.
        994    1    1    2    0    0 -0.14311202332E+02 -0.92437909713E+01  0.13314009329E+02  0.17256002152E+03  0.17120000000E+03 0.  0.
        998    1    1    2    0    0 -0.73747740331E+02  0.28831143575E+02  0.10325970955E+04  0.10356769408E+04  0.10000000000E+02 0.  1.
</event>
<event>
 5    1  0.1106231E-008  0.3790734E+03  0.7957747E-01  0.3455203E+00
         13   -1    0    0    0    0  0.00000000000E+00  0.00000000000E+00  0.14999999963E+04  0.15000000000E+04  0.10566000000E+00 0. -1.
        994   -1    0    0    0    0 -0.00000000000E+00 -0.00000000000E+00  0.11368683772E-12  0.17120000000E+03  0.17120000000E+03 0.  0.
         13    1    1    2    0    0  0.58946453576E+01  0.18248850413E+02  0.38822342625E+02  0.43300725585E+02  0.10566000000E+00 0. -1.
        994    1    1    2    0    0 -0.46829517831E+01 -0.64019969639E+01  0.48126054576E+01  0.17145120814E+03  0.17120000000E+03 0.  0.
        998    1    1    2    0    0 -0.12116935745E+01 -0.11846853449E+02  0.14563650482E+04  0.14564480663E+04  0.10000000000E+02 0. -1.
</event>
<event>
 5    1  0.1540706E-008  0.3862323E+03  0.7957747E-01  0.3424463E+00
         13   -1    0    0    0    0  0.00000000000E+00  0.00000000000E+00  0.14999999963E+04  0.15000000000E+04  0.10566000000E+00 0. -1.
        994   -1    0    0    0    0 -0.00000000000E+00 -0.00000000000E+00  0.11368683772E-12  0.17120000000E+03  0.17120000000E+03 0.  0.
         13    1    1    2    0    0  0.11422486938E+02 -0.52456014784E+01  0.71090964518E+02  0.72193669687E+02  0.10566000000E+00 0. -1.
        994    1    1    2    0    0 -0.19387312067E+02  0.75318923377E+01  0.24378484982E+01  0.17247602841E+03  0.17120000000E+03 0.  0.
        998    1    1    2    0    0  0.79648251290E+01 -0.22862908593E+01  0.14264711833E+04  0.14265303019E+04  0.10000000000E+02 0. -1.
</event>
<event>
 5    1  0.1106231E-008  0.3791895E+03  0.7957747E-01  0.3454695E+00
         13   -1    0    0    0    0  0.00000000000E+00  0.00000000000E+00  0.14999999963E+04  0.15000000000E+04  0.10566000000E+00 0.  1.
        994   -1    0    0    0    0 -0.00000000000E+00 -0.00000000000E+00  0.11368683772E-12  0.17120000000E+03  0.17120000000E+03 0.  0.
         13    1    1    2    0    0 -0.14913899281E+02 -0.43439069891E+02  0.22309050788E+03  0.22776910031E+03  0.10566000000E+00 0.  1.
        994    1    1    2    0    0  0.25277978653E+01  0.31768679708E+02  0.79546581532E+01  0.17432256124E+03  0.17120000000E+03 0.  0.
        998    1    1    2    0    0  0.12386101416E+02  0.11670390183E+02  0.12689548302E+04  0.12691083384E+04  0.10000000000E+02 0.  1.
</event>
<event>
 5    1  0.1106231E-008  0.3839083E+03  0.7957747E-01  0.3434316E+00
         13   -1    0    0    0    0  0.00000000000E+00  0.00000000000E+00  0.14999999963E+04  0.15000000000E+04  0.10566000000E+00 0.  1.
        994   -1    0    0    0    0 -0.00000000000E+00 -0.00000000000E+00  0.11368683772E-12  0.17120000000E+03  0.17120000000E+03 0.  0.
         13    1    1    2    0    0 -0.10529078499E+02  0.79210453659E+01  0.39556252474E+02  0.41693077693E+02  0.10566000000E+00 0.  1.
        994    1    1    2    0    0  0.83234316264E+01 -0.21264714158E+01  0.24167380697E+01  0.17143244156E+03  0.17120000000E+03 0.  0.
        998    1    1    2    0    0  0.22056468730E+01 -0.57945739501E+01  0.14580270057E+04  0.14580744808E+04  0.10000000000E+02 0.  1.
</event>
<event>
 5    1  0.1106231E-008  0.3782745E+03  0.7957747E-01  0.3458706E+00
         13   -1    0    0    0    0  0.00000000000E+00  0.00000000000E+00  0.14999999963E+04  0.15000000000E+04  0.10566000000E+00 0. -1.
        994   -1    0    0    0    0 -0.00000000000E+00 -0.00000000000E+00  0.11368683772E-12  0.17120000000E+03  0.17120000000E+03 0.  0.
         13    1    1    2    0    0  0.48420706707E+02 -0.27731517065E+02  0.29695649805E+03  0.30215356158E+03  0.10566000000E+00 0. -1.
        994    1    1    2    0    0 -0.27381884774E+02  0.25978206974E+02  0.98114065585E+01  0.17558570144E+03  0.17120000000E+03 0.  0.
        998    1    1    2    0    0 -0.21038821934E+02  0.17533100910E+01  0.11932320917E+04  0.11934607370E+04  0.10000000000E+02 0. -1.
</event>
<event>
 5    1  0.1106231E-008  0.3842749E+03  0.7957747E-01  0.3432753E+00
         13   -1    0    0    0    0  0.00000000000E+00  0.00000000000E+00  0.14999999963E+04  0.15000000000E+04  0.10566000000E+00 0.  1.
        994   -1    0    0    0    0 -0.00000000000E+00 -0.00000000000E+00  0.11368683772E-12  0.17120000000E+03  0.17120000000E+03 0.  0.
         13    1    1    2    0    0 -0.15639916837E+02  0.27859518656E+01  0.62127285186E+02  0.64126275855E+02  0.10566000000E+00 0.  1.
        994    1    1    2    0    0  0.12083955193E+02 -0.67454982762E+01  0.26221504610E+01  0.17177846021E+03  0.17120000000E+03 0.  0.
        998    1    1    2    0    0  0.35559616443E+01  0.39595464107E+01  0.14352505606E+04  0.14352952639E+04  0.10000000000E+02 0.  1.
</event>
<event>
 5    1  0.1106231E-008  0.3812812E+03  0.7957747E-01  0.3445599E+00
         13   -1    0    0    0    0  0.00000000000E+00  0.00000000000E+00  0.14999999963E+04  0.15000000000E+04  0.10566000000E+00 0.  1.
        994   -1    0    0    0    0 -0.00000000000E+00 -0.00000000000E+00  0.11368683772E-12  0.17120000000E+03  0.17120000000E+03 0.  0.
         13    1    1    2    0    0  0.13964504111E+02  0.13169950519E+03  0.77723661374E+03  0.78843930137E+03  0.10566000000E+00 0.  1.
        994    1    1    2    0    0 -0.23162984445E+02 -0.14845138259E+03  0.82691551167E+02  0.24232554442E+03  0.17120000000E+03 0.  0.
        998    1    1    2    0    0  0.91984803335E+01  0.16751877408E+02  0.64007183138E+03  0.64043515422E+03  0.10000000000E+02 0. -1.
</event>
<event>
 5    1  0.1106231E-008  0.3019104E+03  0.7957747E-01  0.3882474E+00
         13   -1    0    0    0    0  0.00000000000E+00  0.00000000000E+00  0.14999999963E+04  0.15000000000E+04  0.10566000000E+00 0. -1.
        994   -1    0    0    0    0 -0.00000000000E+00 -0.00000000000E+00  0.11368683772E-12  0.17120000000E+03  0.17120000000E+03 0.  0.
         13    1    1    2    0    0 -0.49029233963E+02 -0.18737888610E+03  0.65809808944E+03  0.68600861454E+03  0.10566000000E+00 0. -1.
        994    1    1    2    0    0  0.35370416467E+02  0.17644156357E+03  0.14420987732E+03  0.28720832236E+03  0.17120000000E+03 0.  0.
        998    1    1    2    0    0  0.13658817496E+02  0.10937322529E+02  0.69769202952E+03  0.69798306310E+03  0.10000000000E+02 0. -1.
</event>
<event>
 5    1  0.1106231E-008  0.3809147E+03  0.7957747E-01  0.3447185E+00
         13   -1    0    0    0    0  0.00000000000E+00  0.00000000000E+00  0.14999999963E+04  0.15000000000E+04  0.10566000000E+00 0. -1.
        994   -1    0    0    0    0 -0.00000000000E+00 -0.00000000000E+00  0.11368683772E-12  0.17120000000E+03  0.17120000000E+03 0.  0.
         13    1    1    2    0    0 -0.44446346343E+02 -0.37972528298E+02  0.34564612663E+03  0.35055476980E+03  0.10566000000E+00 0. -1.
        994    1    1    2    0    0  0.68920959152E+02  0.18275465748E+02  0.20806428790E+02  0.18661843086E+03  0.17120000000E+03 0.  0.
        998    1    1    2    0    0 -0.24474612810E+02  0.19697062550E+02  0.11335474409E+04  0.11340267993E+04  0.10000000000E+02 0. -1.
</event>
<event>
 5    1  0.1106231E-008  0.3845124E+03  0.7957747E-01  0.3431743E+00
         13   -1    0    0    0    0  0.00000000000E+00  0.00000000000E+00  0.14999999963E+04  0.15000000000E+04  0.10566000000E+00 0.  1.
        994   -1    0    0    0    0 -0.00000000000E+00 -0.00000000000E+00  0.11368683772E-12  0.17120000000E+03  0.17120000000E+03 0.  0.
         13    1    1    2    0    0  0.18569392570E+01  0.16779456411E+02  0.73311039456E+02  0.75229768384E+02  0.10566000000E+00 0.  1.
        994    1    1    2    0    0 -0.43968702246E+01 -0.16103956392E+02  0.27908510107E+01  0.17203458585E+03  0.17120000000E+03 0.  0.
        998    1    1    2    0    0  0.25399309676E+01 -0.67550001921E+00  0.14238981058E+04  0.14239356458E+04  0.10000000000E+02 0.  1.
</event>
<event>
 5    1  0.1106231E-008  0.3802444E+03  0.7957747E-01  0.3450095E+00
         13   -1    0    0    0    0  0.00000000000E+00  0.00000000000E+00  0.14999999963E+04  0.15000000000E+04  0.10566000000E+00 0. -1.
        994   -1    0    0    0    0 -0.00000000000E+00 -0.00000000000E+00  0.11368683772E-12  0.17120000000E+03  0.17120000000E+03 0.  0.
         13    1    1    2    0    0 -0.18764146193E+02  0.24258029632E+01  0.42294273833E+02  0.46333513416E+02  0.10566000000E+00 0. -1.
        994    1    1    2    0    0  0.17974148642E+02 -0.14446160552E+01  0.50966540094E+01  0.17222245155E+03  0.17120000000E+03 0.  0.
        998    1    1    2    0    0  0.78999755113E+00 -0.98118690797E+00  0.14526090684E+04  0.14526440350E+04  0.10000000000E+02 0. -1.
</event>
<event>
 5    1  0.1106231E-008  0.3832639E+03  0.7957747E-01  0.3437069E+00
         13   -1    0    0    0    0  0.00000000000E+00  0.00000000000E+00  0.14999999963E+04  0.15000000000E+04  0.10566000000E+00 0. -1.
        994   -1    0    0    0    0 -0.00000000000E+00 -0.00000000000E+00  0.11368683772E-12  0.17120000000E+03  0.17120000000E+03 0.  0.
         13    1    1    2    0    0 -0.20811609645E+02 -0.45788883801E+01  0.90935079947E+02  0.93398550544E+02  0.10566000000E+00 0. -1.
        994    1    1    2    0    0  0.13877571359E+02 -0.53887242860E+01  0.32278297458E+01  0.17187636318E+03  0.17120000000E+03 0.  0.
        998    1    1    2    0    0  0.69340382857E+01  0.99676126661E+01  0.14058370866E+04  0.14059250863E+04  0.10000000000E+02 0. -1.
</event>
<event>
 5    1  0.1106231E-008  0.3731198E+03  0.7957747E-01  0.3481675E+00
         13   -1    0    0    0    0  0.00000000000E+00  0.00000000000E+00  0.14999999963E+04  0.15000000000E+04  0.10566000000E+00 0.  1.
        994   -1    0    0    0    0 -0.00000000000E+00 -0.00000000000E+00  0.11368683772E-12  0.17120000000E+03  0.17120000000E+03 0.  0.
         13    1    1    2    0    0  0.33722239823E+02  0.13296377189E+02  0.48332307150E+02  0.60415281043E+02  0.10566000000E+00 0.  1.
        994    1    1    2    0    0 -0.48449116027E+01 -0.33437777224E+02  0.16643708195E+02  0.17529407045E+03  0.17120000000E+03 0.  0.
        998    1    1    2    0    0 -0.28877328221E+02  0.20141400035E+02  0.14350239809E+04  0.14354906485E+04  0.10000000000E+02 0.  1.
</event>
<event>
 5    1  0.1106231E-008  0.3833543E+03  0.7957747E-01  0.3436682E+00
         13   -1    0    0    0    0  0.00000000000E+00  0.00000000000E+00  0.14999999963E+04  0.15000000000E+04  0.10566000000E+00 0.  1.
        994   -1    0    0    0    0 -0.00000000000E+00 -0.00000000000E+00  0.11368683772E-12  0.17120000000E+03  0.17120000000E+03 0.  0.
         13    1    1    2    0    0 -0.75625269851E+01  0.13302893493E+02  0.48048906778E+02  0.50426851937E+02  0.10566000000E+00 0.  1.
        994    1    1    2    0    0  0.11591499444E+02 -0.18586548288E+00  0.28938803084E+01  0.17161646759E+03  0.17120000000E+03 0.  0.
        998    1    1    2    0    0 -0.40289724593E+01 -0.13117028010E+02  0.14490572092E+04  0.14491566805E+04  0.10000000000E+02 0.  1.
</event>
<event>
 5    1  0.1106231E-008  0.3735951E+03  0.7957747E-01  0.3479530E+00
         13   -1    0    0    0    0  0.00000000000E+00  0.00000000000E+00  0.14999999963E+04  0.15000000000E+04  0.10566000000E+00 0. -1.
        994   -1    0    0    0    0 -0.00000000000E+00 -0.00000000000E+00  0.11368683772E-12  0.17120000000E+03  0.17120000000E+03 0.  0.
         13    1    1    2    0    0 -0.26679446237E+02  0.55170422355E+01  0.47437063567E+02  0.54703900870E+02  0.10566000000E+00 0. -1.
        994    1    1    2    0    0  0.12913923370E+02 -0.19801978201E+02  0.93131157260E+01  0.17307530697E+03  0.17120000000E+03 0.  0.
        998    1    1    2    0    0  0.13765522867E+02  0.14284935966E+02  0.14432498170E+04  0.14434207922E+04  0.10000000000E+02 0. -1.
</event>
<event>
 5    1  0.1106231E-008  0.3776297E+03  0.7957747E-01  0.3461545E+00
         13   -1    0    0    0    0  0.00000000000E+00  0.00000000000E+00  0.14999999963E+04  0.15000000000E+04  0.10566000000E+00 0.  1.
        994   -1    0    0    0    0 -0.00000000000E+00 -0.00000000000E+00  0.11368683772E-12  0.17120000000E+03  0.17120000000E+03 0.  0.
         13    1    1    2    0    0 -0.60535336196E+02  0.62103341472E+02  0.41223516719E+03  0.42125906065E+03  0.10566000000E+00 0.  1.
        994    1    1    2    0    0  0.96468085105E+02 -0.56865583310E+02  0.48822472472E+02  0.21031609503E+03  0.17120000000E+03 0.  0.
        998    1    1    2    0    0 -0.35932748909E+02 -0.52377581626E+01  0.10389423566E+04  0.10396248443E+04  0.10000000000E+02 0.  1.
</event>
<event>
 5    1  0.1106231E-008  0.3761182E+03  0.7957747E-01  0.3468237E+00
         13   -1    0    0    0    0  0.00000000000E+00  0.00000000000E+00  0.14999999963E+04  0.15000000000E+04  0.10566000000E+00 0.  1.
        994   -1    0    0    0    0 -0.00000000000E+00 -0.00000000000E+00  0.11368683772E-12  0.17120000000E+03  0.17120000000E+03 0.  0.
         13    1    1    2    0    0 -0.21031866359E+02  0.96672355651E+01  0.41386838267E+02  0.47420210794E+02  0.10566000000E+00 0.  1.
        994    1    1    2    0    0  0.11286529629E+02 -0.13697117800E+02  0.71730391783E+01  0.17226691289E+03  0.17120000000E+03 0.  0.
        998    1    1    2    0    0  0.97453367293E+01  0.40298822352E+01  0.14514401188E+04  0.14515128763E+04  0.10000000000E+02 0.  1.
</event>
<event>
 5    1  0.1106231E-008  0.3822381E+03  0.7957747E-01  0.3441471E+00
         13   -1    0    0    0    0  0.00000000000E+00  0.00000000000E+00  0.14999999963E+04  0.15000000000E+04  0.10566000000E+00 0.  1.
        994   -1    0    0    0    0 -0.00000000000E+00 -0.00000000000E+00  0.11368683772E-12  0.17120000000E+03  0.17120000000E+03 0.  0.
         13    1    1    2    0    0 -0.10833300444E+02  0.61825413355E+01  0.24282125701E+02  0.27298663127E+02  0.10566000000E+00 0.  1.
        994    1    1    2    0    0  0.13393728771E+02 -0.55885885223E+01  0.37068699079E+01  0.17185402287E+03  0.17120000000E+03 0.  0.
        998    1    1    2    0    0 -0.25604283270E+01 -0.59395281323E+00  0.14720110007E+04  0.14720473140E+04  0.10000000000E+02 0.  1.
</event>
<event>
 5    1  0.1106231E-008  0.3834307E+03  0.7957747E-01  0.3436355E+00
         13   -1    0    0    0    0  0.00000000000E+00  0.00000000000E+00  0.14999999963E+04  0.15000000000E+04  0.10566000000E+00 0. -1.
        994   -1    0    0    0    0 -0.00000000000E+00 -0.00000000000E+00  0.11368683772E-12  0.17120000000E+03  0.17120000000E+03 0.  0.
         13    1    1    2    0    0 -0.13551825713E+00 -0.16160113484E+02  0.54378174997E+02  0.56728870190E+02  0.10566000000E+00 0. -1.
        994    1    1    2    0    0  0.68247643950E+01  0.72926047512E+01  0.27411082568E+01  0.17151301166E+03  0.17120000000E+03 0.  0.
        998    1    1    2    0    0 -0.66892461378E+01  0.88675087324E+01  0.14428807130E+04  0.14429581182E+04  0.10000000000E+02 0. -1.
</event>
<event>
 5    1  0.1106231E-008  0.3807224E+03  0.7957747E-01  0.3448019E+00
         13   -1    0    0    0    0  0.00000000000E+00  0.00000000000E+00  0.14999999963E+04  0.15000000000E+04  0.10566000000E+00 0. -1.
        994   -1    0    0    0    0 -0.00000000000E+00 -0.00000000000E+00  0.11368683772E-12  0.17120000000E+03  0.17120000000E+03 0.  0.
         13    1    1    2    0    0  0.14047300962E+02  0.13235563780E+02  0.49231794710E+02  0.52879935584E+02  0.10566000000E+00 0. -1.
        994    1    1    2    0    0 -0.68869717504E+01 -0.18936352532E+01  0.39390680600E+01  0.17139420204E+03  0.17120000000E+03 0.  0.
        998    1    1    2    0    0 -0.71603292114E+01 -0.11341928527E+02  0.14468291335E+04  0.14469258624E+04  0.10000000000E+02 0. -1.
</event>
<event>
 5    1  0.1106231E-008  0.3772196E+03  0.7957747E-01  0.3463355E+00
         13   -1    0    0    0    0  0.00000000000E+00  0.00000000000E+00  0.14999999963E+04  0.15000000000E+04  0.10566000000E+00 0.  1.
        994   -1    0    0    0    0 -0.00000000000E+00 -0.00000000000E+00  0.11368683772E-12  0.17120000000E+03  0.17120000000E+03 0.  0.
         13    1    1    2    0    0  0.49198610192E+01 -0.17182838623E+02  0.27847440557E+02  0.33089969555E+02  0.10566000000E+00 0.  1.
        994    1    1    2    0    0  0.58350212253E+01 -0.41575898607E+01  0.57165061775E+01  0.17144518503E+03  0.17120000000E+03 0.  0.
        998    1    1    2    0    0 -0.10754882244E+02  0.21340428483E+02  0.14664360495E+04  0.14666648454E+04  0.10000000000E+02 0.  1.
</event>
<event>
 5    1  0.1106231E-008  0.4161765E+03  0.7957747E-01  0.3307333E+00
         13   -1    0    0    0    0  0.00000000000E+00  0.00000000000E+00  0.14999999963E+04  0.15000000000E+04  0.10566000000E+00 0. -1.
        994   -1    0    0    0    0 -0.00000000000E+00 -0.00000000000E+00  0.11368683772E-12  0.17120000000E+03  0.17120000000E+03 0.  0.
         13    1    1    2    0    0  0.18498977364E+02 -0.13983850749E+02 -0.93806468274E+01  0.25015354169E+02  0.10566000000E+00 0. -1.
        994    1    1    2    0    0 -0.42794672387E+02  0.18234185671E+02  0.46953720679E+02  0.18351556173E+03  0.17120000000E+03 0.  0.
        998    1    1    2    0    0  0.24295695024E+02 -0.42503349224E+01  0.14624269224E+04  0.14626690841E+04  0.10000000000E+02 0. -1.
</event>
<event>
 5    1  0.1106231E-008  0.3812045E+03  0.7957747E-01  0.3445930E+00
         13   -1    0    0    0    0  0.00000000000E+00  0.00000000000E+00  0.14999999963E+04  0.15000000000E+04  0.10566000000E+00 0.  1.
        994   -1    0    0    0    0 -0.00000000000E+00 -0.00000000000E+00  0.11368683772E-12  0.17120000000E+03  0.17120000000E+03 0.  0.
         13    1    1    2    0    0  0.11367106838E+01 -0.34103105293E+02  0.16797449720E+03  0.17140524139E+03  0.10566000000E+00 0.  1.
        994    1    1    2    0    0  0.19743800748E+01  0.16681886201E+02  0.44664822458E+01  0.17208013531E+03  0.17120000000E+03 0.  0.
        998    1    1    2    0    0 -0.31110907586E+01  0.17421219092E+02  0.13275590168E+04  0.13277146233E+04  0.10000000000E+02 0.  1.
</event>
<event>
 5    1  0.1106231E-008  0.3690841E+03  0.7957747E-01  0.3500111E+00
         13   -1    0    0    0    0  0.00000000000E+00  0.00000000000E+00  0.14999999963E+04  0.15000000000E+04  0.10566000000E+00 0. -1.
        994   -1    0    0    0    0 -0.00000000000E+00 -0.00000000000E+00  0.11368683772E-12  0.17120000000E+03  0.17120000000E+03 0.  0.
         13    1    1    2    0    0 -0.10310418278E+02 -0.15734148023E+02  0.13776009422E+02  0.23316469259E+02  0.10566000000E+00 0. -1.
        994    1    1    2    0    0  0.87186687656E+01  0.14737289855E+02  0.10766243017E+02  0.17239070418E+03  0.17120000000E+03 0.  0.
        998    1    1    2    0    0  0.15917495120E+01  0.99685816789E+00  0.14754577438E+04  0.14754928266E+04  0.10000000000E+02 0. -1.
</event>
<event>
 5    1  0.1106231E-008  0.3835949E+03  0.7957747E-01  0.3435653E+00
         13   -1    0    0    0    0  0.00000000000E+00  0.00000000000E+00  0.14999999963E+04  0.15000000000E+04  0.10566000000E+00 0. -1.
        994   -1    0    0    0    0 -0.00000000000E+00 -0.00000000000E+00  0.11368683772E-12  0.17120000000E+03  0.17120000000E+03 0.  0.
         13    1    1    2    0    0  0.13147106058E+02  0.23743998700E+02  0.14397294027E+03  0.14650884809E+03  0.10566000000E+00 0. -1.
        994    1    1    2    0    0 -0.10702625240E+02 -0.25718721277E+02  0.48972303222E+01  0.17352066642E+03  0.17120000000E+03 0.  0.
        998    1    1    2    0    0 -0.24444808178E+01  0.19747225767E+01  0.13511298257E+04  0.13511704855E+04  0.10000000000E+02 0. -1.
</event>
<event>
 5    1  0.1106231E-008  0.3834121E+03  0.7957747E-01  0.3436435E+00
         13   -1    0    0    0    0  0.00000000000E+00  0.00000000000E+00  0.14999999963E+04  0.15000000000E+04  0.10566000000E+00 0.  1.
        994   -1    0    0    0    0 -0.00000000000E+00 -0.00000000000E+00  0.11368683772E-12  0.17120000000E+03  0.17120000000E+03 0.  0.
         13    1    1    2    0    0  0.14971515728E+02  0.10614160106E+02  0.70315046238E+02  0.72670651362E+02  0.10566000000E+00 0.  1.
        994    1    1    2    0    0 -0.76044409114E+01 -0.35289622113E+01  0.26529088100E+01  0.17142566617E+03  0.17120000000E+03 0.  0.
        998    1    1    2    0    0 -0.73670748161E+01 -0.70851978951E+01  0.14270320412E+04  0.14271036825E+04  0.10000000000E+02 0.  1.
</event>
<event>
 5    1  0.1106231E-008  0.3792339E+03  0.7957747E-01  0.3454501E+00
         13   -1    0    0    0    0  0.00000000000E+00  0.00000000000E+00  0.14999999963E+04  0.15000000000E+04  0.10566000000E+00 0. -1.
        994   -1    0    0    0    0 -0.00000000000E+00 -0.00000000000E+00  0.11368683772E-12  0.17120000000E+03  0.17120000000E+03 0.  0.
         13    1    1    2    0    0 -0.20414494065E+02  0.65573234766E+01  0.48230078231E+02  0.52781641404E+02  0.10566000000E+00 0. -1.
        994    1    1    2    0    0  0.21945785750E+02  0.53694612131E+01  0.62329727901E+01  0.17279681298E+03  0.17120000000E+03 0.  0.
        998    1    1    2    0    0 -0.15312916847E+01 -0.11926784690E+02  0.14455369453E+04  0.14456215456E+04  0.10000000000E+02 0. -1.
</event>
<event>
 5    1  0.1106231E-008  0.3769637E+03  0.7957747E-01  0.3464487E+00
         13   -1    0    0    0    0  0.00000000000E+00  0.00000000000E+00  0.14999999963E+04  0.15000000000E+04  0.10566000000E+00 0.  1.
        994   -1    0    0    0    0 -0.00000000000E+00 -0.00000000000E+00  0.11368683772E-12  0.17120000000E+03  0.17120000000E+03 0.  0.
         13    1    1    2    0    0 -0.19250525504E+01 -0.38309600850E+02  0.15267709960E+03  0.15742185125E+03  0.10566000000E+00 0.  1.
        994    1    1    2    0    0  0.18777072175E+01 -0.87581055616E+01  0.59447242718E+01  0.17153719697E+03  0.17120000000E+03 0.  0.
        998    1    1    2    0    0  0.47345332947E-01  0.47067706412E+02  0.13413781724E+04  0.13422409518E+04  0.10000000000E+02 0.  1.
</event>
<event>
 5    1  0.1106231E-008  0.3837479E+03  0.7957747E-01  0.3435000E+00
         13   -1    0    0    0    0  0.00000000000E+00  0.00000000000E+00  0.14999999963E+04  0.15000000000E+04  0.10566000000E+00 0.  1.
        994   -1    0    0    0    0 -0.00000000000E+00 -0.00000000000E+00  0.11368683772E-12  0.17120000000E+03  0.17120000000E+03 0.  0.
         13    1    1    2    0    0 -0.10361846957E+02  0.21992826769E+02  0.11146185676E+03  0.11408246569E+03  0.10566000000E+00 0.  1.
        994    1    1    2    0    0 -0.17064940271E+02 -0.51943811994E+02  0.12187404656E+02  0.18013146483E+03  0.17120000000E+03 0.  0.
        998    1    1    2    0    0  0.27426787228E+02  0.29950985224E+02  0.13763507349E+04  0.13769860695E+04  0.10000000000E+02 0.  1.
</event>
<event>
 5    1  0.1106231E-008  0.3715272E+03  0.7957747E-01  0.3488901E+00
         13   -1    0    0    0    0  0.00000000000E+00  0.00000000000E+00  0.14999999963E+04  0.15000000000E+04  0.10566000000E+00 0.  1.
        994   -1    0    0    0    0 -0.00000000000E+00 -0.00000000000E+00  0.11368683772E-12  0.17120000000E+03  0.17120000000E+03 0.  0.
         13    1    1    2    0    0 -0.34618442148E+02 -0.46303000223E+02  0.12925235851E+03  0.14159303553E+03  0.10566000000E+00 0.  1.
        994    1    1    2    0    0  0.41180211567E+02  0.36061641171E+02  0.22355370663E+02  0.18112276054E+03  0.17120000000E+03 0.  0.
        998    1    1    2    0    0 -0.65617694197E+01  0.10241359052E+02  0.13483922671E+04  0.13484842039E+04  0.10000000000E+02 0.  1.
</event>
<event>
 5    1  0.1106231E-008  0.3827318E+03  0.7957747E-01  0.3439349E+00
         13   -1    0    0    0    0  0.00000000000E+00  0.00000000000E+00  0.14999999963E+04  0.15000000000E+04  0.10566000000E+00 0.  1.
        994   -1    0    0    0    0 -0.00000000000E+00 -0.00000000000E+00  0.11368683772E-12  0.17120000000E+03  0.17120000000E+03 0.  0.
         13    1    1    2    0    0 -0.23702630687E+01 -0.11403667017E+02  0.23438306336E+02  0.26173023065E+02  0.10566000000E+00 0.  1.
        994    1    1    2    0    0 -0.20729676850E+01  0.10306979329E+02  0.31267602627E+01  0.17155100597E+03  0.17120000000E+03 0.  0.
        998    1    1    2    0    0  0.44432307536E+01  0.10966876876E+01  0.14734349297E+04  0.14734759710E+04  0.10000000000E+02 0.  1.
</event>
<event>
 5    1  0.1106231E-008  0.3849136E+03  0.7957747E-01  0.3430039E+00
         13   -1    0    0    0    0  0.00000000000E+00  0.00000000000E+00  0.14999999963E+04  0.15000000000E+04  0.10566000000E+00 0.  1.
        994   -1    0    0    0    0 -0.00000000000E+00 -0.00000000000E+00  0.11368683772E-12  0.17120000000E+03  0.17120000000E+03 0.  0.
         13    1    1    2    0    0 -0.35060399545E+01  0.12451791978E+02  0.50203823033E+02  0.51843750355E+02  0.10566000000E+00 0.  1.
        994    1    1    2    0    0  0.97498399274E+01 -0.52076298504E+01  0.20750561185E+01  0.17156900841E+03  0.17120000000E+03 0.  0.
        998    1    1    2    0    0 -0.62437999729E+01 -0.72441621274E+01  0.14477211171E+04  0.14477872412E+04  0.10000000000E+02 0.  1.
</event>
<event>
 5    1  0.1106231E-008  0.3738614E+03  0.7957747E-01  0.3478331E+00
         13   -1    0    0    0    0  0.00000000000E+00  0.00000000000E+00  0.14999999963E+04  0.15000000000E+04  0.10566000000E+00 0.  1.
        994   -1    0    0    0    0 -0.00000000000E+00 -0.00000000000E+00  0.11368683772E-12  0.17120000000E+03  0.17120000000E+03 0.  0.
         13    1    1    2    0    0 -0.13986149592E+03  0.19486129371E+03  0.88191025358E+03  0.91394631590E+03  0.10566000000E+00 0.  1.
        994    1    1    2    0    0  0.14559662396E+03 -0.19740973692E+03  0.25243975739E+03  0.39141314778E+03  0.17120000000E+03 0.  0.
        998    1    1    2    0    0 -0.57351280451E+01  0.25484432149E+01  0.36564998531E+03  0.36584053632E+03  0.10000000000E+02 0.  0.
</event>
<event>
 5    1  0.1106231E-008  0.3853841E+03  0.7957747E-01  0.3428045E+00
         13   -1    0    0    0    0  0.00000000000E+00  0.00000000000E+00  0.14999999963E+04  0.15000000000E+04  0.10566000000E+00 0. -1.
        994   -1    0    0    0    0 -0.00000000000E+00 -0.00000000000E+00  0.11368683772E-12  0.17120000000E+03  0.17120000000E+03 0.  0.
         13    1    1    2    0    0  0.16748788757E+02  0.10722229763E+01  0.94269085095E+02  0.95751465553E+02  0.10566000000E+00 0. -1.
        994    1    1    2    0    0 -0.15720739137E+02 -0.29101356870E+01  0.22795986563E+01  0.17196001599E+03  0.17120000000E+03 0.  0.
        998    1    1    2    0    0 -0.10280496197E+01  0.18379127106E+01  0.14034513125E+04  0.14034885185E+04  0.10000000000E+02 0. -1.
</event>
<event>
 5    1  0.1106231E-008  0.3815845E+03  0.7957747E-01  0.3444288E+00
         13   -1    0    0    0    0  0.00000000000E+00  0.00000000000E+00  0.14999999963E+04  0.15000000000E+04  0.10566000000E+00 0.  1.
        994   -1    0    0    0    0 -0.00000000000E+00 -0.00000000000E+00  0.11368683772E-12  0.17120000000E+03  0.17120000000E+03 0.  0.
         13    1    1    2    0    0 -0.10897217988E+02 -0.26386766205E+01  0.17413630198E+02  0.20711292932E+02  0.10566000000E+00 0.  1.
        994    1    1    2    0    0  0.10021649753E+02 -0.17246326061E+01  0.36793697242E+01  0.17154120666E+03  0.17120000000E+03 0.  0.
        998    1    1    2    0    0  0.87556823522E+00  0.43633092265E+01  0.14789069964E+04  0.14789475004E+04  0.10000000000E+02 0.  1.
</event>
<event>
 5    1  0.1106231E-008  0.3850112E+03  0.7957747E-01  0.3429625E+00
         13   -1    0    0    0    0  0.00000000000E+00  0.00000000000E+00  0.14999999963E+04  0.15000000000E+04  0.10566000000E+00 0.  1.
        994   -1    0    0    0    0 -0.00000000000E+00 -0.00000000000E+00  0.11368683772E-12  0.17120000000E+03  0.17120000000E+03 0.  0.
         13    1    1    2    0    0 -0.11067558288E+02  0.71711795867E+01  0.53758748220E+02  0.55352785272E+02  0.10566000000E+00 0.  1.
        994    1    1    2    0    0  0.77879316293E+01 -0.26005247664E+01  0.18463238202E+01  0.17140671959E+03  0.17120000000E+03 0.  0.
        998    1    1    2    0    0  0.32796266585E+01 -0.45706548203E+01  0.14443949242E+04  0.14444404951E+04  0.10000000000E+02 0.  1.
</event>
<event>
 5    1  0.1106231E-008  0.3841854E+03  0.7957747E-01  0.3433135E+00
         13   -1    0    0    0    0  0.00000000000E+00  0.00000000000E+00  0.14999999963E+04  0.15000000000E+04  0.10566000000E+00 0. -1.
        994   -1    0    0    0    0 -0.00000000000E+00 -0.00000000000E+00  0.11368683772E-12  0.17120000000E+03  0.17120000000E+03 0.  0.
         13    1    1    2    0    0  0.10904981625E+02  0.14957234959E+02  0.89928532567E+02  0.91813885853E+02  0.10566000000E+00 0. -1.
        994    1    1    2    0    0 -0.89168468185E+01  0.45010263267E+01  0.23641748034E+01  0.17150743050E+03  0.17120000000E+03 0.  0.
        998    1    1    2    0    0 -0.19881348065E+01 -0.19458261286E+02  0.14077072889E+04  0.14078786836E+04  0.10000000000E+02 0. -1.
</event>
<event>
 5    1  0.1106231E-008  0.3816009E+03  0.7957747E-01  0.3444217E+00
         13   -1    0    0    0    0  0.00000000000E+00  0.00000000000E+00  0.14999999963E+04  0.15000000000E+04  0.10566000000E+00 0.  1.
        994   -1    0    0    0    0 -0.00000000000E+00 -0.00000000000E+00  0.11368683772E-12  0.17120000000E+03  0.17120000000E+03 0.  0.
         13    1    1    2    0    0  0.25229559203E+02 -0.18202636504E+02  0.15414026407E+03  0.15724852560E+03  0.10566000000E+00 0.  1.
        994    1    1    2    0    0 -0.42257132267E+01  0.99892420868E+01  0.37185072102E+01  0.17158353332E+03  0.17120000000E+03 0.  0.
        998    1    1    2    0    0 -0.21003845976E+02  0.82133944173E+01  0.13421412250E+04  0.13423679411E+04  0.10000000000E+02 0.  1.
</event>
<event>
 5    1  0.1106231E-008  0.3826452E+03  0.7957747E-01  0.3439721E+00
         13   -1    0    0    0    0  0.00000000000E+00  0.00000000000E+00  0.14999999963E+04  0.15000000000E+04  0.10566000000E+00 0.  1.
        994   -1    0    0    0    0 -0.00000000000E+00 -0.00000000000E+00  0.11368683772E-12  0.17120000000E+03  0.17120000000E+03 0.  0.
         13    1    1    2    0    0 -0.11517597062E+02  0.71820714615E+01  0.31601540067E+02  0.34393396040E+02  0.10566000000E+00 0.  1.
        994    1    1    2    0    0  0.10228723805E+02 -0.56823830610E+01  0.32576377011E+01  0.17163032503E+03  0.17120000000E+03 0.  0.
        998    1    1    2    0    0  0.12888732568E+01 -0.14996884004E+01  0.14651408185E+04  0.14651762789E+04  0.10000000000E+02 0.  1.
</event>
<event>
 5    1  0.1106231E-008  0.3838530E+03  0.7957747E-01  0.3434551E+00
         13   -1    0    0    0    0  0.00000000000E+00  0.00000000000E+00  0.14999999963E+04  0.15000000000E+04  0.10566000000E+00 0.  1.
        994   -1    0    0    0    0 -0.00000000000E+00 -0.00000000000E+00  0.11368683772E-12  0.17120000000E+03  0.17120000000E+03 0.  0.
         13    1    1    2    0    0 -0.13635402264E+02 -0.28214701095E+01  0.39560046571E+02  0.41939162333E+02  0.10566000000E+00 0.  1.
        994    1    1    2    0    0  0.29896593606E+02  0.93347725166E+01  0.54454132412E+01  0.17412649658E+03  0.17120000000E+03 0.  0.
        998    1    1    2    0    0 -0.16261191342E+02 -0.65133024071E+01  0.14549945365E+04  0.14551343411E+04  0.10000000000E+02 0.  1.
</event>
<event>
 5    1  0.1106231E-008  0.3855764E+03  0.7957747E-01  0.3427231E+00
         13   -1    0    0    0    0  0.00000000000E+00  0.00000000000E+00  0.14999999963E+04  0.15000000000E+04  0.10566000000E+00 0. -1.
        994   -1    0    0    0    0 -0.00000000000E+00 -0.00000000000E+00  0.11368683772E-12  0.17120000000E+03  0.17120000000E+03 0.  0.
         13    1    1    2    0    0  0.40316577337E+01  0.10185486373E+02  0.44872057164E+02  0.46189945604E+02  0.10566000000E+00 0. -1.
        994    1    1    2    0    0  0.10817984165E+01 -0.82991011380E+01  0.15741790030E+01  0.17141167815E+03  0.17120000000E+03 0.  0.
        998    1    1    2    0    0 -0.51134561502E+01 -0.18863852350E+01  0.14535537601E+04  0.14535983762E+04  0.10000000000E+02 0.  0.
</event>
<event>
 5    1  0.1106231E-008  0.3844260E+03  0.7957747E-01  0.3432110E+00
         13   -1    0    0    0    0  0.00000000000E+00  0.00000000000E+00  0.14999999963E+04  0.15000000000E+04  0.10566000000E+00 0.  1.
        994   -1    0    0    0    0 -0.00000000000E+00 -0.00000000000E+00  0.11368683772E-12  0.17120000000E+03  0.17120000000E+03 0.  0.
         13    1    1    2    0    0  0.11878184421E+02 -0.75035103640E+00  0.40711655427E+02  0.42415850144E+02  0.10566000000E+00 0.  1.
        994    1    1    2    0    0  0.14241557501E+02 -0.62171854044E+00  0.25852176723E+01  0.17181190833E+03  0.17120000000E+03 0.  0.
        998    1    1    2    0    0 -0.26119741921E+02  0.13720695768E+01  0.14567031232E+04  0.14569722415E+04  0.10000000000E+02 0.  1.
</event>
<event>
 5    1  0.1106231E-008  0.3840635E+03  0.7957747E-01  0.3433654E+00
         13   -1    0    0    0    0  0.00000000000E+00  0.00000000000E+00  0.14999999963E+04  0.15000000000E+04  0.10566000000E+00 0. -1.
        994   -1    0    0    0    0 -0.00000000000E+00 -0.00000000000E+00  0.11368683772E-12  0.17120000000E+03  0.17120000000E+03 0.  0.
         13    1    1    2    0    0 -0.16649641922E+02 -0.13760900739E+02  0.11000944143E+03  0.11211004118E+03  0.10566000000E+00 0. -1.
        994    1    1    2    0    0  0.11209398837E+02  0.92777208013E+01  0.27945233131E+01  0.17183997232E+03  0.17120000000E+03 0.  0.
        998    1    1    2    0    0  0.54402430851E+01  0.44831799373E+01  0.13871960315E+04  0.13872499865E+04  0.10000000000E+02 0. -1.
</event>
<event>
 5    1  0.1106231E-008  0.3950134E+03  0.7957747E-01  0.3388284E+00
         13   -1    0    0    0    0  0.00000000000E+00  0.00000000000E+00  0.14999999963E+04  0.15000000000E+04  0.10566000000E+00 0.  1.
        994   -1    0    0    0    0 -0.00000000000E+00 -0.00000000000E+00  0.11368683772E-12  0.17120000000E+03  0.17120000000E+03 0.  0.
         13    1    1    2    0    0 -0.39889946420E+02  0.56048183336E+01  0.22667259674E+02  0.46221614415E+02  0.10566000000E+00 0.  1.
        994    1    1    2    0    0  0.27815813671E+02 -0.48292975990E+02  0.36846402868E+02  0.18377439545E+03  0.17120000000E+03 0.  0.
        998    1    1    2    0    0  0.12074132749E+02  0.42688157657E+02  0.14404863337E+04  0.14412039901E+04  0.10000000000E+02 0.  1.
</event>
<event>
 5    1  0.1106231E-008  0.3790034E+03  0.7957747E-01  0.3455510E+00
         13   -1    0    0    0    0  0.00000000000E+00  0.00000000000E+00  0.14999999963E+04  0.15000000000E+04  0.10566000000E+00 0.  1.
        994   -1    0    0    0    0 -0.00000000000E+00 -0.00000000000E+00  0.11368683772E-12  0.17120000000E+03  0.17120000000E+03 0.  0.
         13    1    1    2    0    0 -0.21421195595E+02 -0.73654859009E+01  0.50788430426E+02  0.55611094509E+02  0.10566000000E+00 0.  1.
        994    1    1    2    0    0  0.27506298281E+02  0.10677462348E+02  0.75625652554E+01  0.17388857651E+03  0.17120000000E+03 0.  0.
        998    1    1    2    0    0 -0.60851026860E+01 -0.33119764467E+01  0.14416490006E+04  0.14417003290E+04  0.10000000000E+02 0.  1.
</event>
<event>
 5    1  0.1106231E-008  0.3840808E+03  0.7957747E-01  0.3433580E+00
         13   -1    0    0    0    0  0.00000000000E+00  0.00000000000E+00  0.14999999963E+04  0.15000000000E+04  0.10566000000E+00 0.  1.
        994   -1    0    0    0    0 -0.00000000000E+00 -0.00000000000E+00  0.11368683772E-12  0.17120000000E+03  0.17120000000E+03 0.  0.
         13    1    1    2    0    0  0.12460929447E+01 -0.10266237393E+02  0.24246960219E+02  0.26360474611E+02  0.10566000000E+00 0.  1.
        994    1    1    2    0    0 -0.92736211511E+01  0.14611034714E+02  0.30756682176E+01  0.17209991900E+03  0.17120000000E+03 0.  0.
        998    1    1    2    0    0  0.80275282064E+01 -0.43447973208E+01  0.14726773678E+04  0.14727396064E+04  0.10000000000E+02 0.  1.
</event>
<event>
 5    1  0.1106231E-008  0.3794526E+03  0.7957747E-01  0.3453545E+00
         13   -1    0    0    0    0  0.00000000000E+00  0.00000000000E+00  0.14999999963E+04  0.15000000000E+04  0.10566000000E+00 0. -1.
        994   -1    0    0    0    0 -0.00000000000E+00 -0.00000000000E+00  0.11368683772E-12  0.17120000000E+03  0.17120000000E+03 0.  0.
         13    1    1    2    0    0  0.84183499187E+01  0.10776011753E+02  0.19356468679E+02  0.23699685407E+02  0.10566000000E+00 0. -1.
        994    1    1    2    0    0 -0.11832276015E+02 -0.26547401309E+01  0.49023199875E+01  0.17169893169E+03  0.17120000000E+03 0.  0.
        998    1    1    2    0    0  0.34139260961E+01 -0.81212716221E+01  0.14757412076E+04  0.14758013829E+04  0.10000000000E+02 0. -1.
</event>
<event>
 5    1  0.1106231E-008  0.3766917E+03  0.7957747E-01  0.3465691E+00
         13   -1    0    0    0    0  0.00000000000E+00  0.00000000000E+00  0.14999999963E+04  0.15000000000E+04  0.10566000000E+00 0.  1.
        994   -1    0    0    0    0 -0.00000000000E+00 -0.00000000000E+00  0.11368683772E-12  0.17120000000E+03  0.17120000000E+03 0.  0.
         13    1    1    2    0    0  0.30889324630E+02  0.39603257712E+02  0.23819016992E+03  0.24342788790E+03  0.10566000000E+00 0.  1.
        994    1    1    2    0    0 -0.10428385477E+02 -0.10230005985E+02  0.65341744458E+01  0.17194632791E+03  0.17120000000E+03 0.  0.
        998    1    1    2    0    0 -0.20460939153E+02 -0.29373251727E+02  0.12552756519E+04  0.12558257842E+04  0.10000000000E+02 0.  1.
</event>
<event>
 5    1  0.1106231E-008  0.3819207E+03  0.7957747E-01  0.3442838E+00
         13   -1    0    0    0    0  0.00000000000E+00  0.00000000000E+00  0.14999999963E+04  0.15000000000E+04  0.10566000000E+00 0.  1.
        994   -1    0    0    0    0 -0.00000000000E+00 -0.00000000000E+00  0.11368683772E-12  0.17120000000E+03  0.17120000000E+03 0.  0.
         13    1    1    2    0    0 -0.40063800540E+01  0.15472563342E+02  0.38556507188E+02  0.41738072645E+02  0.10566000000E+00 0.  1.
        994    1    1    2    0    0  0.76353689161E+01 -0.13723739813E+02  0.39864654780E+01  0.17196503075E+03  0.17120000000E+03 0.  0.
        998    1    1    2    0    0 -0.36289888621E+01 -0.17488235297E+01  0.14574570236E+04  0.14574968966E+04  0.10000000000E+02 0.  1.
</event>
<event>
 5    1  0.1106231E-008  0.3829380E+03  0.7957747E-01  0.3438465E+00
         13   -1    0    0    0    0  0.00000000000E+00  0.00000000000E+00  0.14999999963E+04  0.15000000000E+04  0.10566000000E+00 0. -1.
        994   -1    0    0    0    0 -0.00000000000E+00 -0.00000000000E+00  0.11368683772E-12  0.17120000000E+03  0.17120000000E+03 0.  0.
         13    1    1    2    0    0 -0.69314548457E-01  0.14387059276E+02  0.36738437058E+02  0.39455243005E+02  0.10566000000E+00 0. -1.
        994    1    1    2    0    0 -0.13786990060E+01 -0.18911316268E+02  0.38486380982E+01  0.17228984506E+03  0.17120000000E+03 0.  0.
        998    1    1    2    0    0  0.14480135545E+01  0.45242569917E+01  0.14594129211E+04  0.14594549119E+04  0.10000000000E+02 0. -1.
</event>
<event>
 5    1  0.1106231E-008  0.3718840E+03  0.7957747E-01  0.3487277E+00
         13   -1    0    0    0    0  0.00000000000E+00  0.00000000000E+00  0.14999999963E+04  0.15000000000E+04  0.10566000000E+00 0. -1.
        994   -1    0    0    0    0 -0.00000000000E+00 -0.00000000000E+00  0.11368683772E-12  0.17120000000E+03  0.17120000000E+03 0.  0.
         13    1    1    2    0    0  0.16720091818E+00  0.10025226178E+02 -0.11286587740E+01  0.10090498041E+02  0.10566000000E+00 0. -1.
        994    1    1    2    0    0 -0.24133476887E+01  0.41285604045E+02  0.17981696787E+02  0.17703984514E+03  0.17120000000E+03 0.  0.
        998    1    1    2    0    0  0.22461467705E+01 -0.51310830222E+02  0.14831469583E+04  0.14840696568E+04  0.10000000000E+02 0. -1.
</event>
<event>
 5    1  0.1106231E-008  0.3697271E+03  0.7957747E-01  0.3497146E+00
         13   -1    0    0    0    0  0.00000000000E+00  0.00000000000E+00  0.14999999963E+04  0.15000000000E+04  0.10566000000E+00 0.  1.
        994   -1    0    0    0    0 -0.00000000000E+00 -0.00000000000E+00  0.11368683772E-12  0.17120000000E+03  0.17120000000E+03 0.  0.
         13    1    1    2    0    0  0.99636838585E+02 -0.57747498115E+02  0.47261526687E+03  0.48644370155E+03  0.10566000000E+00 0.  1.
        994    1    1    2    0    0 -0.98257991058E+02  0.57160313844E+02  0.55562650931E+02  0.21288161608E+03  0.17120000000E+03 0.  0.
        998    1    1    2    0    0 -0.13788475271E+01  0.58718427048E+00  0.97182207848E+03  0.97187468237E+03  0.10000000000E+02 0.  0.
</event>
<event>
 5    1  0.1106231E-008  0.3829656E+03  0.7957747E-01  0.3438347E+00
         13   -1    0    0    0    0  0.00000000000E+00  0.00000000000E+00  0.14999999963E+04  0.15000000000E+04  0.10566000000E+00 0. -1.
        994   -1    0    0    0    0 -0.00000000000E+00 -0.00000000000E+00  0.11368683772E-12  0.17120000000E+03  0.17120000000E+03 0.  0.
         13    1    1    2    0    0 -0.12767420455E+02 -0.82540370511E+01  0.41412380065E+02  0.44114992230E+02  0.10566000000E+00 0. -1.
        994    1    1    2    0    0  0.16309961477E+02  0.90955283215E+01  0.37989442020E+01  0.17225741045E+03  0.17120000000E+03 0.  0.
        998    1    1    2    0    0 -0.35425410227E+01 -0.84149127041E+00  0.14547886720E+04  0.14548275973E+04  0.10000000000E+02 0. -1.
</event>
<event>
 5    1  0.1106231E-008  0.3854597E+03  0.7957747E-01  0.3427725E+00
         13   -1    0    0    0    0  0.00000000000E+00  0.00000000000E+00  0.14999999963E+04  0.15000000000E+04  0.10566000000E+00 0.  1.
        994   -1    0    0    0    0 -0.00000000000E+00 -0.00000000000E+00  0.11368683772E-12  0.17120000000E+03  0.17120000000E+03 0.  0.
         13    1    1    2    0    0 -0.16037000631E+02  0.19770485066E+01  0.84460954547E+02  0.85992779447E+02  0.10566000000E+00 0.  1.
        994    1    1    2    0    0  0.22660577942E+02 -0.12535012501E+02  0.36073483672E+01  0.17318510702E+03  0.17120000000E+03 0.  0.
        998    1    1    2    0    0 -0.66235773108E+01  0.10557963994E+02  0.14119316934E+04  0.14120221135E+04  0.10000000000E+02 0.  1.
</event>
<event>
 5    1  0.1106231E-008  0.3810451E+03  0.7957747E-01  0.3446620E+00
         13   -1    0    0    0    0  0.00000000000E+00  0.00000000000E+00  0.14999999963E+04  0.15000000000E+04  0.10566000000E+00 0. -1.
        994   -1    0    0    0    0 -0.00000000000E+00 -0.00000000000E+00  0.11368683772E-12  0.17120000000E+03  0.17120000000E+03 0.  0.
         13    1    1    2    0    0 -0.47936246770E+01 -0.28796222305E+02  0.10724795608E+03  0.11115006299E+03  0.10566000000E+00 0. -1.
        994    1    1    2    0    0  0.85434316464E+01  0.32162905558E+02  0.73046263636E+01  0.17455726935E+03  0.17120000000E+03 0.  0.
        998    1    1    2    0    0 -0.37498069694E+01 -0.33666832531E+01  0.13854474138E+04  0.13854926677E+04  0.10000000000E+02 0. -1.
</event>
<event>
 5    1  0.1325424E-008  0.3864237E+03  0.7957747E-01  0.3423656E+00
         13   -1    0    0    0    0  0.00000000000E+00  0.00000000000E+00  0.14999999963E+04  0.15000000000E+04  0.10566000000E+00 0.  1.
        994   -1    0    0    0    0 -0.00000000000E+00 -0.00000000000E+00  0.11368683772E-12  0.17120000000E+03  0.17120000000E+03 0.  0.
         13    1    1    2    0    0  0.98291785631E+01  0.28947827674E+01  0.57520768061E+02  0.58426384801E+02  0.10566000000E+00 0.  1.
        994    1    1    2    0    0 -0.90351860099E+01  0.31183405979E+01  0.12240465644E+01  0.17147097983E+03  0.17120000000E+03 0.  0.
        998    1    1    2    0    0 -0.79399255314E+00 -0.60131233653E+01  0.14412551817E+04  0.14413026354E+04  0.10000000000E+02 0.  1.
</event>
<event>
 5    1  0.1106231E-008  0.3823302E+03  0.7957747E-01  0.3441075E+00
         13   -1    0    0    0    0  0.00000000000E+00  0.00000000000E+00  0.14999999963E+04  0.15000000000E+04  0.10566000000E+00 0. -1.
        994   -1    0    0    0    0 -0.00000000000E+00 -0.00000000000E+00  0.11368683772E-12  0.17120000000E+03  0.17120000000E+03 0.  0.
         13    1    1    2    0    0  0.10589250212E+02  0.90031357542E+01  0.31248571925E+02  0.34200483694E+02  0.10566000000E+00 0. -1.
        994    1    1    2    0    0 -0.57563517160E+01 -0.12157576593E+02  0.35619759066E+01  0.17176457704E+03  0.17120000000E+03 0.  0.
        998    1    1    2    0    0 -0.48328984960E+01  0.31544408388E+01  0.14651894484E+04  0.14652349393E+04  0.10000000000E+02 0. -1.
</event>
<event>
 5    1  0.1106231E-008  0.3750633E+03  0.7957747E-01  0.3472940E+00
         13   -1    0    0    0    0  0.00000000000E+00  0.00000000000E+00  0.14999999963E+04  0.15000000000E+04  0.10566000000E+00 0. -1.
        994   -1    0    0    0    0 -0.00000000000E+00 -0.00000000000E+00  0.11368683772E-12  0.17120000000E+03  0.17120000000E+03 0.  0.
         13    1    1    2    0    0  0.60585016074E+01  0.25488429903E+02  0.18488939791E+02  0.32065831648E+02  0.10566000000E+00 0. -1.
        994    1    1    2    0    0 -0.44799517243E+01 -0.39589807733E+02  0.19312744590E+02  0.17683281638E+03  0.17120000000E+03 0.  0.
        998    1    1    2    0    0 -0.15785498831E+01  0.14101377830E+02  0.14621983119E+04  0.14623013520E+04  0.10000000000E+02 0. -1.
</event>
<event>
 5    1  0.1106231E-008  0.3768588E+03  0.7957747E-01  0.3464951E+00
         13   -1    0    0    0    0  0.00000000000E+00  0.00000000000E+00  0.14999999963E+04  0.15000000000E+04  0.10566000000E+00 0. -1.
        994   -1    0    0    0    0 -0.00000000000E+00 -0.00000000000E+00  0.11368683772E-12  0.17120000000E+03  0.17120000000E+03 0.  0.
         13    1    1    2    0    0 -0.12655486068E+02  0.38122422115E+02  0.12741913391E+03  0.13360062592E+03  0.10566000000E+00 0. -1.
        994    1    1    2    0    0  0.40205450330E+02 -0.30545896218E+02  0.14388634845E+02  0.17906982667E+03  0.17120000000E+03 0.  0.
        998    1    1    2    0    0 -0.27549964262E+02 -0.75765258970E+01  0.13581922275E+04  0.13585295474E+04  0.10000000000E+02 0. -1.
</event>
<event>
 5    1  0.1106231E-008  0.3849366E+03  0.7957747E-01  0.3429941E+00
         13   -1    0    0    0    0  0.00000000000E+00  0.00000000000E+00  0.14999999963E+04  0.15000000000E+04  0.10566000000E+00 0.  1.
        994   -1    0    0    0    0 -0.00000000000E+00 -0.00000000000E+00  0.11368683772E-12  0.17120000000E+03  0.17120000000E+03 0.  0.
         13    1    1    2    0    0  0.10677155804E+02  0.45948111992E+01  0.40278087758E+02  0.41921944892E+02  0.10566000000E+00 0.  1.
        994    1    1    2    0    0 -0.35521509412E+01 -0.14691437603E+02  0.24134235679E+01  0.17188286921E+03  0.17120000000E+03 0.  0.
        998    1    1    2    0    0 -0.71250048632E+01  0.10096626404E+02  0.14573084850E+04  0.14573951859E+04  0.10000000000E+02 0.  1.
</event>
<event>
 5    1  0.1106231E-008  0.3728211E+03  0.7957747E-01  0.3483025E+00
         13   -1    0    0    0    0  0.00000000000E+00  0.00000000000E+00  0.14999999963E+04  0.15000000000E+04  0.10566000000E+00 0. -1.
        994   -1    0    0    0    0 -0.00000000000E+00 -0.00000000000E+00  0.11368683772E-12  0.17120000000E+03  0.17120000000E+03 0.  0.
         13    1    1    2    0    0  0.14311728534E+02 -0.31801474217E+02  0.73009229395E+02  0.80910556029E+02  0.10566000000E+00 0. -1.
        994    1    1    2    0    0 -0.79042439854E+01  0.29538993508E+02  0.11010507417E+02  0.17425756937E+03  0.17120000000E+03 0.  0.
        998    1    1    2    0    0 -0.64074845485E+01  0.22624807093E+01  0.14159802595E+04  0.14160318746E+04  0.10000000000E+02 0. -1.
</event>
<event>
 5    1  0.1106231E-008  0.3851296E+03  0.7957747E-01  0.3429123E+00
         13   -1    0    0    0    0  0.00000000000E+00  0.00000000000E+00  0.14999999963E+04  0.15000000000E+04  0.10566000000E+00 0.  1.
        994   -1    0    0    0    0 -0.00000000000E+00 -0.00000000000E+00  0.11368683772E-12  0.17120000000E+03  0.17120000000E+03 0.  0.
         13    1    1    2    0    0  0.52974823491E+01  0.11231229891E+02  0.54752742111E+02  0.56143368058E+02  0.10566000000E+00 0.  1.
        994    1    1    2    0    0  0.28069537465E+01  0.88500836355E+01  0.18492413213E+01  0.17146154864E+03  0.17120000000E+03 0.  0.
        998    1    1    2    0    0 -0.81044360956E+01 -0.20081313527E+02  0.14433980128E+04  0.14435950833E+04  0.10000000000E+02 0.  1.
</event>
<event>
 5    1  0.1106231E-008  0.3771789E+03  0.7957747E-01  0.3463535E+00
         13   -1    0    0    0    0  0.00000000000E+00  0.00000000000E+00  0.14999999963E+04  0.15000000000E+04  0.10566000000E+00 0.  1.
        994   -1    0    0    0    0 -0.00000000000E+00 -0.00000000000E+00  0.11368683772E-12  0.17120000000E+03  0.17120000000E+03 0.  0.
         13    1    1    2    0    0  0.13270568505E+02  0.11703707490E+02  0.25925487277E+02  0.31388322861E+02  0.10566000000E+00 0.  1.
        994    1    1    2    0    0 -0.78721345857E+01 -0.72874868653E+01  0.59524657415E+01  0.17163901018E+03  0.17120000000E+03 0.  0.
        998    1    1    2    0    0 -0.53984339191E+01 -0.44162206250E+01  0.14681220433E+04  0.14681726670E+04  0.10000000000E+02 0.  1.
</event>
<event>
 5    1  0.1106231E-008  0.3819501E+03  0.7957747E-01  0.3442711E+00
         13   -1    0    0    0    0  0.00000000000E+00  0.00000000000E+00  0.14999999963E+04  0.15000000000E+04  0.10566000000E+00 0.  1.
        994   -1    0    0    0    0 -0.00000000000E+00 -0.00000000000E+00  0.11368683772E-12  0.17120000000E+03  0.17120000000E+03 0.  0.
         13    1    1    2    0    0 -0.42756677521E+01 -0.11370234842E+02  0.22052479054E+02  0.25177104114E+02  0.10566000000E+00 0.  1.
        994    1    1    2    0    0  0.24730987933E+01  0.10156185345E+02  0.35149627438E+01  0.17155482879E+03  0.17120000000E+03 0.  0.
        998    1    1    2    0    0  0.18025689588E+01  0.12140494975E+01  0.14744325545E+04  0.14744680671E+04  0.10000000000E+02 0.  1.
</event>
<event>
 5    1  0.1106231E-008  0.3745228E+03  0.7957747E-01  0.3475360E+00
         13   -1    0    0    0    0  0.00000000000E+00  0.00000000000E+00  0.14999999963E+04  0.15000000000E+04  0.10566000000E+00 0. -1.
        994   -1    0    0    0    0 -0.00000000000E+00 -0.00000000000E+00  0.11368683772E-12  0.17120000000E+03  0.17120000000E+03 0.  0.
         13    1    1    2    0    0 -0.28619515303E+02  0.96484376756E+01  0.61740059057E+02  0.68731470682E+02  0.10566000000E+00 0. -1.
        994    1    1    2    0    0  0.23985227489E+02 -0.12079974277E+02  0.93833983389E+01  0.17354741450E+03  0.17120000000E+03 0.  0.
        998    1    1    2    0    0  0.46342878142E+01  0.24315366014E+01  0.14288765389E+04  0.14289211148E+04  0.10000000000E+02 0. -1.
</event>
<event>
 5    1  0.1106231E-008  0.3797194E+03  0.7957747E-01  0.3452381E+00
         13   -1    0    0    0    0  0.00000000000E+00  0.00000000000E+00  0.14999999963E+04  0.15000000000E+04  0.10566000000E+00 0. -1.
        994   -1    0    0    0    0 -0.00000000000E+00 -0.00000000000E+00  0.11368683772E-12  0.17120000000E+03  0.17120000000E+03 0.  0.
         13    1    1    2    0    0  0.71286112351E+01  0.11701842050E+02  0.19610207050E+02  0.23923243720E+02  0.10566000000E+00 0. -1.
        994    1    1    2    0    0 -0.65753865034E+01 -0.19610540833E+02  0.57075936197E+01  0.17253934521E+03  0.17120000000E+03 0.  0.
        998    1    1    2    0    0 -0.55322473174E+00  0.79086987835E+01  0.14746821956E+04  0.14747374111E+04  0.10000000000E+02 0. -1.
</event>
<event>
 5    1  0.1247096E-008  0.3850424E+03  0.7957747E-01  0.3429492E+00
         13   -1    0    0    0    0  0.00000000000E+00  0.00000000000E+00  0.14999999963E+04  0.15000000000E+04  0.10566000000E+00 0. -1.
        994   -1    0    0    0    0 -0.00000000000E+00 -0.00000000000E+00  0.11368683772E-12  0.17120000000E+03  0.17120000000E+03 0.  0.
         13    1    1    2    0    0 -0.96992456372E+01  0.49147097747E+01  0.35890229884E+02  0.37501326687E+02  0.10566000000E+00 0. -1.
        994    1    1    2    0    0  0.10850268444E+02 -0.38317179096E+01  0.20446030435E+01  0.17159845800E+03  0.17120000000E+03 0.  0.
        998    1    1    2    0    0 -0.11510228066E+01 -0.10829918651E+01  0.14620651634E+04  0.14621002153E+04  0.10000000000E+02 0. -1.
</event>
<event>
 5    1  0.1106231E-008  0.3777677E+03  0.7957747E-01  0.3460936E+00
         13   -1    0    0    0    0  0.00000000000E+00  0.00000000000E+00  0.14999999963E+04  0.15000000000E+04  0.10566000000E+00 0.  1.
        994   -1    0    0    0    0 -0.00000000000E+00 -0.00000000000E+00  0.11368683772E-12  0.17120000000E+03  0.17120000000E+03 0.  0.
         13    1    1    2    0    0  0.97240566486E+01  0.38345759426E+02  0.14353945902E+03  0.14889104070E+03  0.10566000000E+00 0.  1.
        994    1    1    2    0    0 -0.41962626959E+01 -0.27234180220E+02  0.78256779535E+01  0.17357992519E+03  0.17120000000E+03 0.  0.
        998    1    1    2    0    0 -0.55277939526E+01 -0.11111579205E+02  0.13486348593E+04  0.13487290341E+04  0.10000000000E+02 0.  1.
</event>
<event>
 5    1  0.1106231E-008  0.3842558E+03  0.7957747E-01  0.3432835E+00
         13   -1    0    0    0    0  0.00000000000E+00  0.00000000000E+00  0.14999999963E+04  0.15000000000E+04  0.10566000000E+00 0.  1.
        994   -1    0    0    0    0 -0.00000000000E+00 -0.00000000000E+00  0.11368683772E-12  0.17120000000E+03  0.17120000000E+03 0.  0.
         13    1    1    2    0    0  0.95797908969E+01  0.12900058535E+02  0.63343528463E+02  0.65349809992E+02  0.10566000000E+00 0.  1.
        994    1    1    2    0    0 -0.79722220140E+01 -0.10149023818E+02  0.25493651526E+01  0.17170468331E+03  0.17120000000E+03 0.  0.
        998    1    1    2    0    0 -0.16075688830E+01 -0.27510347164E+01  0.14341071027E+04  0.14341455067E+04  0.10000000000E+02 0.  1.
</event>
<event>
 5    1  0.1106231E-008  0.3813891E+03  0.7957747E-01  0.3445132E+00
         13   -1    0    0    0    0  0.00000000000E+00  0.00000000000E+00  0.14999999963E+04  0.15000000000E+04  0.10566000000E+00 0. -1.
        994   -1    0    0    0    0 -0.00000000000E+00 -0.00000000000E+00  0.11368683772E-12  0.17120000000E+03  0.17120000000E+03 0.  0.
         13    1    1    2    0    0 -0.77537256081E+01 -0.21953968818E+02  0.73112908700E+02  0.76730734326E+02  0.10566000000E+00 0. -1.
        994    1    1    2    0    0  0.10236838700E+02  0.25675962762E+02  0.59802293810E+01  0.17352017483E+03  0.17120000000E+03 0.  0.
        998    1    1    2    0    0 -0.24831130917E+01 -0.37219939431E+01  0.14209068582E+04  0.14209490908E+04  0.10000000000E+02 0. -1.
</event>
<event>
 5    1  0.1106231E-008  0.3842288E+03  0.7957747E-01  0.3432950E+00
         13   -1    0    0    0    0  0.00000000000E+00  0.00000000000E+00  0.14999999963E+04  0.15000000000E+04  0.10566000000E+00 0.  1.
        994   -1    0    0    0    0 -0.00000000000E+00 -0.00000000000E+00  0.11368683772E-12  0.17120000000E+03  0.17120000000E+03 0.  0.
         13    1    1    2    0    0 -0.22091542197E+02 -0.22257352592E+01  0.12872286055E+03  0.13062379617E+03  0.10566000000E+00 0.  1.
        994    1    1    2    0    0  0.74753775089E+01 -0.19578308326E+01  0.22104263652E+01  0.17138856542E+03  0.17120000000E+03 0.  0.
        998    1    1    2    0    0  0.14616164688E+02  0.41835660918E+01  0.13690667094E+04  0.13691876384E+04  0.10000000000E+02 0.  1.
</event>
<event>
 5    1  0.1106231E-008  0.3839182E+03  0.7957747E-01  0.3434273E+00
         13   -1    0    0    0    0  0.00000000000E+00  0.00000000000E+00  0.14999999963E+04  0.15000000000E+04  0.10566000000E+00 0.  1.
        994   -1    0    0    0    0 -0.00000000000E+00 -0.00000000000E+00  0.11368683772E-12  0.17120000000E+03  0.17120000000E+03 0.  0.
         13    1    1    2    0    0  0.15282417839E+02 -0.48522465863E+01  0.59663700290E+02  0.61780780898E+02  0.10566000000E+00 0.  1.
        994    1    1    2    0    0 -0.73056787405E+01  0.28912756760E+01  0.23719201079E+01  0.17139661147E+03  0.17120000000E+03 0.  0.
        998    1    1    2    0    0 -0.79767390985E+01  0.19609709103E+01  0.14379643759E+04  0.14380226076E+04  0.10000000000E+02 0.  1.
</event>
<event>
 5    1  0.1106231E-008  0.3741421E+03  0.7957747E-01  0.3477069E+00
         13   -1    0    0    0    0  0.00000000000E+00  0.00000000000E+00  0.14999999963E+04  0.15000000000E+04  0.10566000000E+00 0.  1.
        994   -1    0    0    0    0 -0.00000000000E+00 -0.00000000000E+00  0.11368683772E-12  0.17120000000E+03  0.17120000000E+03 0.  0.
         13    1    1    2    0    0 -0.22807380579E+02 -0.56161817731E+02  0.22934829297E+03  0.23722347488E+03  0.10566000000E+00 0.  1.
        994    1    1    2    0    0  0.49330164161E+02  0.37764587296E+02  0.20393810766E+02  0.18326204372E+03  0.17120000000E+03 0.  0.
        998    1    1    2    0    0 -0.26522783582E+02  0.18397230435E+02  0.12502578925E+04  0.12507144814E+04  0.10000000000E+02 0.  1.
</event>
<event>
 5    1  0.1106231E-008  0.3752079E+03  0.7957747E-01  0.3472293E+00
         13   -1    0    0    0    0  0.00000000000E+00  0.00000000000E+00  0.14999999963E+04  0.15000000000E+04  0.10566000000E+00 0.  1.
        994   -1    0    0    0    0 -0.00000000000E+00 -0.00000000000E+00  0.11368683772E-12  0.17120000000E+03  0.17120000000E+03 0.  0.
         13    1    1    2    0    0 -0.34486041473E+02 -0.68897923161E+01  0.91563556510E+02  0.98084924119E+02  0.10566000000E+00 0.  1.
        994    1    1    2    0    0  0.20230494690E+02  0.12067180622E+02  0.84591296872E+01  0.17301990244E+03  0.17120000000E+03 0.  0.
        998    1    1    2    0    0  0.14255546783E+02 -0.51773883058E+01  0.13999773101E+04  0.14000951734E+04  0.10000000000E+02 0.  1.
</event>
<event>
 5    1  0.1106231E-008  0.3853762E+03  0.7957747E-01  0.3428078E+00
         13   -1    0    0    0    0  0.00000000000E+00  0.00000000000E+00  0.14999999963E+04  0.15000000000E+04  0.10566000000E+00 0.  1.
        994   -1    0    0    0    0 -0.00000000000E+00 -0.00000000000E+00  0.11368683772E-12  0.17120000000E+03  0.17120000000E+03 0.  0.
         13    1    1    2    0    0 -0.86284595595E+01  0.12948215136E+02  0.88022232720E+02  0.89386974479E+02  0.10566000000E+00 0.  1.
        994    1    1    2    0    0 -0.64444649319E+01 -0.98642164972E+01  0.18996327345E+01  0.17161550775E+03  0.17120000000E+03 0.  0.
        998    1    1    2    0    0  0.15072924491E+02 -0.30839986390E+01  0.14100781308E+04  0.14101975178E+04  0.10000000000E+02 0.  1.
</event>
<event>
 5    1  0.1106231E-008  0.3826064E+03  0.7957747E-01  0.3439888E+00
         13   -1    0    0    0    0  0.00000000000E+00  0.00000000000E+00  0.14999999963E+04  0.15000000000E+04  0.10566000000E+00 0. -1.
        994   -1    0    0    0    0 -0.00000000000E+00 -0.00000000000E+00  0.11368683772E-12  0.17120000000E+03  0.17120000000E+03 0.  0.
         13    1    1    2    0    0 -0.15907977565E+02 -0.11258891118E+00  0.41543423293E+02  0.44485319033E+02  0.10566000000E+00 0. -1.
        994    1    1    2    0    0  0.24424448767E+02 -0.12273210164E+02  0.53036072150E+01  0.17344957087E+03  0.17120000000E+03 0.  0.
        998    1    1    2    0    0 -0.85164712023E+01  0.12385799075E+02  0.14531529658E+04  0.14532651101E+04  0.10000000000E+02 0. -1.
</event>
<event>
 5    1  0.1106231E-008  0.3764255E+03  0.7957747E-01  0.3466872E+00
         13   -1    0    0    0    0  0.00000000000E+00  0.00000000000E+00  0.14999999963E+04  0.15000000000E+04  0.10566000000E+00 0.  1.
        994   -1    0    0    0    0 -0.00000000000E+00 -0.00000000000E+00  0.11368683772E-12  0.17120000000E+03  0.17120000000E+03 0.  0.
         13    1    1    2    0    0  0.35520680834E+01 -0.23350295253E+02  0.43464019249E+02  0.49467015368E+02  0.10566000000E+00 0.  1.
        994    1    1    2    0    0 -0.60850303931E+01  0.22887138913E+02  0.78481229143E+01  0.17300832857E+03  0.17120000000E+03 0.  0.
        998    1    1    2    0    0  0.25329623097E+01  0.46315634029E+00  0.14486878541E+04  0.14487246561E+04  0.10000000000E+02 0.  1.
</event>
<event>
 5    1  0.1106231E-008  0.3772049E+03  0.7957747E-01  0.3463420E+00
         13   -1    0    0    0    0  0.00000000000E+00  0.00000000000E+00  0.14999999963E+04  0.15000000000E+04  0.10566000000E+00 0.  1.
        994   -1    0    0    0    0 -0.00000000000E+00 -0.00000000000E+00  0.11368683772E-12  0.17120000000E+03  0.17120000000E+03 0.  0.
         13    1    1    2    0    0  0.10066026479E+03  0.12348570982E+03  0.94496784202E+03  0.95830341910E+03  0.10566000000E+00 0.  1.
        994    1    1    2    0    0 -0.11735744096E+03 -0.10137929918E+03  0.91547751411E+02  0.24847728677E+03  0.17120000000E+03 0.  0.
        998    1    1    2    0    0  0.16697176170E+02 -0.22106410636E+02  0.46348440285E+03  0.46441929414E+03  0.10000000000E+02 0. -1.
</event>
<event>
 5    1  0.1106231E-008  0.3778609E+03  0.7957747E-01  0.3460526E+00
         13   -1    0    0    0    0  0.00000000000E+00  0.00000000000E+00  0.14999999963E+04  0.15000000000E+04  0.10566000000E+00 0.  1.
        994   -1    0    0    0    0 -0.00000000000E+00 -0.00000000000E+00  0.11368683772E-12  0.17120000000E+03  0.17120000000E+03 0.  0.
         13    1    1    2    0    0 -0.57805455838E+02 -0.22603181122E+01  0.27654938513E+03  0.28253522495E+03  0.10566000000E+00 0.  1.
        994    1    1    2    0    0  0.51016231308E+02  0.53301911070E+01  0.14126649348E+02  0.17927651552E+03  0.17120000000E+03 0.  0.
        998    1    1    2    0    0  0.67892245298E+01 -0.30698729948E+01  0.12093239618E+04  0.12093882595E+04  0.10000000000E+02 0.  1.
</event>
<event>
 5    1  0.1106231E-008  0.3859167E+03  0.7957747E-01  0.3425794E+00
         13   -1    0    0    0    0  0.00000000000E+00  0.00000000000E+00  0.14999999963E+04  0.15000000000E+04  0.10566000000E+00 0.  1.
        994   -1    0    0    0    0 -0.00000000000E+00 -0.00000000000E+00  0.11368683772E-12  0.17120000000E+03  0.17120000000E+03 0.  0.
         13    1    1    2    0    0  0.29425540070E+01  0.95594985781E+01  0.43423502683E+02  0.44560682069E+02  0.10566000000E+00 0.  1.
        994    1    1    2    0    0  0.10184351256E+02 -0.85551513871E+01  0.17559922224E+01  0.17172488211E+03  0.17120000000E+03 0.  0.
        998    1    1    2    0    0 -0.13126905263E+02 -0.10043471910E+01  0.14548205014E+04  0.14549144358E+04  0.10000000000E+02 0.  1.
</event>
<event>
 5    1  0.1106231E-008  0.3801236E+03  0.7957747E-01  0.3450620E+00
         13   -1    0    0    0    0  0.00000000000E+00  0.00000000000E+00  0.14999999963E+04  0.15000000000E+04  0.10566000000E+00 0. -1.
        994   -1    0    0    0    0 -0.00000000000E+00 -0.00000000000E+00  0.11368683772E-12  0.17120000000E+03  0.17120000000E+03 0.  0.
         13    1    1    2    0    0 -0.31133521374E+01  0.20970655190E+02  0.52660478930E+02  0.56767935895E+02  0.10566000000E+00 0. -1.
        994    1    1    2    0    0 -0.52698024056E+00 -0.19134382743E+02  0.52960562889E+01  0.17234816658E+03  0.17120000000E+03 0.  0.
        998    1    1    2    0    0  0.36403323780E+01 -0.18362724471E+01  0.14420434611E+04  0.14420838975E+04  0.10000000000E+02 0. -1.
</event>
<event>
 5    1  0.1106231E-008  0.3809813E+03  0.7957747E-01  0.3446897E+00
         13   -1    0    0    0    0  0.00000000000E+00  0.00000000000E+00  0.14999999963E+04  0.15000000000E+04  0.10566000000E+00 0.  1.
        994   -1    0    0    0    0 -0.00000000000E+00 -0.00000000000E+00  0.11368683772E-12  0.17120000000E+03  0.17120000000E+03 0.  0.
         13    1    1    2    0    0 -0.26537149271E+02 -0.91207709550E+01  0.11487975773E+03  0.11825725625E+03  0.10566000000E+00 0.  1.
        994    1    1    2    0    0  0.60831594373E+01 -0.26095627737E+01  0.37846251252E+01  0.17136971154E+03  0.17120000000E+03 0.  0.
        998    1    1    2    0    0  0.20453989833E+02  0.11730333729E+02  0.13813356134E+04  0.13815730322E+04  0.10000000000E+02 0.  1.
</event>
<event>
 5    1  0.1106231E-008  0.3833024E+03  0.7957747E-01  0.3436904E+00
         13   -1    0    0    0    0  0.00000000000E+00  0.00000000000E+00  0.14999999963E+04  0.15000000000E+04  0.10566000000E+00 0.  1.
        994   -1    0    0    0    0 -0.00000000000E+00 -0.00000000000E+00  0.11368683772E-12  0.17120000000E+03  0.17120000000E+03 0.  0.
         13    1    1    2    0    0 -0.11755139264E+02 -0.18250123113E+02  0.99864184956E+02  0.10219646224E+03  0.10566000000E+00 0.  1.
        994    1    1    2    0    0 -0.18127034051E+01  0.73166058583E+01  0.26632353118E+01  0.17138655559E+03  0.17120000000E+03 0.  0.
        998    1    1    2    0    0  0.13567842669E+02  0.10933517255E+02  0.13974725760E+04  0.13976169822E+04  0.10000000000E+02 0.  1.
</event>
<event>
 5    1  0.1106231E-008  0.3735711E+03  0.7957747E-01  0.3479638E+00
         13   -1    0    0    0    0  0.00000000000E+00  0.00000000000E+00  0.14999999963E+04  0.15000000000E+04  0.10566000000E+00 0. -1.
        994   -1    0    0    0    0 -0.00000000000E+00 -0.00000000000E+00  0.11368683772E-12  0.17120000000E+03  0.17120000000E+03 0.  0.
         13    1    1    2    0    0  0.23274572694E+02  0.32342002620E+02  0.62436264382E+02  0.74067598460E+02  0.10566000000E+00 0. -1.
        994    1    1    2    0    0 -0.88444006392E+01  0.12437122434E+02  0.13664638589E+02  0.17242119297E+03  0.17120000000E+03 0.  0.
        998    1    1    2    0    0 -0.14430172055E+02 -0.44779125054E+02  0.14238990933E+04  0.14247112086E+04  0.10000000000E+02 0. -1.
</event>
<event>
 5    1  0.1106231E-008  0.2704352E+03  0.7957747E-01  0.4132667E+00
         13   -1    0    0    0    0  0.00000000000E+00  0.00000000000E+00  0.14999999963E+04  0.15000000000E+04  0.10566000000E+00 0. -1.
        994   -1    0    0    0    0 -0.00000000000E+00 -0.00000000000E+00  0.11368683772E-12  0.17120000000E+03  0.17120000000E+03 0.  0.
         13    1    1    2    0    0 -0.99866166571E+01 -0.11659347385E+03  0.65201944883E+03  0.66243727513E+03  0.10566000000E+00 0. -1.
        994    1    1    2    0    0  0.51744487284E+02 -0.32335516963E+01  0.30534242080E+02  0.18146550019E+03  0.17120000000E+03 0.  0.
        998    1    1    2    0    0 -0.41757870627E+02  0.11982702554E+03  0.81744630537E+03  0.82729722468E+03  0.10000000000E+02 0. -1.
</event>
<event>
 5    1  0.1106231E-008  0.3855573E+03  0.7957747E-01  0.3427312E+00
         13   -1    0    0    0    0  0.00000000000E+00  0.00000000000E+00  0.14999999963E+04  0.15000000000E+04  0.10566000000E+00 0. -1.
        994   -1    0    0    0    0 -0.00000000000E+00 -0.00000000000E+00  0.11368683772E-12  0.17120000000E+03  0.17120000000E+03 0.  0.
         13    1    1    2    0    0 -0.24035025636E+01 -0.16995326549E+02  0.10067818373E+03  0.10213092476E+03  0.10566000000E+00 0. -1.
        994    1    1    2    0    0 -0.30819569984E+01  0.21451488045E+02  0.28969741077E+01  0.17259054800E+03  0.17120000000E+03 0.  0.
        998    1    1    2    0    0  0.54854595619E+01 -0.44561614954E+01  0.13964248384E+04  0.13964785272E+04  0.10000000000E+02 0. -1.
</event>
<event>
 5    1  0.1106231E-008  0.3830793E+03  0.7957747E-01  0.3437859E+00
         13   -1    0    0    0    0  0.00000000000E+00  0.00000000000E+00  0.14999999963E+04  0.15000000000E+04  0.10566000000E+00 0. -1.
        994   -1    0    0    0    0 -0.00000000000E+00 -0.00000000000E+00  0.11368683772E-12  0.17120000000E+03  0.17120000000E+03 0.  0.
         13    1    1    2    0    0 -0.14174118435E+02 -0.70156202799E+01  0.47716351526E+02  0.50269134947E+02  0.10566000000E+00 0. -1.
        994    1    1    2    0    0  0.88666308835E+01  0.41773457536E+01  0.29047140998E+01  0.17150494082E+03  0.17120000000E+03 0.  0.
        998    1    1    2    0    0  0.53074875511E+01  0.28382745263E+01  0.14493789307E+04  0.14494259242E+04  0.10000000000E+02 0. -1.
</event>
<event>
 5    1  0.1106231E-008  0.3860773E+03  0.7957747E-01  0.3425116E+00
         13   -1    0    0    0    0  0.00000000000E+00  0.00000000000E+00  0.14999999963E+04  0.15000000000E+04  0.10566000000E+00 0. -1.
        994   -1    0    0    0    0 -0.00000000000E+00 -0.00000000000E+00  0.11368683772E-12  0.17120000000E+03  0.17120000000E+03 0.  0.
         13    1    1    2    0    0  0.27574937046E+01  0.10286401735E+02  0.57463242404E+02  0.58441844802E+02  0.10566000000E+00 0. -1.
        994    1    1    2    0    0  0.14202120369E+02  0.14842086630E+01  0.17647321036E+01  0.17180354297E+03  0.17120000000E+03 0.  0.
        998    1    1    2    0    0 -0.16959614073E+02 -0.11770610398E+02  0.14407720218E+04  0.14409546122E+04  0.10000000000E+02 0. -1.
</event>
<event>
 5    1  0.1106231E-008  0.3742712E+03  0.7957747E-01  0.3476489E+00
         13   -1    0    0    0    0  0.00000000000E+00  0.00000000000E+00  0.14999999963E+04  0.15000000000E+04  0.10566000000E+00 0.  1.
        994   -1    0    0    0    0 -0.00000000000E+00 -0.00000000000E+00  0.11368683772E-12  0.17120000000E+03  0.17120000000E+03 0.  0.
         13    1    1    2    0    0  0.16075847599E+02  0.60724370469E+02  0.22221213501E+03  0.23092017269E+03  0.10566000000E+00 0.  1.
        994    1    1    2    0    0 -0.56755395723E+01 -0.74144415219E+02  0.26136344822E+02  0.18847321979E+03  0.17120000000E+03 0.  0.
        998    1    1    2    0    0 -0.10400308027E+02  0.13420044750E+02  0.12516515164E+04  0.12518066075E+04  0.10000000000E+02 0.  1.
</event>
<event>
 5    1  0.1106231E-008  0.3699504E+03  0.7957747E-01  0.3496119E+00
         13   -1    0    0    0    0  0.00000000000E+00  0.00000000000E+00  0.14999999963E+04  0.15000000000E+04  0.10566000000E+00 0.  1.
        994   -1    0    0    0    0 -0.00000000000E+00 -0.00000000000E+00  0.11368683772E-12  0.17120000000E+03  0.17120000000E+03 0.  0.
         13    1    1    2    0    0 -0.66971446327E+02  0.90928679978E+02  0.41032954774E+03  0.42558612334E+03  0.10566000000E+00 0.  1.
        994    1    1    2    0    0  0.64989698303E+02 -0.92779262616E+02  0.57215941714E+02  0.21310738242E+03  0.17120000000E+03 0.  0.
        998    1    1    2    0    0  0.19817480240E+01  0.18505826381E+01  0.10324545068E+04  0.10325064942E+04  0.10000000000E+02 0.  1.
</event>
<event>
 5    1  0.1106231E-008  0.3776226E+03  0.7957747E-01  0.3461576E+00
         13   -1    0    0    0    0  0.00000000000E+00  0.00000000000E+00  0.14999999963E+04  0.15000000000E+04  0.10566000000E+00 0. -1.
        994   -1    0    0    0    0 -0.00000000000E+00 -0.00000000000E+00  0.11368683772E-12  0.17120000000E+03  0.17120000000E+03 0.  0.
         13    1    1    2    0    0 -0.17181347854E+02  0.31516856436E+02  0.11691529748E+03  0.12230171259E+03  0.10566000000E+00 0. -1.
        994    1    1    2    0    0  0.14386036536E+02 -0.20412276585E+02  0.74421347386E+01  0.17317171955E+03  0.17120000000E+03 0.  0.
        998    1    1    2    0    0  0.27953113179E+01 -0.11104579852E+02  0.13756425641E+04  0.13757265679E+04  0.10000000000E+02 0. -1.
</event>
<event>
 5    1  0.1106231E-008  0.2495587E+03  0.7957747E-01  0.4338282E+00
         13   -1    0    0    0    0  0.00000000000E+00  0.00000000000E+00  0.14999999963E+04  0.15000000000E+04  0.10566000000E+00 0. -1.
        994   -1    0    0    0    0 -0.00000000000E+00 -0.00000000000E+00  0.11368683772E-12  0.17120000000E+03  0.17120000000E+03 0.  0.
         13    1    1    2    0    0  0.12307865978E+03 -0.61140619366E+02  0.96993516379E+02  0.16820905212E+03  0.10566000000E+00 0. -1.
        994    1    1    2    0    0 -0.22197063307E+03  0.92116166913E+02  0.41328832344E+03  0.50781200108E+03  0.17120000000E+03 0.  0.
        998    1    1    2    0    0  0.98891973289E+02 -0.30975547546E+02  0.98971815646E+03  0.99517894680E+03  0.10000000000E+02 0. -1.
</event>
<event>
 5    1  0.1106231E-008  0.3786656E+03  0.7957747E-01  0.3456989E+00
         13   -1    0    0    0    0  0.00000000000E+00  0.00000000000E+00  0.14999999963E+04  0.15000000000E+04  0.10566000000E+00 0. -1.
        994   -1    0    0    0    0 -0.00000000000E+00 -0.00000000000E+00  0.11368683772E-12  0.17120000000E+03  0.17120000000E+03 0.  0.
         13    1    1    2    0    0  0.24295595468E+02 -0.33416717713E+02  0.21868787481E+03  0.22255639900E+03  0.10566000000E+00 0. -1.
        994    1    1    2    0    0  0.13319644157E+02  0.37546898093E+01  0.54515579954E+01  0.17184490129E+03  0.17120000000E+03 0.  0.
        998    1    1    2    0    0 -0.37615239625E+02  0.29662027904E+02  0.12758605635E+04  0.12767986997E+04  0.10000000000E+02 0. -1.
</event>
<event>
 5    1  0.1106231E-008  0.3848620E+03  0.7957747E-01  0.3430258E+00
         13   -1    0    0    0    0  0.00000000000E+00  0.00000000000E+00  0.14999999963E+04  0.15000000000E+04  0.10566000000E+00 0.  1.
        994   -1    0    0    0    0 -0.00000000000E+00 -0.00000000000E+00  0.11368683772E-12  0.17120000000E+03  0.17120000000E+03 0.  0.
         13    1    1    2    0    0 -0.12621539519E+02  0.74567157703E+01  0.61948622673E+02  0.63659633089E+02  0.10566000000E+00 0.  1.
        994    1    1    2    0    0  0.12409169273E+02 -0.44770787303E+01  0.22714796845E+01  0.17172254172E+03  0.17120000000E+03 0.  0.
        998    1    1    2    0    0  0.21237024568E+00 -0.29796370399E+01  0.14357798939E+04  0.14358178252E+04  0.10000000000E+02 0.  1.
</event>
<event>
 5    1  0.1106231E-008  0.3807528E+03  0.7957747E-01  0.3447887E+00
         13   -1    0    0    0    0  0.00000000000E+00  0.00000000000E+00  0.14999999963E+04  0.15000000000E+04  0.10566000000E+00 0.  1.
        994   -1    0    0    0    0 -0.00000000000E+00 -0.00000000000E+00  0.11368683772E-12  0.17120000000E+03  0.17120000000E+03 0.  0.
         13    1    1    2    0    0  0.57957683053E+02 -0.28767713197E+01  0.34956036579E+03  0.35434422436E+03  0.10566000000E+00 0.  1.
        994    1    1    2    0    0 -0.62320134200E+02 -0.35634009337E+02  0.21134289982E+02  0.18684132295E+03  0.17120000000E+03 0.  0.
        998    1    1    2    0    0  0.43624511468E+01  0.38510780657E+02  0.11293053405E+04  0.11300144527E+04  0.10000000000E+02 0.  1.
</event>
<event>
 5    1  0.1106231E-008  0.3801077E+03  0.7957747E-01  0.3450690E+00
         13   -1    0    0    0    0  0.00000000000E+00  0.00000000000E+00  0.14999999963E+04  0.15000000000E+04  0.10566000000E+00 0. -1.
        994   -1    0    0    0    0 -0.00000000000E+00 -0.00000000000E+00  0.11368683772E-12  0.17120000000E+03  0.17120000000E+03 0.  0.
         13    1    1    2    0    0 -0.11138907727E+02  0.30763658295E+02  0.11780840104E+03  0.12226736464E+03  0.10566000000E+00 0. -1.
        994    1    1    2    0    0  0.74921424944E+01 -0.36750653641E+02  0.87940768861E+01  0.17548082098E+03  0.17120000000E+03 0.  0.
        998    1    1    2    0    0  0.36467652322E+01  0.59869953466E+01  0.13733975184E+04  0.13734518144E+04  0.10000000000E+02 0. -1.
</event>
<event>
 5    1  0.1106231E-008  0.3721680E+03  0.7957747E-01  0.3485986E+00
         13   -1    0    0    0    0  0.00000000000E+00  0.00000000000E+00  0.14999999963E+04  0.15000000000E+04  0.10566000000E+00 0. -1.
        994   -1    0    0    0    0 -0.00000000000E+00 -0.00000000000E+00  0.11368683772E-12  0.17120000000E+03  0.17120000000E+03 0.  0.
         13    1    1    2    0    0  0.11477076805E+02  0.30511998467E+02  0.69285313948E+02  0.76571347352E+02  0.10566000000E+00 0. -1.
        994    1    1    2    0    0  0.11179963418E+01  0.11336011544E+02  0.85857209180E+01  0.17179321779E+03  0.17120000000E+03 0.  0.
        998    1    1    2    0    0 -0.12595073147E+02 -0.41848010011E+02  0.14221289614E+04  0.14228354349E+04  0.10000000000E+02 0. -1.
</event>
<event>
 5    1  0.1106231E-008  0.3809328E+03  0.7957747E-01  0.3447107E+00
         13   -1    0    0    0    0  0.00000000000E+00  0.00000000000E+00  0.14999999963E+04  0.15000000000E+04  0.10566000000E+00 0. -1.
        994   -1    0    0    0    0 -0.00000000000E+00 -0.00000000000E+00  0.11368683772E-12  0.17120000000E+03  0.17120000000E+03 0.  0.
         13    1    1    2    0    0 -0.38116487996E+02  0.36319810591E+02  0.30127093279E+03  0.30583685423E+03  0.10566000000E+00 0. -1.
        994    1    1    2    0    0  0.35661308463E+02 -0.40243997725E+02  0.13359410112E+02  0.17994227439E+03  0.17120000000E+03 0.  0.
        998    1    1    2    0    0  0.24551795337E+01  0.39241871331E+01  0.11853696534E+04  0.11854208714E+04  0.10000000000E+02 0. -1.
</event>
<event>
 5    1  0.1106231E-008  0.3855253E+03  0.7957747E-01  0.3427447E+00
         13   -1    0    0    0    0  0.00000000000E+00  0.00000000000E+00  0.14999999963E+04  0.15000000000E+04  0.10566000000E+00 0.  1.
        994   -1    0    0    0    0 -0.00000000000E+00 -0.00000000000E+00  0.11368683772E-12  0.17120000000E+03  0.17120000000E+03 0.  0.
         13    1    1    2    0    0  0.11946032802E+02 -0.70661226106E+01  0.69700436548E+02  0.71068979221E+02  0.10566000000E+00 0.  1.
        994    1    1    2    0    0 -0.11460196685E+02  0.26169882873E+01  0.18233408060E+01  0.17161278888E+03  0.17120000000E+03 0.  0.
        998    1    1    2    0    0 -0.48583611714E+00  0.44491343233E+01  0.14284762189E+04  0.14285182319E+04  0.10000000000E+02 0.  1.
</event>
<event>
 5    1  0.1106231E-008  0.3861734E+03  0.7957747E-01  0.3424711E+00
         13   -1    0    0    0    0  0.00000000000E+00  0.00000000000E+00  0.14999999963E+04  0.15000000000E+04  0.10566000000E+00 0. -1.
        994   -1    0    0    0    0 -0.00000000000E+00 -0.00000000000E+00  0.11368683772E-12  0.17120000000E+03  0.17120000000E+03 0.  0.
         13    1    1    2    0    0 -0.60584987956E+01 -0.84718903485E+01  0.51078730426E+02  0.52129897369E+02  0.10566000000E+00 0. -1.
        994    1    1    2    0    0  0.16299919507E+02  0.20702229420E+01  0.19336548193E+01  0.17199753551E+03  0.17120000000E+03 0.  0.
        998    1    1    2    0    0 -0.10241420711E+02  0.64016674065E+01  0.14469876110E+04  0.14470725671E+04  0.10000000000E+02 0. -1.
</event>
<event>
 5    1  0.1106231E-008  0.3762238E+03  0.7957747E-01  0.3467768E+00
         13   -1    0    0    0    0  0.00000000000E+00  0.00000000000E+00  0.14999999963E+04  0.15000000000E+04  0.10566000000E+00 0. -1.
        994   -1    0    0    0    0 -0.00000000000E+00 -0.00000000000E+00  0.11368683772E-12  0.17120000000E+03  0.17120000000E+03 0.  0.
         13    1    1    2    0    0 -0.40028202647E+02 -0.41079234509E+02  0.32568662084E+03  0.33069857374E+03  0.10566000000E+00 0. -1.
        994    1    1    2    0    0  0.21455116276E+02 -0.50287931188E+01  0.76972606219E+01  0.17278396510E+03  0.17120000000E+03 0.  0.
        998    1    1    2    0    0  0.18573086371E+02  0.46108027628E+02  0.11666161148E+04  0.11677174612E+04  0.10000000000E+02 0. -1.
</event>
<event>
 5    1  0.1106231E-008  0.3800574E+03  0.7957747E-01  0.3450909E+00
         13   -1    0    0    0    0  0.00000000000E+00  0.00000000000E+00  0.14999999963E+04  0.15000000000E+04  0.10566000000E+00 0.  1.
        994   -1    0    0    0    0 -0.00000000000E+00 -0.00000000000E+00  0.11368683772E-12  0.17120000000E+03  0.17120000000E+03 0.  0.
         13    1    1    2    0    0 -0.18476276148E+02  0.74994629744E+00  0.37677187128E+02  0.41970427609E+02  0.10566000000E+00 0.  1.
        994    1    1    2    0    0  0.30513616579E+02 -0.60947349771E+01  0.73470368641E+01  0.17415982758E+03  0.17120000000E+03 0.  0.
        998    1    1    2    0    0 -0.12037340431E+02  0.53447886797E+01  0.14549757723E+04  0.14550697448E+04  0.10000000000E+02 0.  1.
</event>
<event>
 5    1  0.1106231E-008  0.3766783E+03  0.7957747E-01  0.3465751E+00
         13   -1    0    0    0    0  0.00000000000E+00  0.00000000000E+00  0.14999999963E+04  0.15000000000E+04  0.10566000000E+00 0.  1.
        994   -1    0    0    0    0 -0.00000000000E+00 -0.00000000000E+00  0.11368683772E-12  0.17120000000E+03  0.17120000000E+03 0.  0.
         13    1    1    2    0    0  0.18166763246E+02 -0.23134866233E+02  0.77417310825E+02  0.82817295910E+02  0.10566000000E+00 0.  1.
        994    1    1    2    0    0 -0.11965728204E+02 -0.80734725815E+01  0.65239829574E+01  0.17193127105E+03  0.17120000000E+03 0.  0.
        998    1    1    2    0    0 -0.62010350420E+01  0.31208338815E+02  0.14160587025E+04  0.14164514330E+04  0.10000000000E+02 0.  1.
</event>
<event>
 5    1  0.1106231E-008  0.3764048E+03  0.7957747E-01  0.3466964E+00
         13   -1    0    0    0    0  0.00000000000E+00  0.00000000000E+00  0.14999999963E+04  0.15000000000E+04  0.10566000000E+00 0. -1.
        994   -1    0    0    0    0 -0.00000000000E+00 -0.00000000000E+00  0.11368683772E-12  0.17120000000E+03  0.17120000000E+03 0.  0.
         13    1    1    2    0    0  0.44672876197E+02 -0.91944725501E+01  0.19510301358E+03  0.20036317343E+03  0.10566000000E+00 0. -1.
        994    1    1    2    0    0 -0.58720205177E+01  0.63313103253E+01  0.62114283668E+01  0.17153013717E+03  0.17120000000E+03 0.  0.
        998    1    1    2    0    0 -0.38800855679E+02  0.28631622248E+01  0.12986855543E+04  0.12993066894E+04  0.10000000000E+02 0. -1.
</event>
<event>
 5    1  0.1106231E-008  0.3755656E+03  0.7957747E-01  0.3470697E+00
         13   -1    0    0    0    0  0.00000000000E+00  0.00000000000E+00  0.14999999963E+04  0.15000000000E+04  0.10566000000E+00 0.  1.
        994   -1    0    0    0    0 -0.00000000000E+00 -0.00000000000E+00  0.11368683772E-12  0.17120000000E+03  0.17120000000E+03 0.  0.
         13    1    1    2    0    0  0.27214261558E+02  0.29598667266E+02  0.12397325470E+03  0.13033064176E+03  0.10566000000E+00 0.  1.
        994    1    1    2    0    0 -0.21754217994E+02 -0.13595401782E+02  0.86244905740E+01  0.17332600148E+03  0.17120000000E+03 0.  0.
        998    1    1    2    0    0 -0.54600435639E+01 -0.16003265484E+02  0.13674022510E+04  0.13675433568E+04  0.10000000000E+02 0.  1.
</event>
<event>
 5    1  0.1106231E-008  0.3814249E+03  0.7957747E-01  0.3444978E+00
         13   -1    0    0    0    0  0.00000000000E+00  0.00000000000E+00  0.14999999963E+04  0.15000000000E+04  0.10566000000E+00 0. -1.
        994   -1    0    0    0    0 -0.00000000000E+00 -0.00000000000E+00  0.11368683772E-12  0.17120000000E+03  0.17120000000E+03 0.  0.
         13    1    1    2    0    0  0.17311559531E+01  0.10789889942E+02  0.15966705307E+02  0.19348526257E+02  0.10566000000E+00 0. -1.
        994    1    1    2    0    0 -0.78762492660E+01 -0.88826177669E+01  0.38846628042E+01  0.17165508092E+03  0.17120000000E+03 0.  0.
        998    1    1    2    0    0  0.61450933129E+01 -0.19072721754E+01  0.14801486282E+04  0.14801963928E+04  0.10000000000E+02 0. -1.
</event>
<event>
 5    1  0.1106231E-008  0.3835634E+03  0.7957747E-01  0.3435788E+00
         13   -1    0    0    0    0  0.00000000000E+00  0.00000000000E+00  0.14999999963E+04  0.15000000000E+04  0.10566000000E+00 0.  1.
        994   -1    0    0    0    0 -0.00000000000E+00 -0.00000000000E+00  0.11368683772E-12  0.17120000000E+03  0.17120000000E+03 0.  0.
         13    1    1    2    0    0  0.10659031737E+02  0.35238781539E+01  0.26428543122E+02  0.28714312292E+02  0.10566000000E+00 0.  1.
        994    1    1    2    0    0 -0.11131026912E+01 -0.10722190989E+02  0.27291028124E+01  0.17156075419E+03  0.17120000000E+03 0.  0.
        998    1    1    2    0    0 -0.95459290459E+01  0.71983128350E+01  0.14708423503E+04  0.14709249335E+04  0.10000000000E+02 0.  1.
</event>
<event>
 5    1  0.1106231E-008  0.3744283E+03  0.7957747E-01  0.3475784E+00
         13   -1    0    0    0    0  0.00000000000E+00  0.00000000000E+00  0.14999999963E+04  0.15000000000E+04  0.10566000000E+00 0.  1.
        994   -1    0    0    0    0 -0.00000000000E+00 -0.00000000000E+00  0.11368683772E-12  0.17120000000E+03  0.17120000000E+03 0.  0.
         13    1    1    2    0    0 -0.11046700381E+01  0.19130252496E+02  0.23103280776E+02  0.30015989124E+02  0.10566000000E+00 0.  1.
        994    1    1    2    0    0 -0.27577814213E+01 -0.18434066189E+02  0.81567245810E+01  0.17240473401E+03  0.17120000000E+03 0.  0.
        998    1    1    2    0    0  0.38624514594E+01 -0.69618630646E+00  0.14687399909E+04  0.14687792769E+04  0.10000000000E+02 0.  1.
</event>
<event>
 5    1  0.1106231E-008  0.3786217E+03  0.7957747E-01  0.3457182E+00
         13   -1    0    0    0    0  0.00000000000E+00  0.00000000000E+00  0.14999999963E+04  0.15000000000E+04  0.10566000000E+00 0. -1.
        994   -1    0    0    0    0 -0.00000000000E+00 -0.00000000000E+00  0.11368683772E-12  0.17120000000E+03  0.17120000000E+03 0.  0.
         13    1    1    2    0    0 -0.25720454078E+02  0.16605817677E+02  0.94346803368E+02  0.99189845289E+02  0.10566000000E+00 0. -1.
        994    1    1    2    0    0  0.15005250501E+02 -0.15289813118E+02  0.63732275838E+01  0.17265281335E+03  0.17120000000E+03 0.  0.
        998    1    1    2    0    0  0.10715203578E+02 -0.13160045590E+01  0.13992799653E+04  0.13993573414E+04  0.10000000000E+02 0. -1.
</event>
<event>
 5    1  0.1106231E-008  0.3702041E+03  0.7957747E-01  0.3494953E+00
         13   -1    0    0    0    0  0.00000000000E+00  0.00000000000E+00  0.14999999963E+04  0.15000000000E+04  0.10566000000E+00 0.  1.
        994   -1    0    0    0    0 -0.00000000000E+00 -0.00000000000E+00  0.11368683772E-12  0.17120000000E+03  0.17120000000E+03 0.  0.
         13    1    1    2    0    0  0.84954059203E+02 -0.41514215610E+02  0.53900582850E+03  0.54723661847E+03  0.10566000000E+00 0.  1.
        994    1    1    2    0    0 -0.39899806624E+02  0.19349383855E+02  0.15987549824E+02  0.17757092942E+03  0.17120000000E+03 0.  0.
        998    1    1    2    0    0 -0.45054252579E+02  0.22164831755E+02  0.94500661796E+03  0.94639245212E+03  0.10000000000E+02 0.  1.
</event>
<event>
 5    1  0.1106231E-008  0.2687138E+03  0.7957747E-01  0.4148245E+00
         13   -1    0    0    0    0  0.00000000000E+00  0.00000000000E+00  0.14999999963E+04  0.15000000000E+04  0.10566000000E+00 0. -1.
        994   -1    0    0    0    0 -0.00000000000E+00 -0.00000000000E+00  0.11368683772E-12  0.17120000000E+03  0.17120000000E+03 0.  0.
         13    1    1    2    0    0  0.17326885819E+03 -0.50219637513E+00  0.55558004585E+03  0.58197211954E+03  0.10566000000E+00 0. -1.
        994    1    1    2    0    0 -0.87477453324E+02 -0.11712538988E+02  0.61763262235E+02  0.20227117682E+03  0.17120000000E+03 0.  0.
        998    1    1    2    0    0 -0.85791404865E+02  0.12214735363E+02  0.88265668820E+03  0.88695670364E+03  0.10000000000E+02 0. -1.
</event>
<event>
 5    1  0.1106231E-008  0.3817662E+03  0.7957747E-01  0.3443504E+00
         13   -1    0    0    0    0  0.00000000000E+00  0.00000000000E+00  0.14999999963E+04  0.15000000000E+04  0.10566000000E+00 0. -1.
        994   -1    0    0    0    0 -0.00000000000E+00 -0.00000000000E+00  0.11368683772E-12  0.17120000000E+03  0.17120000000E+03 0.  0.
         13    1    1    2    0    0  0.33715016513E+01  0.11926657122E+02  0.22198087484E+02  0.25423973440E+02  0.10566000000E+00 0. -1.
        994    1    1    2    0    0 -0.68693290046E+01 -0.10195656895E+02  0.37466994479E+01  0.17168173129E+03  0.17120000000E+03 0.  0.
        998    1    1    2    0    0  0.34978273533E+01 -0.17310002273E+01  0.14740552093E+04  0.14740942953E+04  0.10000000000E+02 0. -1.
</event>
<event>
 5    1  0.1106231E-008  0.3848872E+03  0.7957747E-01  0.3430151E+00
         13   -1    0    0    0    0  0.00000000000E+00  0.00000000000E+00  0.14999999963E+04  0.15000000000E+04  0.10566000000E+00 0. -1.
        994   -1    0    0    0    0 -0.00000000000E+00 -0.00000000000E+00  0.11368683772E-12  0.17120000000E+03  0.17120000000E+03 0.  0.
         13    1    1    2    0    0 -0.16234088010E+02 -0.67001465740E+01  0.86964867408E+02  0.88720555143E+02  0.10566000000E+00 0. -1.
        994    1    1    2    0    0  0.18699512455E+02  0.28515384879E+01  0.28641748368E+01  0.17226562784E+03  0.17120000000E+03 0.  0.
        998    1    1    2    0    0 -0.24654244450E+01  0.38486080860E+01  0.14101709540E+04  0.14102138170E+04  0.10000000000E+02 0. -1.
</event>
<event>
 5    1  0.1106231E-008  0.3840829E+03  0.7957747E-01  0.3433571E+00
         13   -1    0    0    0    0  0.00000000000E+00  0.00000000000E+00  0.14999999963E+04  0.15000000000E+04  0.10566000000E+00 0. -1.
        994   -1    0    0    0    0 -0.00000000000E+00 -0.00000000000E+00  0.11368683772E-12  0.17120000000E+03  0.17120000000E+03 0.  0.
         13    1    1    2    0    0  0.24837156344E+02  0.13716956912E+01  0.13470022372E+03  0.13697783514E+03  0.10566000000E+00 0. -1.
        994    1    1    2    0    0 -0.26637967925E+02 -0.28533622632E+01  0.44571360384E+01  0.17334078883E+03  0.17120000000E+03 0.  0.
        998    1    1    2    0    0  0.18008115804E+01  0.14816665719E+01  0.13608426365E+04  0.13608813760E+04  0.10000000000E+02 0. -1.
</event>
<event>
 5    1  0.1106231E-008  0.3784472E+03  0.7957747E-01  0.3457948E+00
         13   -1    0    0    0    0  0.00000000000E+00  0.00000000000E+00  0.14999999963E+04  0.15000000000E+04  0.10566000000E+00 0.  1.
        994   -1    0    0    0    0 -0.00000000000E+00 -0.00000000000E+00  0.11368683772E-12  0.17120000000E+03  0.17120000000E+03 0.  0.
         13    1    1    2    0    0  0.45890438477E+02 -0.88045475538E+02  0.51992550384E+03  0.52932077119E+03  0.10566000000E+00 0.  1.
        994    1    1    2    0    0 -0.10727232365E+03  0.84072273479E+02  0.70109888920E+02  0.22978323506E+03  0.17120000000E+03 0.  0.
        998    1    1    2    0    0  0.61381885172E+02  0.39732020588E+01  0.90996460352E+03  0.91209599375E+03  0.10000000000E+02 0. -1.
</event>
<event>
 5    1  0.1106231E-008  0.3702046E+03  0.7957747E-01  0.3494951E+00
         13   -1    0    0    0    0  0.00000000000E+00  0.00000000000E+00  0.14999999963E+04  0.15000000000E+04  0.10566000000E+00 0. -1.
        994   -1    0    0    0    0 -0.00000000000E+00 -0.00000000000E+00  0.11368683772E-12  0.17120000000E+03  0.17120000000E+03 0.  0.
         13    1    1    2    0    0 -0.25263706897E+01  0.80101601878E+02  0.36376005499E+03  0.37248360762E+03  0.10566000000E+00 0. -1.
        994    1    1    2    0    0 -0.19505891926E+02 -0.41263036345E+02  0.16394362008E+02  0.17793631752E+03  0.17120000000E+03 0.  0.
        998    1    1    2    0    0  0.22032262616E+02 -0.38838565533E+02  0.11198455793E+04  0.11207800749E+04  0.10000000000E+02 0. -1.
</event>
<event>
 5    1  0.1106231E-008  0.3812988E+03  0.7957747E-01  0.3445523E+00
         13   -1    0    0    0    0  0.00000000000E+00  0.00000000000E+00  0.14999999963E+04  0.15000000000E+04  0.10566000000E+00 0.  1.
        994   -1    0    0    0    0 -0.00000000000E+00 -0.00000000000E+00  0.11368683772E-12  0.17120000000E+03  0.17120000000E+03 0.  0.
         13    1    1    2    0    0  0.31126143861E+01  0.31685634970E+02  0.13422639463E+03  0.13795073038E+03  0.10566000000E+00 0.  1.
        994    1    1    2    0    0 -0.13169337529E+02 -0.29491555149E+02  0.69590885715E+01  0.17435897508E+03  0.17120000000E+03 0.  0.
        998    1    1    2    0    0  0.10056723143E+02 -0.21940798208E+01  0.13588145131E+04  0.13588902945E+04  0.10000000000E+02 0.  1.
</event>
<event>
 5    1  0.1106231E-008  0.3837141E+03  0.7957747E-01  0.3435144E+00
         13   -1    0    0    0    0  0.00000000000E+00  0.00000000000E+00  0.14999999963E+04  0.15000000000E+04  0.10566000000E+00 0. -1.
        994   -1    0    0    0    0 -0.00000000000E+00 -0.00000000000E+00  0.11368683772E-12  0.17120000000E+03  0.17120000000E+03 0.  0.
         13    1    1    2    0    0  0.11445599900E+02 -0.91241752032E+02  0.19493184111E+03  0.21553304367E+03  0.10566000000E+00 0. -1.
        994    1    1    2    0    0 -0.15917283258E+02  0.90507980493E+02  0.50112518826E+02  0.20066329755E+03  0.17120000000E+03 0.  0.
        998    1    1    2    0    0  0.44716833589E+01  0.73377153923E+00  0.12549556363E+04  0.12550036588E+04  0.10000000000E+02 0.  1.
</event>
<event>
 5    1  0.1106231E-008  0.3853297E+03  0.7957747E-01  0.3428275E+00
         13   -1    0    0    0    0  0.00000000000E+00  0.00000000000E+00  0.14999999963E+04  0.15000000000E+04  0.10566000000E+00 0.  1.
        994   -1    0    0    0    0 -0.00000000000E+00 -0.00000000000E+00  0.11368683772E-12  0.17120000000E+03  0.17120000000E+03 0.  0.
         13    1    1    2    0    0  0.12970615831E+02  0.48390905076E+01  0.57560254794E+02  0.59201754771E+02  0.10566000000E+00 0.  1.
        994    1    1    2    0    0 -0.27120313860E+02 -0.14229520142E+02  0.45540458313E+01  0.17397749855E+03  0.17120000000E+03 0.  0.
        998    1    1    2    0    0  0.14149698029E+02  0.93904296346E+01  0.14378856957E+04  0.14380207467E+04  0.10000000000E+02 0.  1.
</event>
<event>
 5    1  0.1106231E-008  0.3755105E+03  0.7957747E-01  0.3470943E+00
         13   -1    0    0    0    0  0.00000000000E+00  0.00000000000E+00  0.14999999963E+04  0.15000000000E+04  0.10566000000E+00 0. -1.
        994   -1    0    0    0    0 -0.00000000000E+00 -0.00000000000E+00  0.11368683772E-12  0.17120000000E+03  0.17120000000E+03 0.  0.
         13    1    1    2    0    0 -0.32305981920E+02  0.12402018276E+02  0.36686600973E+02  0.50432176040E+02  0.10566000000E+00 0. -1.
        994    1    1    2    0    0  0.32982356052E+02 -0.12920963725E+02  0.18369077709E+02  0.17578865188E+03  0.17120000000E+03 0.  0.
        998    1    1    2    0    0 -0.67637413229E+00  0.51894544871E+00  0.14449443176E+04  0.14449791721E+04  0.10000000000E+02 0. -1.
</event>
<event>
 5    1  0.1106231E-008  0.3772209E+03  0.7957747E-01  0.3463350E+00
         13   -1    0    0    0    0  0.00000000000E+00  0.00000000000E+00  0.14999999963E+04  0.15000000000E+04  0.10566000000E+00 0. -1.
        994   -1    0    0    0    0 -0.00000000000E+00 -0.00000000000E+00  0.11368683772E-12  0.17120000000E+03  0.17120000000E+03 0.  0.
         13    1    1    2    0    0 -0.21331079993E+01 -0.17938123115E+02  0.27065922483E+02  0.32540770343E+02  0.10566000000E+00 0. -1.
        994    1    1    2    0    0 -0.11534120606E+02  0.14900775572E+02  0.67415557093E+01  0.17236576697E+03  0.17120000000E+03 0.  0.
        998    1    1    2    0    0  0.13667228606E+02  0.30373475430E+01  0.14661925181E+04  0.14662934627E+04  0.10000000000E+02 0. -1.
</event>
<event>
 5    1  0.1106231E-008  0.3849545E+03  0.7957747E-01  0.3429865E+00
         13   -1    0    0    0    0  0.00000000000E+00  0.00000000000E+00  0.14999999963E+04  0.15000000000E+04  0.10566000000E+00 0. -1.
        994   -1    0    0    0    0 -0.00000000000E+00 -0.00000000000E+00  0.11368683772E-12  0.17120000000E+03  0.17120000000E+03 0.  0.
         13    1    1    2    0    0 -0.22879443790E+01 -0.14337125256E+02  0.60745629771E+02  0.62456629355E+02  0.10566000000E+00 0. -1.
        994    1    1    2    0    0  0.51735772866E+01  0.16993703686E+02  0.26913162022E+01  0.17214016106E+03  0.17120000000E+03 0.  0.
        998    1    1    2    0    0 -0.28856329076E+01 -0.26565784299E+01  0.14365630503E+04  0.14366032096E+04  0.10000000000E+02 0. -1.
</event>
<event>
 5    1  0.1106231E-008  0.4108149E+03  0.7957747E-01  0.3327061E+00
         13   -1    0    0    0    0  0.00000000000E+00  0.00000000000E+00  0.14999999963E+04  0.15000000000E+04  0.10566000000E+00 0.  1.
        994   -1    0    0    0    0 -0.00000000000E+00 -0.00000000000E+00  0.11368683772E-12  0.17120000000E+03  0.17120000000E+03 0.  0.
         13    1    1    2    0    0 -0.18272063949E+02  0.63053960478E+02  0.49004124761E+02  0.81921216180E+02  0.10566000000E+00 0.  1.
        994    1    1    2    0    0  0.16014504753E+02 -0.66125326275E+02  0.53629282542E+02  0.19187121484E+03  0.17120000000E+03 0.  0.
        998    1    1    2    0    0  0.22575591965E+01  0.30713657977E+01  0.13973665890E+04  0.13974075690E+04  0.10000000000E+02 0.  1.
</event>
<event>
 5    1  0.1106231E-008  0.4192031E+03  0.7957747E-01  0.3296417E+00
         13   -1    0    0    0    0  0.00000000000E+00  0.00000000000E+00  0.14999999963E+04  0.15000000000E+04  0.10566000000E+00 0. -1.
        994   -1    0    0    0    0 -0.00000000000E+00 -0.00000000000E+00  0.11368683772E-12  0.17120000000E+03  0.17120000000E+03 0.  0.
         13    1    1    2    0    0  0.29295515825E+02 -0.98597992818E+01 -0.43959548272E+01  0.31221442507E+02  0.10566000000E+00 0. -1.
        994    1    1    2    0    0 -0.27149584320E+02  0.15267832490E+02  0.43934300396E+02  0.17947108232E+03  0.17120000000E+03 0.  0.
        998    1    1    2    0    0 -0.21459315044E+01 -0.54080332084E+01  0.14604616507E+04  0.14605074752E+04  0.10000000000E+02 0. -1.
</event>
<event>
 5    1  0.1106231E-008  0.3736457E+03  0.7957747E-01  0.3479302E+00
         13   -1    0    0    0    0  0.00000000000E+00  0.00000000000E+00  0.14999999963E+04  0.15000000000E+04  0.10566000000E+00 0. -1.
        994   -1    0    0    0    0 -0.00000000000E+00 -0.00000000000E+00  0.11368683772E-12  0.17120000000E+03  0.17120000000E+03 0.  0.
         13    1    1    2    0    0  0.68286841822E+02  0.49590096206E+01  0.18438693756E+03  0.19668817567E+03  0.10566000000E+00 0. -1.
        994    1    1    2    0    0 -0.31990070642E+02 -0.27293246107E+02  0.19167824438E+02  0.17732775134E+03  0.17120000000E+03 0.  0.
        998    1    1    2    0    0 -0.36296771180E+02  0.22334236487E+02  0.12964452343E+04  0.12971840730E+04  0.10000000000E+02 0. -1.
</event>
<event>
 5    1  0.1106231E-008  0.3844360E+03  0.7957747E-01  0.3432068E+00
         13   -1    0    0    0    0  0.00000000000E+00  0.00000000000E+00  0.14999999963E+04  0.15000000000E+04  0.10566000000E+00 0.  1.
        994   -1    0    0    0    0 -0.00000000000E+00 -0.00000000000E+00  0.11368683772E-12  0.17120000000E+03  0.17120000000E+03 0.  0.
         13    1    1    2    0    0 -0.43800703930E+01  0.10125612385E+02  0.30593701436E+02  0.32522281199E+02  0.10566000000E+00 0.  1.
        994    1    1    2    0    0  0.83304666645E+01 -0.11615453198E+02  0.25838479783E+01  0.17181510905E+03  0.17120000000E+03 0.  0.
        998    1    1    2    0    0 -0.39503962715E+01  0.14898408125E+01  0.14668224469E+04  0.14668626097E+04  0.10000000000E+02 0.  1.
</event>
<event>
 5    1  0.1106231E-008  0.3778208E+03  0.7957747E-01  0.3460702E+00
         13   -1    0    0    0    0  0.00000000000E+00  0.00000000000E+00  0.14999999963E+04  0.15000000000E+04  0.10566000000E+00 0. -1.
        994   -1    0    0    0    0 -0.00000000000E+00 -0.00000000000E+00  0.11368683772E-12  0.17120000000E+03  0.17120000000E+03 0.  0.
         13    1    1    2    0    0 -0.18487798015E+01  0.68255885004E+02  0.32477527195E+03  0.33187538664E+03  0.10566000000E+00 0. -1.
        994    1    1    2    0    0 -0.34506101290E+02 -0.79159272271E+02  0.30771858462E+02  0.19419888951E+03  0.17120000000E+03 0.  0.
        998    1    1    2    0    0  0.36354881092E+02  0.10903387268E+02  0.11444528659E+04  0.11451257239E+04  0.10000000000E+02 0. -1.
</event>
<event>
 5    1  0.1106231E-008  0.3414955E+03  0.7957747E-01  0.3638109E+00
         13   -1    0    0    0    0  0.00000000000E+00  0.00000000000E+00  0.14999999963E+04  0.15000000000E+04  0.10566000000E+00 0. -1.
        994   -1    0    0    0    0 -0.00000000000E+00 -0.00000000000E+00  0.11368683772E-12  0.17120000000E+03  0.17120000000E+03 0.  0.
         13    1    1    2    0    0  0.18491449125E+03 -0.15408271508E+02  0.10179484670E+04  0.10347221253E+04  0.10566000000E+00 0. -1.
        994    1    1    2    0    0 -0.15242278110E+03  0.12428476856E+02  0.95838683584E+02  0.24876025508E+03  0.17120000000E+03 0.  0.
        998    1    1    2    0    0 -0.32491710154E+02  0.29797946517E+01  0.38621284565E+03  0.38771761960E+03  0.10000000000E+02 0. -1.
</event>
<event>
 5    1  0.1106231E-008  0.3774778E+03  0.7957747E-01  0.3462215E+00
         13   -1    0    0    0    0  0.00000000000E+00  0.00000000000E+00  0.14999999963E+04  0.15000000000E+04  0.10566000000E+00 0.  1.
        994   -1    0    0    0    0 -0.00000000000E+00 -0.00000000000E+00  0.11368683772E-12  0.17120000000E+03  0.17120000000E+03 0.  0.
         13    1    1    2    0    0 -0.41969365024E+02  0.15260309238E+02  0.61211819525E+02  0.75770724242E+02  0.10566000000E+00 0.  1.
        994    1    1    2    0    0  0.32447142399E+02 -0.20785713904E+01  0.18753499516E+02  0.17526628670E+03  0.17120000000E+03 0.  0.
        998    1    1    2    0    0  0.95222226246E+01 -0.13181737848E+02  0.14200346772E+04  0.14201629891E+04  0.10000000000E+02 0.  1.
</event>
<event>
 5    1  0.1106231E-008  0.3813139E+03  0.7957747E-01  0.3445457E+00
         13   -1    0    0    0    0  0.00000000000E+00  0.00000000000E+00  0.14999999963E+04  0.15000000000E+04  0.10566000000E+00 0.  1.
        994   -1    0    0    0    0 -0.00000000000E+00 -0.00000000000E+00  0.11368683772E-12  0.17120000000E+03  0.17120000000E+03 0.  0.
         13    1    1    2    0    0  0.13110530438E+02  0.16737421126E+02  0.68122940410E+02  0.71363670368E+02  0.10566000000E+00 0.  1.
        994    1    1    2    0    0  0.11625752519E+02 -0.90939869053E+01  0.41968104230E+01  0.17188633435E+03  0.17120000000E+03 0.  0.
        998    1    1    2    0    0 -0.24736282957E+02 -0.76434342204E+01  0.14276802454E+04  0.14279499953E+04  0.10000000000E+02 0.  1.
</event>
<event>
 5    1  0.1106231E-008  0.3691922E+03  0.7957747E-01  0.3499612E+00
         13   -1    0    0    0    0  0.00000000000E+00  0.00000000000E+00  0.14999999963E+04  0.15000000000E+04  0.10566000000E+00 0.  1.
        994   -1    0    0    0    0 -0.00000000000E+00 -0.00000000000E+00  0.11368683772E-12  0.17120000000E+03  0.17120000000E+03 0.  0.
         13    1    1    2    0    0  0.65277002130E+02  0.17559860410E+02  0.33652085245E+03  0.34324296206E+03  0.10566000000E+00 0.  1.
        994    1    1    2    0    0  0.52696219607E+01  0.21925762151E+02  0.11457047967E+02  0.17305840606E+03  0.17120000000E+03 0.  0.
        998    1    1    2    0    0 -0.70546624091E+02 -0.39485622560E+02  0.11520220959E+04  0.11548986319E+04  0.10000000000E+02 0.  1.
</event>
<event>
 5    1  0.1106231E-008  0.3757586E+03  0.7957747E-01  0.3469837E+00
         13   -1    0    0    0    0  0.00000000000E+00  0.00000000000E+00  0.14999999963E+04  0.15000000000E+04  0.10566000000E+00 0. -1.
        994   -1    0    0    0    0 -0.00000000000E+00 -0.00000000000E+00  0.11368683772E-12  0.17120000000E+03  0.17120000000E+03 0.  0.
         13    1    1    2    0    0 -0.29113810313E+02  0.42328410420E+02  0.23762524359E+03  0.24311535500E+03  0.10566000000E+00 0. -1.
        994    1    1    2    0    0  0.96705942278E+01 -0.55945522386E+01  0.67130063045E+01  0.17169543926E+03  0.17120000000E+03 0.  0.
        998    1    1    2    0    0  0.19443216085E+02 -0.36733858182E+02  0.12556617464E+04  0.12563892057E+04  0.10000000000E+02 0. -1.
</event>
<event>
 5    1  0.1124233E-008  0.3853597E+03  0.7957747E-01  0.3428148E+00
         13   -1    0    0    0    0  0.00000000000E+00  0.00000000000E+00  0.14999999963E+04  0.15000000000E+04  0.10566000000E+00 0.  1.
        994   -1    0    0    0    0 -0.00000000000E+00 -0.00000000000E+00  0.11368683772E-12  0.17120000000E+03  0.17120000000E+03 0.  0.
         13    1    1    2    0    0  0.49399982798E+01  0.15840430151E+02  0.89560985678E+02  0.91085147692E+02  0.10566000000E+00 0.  1.
        994    1    1    2    0    0 -0.56675846900E+01 -0.17630358812E+02  0.25790067436E+01  0.17221800819E+03  0.17120000000E+03 0.  0.
        998    1    1    2    0    0  0.72758641030E+00  0.17899286603E+01  0.14078600039E+04  0.14078968441E+04  0.10000000000E+02 0.  1.
</event>
<event>
 5    1  0.1106231E-008  0.3838415E+03  0.7957747E-01  0.3434600E+00
         13   -1    0    0    0    0  0.00000000000E+00  0.00000000000E+00  0.14999999963E+04  0.15000000000E+04  0.10566000000E+00 0.  1.
        994   -1    0    0    0    0 -0.00000000000E+00 -0.00000000000E+00  0.11368683772E-12  0.17120000000E+03  0.17120000000E+03 0.  0.
         13    1    1    2    0    0  0.17637184222E+02  0.18721177790E+02  0.14453356918E+03  0.14680434786E+03  0.10566000000E+00 0.  1.
        994    1    1    2    0    0 -0.10460923759E+02 -0.17067593693E+02  0.35303591196E+01  0.17240254382E+03  0.17120000000E+03 0.  0.
        998    1    1    2    0    0 -0.71762604627E+01 -0.16535840973E+01  0.13519360680E+04  0.13519931083E+04  0.10000000000E+02 0.  1.
</event>
<event>
 5    1  0.1106231E-008  0.3823305E+03  0.7957747E-01  0.3441073E+00
         13   -1    0    0    0    0  0.00000000000E+00  0.00000000000E+00  0.14999999963E+04  0.15000000000E+04  0.10566000000E+00 0.  1.
        994   -1    0    0    0    0 -0.00000000000E+00 -0.00000000000E+00  0.11368683772E-12  0.17120000000E+03  0.17120000000E+03 0.  0.
         13    1    1    2    0    0 -0.24274115426E+02 -0.92432013241E+00  0.10345735656E+03  0.10627098775E+03  0.10566000000E+00 0.  1.
        994    1    1    2    0    0  0.74717465446E+01 -0.47303860746E+01  0.32207908033E+01  0.17145849948E+03  0.17120000000E+03 0.  0.
        998    1    1    2    0    0  0.16802368881E+02  0.56547062070E+01  0.13933218489E+04  0.13934705128E+04  0.10000000000E+02 0.  1.
</event>
<event>
 5    1  0.1106231E-008  0.3737794E+03  0.7957747E-01  0.3478700E+00
         13   -1    0    0    0    0  0.00000000000E+00  0.00000000000E+00  0.14999999963E+04  0.15000000000E+04  0.10566000000E+00 0.  1.
        994   -1    0    0    0    0 -0.00000000000E+00 -0.00000000000E+00  0.11368683772E-12  0.17120000000E+03  0.17120000000E+03 0.  0.
         13    1    1    2    0    0 -0.14633678782E+02 -0.17542200668E+02  0.34570814194E+02  0.41437009027E+02  0.10566000000E+00 0.  1.
        994    1    1    2    0    0 -0.98077646068E+01  0.21776319863E+01  0.76514558987E+01  0.17166513655E+03  0.17120000000E+03 0.  0.
        998    1    1    2    0    0  0.24441443389E+02  0.15364568682E+02  0.14577777262E+04  0.14580978544E+04  0.10000000000E+02 0.  1.
</event>
<event>
 5    1  0.1106231E-008  0.3761182E+03  0.7957747E-01  0.3468237E+00
         13   -1    0    0    0    0  0.00000000000E+00  0.00000000000E+00  0.14999999963E+04  0.15000000000E+04  0.10566000000E+00 0.  1.
        994   -1    0    0    0    0 -0.00000000000E+00 -0.00000000000E+00  0.11368683772E-12  0.17120000000E+03  0.17120000000E+03 0.  0.
         13    1    1    2    0    0  0.43678931409E+02 -0.33670051376E+02  0.21605965286E+03  0.22298723320E+03  0.10566000000E+00 0.  1.
        994    1    1    2    0    0 -0.39901728463E+02  0.34705266553E+02  0.15635529802E+02  0.17986248428E+03  0.17120000000E+03 0.  0.
        998    1    1    2    0    0 -0.37772029462E+01 -0.10352151771E+01  0.12683048136E+04  0.12683502825E+04  0.10000000000E+02 0.  0.
</event>
<event>
 5    1  0.1106231E-008  0.3839738E+03  0.7957747E-01  0.3434036E+00
         13   -1    0    0    0    0  0.00000000000E+00  0.00000000000E+00  0.14999999963E+04  0.15000000000E+04  0.10566000000E+00 0. -1.
        994   -1    0    0    0    0 -0.00000000000E+00 -0.00000000000E+00  0.11368683772E-12  0.17120000000E+03  0.17120000000E+03 0.  0.
         13    1    1    2    0    0  0.34385191490E-01  0.17130195375E+02  0.71891467389E+02  0.73904255786E+02  0.10566000000E+00 0. -1.
        994    1    1    2    0    0  0.13372222431E+02 -0.21886990610E+01  0.27465741619E+01  0.17175735910E+03  0.17120000000E+03 0.  0.
        998    1    1    2    0    0 -0.13406607622E+02 -0.14941496314E+02  0.14253619547E+04  0.14255383851E+04  0.10000000000E+02 0. -1.
</event>
<event>
 5    1  0.1106231E-008  0.3831390E+03  0.7957747E-01  0.3437603E+00
         13   -1    0    0    0    0  0.00000000000E+00  0.00000000000E+00  0.14999999963E+04  0.15000000000E+04  0.10566000000E+00 0. -1.
        994   -1    0    0    0    0 -0.00000000000E+00 -0.00000000000E+00  0.11368683772E-12  0.17120000000E+03  0.17120000000E+03 0.  0.
         13    1    1    2    0    0  0.26807605832E+01  0.13102120351E+02  0.33002050209E+02  0.35608966807E+02  0.10566000000E+00 0. -1.
        994    1    1    2    0    0 -0.50412355083E+01 -0.17418844782E+02  0.36456370028E+01  0.17219628590E+03  0.17120000000E+03 0.  0.
        998    1    1    2    0    0  0.23604749251E+01  0.43167244313E+01  0.14633523091E+04  0.14633947473E+04  0.10000000000E+02 0. -1.
</event>
<event>
 5    1  0.1106231E-008  0.3823809E+03  0.7957747E-01  0.3440856E+00
         13   -1    0    0    0    0  0.00000000000E+00  0.00000000000E+00  0.14999999963E+04  0.15000000000E+04  0.10566000000E+00 0.  1.
        994   -1    0    0    0    0 -0.00000000000E+00 -0.00000000000E+00  0.11368683772E-12  0.17120000000E+03  0.17120000000E+03 0.  0.
         13    1    1    2    0    0  0.16496832946E+02  0.14987037316E+02  0.78214186246E+02  0.81327897298E+02  0.10566000000E+00 0.  1.
        994    1    1    2    0    0 -0.38856147338E+01 -0.36382187675E+02  0.73892284703E+01  0.17522215122E+03  0.17120000000E+03 0.  0.
        998    1    1    2    0    0 -0.12611218212E+02  0.21395150359E+02  0.14143965816E+04  0.14146499515E+04  0.10000000000E+02 0.  1.
</event>
<event>
 5    1  0.1106231E-008  0.3853258E+03  0.7957747E-01  0.3428292E+00
         13   -1    0    0    0    0  0.00000000000E+00  0.00000000000E+00  0.14999999963E+04  0.15000000000E+04  0.10566000000E+00 0. -1.
        994   -1    0    0    0    0 -0.00000000000E+00 -0.00000000000E+00  0.11368683772E-12  0.17120000000E+03  0.17120000000E+03 0.  0.
         13    1    1    2    0    0 -0.85538073175E+01 -0.10241233605E+02  0.60072597196E+02  0.61536806737E+02  0.10566000000E+00 0. -1.
        994    1    1    2    0    0  0.14758563124E+02  0.18745289013E+01  0.21959333472E+01  0.17185921904E+03  0.17120000000E+03 0.  0.
        998    1    1    2    0    0 -0.62047558066E+01  0.83667047034E+01  0.14377314657E+04  0.14378039742E+04  0.10000000000E+02 0. -1.
</event>
<event>
 5    1  0.1106231E-008  0.3851868E+03  0.7957747E-01  0.3428880E+00
         13   -1    0    0    0    0  0.00000000000E+00  0.00000000000E+00  0.14999999963E+04  0.15000000000E+04  0.10566000000E+00 0.  1.
        994   -1    0    0    0    0 -0.00000000000E+00 -0.00000000000E+00  0.11368683772E-12  0.17120000000E+03  0.17120000000E+03 0.  0.
         13    1    1    2    0    0 -0.21723318932E+01  0.99488537423E+01  0.32911472360E+02  0.34451050689E+02  0.10566000000E+00 0.  1.
        994    1    1    2    0    0 -0.35238696661E+01 -0.12453144070E+02  0.20881079244E+01  0.17170119001E+03  0.17120000000E+03 0.  0.
        998    1    1    2    0    0  0.56962015593E+01  0.25042903272E+01  0.14650004160E+04  0.14650477593E+04  0.10000000000E+02 0.  1.
</event>
<event>
 5    1  0.1106231E-008  0.3742994E+03  0.7957747E-01  0.3476362E+00
         13   -1    0    0    0    0  0.00000000000E+00  0.00000000000E+00  0.14999999963E+04  0.15000000000E+04  0.10566000000E+00 0.  1.
        994   -1    0    0    0    0 -0.00000000000E+00 -0.00000000000E+00  0.11368683772E-12  0.17120000000E+03  0.17120000000E+03 0.  0.
         13    1    1    2    0    0  0.31270607697E+02  0.22766036159E+02  0.44856574459E+02  0.59230623367E+02  0.10566000000E+00 0.  1.
        994    1    1    2    0    0 -0.69574374482E+02 -0.36106976750E+02  0.35374208882E+02  0.19158570408E+03  0.17120000000E+03 0.  0.
        998    1    1    2    0    0  0.38303766785E+02  0.13340940591E+02  0.14197692129E+04  0.14203836726E+04  0.10000000000E+02 0.  1.
</event>
<event>
 5    1  0.1106231E-008  0.3957340E+03  0.7957747E-01  0.3385386E+00
         13   -1    0    0    0    0  0.00000000000E+00  0.00000000000E+00  0.14999999963E+04  0.15000000000E+04  0.10566000000E+00 0. -1.
        994   -1    0    0    0    0 -0.00000000000E+00 -0.00000000000E+00  0.11368683772E-12  0.17120000000E+03  0.17120000000E+03 0.  0.
         13    1    1    2    0    0  0.25162152993E+02  0.64759037350E+02  0.11470033422E+03  0.13410087508E+03  0.10566000000E+00 0. -1.
        994    1    1    2    0    0  0.12313257533E+02  0.41989830592E+02  0.32656492331E+02  0.17969598959E+03  0.17120000000E+03 0.  0.
        998    1    1    2    0    0 -0.37475410526E+02 -0.10674886794E+03  0.13526431697E+04  0.13574031353E+04  0.10000000000E+02 0. -1.
</event>
<event>
 5    1  0.1106231E-008  0.3783177E+03  0.7957747E-01  0.3458517E+00
         13   -1    0    0    0    0  0.00000000000E+00  0.00000000000E+00  0.14999999963E+04  0.15000000000E+04  0.10566000000E+00 0.  1.
        994   -1    0    0    0    0 -0.00000000000E+00 -0.00000000000E+00  0.11368683772E-12  0.17120000000E+03  0.17120000000E+03 0.  0.
         13    1    1    2    0    0 -0.17636563724E+02  0.20991705951E+01  0.32257658512E+01  0.18051914761E+02  0.10566000000E+00 0.  1.
        994    1    1    2    0    0  0.21193459950E+02  0.16442862576E+02  0.18001687582E+02  0.17422121349E+03  0.17120000000E+03 0.  0.
        998    1    1    2    0    0 -0.35568962256E+01 -0.18542033171E+02  0.14787725428E+04  0.14789268717E+04  0.10000000000E+02 0.  1.
</event>
<event>
 5    1  0.1106231E-008  0.3829828E+03  0.7957747E-01  0.3438273E+00
         13   -1    0    0    0    0  0.00000000000E+00  0.00000000000E+00  0.14999999963E+04  0.15000000000E+04  0.10566000000E+00 0.  1.
        994   -1    0    0    0    0 -0.00000000000E+00 -0.00000000000E+00  0.11368683772E-12  0.17120000000E+03  0.17120000000E+03 0.  0.
         13    1    1    2    0    0 -0.68939680111E+01 -0.13100539209E+02  0.39193416988E+02  0.41896133732E+02  0.10566000000E+00 0.  1.
        994    1    1    2    0    0 -0.99518070678E+01  0.27562356878E+02  0.54827657822E+01  0.17377635829E+03  0.17120000000E+03 0.  0.
        998    1    1    2    0    0  0.16845775079E+02 -0.14461817669E+02  0.14553238135E+04  0.14555275080E+04  0.10000000000E+02 0.  1.
</event>
<event>
 5    1  0.1106231E-008  0.3788850E+03  0.7957747E-01  0.3456028E+00
         13   -1    0    0    0    0  0.00000000000E+00  0.00000000000E+00  0.14999999963E+04  0.15000000000E+04  0.10566000000E+00 0.  1.
        994   -1    0    0    0    0 -0.00000000000E+00 -0.00000000000E+00  0.11368683772E-12  0.17120000000E+03  0.17120000000E+03 0.  0.
         13    1    1    2    0    0  0.32481827858E+02  0.14299803679E+02  0.13607677135E+03  0.14062877511E+03  0.10566000000E+00 0.  1.
        994    1    1    2    0    0 -0.12019846224E+02 -0.13315354540E+02  0.57774251217E+01  0.17223412557E+03  0.17120000000E+03 0.  0.
        998    1    1    2    0    0 -0.20461981634E+02 -0.98444913938E+00  0.13581457998E+04  0.13583370993E+04  0.10000000000E+02 0.  1.
</event>
<event>
 5    1  0.1106231E-008  0.3852843E+03  0.7957747E-01  0.3428467E+00
         13   -1    0    0    0    0  0.00000000000E+00  0.00000000000E+00  0.14999999963E+04  0.15000000000E+04  0.10566000000E+00 0. -1.
        994   -1    0    0    0    0 -0.00000000000E+00 -0.00000000000E+00  0.11368683772E-12  0.17120000000E+03  0.17120000000E+03 0.  0.
         13    1    1    2    0    0  0.96522172530E+01 -0.65316644660E+01  0.49711715484E+02  0.51059707784E+02  0.10566000000E+00 0. -1.
        994    1    1    2    0    0  0.94738015389E+01  0.23880295997E+01  0.18027288894E+01  0.17148803291E+03  0.17120000000E+03 0.  0.
        998    1    1    2    0    0 -0.19126018792E+02  0.41436348663E+01  0.14484855519E+04  0.14486522593E+04  0.10000000000E+02 0. -1.
</event>
<event>
 5    1  0.1106231E-008  0.3847029E+03  0.7957747E-01  0.3430933E+00
         13   -1    0    0    0    0  0.00000000000E+00  0.00000000000E+00  0.14999999963E+04  0.15000000000E+04  0.10566000000E+00 0.  1.
        994   -1    0    0    0    0 -0.00000000000E+00 -0.00000000000E+00  0.11368683772E-12  0.17120000000E+03  0.17120000000E+03 0.  0.
         13    1    1    2    0    0  0.58894033318E+01 -0.10303904403E+02  0.37575623438E+02  0.39405509238E+02  0.10566000000E+00 0.  1.
        994    1    1    2    0    0  0.94021386197E+01  0.26313088721E+02  0.43521453771E+01  0.17351991245E+03  0.17120000000E+03 0.  0.
        998    1    1    2    0    0 -0.15291541952E+02 -0.16009184318E+02  0.14580722275E+04  0.14582745783E+04  0.10000000000E+02 0.  1.
</event>
<event>
 5    1  0.1106231E-008  0.3851174E+03  0.7957747E-01  0.3429174E+00
         13   -1    0    0    0    0  0.00000000000E+00  0.00000000000E+00  0.14999999963E+04  0.15000000000E+04  0.10566000000E+00 0.  1.
        994   -1    0    0    0    0 -0.00000000000E+00 -0.00000000000E+00  0.11368683772E-12  0.17120000000E+03  0.17120000000E+03 0.  0.
         13    1    1    2    0    0 -0.11802003031E+02  0.84740230984E+01  0.65181654164E+02  0.66781401203E+02  0.10566000000E+00 0.  1.
        994    1    1    2    0    0  0.52524877037E+01 -0.17669025588E+02  0.26896517908E+01  0.17221050293E+03  0.17120000000E+03 0.  0.
        998    1    1    2    0    0  0.65495153273E+01  0.91950024895E+01  0.14321286903E+04  0.14322080959E+04  0.10000000000E+02 0.  1.
</event>
<event>
 5    1  0.1106231E-008  0.3797657E+03  0.7957747E-01  0.3452180E+00
         13   -1    0    0    0    0  0.00000000000E+00  0.00000000000E+00  0.14999999963E+04  0.15000000000E+04  0.10566000000E+00 0. -1.
        994   -1    0    0    0    0 -0.00000000000E+00 -0.00000000000E+00  0.11368683772E-12  0.17120000000E+03  0.17120000000E+03 0.  0.
         13    1    1    2    0    0 -0.31862038313E+02  0.24497401191E+02  0.20373006509E+03  0.20765659810E+03  0.10566000000E+00 0. -1.
        994    1    1    2    0    0  0.77372182815E+01 -0.11019713562E+02  0.48582544425E+01  0.17179738435E+03  0.17120000000E+03 0.  0.
        998    1    1    2    0    0  0.24124820032E+02 -0.13477687630E+02  0.12914116768E+04  0.12917460175E+04  0.10000000000E+02 0. -1.
</event>
<event>
 5    1  0.1106231E-008  0.3850270E+03  0.7957747E-01  0.3429558E+00
         13   -1    0    0    0    0  0.00000000000E+00  0.00000000000E+00  0.14999999963E+04  0.15000000000E+04  0.10566000000E+00 0. -1.
        994   -1    0    0    0    0 -0.00000000000E+00 -0.00000000000E+00  0.11368683772E-12  0.17120000000E+03  0.17120000000E+03 0.  0.
         13    1    1    2    0    0 -0.82094999746E+01  0.97548366162E+01  0.48521328802E+02  0.50168548315E+02  0.10566000000E+00 0. -1.
        994    1    1    2    0    0  0.79406619373E+01 -0.12706509934E+02  0.23553323543E+01  0.17187058241E+03  0.17120000000E+03 0.  0.
        998    1    1    2    0    0  0.26883803729E+00  0.29516733179E+01  0.14491233351E+04  0.14491608693E+04  0.10000000000E+02 0. -1.
</event>
<event>
 5    1  0.1106231E-008  0.3797663E+03  0.7957747E-01  0.3452177E+00
         13   -1    0    0    0    0  0.00000000000E+00  0.00000000000E+00  0.14999999963E+04  0.15000000000E+04  0.10566000000E+00 0. -1.
        994   -1    0    0    0    0 -0.00000000000E+00 -0.00000000000E+00  0.11368683772E-12  0.17120000000E+03  0.17120000000E+03 0.  0.
         13    1    1    2    0    0 -0.22103776616E+02  0.45572696023E+01  0.56757827128E+02  0.61080338500E+02  0.10566000000E+00 0. -1.
        994    1    1    2    0    0  0.21632419980E+02 -0.17850566733E+01  0.58289890593E+01  0.17266894664E+03  0.17120000000E+03 0.  0.
        998    1    1    2    0    0  0.47135663634E+00 -0.27722129290E+01  0.14374131801E+04  0.14374507149E+04  0.10000000000E+02 0. -1.
</event>
<event>
 5    1  0.1106231E-008  0.3841567E+03  0.7957747E-01  0.3433257E+00
         13   -1    0    0    0    0  0.00000000000E+00  0.00000000000E+00  0.14999999963E+04  0.15000000000E+04  0.10566000000E+00 0. -1.
        994   -1    0    0    0    0 -0.00000000000E+00 -0.00000000000E+00  0.11368683772E-12  0.17120000000E+03  0.17120000000E+03 0.  0.
         13    1    1    2    0    0  0.19842417909E+02 -0.29273378997E+01  0.10532195962E+03  0.10721481800E+03  0.10566000000E+00 0. -1.
        994    1    1    2    0    0 -0.35532878618E+01 -0.63932792029E+01  0.22258584268E+01  0.17137063436E+03  0.17120000000E+03 0.  0.
        998    1    1    2    0    0 -0.16289130047E+02  0.93206171026E+01  0.13924521782E+04  0.13926145476E+04  0.10000000000E+02 0. -1.
</event>
<event>
 5    1  0.1106231E-008  0.3739919E+03  0.7957747E-01  0.3477744E+00
         13   -1    0    0    0    0  0.00000000000E+00  0.00000000000E+00  0.14999999963E+04  0.15000000000E+04  0.10566000000E+00 0. -1.
        994   -1    0    0    0    0 -0.00000000000E+00 -0.00000000000E+00  0.11368683772E-12  0.17120000000E+03  0.17120000000E+03 0.  0.
         13    1    1    2    0    0  0.15277342413E+03 -0.13411121180E+03  0.93548896350E+03  0.95732186241E+03  0.10566000000E+00 0. -1.
        994    1    1    2    0    0 -0.14835391075E+03  0.12910788659E+03  0.15325651115E+03  0.30244789208E+03  0.17120000000E+03 0.  0.
        998    1    1    2    0    0 -0.44195133871E+01  0.50033252153E+01  0.41125452163E+03  0.41143024552E+03  0.10000000000E+02 0.  0.
</event>
<event>
 5    1  0.1106231E-008  0.3858332E+03  0.7957747E-01  0.3426146E+00
         13   -1    0    0    0    0  0.00000000000E+00  0.00000000000E+00  0.14999999963E+04  0.15000000000E+04  0.10566000000E+00 0. -1.
        994   -1    0    0    0    0 -0.00000000000E+00 -0.00000000000E+00  0.11368683772E-12  0.17120000000E+03  0.17120000000E+03 0.  0.
         13    1    1    2    0    0  0.95654287410E+01 -0.85722937520E+01  0.68024131611E+02  0.69226261582E+02  0.10566000000E+00 0. -1.
        994    1    1    2    0    0 -0.11217638734E+02  0.14616079008E+01  0.16368610077E+01  0.17158114999E+03  0.17120000000E+03 0.  0.
        998    1    1    2    0    0  0.16522099930E+01  0.71106858512E+01  0.14303390037E+04  0.14303925884E+04  0.10000000000E+02 0. -1.
</event>
<event>
 5    1  0.1106231E-008  0.3836900E+03  0.7957747E-01  0.3435247E+00
         13   -1    0    0    0    0  0.00000000000E+00  0.00000000000E+00  0.14999999963E+04  0.15000000000E+04  0.10566000000E+00 0.  1.
        994   -1    0    0    0    0 -0.00000000000E+00 -0.00000000000E+00  0.11368683772E-12  0.17120000000E+03  0.17120000000E+03 0.  0.
         13    1    1    2    0    0 -0.23787942788E+01  0.10058738778E+02  0.22204494553E+02  0.24492603586E+02  0.10566000000E+00 0.  1.
        994    1    1    2    0    0  0.60150502556E+01 -0.12005072867E+02  0.28776581109E+01  0.17174988652E+03  0.17120000000E+03 0.  0.
        998    1    1    2    0    0 -0.36362559768E+01  0.19463340886E+01  0.14749178436E+04  0.14749575099E+04  0.10000000000E+02 0.  1.
</event>
<event>
 5    1  0.1106231E-008  0.3799920E+03  0.7957747E-01  0.3451193E+00
         13   -1    0    0    0    0  0.00000000000E+00  0.00000000000E+00  0.14999999963E+04  0.15000000000E+04  0.10566000000E+00 0.  1.
        994   -1    0    0    0    0 -0.00000000000E+00 -0.00000000000E+00  0.11368683772E-12  0.17120000000E+03  0.17120000000E+03 0.  0.
         13    1    1    2    0    0 -0.19019095065E+02 -0.10636127372E+02  0.61513433045E+02  0.65259227635E+02  0.10566000000E+00 0.  1.
        994    1    1    2    0    0 -0.73210270405E+01 -0.58533804545E+01  0.44309657733E+01  0.17151365239E+03  0.17120000000E+03 0.  0.
        998    1    1    2    0    0  0.26340122106E+02  0.16489507826E+02  0.14340555975E+04  0.14344271200E+04  0.10000000000E+02 0.  1.
</event>
<event>
 5    1  0.1106231E-008  0.3813857E+03  0.7957747E-01  0.3445147E+00
         13   -1    0    0    0    0  0.00000000000E+00  0.00000000000E+00  0.14999999963E+04  0.15000000000E+04  0.10566000000E+00 0. -1.
        994   -1    0    0    0    0 -0.00000000000E+00 -0.00000000000E+00  0.11368683772E-12  0.17120000000E+03  0.17120000000E+03 0.  0.
         13    1    1    2    0    0  0.10954602851E+02  0.24676137182E+02  0.12773191741E+03  0.13055408442E+03  0.10566000000E+00 0. -1.
        994    1    1    2    0    0 -0.23342685282E+00  0.15090798692E+02  0.41936665006E+01  0.17191513468E+03  0.17120000000E+03 0.  0.
        998    1    1    2    0    0 -0.10721175998E+02 -0.39766935874E+02  0.13680744124E+04  0.13687307809E+04  0.10000000000E+02 0. -1.
</event>
<event>
 5    1  0.1106231E-008  0.3743625E+03  0.7957747E-01  0.3476079E+00
         13   -1    0    0    0    0  0.00000000000E+00  0.00000000000E+00  0.14999999963E+04  0.15000000000E+04  0.10566000000E+00 0. -1.
        994   -1    0    0    0    0 -0.00000000000E+00 -0.00000000000E+00  0.11368683772E-12  0.17120000000E+03  0.17120000000E+03 0.  0.
         13    1    1    2    0    0  0.12161345327E+02  0.12415241351E+01  0.74988485874E+01  0.14341673421E+02  0.10566000000E+00 0. -1.
        994    1    1    2    0    0 -0.72749911552E+01 -0.38544129320E+01  0.72374020209E+01  0.17155058141E+03  0.17120000000E+03 0.  0.
        998    1    1    2    0    0 -0.48863541721E+01  0.26128887969E+01  0.14852637457E+04  0.14853077452E+04  0.10000000000E+02 0. -1.
</event>
<event>
 5    1  0.1106231E-008  0.3826050E+03  0.7957747E-01  0.3439894E+00
         13   -1    0    0    0    0  0.00000000000E+00  0.00000000000E+00  0.14999999963E+04  0.15000000000E+04  0.10566000000E+00 0.  1.
        994   -1    0    0    0    0 -0.00000000000E+00 -0.00000000000E+00  0.11368683772E-12  0.17120000000E+03  0.17120000000E+03 0.  0.
         13    1    1    2    0    0  0.53307279523E+02 -0.71765419826E+02  0.19156899227E+03  0.21140158821E+03  0.10566000000E+00 0.  1.
        994    1    1    2    0    0 -0.62241134233E+02  0.64548443808E+02  0.47812270097E+02  0.19908770319E+03  0.17120000000E+03 0.  0.
        998    1    1    2    0    0  0.89338547096E+01  0.72169760181E+01  0.12606187339E+04  0.12607107086E+04  0.10000000000E+02 0.  1.
</event>
<event>
 5    1  0.1106231E-008  0.3715380E+03  0.7957747E-01  0.3488852E+00
         13   -1    0    0    0    0  0.00000000000E+00  0.00000000000E+00  0.14999999963E+04  0.15000000000E+04  0.10566000000E+00 0.  1.
        994   -1    0    0    0    0 -0.00000000000E+00 -0.00000000000E+00  0.11368683772E-12  0.17120000000E+03  0.17120000000E+03 0.  0.
         13    1    1    2    0    0  0.60393371182E+02  0.28451404453E+02  0.31859655478E+03  0.32551592524E+03  0.10566000000E+00 0.  1.
        994    1    1    2    0    0 -0.74458629542E+01 -0.95194935398E+01  0.89698988263E+01  0.17186029418E+03  0.17120000000E+03 0.  0.
        998    1    1    2    0    0 -0.52947508228E+02 -0.18931910914E+02  0.11724335427E+04  0.11738237806E+04  0.10000000000E+02 0.  1.
</event>
<event>
 5    1  0.1106231E-008  0.3776901E+03  0.7957747E-01  0.3461278E+00
         13   -1    0    0    0    0  0.00000000000E+00  0.00000000000E+00  0.14999999963E+04  0.15000000000E+04  0.10566000000E+00 0. -1.
        994   -1    0    0    0    0 -0.00000000000E+00 -0.00000000000E+00  0.11368683772E-12  0.17120000000E+03  0.17120000000E+03 0.  0.
         13    1    1    2    0    0  0.22835097504E+02 -0.41653087715E+02  0.20097673514E+03  0.20651411725E+03  0.10566000000E+00 0. -1.
        994    1    1    2    0    0 -0.13851257443E+02  0.32042963164E+02  0.94197600105E+01  0.17497651471E+03  0.17120000000E+03 0.  0.
        998    1    1    2    0    0 -0.89838400606E+01  0.96101245511E+01  0.12896035011E+04  0.12897093680E+04  0.10000000000E+02 0. -1.
</event>
<event>
 5    1  0.1106231E-008  0.3848533E+03  0.7957747E-01  0.3430295E+00
         13   -1    0    0    0    0  0.00000000000E+00  0.00000000000E+00  0.14999999963E+04  0.15000000000E+04  0.10566000000E+00 0.  1.
        994   -1    0    0    0    0 -0.00000000000E+00 -0.00000000000E+00  0.11368683772E-12  0.17120000000E+03  0.17120000000E+03 0.  0.
         13    1    1    2    0    0  0.17672012354E+02  0.50633722472E+01  0.94732135313E+02  0.96499359501E+02  0.10566000000E+00 0.  1.
        994    1    1    2    0    0 -0.16542136601E+02 -0.73940029988E+01  0.27839604873E+01  0.17217869787E+03  0.17120000000E+03 0.  0.
        998    1    1    2    0    0 -0.11298757528E+01  0.23306307516E+01  0.14024839005E+04  0.14025219426E+04  0.10000000000E+02 0.  1.
</event>
<event>
 5    1  0.1106231E-008  0.3840612E+03  0.7957747E-01  0.3433663E+00
         13   -1    0    0    0    0  0.00000000000E+00  0.00000000000E+00  0.14999999963E+04  0.15000000000E+04  0.10566000000E+00 0. -1.
        994   -1    0    0    0    0 -0.00000000000E+00 -0.00000000000E+00  0.11368683772E-12  0.17120000000E+03  0.17120000000E+03 0.  0.
         13    1    1    2    0    0 -0.22885619934E+02 -0.42438034746E+01  0.98040672541E+02  0.10076579829E+03  0.10566000000E+00 0. -1.
        994    1    1    2    0    0  0.55109964593E+02  0.82779966061E+01  0.12409578936E+02  0.18046903079E+03  0.17120000000E+03 0.  0.
        998    1    1    2    0    0 -0.32224344658E+02 -0.40341931314E+01  0.13895497448E+04  0.13899651709E+04  0.10000000000E+02 0. -1.
</event>
<event>
 5    1  0.1106231E-008  0.3855773E+03  0.7957747E-01  0.3427228E+00
         13   -1    0    0    0    0  0.00000000000E+00  0.00000000000E+00  0.14999999963E+04  0.15000000000E+04  0.10566000000E+00 0.  1.
        994   -1    0    0    0    0 -0.00000000000E+00 -0.00000000000E+00  0.11368683772E-12  0.17120000000E+03  0.17120000000E+03 0.  0.
         13    1    1    2    0    0  0.13858453647E+02  0.12726606016E+01  0.72652018248E+02  0.73972990490E+02  0.10566000000E+00 0.  1.
        994    1    1    2    0    0 -0.87519930040E+01 -0.16833757865E+01  0.16045767293E+01  0.17143933563E+03  0.17120000000E+03 0.  0.
        998    1    1    2    0    0 -0.51064606427E+01  0.41071518486E+00  0.14257434013E+04  0.14257876739E+04  0.10000000000E+02 0.  1.
</event>
<event>
 5    1  0.1106231E-008  0.3836896E+03  0.7957747E-01  0.3435249E+00
         13   -1    0    0    0    0  0.00000000000E+00  0.00000000000E+00  0.14999999963E+04  0.15000000000E+04  0.10566000000E+00 0. -1.
        994   -1    0    0    0    0 -0.00000000000E+00 -0.00000000000E+00  0.11368683772E-12  0.17120000000E+03  0.17120000000E+03 0.  0.
         13    1    1    2    0    0  0.32237663000E+01  0.21768016147E+02  0.10960816887E+03  0.11179535340E+03  0.10566000000E+00 0. -1.
        994    1    1    2    0    0 -0.10308520519E+01 -0.82803485977E+01  0.25121100958E+01  0.17142163669E+03  0.17120000000E+03 0.  0.
        998    1    1    2    0    0 -0.21929142480E+01 -0.13487667550E+02  0.13878797173E+04  0.13879830099E+04  0.10000000000E+02 0. -1.
</event>
<event>
 5    1  0.1106231E-008  0.3785407E+03  0.7957747E-01  0.3457537E+00
         13   -1    0    0    0    0  0.00000000000E+00  0.00000000000E+00  0.14999999963E+04  0.15000000000E+04  0.10566000000E+00 0.  1.
        994   -1    0    0    0    0 -0.00000000000E+00 -0.00000000000E+00  0.11368683772E-12  0.17120000000E+03  0.17120000000E+03 0.  0.
         13    1    1    2    0    0 -0.26440348772E+02 -0.10912434371E+01  0.70136970307E+02  0.74963248484E+02  0.10566000000E+00 0.  1.
        994    1    1    2    0    0  0.16083880847E+02  0.11794818098E+02  0.62090066319E+01  0.17246970957E+03  0.17120000000E+03 0.  0.
        998    1    1    2    0    0  0.10356467925E+02 -0.10703574661E+02  0.14236540193E+04  0.14237670419E+04  0.10000000000E+02 0.  1.
</event>
<event>
 5    1  0.1106231E-008  0.2798910E+03  0.7957747E-01  0.4050935E+00
         13   -1    0    0    0    0  0.00000000000E+00  0.00000000000E+00  0.14999999963E+04  0.15000000000E+04  0.10566000000E+00 0.  1.
        994   -1    0    0    0    0 -0.00000000000E+00 -0.00000000000E+00  0.11368683772E-12  0.17120000000E+03  0.17120000000E+03 0.  0.
         13    1    1    2    0    0  0.15224899687E+03  0.78268546421E+02  0.72513097262E+03  0.74506419927E+03  0.10566000000E+00 0.  1.
        994    1    1    2    0    0 -0.32795733958E+02 -0.19058554545E+02  0.40859255617E+02  0.18004918061E+03  0.17120000000E+03 0.  0.
        998    1    1    2    0    0 -0.11945326291E+03 -0.59209991877E+02  0.73400976804E+03  0.74608662013E+03  0.10000000000E+02 0.  1.
</event>
<event>
 5    1  0.1106231E-008  0.3821221E+03  0.7957747E-01  0.3441970E+00
         13   -1    0    0    0    0  0.00000000000E+00  0.00000000000E+00  0.14999999963E+04  0.15000000000E+04  0.10566000000E+00 0.  1.
        994   -1    0    0    0    0 -0.00000000000E+00 -0.00000000000E+00  0.11368683772E-12  0.17120000000E+03  0.17120000000E+03 0.  0.
         13    1    1    2    0    0  0.15612461738E+01 -0.14379518031E+02  0.32550648025E+02  0.35619711948E+02  0.10566000000E+00 0.  1.
        994    1    1    2    0    0 -0.19272075385E+01  0.13702622694E+02  0.37016104563E+01  0.17179818951E+03  0.17120000000E+03 0.  0.
        998    1    1    2    0    0  0.36596136469E+00  0.67689533731E+00  0.14637477378E+04  0.14637820985E+04  0.10000000000E+02 0.  0.
</event>
<event>
 5    1  0.2784561E-008  0.3864435E+03  0.7957747E-01  0.3423573E+00
         13   -1    0    0    0    0  0.00000000000E+00  0.00000000000E+00  0.14999999963E+04  0.15000000000E+04  0.10566000000E+00 0. -1.
        994   -1    0    0    0    0 -0.00000000000E+00 -0.00000000000E+00  0.11368683772E-12  0.17120000000E+03  0.17120000000E+03 0.  0.
         13    1    1    2    0    0  0.72009581630E+01 -0.71564449250E+01  0.54512214950E+02  0.55449627999E+02  0.10566000000E+00 0. -1.
        994    1    1    2    0    0 -0.95119919436E+01  0.10013737455E+02  0.15398166923E+01  0.17176310420E+03  0.17120000000E+03 0.  0.
        998    1    1    2    0    0  0.23110337806E+01 -0.28572925296E+01  0.14439479646E+04  0.14439872678E+04  0.10000000000E+02 0. -1.
</event>
<event>
 5    1  0.1106231E-008  0.3833803E+03  0.7957747E-01  0.3436571E+00
         13   -1    0    0    0    0  0.00000000000E+00  0.00000000000E+00  0.14999999963E+04  0.15000000000E+04  0.10566000000E+00 0.  1.
        994   -1    0    0    0    0 -0.00000000000E+00 -0.00000000000E+00  0.11368683772E-12  0.17120000000E+03  0.17120000000E+03 0.  0.
         13    1    1    2    0    0  0.20309936875E+02 -0.99396736617E+01  0.95757081415E+02  0.98390652267E+02  0.10566000000E+00 0.  1.
        994    1    1    2    0    0 -0.27553299553E+02  0.66889147732E+01  0.50987492183E+01  0.17360692135E+03  0.17120000000E+03 0.  0.
        998    1    1    2    0    0  0.72433626784E+01  0.32507588885E+01  0.13991441656E+04  0.13992024264E+04  0.10000000000E+02 0.  1.
</event>
<event>
 5    1  0.1106231E-008  0.3710866E+03  0.7957747E-01  0.3490912E+00
         13   -1    0    0    0    0  0.00000000000E+00  0.00000000000E+00  0.14999999963E+04  0.15000000000E+04  0.10566000000E+00 0.  1.
        994   -1    0    0    0    0 -0.00000000000E+00 -0.00000000000E+00  0.11368683772E-12  0.17120000000E+03  0.17120000000E+03 0.  0.
         13    1    1    2    0    0 -0.34796847981E+02 -0.23973224529E+02  0.95141022855E+02  0.10410264895E+03  0.10566000000E+00 0.  1.
        994    1    1    2    0    0  0.44934799456E+02  0.25759186845E+01  0.15712938191E+02  0.17771355600E+03  0.17120000000E+03 0.  0.
        998    1    1    2    0    0 -0.10137951475E+02  0.21397305845E+02  0.13891460352E+04  0.13893837951E+04  0.10000000000E+02 0.  1.
</event>
<event>
 5    1  0.1106231E-008  0.3806538E+03  0.7957747E-01  0.3448317E+00
         13   -1    0    0    0    0  0.00000000000E+00  0.00000000000E+00  0.14999999963E+04  0.15000000000E+04  0.10566000000E+00 0. -1.
        994   -1    0    0    0    0 -0.00000000000E+00 -0.00000000000E+00  0.11368683772E-12  0.17120000000E+03  0.17120000000E+03 0.  0.
         13    1    1    2    0    0  0.11325945973E+02 -0.14525585883E+00  0.15061268429E+02  0.18845453620E+02  0.10566000000E+00 0. -1.
        994    1    1    2    0    0 -0.13014650963E+02 -0.24995446220E+01  0.43895428672E+01  0.17176826526E+03  0.17120000000E+03 0.  0.
        998    1    1    2    0    0  0.16887049909E+01  0.26448004808E+01  0.14805491850E+04  0.14805862811E+04  0.10000000000E+02 0. -1.
</event>
<event>
 5    1  0.1106231E-008  0.3857651E+03  0.7957747E-01  0.3426434E+00
         13   -1    0    0    0    0  0.00000000000E+00  0.00000000000E+00  0.14999999963E+04  0.15000000000E+04  0.10566000000E+00 0. -1.
        994   -1    0    0    0    0 -0.00000000000E+00 -0.00000000000E+00  0.11368683772E-12  0.17120000000E+03  0.17120000000E+03 0.  0.
         13    1    1    2    0    0 -0.14115936974E+02  0.18806427190E+01  0.80402609409E+02  0.81654070674E+02  0.10566000000E+00 0. -1.
        994    1    1    2    0    0  0.12066065824E+02  0.40889466552E+01  0.17834145846E+01  0.17168264326E+03  0.17120000000E+03 0.  0.
        998    1    1    2    0    0  0.20498711490E+01 -0.59695893742E+01  0.14178139723E+04  0.14178632861E+04  0.10000000000E+02 0. -1.
</event>
<event>
 5    1  0.1106231E-008  0.3746532E+03  0.7957747E-01  0.3474775E+00
         13   -1    0    0    0    0  0.00000000000E+00  0.00000000000E+00  0.14999999963E+04  0.15000000000E+04  0.10566000000E+00 0. -1.
        994   -1    0    0    0    0 -0.00000000000E+00 -0.00000000000E+00  0.11368683772E-12  0.17120000000E+03  0.17120000000E+03 0.  0.
         13    1    1    2    0    0  0.14415678717E+01  0.11205964015E+02  0.62034570467E+01  0.12889755266E+02  0.10566000000E+00 0. -1.
        994    1    1    2    0    0 -0.12745925948E+01 -0.55140062292E+01  0.69659253095E+01  0.17143509841E+03  0.17120000000E+03 0.  0.
        998    1    1    2    0    0 -0.16697527692E+00 -0.56919577861E+01  0.14868306139E+04  0.14868751463E+04  0.10000000000E+02 0. -1.
</event>
<event>
 5    1  0.1106231E-008  0.3765844E+03  0.7957747E-01  0.3466167E+00
         13   -1    0    0    0    0  0.00000000000E+00  0.00000000000E+00  0.14999999963E+04  0.15000000000E+04  0.10566000000E+00 0. -1.
        994   -1    0    0    0    0 -0.00000000000E+00 -0.00000000000E+00  0.11368683772E-12  0.17120000000E+03  0.17120000000E+03 0.  0.
         13    1    1    2    0    0  0.68494024288E+00  0.24709272175E+02  0.56228148879E+02  0.61421764587E+02  0.10566000000E+00 0. -1.
        994    1    1    2    0    0 -0.11356736961E+02  0.19215376815E+02  0.75536384834E+01  0.17281407244E+03  0.17120000000E+03 0.  0.
        998    1    1    2    0    0  0.10671796718E+02 -0.43924648990E+02  0.14362182089E+04  0.14369641630E+04  0.10000000000E+02 0. -1.
</event>
<event>
 5    1  0.1106231E-008  0.3822679E+03  0.7957747E-01  0.3441343E+00
         13   -1    0    0    0    0  0.00000000000E+00  0.00000000000E+00  0.14999999963E+04  0.15000000000E+04  0.10566000000E+00 0.  1.
        994   -1    0    0    0    0 -0.00000000000E+00 -0.00000000000E+00  0.11368683772E-12  0.17120000000E+03  0.17120000000E+03 0.  0.
         13    1    1    2    0    0  0.10216986758E+02  0.37804181893E+01  0.18447508125E+02  0.21424287624E+02  0.10566000000E+00 0.  1.
        994    1    1    2    0    0 -0.81778474414E+01 -0.10696509147E+02  0.35944673781E+01  0.17176627344E+03  0.17120000000E+03 0.  0.
        998    1    1    2    0    0 -0.20391393167E+01  0.69160909582E+01  0.14779580208E+04  0.14780094389E+04  0.10000000000E+02 0.  1.
</event>
<event>
 5    1  0.1106231E-008  0.3779357E+03  0.7957747E-01  0.3460197E+00
         13   -1    0    0    0    0  0.00000000000E+00  0.00000000000E+00  0.14999999963E+04  0.15000000000E+04  0.10566000000E+00 0. -1.
        994   -1    0    0    0    0 -0.00000000000E+00 -0.00000000000E+00  0.11368683772E-12  0.17120000000E+03  0.17120000000E+03 0.  0.
         13    1    1    2    0    0 -0.43961354926E+02 -0.28170876363E+02  0.19948613112E+03  0.20620602967E+03  0.10566000000E+00 0. -1.
        994    1    1    2    0    0  0.64372048117E+02  0.33263089873E+02  0.23059091991E+02  0.18732686793E+03  0.17120000000E+03 0.  0.
        998    1    1    2    0    0 -0.20410693191E+02 -0.50922135106E+01  0.12774547732E+04  0.12776671024E+04  0.10000000000E+02 0. -1.
</event>
<event>
 5    1  0.1106231E-008  0.3806451E+03  0.7957747E-01  0.3448354E+00
         13   -1    0    0    0    0  0.00000000000E+00  0.00000000000E+00  0.14999999963E+04  0.15000000000E+04  0.10566000000E+00 0. -1.
        994   -1    0    0    0    0 -0.00000000000E+00 -0.00000000000E+00  0.11368683772E-12  0.17120000000E+03  0.17120000000E+03 0.  0.
         13    1    1    2    0    0  0.18654629857E+02  0.23773680718E+02  0.11353950744E+03  0.11749218707E+03  0.10566000000E+00 0. -1.
        994    1    1    2    0    0 -0.15333330143E+02 -0.20925312675E+02  0.60560257936E+01  0.17326019500E+03  0.17120000000E+03 0.  0.
        998    1    1    2    0    0 -0.33212997142E+01 -0.28483680432E+01  0.13804044630E+04  0.13804476179E+04  0.10000000000E+02 0.  0.
</event>
<event>
 5    1  0.1106231E-008  0.3839188E+03  0.7957747E-01  0.3434271E+00
         13   -1    0    0    0    0  0.00000000000E+00  0.00000000000E+00  0.14999999963E+04  0.15000000000E+04  0.10566000000E+00 0.  1.
        994   -1    0    0    0    0 -0.00000000000E+00 -0.00000000000E+00  0.11368683772E-12  0.17120000000E+03  0.17120000000E+03 0.  0.
         13    1    1    2    0    0 -0.45997302054E+01  0.13545296650E+02  0.46628085579E+02  0.48773169962E+02  0.10566000000E+00 0.  1.
        994    1    1    2    0    0  0.24515773897E+01 -0.95044216019E+01  0.24859255927E+01  0.17149916643E+03  0.17120000000E+03 0.  0.
        998    1    1    2    0    0  0.21481528157E+01 -0.40408750477E+01  0.14508859851E+04  0.14509276636E+04  0.10000000000E+02 0.  1.
</event>
<event>
 5    1  0.1106231E-008  0.3723705E+03  0.7957747E-01  0.3485067E+00
         13   -1    0    0    0    0  0.00000000000E+00  0.00000000000E+00  0.14999999963E+04  0.15000000000E+04  0.10566000000E+00 0.  1.
        994   -1    0    0    0    0 -0.00000000000E+00 -0.00000000000E+00  0.11368683772E-12  0.17120000000E+03  0.17120000000E+03 0.  0.
         13    1    1    2    0    0 -0.34478558442E+02 -0.38872849988E+02  0.18582515497E+03  0.19295302237E+03  0.10566000000E+00 0.  1.
        994    1    1    2    0    0  0.18847233044E+02 -0.44486216168E+01  0.93224559595E+01  0.17254378173E+03  0.17120000000E+03 0.  0.
        998    1    1    2    0    0  0.15631325398E+02  0.43321471605E+02  0.13048523854E+04  0.13057031959E+04  0.10000000000E+02 0.  1.
</event>
<event>
 5    1  0.1106231E-008  0.3821057E+03  0.7957747E-01  0.3442041E+00
         13   -1    0    0    0    0  0.00000000000E+00  0.00000000000E+00  0.14999999963E+04  0.15000000000E+04  0.10566000000E+00 0. -1.
        994   -1    0    0    0    0 -0.00000000000E+00 -0.00000000000E+00  0.11368683772E-12  0.17120000000E+03  0.17120000000E+03 0.  0.
         13    1    1    2    0    0 -0.14647873562E+02 -0.27990624285E+01  0.34852546287E+02  0.37909182227E+02  0.10566000000E+00 0. -1.
        994    1    1    2    0    0  0.11593090967E+02  0.24145460726E+01  0.35396452741E+01  0.17164556178E+03  0.17120000000E+03 0.  0.
        998    1    1    2    0    0  0.30547825952E+01  0.38451635587E+00  0.14616078047E+04  0.14616452560E+04  0.10000000000E+02 0. -1.
</event>
<event>
 5    1  0.1106231E-008  0.3833660E+03  0.7957747E-01  0.3436632E+00
         13   -1    0    0    0    0  0.00000000000E+00  0.00000000000E+00  0.14999999963E+04  0.15000000000E+04  0.10566000000E+00 0.  1.
        994   -1    0    0    0    0 -0.00000000000E+00 -0.00000000000E+00  0.11368683772E-12  0.17120000000E+03  0.17120000000E+03 0.  0.
         13    1    1    2    0    0 -0.77465767474E+01 -0.74829034647E+01  0.22552094797E+02  0.24992227578E+02  0.10566000000E+00 0.  1.
        994    1    1    2    0    0  0.78154688165E+01  0.91122802481E+01  0.29201625915E+01  0.17164522293E+03  0.17120000000E+03 0.  0.
        998    1    1    2    0    0 -0.68892069132E-01 -0.16293767834E+01  0.14745277389E+04  0.14745625495E+04  0.10000000000E+02 0.  1.
</event>
<event>
 5    1  0.1366987E-008  0.3865065E+03  0.7957747E-01  0.3423308E+00
         13   -1    0    0    0    0  0.00000000000E+00  0.00000000000E+00  0.14999999963E+04  0.15000000000E+04  0.10566000000E+00 0. -1.
        994   -1    0    0    0    0 -0.00000000000E+00 -0.00000000000E+00  0.11368683772E-12  0.17120000000E+03  0.17120000000E+03 0.  0.
         13    1    1    2    0    0  0.10754483030E+02  0.47334465320E+00  0.62965277450E+02  0.63878950279E+02  0.10566000000E+00 0. -1.
        994    1    1    2    0    0 -0.15160488779E+02  0.80345057814E+01  0.18480579686E+01  0.17206757109E+03  0.17120000000E+03 0.  0.
        998    1    1    2    0    0  0.44060057487E+01 -0.85078504346E+01  0.14351866609E+04  0.14352534786E+04  0.10000000000E+02 0. -1.
</event>
<event>
 5    1  0.1106231E-008  0.3779346E+03  0.7957747E-01  0.3460201E+00
         13   -1    0    0    0    0  0.00000000000E+00  0.00000000000E+00  0.14999999963E+04  0.15000000000E+04  0.10566000000E+00 0. -1.
        994   -1    0    0    0    0 -0.00000000000E+00 -0.00000000000E+00  0.11368683772E-12  0.17120000000E+03  0.17120000000E+03 0.  0.
         13    1    1    2    0    0  0.74434036826E+01  0.32406233506E+02  0.10741820511E+03  0.11244665482E+03  0.10566000000E+00 0. -1.
        994    1    1    2    0    0  0.45755222885E+01 -0.16746492141E+02  0.61944443970E+01  0.17218940602E+03  0.17120000000E+03 0.  0.
        998    1    1    2    0    0 -0.12018925971E+02 -0.15659741365E+02  0.13863873468E+04  0.13865639392E+04  0.10000000000E+02 0. -1.
</event>
<event>
 5    1  0.1106231E-008  0.3688980E+03  0.7957747E-01  0.3500971E+00
         13   -1    0    0    0    0  0.00000000000E+00  0.00000000000E+00  0.14999999963E+04  0.15000000000E+04  0.10566000000E+00 0. -1.
        994   -1    0    0    0    0 -0.00000000000E+00 -0.00000000000E+00  0.11368683772E-12  0.17120000000E+03  0.17120000000E+03 0.  0.
         13    1    1    2    0    0 -0.63290149558E+01 -0.13260612677E+02  0.64712058071E+01  0.16055776142E+02  0.10566000000E+00 0. -1.
        994    1    1    2    0    0  0.12811609712E+02  0.77057606383E+01  0.10622388508E+02  0.17217953197E+03  0.17120000000E+03 0.  0.
        998    1    1    2    0    0 -0.64825947558E+01  0.55548520385E+01  0.14829064020E+04  0.14829646919E+04  0.10000000000E+02 0. -1.
</event>
<event>
 5    1  0.1106231E-008  0.3764978E+03  0.7957747E-01  0.3466551E+00
         13   -1    0    0    0    0  0.00000000000E+00  0.00000000000E+00  0.14999999963E+04  0.15000000000E+04  0.10566000000E+00 0.  1.
        994   -1    0    0    0    0 -0.00000000000E+00 -0.00000000000E+00  0.11368683772E-12  0.17120000000E+03  0.17120000000E+03 0.  0.
         13    1    1    2    0    0  0.28042700501E+02  0.60186945457E+01  0.66303147402E+02  0.72240821250E+02  0.10566000000E+00 0.  1.
        994    1    1    2    0    0 -0.22494193937E+02 -0.26547746390E+01  0.76486463920E+01  0.17286115348E+03  0.17120000000E+03 0.  0.
        998    1    1    2    0    0 -0.55485065634E+01 -0.33639199067E+01  0.14260482025E+04  0.14260980253E+04  0.10000000000E+02 0.  1.
</event>
<event>
 5    1  0.1106231E-008  0.3754372E+03  0.7957747E-01  0.3471270E+00
         13   -1    0    0    0    0  0.00000000000E+00  0.00000000000E+00  0.14999999963E+04  0.15000000000E+04  0.10566000000E+00 0.  1.
        994   -1    0    0    0    0 -0.00000000000E+00 -0.00000000000E+00  0.11368683772E-12  0.17120000000E+03  0.17120000000E+03 0.  0.
         13    1    1    2    0    0  0.25124033454E+02  0.80512527147E+00  0.49214100497E+02  0.55262140163E+02  0.10566000000E+00 0.  1.
        994    1    1    2    0    0  0.19303478528E+01 -0.38963738511E+01  0.65185564475E+01  0.17137922730E+03  0.17120000000E+03 0.  0.
        998    1    1    2    0    0 -0.27054381307E+02  0.30912485796E+01  0.14442673393E+04  0.14445586325E+04  0.10000000000E+02 0.  1.
</event>
<event>
 5    1  0.1106231E-008  0.3791688E+03  0.7957747E-01  0.3454786E+00
         13   -1    0    0    0    0  0.00000000000E+00  0.00000000000E+00  0.14999999963E+04  0.15000000000E+04  0.10566000000E+00 0.  1.
        994   -1    0    0    0    0 -0.00000000000E+00 -0.00000000000E+00  0.11368683772E-12  0.17120000000E+03  0.17120000000E+03 0.  0.
         13    1    1    2    0    0 -0.40273028561E+02 -0.18570548904E+02  0.19068267838E+03  0.19577200289E+03  0.10566000000E+00 0.  1.
        994    1    1    2    0    0  0.32129224447E+02  0.33770333248E+02  0.11871261717E+02  0.17782882029E+03  0.17120000000E+03 0.  0.
        998    1    1    2    0    0  0.81438041139E+01 -0.15199784343E+02  0.12974460562E+04  0.12975991768E+04  0.10000000000E+02 0.  1.
</event>
<event>
 5    1  0.1106231E-008  0.3898831E+03  0.7957747E-01  0.3409223E+00
         13   -1    0    0    0    0  0.00000000000E+00  0.00000000000E+00  0.14999999963E+04  0.15000000000E+04  0.10566000000E+00 0. -1.
        994   -1    0    0    0    0 -0.00000000000E+00 -0.00000000000E+00  0.11368683772E-12  0.17120000000E+03  0.17120000000E+03 0.  0.
         13    1    1    2    0    0 -0.13329608796E+01  0.14268249283E+03  0.36633165562E+03  0.39313987793E+03  0.10566000000E+00 0. -1.
        994    1    1    2    0    0  0.20346436044E+01 -0.12687184152E+03  0.85315851862E+02  0.22954049430E+03  0.17120000000E+03 0.  0.
        998    1    1    2    0    0 -0.70168272476E+00 -0.15810651312E+02  0.10483524888E+04  0.10485196278E+04  0.10000000000E+02 0. -1.
</event>
<event>
 5    1  0.1106231E-008  0.3772035E+03  0.7957747E-01  0.3463426E+00
         13   -1    0    0    0    0  0.00000000000E+00  0.00000000000E+00  0.14999999963E+04  0.15000000000E+04  0.10566000000E+00 0. -1.
        994   -1    0    0    0    0 -0.00000000000E+00 -0.00000000000E+00  0.11368683772E-12  0.17120000000E+03  0.17120000000E+03 0.  0.
         13    1    1    2    0    0  0.26171147761E+02 -0.60491872429E+02  0.31519237662E+03  0.32201000147E+03  0.10566000000E+00 0. -1.
        994    1    1    2    0    0 -0.14169978080E+02  0.63207349424E+02  0.19842678806E+02  0.18411716162E+03  0.17120000000E+03 0.  0.
        998    1    1    2    0    0 -0.12001169680E+02 -0.27154769955E+01  0.11649649409E+04  0.11650728369E+04  0.10000000000E+02 0. -1.
</event>
<event>
 5    1  0.1106231E-008  0.3801560E+03  0.7957747E-01  0.3450480E+00
         13   -1    0    0    0    0  0.00000000000E+00  0.00000000000E+00  0.14999999963E+04  0.15000000000E+04  0.10566000000E+00 0. -1.
        994   -1    0    0    0    0 -0.00000000000E+00 -0.00000000000E+00  0.11368683772E-12  0.17120000000E+03  0.17120000000E+03 0.  0.
         13    1    1    2    0    0 -0.12273609352E+02 -0.46420127913E+01  0.19406405508E+02  0.23426683676E+02  0.10566000000E+00 0. -1.
        994    1    1    2    0    0  0.12058519172E+02  0.16611017063E+01  0.45496504325E+01  0.17169247643E+03  0.17120000000E+03 0.  0.
        998    1    1    2    0    0  0.21509017945E+00  0.29809110851E+01  0.14760439403E+04  0.14760808399E+04  0.10000000000E+02 0. -1.
</event>
<event>
 5    1  0.1106231E-008  0.3725204E+03  0.7957747E-01  0.3484387E+00
         13   -1    0    0    0    0  0.00000000000E+00  0.00000000000E+00  0.14999999963E+04  0.15000000000E+04  0.10566000000E+00 0. -1.
        994   -1    0    0    0    0 -0.00000000000E+00 -0.00000000000E+00  0.11368683772E-12  0.17120000000E+03  0.17120000000E+03 0.  0.
         13    1    1    2    0    0 -0.53822410064E+01 -0.36326997478E+02  0.77404590836E+02  0.85674390050E+02  0.10566000000E+00 0. -1.
        994    1    1    2    0    0  0.67973502905E+01  0.38355732747E+02  0.13176846431E+02  0.17606940531E+03  0.17120000000E+03 0.  0.
        998    1    1    2    0    0 -0.14151092841E+01 -0.20287352696E+01  0.14094185590E+04  0.14094562046E+04  0.10000000000E+02 0. -1.
</event>
<event>
 5    1  0.1106231E-008  0.3829930E+03  0.7957747E-01  0.3438229E+00
         13   -1    0    0    0    0  0.00000000000E+00  0.00000000000E+00  0.14999999963E+04  0.15000000000E+04  0.10566000000E+00 0.  1.
        994   -1    0    0    0    0 -0.00000000000E+00 -0.00000000000E+00  0.11368683772E-12  0.17120000000E+03  0.17120000000E+03 0.  0.
         13    1    1    2    0    0 -0.12601830168E+02  0.54611265224E-01  0.31314546401E+02  0.33755311971E+02  0.10566000000E+00 0.  1.
        994    1    1    2    0    0 -0.93563104110E+01  0.96615960766E+00  0.29227990716E+01  0.17148310927E+03  0.17120000000E+03 0.  0.
        998    1    1    2    0    0  0.21958140579E+02 -0.10207708729E+01  0.14657626508E+04  0.14659615788E+04  0.10000000000E+02 0.  1.
</event>
<event>
 5    1  0.1106231E-008  0.3861354E+03  0.7957747E-01  0.3424871E+00
         13   -1    0    0    0    0  0.00000000000E+00  0.00000000000E+00  0.14999999963E+04  0.15000000000E+04  0.10566000000E+00 0.  1.
        994   -1    0    0    0    0 -0.00000000000E+00 -0.00000000000E+00  0.11368683772E-12  0.17120000000E+03  0.17120000000E+03 0.  0.
         13    1    1    2    0    0  0.93140232095E+01  0.71704614544E+01  0.59728684548E+02  0.60874407329E+02  0.10566000000E+00 0.  1.
        994    1    1    2    0    0 -0.17412018867E+02 -0.11374108948E+02  0.24860188518E+01  0.17247657535E+03  0.17120000000E+03 0.  0.
        998    1    1    2    0    0  0.80979956580E+01  0.42036474940E+01  0.14377852929E+04  0.14378490173E+04  0.10000000000E+02 0.  1.
</event>
<event>
 5    1  0.1106231E-008  0.3272939E+03  0.7957747E-01  0.3718577E+00
         13   -1    0    0    0    0  0.00000000000E+00  0.00000000000E+00  0.14999999963E+04  0.15000000000E+04  0.10566000000E+00 0.  1.
        994   -1    0    0    0    0 -0.00000000000E+00 -0.00000000000E+00  0.11368683772E-12  0.17120000000E+03  0.17120000000E+03 0.  0.
         13    1    1    2    0    0 -0.22641063167E+03  0.11526846378E+03  0.55776819601E+03  0.61290616290E+03  0.10566000000E+00 0.  1.
        994    1    1    2    0    0  0.24046457515E+03 -0.17469935022E+03  0.46906597706E+03  0.58109844751E+03  0.17120000000E+03 0.  0.
        998    1    1    2    0    0 -0.14053943471E+02  0.59430886441E+02  0.47316582321E+03  0.47719538959E+03  0.10000000000E+02 0. -1.
</event>
<event>
 5    1  0.1106231E-008  0.3825160E+03  0.7957747E-01  0.3440276E+00
         13   -1    0    0    0    0  0.00000000000E+00  0.00000000000E+00  0.14999999963E+04  0.15000000000E+04  0.10566000000E+00 0. -1.
        994   -1    0    0    0    0 -0.00000000000E+00 -0.00000000000E+00  0.11368683772E-12  0.17120000000E+03  0.17120000000E+03 0.  0.
         13    1    1    2    0    0  0.87469280469E+01  0.26905888837E+02  0.12585434863E+03  0.12899520858E+03  0.10566000000E+00 0. -1.
        994    1    1    2    0    0 -0.12621638865E+02 -0.28979414344E+02  0.61879169703E+01  0.17420345157E+03  0.17120000000E+03 0.  0.
        998    1    1    2    0    0  0.38747108178E+01  0.20735255067E+01  0.13679577307E+04  0.13680013398E+04  0.10000000000E+02 0. -1.
</event>
<event>
 5    1  0.1106231E-008  0.3754084E+03  0.7957747E-01  0.3471398E+00
         13   -1    0    0    0    0  0.00000000000E+00  0.00000000000E+00  0.14999999963E+04  0.15000000000E+04  0.10566000000E+00 0. -1.
        994   -1    0    0    0    0 -0.00000000000E+00 -0.00000000000E+00  0.11368683772E-12  0.17120000000E+03  0.17120000000E+03 0.  0.
         13    1    1    2    0    0 -0.88757418539E+01 -0.15544746351E+02  0.22255557538E+02  0.28561143849E+02  0.10566000000E+00 0. -1.
        994    1    1    2    0    0 -0.31628100561E+00  0.97135747897E+01  0.67898615478E+01  0.17161001075E+03  0.17120000000E+03 0.  0.
        998    1    1    2    0    0  0.91920228595E+01  0.58311715615E+01  0.14709545772E+04  0.14710288454E+04  0.10000000000E+02 0. -1.
</event>
<event>
 5    1  0.1106231E-008  0.3813622E+03  0.7957747E-01  0.3445248E+00
         13   -1    0    0    0    0  0.00000000000E+00  0.00000000000E+00  0.14999999963E+04  0.15000000000E+04  0.10566000000E+00 0.  1.
        994   -1    0    0    0    0 -0.00000000000E+00 -0.00000000000E+00  0.11368683772E-12  0.17120000000E+03  0.17120000000E+03 0.  0.
         13    1    1    2    0    0  0.13063618427E+02 -0.13376802714E+02  0.50524207592E+02  0.53873033088E+02  0.10566000000E+00 0.  1.
        994    1    1    2    0    0 -0.16148690430E+02 -0.56779711167E+01  0.44228272149E+01  0.17211049056E+03  0.17120000000E+03 0.  0.
        998    1    1    2    0    0  0.30850720028E+01  0.19054773831E+02  0.14450529615E+04  0.14452164764E+04  0.10000000000E+02 0.  1.
</event>
<event>
 5    1  0.1106231E-008  0.3691187E+03  0.7957747E-01  0.3499951E+00
         13   -1    0    0    0    0  0.00000000000E+00  0.00000000000E+00  0.14999999963E+04  0.15000000000E+04  0.10566000000E+00 0. -1.
        994   -1    0    0    0    0 -0.00000000000E+00 -0.00000000000E+00  0.11368683772E-12  0.17120000000E+03  0.17120000000E+03 0.  0.
         13    1    1    2    0    0 -0.32344292835E+02 -0.25343795194E+02  0.78798400979E+02  0.88868781891E+02  0.10566000000E+00 0. -1.
        994    1    1    2    0    0  0.41344809572E+02  0.16566089644E+02  0.16642394571E+02  0.17768015618E+03  0.17120000000E+03 0.  0.
        998    1    1    2    0    0 -0.90005167371E+01  0.87777055495E+01  0.14045592007E+04  0.14046510619E+04  0.10000000000E+02 0. -1.
</event>
<event>
 5    1  0.1106231E-008  0.3715299E+03  0.7957747E-01  0.3488889E+00
         13   -1    0    0    0    0  0.00000000000E+00  0.00000000000E+00  0.14999999963E+04  0.15000000000E+04  0.10566000000E+00 0. -1.
        994   -1    0    0    0    0 -0.00000000000E+00 -0.00000000000E+00  0.11368683772E-12  0.17120000000E+03  0.17120000000E+03 0.  0.
         13    1    1    2    0    0  0.32502134038E+02 -0.86265159121E+01  0.42535617683E+02  0.54222646832E+02  0.10566000000E+00 0. -1.
        994    1    1    2    0    0 -0.32245303560E+02  0.41158781623E+01  0.15473227423E+02  0.17494445067E+03  0.17120000000E+03 0.  0.
        998    1    1    2    0    0 -0.25683047822E+00  0.45106377498E+01  0.14419911512E+04  0.14420329025E+04  0.10000000000E+02 0. -1.
</event>
<event>
 5    1  0.1106231E-008  0.3849481E+03  0.7957747E-01  0.3429892E+00
         13   -1    0    0    0    0  0.00000000000E+00  0.00000000000E+00  0.14999999963E+04  0.15000000000E+04  0.10566000000E+00 0.  1.
        994   -1    0    0    0    0 -0.00000000000E+00 -0.00000000000E+00  0.11368683772E-12  0.17120000000E+03  0.17120000000E+03 0.  0.
         13    1    1    2    0    0  0.16935060076E+01 -0.99231678612E+01  0.28767211227E+02  0.30477874415E+02  0.10566000000E+00 0.  1.
        994    1    1    2    0    0 -0.50390161703E+01  0.18754295582E+02  0.28973046163E+01  0.17232222625E+03  0.17120000000E+03 0.  0.
        998    1    1    2    0    0  0.33455101627E+01 -0.88311277206E+01  0.14683354804E+04  0.14683998993E+04  0.10000000000E+02 0.  1.
</event>
<event>
 5    1  0.1106231E-008  0.3842380E+03  0.7957747E-01  0.3432910E+00
         13   -1    0    0    0    0  0.00000000000E+00  0.00000000000E+00  0.14999999963E+04  0.15000000000E+04  0.10566000000E+00 0. -1.
        994   -1    0    0    0    0 -0.00000000000E+00 -0.00000000000E+00  0.11368683772E-12  0.17120000000E+03  0.17120000000E+03 0.  0.
         13    1    1    2    0    0 -0.13600452034E+02 -0.33105898660E+01  0.48439296163E+02  0.50421313724E+02  0.10566000000E+00 0. -1.
        994    1    1    2    0    0  0.64799855852E+01  0.12044447005E+02  0.26258592361E+01  0.17176552056E+03  0.17120000000E+03 0.  0.
        998    1    1    2    0    0  0.71204664487E+01 -0.87338571386E+01  0.14489348409E+04  0.14490131657E+04  0.10000000000E+02 0. -1.
</event>
<event>
 5    1  0.1106231E-008  0.2777485E+03  0.7957747E-01  0.4068908E+00
         13   -1    0    0    0    0  0.00000000000E+00  0.00000000000E+00  0.14999999963E+04  0.15000000000E+04  0.10566000000E+00 0. -1.
        994   -1    0    0    0    0 -0.00000000000E+00 -0.00000000000E+00  0.11368683772E-12  0.17120000000E+03  0.17120000000E+03 0.  0.
         13    1    1    2    0    0 -0.10047813272E+03  0.12284845495E+03  0.61046098716E+03  0.63075369682E+03  0.10566000000E+00 0. -1.
        994    1    1    2    0    0  0.62580201577E+02 -0.64385111777E+02  0.52316480649E+02  0.20027026338E+03  0.17120000000E+03 0.  0.
        998    1    1    2    0    0  0.37897931144E+02 -0.58463343173E+02  0.83722252847E+03  0.84017603980E+03  0.10000000000E+02 0. -1.
</event>
<event>
 5    1  0.1106231E-008  0.3811279E+03  0.7957747E-01  0.3446262E+00
         13   -1    0    0    0    0  0.00000000000E+00  0.00000000000E+00  0.14999999963E+04  0.15000000000E+04  0.10566000000E+00 0.  1.
        994   -1    0    0    0    0 -0.00000000000E+00 -0.00000000000E+00  0.11368683772E-12  0.17120000000E+03  0.17120000000E+03 0.  0.
         13    1    1    2    0    0 -0.57902452601E+01  0.31033138185E+02  0.18028921295E+03  0.18303222141E+03  0.10566000000E+00 0.  1.
        994    1    1    2    0    0 -0.24607588215E+02  0.98246634386E+01  0.59065702312E+01  0.17333893095E+03  0.17120000000E+03 0.  0.
        998    1    1    2    0    0  0.30397833475E+02 -0.40857801624E+02  0.13138042131E+04  0.13148288476E+04  0.10000000000E+02 0.  1.
</event>
<event>
 5    1  0.1106231E-008  0.3765895E+03  0.7957747E-01  0.3466144E+00
         13   -1    0    0    0    0  0.00000000000E+00  0.00000000000E+00  0.14999999963E+04  0.15000000000E+04  0.10566000000E+00 0. -1.
        994   -1    0    0    0    0 -0.00000000000E+00 -0.00000000000E+00  0.11368683772E-12  0.17120000000E+03  0.17120000000E+03 0.  0.
         13    1    1    2    0    0  0.27639096575E+02  0.57885366146E+02  0.32540541219E+03  0.33166749723E+03  0.10566000000E+00 0. -1.
        994    1    1    2    0    0 -0.29970733052E+02 -0.35673183992E+02  0.13239949070E+02  0.17792008641E+03  0.17120000000E+03 0.  0.
        998    1    1    2    0    0  0.23316364772E+01 -0.22212182154E+02  0.11613546350E+04  0.11616124164E+04  0.10000000000E+02 0. -1.
</event>
<event>
 5    1  0.1106231E-008  0.3783091E+03  0.7957747E-01  0.3458554E+00
         13   -1    0    0    0    0  0.00000000000E+00  0.00000000000E+00  0.14999999963E+04  0.15000000000E+04  0.10566000000E+00 0. -1.
        994   -1    0    0    0    0 -0.00000000000E+00 -0.00000000000E+00  0.11368683772E-12  0.17120000000E+03  0.17120000000E+03 0.  0.
         13    1    1    2    0    0  0.14053274024E+02 -0.19078989067E+00  0.17653627805E+02  0.22565297479E+02  0.10566000000E+00 0. -1.
        994    1    1    2    0    0 -0.99928411240E+01  0.18508862231E+01  0.53364132177E+01  0.17158438146E+03  0.17120000000E+03 0.  0.
        998    1    1    2    0    0 -0.40604329002E+01 -0.16600963324E+01  0.14770099553E+04  0.14770503211E+04  0.10000000000E+02 0. -1.
</event>
<event>
 5    1  0.1106231E-008  0.3684406E+03  0.7957747E-01  0.3503088E+00
         13   -1    0    0    0    0  0.00000000000E+00  0.00000000000E+00  0.14999999963E+04  0.15000000000E+04  0.10566000000E+00 0.  1.
        994   -1    0    0    0    0 -0.00000000000E+00 -0.00000000000E+00  0.11368683772E-12  0.17120000000E+03  0.17120000000E+03 0.  0.
         13    1    1    2    0    0  0.53018029161E+02  0.45589909408E+02  0.30387230435E+03  0.31181362987E+03  0.10566000000E+00 0.  1.
        994    1    1    2    0    0 -0.35000837307E+01 -0.18186375856E+01  0.10170717563E+02  0.17154719912E+03  0.17120000000E+03 0.  0.
        998    1    1    2    0    0 -0.49517945430E+02 -0.43771271823E+02  0.11859569744E+04  0.11878391710E+04  0.10000000000E+02 0.  1.
</event>
<event>
 5    1  0.1106231E-008  0.3763371E+03  0.7957747E-01  0.3467264E+00
         13   -1    0    0    0    0  0.00000000000E+00  0.00000000000E+00  0.14999999963E+04  0.15000000000E+04  0.10566000000E+00 0.  1.
        994   -1    0    0    0    0 -0.00000000000E+00 -0.00000000000E+00  0.11368683772E-12  0.17120000000E+03  0.17120000000E+03 0.  0.
         13    1    1    2    0    0  0.26089508718E+01  0.18224139362E+02  0.25483578641E+02  0.31438031499E+02  0.10566000000E+00 0.  1.
        994    1    1    2    0    0  0.76279561478E+01 -0.18225461802E+02  0.73157250566E+01  0.17249148676E+03  0.17120000000E+03 0.  0.
        998    1    1    2    0    0 -0.10236907020E+02  0.13224398646E-02  0.14672006926E+04  0.14672704817E+04  0.10000000000E+02 0.  1.
</event>
<event>
 5    1  0.1106231E-008  0.3839145E+03  0.7957747E-01  0.3434289E+00
         13   -1    0    0    0    0  0.00000000000E+00  0.00000000000E+00  0.14999999963E+04  0.15000000000E+04  0.10566000000E+00 0. -1.
        994   -1    0    0    0    0 -0.00000000000E+00 -0.00000000000E+00  0.11368683772E-12  0.17120000000E+03  0.17120000000E+03 0.  0.
         13    1    1    2    0    0 -0.51983435977E+01 -0.90513128849E+01  0.24238434794E+02  0.26390565102E+02  0.10566000000E+00 0. -1.
        994    1    1    2    0    0 -0.70614597962E+01  0.14973776118E+02  0.30751002693E+01  0.17202608647E+03  0.17120000000E+03 0.  0.
        998    1    1    2    0    0  0.12259803394E+02 -0.59224632335E+01  0.14726864612E+04  0.14727833484E+04  0.10000000000E+02 0. -1.
</event>
<event>
 5    1  0.1106231E-008  0.3809200E+03  0.7957747E-01  0.3447162E+00
         13   -1    0    0    0    0  0.00000000000E+00  0.00000000000E+00  0.14999999963E+04  0.15000000000E+04  0.10566000000E+00 0.  1.
        994   -1    0    0    0    0 -0.00000000000E+00 -0.00000000000E+00  0.11368683772E-12  0.17120000000E+03  0.17120000000E+03 0.  0.
         13    1    1    2    0    0 -0.14187990950E+02  0.14527474211E+02  0.52484617287E+02  0.56276041172E+02  0.10566000000E+00 0.  1.
        994    1    1    2    0    0  0.17394989802E+02 -0.16939751871E+02  0.56367496816E+01  0.17300506874E+03  0.17120000000E+03 0.  0.
        998    1    1    2    0    0 -0.32069988518E+01  0.24122776600E+01  0.14418786293E+04  0.14419188901E+04  0.10000000000E+02 0.  1.
</event>
<event>
 5    1  0.1106231E-008  0.3859039E+03  0.7957747E-01  0.3425848E+00
         13   -1    0    0    0    0  0.00000000000E+00  0.00000000000E+00  0.14999999963E+04  0.15000000000E+04  0.10566000000E+00 0. -1.
        994   -1    0    0    0    0 -0.00000000000E+00 -0.00000000000E+00  0.11368683772E-12  0.17120000000E+03  0.17120000000E+03 0.  0.
         13    1    1    2    0    0  0.39602919396E+01 -0.11198737935E+02  0.58158983560E+02  0.59359701619E+02  0.10566000000E+00 0. -1.
        994    1    1    2    0    0 -0.40730678064E+01  0.12498295028E+02  0.17488540013E+01  0.17171282931E+03  0.17120000000E+03 0.  0.
        998    1    1    2    0    0  0.11277586674E+00 -0.12995570932E+01  0.14400921587E+04  0.14401274691E+04  0.10000000000E+02 0. -1.
</event>
<event>
 5    1  0.1106231E-008  0.3830142E+03  0.7957747E-01  0.3438138E+00
         13   -1    0    0    0    0  0.00000000000E+00  0.00000000000E+00  0.14999999963E+04  0.15000000000E+04  0.10566000000E+00 0.  1.
        994   -1    0    0    0    0 -0.00000000000E+00 -0.00000000000E+00  0.11368683772E-12  0.17120000000E+03  0.17120000000E+03 0.  0.
         13    1    1    2    0    0 -0.12570268625E+02 -0.29701407328E+01  0.30391300106E+02  0.33022351150E+02  0.10566000000E+00 0.  1.
        994    1    1    2    0    0  0.11560084118E+02  0.11947092658E+02  0.35345516827E+01  0.17204156946E+03  0.17120000000E+03 0.  0.
        998    1    1    2    0    0  0.10101845066E+01 -0.89769519254E+01  0.14660741445E+04  0.14661360794E+04  0.10000000000E+02 0.  1.
</event>
<event>
 5    1  0.1106231E-008  0.3739457E+03  0.7957747E-01  0.3477951E+00
         13   -1    0    0    0    0  0.00000000000E+00  0.00000000000E+00  0.14999999963E+04  0.15000000000E+04  0.10566000000E+00 0. -1.
        994   -1    0    0    0    0 -0.00000000000E+00 -0.00000000000E+00  0.11368683772E-12  0.17120000000E+03  0.17120000000E+03 0.  0.
         13    1    1    2    0    0 -0.27202114702E+02 -0.16050285831E+01  0.46314061738E+02  0.53735785466E+02  0.10566000000E+00 0. -1.
        994    1    1    2    0    0  0.33908021327E+02  0.10149335841E+01  0.11156909110E+02  0.17488482101E+03  0.17120000000E+03 0.  0.
        998    1    1    2    0    0 -0.67059066251E+01  0.59009499899E+00  0.14425290254E+04  0.14425793935E+04  0.10000000000E+02 0. -1.
</event>
<event>
 5    1  0.1106231E-008  0.3786378E+03  0.7957747E-01  0.3457112E+00
         13   -1    0    0    0    0  0.00000000000E+00  0.00000000000E+00  0.14999999963E+04  0.15000000000E+04  0.10566000000E+00 0.  1.
        994   -1    0    0    0    0 -0.00000000000E+00 -0.00000000000E+00  0.11368683772E-12  0.17120000000E+03  0.17120000000E+03 0.  0.
         13    1    1    2    0    0 -0.48407267618E+01 -0.50951170489E+02  0.86088524482E+02  0.10015338048E+03  0.10566000000E+00 0.  1.
        994    1    1    2    0    0 -0.26066776853E+02  0.67644341058E+01  0.18200127303E+02  0.17425819653E+03  0.17120000000E+03 0.  0.
        998    1    1    2    0    0  0.30907503614E+02  0.44186736384E+02  0.13957113445E+04  0.13967884230E+04  0.10000000000E+02 0.  1.
</event>
<event>
 5    1  0.1106231E-008  0.2958546E+03  0.7957747E-01  0.3926065E+00
         13   -1    0    0    0    0  0.00000000000E+00  0.00000000000E+00  0.14999999963E+04  0.15000000000E+04  0.10566000000E+00 0. -1.
        994   -1    0    0    0    0 -0.00000000000E+00 -0.00000000000E+00  0.11368683772E-12  0.17120000000E+03  0.17120000000E+03 0.  0.
         13    1    1    2    0    0 -0.16313319818E+03  0.33503402580E+02  0.83154543423E+03  0.84805821657E+03  0.10566000000E+00 0. -1.
        994    1    1    2    0    0  0.46500144659E+02 -0.11659401570E+01  0.38432925790E+02  0.18152176909E+03  0.17120000000E+03 0.  0.
        998    1    1    2    0    0  0.11663305352E+03 -0.32337462423E+02  0.63002163626E+03  0.64162001434E+03  0.10000000000E+02 0.  1.
</event>
<event>
 5    1  0.1106231E-008  0.3845239E+03  0.7957747E-01  0.3431694E+00
         13   -1    0    0    0    0  0.00000000000E+00  0.00000000000E+00  0.14999999963E+04  0.15000000000E+04  0.10566000000E+00 0.  1.
        994   -1    0    0    0    0 -0.00000000000E+00 -0.00000000000E+00  0.11368683772E-12  0.17120000000E+03  0.17120000000E+03 0.  0.
         13    1    1    2    0    0 -0.81521057434E+00  0.17976205096E+02  0.84277872554E+02  0.86177604308E+02  0.10566000000E+00 0.  1.
        994    1    1    2    0    0  0.18903528303E+00 -0.15480229536E+02  0.26565357516E+01  0.17191908103E+03  0.17120000000E+03 0.  0.
        998    1    1    2    0    0  0.62617529131E+00 -0.24959755606E+01  0.14130655880E+04  0.14131033147E+04  0.10000000000E+02 0.  1.
</event>
<event>
 5    1  0.1106231E-008  0.3841889E+03  0.7957747E-01  0.3433119E+00
         13   -1    0    0    0    0  0.00000000000E+00  0.00000000000E+00  0.14999999963E+04  0.15000000000E+04  0.10566000000E+00 0. -1.
        994   -1    0    0    0    0 -0.00000000000E+00 -0.00000000000E+00  0.11368683772E-12  0.17120000000E+03  0.17120000000E+03 0.  0.
         13    1    1    2    0    0 -0.11228986583E+02  0.99094864756E+01  0.55856463653E+02  0.57829436775E+02  0.10566000000E+00 0. -1.
        994    1    1    2    0    0  0.77584366960E+00 -0.85483505871E+01  0.22763331270E+01  0.17143015465E+03  0.17120000000E+03 0.  0.
        998    1    1    2    0    0  0.10453142913E+02 -0.13611358885E+01  0.14418671995E+04  0.14419404086E+04  0.10000000000E+02 0. -1.
</event>
<event>
 5    1  0.1106231E-008  0.3784795E+03  0.7957747E-01  0.3457806E+00
         13   -1    0    0    0    0  0.00000000000E+00  0.00000000000E+00  0.14999999963E+04  0.15000000000E+04  0.10566000000E+00 0. -1.
        994   -1    0    0    0    0 -0.00000000000E+00 -0.00000000000E+00  0.11368683772E-12  0.17120000000E+03  0.17120000000E+03 0.  0.
         13    1    1    2    0    0  0.16058397993E+02 -0.13060839368E+02  0.39214143984E+02  0.44342055924E+02  0.10566000000E+00 0. -1.
        994    1    1    2    0    0 -0.28945069057E+02  0.17396374304E+02  0.87439014352E+01  0.17471790599E+03  0.17120000000E+03 0.  0.
        998    1    1    2    0    0  0.12886671063E+02 -0.43355349364E+01  0.14520419509E+04  0.14521400381E+04  0.10000000000E+02 0. -1.
</event>
<event>
 5    1  0.1106231E-008  0.3758750E+03  0.7957747E-01  0.3469319E+00
         13   -1    0    0    0    0  0.00000000000E+00  0.00000000000E+00  0.14999999963E+04  0.15000000000E+04  0.10566000000E+00 0.  1.
        994   -1    0    0    0    0 -0.00000000000E+00 -0.00000000000E+00  0.11368683772E-12  0.17120000000E+03  0.17120000000E+03 0.  0.
         13    1    1    2    0    0  0.47194602571E+02 -0.62615537227E+01  0.20909487796E+03  0.21444630264E+03  0.10566000000E+00 0.  1.
        994    1    1    2    0    0 -0.31592520547E+01  0.88873507511E+01  0.65316729027E+01  0.17158399875E+03  0.17120000000E+03 0.  0.
        998    1    1    2    0    0 -0.44035350517E+02 -0.26257970284E+01  0.12843734454E+04  0.12851696986E+04  0.10000000000E+02 0.  1.
</event>
<event>
 5    1  0.1106231E-008  0.3815037E+03  0.7957747E-01  0.3444637E+00
         13   -1    0    0    0    0  0.00000000000E+00  0.00000000000E+00  0.14999999963E+04  0.15000000000E+04  0.10566000000E+00 0. -1.
        994   -1    0    0    0    0 -0.00000000000E+00 -0.00000000000E+00  0.11368683772E-12  0.17120000000E+03  0.17120000000E+03 0.  0.
         13    1    1    2    0    0  0.37373486429E+02 -0.89542507598E+02  0.29481979127E+03  0.31037615669E+03  0.10566000000E+00 0. -1.
        994    1    1    2    0    0 -0.21270055604E+02  0.35539058623E+02  0.23432082879E+02  0.17769058068E+03  0.17120000000E+03 0.  0.
        998    1    1    2    0    0 -0.16103430825E+02  0.54003448976E+02  0.11817481221E+04  0.11831332626E+04  0.10000000000E+02 0. -1.
</event>
<event>
 5    1  0.1106231E-008  0.3715668E+03  0.7957747E-01  0.3488721E+00
         13   -1    0    0    0    0  0.00000000000E+00  0.00000000000E+00  0.14999999963E+04  0.15000000000E+04  0.10566000000E+00 0. -1.
        994   -1    0    0    0    0 -0.00000000000E+00 -0.00000000000E+00  0.11368683772E-12  0.17120000000E+03  0.17120000000E+03 0.  0.
         13    1    1    2    0    0  0.40403838244E+01  0.14863861506E+02  0.10156156264E+02  0.18450413394E+02  0.10566000000E+00 0. -1.
        994    1    1    2    0    0 -0.25562331687E+01 -0.15312752627E+02  0.92816878827E+01  0.17215285200E+03  0.17120000000E+03 0.  0.
        998    1    1    2    0    0 -0.14841506557E+01  0.44889112120E+00  0.14805621521E+04  0.14805967346E+04  0.10000000000E+02 0. -1.
</event>
<event>
 5    1  0.1106231E-008  0.3843165E+03  0.7957747E-01  0.3432576E+00
         13   -1    0    0    0    0  0.00000000000E+00  0.00000000000E+00  0.14999999963E+04  0.15000000000E+04  0.10566000000E+00 0. -1.
        994   -1    0    0    0    0 -0.00000000000E+00 -0.00000000000E+00  0.11368683772E-12  0.17120000000E+03  0.17120000000E+03 0.  0.
         13    1    1    2    0    0 -0.13567093232E+02  0.97830243439E+01  0.73428740028E+02  0.75309790932E+02  0.10566000000E+00 0. -1.
        994    1    1    2    0    0  0.76430924966E+01  0.23451699288E+01  0.21805408144E+01  0.17140044178E+03  0.17120000000E+03 0.  0.
        998    1    1    2    0    0  0.59240007352E+01 -0.12128194273E+02  0.14243907154E+04  0.14244897673E+04  0.10000000000E+02 0. -1.
</event>
<event>
 5    1  0.1106231E-008  0.3856655E+03  0.7957747E-01  0.3426855E+00
         13   -1    0    0    0    0  0.00000000000E+00  0.00000000000E+00  0.14999999963E+04  0.15000000000E+04  0.10566000000E+00 0. -1.
        994   -1    0    0    0    0 -0.00000000000E+00 -0.00000000000E+00  0.11368683772E-12  0.17120000000E+03  0.17120000000E+03 0.  0.
         13    1    1    2    0    0 -0.70857613609E+01  0.12036387739E+02  0.77146185966E+02  0.78400432505E+02  0.10566000000E+00 0. -1.
        994    1    1    2    0    0  0.52495159772E+00 -0.72143123774E+01  0.14718016825E+01  0.17135906185E+03  0.17120000000E+03 0.  0.
        998    1    1    2    0    0  0.65608097632E+01 -0.48220753618E+01  0.14213820086E+04  0.14214405056E+04  0.10000000000E+02 0. -1.
</event>
<event>
 5    1  0.1106231E-008  0.3828989E+03  0.7957747E-01  0.3438632E+00
         13   -1    0    0    0    0  0.00000000000E+00  0.00000000000E+00  0.14999999963E+04  0.15000000000E+04  0.10566000000E+00 0.  1.
        994   -1    0    0    0    0 -0.00000000000E+00 -0.00000000000E+00  0.11368683772E-12  0.17120000000E+03  0.17120000000E+03 0.  0.
         13    1    1    2    0    0 -0.80529631122E+01 -0.11192688053E+02  0.34940159447E+02  0.37562646166E+02  0.10566000000E+00 0.  1.
        994    1    1    2    0    0  0.68298936512E+01  0.36904194305E+01  0.28764964356E+01  0.17140006089E+03  0.17120000000E+03 0.  0.
        998    1    1    2    0    0  0.12230694611E+01  0.75022686221E+01  0.14621833404E+04  0.14622372929E+04  0.10000000000E+02 0.  1.
</event>
<event>
 5    1  0.1106231E-008  0.3747974E+03  0.7957747E-01  0.3474129E+00
         13   -1    0    0    0    0  0.00000000000E+00  0.00000000000E+00  0.14999999963E+04  0.15000000000E+04  0.10566000000E+00 0.  1.
        994   -1    0    0    0    0 -0.00000000000E+00 -0.00000000000E+00  0.11368683772E-12  0.17120000000E+03  0.17120000000E+03 0.  0.
         13    1    1    2    0    0  0.10899231956E+02  0.10016638303E+02  0.13319773612E+02  0.19913659464E+02  0.10566000000E+00 0.  1.
        994    1    1    2    0    0 -0.12376580965E+02  0.58986546003E+01  0.74224572938E+01  0.17190842549E+03  0.17120000000E+03 0.  0.
        998    1    1    2    0    0  0.14773490092E+01 -0.15915292903E+02  0.14792577654E+04  0.14793779150E+04  0.10000000000E+02 0.  1.
</event>
<event>
 5    1  0.1106231E-008  0.3835476E+03  0.7957747E-01  0.3435855E+00
         13   -1    0    0    0    0  0.00000000000E+00  0.00000000000E+00  0.14999999963E+04  0.15000000000E+04  0.10566000000E+00 0. -1.
        994   -1    0    0    0    0 -0.00000000000E+00 -0.00000000000E+00  0.11368683772E-12  0.17120000000E+03  0.17120000000E+03 0.  0.
         13    1    1    2    0    0  0.65380302359E+01 -0.16463756167E+02  0.66593894844E+02  0.68909789587E+02  0.10566000000E+00 0. -1.
        994    1    1    2    0    0 -0.11362824322E+02  0.64002798805E+01  0.29151247253E+01  0.17172074805E+03  0.17120000000E+03 0.  0.
        998    1    1    2    0    0  0.48247940866E+01  0.10063476286E+02  0.14304909767E+04  0.14305694624E+04  0.10000000000E+02 0. -1.
</event>
<event>
 5    1  0.1106231E-008  0.3833376E+03  0.7957747E-01  0.3436753E+00
         13   -1    0    0    0    0  0.00000000000E+00  0.00000000000E+00  0.14999999963E+04  0.15000000000E+04  0.10566000000E+00 0. -1.
        994   -1    0    0    0    0 -0.00000000000E+00 -0.00000000000E+00  0.11368683772E-12  0.17120000000E+03  0.17120000000E+03 0.  0.
         13    1    1    2    0    0  0.33081795505E+01 -0.99587319817E+01  0.22468300648E+02  0.24798308262E+02  0.10566000000E+00 0. -1.
        994    1    1    2    0    0  0.11438730643E+02 -0.19490180485E+01  0.29030570043E+01  0.17161733878E+03  0.17120000000E+03 0.  0.
        998    1    1    2    0    0 -0.14746910194E+02  0.11907750030E+02  0.14746286386E+04  0.14747843530E+04  0.10000000000E+02 0. -1.
</event>
<event>
 5    1  0.1106231E-008  0.3779859E+03  0.7957747E-01  0.3459975E+00
         13   -1    0    0    0    0  0.00000000000E+00  0.00000000000E+00  0.14999999963E+04  0.15000000000E+04  0.10566000000E+00 0.  1.
        994   -1    0    0    0    0 -0.00000000000E+00 -0.00000000000E+00  0.11368683772E-12  0.17120000000E+03  0.17120000000E+03 0.  0.
         13    1    1    2    0    0 -0.12438960780E+03 -0.27599225729E+02  0.38300884164E+03  0.40364622595E+03  0.10566000000E+00 0.  1.
        994    1    1    2    0    0  0.12873677723E+03  0.48861798594E+01  0.77630901461E+02  0.22788819501E+03  0.17120000000E+03 0.  0.
        998    1    1    2    0    0 -0.43471694311E+01  0.22713045869E+02  0.10393602532E+04  0.10396655790E+04  0.10000000000E+02 0.  1.
</event>
<event>
 5    1  0.1106231E-008  0.3846439E+03  0.7957747E-01  0.3431184E+00
         13   -1    0    0    0    0  0.00000000000E+00  0.00000000000E+00  0.14999999963E+04  0.15000000000E+04  0.10566000000E+00 0.  1.
        994   -1    0    0    0    0 -0.00000000000E+00 -0.00000000000E+00  0.11368683772E-12  0.17120000000E+03  0.17120000000E+03 0.  0.
         13    1    1    2    0    0  0.44253578704E+00  0.15805435129E+02  0.65918247822E+02  0.67788156617E+02  0.10566000000E+00 0.  1.
        994    1    1    2    0    0 -0.39050607642E+01 -0.17879625039E+02  0.29105375236E+01  0.17220000499E+03  0.17120000000E+03 0.  0.
        998    1    1    2    0    0  0.34625249772E+01  0.20741899101E+01  0.14311712109E+04  0.14312118384E+04  0.10000000000E+02 0.  1.
</event>
<event>
 5    1  0.1106231E-008  0.3838093E+03  0.7957747E-01  0.3434738E+00
         13   -1    0    0    0    0  0.00000000000E+00  0.00000000000E+00  0.14999999963E+04  0.15000000000E+04  0.10566000000E+00 0. -1.
        994   -1    0    0    0    0 -0.00000000000E+00 -0.00000000000E+00  0.11368683772E-12  0.17120000000E+03  0.17120000000E+03 0.  0.
         13    1    1    2    0    0 -0.24580444892E+02 -0.37967411316E+01  0.14728055769E+03  0.14936595111E+03  0.10566000000E+00 0. -1.
        994    1    1    2    0    0  0.84212126065E+01 -0.26190095663E+01  0.24792751007E+01  0.17144492654E+03  0.17120000000E+03 0.  0.
        998    1    1    2    0    0  0.16159232286E+02  0.64157506979E+01  0.13502401635E+04  0.13503891223E+04  0.10000000000E+02 0. -1.
</event>
<event>
 5    1  0.1106231E-008  0.3690423E+03  0.7957747E-01  0.3500304E+00
         13   -1    0    0    0    0  0.00000000000E+00  0.00000000000E+00  0.14999999963E+04  0.15000000000E+04  0.10566000000E+00 0.  1.
        994   -1    0    0    0    0 -0.00000000000E+00 -0.00000000000E+00  0.11368683772E-12  0.17120000000E+03  0.17120000000E+03 0.  0.
         13    1    1    2    0    0 -0.11337881724E+02 -0.61004952855E+02  0.15731193639E+03  0.16910709131E+03  0.10566000000E+00 0.  1.
        994    1    1    2    0    0  0.62596071547E+01  0.69417859642E+02  0.27557172942E+02  0.18688729143E+03  0.17120000000E+03 0.  0.
        998    1    1    2    0    0  0.50782745691E+01 -0.84129067863E+01  0.13151308869E+04  0.13152056173E+04  0.10000000000E+02 0.  1.
</event>
<event>
 5    1  0.1106231E-008  0.3825594E+03  0.7957747E-01  0.3440089E+00
         13   -1    0    0    0    0  0.00000000000E+00  0.00000000000E+00  0.14999999963E+04  0.15000000000E+04  0.10566000000E+00 0. -1.
        994   -1    0    0    0    0 -0.00000000000E+00 -0.00000000000E+00  0.11368683772E-12  0.17120000000E+03  0.17120000000E+03 0.  0.
         13    1    1    2    0    0  0.12229374231E+02 -0.46402042286E+01  0.30066271328E+02  0.32788426693E+02  0.10566000000E+00 0. -1.
        994    1    1    2    0    0 -0.41085774044E+01 -0.13425839999E+02  0.35004465969E+01  0.17181043832E+03  0.17120000000E+03 0.  0.
        998    1    1    2    0    0 -0.81207968264E+01  0.18066044228E+02  0.14664332784E+04  0.14666011350E+04  0.10000000000E+02 0. -1.
</event>
<event>
 5    1  0.1106231E-008  0.3835403E+03  0.7957747E-01  0.3435887E+00
         13   -1    0    0    0    0  0.00000000000E+00  0.00000000000E+00  0.14999999963E+04  0.15000000000E+04  0.10566000000E+00 0. -1.
        994   -1    0    0    0    0 -0.00000000000E+00 -0.00000000000E+00  0.11368683772E-12  0.17120000000E+03  0.17120000000E+03 0.  0.
         13    1    1    2    0    0  0.11623750130E+02 -0.32691554474E+01  0.30228361415E+02  0.32550943801E+02  0.10566000000E+00 0. -1.
        994    1    1    2    0    0 -0.67116783107E+01  0.58261612600E+01  0.26176344495E+01  0.17145052578E+03  0.17120000000E+03 0.  0.
        998    1    1    2    0    0 -0.49120718195E+01 -0.25570058126E+01  0.14671540004E+04  0.14671985304E+04  0.10000000000E+02 0. -1.
</event>
<event>
 5    1  0.1106231E-008  0.3815720E+03  0.7957747E-01  0.3444342E+00
         13   -1    0    0    0    0  0.00000000000E+00  0.00000000000E+00  0.14999999963E+04  0.15000000000E+04  0.10566000000E+00 0. -1.
        994   -1    0    0    0    0 -0.00000000000E+00 -0.00000000000E+00  0.11368683772E-12  0.17120000000E+03  0.17120000000E+03 0.  0.
         13    1    1    2    0    0 -0.18415794876E+02 -0.23849556147E+02  0.12556740614E+03  0.12913220930E+03  0.10566000000E+00 0. -1.
        994    1    1    2    0    0  0.16786292258E+02  0.24026244461E+02  0.62038423521E+01  0.17380151809E+03  0.17120000000E+03 0.  0.
        998    1    1    2    0    0  0.16295026175E+01 -0.17668831481E+00  0.13682287478E+04  0.13682662726E+04  0.10000000000E+02 0. -1.
</event>
<event>
 5    1  0.1106231E-008  0.3854495E+03  0.7957747E-01  0.3427768E+00
         13   -1    0    0    0    0  0.00000000000E+00  0.00000000000E+00  0.14999999963E+04  0.15000000000E+04  0.10566000000E+00 0. -1.
        994   -1    0    0    0    0 -0.00000000000E+00 -0.00000000000E+00  0.11368683772E-12  0.17120000000E+03  0.17120000000E+03 0.  0.
         13    1    1    2    0    0  0.11304529598E+02  0.25504292572E+00  0.44061533630E+02  0.45489420156E+02  0.10566000000E+00 0. -1.
        994    1    1    2    0    0 -0.13544922801E+02 -0.76574950843E+01  0.22025788621E+01  0.17191972987E+03  0.17120000000E+03 0.  0.
        998    1    1    2    0    0  0.22403932029E+01  0.74024521586E+01  0.14537358838E+04  0.14537908500E+04  0.10000000000E+02 0. -1.
</event>
<event>
 5    1  0.1106231E-008  0.3709724E+03  0.7957747E-01  0.3491434E+00
         13   -1    0    0    0    0  0.00000000000E+00  0.00000000000E+00  0.14999999963E+04  0.15000000000E+04  0.10566000000E+00 0.  1.
        994   -1    0    0    0    0 -0.00000000000E+00 -0.00000000000E+00  0.11368683772E-12  0.17120000000E+03  0.17120000000E+03 0.  0.
         13    1    1    2    0    0  0.21469923628E+01 -0.81646538404E+02  0.31836307407E+03  0.32867282350E+03  0.10566000000E+00 0.  1.
        994    1    1    2    0    0  0.11206244420E+02  0.72581682999E+02  0.27584923047E+02  0.18831900754E+03  0.17120000000E+03 0.  0.
        998    1    1    2    0    0 -0.13353236783E+02  0.90648554051E+01  0.11540519992E+04  0.11542081690E+04  0.10000000000E+02 0.  1.
</event>
<event>
 5    1  0.1106231E-008  0.3802578E+03  0.7957747E-01  0.3450037E+00
         13   -1    0    0    0    0  0.00000000000E+00  0.00000000000E+00  0.14999999963E+04  0.15000000000E+04  0.10566000000E+00 0.  1.
        994   -1    0    0    0    0 -0.00000000000E+00 -0.00000000000E+00  0.11368683772E-12  0.17120000000E+03  0.17120000000E+03 0.  0.
         13    1    1    2    0    0 -0.57512864308E+01  0.14336183493E+02  0.28904262050E+02  0.32773022159E+02  0.10566000000E+00 0.  1.
        994    1    1    2    0    0 -0.11146614248E+02 -0.73011241565E+01  0.45963483836E+01  0.17177927652E+03  0.17120000000E+03 0.  0.
        998    1    1    2    0    0  0.16897900678E+02 -0.70350593363E+01  0.14664993858E+04  0.14666477013E+04  0.10000000000E+02 0.  1.
</event>
<event>
 5    1  0.1106231E-008  0.3798919E+03  0.7957747E-01  0.3451629E+00
         13   -1    0    0    0    0  0.00000000000E+00  0.00000000000E+00  0.14999999963E+04  0.15000000000E+04  0.10566000000E+00 0. -1.
        994   -1    0    0    0    0 -0.00000000000E+00 -0.00000000000E+00  0.11368683772E-12  0.17120000000E+03  0.17120000000E+03 0.  0.
         13    1    1    2    0    0  0.16038786526E+02  0.22489263816E+02  0.78370141642E+02  0.83095727479E+02  0.10566000000E+00 0. -1.
        994    1    1    2    0    0 -0.20690814692E+02 -0.42831186106E+02  0.11791573321E+02  0.17807611158E+03  0.17120000000E+03 0.  0.
        998    1    1    2    0    0  0.46520281657E+01  0.20341922290E+02  0.14098382813E+04  0.14100281609E+04  0.10000000000E+02 0. -1.
</event>
<event>
 5    1  0.1106231E-008  0.3739248E+03  0.7957747E-01  0.3478046E+00
         13   -1    0    0    0    0  0.00000000000E+00  0.00000000000E+00  0.14999999963E+04  0.15000000000E+04  0.10566000000E+00 0.  1.
        994   -1    0    0    0    0 -0.00000000000E+00 -0.00000000000E+00  0.11368683772E-12  0.17120000000E+03  0.17120000000E+03 0.  0.
         13    1    1    2    0    0 -0.25186499918E+01  0.17767311972E+02  0.20142790744E+02  0.26977104282E+02  0.10566000000E+00 0.  1.
        994    1    1    2    0    0 -0.37608785957E+01  0.79547106562E+01  0.74960968686E+01  0.17158978145E+03  0.17120000000E+03 0.  0.
        998    1    1    2    0    0  0.62795285876E+01 -0.25722022628E+02  0.14723611087E+04  0.14726331143E+04  0.10000000000E+02 0.  1.
</event>
<event>
 5    1  0.1106231E-008  0.3825031E+03  0.7957747E-01  0.3440331E+00
         13   -1    0    0    0    0  0.00000000000E+00  0.00000000000E+00  0.14999999963E+04  0.15000000000E+04  0.10566000000E+00 0. -1.
        994   -1    0    0    0    0 -0.00000000000E+00 -0.00000000000E+00  0.11368683772E-12  0.17120000000E+03  0.17120000000E+03 0.  0.
         13    1    1    2    0    0 -0.27073651213E+02  0.64628240974E+01  0.11805105974E+03  0.12128814680E+03  0.10566000000E+00 0. -1.
        994    1    1    2    0    0  0.34672127871E+02 -0.11116927975E+02  0.72828766346E+01  0.17518054353E+03  0.17120000000E+03 0.  0.
        998    1    1    2    0    0 -0.75984766581E+01  0.46541038773E+01  0.13746660599E+04  0.13747313097E+04  0.10000000000E+02 0. -1.
</event>
<event>
 5    1  0.1106231E-008  0.3768228E+03  0.7957747E-01  0.3465111E+00
         13   -1    0    0    0    0  0.00000000000E+00  0.00000000000E+00  0.14999999963E+04  0.15000000000E+04  0.10566000000E+00 0. -1.
        994   -1    0    0    0    0 -0.00000000000E+00 -0.00000000000E+00  0.11368683772E-12  0.17120000000E+03  0.17120000000E+03 0.  0.
         13    1    1    2    0    0  0.14640140957E+02 -0.30624881754E+01  0.21155164283E+02  0.25908776524E+02  0.10566000000E+00 0. -1.
        994    1    1    2    0    0  0.69799984060E+02 -0.66387894479E+02  0.37767748471E+02  0.20003807921E+03  0.17120000000E+03 0.  0.
        998    1    1    2    0    0 -0.84440125016E+02  0.69450382654E+02  0.14410770835E+04  0.14452531443E+04  0.10000000000E+02 0. -1.
</event>
<event>
 5    1  0.1106231E-008  0.3846532E+03  0.7957747E-01  0.3431144E+00
         13   -1    0    0    0    0  0.00000000000E+00  0.00000000000E+00  0.14999999963E+04  0.15000000000E+04  0.10566000000E+00 0.  1.
        994   -1    0    0    0    0 -0.00000000000E+00 -0.00000000000E+00  0.11368683772E-12  0.17120000000E+03  0.17120000000E+03 0.  0.
         13    1    1    2    0    0 -0.19821995781E+02 -0.35847363472E+01  0.10700514730E+03  0.10888468471E+03  0.10566000000E+00 0.  1.
        994    1    1    2    0    0  0.20630189245E+02 -0.59855039582E+01  0.33230720588E+01  0.17257437172E+03  0.17120000000E+03 0.  0.
        998    1    1    2    0    0 -0.80819346485E+00  0.95702403054E+01  0.13896717769E+04  0.13897409436E+04  0.10000000000E+02 0.  1.
</event>
<event>
 5    1  0.1106231E-008  0.3858682E+03  0.7957747E-01  0.3425998E+00
         13   -1    0    0    0    0  0.00000000000E+00  0.00000000000E+00  0.14999999963E+04  0.15000000000E+04  0.10566000000E+00 0.  1.
        994   -1    0    0    0    0 -0.00000000000E+00 -0.00000000000E+00  0.11368683772E-12  0.17120000000E+03  0.17120000000E+03 0.  0.
         13    1    1    2    0    0  0.55024227996E+01 -0.10912867023E+02  0.60473377806E+02  0.61696093155E+02  0.10566000000E+00 0.  1.
        994    1    1    2    0    0 -0.79168162881E+01  0.11315228257E+02  0.18253498574E+01  0.17176577736E+03  0.17120000000E+03 0.  0.
        998    1    1    2    0    0  0.24143934886E+01 -0.40236123434E+00  0.14377012686E+04  0.14377381295E+04  0.10000000000E+02 0.  1.
</event>
<event>
 5    1  0.1106231E-008  0.3737112E+03  0.7957747E-01  0.3479007E+00
         13   -1    0    0    0    0  0.00000000000E+00  0.00000000000E+00  0.14999999963E+04  0.15000000000E+04  0.10566000000E+00 0. -1.
        994   -1    0    0    0    0 -0.00000000000E+00 -0.00000000000E+00  0.11368683772E-12  0.17120000000E+03  0.17120000000E+03 0.  0.
         13    1    1    2    0    0  0.13412253478E+02 -0.32384103264E+02  0.80784388630E+02  0.88061043021E+02  0.10566000000E+00 0. -1.
        994    1    1    2    0    0 -0.99924680124E+01  0.20479521164E+02  0.91168353394E+01  0.17295033070E+03  0.17120000000E+03 0.  0.
        998    1    1    2    0    0 -0.34197854651E+01  0.11904582100E+02  0.14100987723E+04  0.14101886263E+04  0.10000000000E+02 0. -1.
</event>
<event>
 5    1  0.1106231E-008  0.3741714E+03  0.7957747E-01  0.3476937E+00
         13   -1    0    0    0    0  0.00000000000E+00  0.00000000000E+00  0.14999999963E+04  0.15000000000E+04  0.10566000000E+00 0.  1.
        994   -1    0    0    0    0 -0.00000000000E+00 -0.00000000000E+00  0.11368683772E-12  0.17120000000E+03  0.17120000000E+03 0.  0.
         13    1    1    2    0    0  0.16829539933E+02 -0.47498819191E+02  0.20974895033E+03  0.21571741832E+03  0.10566000000E+00 0.  1.
        994    1    1    2    0    0 -0.15862960854E+02 -0.42523943174E+01  0.80247485547E+01  0.17217303207E+03  0.17120000000E+03 0.  0.
        998    1    1    2    0    0 -0.96657907806E+00  0.51751213508E+02  0.12822262974E+04  0.12833095496E+04  0.10000000000E+02 0.  1.
</event>
<event>
 5    1  0.1106231E-008  0.3851575E+03  0.7957747E-01  0.3429004E+00
         13   -1    0    0    0    0  0.00000000000E+00  0.00000000000E+00  0.14999999963E+04  0.15000000000E+04  0.10566000000E+00 0. -1.
        994   -1    0    0    0    0 -0.00000000000E+00 -0.00000000000E+00  0.11368683772E-12  0.17120000000E+03  0.17120000000E+03 0.  0.
         13    1    1    2    0    0 -0.10384061469E+02  0.11231911079E+00  0.34330379510E+02  0.35866801775E+02  0.10566000000E+00 0. -1.
        994    1    1    2    0    0  0.88315383712E+01 -0.38619084771E+01  0.18573962854E+01  0.17148119526E+03  0.17120000000E+03 0.  0.
        998    1    1    2    0    0  0.15525230981E+01  0.37495893663E+01  0.14638122205E+04  0.14638520030E+04  0.10000000000E+02 0. -1.
</event>
<event>
 5    1  0.1106231E-008  0.3773006E+03  0.7957747E-01  0.3462997E+00
         13   -1    0    0    0    0  0.00000000000E+00  0.00000000000E+00  0.14999999963E+04  0.15000000000E+04  0.10566000000E+00 0.  1.
        994   -1    0    0    0    0 -0.00000000000E+00 -0.00000000000E+00  0.11368683772E-12  0.17120000000E+03  0.17120000000E+03 0.  0.
         13    1    1    2    0    0  0.13925422943E+01  0.34549421828E+02  0.33168196096E+02  0.47913903191E+02  0.10566000000E+00 0.  1.
        994    1    1    2    0    0 -0.32267718293E+02 -0.37468784552E+02  0.23677804070E+02  0.17976427305E+03  0.17120000000E+03 0.  0.
        998    1    1    2    0    0  0.30875175999E+02  0.29193627240E+01  0.14431539961E+04  0.14435218238E+04  0.10000000000E+02 0.  1.
</event>
<event>
 5    1  0.1106231E-008  0.3756436E+03  0.7957747E-01  0.3470349E+00
         13   -1    0    0    0    0  0.00000000000E+00  0.00000000000E+00  0.14999999963E+04  0.15000000000E+04  0.10566000000E+00 0.  1.
        994   -1    0    0    0    0 -0.00000000000E+00 -0.00000000000E+00  0.11368683772E-12  0.17120000000E+03  0.17120000000E+03 0.  0.
         13    1    1    2    0    0  0.52934397489E+02 -0.52394925157E+02  0.36940855773E+03  0.37684210527E+03  0.10566000000E+00 0.  1.
        994    1    1    2    0    0 -0.34387620507E+02  0.53086720817E+02  0.20041383318E+02  0.18360774879E+03  0.17120000000E+03 0.  0.
        998    1    1    2    0    0 -0.18546776982E+02 -0.69179565994E+00  0.11105500552E+04  0.11107501459E+04  0.10000000000E+02 0.  1.
</event>
<event>
 5    1  0.1106231E-008  0.3838884E+03  0.7957747E-01  0.3434400E+00
         13   -1    0    0    0    0  0.00000000000E+00  0.00000000000E+00  0.14999999963E+04  0.15000000000E+04  0.10566000000E+00 0.  1.
        994   -1    0    0    0    0 -0.00000000000E+00 -0.00000000000E+00  0.11368683772E-12  0.17120000000E+03  0.17120000000E+03 0.  0.
         13    1    1    2    0    0  0.10314874967E+02 -0.25932102749E+02  0.16214569467E+03  0.16452996099E+03  0.10566000000E+00 0.  1.
        994    1    1    2    0    0 -0.20457604001E+02  0.21516336796E+02  0.50977568771E+01  0.17383007057E+03  0.17120000000E+03 0.  0.
        998    1    1    2    0    0  0.10142729034E+02  0.44157659529E+01  0.13327565447E+04  0.13328399684E+04  0.10000000000E+02 0.  1.
</event>
<event>
 5    1  0.1106231E-008  0.3831503E+03  0.7957747E-01  0.3437555E+00
         13   -1    0    0    0    0  0.00000000000E+00  0.00000000000E+00  0.14999999963E+04  0.15000000000E+04  0.10566000000E+00 0. -1.
        994   -1    0    0    0    0 -0.00000000000E+00 -0.00000000000E+00  0.11368683772E-12  0.17120000000E+03  0.17120000000E+03 0.  0.
         13    1    1    2    0    0  0.26539130056E+02 -0.58175896380E+01  0.15478272791E+03  0.15714920870E+03  0.10566000000E+00 0. -1.
        994    1    1    2    0    0 -0.78432776476E+01 -0.15051935501E+01  0.27623051492E+01  0.17140843895E+03  0.17120000000E+03 0.  0.
        998    1    1    2    0    0 -0.18695852408E+02  0.73227831882E+01  0.13424549632E+04  0.13426423524E+04  0.10000000000E+02 0. -1.
</event>
<event>
 5    1  0.1106231E-008  0.4034399E+03  0.7957747E-01  0.3355043E+00
         13   -1    0    0    0    0  0.00000000000E+00  0.00000000000E+00  0.14999999963E+04  0.15000000000E+04  0.10566000000E+00 0. -1.
        994   -1    0    0    0    0 -0.00000000000E+00 -0.00000000000E+00  0.11368683772E-12  0.17120000000E+03  0.17120000000E+03 0.  0.
         13    1    1    2    0    0 -0.32745907635E+02  0.17408981666E+02  0.11154396141E+02  0.38727236240E+02  0.10566000000E+00 0. -1.
        994    1    1    2    0    0  0.40746218111E+02  0.20149839961E+02  0.38098173485E+02  0.18118272866E+03  0.17120000000E+03 0.  0.
        998    1    1    2    0    0 -0.80003104760E+01 -0.37558821627E+02  0.14507474267E+04  0.14512900351E+04  0.10000000000E+02 0. -1.
</event>
<event>
 5    1  0.1106231E-008  0.3800342E+03  0.7957747E-01  0.3451010E+00
         13   -1    0    0    0    0  0.00000000000E+00  0.00000000000E+00  0.14999999963E+04  0.15000000000E+04  0.10566000000E+00 0.  1.
        994   -1    0    0    0    0 -0.00000000000E+00 -0.00000000000E+00  0.11368683772E-12  0.17120000000E+03  0.17120000000E+03 0.  0.
         13    1    1    2    0    0  0.27079241870E+01 -0.13160426171E+02  0.19902105605E+02  0.24013218068E+02  0.10566000000E+00 0.  1.
        994    1    1    2    0    0 -0.52307839226E+01  0.14495156833E+02  0.49100238002E+01  0.17196226041E+03  0.17120000000E+03 0.  0.
        998    1    1    2    0    0  0.25228597356E+01 -0.13347306624E+01  0.14751878669E+04  0.14752245215E+04  0.10000000000E+02 0.  1.
</event>
<event>
 5    1  0.1106231E-008  0.3852006E+03  0.7957747E-01  0.3428822E+00
         13   -1    0    0    0    0  0.00000000000E+00  0.00000000000E+00  0.14999999963E+04  0.15000000000E+04  0.10566000000E+00 0.  1.
        994   -1    0    0    0    0 -0.00000000000E+00 -0.00000000000E+00  0.11368683772E-12  0.17120000000E+03  0.17120000000E+03 0.  0.
         13    1    1    2    0    0  0.65815188518E+01 -0.13505905290E+02  0.66970533304E+02  0.68635190414E+02  0.10566000000E+00 0.  1.
        994    1    1    2    0    0  0.92119788189E+01  0.33022355378E+02  0.54028907953E+01  0.17468247690E+03  0.17120000000E+03 0.  0.
        998    1    1    2    0    0 -0.15793497671E+02 -0.19516450088E+02  0.14276265722E+04  0.14278823327E+04  0.10000000000E+02 0.  1.
</event>
<event>
 5    1  0.1106231E-008  0.3775647E+03  0.7957747E-01  0.3461831E+00
         13   -1    0    0    0    0  0.00000000000E+00  0.00000000000E+00  0.14999999963E+04  0.15000000000E+04  0.10566000000E+00 0.  1.
        994   -1    0    0    0    0 -0.00000000000E+00 -0.00000000000E+00  0.11368683772E-12  0.17120000000E+03  0.17120000000E+03 0.  0.
         13    1    1    2    0    0 -0.90390350396E+02  0.90607659630E+02  0.38417412406E+03  0.40493200934E+03  0.10566000000E+00 0.  1.
        994    1    1    2    0    0  0.92539144711E+02 -0.90804441602E+02  0.78131705199E+02  0.22852339766E+03  0.17120000000E+03 0.  0.
        998    1    1    2    0    0 -0.21487943154E+01  0.19678197272E+00  0.10376941670E+04  0.10377445930E+04  0.10000000000E+02 0.  0.
</event>
<event>
 5    1  0.1106231E-008  0.3742658E+03  0.7957747E-01  0.3476513E+00
         13   -1    0    0    0    0  0.00000000000E+00  0.00000000000E+00  0.14999999963E+04  0.15000000000E+04  0.10566000000E+00 0. -1.
        994   -1    0    0    0    0 -0.00000000000E+00 -0.00000000000E+00  0.11368683772E-12  0.17120000000E+03  0.17120000000E+03 0.  0.
         13    1    1    2    0    0  0.33203780190E+02 -0.18939489500E+02  0.94256632766E+02  0.10171292576E+03  0.10566000000E+00 0. -1.
        994    1    1    2    0    0 -0.32384071624E+02  0.25622855967E+02  0.12889423314E+02  0.17658096182E+03  0.17120000000E+03 0.  0.
        998    1    1    2    0    0 -0.81970856574E+00 -0.66833664664E+01  0.13928539402E+04  0.13929061124E+04  0.10000000000E+02 0. -1.
</event>
<event>
 5    1  0.1106231E-008  0.3808160E+03  0.7957747E-01  0.3447613E+00
         13   -1    0    0    0    0  0.00000000000E+00  0.00000000000E+00  0.14999999963E+04  0.15000000000E+04  0.10566000000E+00 0.  1.
        994   -1    0    0    0    0 -0.00000000000E+00 -0.00000000000E+00  0.11368683772E-12  0.17120000000E+03  0.17120000000E+03 0.  0.
         13    1    1    2    0    0  0.20141556006E+02  0.87732118883E+01  0.64994620349E+02  0.68607312755E+02  0.10566000000E+00 0.  1.
        994    1    1    2    0    0 -0.71457872929E+01 -0.57088217451E+01  0.40007304244E+01  0.17149081248E+03  0.17120000000E+03 0.  0.
        998    1    1    2    0    0 -0.12995768713E+02 -0.30643901432E+01  0.14310046455E+04  0.14311018748E+04  0.10000000000E+02 0.  1.
</event>
<event>
 5    1  0.1106231E-008  0.3846421E+03  0.7957747E-01  0.3431191E+00
         13   -1    0    0    0    0  0.00000000000E+00  0.00000000000E+00  0.14999999963E+04  0.15000000000E+04  0.10566000000E+00 0. -1.
        994   -1    0    0    0    0 -0.00000000000E+00 -0.00000000000E+00  0.11368683772E-12  0.17120000000E+03  0.17120000000E+03 0.  0.
         13    1    1    2    0    0  0.17405762860E+02  0.89691059503E+01  0.10143212410E+03  0.10330485181E+03  0.10566000000E+00 0. -1.
        994    1    1    2    0    0 -0.19343605221E+02 -0.22018114960E+01  0.30568233500E+01  0.17233051734E+03  0.17120000000E+03 0.  0.
        998    1    1    2    0    0  0.19378423601E+01 -0.67672944543E+01  0.13955110488E+04  0.13955646309E+04  0.10000000000E+02 0. -1.
</event>
<event>
 5    1  0.1106231E-008  0.3841523E+03  0.7957747E-01  0.3433275E+00
         13   -1    0    0    0    0  0.00000000000E+00  0.00000000000E+00  0.14999999963E+04  0.15000000000E+04  0.10566000000E+00 0. -1.
        994   -1    0    0    0    0 -0.00000000000E+00 -0.00000000000E+00  0.11368683772E-12  0.17120000000E+03  0.17120000000E+03 0.  0.
         13    1    1    2    0    0 -0.30062223741E+01 -0.10695597189E+02  0.31303286223E+02  0.33216563107E+02  0.10566000000E+00 0. -1.
        994    1    1    2    0    0  0.13648672612E+02 -0.10538845995E+02  0.30328031013E+01  0.17209297323E+03  0.17120000000E+03 0.  0.
        998    1    1    2    0    0 -0.10642450238E+02  0.21234443185E+02  0.14656639070E+04  0.14658904637E+04  0.10000000000E+02 0. -1.
</event>
<event>
 5    1  0.1106231E-008  0.3714992E+03  0.7957747E-01  0.3489029E+00
         13   -1    0    0    0    0  0.00000000000E+00  0.00000000000E+00  0.14999999963E+04  0.15000000000E+04  0.10566000000E+00 0. -1.
        994   -1    0    0    0    0 -0.00000000000E+00 -0.00000000000E+00  0.11368683772E-12  0.17120000000E+03  0.17120000000E+03 0.  0.
         13    1    1    2    0    0 -0.17911390891E+02  0.68194105264E+02  0.37902400334E+03  0.38552621206E+03  0.10566000000E+00 0. -1.
        994    1    1    2    0    0 -0.36421881976E+01 -0.93250617726E+01  0.88323528937E+01  0.17171975067E+03  0.17120000000E+03 0.  0.
        998    1    1    2    0    0  0.21553579089E+02 -0.58869043491E+02  0.11121436400E+04  0.11139540373E+04  0.10000000000E+02 0. -1.
</event>
<event>
 5    1  0.1106231E-008  0.3809601E+03  0.7957747E-01  0.3446989E+00
         13   -1    0    0    0    0  0.00000000000E+00  0.00000000000E+00  0.14999999963E+04  0.15000000000E+04  0.10566000000E+00 0. -1.
        994   -1    0    0    0    0 -0.00000000000E+00 -0.00000000000E+00  0.11368683772E-12  0.17120000000E+03  0.17120000000E+03 0.  0.
         13    1    1    2    0    0 -0.56233423207E+02  0.13768916826E+02  0.29028624233E+03  0.29600320033E+03  0.10566000000E+00 0. -1.
        994    1    1    2    0    0  0.79340134615E+02 -0.28756937291E+02  0.27757630906E+02  0.19287753751E+03  0.17120000000E+03 0.  0.
        998    1    1    2    0    0 -0.23106711408E+02  0.14988020465E+02  0.11819561230E+04  0.11823192622E+04  0.10000000000E+02 0. -1.
</event>
<event>
 5    1  0.1106231E-008  0.3871041E+03  0.7957747E-01  0.3420797E+00
         13   -1    0    0    0    0  0.00000000000E+00  0.00000000000E+00  0.14999999963E+04  0.15000000000E+04  0.10566000000E+00 0. -1.
        994   -1    0    0    0    0 -0.00000000000E+00 -0.00000000000E+00  0.11368683772E-12  0.17120000000E+03  0.17120000000E+03 0.  0.
         13    1    1    2    0    0 -0.13845927221E+02 -0.16823337644E+02  0.26251252829E+01  0.21946226028E+02  0.10566000000E+00 0. -1.
        994    1    1    2    0    0  0.16368281080E+02  0.21308929163E+02  0.22976291824E+02  0.17481230241E+03  0.17120000000E+03 0.  0.
        998    1    1    2    0    0 -0.25223538595E+01 -0.44855915187E+01  0.14743985792E+04  0.14744414716E+04  0.10000000000E+02 0. -1.
</event>
<event>
 5    1  0.1106231E-008  0.3853922E+03  0.7957747E-01  0.3428010E+00
         13   -1    0    0    0    0  0.00000000000E+00  0.00000000000E+00  0.14999999963E+04  0.15000000000E+04  0.10566000000E+00 0.  1.
        994   -1    0    0    0    0 -0.00000000000E+00 -0.00000000000E+00  0.11368683772E-12  0.17120000000E+03  0.17120000000E+03 0.  0.
         13    1    1    2    0    0  0.12131326206E+02  0.93258877811E+01  0.76722594434E+02  0.78233681488E+02  0.10566000000E+00 0.  1.
        994    1    1    2    0    0 -0.14702935454E+02 -0.12054350378E+02  0.26237058508E+01  0.17227248041E+03  0.17120000000E+03 0.  0.
        998    1    1    2    0    0  0.25716092477E+01  0.27284625971E+01  0.14206536960E+04  0.14206938381E+04  0.10000000000E+02 0.  1.
</event>
<event>
 5    1  0.1106231E-008  0.3809057E+03  0.7957747E-01  0.3447225E+00
         13   -1    0    0    0    0  0.00000000000E+00  0.00000000000E+00  0.14999999963E+04  0.15000000000E+04  0.10566000000E+00 0. -1.
        994   -1    0    0    0    0 -0.00000000000E+00 -0.00000000000E+00  0.11368683772E-12  0.17120000000E+03  0.17120000000E+03 0.  0.
         13    1    1    2    0    0 -0.10138889636E+02  0.39328839518E+02  0.19774116574E+03  0.20186910237E+03  0.10566000000E+00 0. -1.
        994    1    1    2    0    0 -0.49672463650E+00 -0.40929421034E+02  0.92811377653E+01  0.17626980388E+03  0.17120000000E+03 0.  0.
        998    1    1    2    0    0  0.10635614272E+02  0.16005815159E+01  0.12929776928E+04  0.12930610938E+04  0.10000000000E+02 0. -1.
</event>
<event>
 5    1  0.1106231E-008  0.3852689E+03  0.7957747E-01  0.3428532E+00
         13   -1    0    0    0    0  0.00000000000E+00  0.00000000000E+00  0.14999999963E+04  0.15000000000E+04  0.10566000000E+00 0. -1.
        994   -1    0    0    0    0 -0.00000000000E+00 -0.00000000000E+00  0.11368683772E-12  0.17120000000E+03  0.17120000000E+03 0.  0.
         13    1    1    2    0    0 -0.67178072149E+01  0.10693354955E+02  0.51066736091E+02  0.52605127820E+02  0.10566000000E+00 0. -1.
        994    1    1    2    0    0  0.13495941294E+02 -0.10532394355E+02  0.24602377062E+01  0.17207139371E+03  0.17120000000E+03 0.  0.
        998    1    1    2    0    0 -0.67781340790E+01 -0.16096059943E+00  0.14464730225E+04  0.14465234785E+04  0.10000000000E+02 0. -1.
</event>
<event>
 5    1  0.1106231E-008  0.3845751E+03  0.7957747E-01  0.3431476E+00
         13   -1    0    0    0    0  0.00000000000E+00  0.00000000000E+00  0.14999999963E+04  0.15000000000E+04  0.10566000000E+00 0.  1.
        994   -1    0    0    0    0 -0.00000000000E+00 -0.00000000000E+00  0.11368683772E-12  0.17120000000E+03  0.17120000000E+03 0.  0.
         13    1    1    2    0    0 -0.22838066672E+02  0.77641839732E+01  0.14367488160E+03  0.14568576667E+03  0.10566000000E+00 0.  1.
        994    1    1    2    0    0  0.24510661058E+02 -0.66739460066E+01  0.39692538568E+01  0.17311992675E+03  0.17120000000E+03 0.  0.
        998    1    1    2    0    0 -0.16725943860E+01 -0.10902379666E+01  0.13523558608E+04  0.13523943066E+04  0.10000000000E+02 0.  1.
</event>
<event>
 5    1  0.1106231E-008  0.3850255E+03  0.7957747E-01  0.3429564E+00
         13   -1    0    0    0    0  0.00000000000E+00  0.00000000000E+00  0.14999999963E+04  0.15000000000E+04  0.10566000000E+00 0.  1.
        994   -1    0    0    0    0 -0.00000000000E+00 -0.00000000000E+00  0.11368683772E-12  0.17120000000E+03  0.17120000000E+03 0.  0.
         13    1    1    2    0    0 -0.63090164828E+01  0.86092543559E+01  0.34842123018E+02  0.36440467204E+02  0.10566000000E+00 0.  1.
        994    1    1    2    0    0  0.10387493016E+02 -0.29510715339E+01  0.20010327807E+01  0.17155189584E+03  0.17120000000E+03 0.  0.
        998    1    1    2    0    0 -0.40784765330E+01 -0.56581828220E+01  0.14631568405E+04  0.14632076370E+04  0.10000000000E+02 0.  1.
</event>
<event>
 5    1  0.1106231E-008  0.3817063E+03  0.7957747E-01  0.3443763E+00
         13   -1    0    0    0    0  0.00000000000E+00  0.00000000000E+00  0.14999999963E+04  0.15000000000E+04  0.10566000000E+00 0. -1.
        994   -1    0    0    0    0 -0.00000000000E+00 -0.00000000000E+00  0.11368683772E-12  0.17120000000E+03  0.17120000000E+03 0.  0.
         13    1    1    2    0    0  0.26647450183E+02 -0.25395899824E+02  0.17947033599E+03  0.18320658010E+03  0.10566000000E+00 0. -1.
        994    1    1    2    0    0 -0.29572714626E+02  0.26286462304E+02  0.84959157953E+01  0.17591800401E+03  0.17120000000E+03 0.  0.
        998    1    1    2    0    0  0.29252644426E+01 -0.89056247954E+00  0.13120337445E+04  0.13120754159E+04  0.10000000000E+02 0. -1.
</event>
<event>
 5    1  0.1106231E-008  0.3802263E+03  0.7957747E-01  0.3450174E+00
         13   -1    0    0    0    0  0.00000000000E+00  0.00000000000E+00  0.14999999963E+04  0.15000000000E+04  0.10566000000E+00 0. -1.
        994   -1    0    0    0    0 -0.00000000000E+00 -0.00000000000E+00  0.11368683772E-12  0.17120000000E+03  0.17120000000E+03 0.  0.
         13    1    1    2    0    0  0.16918888482E+02  0.30326487244E+01  0.34130724175E+02  0.38214699299E+02  0.10566000000E+00 0. -1.
        994    1    1    2    0    0 -0.20973084487E+02 -0.21894028229E+01  0.55057026687E+01  0.17258162277E+03  0.17120000000E+03 0.  0.
        998    1    1    2    0    0  0.40541960052E+01 -0.84324590159E+00  0.14603635694E+04  0.14604036779E+04  0.10000000000E+02 0. -1.
</event>
<event>
 5    1  0.1106231E-008  0.3962907E+03  0.7957747E-01  0.3383154E+00
         13   -1    0    0    0    0  0.00000000000E+00  0.00000000000E+00  0.14999999963E+04  0.15000000000E+04  0.10566000000E+00 0.  1.
        994   -1    0    0    0    0 -0.00000000000E+00 -0.00000000000E+00  0.11368683772E-12  0.17120000000E+03  0.17120000000E+03 0.  0.
         13    1    1    2    0    0  0.69269642624E+02 -0.92910356372E+02  0.22240279190E+03  0.25078602577E+03  0.10566000000E+00 0.  1.
        994    1    1    2    0    0 -0.86754623274E+02  0.69937951729E+02  0.75269980544E+02  0.21769862591E+03  0.17120000000E+03 0.  0.
        998    1    1    2    0    0  0.17484980650E+02  0.22972404643E+02  0.12023272238E+04  0.12027153483E+04  0.10000000000E+02 0.  1.
</event>
<event>
 5    1  0.1106231E-008  0.3762273E+03  0.7957747E-01  0.3467752E+00
         13   -1    0    0    0    0  0.00000000000E+00  0.00000000000E+00  0.14999999963E+04  0.15000000000E+04  0.10566000000E+00 0. -1.
        994   -1    0    0    0    0 -0.00000000000E+00 -0.00000000000E+00  0.11368683772E-12  0.17120000000E+03  0.17120000000E+03 0.  0.
         13    1    1    2    0    0 -0.38810603035E+02  0.15728452286E+02  0.12533641756E+03  0.13214717496E+03  0.10566000000E+00 0. -1.
        994    1    1    2    0    0  0.46396874138E+02 -0.23892327177E+02  0.15325705155E+02  0.17963248722E+03  0.17120000000E+03 0.  0.
        998    1    1    2    0    0 -0.75862711035E+01  0.81638748906E+01  0.13593378736E+04  0.13594203378E+04  0.10000000000E+02 0. -1.
</event>
<event>
 5    1  0.1106231E-008  0.3828461E+03  0.7957747E-01  0.3438859E+00
         13   -1    0    0    0    0  0.00000000000E+00  0.00000000000E+00  0.14999999963E+04  0.15000000000E+04  0.10566000000E+00 0. -1.
        994   -1    0    0    0    0 -0.00000000000E+00 -0.00000000000E+00  0.11368683772E-12  0.17120000000E+03  0.17120000000E+03 0.  0.
         13    1    1    2    0    0 -0.94659307241E+01  0.11101678423E+02  0.38026336640E+02  0.40729160936E+02  0.10566000000E+00 0. -1.
        994    1    1    2    0    0  0.83205608376E+01 -0.98122424698E+01  0.32516126117E+01  0.17171349632E+03  0.17120000000E+03 0.  0.
        998    1    1    2    0    0  0.11453698865E+01 -0.12894359529E+01  0.14587220470E+04  0.14587573427E+04  0.10000000000E+02 0. -1.
</event>
<event>
 5    1  0.1106231E-008  0.3798029E+03  0.7957747E-01  0.3452017E+00
         13   -1    0    0    0    0  0.00000000000E+00  0.00000000000E+00  0.14999999963E+04  0.15000000000E+04  0.10566000000E+00 0. -1.
        994   -1    0    0    0    0 -0.00000000000E+00 -0.00000000000E+00  0.11368683772E-12  0.17120000000E+03  0.17120000000E+03 0.  0.
         13    1    1    2    0    0  0.13415769900E+02 -0.46822584211E+02  0.26829039260E+03  0.27267578404E+03  0.10566000000E+00 0. -1.
        994    1    1    2    0    0 -0.69914533333E+01  0.31531651316E+02  0.77298753884E+01  0.17439127394E+03  0.17120000000E+03 0.  0.
        998    1    1    2    0    0 -0.64243165672E+01  0.15290932895E+02  0.12239797283E+04  0.12241329420E+04  0.10000000000E+02 0. -1.
</event>
<event>
 5    1  0.1106231E-008  0.3685285E+03  0.7957747E-01  0.3502681E+00
         13   -1    0    0    0    0  0.00000000000E+00  0.00000000000E+00  0.14999999963E+04  0.15000000000E+04  0.10566000000E+00 0.  1.
        994   -1    0    0    0    0 -0.00000000000E+00 -0.00000000000E+00  0.11368683772E-12  0.17120000000E+03  0.17120000000E+03 0.  0.
         13    1    1    2    0    0  0.63718184073E+01  0.13046670867E+02  0.59635035066E+01  0.15696822247E+02  0.10566000000E+00 0.  1.
        994    1    1    2    0    0 -0.15892548962E+02 -0.21330224951E+01  0.10934351685E+02  0.17229661327E+03  0.17120000000E+03 0.  0.
        998    1    1    2    0    0  0.95207305546E+01 -0.10913648372E+02  0.14831021411E+04  0.14832065645E+04  0.10000000000E+02 0.  1.
</event>
<event>
 5    1  0.1106231E-008  0.3699680E+03  0.7957747E-01  0.3496038E+00
         13   -1    0    0    0    0  0.00000000000E+00  0.00000000000E+00  0.14999999963E+04  0.15000000000E+04  0.10566000000E+00 0. -1.
        994   -1    0    0    0    0 -0.00000000000E+00 -0.00000000000E+00  0.11368683772E-12  0.17120000000E+03  0.17120000000E+03 0.  0.
         13    1    1    2    0    0 -0.53842973502E+02  0.33537317778E+02  0.23854709413E+03  0.24683708142E+03  0.10566000000E+00 0. -1.
        994    1    1    2    0    0  0.19553191382E+01 -0.32398639690E+02  0.12937522528E+02  0.17472926090E+03  0.17120000000E+03 0.  0.
        998    1    1    2    0    0  0.51887654364E+02 -0.11386780885E+01  0.12485153796E+04  0.12496336577E+04  0.10000000000E+02 0. -1.
</event>
<event>
 5    1  0.1106231E-008  0.3845822E+03  0.7957747E-01  0.3431446E+00
         13   -1    0    0    0    0  0.00000000000E+00  0.00000000000E+00  0.14999999963E+04  0.15000000000E+04  0.10566000000E+00 0. -1.
        994   -1    0    0    0    0 -0.00000000000E+00 -0.00000000000E+00  0.11368683772E-12  0.17120000000E+03  0.17120000000E+03 0.  0.
         13    1    1    2    0    0 -0.28831941095E+01 -0.98250194404E+01  0.27911205140E+02  0.29730293501E+02  0.10566000000E+00 0. -1.
        994    1    1    2    0    0  0.67870959392E+01  0.71593823628E+01  0.21582793099E+01  0.17149757898E+03  0.17120000000E+03 0.  0.
        998    1    1    2    0    0 -0.39039018297E+01  0.26656370776E+01  0.14699305118E+04  0.14699721275E+04  0.10000000000E+02 0. -1.
</event>
<event>
 5    1  0.1106231E-008  0.3792438E+03  0.7957747E-01  0.3454458E+00
         13   -1    0    0    0    0  0.00000000000E+00  0.00000000000E+00  0.14999999963E+04  0.15000000000E+04  0.10566000000E+00 0.  1.
        994   -1    0    0    0    0 -0.00000000000E+00 -0.00000000000E+00  0.11368683772E-12  0.17120000000E+03  0.17120000000E+03 0.  0.
         13    1    1    2    0    0  0.12976450457E+02  0.19042351205E+02  0.54939941932E+02  0.59576906511E+02  0.10566000000E+00 0.  1.
        994    1    1    2    0    0 -0.14245112329E+02 -0.20725775215E+02  0.66378759008E+01  0.17316461065E+03  0.17120000000E+03 0.  0.
        998    1    1    2    0    0  0.12686618717E+01  0.16834240099E+01  0.14384221784E+04  0.14384584828E+04  0.10000000000E+02 0.  1.
</event>
<event>
 5    1  0.1106231E-008  0.3766748E+03  0.7957747E-01  0.3465766E+00
         13   -1    0    0    0    0  0.00000000000E+00  0.00000000000E+00  0.14999999963E+04  0.15000000000E+04  0.10566000000E+00 0.  1.
        994   -1    0    0    0    0 -0.00000000000E+00 -0.00000000000E+00  0.11368683772E-12  0.17120000000E+03  0.17120000000E+03 0.  0.
         13    1    1    2    0    0 -0.13881534116E+02 -0.31085618910E+02  0.98271878145E+02  0.10400185523E+03  0.10566000000E+00 0.  1.
        994    1    1    2    0    0 -0.48900989117E+01  0.23080216235E+02  0.77048375491E+01  0.17298963544E+03  0.17120000000E+03 0.  0.
        998    1    1    2    0    0  0.18771633028E+02  0.80054026745E+01  0.13940232806E+04  0.13942085093E+04  0.10000000000E+02 0.  1.
</event>
<event>
 5    1  0.1106231E-008  0.3706259E+03  0.7957747E-01  0.3493019E+00
         13   -1    0    0    0    0  0.00000000000E+00  0.00000000000E+00  0.14999999963E+04  0.15000000000E+04  0.10566000000E+00 0.  1.
        994   -1    0    0    0    0 -0.00000000000E+00 -0.00000000000E+00  0.11368683772E-12  0.17120000000E+03  0.17120000000E+03 0.  0.
         13    1    1    2    0    0 -0.29258745009E+02  0.58358210930E+02  0.20560848357E+03  0.21572346795E+03  0.10566000000E+00 0.  1.
        994    1    1    2    0    0  0.24815800764E+02 -0.58795993091E+02  0.23128238546E+02  0.18416608860E+03  0.17120000000E+03 0.  0.
        998    1    1    2    0    0  0.44429442450E+01  0.43778216139E+00  0.12712632742E+04  0.12713104435E+04  0.10000000000E+02 0.  1.
</event>
<event>
 5    1  0.1106231E-008  0.3745974E+03  0.7957747E-01  0.3475025E+00
         13   -1    0    0    0    0  0.00000000000E+00  0.00000000000E+00  0.14999999963E+04  0.15000000000E+04  0.10566000000E+00 0. -1.
        994   -1    0    0    0    0 -0.00000000000E+00 -0.00000000000E+00  0.11368683772E-12  0.17120000000E+03  0.17120000000E+03 0.  0.
         13    1    1    2    0    0 -0.10883666314E+02 -0.60188799631E+02  0.31950271758E+03  0.32530469332E+03  0.10566000000E+00 0. -1.
        994    1    1    2    0    0 -0.97082871685E+01  0.15759779932E+02  0.80526954853E+01  0.17238592578E+03  0.17120000000E+03 0.  0.
        998    1    1    2    0    0  0.20591953482E+02  0.44429019698E+02  0.11724445832E+04  0.11735093809E+04  0.10000000000E+02 0. -1.
</event>
<event>
 5    1  0.1106231E-008  0.3816921E+03  0.7957747E-01  0.3443824E+00
         13   -1    0    0    0    0  0.00000000000E+00  0.00000000000E+00  0.14999999963E+04  0.15000000000E+04  0.10566000000E+00 0.  1.
        994   -1    0    0    0    0 -0.00000000000E+00 -0.00000000000E+00  0.11368683772E-12  0.17120000000E+03  0.17120000000E+03 0.  0.
         13    1    1    2    0    0 -0.30955491398E+02  0.37690932160E+02  0.28909888184E+03  0.29318428242E+03  0.10566000000E+00 0.  1.
        994    1    1    2    0    0  0.42247123978E+02 -0.31309735821E+02  0.12528713489E+02  0.17953141147E+03  0.17120000000E+03 0.  0.
        998    1    1    2    0    0 -0.11291632580E+02 -0.63811963390E+01  0.11983724009E+04  0.11984843061E+04  0.10000000000E+02 0.  1.
</event>
<event>
 5    1  0.1106231E-008  0.3783490E+03  0.7957747E-01  0.3458379E+00
         13   -1    0    0    0    0  0.00000000000E+00  0.00000000000E+00  0.14999999963E+04  0.15000000000E+04  0.10566000000E+00 0.  1.
        994   -1    0    0    0    0 -0.00000000000E+00 -0.00000000000E+00  0.11368683772E-12  0.17120000000E+03  0.17120000000E+03 0.  0.
         13    1    1    2    0    0  0.56258249074E+02 -0.78044513773E+01  0.27018734587E+03  0.27609258063E+03  0.10566000000E+00 0.  1.
        994    1    1    2    0    0 -0.54782638665E+02  0.58257766372E+01  0.15239211597E+02  0.18049030651E+03  0.17120000000E+03 0.  0.
        998    1    1    2    0    0 -0.14756104087E+01  0.19786747401E+01  0.12145734388E+04  0.12146171129E+04  0.10000000000E+02 0.  1.
</event>
<event>
 5    1  0.1106231E-008  0.3815344E+03  0.7957747E-01  0.3444505E+00
         13   -1    0    0    0    0  0.00000000000E+00  0.00000000000E+00  0.14999999963E+04  0.15000000000E+04  0.10566000000E+00 0.  1.
        994   -1    0    0    0    0 -0.00000000000E+00 -0.00000000000E+00  0.11368683772E-12  0.17120000000E+03  0.17120000000E+03 0.  0.
         13    1    1    2    0    0 -0.49966953217E+02  0.58864471192E+01  0.70983374665E+02  0.87005731515E+02  0.10566000000E+00 0.  1.
        994    1    1    2    0    0  0.20146172104E+02  0.21182794119E+02  0.20292845424E+02  0.17485942523E+03  0.17120000000E+03 0.  0.
        998    1    1    2    0    0  0.29820781113E+02 -0.27069241238E+02  0.14087237762E+04  0.14093348433E+04  0.10000000000E+02 0.  1.
</event>
<event>
 5    1  0.1106231E-008  0.3695074E+03  0.7957747E-01  0.3498158E+00
         13   -1    0    0    0    0  0.00000000000E+00  0.00000000000E+00  0.14999999963E+04  0.15000000000E+04  0.10566000000E+00 0.  1.
        994   -1    0    0    0    0 -0.00000000000E+00 -0.00000000000E+00  0.11368683772E-12  0.17120000000E+03  0.17120000000E+03 0.  0.
         13    1    1    2    0    0  0.79008514712E+02 -0.11669326405E+02  0.33482964333E+03  0.34422292165E+03  0.10566000000E+00 0.  1.
        994    1    1    2    0    0 -0.43379320565E+02  0.12638010464E+02  0.16630952747E+02  0.17784125885E+03  0.17120000000E+03 0.  0.
        998    1    1    2    0    0 -0.35629194148E+02 -0.96868405882E+00  0.11485394002E+04  0.11491358195E+04  0.10000000000E+02 0.  1.
</event>
<event>
 5    1  0.1106231E-008  0.3773631E+03  0.7957747E-01  0.3462721E+00
         13   -1    0    0    0    0  0.00000000000E+00  0.00000000000E+00  0.14999999963E+04  0.15000000000E+04  0.10566000000E+00 0.  1.
        994   -1    0    0    0    0 -0.00000000000E+00 -0.00000000000E+00  0.11368683772E-12  0.17120000000E+03  0.17120000000E+03 0.  0.
         13    1    1    2    0    0  0.58954649725E+02 -0.29456447446E+02  0.33766078004E+03  0.34403218826E+03  0.10566000000E+00 0.  1.
        994    1    1    2    0    0 -0.46448620309E+02  0.31819303270E+02  0.16235927627E+02  0.18095023552E+03  0.17120000000E+03 0.  0.
        998    1    1    2    0    0 -0.12506029416E+02 -0.23628558239E+01  0.11461032886E+04  0.11462175762E+04  0.10000000000E+02 0.  1.
</event>
<event>
 5    1  0.1106231E-008  0.3845486E+03  0.7957747E-01  0.3431589E+00
         13   -1    0    0    0    0  0.00000000000E+00  0.00000000000E+00  0.14999999963E+04  0.15000000000E+04  0.10566000000E+00 0.  1.
        994   -1    0    0    0    0 -0.00000000000E+00 -0.00000000000E+00  0.11368683772E-12  0.17120000000E+03  0.17120000000E+03 0.  0.
         13    1    1    2    0    0 -0.10235296288E+02 -0.14452138798E+02  0.92616311213E+02  0.94294315166E+02  0.10566000000E+00 0.  1.
        994    1    1    2    0    0  0.50482171795E+01 -0.53489710931E+01  0.20326083532E+01  0.17136997253E+03  0.17120000000E+03 0.  0.
        998    1    1    2    0    0  0.51870791083E+01  0.19801109891E+02  0.14053510767E+04  0.14055357123E+04  0.10000000000E+02 0.  1.
</event>
<event>
 5    1  0.1106231E-008  0.3685931E+03  0.7957747E-01  0.3502382E+00
         13   -1    0    0    0    0  0.00000000000E+00  0.00000000000E+00  0.14999999963E+04  0.15000000000E+04  0.10566000000E+00 0.  1.
        994   -1    0    0    0    0 -0.00000000000E+00 -0.00000000000E+00  0.11368683772E-12  0.17120000000E+03  0.17120000000E+03 0.  0.
         13    1    1    2    0    0 -0.26185020362E+02 -0.13801170895E+02  0.37476423620E+02  0.47755848865E+02  0.10566000000E+00 0.  1.
        994    1    1    2    0    0  0.45616496587E+02  0.54166019883E+01  0.17374304754E+02  0.17810533626E+03  0.17120000000E+03 0.  0.
        998    1    1    2    0    0 -0.19431476225E+02  0.83845689068E+01  0.14451492679E+04  0.14453388149E+04  0.10000000000E+02 0.  1.
</event>
<event>
 5    1  0.1106231E-008  0.3829534E+03  0.7957747E-01  0.3438399E+00
         13   -1    0    0    0    0  0.00000000000E+00  0.00000000000E+00  0.14999999963E+04  0.15000000000E+04  0.10566000000E+00 0. -1.
        994   -1    0    0    0    0 -0.00000000000E+00 -0.00000000000E+00  0.11368683772E-12  0.17120000000E+03  0.17120000000E+03 0.  0.
         13    1    1    2    0    0  0.55644606435E+01 -0.94567349140E+01  0.22651552073E+02  0.25169366953E+02  0.10566000000E+00 0. -1.
        994    1    1    2    0    0  0.14886079573E+02  0.30556668155E+01  0.34145380932E+01  0.17190704330E+03  0.17120000000E+03 0.  0.
        998    1    1    2    0    0 -0.20450540217E+02  0.64010680985E+01  0.14739339061E+04  0.14741235897E+04  0.10000000000E+02 0. -1.
</event>
<event>
 5    1  0.1106231E-008  0.3825349E+03  0.7957747E-01  0.3440195E+00
         13   -1    0    0    0    0  0.00000000000E+00  0.00000000000E+00  0.14999999963E+04  0.15000000000E+04  0.10566000000E+00 0.  1.
        994   -1    0    0    0    0 -0.00000000000E+00 -0.00000000000E+00  0.11368683772E-12  0.17120000000E+03  0.17120000000E+03 0.  0.
         13    1    1    2    0    0 -0.15188333260E+02  0.21053266022E+02  0.11332790283E+03  0.11626327967E+03  0.10566000000E+00 0.  1.
        994    1    1    2    0    0  0.11014580815E+02 -0.17634731466E+02  0.42934562083E+01  0.17251138661E+03  0.17120000000E+03 0.  0.
        998    1    1    2    0    0  0.41737524455E+01 -0.34185345552E+01  0.13823786372E+04  0.13824253337E+04  0.10000000000E+02 0.  1.
</event>
<event>
 5    1  0.1106231E-008  0.3861327E+03  0.7957747E-01  0.3424883E+00
         13   -1    0    0    0    0  0.00000000000E+00  0.00000000000E+00  0.14999999963E+04  0.15000000000E+04  0.10566000000E+00 0. -1.
        994   -1    0    0    0    0 -0.00000000000E+00 -0.00000000000E+00  0.11368683772E-12  0.17120000000E+03  0.17120000000E+03 0.  0.
         13    1    1    2    0    0 -0.10572194110E+02  0.16323765680E+01  0.53164708363E+02  0.54230372680E+02  0.10566000000E+00 0. -1.
        994    1    1    2    0    0  0.10610168405E+02  0.18395787629E+01  0.14488752399E+01  0.17154445186E+03  0.17120000000E+03 0.  0.
        998    1    1    2    0    0 -0.37974294896E-01 -0.34719553309E+01  0.14453864127E+04  0.14454251755E+04  0.10000000000E+02 0. -1.
</event>
<event>
 5    1  0.1106231E-008  0.3721078E+03  0.7957747E-01  0.3486260E+00
         13   -1    0    0    0    0  0.00000000000E+00  0.00000000000E+00  0.14999999963E+04  0.15000000000E+04  0.10566000000E+00 0.  1.
        994   -1    0    0    0    0 -0.00000000000E+00 -0.00000000000E+00  0.11368683772E-12  0.17120000000E+03  0.17120000000E+03 0.  0.
         13    1    1    2    0    0  0.34886638407E+02  0.11403560737E+02  0.51740540203E+02  0.63436688133E+02  0.10566000000E+00 0.  1.
        994    1    1    2    0    0 -0.27347210931E+02  0.13857213734E+02  0.15375136391E+02  0.17460162410E+03  0.17120000000E+03 0.  0.
        998    1    1    2    0    0 -0.75394274763E+01 -0.25260774471E+02  0.14328843197E+04  0.14331616878E+04  0.10000000000E+02 0.  1.
</event>
<event>
 5    1  0.1106231E-008  0.3815269E+03  0.7957747E-01  0.3444537E+00
         13   -1    0    0    0    0  0.00000000000E+00  0.00000000000E+00  0.14999999963E+04  0.15000000000E+04  0.10566000000E+00 0. -1.
        994   -1    0    0    0    0 -0.00000000000E+00 -0.00000000000E+00  0.11368683772E-12  0.17120000000E+03  0.17120000000E+03 0.  0.
         13    1    1    2    0    0  0.98473901904E+01 -0.38321869928E+01  0.14477923255E+02  0.17924234336E+02  0.10566000000E+00 0. -1.
        994    1    1    2    0    0 -0.26665337442E+02  0.25600536989E+01  0.57548464790E+01  0.17337863869E+03  0.17120000000E+03 0.  0.
        998    1    1    2    0    0  0.16817947251E+02  0.12721332939E+01  0.14797672265E+04  0.14798971270E+04  0.10000000000E+02 0. -1.
</event>
<event>
 5    1  0.1106231E-008  0.3852515E+03  0.7957747E-01  0.3428606E+00
         13   -1    0    0    0    0  0.00000000000E+00  0.00000000000E+00  0.14999999963E+04  0.15000000000E+04  0.10566000000E+00 0. -1.
        994   -1    0    0    0    0 -0.00000000000E+00 -0.00000000000E+00  0.11368683772E-12  0.17120000000E+03  0.17120000000E+03 0.  0.
         13    1    1    2    0    0 -0.58919441979E+01 -0.11462700843E+02  0.56027786620E+02  0.57491151968E+02  0.10566000000E+00 0. -1.
        994    1    1    2    0    0  0.54311690695E+01  0.44324429464E+01  0.16668103173E+01  0.17135157544E+03  0.17120000000E+03 0.  0.
        998    1    1    2    0    0  0.46077512838E+00  0.70302578961E+01  0.14423053993E+04  0.14423572726E+04  0.10000000000E+02 0. -1.
</event>
<event>
 5    1  0.1106231E-008  0.3736165E+03  0.7957747E-01  0.3479434E+00
         13   -1    0    0    0    0  0.00000000000E+00  0.00000000000E+00  0.14999999963E+04  0.15000000000E+04  0.10566000000E+00 0. -1.
        994   -1    0    0    0    0 -0.00000000000E+00 -0.00000000000E+00  0.11368683772E-12  0.17120000000E+03  0.17120000000E+03 0.  0.
         13    1    1    2    0    0  0.24398343099E+02  0.18618999846E+02  0.59728250794E+02  0.67152225638E+02  0.10566000000E+00 0. -1.
        994    1    1    2    0    0 -0.10830769595E+02 -0.28509287749E+02  0.10573858957E+02  0.17421633549E+03  0.17120000000E+03 0.  0.
        998    1    1    2    0    0 -0.13567573504E+02  0.98902879028E+01  0.14296978865E+04  0.14298314389E+04  0.10000000000E+02 0. -1.
</event>
<event>
 5    1  0.1106231E-008  0.3800667E+03  0.7957747E-01  0.3450868E+00
         13   -1    0    0    0    0  0.00000000000E+00  0.00000000000E+00  0.14999999963E+04  0.15000000000E+04  0.10566000000E+00 0. -1.
        994   -1    0    0    0    0 -0.00000000000E+00 -0.00000000000E+00  0.11368683772E-12  0.17120000000E+03  0.17120000000E+03 0.  0.
         13    1    1    2    0    0 -0.10624186926E+02  0.17797083914E+02  0.60554846401E+02  0.64003985269E+02  0.10566000000E+00 0. -1.
        994    1    1    2    0    0 -0.23222704941E+02  0.19231113819E+02  0.71439279109E+01  0.17398162394E+03  0.17120000000E+03 0.  0.
        998    1    1    2    0    0  0.33846891867E+02 -0.37028197732E+02  0.14323012220E+04  0.14332143908E+04  0.10000000000E+02 0. -1.
</event>
<event>
 5    1  0.1106231E-008  0.4133551E+03  0.7957747E-01  0.3317652E+00
         13   -1    0    0    0    0  0.00000000000E+00  0.00000000000E+00  0.14999999963E+04  0.15000000000E+04  0.10566000000E+00 0. -1.
        994   -1    0    0    0    0 -0.00000000000E+00 -0.00000000000E+00  0.11368683772E-12  0.17120000000E+03  0.17120000000E+03 0.  0.
         13    1    1    2    0    0 -0.36521591476E+02  0.12971666044E+03  0.20155871457E+03  0.24245858455E+03  0.10566000000E+00 0. -1.
        994    1    1    2    0    0  0.11199129983E+02 -0.14002667301E+03  0.12374251942E+03  0.25368196778E+03  0.17120000000E+03 0.  0.
        998    1    1    2    0    0  0.25322461493E+02  0.10310012575E+02  0.11746987623E+04  0.11750594477E+04  0.10000000000E+02 0. -1.
</event>
<event>
 5    1  0.1106231E-008  0.3687512E+03  0.7957747E-01  0.3501650E+00
         13   -1    0    0    0    0  0.00000000000E+00  0.00000000000E+00  0.14999999963E+04  0.15000000000E+04  0.10566000000E+00 0.  1.
        994   -1    0    0    0    0 -0.00000000000E+00 -0.00000000000E+00  0.11368683772E-12  0.17120000000E+03  0.17120000000E+03 0.  0.
         13    1    1    2    0    0 -0.35789414190E+02 -0.13678135266E+02  0.67061109922E+02  0.77234559495E+02  0.10566000000E+00 0.  1.
        994    1    1    2    0    0  0.41480719837E+02  0.36867228777E+01  0.15969820449E+02  0.17691443471E+03  0.17120000000E+03 0.  0.
        998    1    1    2    0    0 -0.56913056468E+01  0.99914123884E+01  0.14169690659E+04  0.14170510058E+04  0.10000000000E+02 0.  1.
</event>
<event>
 5    1  0.1106231E-008  0.3833289E+03  0.7957747E-01  0.3436791E+00
         13   -1    0    0    0    0  0.00000000000E+00  0.00000000000E+00  0.14999999963E+04  0.15000000000E+04  0.10566000000E+00 0. -1.
        994   -1    0    0    0    0 -0.00000000000E+00 -0.00000000000E+00  0.11368683772E-12  0.17120000000E+03  0.17120000000E+03 0.  0.
         13    1    1    2    0    0 -0.24551317756E+02 -0.10509023913E+02  0.14656068336E+03  0.14897399726E+03  0.10566000000E+00 0. -1.
        994    1    1    2    0    0  0.14270046855E+02  0.22021140253E+01  0.31517450706E+01  0.17183671622E+03  0.17120000000E+03 0.  0.
        998    1    1    2    0    0  0.10281270900E+02  0.83069098875E+01  0.13502875678E+04  0.13503892865E+04  0.10000000000E+02 0. -1.
</event>
<event>
 5    1  0.1106231E-008  0.3731243E+03  0.7957747E-01  0.3481654E+00
         13   -1    0    0    0    0  0.00000000000E+00  0.00000000000E+00  0.14999999963E+04  0.15000000000E+04  0.10566000000E+00 0. -1.
        994   -1    0    0    0    0 -0.00000000000E+00 -0.00000000000E+00  0.11368683772E-12  0.17120000000E+03  0.17120000000E+03 0.  0.
         13    1    1    2    0    0 -0.55478887863E+01  0.20725344559E+02  0.12604950435E+02  0.24884029347E+02  0.10566000000E+00 0. -1.
        994    1    1    2    0    0  0.24437370442E+01 -0.22117580571E+02  0.14352615010E+02  0.17323566832E+03  0.17120000000E+03 0.  0.
        998    1    1    2    0    0  0.31041517421E+01  0.13922360123E+01  0.14730424308E+04  0.14730803023E+04  0.10000000000E+02 0. -1.
</event>
<event>
 5    1  0.1106231E-008  0.3812151E+03  0.7957747E-01  0.3445885E+00
         13   -1    0    0    0    0  0.00000000000E+00  0.00000000000E+00  0.14999999963E+04  0.15000000000E+04  0.10566000000E+00 0. -1.
        994   -1    0    0    0    0 -0.00000000000E+00 -0.00000000000E+00  0.11368683772E-12  0.17120000000E+03  0.17120000000E+03 0.  0.
         13    1    1    2    0    0  0.44900348848E+02 -0.16488522313E+01  0.23489503445E+03  0.23915360841E+03  0.10566000000E+00 0. -1.
        994    1    1    2    0    0 -0.48938737877E+02  0.69472731073E-01  0.11536728994E+02  0.17843077371E+03  0.17120000000E+03 0.  0.
        998    1    1    2    0    0  0.40383890288E+01  0.15793795002E+01  0.12535682328E+04  0.12536156179E+04  0.10000000000E+02 0. -1.
</event>
<event>
 5    1  0.1106231E-008  0.3394874E+03  0.7957747E-01  0.3649060E+00
         13   -1    0    0    0    0  0.00000000000E+00  0.00000000000E+00  0.14999999963E+04  0.15000000000E+04  0.10566000000E+00 0. -1.
        994   -1    0    0    0    0 -0.00000000000E+00 -0.00000000000E+00  0.11368683772E-12  0.17120000000E+03  0.17120000000E+03 0.  0.
         13    1    1    2    0    0  0.21241628017E+03 -0.14108757947E+03  0.79448911222E+03  0.83440957674E+03  0.10566000000E+00 0. -1.
        994    1    1    2    0    0 -0.21625645303E+03  0.13168234226E+03  0.29094042194E+03  0.42197495407E+03  0.17120000000E+03 0.  0.
        998    1    1    2    0    0  0.38401728646E+01  0.94052372097E+01  0.41457046212E+03  0.41481546919E+03  0.10000000000E+02 0. -1.
</event>
<event>
 5    1  0.1106231E-008  0.3760914E+03  0.7957747E-01  0.3468356E+00
         13   -1    0    0    0    0  0.00000000000E+00  0.00000000000E+00  0.14999999963E+04  0.15000000000E+04  0.10566000000E+00 0. -1.
        994   -1    0    0    0    0 -0.00000000000E+00 -0.00000000000E+00  0.11368683772E-12  0.17120000000E+03  0.17120000000E+03 0.  0.
         13    1    1    2    0    0 -0.25228105713E+02  0.28491956488E+02  0.10059383330E+03  0.10755175203E+03  0.10566000000E+00 0. -1.
        994    1    1    2    0    0  0.56870466951E+02 -0.25030859221E+02  0.19308825700E+02  0.18314765812E+03  0.17120000000E+03 0.  0.
        998    1    1    2    0    0 -0.31642361238E+02 -0.34610972663E+01  0.13800973373E+04  0.13805005899E+04  0.10000000000E+02 0. -1.
</event>
<event>
 5    1  0.1106231E-008  0.3904557E+03  0.7957747E-01  0.3406859E+00
         13   -1    0    0    0    0  0.00000000000E+00  0.00000000000E+00  0.14999999963E+04  0.15000000000E+04  0.10566000000E+00 0. -1.
        994   -1    0    0    0    0 -0.00000000000E+00 -0.00000000000E+00  0.11368683772E-12  0.17120000000E+03  0.17120000000E+03 0.  0.
         13    1    1    2    0    0  0.85895582648E+02  0.92853112108E+02  0.34860334864E+03  0.37084236191E+03  0.10566000000E+00 0. -1.
        994    1    1    2    0    0 -0.36318059254E+02 -0.75643194787E+02  0.49248678666E+02  0.19691563345E+03  0.17120000000E+03 0.  0.
        998    1    1    2    0    0 -0.49577523394E+02 -0.17209917321E+02  0.11021479690E+04  0.11034420046E+04  0.10000000000E+02 0. -1.
</event>
<event>
 5    1  0.1106231E-008  0.3846180E+03  0.7957747E-01  0.3431294E+00
         13   -1    0    0    0    0  0.00000000000E+00  0.00000000000E+00  0.14999999963E+04  0.15000000000E+04  0.10566000000E+00 0. -1.
        994   -1    0    0    0    0 -0.00000000000E+00 -0.00000000000E+00  0.11368683772E-12  0.17120000000E+03  0.17120000000E+03 0.  0.
         13    1    1    2    0    0  0.84933781572E+01  0.14054169304E+02  0.74626440201E+02  0.76411870076E+02  0.10566000000E+00 0. -1.
        994    1    1    2    0    0 -0.51613086569E+01 -0.76372745031E+01  0.20997506679E+01  0.17146082941E+03  0.17120000000E+03 0.  0.
        998    1    1    2    0    0 -0.33320695003E+01 -0.64168948004E+01  0.14232738054E+04  0.14233273005E+04  0.10000000000E+02 0. -1.
</event>
<event>
 5    1  0.1106231E-008  0.3818976E+03  0.7957747E-01  0.3442938E+00
         13   -1    0    0    0    0  0.00000000000E+00  0.00000000000E+00  0.14999999963E+04  0.15000000000E+04  0.10566000000E+00 0.  1.
        994   -1    0    0    0    0 -0.00000000000E+00 -0.00000000000E+00  0.11368683772E-12  0.17120000000E+03  0.17120000000E+03 0.  0.
         13    1    1    2    0    0 -0.15837738105E+02 -0.75589814109E+01  0.46403535028E+02  0.49611202116E+02  0.10566000000E+00 0.  1.
        994    1    1    2    0    0  0.14270347120E+02  0.86039934766E+01  0.41013147912E+01  0.17205793296E+03  0.17120000000E+03 0.  0.
        998    1    1    2    0    0  0.15673909849E+01 -0.10450120656E+01  0.14494951465E+04  0.14495308649E+04  0.10000000000E+02 0.  1.
</event>
<event>
 5    1  0.1106231E-008  0.3774153E+03  0.7957747E-01  0.3462491E+00
         13   -1    0    0    0    0  0.00000000000E+00  0.00000000000E+00  0.14999999963E+04  0.15000000000E+04  0.10566000000E+00 0.  1.
        994   -1    0    0    0    0 -0.00000000000E+00 -0.00000000000E+00  0.11368683772E-12  0.17120000000E+03  0.17120000000E+03 0.  0.
         13    1    1    2    0    0  0.12195477820E+03  0.35885938569E+02  0.36823340740E+03  0.38955952306E+03  0.10566000000E+00 0.  1.
        994    1    1    2    0    0 -0.12896135729E+03 -0.43501247797E+02  0.84794797819E+02  0.23456979339E+03  0.17120000000E+03 0.  0.
        998    1    1    2    0    0  0.70065790946E+01  0.76153092288E+01  0.10469717911E+04  0.10470706836E+04  0.10000000000E+02 0.  1.
</event>
<event>
 5    1  0.1106231E-008  0.3819052E+03  0.7957747E-01  0.3442905E+00
         13   -1    0    0    0    0  0.00000000000E+00  0.00000000000E+00  0.14999999963E+04  0.15000000000E+04  0.10566000000E+00 0. -1.
        994   -1    0    0    0    0 -0.00000000000E+00 -0.00000000000E+00  0.11368683772E-12  0.17120000000E+03  0.17120000000E+03 0.  0.
         13    1    1    2    0    0  0.29428926678E+01  0.12332657907E+02  0.25223412001E+02  0.28230953673E+02  0.10566000000E+00 0. -1.
        994    1    1    2    0    0 -0.16444749733E+02  0.97749939035E+01  0.43912180410E+01  0.17232151083E+03  0.17120000000E+03 0.  0.
        998    1    1    2    0    0  0.13501857065E+02 -0.22107651810E+02  0.14703853662E+04  0.14706475355E+04  0.10000000000E+02 0. -1.
</event>
<event>
 5    1  0.1106231E-008  0.3812383E+03  0.7957747E-01  0.3445784E+00
         13   -1    0    0    0    0  0.00000000000E+00  0.00000000000E+00  0.14999999963E+04  0.15000000000E+04  0.10566000000E+00 0.  1.
        994   -1    0    0    0    0 -0.00000000000E+00 -0.00000000000E+00  0.11368683772E-12  0.17120000000E+03  0.17120000000E+03 0.  0.
         13    1    1    2    0    0 -0.16258362980E+02 -0.12844332816E+02  0.59109728793E+02  0.62636111424E+02  0.10566000000E+00 0.  1.
        994    1    1    2    0    0  0.18512975384E+02  0.33662607231E+01  0.46890087870E+01  0.17229477291E+03  0.17120000000E+03 0.  0.
        998    1    1    2    0    0 -0.22546124037E+01  0.94780720927E+01  0.14362012587E+04  0.14362691157E+04  0.10000000000E+02 0.  1.
</event>
<event>
 5    1  0.1106231E-008  0.3772133E+03  0.7957747E-01  0.3463383E+00
         13   -1    0    0    0    0  0.00000000000E+00  0.00000000000E+00  0.14999999963E+04  0.15000000000E+04  0.10566000000E+00 0.  1.
        994   -1    0    0    0    0 -0.00000000000E+00 -0.00000000000E+00  0.11368683772E-12  0.17120000000E+03  0.17120000000E+03 0.  0.
         13    1    1    2    0    0  0.10211842565E+02 -0.77979245613E+01  0.12203107121E+02  0.17720506299E+02  0.10566000000E+00 0.  1.
        994    1    1    2    0    0 -0.12713396586E+02  0.11421385914E+02  0.65325852677E+01  0.17217489126E+03  0.17120000000E+03 0.  0.
        998    1    1    2    0    0  0.25015540204E+01 -0.36234613528E+01  0.14812643039E+04  0.14813046024E+04  0.10000000000E+02 0.  1.
</event>
<event>
 5    1  0.1106231E-008  0.3796204E+03  0.7957747E-01  0.3452813E+00
         13   -1    0    0    0    0  0.00000000000E+00  0.00000000000E+00  0.14999999963E+04  0.15000000000E+04  0.10566000000E+00 0. -1.
        994   -1    0    0    0    0 -0.00000000000E+00 -0.00000000000E+00  0.11368683772E-12  0.17120000000E+03  0.17120000000E+03 0.  0.
         13    1    1    2    0    0  0.32264112195E+02 -0.11696480439E+02  0.12201490299E+03  0.12674947064E+03  0.10566000000E+00 0. -1.
        994    1    1    2    0    0 -0.35152533062E+02  0.15683721722E+02  0.93002217411E+01  0.17572027155E+03  0.17120000000E+03 0.  0.
        998    1    1    2    0    0  0.28884208665E+01 -0.39872412831E+01  0.13686848715E+04  0.13687302578E+04  0.10000000000E+02 0. -1.
</event>
<event>
 5    1  0.1106231E-008  0.3776337E+03  0.7957747E-01  0.3461527E+00
         13   -1    0    0    0    0  0.00000000000E+00  0.00000000000E+00  0.14999999963E+04  0.15000000000E+04  0.10566000000E+00 0.  1.
        994   -1    0    0    0    0 -0.00000000000E+00 -0.00000000000E+00  0.11368683772E-12  0.17120000000E+03  0.17120000000E+03 0.  0.
         13    1    1    2    0    0 -0.66214206287E+01  0.75372809931E+01  0.69392579625E+01  0.12199109845E+02  0.10566000000E+00 0.  1.
        994    1    1    2    0    0  0.96043390204E+01 -0.66879573630E+01  0.57940596718E+01  0.17169735941E+03  0.17120000000E+03 0.  0.
        998    1    1    2    0    0 -0.29829183917E+01 -0.84932363017E+00  0.14872666786E+04  0.14873035307E+04  0.10000000000E+02 0.  1.
</event>
<event>
 5    1  0.1106231E-008  0.3838083E+03  0.7957747E-01  0.3434742E+00
         13   -1    0    0    0    0  0.00000000000E+00  0.00000000000E+00  0.14999999963E+04  0.15000000000E+04  0.10566000000E+00 0.  1.
        994   -1    0    0    0    0 -0.00000000000E+00 -0.00000000000E+00  0.11368683772E-12  0.17120000000E+03  0.17120000000E+03 0.  0.
         13    1    1    2    0    0 -0.12125330547E+00 -0.12866117235E+02  0.36391113433E+02  0.38598911591E+02  0.10566000000E+00 0.  1.
        994    1    1    2    0    0  0.22135772219E+01  0.10266040930E+02  0.25871495106E+01  0.17154132115E+03  0.17120000000E+03 0.  0.
        998    1    1    2    0    0 -0.20923239165E+01  0.26000763049E+01  0.14610217333E+04  0.14610597673E+04  0.10000000000E+02 0.  1.
</event>
<event>
 5    1  0.1106231E-008  0.3753773E+03  0.7957747E-01  0.3471537E+00
         13   -1    0    0    0    0  0.00000000000E+00  0.00000000000E+00  0.14999999963E+04  0.15000000000E+04  0.10566000000E+00 0.  1.
        994   -1    0    0    0    0 -0.00000000000E+00 -0.00000000000E+00  0.11368683772E-12  0.17120000000E+03  0.17120000000E+03 0.  0.
         13    1    1    2    0    0  0.28879830776E+01 -0.22454718065E+02  0.36011366704E+02  0.42536860551E+02  0.10566000000E+00 0.  1.
        994    1    1    2    0    0 -0.74418753591E+01  0.23078913512E+02  0.84839235866E+01  0.17311682390E+03  0.17120000000E+03 0.  0.
        998    1    1    2    0    0  0.45538922815E+01 -0.62419544738E+00  0.14555047060E+04  0.14555463155E+04  0.10000000000E+02 0.  1.
</event>
<event>
 5    1  0.1106231E-008  0.3834094E+03  0.7957747E-01  0.3436446E+00
         13   -1    0    0    0    0  0.00000000000E+00  0.00000000000E+00  0.14999999963E+04  0.15000000000E+04  0.10566000000E+00 0. -1.
        994   -1    0    0    0    0 -0.00000000000E+00 -0.00000000000E+00  0.11368683772E-12  0.17120000000E+03  0.17120000000E+03 0.  0.
         13    1    1    2    0    0 -0.11074906864E+02 -0.21253814451E+01  0.27332212285E+02  0.29567411128E+02  0.10566000000E+00 0. -1.
        994    1    1    2    0    0 -0.82669654850E+01 -0.20209176193E+02  0.39994965875E+01  0.17263310660E+03  0.17120000000E+03 0.  0.
        998    1    1    2    0    0  0.19341872349E+02  0.22334557638E+02  0.14686682874E+04  0.14689994823E+04  0.10000000000E+02 0. -1.
</event>
<event>
 5    1  0.1106231E-008  0.3816118E+03  0.7957747E-01  0.3444170E+00
         13   -1    0    0    0    0  0.00000000000E+00  0.00000000000E+00  0.14999999963E+04  0.15000000000E+04  0.10566000000E+00 0.  1.
        994   -1    0    0    0    0 -0.00000000000E+00 -0.00000000000E+00  0.11368683772E-12  0.17120000000E+03  0.17120000000E+03 0.  0.
         13    1    1    2    0    0 -0.23238621988E+02 -0.32824614122E+02  0.21672588730E+03  0.22042597450E+03  0.10566000000E+00 0.  1.
        994    1    1    2    0    0  0.13211316732E+02  0.35579319759E+02  0.81262839167E+01  0.17554459084E+03  0.17120000000E+03 0.  0.
        998    1    1    2    0    0  0.10027305256E+02 -0.27547056367E+01  0.12751478251E+04  0.12752294347E+04  0.10000000000E+02 0.  1.
</event>
<event>
 5    1  0.1106231E-008  0.3820127E+03  0.7957747E-01  0.3442441E+00
         13   -1    0    0    0    0  0.00000000000E+00  0.00000000000E+00  0.14999999963E+04  0.15000000000E+04  0.10566000000E+00 0. -1.
        994   -1    0    0    0    0 -0.00000000000E+00 -0.00000000000E+00  0.11368683772E-12  0.17120000000E+03  0.17120000000E+03 0.  0.
         13    1    1    2    0    0  0.11322491608E+02 -0.25301746548E+02  0.10417892826E+03  0.10780369869E+03  0.10566000000E+00 0. -1.
        994    1    1    2    0    0  0.66150328673E+00  0.49130803257E+02  0.11179794463E+02  0.17846204420E+03  0.17120000000E+03 0.  0.
        998    1    1    2    0    0 -0.11983994895E+02 -0.23829056710E+02  0.13846412736E+04  0.13849342571E+04  0.10000000000E+02 0. -1.
</event>
<event>
 5    1  0.1106231E-008  0.3816088E+03  0.7957747E-01  0.3444183E+00
         13   -1    0    0    0    0  0.00000000000E+00  0.00000000000E+00  0.14999999963E+04  0.15000000000E+04  0.10566000000E+00 0. -1.
        994   -1    0    0    0    0 -0.00000000000E+00 -0.00000000000E+00  0.11368683772E-12  0.17120000000E+03  0.17120000000E+03 0.  0.
         13    1    1    2    0    0  0.14796877117E+02 -0.24514623272E+02  0.12609784243E+03  0.12930812564E+03  0.10566000000E+00 0. -1.
        994    1    1    2    0    0 -0.10802646357E+02  0.79755986811E+01  0.39230204511E+01  0.17177059537E+03  0.17120000000E+03 0.  0.
        998    1    1    2    0    0 -0.39942307602E+01  0.16539024591E+02  0.13699791334E+04  0.13701212790E+04  0.10000000000E+02 0. -1.
</event>
<event>
 5    1  0.1106231E-008  0.3762443E+03  0.7957747E-01  0.3467677E+00
         13   -1    0    0    0    0  0.00000000000E+00  0.00000000000E+00  0.14999999963E+04  0.15000000000E+04  0.10566000000E+00 0.  1.
        994   -1    0    0    0    0 -0.00000000000E+00 -0.00000000000E+00  0.11368683772E-12  0.17120000000E+03  0.17120000000E+03 0.  0.
         13    1    1    2    0    0  0.19624246163E+02 -0.15787410813E+02  0.51019626672E+02  0.56897863294E+02  0.10566000000E+00 0.  1.
        994    1    1    2    0    0 -0.91542342765E+01  0.67247653708E+01  0.64780085546E+01  0.17169865191E+03  0.17120000000E+03 0.  0.
        998    1    1    2    0    0 -0.10470011887E+02  0.90626454422E+01  0.14425023611E+04  0.14426034848E+04  0.10000000000E+02 0.  1.
</event>
<event>
 5    1  0.1106231E-008  0.3770027E+03  0.7957747E-01  0.3464314E+00
         13   -1    0    0    0    0  0.00000000000E+00  0.00000000000E+00  0.14999999963E+04  0.15000000000E+04  0.10566000000E+00 0.  1.
        994   -1    0    0    0    0 -0.00000000000E+00 -0.00000000000E+00  0.11368683772E-12  0.17120000000E+03  0.17120000000E+03 0.  0.
         13    1    1    2    0    0 -0.30374162884E+02  0.18922652891E+02  0.10406397330E+03  0.11004534641E+03  0.10566000000E+00 0.  1.
        994    1    1    2    0    0  0.32144733295E+02 -0.17051415880E+02  0.10137387747E+02  0.17531754417E+03  0.17120000000E+03 0.  0.
        998    1    1    2    0    0 -0.17705704106E+01 -0.18712370104E+01  0.13857986352E+04  0.13858371094E+04  0.10000000000E+02 0.  1.
</event>
<event>
 5    1  0.1106231E-008  0.3858366E+03  0.7957747E-01  0.3426132E+00
         13   -1    0    0    0    0  0.00000000000E+00  0.00000000000E+00  0.14999999963E+04  0.15000000000E+04  0.10566000000E+00 0. -1.
        994   -1    0    0    0    0 -0.00000000000E+00 -0.00000000000E+00  0.11368683772E-12  0.17120000000E+03  0.17120000000E+03 0.  0.
         13    1    1    2    0    0  0.10098660827E+02  0.57259509925E+01  0.55335607119E+02  0.56540339975E+02  0.10566000000E+00 0. -1.
        994    1    1    2    0    0 -0.80497700493E+01 -0.49447183393E+01  0.15081324479E+01  0.17146709160E+03  0.17120000000E+03 0.  0.
        998    1    1    2    0    0 -0.20488907779E+01 -0.78123265325E+00  0.14431562567E+04  0.14431925684E+04  0.10000000000E+02 0. -1.
</event>
<event>
 5    1  0.1106231E-008  0.3845535E+03  0.7957747E-01  0.3431568E+00
         13   -1    0    0    0    0  0.00000000000E+00  0.00000000000E+00  0.14999999963E+04  0.15000000000E+04  0.10566000000E+00 0.  1.
        994   -1    0    0    0    0 -0.00000000000E+00 -0.00000000000E+00  0.11368683772E-12  0.17120000000E+03  0.17120000000E+03 0.  0.
         13    1    1    2    0    0 -0.13756606318E+02  0.38746234447E+01  0.55821488187E+02  0.57622101937E+02  0.10566000000E+00 0.  1.
        994    1    1    2    0    0  0.22801934041E+01 -0.16761897872E+02  0.27950150981E+01  0.17205642276E+03  0.17120000000E+03 0.  0.
        998    1    1    2    0    0  0.11476412914E+02  0.12887274428E+02  0.14413834930E+04  0.14415214753E+04  0.10000000000E+02 0.  1.
</event>
<event>
 5    1  0.1106231E-008  0.3799768E+03  0.7957747E-01  0.3451260E+00
         13   -1    0    0    0    0  0.00000000000E+00  0.00000000000E+00  0.14999999963E+04  0.15000000000E+04  0.10566000000E+00 0.  1.
        994   -1    0    0    0    0 -0.00000000000E+00 -0.00000000000E+00  0.11368683772E-12  0.17120000000E+03  0.17120000000E+03 0.  0.
         13    1    1    2    0    0 -0.85029881427E+02  0.18243789065E+03  0.10903475211E+04  0.11087702163E+04  0.10566000000E+00 0.  1.
        994    1    1    2    0    0  0.84274055338E+02 -0.17747901868E+03  0.14632900071E+03  0.29886875869E+03  0.17120000000E+03 0.  0.
        998    1    1    2    0    0  0.75582608940E+00 -0.49588719706E+01  0.26332347446E+03  0.26356102498E+03  0.10000000000E+02 0.  1.
</event>
<event>
 5    1  0.1106231E-008  0.3804784E+03  0.7957747E-01  0.3449078E+00
         13   -1    0    0    0    0  0.00000000000E+00  0.00000000000E+00  0.14999999963E+04  0.15000000000E+04  0.10566000000E+00 0. -1.
        994   -1    0    0    0    0 -0.00000000000E+00 -0.00000000000E+00  0.11368683772E-12  0.17120000000E+03  0.17120000000E+03 0.  0.
         13    1    1    2    0    0  0.63536008514E+01 -0.90181206263E+01  0.13907616858E+02  0.17751836922E+02  0.10566000000E+00 0. -1.
        994    1    1    2    0    0 -0.56247634925E+01  0.77040726312E+01  0.41955792530E+01  0.17151686093E+03  0.17120000000E+03 0.  0.
        998    1    1    2    0    0 -0.72883735896E+00  0.13140479951E+01  0.14818968002E+04  0.14819313021E+04  0.10000000000E+02 0. -1.
</event>
<event>
 5    1  0.1106231E-008  0.3922537E+03  0.7957747E-01  0.3399479E+00
         13   -1    0    0    0    0  0.00000000000E+00  0.00000000000E+00  0.14999999963E+04  0.15000000000E+04  0.10566000000E+00 0.  1.
        994   -1    0    0    0    0 -0.00000000000E+00 -0.00000000000E+00  0.11368683772E-12  0.17120000000E+03  0.17120000000E+03 0.  0.
         13    1    1    2    0    0 -0.93003362892E+01  0.25797157312E+02  0.59033999655E+01  0.28050862298E+02  0.10566000000E+00 0.  1.
        994    1    1    2    0    0  0.43730552456E+02 -0.21719320485E+02  0.32331603030E+02  0.18093883678E+03  0.17120000000E+03 0.  0.
        998    1    1    2    0    0 -0.34430216166E+02 -0.40778368263E+01  0.14617649933E+04  0.14622103009E+04  0.10000000000E+02 0.  1.
</event>
<event>
 5    1  0.1106231E-008  0.3854699E+03  0.7957747E-01  0.3427682E+00
         13   -1    0    0    0    0  0.00000000000E+00  0.00000000000E+00  0.14999999963E+04  0.15000000000E+04  0.10566000000E+00 0.  1.
        994   -1    0    0    0    0 -0.00000000000E+00 -0.00000000000E+00  0.11368683772E-12  0.17120000000E+03  0.17120000000E+03 0.  0.
         13    1    1    2    0    0  0.31500442279E+01  0.12735886661E+02  0.59971749037E+02  0.61390124892E+02  0.10566000000E+00 0.  1.
        994    1    1    2    0    0 -0.10667902030E+02 -0.11408744435E+02  0.21985034392E+01  0.17192509125E+03  0.17120000000E+03 0.  0.
        998    1    1    2    0    0  0.75178578019E+01 -0.13271422263E+01  0.14378297438E+04  0.14378847839E+04  0.10000000000E+02 0.  1.
</event>
<event>
 5    1  0.1106231E-008  0.3729455E+03  0.7957747E-01  0.3482462E+00
         13   -1    0    0    0    0  0.00000000000E+00  0.00000000000E+00  0.14999999963E+04  0.15000000000E+04  0.10566000000E+00 0.  1.
        994   -1    0    0    0    0 -0.00000000000E+00 -0.00000000000E+00  0.11368683772E-12  0.17120000000E+03  0.17120000000E+03 0.  0.
         13    1    1    2    0    0  0.20159597142E+03 -0.10683724346E+03  0.11999126328E+04  0.12214112615E+04  0.10566000000E+00 0.  1.
        994    1    1    2    0    0 -0.21914939326E+03  0.82941485416E+02  0.22110040462E+03  0.36482951565E+03  0.17120000000E+03 0.  0.
        998    1    1    2    0    0  0.17553421841E+02  0.23895758049E+02  0.78986958893E+02  0.84959222843E+02  0.10000000000E+02 0.  1.
</event>
<event>
 5    1  0.1106231E-008  0.3845064E+03  0.7957747E-01  0.3431768E+00
         13   -1    0    0    0    0  0.00000000000E+00  0.00000000000E+00  0.14999999963E+04  0.15000000000E+04  0.10566000000E+00 0.  1.
        994   -1    0    0    0    0 -0.00000000000E+00 -0.00000000000E+00  0.11368683772E-12  0.17120000000E+03  0.17120000000E+03 0.  0.
         13    1    1    2    0    0 -0.15991736564E+01 -0.12942684277E+02  0.45017326889E+02  0.46868340241E+02  0.10566000000E+00 0.  1.
        994    1    1    2    0    0  0.26687409874E+01  0.85801740360E+01  0.21413897296E+01  0.17144902191E+03  0.17120000000E+03 0.  0.
        998    1    1    2    0    0 -0.10695673310E+01  0.43625102415E+01  0.14528412797E+04  0.14528826378E+04  0.10000000000E+02 0.  1.
</event>
<event>
 5    1  0.1106231E-008  0.3776674E+03  0.7957747E-01  0.3461378E+00
         13   -1    0    0    0    0  0.00000000000E+00  0.00000000000E+00  0.14999999963E+04  0.15000000000E+04  0.10566000000E+00 0. -1.
        994   -1    0    0    0    0 -0.00000000000E+00 -0.00000000000E+00  0.11368683772E-12  0.17120000000E+03  0.17120000000E+03 0.  0.
         13    1    1    2    0    0 -0.24093935507E+02 -0.17223388745E+02  0.83390225837E+02  0.88493523928E+02  0.10566000000E+00 0. -1.
        994    1    1    2    0    0  0.14487758577E+02 -0.23430137977E+01  0.60412016458E+01  0.17193405998E+03  0.17120000000E+03 0.  0.
        998    1    1    2    0    0  0.96061769303E+01  0.19566402542E+02  0.14105685688E+04  0.14107724161E+04  0.10000000000E+02 0. -1.
</event>
<event>
 5    1  0.1106231E-008  0.3843590E+03  0.7957747E-01  0.3432395E+00
         13   -1    0    0    0    0  0.00000000000E+00  0.00000000000E+00  0.14999999963E+04  0.15000000000E+04  0.10566000000E+00 0.  1.
        994   -1    0    0    0    0 -0.00000000000E+00 -0.00000000000E+00  0.11368683772E-12  0.17120000000E+03  0.17120000000E+03 0.  0.
         13    1    1    2    0    0 -0.38987550227E+01  0.10507411448E+02  0.31651797189E+02  0.33577573101E+02  0.10566000000E+00 0.  1.
        994    1    1    2    0    0 -0.93510072702E+01 -0.12669000102E+02  0.27662383702E+01  0.17194486609E+03  0.17120000000E+03 0.  0.
        998    1    1    2    0    0  0.13249762293E+02  0.21615886543E+01  0.14655819607E+04  0.14656775608E+04  0.10000000000E+02 0.  1.
</event>
<event>
 5    1  0.1106231E-008  0.3830897E+03  0.7957747E-01  0.3437815E+00
         13   -1    0    0    0    0  0.00000000000E+00  0.00000000000E+00  0.14999999963E+04  0.15000000000E+04  0.10566000000E+00 0.  1.
        994   -1    0    0    0    0 -0.00000000000E+00 -0.00000000000E+00  0.11368683772E-12  0.17120000000E+03  0.17120000000E+03 0.  0.
         13    1    1    2    0    0 -0.98781474573E+01  0.93764926026E+01  0.34558274819E+02  0.37145416046E+02  0.10566000000E+00 0.  1.
        994    1    1    2    0    0  0.93247828728E+01 -0.93804863690E+01  0.31606999119E+01  0.17173926495E+03  0.17120000000E+03 0.  0.
        998    1    1    2    0    0  0.55336458452E+00  0.39937664576E-02  0.14622810215E+04  0.14623153190E+04  0.10000000000E+02 0.  0.
</event>
<event>
 5    1  0.1106231E-008  0.3853251E+03  0.7957747E-01  0.3428295E+00
         13   -1    0    0    0    0  0.00000000000E+00  0.00000000000E+00  0.14999999963E+04  0.15000000000E+04  0.10566000000E+00 0.  1.
        994   -1    0    0    0    0 -0.00000000000E+00 -0.00000000000E+00  0.11368683772E-12  0.17120000000E+03  0.17120000000E+03 0.  0.
         13    1    1    2    0    0  0.11669699168E+02  0.19999354058E+01  0.47255165545E+02  0.48715946620E+02  0.10566000000E+00 0.  1.
        994    1    1    2    0    0 -0.98629627238E+01 -0.18038523907E+01  0.17991710379E+01  0.17150279570E+03  0.17120000000E+03 0.  0.
        998    1    1    2    0    0 -0.18067364442E+01 -0.19608301517E+00  0.14509456597E+04  0.14509812577E+04  0.10000000000E+02 0.  1.
</event>
<event>
 5    1  0.1106231E-008  0.3792374E+03  0.7957747E-01  0.3454486E+00
         13   -1    0    0    0    0  0.00000000000E+00  0.00000000000E+00  0.14999999963E+04  0.15000000000E+04  0.10566000000E+00 0. -1.
        994   -1    0    0    0    0 -0.00000000000E+00 -0.00000000000E+00  0.11368683772E-12  0.17120000000E+03  0.17120000000E+03 0.  0.
         13    1    1    2    0    0 -0.33094903863E+02  0.79835572842E+01  0.11889630445E+03  0.12367437982E+03  0.10566000000E+00 0. -1.
        994    1    1    2    0    0  0.26364369844E+02 -0.29844707808E+02  0.98515360969E+01  0.17604624206E+03  0.17120000000E+03 0.  0.
        998    1    1    2    0    0  0.67305340191E+01  0.21861150524E+02  0.13712521557E+04  0.13714793781E+04  0.10000000000E+02 0. -1.
</event>
<event>
 5    1  0.1106231E-008  0.3780791E+03  0.7957747E-01  0.3459565E+00
         13   -1    0    0    0    0  0.00000000000E+00  0.00000000000E+00  0.14999999963E+04  0.15000000000E+04  0.10566000000E+00 0.  1.
        994   -1    0    0    0    0 -0.00000000000E+00 -0.00000000000E+00  0.11368683772E-12  0.17120000000E+03  0.17120000000E+03 0.  0.
         13    1    1    2    0    0 -0.68870895253E+02  0.97611279818E+01  0.40537074248E+03  0.41129542893E+03  0.10566000000E+00 0.  1.
        994    1    1    2    0    0  0.55448873924E+02 -0.21477805057E+00  0.15520479018E+02  0.18062377755E+03  0.17120000000E+03 0.  0.
        998    1    1    2    0    0  0.13422021329E+02 -0.95463499312E+01  0.10791087748E+04  0.10792807935E+04  0.10000000000E+02 0.  1.
</event>
<event>
 5    1  0.1106231E-008  0.3722936E+03  0.7957747E-01  0.3485416E+00
         13   -1    0    0    0    0  0.00000000000E+00  0.00000000000E+00  0.14999999963E+04  0.15000000000E+04  0.10566000000E+00 0. -1.
        994   -1    0    0    0    0 -0.00000000000E+00 -0.00000000000E+00  0.11368683772E-12  0.17120000000E+03  0.17120000000E+03 0.  0.
         13    1    1    2    0    0 -0.87707436052E+00 -0.56168614748E+02  0.12260488688E+03  0.13486160311E+03  0.10566000000E+00 0. -1.
        994    1    1    2    0    0 -0.35656813754E+01  0.42116379651E+02  0.18479466118E+02  0.17730604667E+03  0.17120000000E+03 0.  0.
        998    1    1    2    0    0  0.44427557359E+01  0.14052235097E+02  0.13589156433E+04  0.13590323502E+04  0.10000000000E+02 0. -1.
</event>
<event>
 5    1  0.1106231E-008  0.3724474E+03  0.7957747E-01  0.3484718E+00
         13   -1    0    0    0    0  0.00000000000E+00  0.00000000000E+00  0.14999999963E+04  0.15000000000E+04  0.10566000000E+00 0.  1.
        994   -1    0    0    0    0 -0.00000000000E+00 -0.00000000000E+00  0.11368683772E-12  0.17120000000E+03  0.17120000000E+03 0.  0.
         13    1    1    2    0    0  0.69808275461E+02  0.61998935211E+02  0.33039674044E+03  0.34333523056E+03  0.10566000000E+00 0.  1.
        994    1    1    2    0    0 -0.28392784858E+02 -0.67152739704E+02  0.31227395213E+02  0.18868023451E+03  0.17120000000E+03 0.  0.
        998    1    1    2    0    0 -0.41415490603E+02  0.51538044932E+01  0.11383758606E+04  0.11391845349E+04  0.10000000000E+02 0.  1.
</event>
<event>
 5    1  0.1106231E-008  0.3833264E+03  0.7957747E-01  0.3436801E+00
         13   -1    0    0    0    0  0.00000000000E+00  0.00000000000E+00  0.14999999963E+04  0.15000000000E+04  0.10566000000E+00 0. -1.
        994   -1    0    0    0    0 -0.00000000000E+00 -0.00000000000E+00  0.11368683772E-12  0.17120000000E+03  0.17120000000E+03 0.  0.
         13    1    1    2    0    0 -0.27018371299E+02 -0.11491992892E+01  0.13437218402E+03  0.13706643662E+03  0.10566000000E+00 0. -1.
        994    1    1    2    0    0  0.29005912926E+02  0.23312928404E+01  0.52683225819E+01  0.17373535372E+03  0.17120000000E+03 0.  0.
        998    1    1    2    0    0 -0.19875416271E+01 -0.11820935512E+01  0.13603594897E+04  0.13603982097E+04  0.10000000000E+02 0. -1.
</event>
<event>
 5    1  0.1106231E-008  0.3804073E+03  0.7957747E-01  0.3449387E+00
         13   -1    0    0    0    0  0.00000000000E+00  0.00000000000E+00  0.14999999963E+04  0.15000000000E+04  0.10566000000E+00 0. -1.
        994   -1    0    0    0    0 -0.00000000000E+00 -0.00000000000E+00  0.11368683772E-12  0.17120000000E+03  0.17120000000E+03 0.  0.
         13    1    1    2    0    0  0.18595560341E+02 -0.78309599032E+01  0.56071508869E+02  0.59591476473E+02  0.10566000000E+00 0. -1.
        994    1    1    2    0    0  0.29080584534E+02  0.37200290821E+02  0.11406992144E+02  0.17795814537E+03  0.17120000000E+03 0.  0.
        998    1    1    2    0    0 -0.47676144875E+02 -0.29369330918E+02  0.14325214953E+04  0.14336503782E+04  0.10000000000E+02 0. -1.
</event>
<event>
 5    1  0.1106231E-008  0.3846558E+03  0.7957747E-01  0.3431133E+00
         13   -1    0    0    0    0  0.00000000000E+00  0.00000000000E+00  0.14999999963E+04  0.15000000000E+04  0.10566000000E+00 0.  1.
        994   -1    0    0    0    0 -0.00000000000E+00 -0.00000000000E+00  0.11368683772E-12  0.17120000000E+03  0.17120000000E+03 0.  0.
         13    1    1    2    0    0 -0.12155487758E+02 -0.16484346344E+02  0.11553552772E+03  0.11733694595E+03  0.10566000000E+00 0.  1.
        994    1    1    2    0    0  0.59383768220E+01  0.12594059173E+02  0.24396660345E+01  0.17178261442E+03  0.17120000000E+03 0.  0.
        998    1    1    2    0    0  0.62171109365E+01  0.38902871709E+01  0.13820248025E+04  0.13820804396E+04  0.10000000000E+02 0.  1.
</event>
<event>
 5    1  0.1106231E-008  0.3848469E+03  0.7957747E-01  0.3430322E+00
         13   -1    0    0    0    0  0.00000000000E+00  0.00000000000E+00  0.14999999963E+04  0.15000000000E+04  0.10566000000E+00 0.  1.
        994   -1    0    0    0    0 -0.00000000000E+00 -0.00000000000E+00  0.11368683772E-12  0.17120000000E+03  0.17120000000E+03 0.  0.
         13    1    1    2    0    0 -0.23528848217E+01  0.99202513788E+01  0.32840051491E+02  0.34386445009E+02  0.10566000000E+00 0.  1.
        994    1    1    2    0    0 -0.76944793552E+01  0.10137943470E+02  0.22393177850E+01  0.17168703345E+03  0.17120000000E+03 0.  0.
        998    1    1    2    0    0  0.10047364177E+02 -0.20058194849E+02  0.14649206270E+04  0.14651265215E+04  0.10000000000E+02 0.  1.
</event>
<event>
 5    1  0.1106231E-008  0.3848677E+03  0.7957747E-01  0.3430233E+00
         13   -1    0    0    0    0  0.00000000000E+00  0.00000000000E+00  0.14999999963E+04  0.15000000000E+04  0.10566000000E+00 0. -1.
        994   -1    0    0    0    0 -0.00000000000E+00 -0.00000000000E+00  0.11368683772E-12  0.17120000000E+03  0.17120000000E+03 0.  0.
         13    1    1    2    0    0 -0.11301234290E+01  0.13100772150E+02  0.49421773294E+02  0.51141277355E+02  0.10566000000E+00 0. -1.
        994    1    1    2    0    0  0.26054965462E+01 -0.13914943726E+02  0.23554784322E+01  0.17180047308E+03  0.17120000000E+03 0.  0.
        998    1    1    2    0    0 -0.14753731171E+01  0.81417157594E+00  0.14482227446E+04  0.14482582496E+04  0.10000000000E+02 0. -1.
</event>
<event>
 5    1  0.1106231E-008  0.3907114E+03  0.7957747E-01  0.3405805E+00
         13   -1    0    0    0    0  0.00000000000E+00  0.00000000000E+00  0.14999999963E+04  0.15000000000E+04  0.10566000000E+00 0. -1.
        994   -1    0    0    0    0 -0.00000000000E+00 -0.00000000000E+00  0.11368683772E-12  0.17120000000E+03  0.17120000000E+03 0.  0.
         13    1    1    2    0    0  0.41377642999E+02  0.20808140394E+02  0.38252219783E+02  0.60069389286E+02  0.10566000000E+00 0. -1.
        994    1    1    2    0    0 -0.53715660508E+02 -0.30131497746E+01  0.33341812011E+02  0.18252552611E+03  0.17120000000E+03 0.  0.
        998    1    1    2    0    0  0.12338017509E+02 -0.17794990619E+02  0.14284059645E+04  0.14286050846E+04  0.10000000000E+02 0. -1.
</event>
<event>
 5    1  0.1106231E-008  0.3863795E+03  0.7957747E-01  0.3423842E+00
         13   -1    0    0    0    0  0.00000000000E+00  0.00000000000E+00  0.14999999963E+04  0.15000000000E+04  0.10566000000E+00 0. -1.
        994   -1    0    0    0    0 -0.00000000000E+00 -0.00000000000E+00  0.11368683772E-12  0.17120000000E+03  0.17120000000E+03 0.  0.
         13    1    1    2    0    0 -0.10226504888E+02  0.42961990677E+01  0.66375513671E+02  0.67296052691E+02  0.10566000000E+00 0. -1.
        994    1    1    2    0    0  0.85771350371E+01  0.19799650992E+01  0.12005005011E+01  0.17143036111E+03  0.17120000000E+03 0.  0.
        998    1    1    2    0    0  0.16493698509E+01 -0.62761641670E+01  0.14324239821E+04  0.14324735862E+04  0.10000000000E+02 0. -1.
</event>
<event>
 5    1  0.1106231E-008  0.3766865E+03  0.7957747E-01  0.3465714E+00
         13   -1    0    0    0    0  0.00000000000E+00  0.00000000000E+00  0.14999999963E+04  0.15000000000E+04  0.10566000000E+00 0. -1.
        994   -1    0    0    0    0 -0.00000000000E+00 -0.00000000000E+00  0.11368683772E-12  0.17120000000E+03  0.17120000000E+03 0.  0.
         13    1    1    2    0    0 -0.91212766059E+02  0.30858667705E+02  0.55017352508E+03  0.55853643115E+03  0.10566000000E+00 0. -1.
        994    1    1    2    0    0  0.84223139518E+02 -0.26093326427E+02  0.32561544797E+02  0.19530512823E+03  0.17120000000E+03 0.  0.
        998    1    1    2    0    0  0.69896265416E+01 -0.47653412785E+01  0.91726492640E+03  0.91735844062E+03  0.10000000000E+02 0. -1.
</event>
<event>
 5    1  0.1234725E-008  0.3861215E+03  0.7957747E-01  0.3424930E+00
         13   -1    0    0    0    0  0.00000000000E+00  0.00000000000E+00  0.14999999963E+04  0.15000000000E+04  0.10566000000E+00 0. -1.
        994   -1    0    0    0    0 -0.00000000000E+00 -0.00000000000E+00  0.11368683772E-12  0.17120000000E+03  0.17120000000E+03 0.  0.
         13    1    1    2    0    0  0.87493088894E+01 -0.86053895736E+01  0.67510366825E+02  0.68616790428E+02  0.10566000000E+00 0. -1.
        994    1    1    2    0    0 -0.15428861879E+02  0.53679278012E+01  0.19493029524E+01  0.17198867466E+03  0.17120000000E+03 0.  0.
        998    1    1    2    0    0  0.66795529892E+01  0.32374617724E+01  0.14305403265E+04  0.14305945349E+04  0.10000000000E+02 0. -1.
</event>
<event>
 5    1  0.1106231E-008  0.3703460E+03  0.7957747E-01  0.3494302E+00
         13   -1    0    0    0    0  0.00000000000E+00  0.00000000000E+00  0.14999999963E+04  0.15000000000E+04  0.10566000000E+00 0.  1.
        994   -1    0    0    0    0 -0.00000000000E+00 -0.00000000000E+00  0.11368683772E-12  0.17120000000E+03  0.17120000000E+03 0.  0.
         13    1    1    2    0    0  0.12562745565E+01  0.12169261915E+02  0.40258059377E+01  0.12879729765E+02  0.10566000000E+00 0.  1.
        994    1    1    2    0    0  0.31740077791E+01 -0.11113415783E+02  0.95497653373E+01  0.17185523080E+03  0.17120000000E+03 0.  0.
        998    1    1    2    0    0 -0.44302823356E+01 -0.10558461320E+01  0.14864244250E+04  0.14864650394E+04  0.10000000000E+02 0.  1.
</event>
<event>
 5    1  0.1106231E-008  0.3819425E+03  0.7957747E-01  0.3442744E+00
         13   -1    0    0    0    0  0.00000000000E+00  0.00000000000E+00  0.14999999963E+04  0.15000000000E+04  0.10566000000E+00 0. -1.
        994   -1    0    0    0    0 -0.00000000000E+00 -0.00000000000E+00  0.11368683772E-12  0.17120000000E+03  0.17120000000E+03 0.  0.
         13    1    1    2    0    0  0.87190433306E+02 -0.59206109337E+02  0.28829618639E+03  0.30695640944E+03  0.10566000000E+00 0. -1.
        994    1    1    2    0    0 -0.68546529376E+02  0.42084096552E+02  0.41410183390E+02  0.19363352282E+03  0.17120000000E+03 0.  0.
        998    1    1    2    0    0 -0.18643903930E+02  0.17122012786E+02  0.11702936265E+04  0.11706100677E+04  0.10000000000E+02 0. -1.
</event>
<event>
 5    1  0.1106231E-008  0.3856426E+03  0.7957747E-01  0.3426952E+00
         13   -1    0    0    0    0  0.00000000000E+00  0.00000000000E+00  0.14999999963E+04  0.15000000000E+04  0.10566000000E+00 0.  1.
        994   -1    0    0    0    0 -0.00000000000E+00 -0.00000000000E+00  0.11368683772E-12  0.17120000000E+03  0.17120000000E+03 0.  0.
         13    1    1    2    0    0  0.11171544202E+02 -0.12086091725E+01  0.47993085303E+02  0.49291089833E+02  0.10566000000E+00 0.  1.
        994    1    1    2    0    0 -0.92076475375E+01 -0.74762769707E+00  0.15915678353E+01  0.17145644581E+03  0.17120000000E+03 0.  0.
        998    1    1    2    0    0 -0.19638966647E+01  0.19562368696E+01  0.14504153431E+04  0.14504524644E+04  0.10000000000E+02 0.  1.
</event>
<event>
 5    1  0.1106231E-008  0.3741317E+03  0.7957747E-01  0.3477115E+00
         13   -1    0    0    0    0  0.00000000000E+00  0.00000000000E+00  0.14999999963E+04  0.15000000000E+04  0.10566000000E+00 0. -1.
        994   -1    0    0    0    0 -0.00000000000E+00 -0.00000000000E+00  0.11368683772E-12  0.17120000000E+03  0.17120000000E+03 0.  0.
         13    1    1    2    0    0 -0.23110259061E+02  0.11153524703E+02  0.43073203662E+02  0.50137782409E+02  0.10566000000E+00 0. -1.
        994    1    1    2    0    0  0.20542149296E+02 -0.25548671514E+01  0.85875266635E+01  0.17266062915E+03  0.17120000000E+03 0.  0.
        998    1    1    2    0    0  0.25681097646E+01 -0.85986575518E+01  0.14483392660E+04  0.14484015884E+04  0.10000000000E+02 0. -1.
</event>
<event>
 5    1  0.1106231E-008  0.3693790E+03  0.7957747E-01  0.3498750E+00
         13   -1    0    0    0    0  0.00000000000E+00  0.00000000000E+00  0.14999999963E+04  0.15000000000E+04  0.10566000000E+00 0.  1.
        994   -1    0    0    0    0 -0.00000000000E+00 -0.00000000000E+00  0.11368683772E-12  0.17120000000E+03  0.17120000000E+03 0.  0.
         13    1    1    2    0    0  0.13555480105E+02  0.84665116103E+01  0.95308428450E+01  0.18608626739E+02  0.10566000000E+00 0.  1.
        994    1    1    2    0    0  0.66873977631E+01  0.12189243063E+02  0.10264081177E+02  0.17207001568E+03  0.17120000000E+03 0.  0.
        998    1    1    2    0    0 -0.20242877869E+02 -0.20655754673E+02  0.14802050723E+04  0.14805213576E+04  0.10000000000E+02 0.  1.
</event>
<event>
 5    1  0.1106231E-008  0.4253502E+03  0.7957747E-01  0.3274714E+00
         13   -1    0    0    0    0  0.00000000000E+00  0.00000000000E+00  0.14999999963E+04  0.15000000000E+04  0.10566000000E+00 0.  1.
        994   -1    0    0    0    0 -0.00000000000E+00 -0.00000000000E+00  0.11368683772E-12  0.17120000000E+03  0.17120000000E+03 0.  0.
         13    1    1    2    0    0  0.99204649354E+01 -0.25226019644E+02 -0.99835648575E+01  0.28886855538E+02  0.10566000000E+00 0.  1.
        994    1    1    2    0    0  0.75367908173E+01  0.38773071348E+02  0.50752968525E+02  0.18288099434E+03  0.17120000000E+03 0.  0.
        998    1    1    2    0    0 -0.17457255753E+02 -0.13547051705E+02  0.14592305926E+04  0.14594321501E+04  0.10000000000E+02 0.  1.
</event>
<event>
 5    1  0.1284013E-008  0.3858805E+03  0.7957747E-01  0.3425947E+00
         13   -1    0    0    0    0  0.00000000000E+00  0.00000000000E+00  0.14999999963E+04  0.15000000000E+04  0.10566000000E+00 0.  1.
        994   -1    0    0    0    0 -0.00000000000E+00 -0.00000000000E+00  0.11368683772E-12  0.17120000000E+03  0.17120000000E+03 0.  0.
         13    1    1    2    0    0 -0.70771224049E+01 -0.10510385035E+02  0.65005785620E+02  0.66229277387E+02  0.10566000000E+00 0.  1.
        994    1    1    2    0    0  0.98420084992E+01  0.10779341405E+02  0.18926186116E+01  0.17183154931E+03  0.17120000000E+03 0.  0.
        998    1    1    2    0    0 -0.27648860943E+01 -0.26895637007E+00  0.14331015920E+04  0.14331391733E+04  0.10000000000E+02 0.  1.
</event>
<event>
 5    1  0.1106231E-008  0.3799016E+03  0.7957747E-01  0.3451587E+00
         13   -1    0    0    0    0  0.00000000000E+00  0.00000000000E+00  0.14999999963E+04  0.15000000000E+04  0.10566000000E+00 0. -1.
        994   -1    0    0    0    0 -0.00000000000E+00 -0.00000000000E+00  0.11368683772E-12  0.17120000000E+03  0.17120000000E+03 0.  0.
         13    1    1    2    0    0  0.55213219101E+01 -0.23113246419E+02  0.65136571858E+02  0.69336075120E+02  0.10566000000E+00 0. -1.
        994    1    1    2    0    0 -0.11257595682E+02  0.16046777632E+02  0.54687322706E+01  0.17240527708E+03  0.17120000000E+03 0.  0.
        998    1    1    2    0    0  0.57362737715E+01  0.70664687872E+01  0.14293946922E+04  0.14294586478E+04  0.10000000000E+02 0. -1.
</event>
<event>
 5    1  0.1106231E-008  0.3825097E+03  0.7957747E-01  0.3440303E+00
         13   -1    0    0    0    0  0.00000000000E+00  0.00000000000E+00  0.14999999963E+04  0.15000000000E+04  0.10566000000E+00 0.  1.
        994   -1    0    0    0    0 -0.00000000000E+00 -0.00000000000E+00  0.11368683772E-12  0.17120000000E+03  0.17120000000E+03 0.  0.
         13    1    1    2    0    0  0.16439022163E+02  0.20259458815E+02  0.15331099272E+03  0.15551514002E+03  0.10566000000E+00 0.  1.
        994    1    1    2    0    0 -0.27484598735E+01  0.24302157067E+02  0.48572206039E+01  0.17300630469E+03  0.17120000000E+03 0.  0.
        998    1    1    2    0    0 -0.13690562290E+02 -0.44561615883E+02  0.13418317830E+04  0.13426785553E+04  0.10000000000E+02 0.  1.
</event>
<event>
 5    1  0.1106231E-008  0.3857392E+03  0.7957747E-01  0.3426543E+00
         13   -1    0    0    0    0  0.00000000000E+00  0.00000000000E+00  0.14999999963E+04  0.15000000000E+04  0.10566000000E+00 0.  1.
        994   -1    0    0    0    0 -0.00000000000E+00 -0.00000000000E+00  0.11368683772E-12  0.17120000000E+03  0.17120000000E+03 0.  0.
         13    1    1    2    0    0  0.22051221055E+01  0.13599305277E+02  0.68280740258E+02  0.69656832556E+02  0.10566000000E+00 0.  1.
        994    1    1    2    0    0 -0.14112744191E+02 -0.21617594280E+02  0.34532543283E+01  0.17317001731E+03  0.17120000000E+03 0.  0.
        998    1    1    2    0    0  0.11907622086E+02  0.80182890034E+01  0.14282660017E+04  0.14283731501E+04  0.10000000000E+02 0.  1.
</event>
<event>
 5    1  0.1106231E-008  0.3832218E+03  0.7957747E-01  0.3437249E+00
         13   -1    0    0    0    0  0.00000000000E+00  0.00000000000E+00  0.14999999963E+04  0.15000000000E+04  0.10566000000E+00 0.  1.
        994   -1    0    0    0    0 -0.00000000000E+00 -0.00000000000E+00  0.11368683772E-12  0.17120000000E+03  0.17120000000E+03 0.  0.
         13    1    1    2    0    0  0.15855149277E+02 -0.26879146219E+02  0.18623702518E+03  0.18883356421E+03  0.10566000000E+00 0.  1.
        994    1    1    2    0    0 -0.17109077355E+02  0.15858329129E+02  0.43177147897E+01  0.17283601995E+03  0.17120000000E+03 0.  0.
        998    1    1    2    0    0  0.12539280784E+01  0.11020817090E+02  0.13094452563E+04  0.13095304158E+04  0.10000000000E+02 0.  1.
</event>
<event>
 5    1  0.1106231E-008  0.3819611E+03  0.7957747E-01  0.3442664E+00
         13   -1    0    0    0    0  0.00000000000E+00  0.00000000000E+00  0.14999999963E+04  0.15000000000E+04  0.10566000000E+00 0. -1.
        994   -1    0    0    0    0 -0.00000000000E+00 -0.00000000000E+00  0.11368683772E-12  0.17120000000E+03  0.17120000000E+03 0.  0.
         13    1    1    2    0    0 -0.38068433467E+02 -0.65951574613E+01  0.19286228371E+03  0.19669411117E+03  0.10566000000E+00 0. -1.
        994    1    1    2    0    0  0.47944075462E+02  0.43308950148E+01  0.10881952467E+02  0.17817196164E+03  0.17120000000E+03 0.  0.
        998    1    1    2    0    0 -0.98756419951E+01  0.22642624466E+01  0.12962557601E+04  0.12963339272E+04  0.10000000000E+02 0. -1.
</event>
<event>
 5    1  0.1106231E-008  0.3840379E+03  0.7957747E-01  0.3433763E+00
         13   -1    0    0    0    0  0.00000000000E+00  0.00000000000E+00  0.14999999963E+04  0.15000000000E+04  0.10566000000E+00 0.  1.
        994   -1    0    0    0    0 -0.00000000000E+00 -0.00000000000E+00  0.11368683772E-12  0.17120000000E+03  0.17120000000E+03 0.  0.
         13    1    1    2    0    0 -0.19032449549E+02 -0.25831652554E+01  0.84557230714E+02  0.86711264024E+02  0.10566000000E+00 0.  1.
        994    1    1    2    0    0  0.15790007982E+02  0.93016887142E+01  0.32172570201E+01  0.17220811975E+03  0.17120000000E+03 0.  0.
        998    1    1    2    0    0  0.32424415674E+01 -0.67185234588E+01  0.14122255085E+04  0.14122806162E+04  0.10000000000E+02 0.  1.
</event>
<event>
 5    1  0.1106231E-008  0.3086256E+03  0.7957747E-01  0.3836301E+00
         13   -1    0    0    0    0  0.00000000000E+00  0.00000000000E+00  0.14999999963E+04  0.15000000000E+04  0.10566000000E+00 0. -1.
        994   -1    0    0    0    0 -0.00000000000E+00 -0.00000000000E+00  0.11368683772E-12  0.17120000000E+03  0.17120000000E+03 0.  0.
         13    1    1    2    0    0  0.97362627990E+02 -0.19782987004E+03  0.63136011444E+03  0.66875387407E+03  0.10566000000E+00 0. -1.
        994    1    1    2    0    0 -0.83319952473E+02  0.20003824294E+03  0.21869903576E+03  0.35227293589E+03  0.17120000000E+03 0.  0.
        998    1    1    2    0    0 -0.14042675517E+02 -0.22083729086E+01  0.64994084608E+03  0.65017319004E+03  0.10000000000E+02 0.  1.
</event>
<event>
 5    1  0.1106231E-008  0.3764944E+03  0.7957747E-01  0.3466566E+00
         13   -1    0    0    0    0  0.00000000000E+00  0.00000000000E+00  0.14999999963E+04  0.15000000000E+04  0.10566000000E+00 0.  1.
        994   -1    0    0    0    0 -0.00000000000E+00 -0.00000000000E+00  0.11368683772E-12  0.17120000000E+03  0.17120000000E+03 0.  0.
         13    1    1    2    0    0 -0.22267233810E+02 -0.24360038020E+02  0.31313261545E+02  0.45494754275E+02  0.10566000000E+00 0.  1.
        994    1    1    2    0    0  0.91002037184E+01  0.36346324601E+02  0.19453935584E+02  0.17632857009E+03  0.17120000000E+03 0.  0.
        998    1    1    2    0    0  0.13167030092E+02 -0.11986286581E+02  0.14492327992E+04  0.14493766756E+04  0.10000000000E+02 0.  1.
</event>
<event>
 5    1  0.1106231E-008  0.3775715E+03  0.7957747E-01  0.3461801E+00
         13   -1    0    0    0    0  0.00000000000E+00  0.00000000000E+00  0.14999999963E+04  0.15000000000E+04  0.10566000000E+00 0. -1.
        994   -1    0    0    0    0 -0.00000000000E+00 -0.00000000000E+00  0.11368683772E-12  0.17120000000E+03  0.17120000000E+03 0.  0.
         13    1    1    2    0    0 -0.62840159376E+01  0.22525189488E+02  0.48077035660E+02  0.53462936130E+02  0.10566000000E+00 0. -1.
        994    1    1    2    0    0  0.67353475725E+01 -0.19282316255E+02  0.67711873736E+01  0.17254698376E+03  0.17120000000E+03 0.  0.
        998    1    1    2    0    0 -0.45133163487E+00 -0.32428732328E+01  0.14451517732E+04  0.14451900801E+04  0.10000000000E+02 0. -1.
</event>
<event>
 5    1  0.1106231E-008  0.3773031E+03  0.7957747E-01  0.3462986E+00
         13   -1    0    0    0    0  0.00000000000E+00  0.00000000000E+00  0.14999999963E+04  0.15000000000E+04  0.10566000000E+00 0. -1.
        994   -1    0    0    0    0 -0.00000000000E+00 -0.00000000000E+00  0.11368683772E-12  0.17120000000E+03  0.17120000000E+03 0.  0.
         13    1    1    2    0    0  0.16340103295E+02  0.13380426962E+02  0.39311019409E+02  0.44625129830E+02  0.10566000000E+00 0. -1.
        994    1    1    2    0    0 -0.40238608817E+01 -0.47928489839E+01  0.56328508340E+01  0.17140691896E+03  0.17120000000E+03 0.  0.
        998    1    1    2    0    0 -0.12316242413E+02 -0.85875779782E+01  0.14550561260E+04  0.14551679512E+04  0.10000000000E+02 0. -1.
</event>
<event>
 5    1  0.1106231E-008  0.3702457E+03  0.7957747E-01  0.3494762E+00
         13   -1    0    0    0    0  0.00000000000E+00  0.00000000000E+00  0.14999999963E+04  0.15000000000E+04  0.10566000000E+00 0.  1.
        994   -1    0    0    0    0 -0.00000000000E+00 -0.00000000000E+00  0.11368683772E-12  0.17120000000E+03  0.17120000000E+03 0.  0.
         13    1    1    2    0    0  0.12403429855E+03 -0.30908759766E+02  0.59086943561E+03  0.60453830297E+03  0.10566000000E+00 0.  1.
        994    1    1    2    0    0 -0.11711750327E+03  0.11852372547E+02  0.58655537395E+02  0.21588631354E+03  0.17120000000E+03 0.  0.
        998    1    1    2    0    0 -0.69167952844E+01  0.19056387219E+02  0.85047502327E+03  0.85077538349E+03  0.10000000000E+02 0.  1.
</event>
<event>
 5    1  0.1106231E-008  0.3778837E+03  0.7957747E-01  0.3460425E+00
         13   -1    0    0    0    0  0.00000000000E+00  0.00000000000E+00  0.14999999963E+04  0.15000000000E+04  0.10566000000E+00 0. -1.
        994   -1    0    0    0    0 -0.00000000000E+00 -0.00000000000E+00  0.11368683772E-12  0.17120000000E+03  0.17120000000E+03 0.  0.
         13    1    1    2    0    0 -0.24488262445E+02 -0.26439989045E+02  0.12759251954E+03  0.13258435135E+03  0.10566000000E+00 0. -1.
        994    1    1    2    0    0  0.66095868067E+01  0.13634111652E+02  0.59785066273E+01  0.17197313215E+03  0.17120000000E+03 0.  0.
        998    1    1    2    0    0  0.17878675639E+02  0.12805877393E+02  0.13664289701E+04  0.13666425165E+04  0.10000000000E+02 0. -1.
</event>
<event>
 5    1  0.1457788E-008  0.3864494E+03  0.7957747E-01  0.3423548E+00
         13   -1    0    0    0    0  0.00000000000E+00  0.00000000000E+00  0.14999999963E+04  0.15000000000E+04  0.10566000000E+00 0.  1.
        994   -1    0    0    0    0 -0.00000000000E+00 -0.00000000000E+00  0.11368683772E-12  0.17120000000E+03  0.17120000000E+03 0.  0.
         13    1    1    2    0    0 -0.83415025695E+01 -0.61626693535E+01  0.59631272074E+02  0.60526514288E+02  0.10566000000E+00 0.  1.
        994    1    1    2    0    0  0.67249747449E+01  0.45199390822E+01  0.11271728525E+01  0.17139534898E+03  0.17120000000E+03 0.  0.
        998    1    1    2    0    0  0.16165278246E+01  0.16427302713E+01  0.14392415514E+04  0.14392781367E+04  0.10000000000E+02 0.  1.
</event>
<event>
 5    1  0.1106231E-008  0.3834516E+03  0.7957747E-01  0.3436266E+00
         13   -1    0    0    0    0  0.00000000000E+00  0.00000000000E+00  0.14999999963E+04  0.15000000000E+04  0.10566000000E+00 0. -1.
        994   -1    0    0    0    0 -0.00000000000E+00 -0.00000000000E+00  0.11368683772E-12  0.17120000000E+03  0.17120000000E+03 0.  0.
         13    1    1    2    0    0 -0.27843887935E+01 -0.13290477403E+02  0.37604470980E+02  0.39981208239E+02  0.10566000000E+00 0. -1.
        994    1    1    2    0    0  0.10184391290E+01  0.97272865621E+01  0.27170743897E+01  0.17150067001E+03  0.17120000000E+03 0.  0.
        998    1    1    2    0    0  0.17659496644E+01  0.35631908407E+01  0.14596784509E+04  0.14597181217E+04  0.10000000000E+02 0. -1.
</event>
<event>
 5    1  0.1106231E-008  0.3747148E+03  0.7957747E-01  0.3474499E+00
         13   -1    0    0    0    0  0.00000000000E+00  0.00000000000E+00  0.14999999963E+04  0.15000000000E+04  0.10566000000E+00 0. -1.
        994   -1    0    0    0    0 -0.00000000000E+00 -0.00000000000E+00  0.11368683772E-12  0.17120000000E+03  0.17120000000E+03 0.  0.
         13    1    1    2    0    0 -0.14708377683E+02  0.20688965427E+02  0.43975632999E+02  0.50776344160E+02  0.10566000000E+00 0. -1.
        994    1    1    2    0    0  0.15615993430E+02 -0.14572129266E+02  0.83790363968E+01  0.17273058343E+03  0.17120000000E+03 0.  0.
        998    1    1    2    0    0 -0.90761574700E+00 -0.61168361612E+01  0.14476453269E+04  0.14476930724E+04  0.10000000000E+02 0. -1.
</event>
<event>
 5    1  0.1106231E-008  0.4174876E+03  0.7957747E-01  0.3302585E+00
         13   -1    0    0    0    0  0.00000000000E+00  0.00000000000E+00  0.14999999963E+04  0.15000000000E+04  0.10566000000E+00 0. -1.
        994   -1    0    0    0    0 -0.00000000000E+00 -0.00000000000E+00  0.11368683772E-12  0.17120000000E+03  0.17120000000E+03 0.  0.
         13    1    1    2    0    0 -0.95889793314E+02  0.57760723485E+01  0.10670416825E+03  0.14357578542E+03  0.10566000000E+00 0. -1.
        994    1    1    2    0    0  0.78461476296E+02  0.45461120242E+02  0.74317369178E+02  0.20749801945E+03  0.17120000000E+03 0.  0.
        998    1    1    2    0    0  0.17428317019E+02 -0.51237192591E+02  0.13189784588E+04  0.13201261951E+04  0.10000000000E+02 0. -1.
</event>
<event>
 5    1  0.1106231E-008  0.4333082E+03  0.7957747E-01  0.3247512E+00
         13   -1    0    0    0    0  0.00000000000E+00  0.00000000000E+00  0.14999999963E+04  0.15000000000E+04  0.10566000000E+00 0.  1.
        994   -1    0    0    0    0 -0.00000000000E+00 -0.00000000000E+00  0.11368683772E-12  0.17120000000E+03  0.17120000000E+03 0.  0.
         13    1    1    2    0    0 -0.11100379704E+03 -0.46286478069E+02  0.11390453660E+03  0.16564581381E+03  0.10566000000E+00 0.  1.
        994    1    1    2    0    0  0.10012402036E+03  0.10545836800E+03  0.15491330770E+03  0.27286234577E+03  0.17120000000E+03 0.  0.
        998    1    1    2    0    0  0.10879776681E+02 -0.59171889935E+02  0.12311821520E+04  0.12326918404E+04  0.10000000000E+02 0.  1.
</event>
<event>
 5    1  0.1106231E-008  0.3750475E+03  0.7957747E-01  0.3473010E+00
         13   -1    0    0    0    0  0.00000000000E+00  0.00000000000E+00  0.14999999963E+04  0.15000000000E+04  0.10566000000E+00 0. -1.
        994   -1    0    0    0    0 -0.00000000000E+00 -0.00000000000E+00  0.11368683772E-12  0.17120000000E+03  0.17120000000E+03 0.  0.
         13    1    1    2    0    0  0.29830276251E+02  0.22900343678E+02  0.10571463501E+03  0.11220457362E+03  0.10566000000E+00 0. -1.
        994    1    1    2    0    0 -0.16866863720E+02 -0.92374177173E+01  0.79122204846E+01  0.17245829702E+03  0.17120000000E+03 0.  0.
        998    1    1    2    0    0 -0.12963412531E+02 -0.13662925961E+02  0.13863731408E+04  0.13865371294E+04  0.10000000000E+02 0. -1.
</event>
<event>
 5    1  0.1106231E-008  0.3840122E+03  0.7957747E-01  0.3433872E+00
         13   -1    0    0    0    0  0.00000000000E+00  0.00000000000E+00  0.14999999963E+04  0.15000000000E+04  0.10566000000E+00 0. -1.
        994   -1    0    0    0    0 -0.00000000000E+00 -0.00000000000E+00  0.11368683772E-12  0.17120000000E+03  0.17120000000E+03 0.  0.
         13    1    1    2    0    0  0.94399908901E+01  0.63122791318E+01  0.29939916261E+02  0.32021368577E+02  0.10566000000E+00 0. -1.
        994    1    1    2    0    0 -0.36728733009E+01 -0.64526484131E+01  0.23032537027E+01  0.17137640341E+03  0.17120000000E+03 0.  0.
        998    1    1    2    0    0 -0.57671175893E+01  0.14036928128E+00  0.14677568263E+04  0.14678022280E+04  0.10000000000E+02 0. -1.
</event>
<event>
 5    1  0.1106231E-008  0.3843410E+03  0.7957747E-01  0.3432472E+00
         13   -1    0    0    0    0  0.00000000000E+00  0.00000000000E+00  0.14999999963E+04  0.15000000000E+04  0.10566000000E+00 0.  1.
        994   -1    0    0    0    0 -0.00000000000E+00 -0.00000000000E+00  0.11368683772E-12  0.17120000000E+03  0.17120000000E+03 0.  0.
         13    1    1    2    0    0  0.27895762089E+01  0.19932652986E+02  0.10438261427E+03  0.10630537953E+03  0.10566000000E+00 0.  1.
        994    1    1    2    0    0  0.47356523270E+01 -0.11916916157E+02  0.24998172146E+01  0.17169778210E+03  0.17120000000E+03 0.  0.
        998    1    1    2    0    0 -0.75252285359E+01 -0.80157368292E+01  0.13931175648E+04  0.13931968384E+04  0.10000000000E+02 0.  1.
</event>
<event>
 5    1  0.1106231E-008  0.3824212E+03  0.7957747E-01  0.3440683E+00
         13   -1    0    0    0    0  0.00000000000E+00  0.00000000000E+00  0.14999999963E+04  0.15000000000E+04  0.10566000000E+00 0.  1.
        994   -1    0    0    0    0 -0.00000000000E+00 -0.00000000000E+00  0.11368683772E-12  0.17120000000E+03  0.17120000000E+03 0.  0.
         13    1    1    2    0    0  0.11781682098E+02  0.25222774245E+02  0.12769845612E+03  0.13069775527E+03  0.10566000000E+00 0.  1.
        994    1    1    2    0    0 -0.83356381226E+01 -0.19966465149E+02  0.44699967003E+01  0.17261970763E+03  0.17120000000E+03 0.  0.
        998    1    1    2    0    0 -0.34460439752E+01 -0.52563090969E+01  0.13678315435E+04  0.13678825371E+04  0.10000000000E+02 0.  1.
</event>
<event>
 5    1  0.1106231E-008  0.3828531E+03  0.7957747E-01  0.3438829E+00
         13   -1    0    0    0    0  0.00000000000E+00  0.00000000000E+00  0.14999999963E+04  0.15000000000E+04  0.10566000000E+00 0.  1.
        994   -1    0    0    0    0 -0.00000000000E+00 -0.00000000000E+00  0.11368683772E-12  0.17120000000E+03  0.17120000000E+03 0.  0.
         13    1    1    2    0    0  0.40714383961E+01 -0.23678706697E+02  0.10091502601E+03  0.10373577685E+03  0.10566000000E+00 0.  1.
        994    1    1    2    0    0 -0.94837794761E+01  0.21670550414E+02  0.45550537831E+01  0.17288650423E+03  0.17120000000E+03 0.  0.
        998    1    1    2    0    0  0.54123410799E+01  0.20081562829E+01  0.13945299165E+04  0.13945777189E+04  0.10000000000E+02 0.  1.
</event>
<event>
 5    1  0.1106231E-008  0.3740055E+03  0.7957747E-01  0.3477683E+00
         13   -1    0    0    0    0  0.00000000000E+00  0.00000000000E+00  0.14999999963E+04  0.15000000000E+04  0.10566000000E+00 0. -1.
        994   -1    0    0    0    0 -0.00000000000E+00 -0.00000000000E+00  0.11368683772E-12  0.17120000000E+03  0.17120000000E+03 0.  0.
         13    1    1    2    0    0 -0.41964964988E+02  0.60634817213E+02  0.27601619696E+03  0.28569667742E+03  0.10566000000E+00 0. -1.
        994    1    1    2    0    0  0.80023414601E+02 -0.53675672522E+02  0.39550212664E+02  0.20039581839E+03  0.17120000000E+03 0.  0.
        998    1    1    2    0    0 -0.38058449612E+02 -0.69591446907E+01  0.11844335867E+04  0.11851075042E+04  0.10000000000E+02 0. -1.
</event>
<event>
 5    1  0.1106231E-008  0.3747635E+03  0.7957747E-01  0.3474281E+00
         13   -1    0    0    0    0  0.00000000000E+00  0.00000000000E+00  0.14999999963E+04  0.15000000000E+04  0.10566000000E+00 0. -1.
        994   -1    0    0    0    0 -0.00000000000E+00 -0.00000000000E+00  0.11368683772E-12  0.17120000000E+03  0.17120000000E+03 0.  0.
         13    1    1    2    0    0  0.39241329065E+02 -0.51452096204E+02  0.26100449476E+03  0.26890622447E+03  0.10566000000E+00 0. -1.
        994    1    1    2    0    0 -0.34813312311E+02  0.49505183968E+02  0.19364325452E+02  0.18261201235E+03  0.17120000000E+03 0.  0.
        998    1    1    2    0    0 -0.44280167539E+01  0.19469122367E+01  0.12196311761E+04  0.12196817632E+04  0.10000000000E+02 0. -1.
</event>
<event>
 5    1  0.1106231E-008  0.3854416E+03  0.7957747E-01  0.3427802E+00
         13   -1    0    0    0    0  0.00000000000E+00  0.00000000000E+00  0.14999999963E+04  0.15000000000E+04  0.10566000000E+00 0. -1.
        994   -1    0    0    0    0 -0.00000000000E+00 -0.00000000000E+00  0.11368683772E-12  0.17120000000E+03  0.17120000000E+03 0.  0.
         13    1    1    2    0    0  0.29616936473E+01 -0.16840802995E+02  0.10202419010E+03  0.10344723682E+03  0.10566000000E+00 0. -1.
        994    1    1    2    0    0 -0.13202680774E+02  0.11346680742E+02  0.24069129223E+01  0.17209965477E+03  0.17120000000E+03 0.  0.
        998    1    1    2    0    0  0.10240987127E+02  0.54941222527E+01  0.13955688933E+04  0.13956531084E+04  0.10000000000E+02 0. -1.
</event>
<event>
 5    1  0.1106231E-008  0.3840718E+03  0.7957747E-01  0.3433618E+00
         13   -1    0    0    0    0  0.00000000000E+00  0.00000000000E+00  0.14999999963E+04  0.15000000000E+04  0.10566000000E+00 0. -1.
        994   -1    0    0    0    0 -0.00000000000E+00 -0.00000000000E+00  0.11368683772E-12  0.17120000000E+03  0.17120000000E+03 0.  0.
         13    1    1    2    0    0  0.11562879266E+02 -0.99663759337E+01  0.59654899907E+02  0.61577163569E+02  0.10566000000E+00 0. -1.
        994    1    1    2    0    0 -0.69395391659E+01 -0.13607215811E+02  0.28616283403E+01  0.17190387559E+03  0.17120000000E+03 0.  0.
        998    1    1    2    0    0 -0.46233400997E+01  0.23573591745E+02  0.14374834680E+04  0.14377189608E+04  0.10000000000E+02 0. -1.
</event>
<event>
 5    1  0.1106231E-008  0.3852571E+03  0.7957747E-01  0.3428582E+00
         13   -1    0    0    0    0  0.00000000000E+00  0.00000000000E+00  0.14999999963E+04  0.15000000000E+04  0.10566000000E+00 0. -1.
        994   -1    0    0    0    0 -0.00000000000E+00 -0.00000000000E+00  0.11368683772E-12  0.17120000000E+03  0.17120000000E+03 0.  0.
         13    1    1    2    0    0 -0.96014479977E+01  0.84941273696E+01  0.56473757154E+02  0.57910572563E+02  0.10566000000E+00 0. -1.
        994    1    1    2    0    0 -0.28377062527E+01 -0.88793260258E+01  0.17881210035E+01  0.17146291839E+03  0.17120000000E+03 0.  0.
        998    1    1    2    0    0  0.12439154250E+02  0.38519865616E+00  0.14417381181E+04  0.14418265090E+04  0.10000000000E+02 0. -1.
</event>
<event>
 5    1  0.1106231E-008  0.3857484E+03  0.7957747E-01  0.3426504E+00
         13   -1    0    0    0    0  0.00000000000E+00  0.00000000000E+00  0.14999999963E+04  0.15000000000E+04  0.10566000000E+00 0. -1.
        994   -1    0    0    0    0 -0.00000000000E+00 -0.00000000000E+00  0.11368683772E-12  0.17120000000E+03  0.17120000000E+03 0.  0.
         13    1    1    2    0    0 -0.45465483172E+02  0.13513804329E+03  0.85008251828E+03  0.86195690145E+03  0.10566000000E+00 0. -1.
        994    1    1    2    0    0  0.60173484918E+02 -0.17410455246E+03  0.12185855746E+03  0.27944980139E+03  0.17120000000E+03 0.  0.
        998    1    1    2    0    0 -0.14708001746E+02  0.38966509163E+02  0.52805892054E+03  0.52979329715E+03  0.10000000000E+02 0. -1.
</event>
<event>
 5    1  0.1106231E-008  0.3839138E+03  0.7957747E-01  0.3434292E+00
         13   -1    0    0    0    0  0.00000000000E+00  0.00000000000E+00  0.14999999963E+04  0.15000000000E+04  0.10566000000E+00 0. -1.
        994   -1    0    0    0    0 -0.00000000000E+00 -0.00000000000E+00  0.11368683772E-12  0.17120000000E+03  0.17120000000E+03 0.  0.
         13    1    1    2    0    0 -0.96485504549E+02 -0.88291846770E+01  0.23984719959E+03  0.25867759355E+03  0.10566000000E+00 0. -1.
        994    1    1    2    0    0  0.69482851237E+02 -0.18106058553E+02  0.37704032386E+02  0.18943793187E+03  0.17120000000E+03 0.  0.
        998    1    1    2    0    0  0.27002653312E+02  0.26935243230E+02  0.12224487643E+04  0.12230844746E+04  0.10000000000E+02 0. -1.
</event>
<event>
 5    1  0.1106231E-008  0.3090814E+03  0.7957747E-01  0.3833246E+00
         13   -1    0    0    0    0  0.00000000000E+00  0.00000000000E+00  0.14999999963E+04  0.15000000000E+04  0.10566000000E+00 0.  1.
        994   -1    0    0    0    0 -0.00000000000E+00 -0.00000000000E+00  0.11368683772E-12  0.17120000000E+03  0.17120000000E+03 0.  0.
         13    1    1    2    0    0  0.17014888360E+03 -0.16051139731E+03  0.58242715556E+03  0.62764317407E+03  0.10566000000E+00 0.  1.
        994    1    1    2    0    0 -0.15222181398E+03  0.17910704130E+03  0.27450110377E+03  0.39988887065E+03  0.17120000000E+03 0.  0.
        998    1    1    2    0    0 -0.17927069622E+02 -0.18595643995E+02  0.64307173695E+03  0.64366795528E+03  0.10000000000E+02 0.  1.
</event>
<event>
 5    1  0.1106231E-008  0.3689385E+03  0.7957747E-01  0.3500784E+00
         13   -1    0    0    0    0  0.00000000000E+00  0.00000000000E+00  0.14999999963E+04  0.15000000000E+04  0.10566000000E+00 0.  1.
        994   -1    0    0    0    0 -0.00000000000E+00 -0.00000000000E+00  0.11368683772E-12  0.17120000000E+03  0.17120000000E+03 0.  0.
         13    1    1    2    0    0 -0.37506655132E+02 -0.58432597419E+02  0.22473127293E+03  0.23521325178E+03  0.10566000000E+00 0.  1.
        994    1    1    2    0    0  0.16842994000E+02  0.54247492459E+02  0.21106903941E+02  0.18160786954E+03  0.17120000000E+03 0.  0.
        998    1    1    2    0    0  0.20663661132E+02  0.41851049594E+01  0.12541618194E+04  0.12543788787E+04  0.10000000000E+02 0.  1.
</event>
<event>
 5    1  0.1106231E-008  0.3806098E+03  0.7957747E-01  0.3448507E+00
         13   -1    0    0    0    0  0.00000000000E+00  0.00000000000E+00  0.14999999963E+04  0.15000000000E+04  0.10566000000E+00 0.  1.
        994   -1    0    0    0    0 -0.00000000000E+00 -0.00000000000E+00  0.11368683772E-12  0.17120000000E+03  0.17120000000E+03 0.  0.
         13    1    1    2    0    0 -0.11049198603E+02 -0.28670500574E+01  0.14992706669E+02  0.18844022477E+02  0.10566000000E+00 0.  1.
        994    1    1    2    0    0  0.22323944921E+02 -0.11960562186E+02  0.59684441924E+01  0.17316603562E+03  0.17120000000E+03 0.  0.
        998    1    1    2    0    0 -0.11274746318E+02  0.14827612244E+02  0.14790388454E+04  0.14791899419E+04  0.10000000000E+02 0.  1.
</event>
<event>
 5    1  0.1106231E-008  0.3841972E+03  0.7957747E-01  0.3433084E+00
         13   -1    0    0    0    0  0.00000000000E+00  0.00000000000E+00  0.14999999963E+04  0.15000000000E+04  0.10566000000E+00 0. -1.
        994   -1    0    0    0    0 -0.00000000000E+00 -0.00000000000E+00  0.11368683772E-12  0.17120000000E+03  0.17120000000E+03 0.  0.
         13    1    1    2    0    0  0.15165644612E+02  0.56329188393E+01  0.65339905394E+02  0.67313007303E+02  0.10566000000E+00 0. -1.
        994    1    1    2    0    0 -0.11100023565E+02  0.84380609826E+01  0.26705242489E+01  0.17178761043E+03  0.17120000000E+03 0.  0.
        998    1    1    2    0    0 -0.40656210479E+01 -0.14070979822E+02  0.14319895666E+04  0.14320993823E+04  0.10000000000E+02 0. -1.
</event>
<event>
 5    1  0.1106231E-008  0.2653273E+03  0.7957747E-01  0.4179560E+00
         13   -1    0    0    0    0  0.00000000000E+00  0.00000000000E+00  0.14999999963E+04  0.15000000000E+04  0.10566000000E+00 0. -1.
        994   -1    0    0    0    0 -0.00000000000E+00 -0.00000000000E+00  0.11368683772E-12  0.17120000000E+03  0.17120000000E+03 0.  0.
         13    1    1    2    0    0  0.16395176030E+03 -0.63126850357E+02  0.38349597268E+03  0.42182265369E+03  0.10566000000E+00 0. -1.
        994    1    1    2    0    0 -0.17792578398E+03  0.49649380542E+02  0.17283824403E+03  0.30545890753E+03  0.17120000000E+03 0.  0.
        998    1    1    2    0    0  0.13974023676E+02  0.13477469815E+02  0.94366577957E+03  0.94391843878E+03  0.10000000000E+02 0. -1.
</event>
<event>
 5    1  0.1106231E-008  0.3854493E+03  0.7957747E-01  0.3427769E+00
         13   -1    0    0    0    0  0.00000000000E+00  0.00000000000E+00  0.14999999963E+04  0.15000000000E+04  0.10566000000E+00 0.  1.
        994   -1    0    0    0    0 -0.00000000000E+00 -0.00000000000E+00  0.11368683772E-12  0.17120000000E+03  0.17120000000E+03 0.  0.
         13    1    1    2    0    0  0.64592535095E+01 -0.11084756870E+02  0.55914085403E+02  0.57367150018E+02  0.10566000000E+00 0.  1.
        994    1    1    2    0    0  0.19908788493E+00  0.19252845437E+02  0.26255561749E+01  0.17229928972E+03  0.17120000000E+03 0.  0.
        998    1    1    2    0    0 -0.66583413944E+01 -0.81680885670E+01  0.14414603547E+04  0.14415335603E+04  0.10000000000E+02 0.  1.
</event>
<event>
 5    1  0.1106231E-008  0.3784992E+03  0.7957747E-01  0.3457720E+00
         13   -1    0    0    0    0  0.00000000000E+00  0.00000000000E+00  0.14999999963E+04  0.15000000000E+04  0.10566000000E+00 0. -1.
        994   -1    0    0    0    0 -0.00000000000E+00 -0.00000000000E+00  0.11368683772E-12  0.17120000000E+03  0.17120000000E+03 0.  0.
         13    1    1    2    0    0  0.36195848572E+01 -0.99819650522E+01  0.95853323862E+01  0.14304921595E+02  0.10566000000E+00 0. -1.
        994    1    1    2    0    0 -0.66475666046E+01 -0.72192027090E+01  0.52163002038E+01  0.17156035911E+03  0.17120000000E+03 0.  0.
        998    1    1    2    0    0  0.30279817474E+01  0.17201167761E+02  0.14851983637E+04  0.14853347193E+04  0.10000000000E+02 0. -1.
</event>
<event>
 5    1  0.1106231E-008  0.3829035E+03  0.7957747E-01  0.3438613E+00
         13   -1    0    0    0    0  0.00000000000E+00  0.00000000000E+00  0.14999999963E+04  0.15000000000E+04  0.10566000000E+00 0. -1.
        994   -1    0    0    0    0 -0.00000000000E+00 -0.00000000000E+00  0.11368683772E-12  0.17120000000E+03  0.17120000000E+03 0.  0.
         13    1    1    2    0    0 -0.11723752925E+02  0.37532225969E+01  0.26823108443E+02  0.29513105107E+02  0.10566000000E+00 0. -1.
        994    1    1    2    0    0  0.12073506569E+02 -0.10080996649E+02  0.34941990370E+01  0.17195652207E+03  0.17120000000E+03 0.  0.
        998    1    1    2    0    0 -0.34975364399E+00  0.63277740517E+01  0.14696826888E+04  0.14697303728E+04  0.10000000000E+02 0. -1.
</event>
<event>
 5    1  0.1106231E-008  0.3736328E+03  0.7957747E-01  0.3479360E+00
         13   -1    0    0    0    0  0.00000000000E+00  0.00000000000E+00  0.14999999963E+04  0.15000000000E+04  0.10566000000E+00 0. -1.
        994   -1    0    0    0    0 -0.00000000000E+00 -0.00000000000E+00  0.11368683772E-12  0.17120000000E+03  0.17120000000E+03 0.  0.
         13    1    1    2    0    0 -0.23639818923E+01  0.14600303029E+02  0.11480014756E+02  0.18723225197E+02  0.10566000000E+00 0. -1.
        994    1    1    2    0    0  0.75523251691E+01 -0.11468754973E+02  0.80266891085E+01  0.17193730745E+03  0.17120000000E+03 0.  0.
        998    1    1    2    0    0 -0.51883432768E+01 -0.31315480561E+01  0.14804932924E+04  0.14805394674E+04  0.10000000000E+02 0. -1.
</event>
<event>
 5    1  0.1106231E-008  0.3832883E+03  0.7957747E-01  0.3436964E+00
         13   -1    0    0    0    0  0.00000000000E+00  0.00000000000E+00  0.14999999963E+04  0.15000000000E+04  0.10566000000E+00 0.  1.
        994   -1    0    0    0    0 -0.00000000000E+00 -0.00000000000E+00  0.11368683772E-12  0.17120000000E+03  0.17120000000E+03 0.  0.
         13    1    1    2    0    0 -0.94809778728E+01 -0.14299983257E+02  0.54877246679E+02  0.57496972352E+02  0.10566000000E+00 0.  1.
        994    1    1    2    0    0  0.26548160652E+02  0.12514037818E+02  0.53362265781E+01  0.17377951919E+03  0.17120000000E+03 0.  0.
        998    1    1    2    0    0 -0.17067182779E+02  0.17859454386E+01  0.14397865230E+04  0.14399235085E+04  0.10000000000E+02 0.  1.
</event>
<event>
 5    1  0.1106231E-008  0.3846591E+03  0.7957747E-01  0.3431119E+00
         13   -1    0    0    0    0  0.00000000000E+00  0.00000000000E+00  0.14999999963E+04  0.15000000000E+04  0.10566000000E+00 0. -1.
        994   -1    0    0    0    0 -0.00000000000E+00 -0.00000000000E+00  0.11368683772E-12  0.17120000000E+03  0.17120000000E+03 0.  0.
         13    1    1    2    0    0 -0.82642280636E+01  0.12583869186E+02  0.58348861356E+02  0.60259870683E+02  0.10566000000E+00 0. -1.
        994    1    1    2    0    0  0.17939300901E+02 -0.15673274181E+02  0.36699836648E+01  0.17288834206E+03  0.17120000000E+03 0.  0.
        998    1    1    2    0    0 -0.96750728376E+01  0.30894049953E+01  0.14379811513E+04  0.14380517873E+04  0.10000000000E+02 0. -1.
</event>
<event>
 5    1  0.1106231E-008  0.3786873E+03  0.7957747E-01  0.3456894E+00
         13   -1    0    0    0    0  0.00000000000E+00  0.00000000000E+00  0.14999999963E+04  0.15000000000E+04  0.10566000000E+00 0. -1.
        994   -1    0    0    0    0 -0.00000000000E+00 -0.00000000000E+00  0.11368683772E-12  0.17120000000E+03  0.17120000000E+03 0.  0.
         13    1    1    2    0    0  0.40660620028E+02 -0.56865663621E+02  0.32460461632E+03  0.33204692111E+03  0.10566000000E+00 0. -1.
        994    1    1    2    0    0 -0.54147531184E+02  0.74453097715E+02  0.33800880768E+02  0.19729966658E+03  0.17120000000E+03 0.  0.
        998    1    1    2    0    0  0.13486911157E+02 -0.17587434094E+02  0.11415944992E+04  0.11418534123E+04  0.10000000000E+02 0. -1.
</event>
<event>
 5    1  0.1106231E-008  0.3702357E+03  0.7957747E-01  0.3494808E+00
         13   -1    0    0    0    0  0.00000000000E+00  0.00000000000E+00  0.14999999963E+04  0.15000000000E+04  0.10566000000E+00 0.  1.
        994   -1    0    0    0    0 -0.00000000000E+00 -0.00000000000E+00  0.11368683772E-12  0.17120000000E+03  0.17120000000E+03 0.  0.
         13    1    1    2    0    0 -0.25125845463E+02  0.23892103517E+02  0.53604871282E+02  0.63840693213E+02  0.10566000000E+00 0.  1.
        994    1    1    2    0    0 -0.95780295457E+01 -0.89533639990E+01  0.11665175338E+02  0.17209711704E+03  0.17120000000E+03 0.  0.
        998    1    1    2    0    0  0.34703875009E+02 -0.14938739518E+02  0.14347299497E+04  0.14352621897E+04  0.10000000000E+02 0.  1.
</event>
<event>
 5    1  0.1106231E-008  0.3856808E+03  0.7957747E-01  0.3426790E+00
         13   -1    0    0    0    0  0.00000000000E+00  0.00000000000E+00  0.14999999963E+04  0.15000000000E+04  0.10566000000E+00 0.  1.
        994   -1    0    0    0    0 -0.00000000000E+00 -0.00000000000E+00  0.11368683772E-12  0.17120000000E+03  0.17120000000E+03 0.  0.
         13    1    1    2    0    0 -0.14134041059E+02 -0.29673573190E+01  0.77758385648E+02  0.79088267327E+02  0.10566000000E+00 0.  1.
        994    1    1    2    0    0  0.14079342709E+02  0.70159685965E+01  0.21049214183E+01  0.17193406411E+03  0.17120000000E+03 0.  0.
        998    1    1    2    0    0  0.54698349487E-01 -0.40486112775E+01  0.14201366892E+04  0.14201776686E+04  0.10000000000E+02 0.  1.
</event>
<event>
 5    1  0.1106231E-008  0.3718972E+03  0.7957747E-01  0.3487217E+00
         13   -1    0    0    0    0  0.00000000000E+00  0.00000000000E+00  0.14999999963E+04  0.15000000000E+04  0.10566000000E+00 0. -1.
        994   -1    0    0    0    0 -0.00000000000E+00 -0.00000000000E+00  0.11368683772E-12  0.17120000000E+03  0.17120000000E+03 0.  0.
         13    1    1    2    0    0 -0.37246092648E+01 -0.99312108767E+01  0.29063671415E+01  0.10998172469E+02  0.10566000000E+00 0. -1.
        994    1    1    2    0    0  0.50507177752E+01  0.10167015286E+02  0.87236162890E+01  0.17179761183E+03  0.17120000000E+03 0.  0.
        998    1    1    2    0    0 -0.13261085103E+01 -0.23580440887E+00  0.14883700128E+04  0.14884042157E+04  0.10000000000E+02 0. -1.
</event>
<event>
 5    1  0.1106231E-008  0.3782376E+03  0.7957747E-01  0.3458868E+00
         13   -1    0    0    0    0  0.00000000000E+00  0.00000000000E+00  0.14999999963E+04  0.15000000000E+04  0.10566000000E+00 0.  1.
        994   -1    0    0    0    0 -0.00000000000E+00 -0.00000000000E+00  0.11368683772E-12  0.17120000000E+03  0.17120000000E+03 0.  0.
         13    1    1    2    0    0 -0.93931385174E+01  0.46836791972E+01  0.86586829611E+01  0.13607051726E+02  0.10566000000E+00 0.  1.
        994    1    1    2    0    0  0.91693701561E+01 -0.27525480440E+01  0.53336904248E+01  0.17155040695E+03  0.17120000000E+03 0.  0.
        998    1    1    2    0    0  0.22376836134E+00 -0.19311311531E+01  0.14860076229E+04  0.14860425413E+04  0.10000000000E+02 0.  1.
</event>
<event>
 5    1  0.1106231E-008  0.3838448E+03  0.7957747E-01  0.3434586E+00
         13   -1    0    0    0    0  0.00000000000E+00  0.00000000000E+00  0.14999999963E+04  0.15000000000E+04  0.10566000000E+00 0. -1.
        994   -1    0    0    0    0 -0.00000000000E+00 -0.00000000000E+00  0.11368683772E-12  0.17120000000E+03  0.17120000000E+03 0.  0.
         13    1    1    2    0    0  0.10745598818E+02  0.15453782823E+02  0.80630594832E+02  0.82798498081E+02  0.10566000000E+00 0. -1.
        994    1    1    2    0    0  0.67236747564E+01 -0.17782207384E+02  0.33987061383E+01  0.17228582619E+03  0.17120000000E+03 0.  0.
        998    1    1    2    0    0 -0.17469273575E+02  0.23284245618E+01  0.14159706953E+04  0.14161156757E+04  0.10000000000E+02 0. -1.
</event>
<event>
 5    1  0.1106231E-008  0.3829734E+03  0.7957747E-01  0.3438313E+00
         13   -1    0    0    0    0  0.00000000000E+00  0.00000000000E+00  0.14999999963E+04  0.15000000000E+04  0.10566000000E+00 0. -1.
        994   -1    0    0    0    0 -0.00000000000E+00 -0.00000000000E+00  0.11368683772E-12  0.17120000000E+03  0.17120000000E+03 0.  0.
         13    1    1    2    0    0  0.85075954995E+01  0.18148299988E+02  0.76692499977E+02  0.79268472235E+02  0.10566000000E+00 0. -1.
        994    1    1    2    0    0 -0.19087531589E+01 -0.96329822188E+01  0.29589716210E+01  0.17150694796E+03  0.17120000000E+03 0.  0.
        998    1    1    2    0    0 -0.65988423405E+01 -0.85153177692E+01  0.14203485247E+04  0.14204245798E+04  0.10000000000E+02 0. -1.
</event>
<event>
 5    1  0.1106231E-008  0.3767402E+03  0.7957747E-01  0.3465476E+00
         13   -1    0    0    0    0  0.00000000000E+00  0.00000000000E+00  0.14999999963E+04  0.15000000000E+04  0.10566000000E+00 0.  1.
        994   -1    0    0    0    0 -0.00000000000E+00 -0.00000000000E+00  0.11368683772E-12  0.17120000000E+03  0.17120000000E+03 0.  0.
         13    1    1    2    0    0 -0.31586013780E+02  0.60169129336E+02  0.14671056935E+03  0.16168488709E+03  0.10566000000E+00 0.  1.
        994    1    1    2    0    0  0.70760740419E+01 -0.59028277686E+02  0.27314583997E+02  0.18327557090E+03  0.17120000000E+03 0.  0.
        998    1    1    2    0    0  0.24509939738E+02 -0.11408516503E+01  0.13259748429E+04  0.13262395420E+04  0.10000000000E+02 0.  1.
</event>
<event>
 5    1  0.1106231E-008  0.3807451E+03  0.7957747E-01  0.3447921E+00
         13   -1    0    0    0    0  0.00000000000E+00  0.00000000000E+00  0.14999999963E+04  0.15000000000E+04  0.10566000000E+00 0. -1.
        994   -1    0    0    0    0 -0.00000000000E+00 -0.00000000000E+00  0.11368683772E-12  0.17120000000E+03  0.17120000000E+03 0.  0.
         13    1    1    2    0    0  0.85122059086E+01  0.22436973779E+02  0.76223426595E+02  0.79911809939E+02  0.10566000000E+00 0. -1.
        994    1    1    2    0    0  0.13184022511E+02 -0.18647417657E+02  0.54986228683E+01  0.17280399153E+03  0.17120000000E+03 0.  0.
        998    1    1    2    0    0 -0.21696228419E+02 -0.37895561218E+01  0.14182779468E+04  0.14184841985E+04  0.10000000000E+02 0. -1.
</event>
<event>
 5    1  0.1106231E-008  0.3953000E+03  0.7957747E-01  0.3387130E+00
         13   -1    0    0    0    0  0.00000000000E+00  0.00000000000E+00  0.14999999963E+04  0.15000000000E+04  0.10566000000E+00 0.  1.
        994   -1    0    0    0    0 -0.00000000000E+00 -0.00000000000E+00  0.11368683772E-12  0.17120000000E+03  0.17120000000E+03 0.  0.
         13    1    1    2    0    0 -0.44243960137E+02 -0.67176105990E+02  0.11421299382E+03  0.13969529822E+03  0.10566000000E+00 0.  1.
        994    1    1    2    0    0  0.33847430988E+02  0.69250569768E+02  0.48202335601E+02  0.19384064371E+03  0.17120000000E+03 0.  0.
        998    1    1    2    0    0  0.10396529149E+02 -0.20744637779E+01  0.13375846669E+04  0.13376640581E+04  0.10000000000E+02 0.  1.
</event>
<event>
 5    1  0.1106231E-008  0.3822911E+03  0.7957747E-01  0.3441243E+00
         13   -1    0    0    0    0  0.00000000000E+00  0.00000000000E+00  0.14999999963E+04  0.15000000000E+04  0.10566000000E+00 0.  1.
        994   -1    0    0    0    0 -0.00000000000E+00 -0.00000000000E+00  0.11368683772E-12  0.17120000000E+03  0.17120000000E+03 0.  0.
         13    1    1    2    0    0  0.60039044462E+02  0.81489303352E+01  0.36650857185E+03  0.37148302294E+03  0.10566000000E+00 0.  1.
        994    1    1    2    0    0 -0.98280752722E+02  0.47725075508E+02  0.43651189809E+02  0.20772976570E+03  0.17120000000E+03 0.  0.
        998    1    1    2    0    0  0.38241708260E+02 -0.55874005843E+02  0.10898402346E+04  0.10919872114E+04  0.10000000000E+02 0.  1.
</event>
<event>
 5    1  0.1106231E-008  0.3819864E+03  0.7957747E-01  0.3442555E+00
         13   -1    0    0    0    0  0.00000000000E+00  0.00000000000E+00  0.14999999963E+04  0.15000000000E+04  0.10566000000E+00 0. -1.
        994   -1    0    0    0    0 -0.00000000000E+00 -0.00000000000E+00  0.11368683772E-12  0.17120000000E+03  0.17120000000E+03 0.  0.
         13    1    1    2    0    0  0.82586200136E+00  0.10013214615E+02  0.14862433638E+02  0.17940167576E+02  0.10566000000E+00 0. -1.
        994    1    1    2    0    0  0.20683121280E+01 -0.61379178465E+01  0.32731072297E+01  0.17135374283E+03  0.17120000000E+03 0.  0.
        998    1    1    2    0    0 -0.28941741294E+01 -0.38752967685E+01  0.14818644554E+04  0.14819060896E+04  0.10000000000E+02 0. -1.
</event>
<event>
 5    1  0.1106231E-008  0.3812918E+03  0.7957747E-01  0.3445553E+00
         13   -1    0    0    0    0  0.00000000000E+00  0.00000000000E+00  0.14999999963E+04  0.15000000000E+04  0.10566000000E+00 0.  1.
        994   -1    0    0    0    0 -0.00000000000E+00 -0.00000000000E+00  0.11368683772E-12  0.17120000000E+03  0.17120000000E+03 0.  0.
         13    1    1    2    0    0  0.18457565640E+02  0.14693118811E+02  0.74664553641E+02  0.78303104690E+02  0.10566000000E+00 0.  1.
        994    1    1    2    0    0 -0.19167590731E+02 -0.17459597216E+02  0.57233756034E+01  0.17324673474E+03  0.17120000000E+03 0.  0.
        998    1    1    2    0    0  0.71002509017E+00  0.27664784055E+01  0.14196120670E+04  0.14196501606E+04  0.10000000000E+02 0.  1.
</event>
<event>
 5    1  0.1106231E-008  0.3687438E+03  0.7957747E-01  0.3501684E+00
         13   -1    0    0    0    0  0.00000000000E+00  0.00000000000E+00  0.14999999963E+04  0.15000000000E+04  0.10566000000E+00 0. -1.
        994   -1    0    0    0    0 -0.00000000000E+00 -0.00000000000E+00  0.11368683772E-12  0.17120000000E+03  0.17120000000E+03 0.  0.
         13    1    1    2    0    0  0.59126184333E+01 -0.10386474179E+02  0.22177010752E+01  0.12155955935E+02  0.10566000000E+00 0. -1.
        994    1    1    2    0    0 -0.15713343668E+01  0.64126655343E+01  0.10427826505E+02  0.17164431519E+03  0.17120000000E+03 0.  0.
        998    1    1    2    0    0 -0.43412840665E+01  0.39738086445E+01  0.14873544687E+04  0.14873997289E+04  0.10000000000E+02 0. -1.
</event>
<event>
 5    1  0.1106231E-008  0.3824849E+03  0.7957747E-01  0.3440409E+00
         13   -1    0    0    0    0  0.00000000000E+00  0.00000000000E+00  0.14999999963E+04  0.15000000000E+04  0.10566000000E+00 0. -1.
        994   -1    0    0    0    0 -0.00000000000E+00 -0.00000000000E+00  0.11368683772E-12  0.17120000000E+03  0.17120000000E+03 0.  0.
         13    1    1    2    0    0 -0.14875468027E+02 -0.36727533214E+01  0.40819661605E+02  0.43600740860E+02  0.10566000000E+00 0. -1.
        994    1    1    2    0    0  0.17322829098E+01  0.74664793691E+01  0.30788184987E+01  0.17139914889E+03  0.17120000000E+03 0.  0.
        998    1    1    2    0    0  0.13143185117E+02 -0.37937260476E+01  0.14561015162E+04  0.14562001102E+04  0.10000000000E+02 0. -1.
</event>
<event>
 5    1  0.1106231E-008  0.3695348E+03  0.7957747E-01  0.3498032E+00
         13   -1    0    0    0    0  0.00000000000E+00  0.00000000000E+00  0.14999999963E+04  0.15000000000E+04  0.10566000000E+00 0.  1.
        994   -1    0    0    0    0 -0.00000000000E+00 -0.00000000000E+00  0.11368683772E-12  0.17120000000E+03  0.17120000000E+03 0.  0.
         13    1    1    2    0    0  0.59167209467E+02 -0.57261659161E+02  0.35618760492E+03  0.36558073985E+03  0.10566000000E+00 0.  1.
        994    1    1    2    0    0 -0.18786271197E+02  0.23045731647E+02  0.13784758182E+02  0.17430860361E+03  0.17120000000E+03 0.  0.
        998    1    1    2    0    0 -0.40380938270E+02  0.34215927515E+02  0.11300276332E+04  0.11313106565E+04  0.10000000000E+02 0.  1.
</event>
<event>
 5    1  0.1106231E-008  0.3849773E+03  0.7957747E-01  0.3429768E+00
         13   -1    0    0    0    0  0.00000000000E+00  0.00000000000E+00  0.14999999963E+04  0.15000000000E+04  0.10566000000E+00 0. -1.
        994   -1    0    0    0    0 -0.00000000000E+00 -0.00000000000E+00  0.11368683772E-12  0.17120000000E+03  0.17120000000E+03 0.  0.
         13    1    1    2    0    0 -0.99357891239E+00  0.17611505513E+02  0.90445896660E+02  0.92150006577E+02  0.10566000000E+00 0. -1.
        994    1    1    2    0    0 -0.16573754294E+01 -0.17873209691E+02  0.27017980577E+01  0.17215963008E+03  0.17120000000E+03 0.  0.
        998    1    1    2    0    0  0.26509543418E+01  0.26170417740E+00  0.14068523016E+04  0.14068903633E+04  0.10000000000E+02 0. -1.
</event>
<event>
 5    1  0.1106231E-008  0.3903891E+03  0.7957747E-01  0.3407133E+00
         13   -1    0    0    0    0  0.00000000000E+00  0.00000000000E+00  0.14999999963E+04  0.15000000000E+04  0.10566000000E+00 0.  1.
        994   -1    0    0    0    0 -0.00000000000E+00 -0.00000000000E+00  0.11368683772E-12  0.17120000000E+03  0.17120000000E+03 0.  0.
         13    1    1    2    0    0  0.13489997622E+02 -0.11623993636E+02 -0.28542927340E+01  0.18034838922E+02  0.10566000000E+00 0.  1.
        994    1    1    2    0    0 -0.13983515433E+02  0.18805250962E+02  0.24227040479E+02  0.17448657730E+03  0.17120000000E+03 0.  0.
        998    1    1    2    0    0  0.49351781112E+00 -0.71812573260E+01  0.14786272485E+04  0.14786785838E+04  0.10000000000E+02 0.  1.
</event>
<event>
 5    1  0.1106231E-008  0.3822708E+03  0.7957747E-01  0.3441330E+00
         13   -1    0    0    0    0  0.00000000000E+00  0.00000000000E+00  0.14999999963E+04  0.15000000000E+04  0.10566000000E+00 0. -1.
        994   -1    0    0    0    0 -0.00000000000E+00 -0.00000000000E+00  0.11368683772E-12  0.17120000000E+03  0.17120000000E+03 0.  0.
         13    1    1    2    0    0 -0.65926269497E+01 -0.10899037179E+02  0.25702475993E+02  0.28685888129E+02  0.10566000000E+00 0. -1.
        994    1    1    2    0    0  0.75763506100E+01  0.99152290597E+01  0.35080710290E+01  0.17169000966E+03  0.17120000000E+03 0.  0.
        998    1    1    2    0    0 -0.98372366034E+00  0.98380811950E+00  0.14707894493E+04  0.14708241022E+04  0.10000000000E+02 0. -1.
</event>
<event>
 5    1  0.1106231E-008  0.3794388E+03  0.7957747E-01  0.3453606E+00
         13   -1    0    0    0    0  0.00000000000E+00  0.00000000000E+00  0.14999999963E+04  0.15000000000E+04  0.10566000000E+00 0. -1.
        994   -1    0    0    0    0 -0.00000000000E+00 -0.00000000000E+00  0.11368683772E-12  0.17120000000E+03  0.17120000000E+03 0.  0.
         13    1    1    2    0    0 -0.17112712397E+02 -0.14305407943E+02  0.55043563964E+02  0.59391032319E+02  0.10566000000E+00 0. -1.
        994    1    1    2    0    0  0.11967561263E+02  0.54002135923E+01  0.49942543368E+01  0.17177533992E+03  0.17120000000E+03 0.  0.
        998    1    1    2    0    0  0.51451511342E+01  0.89051943509E+01  0.14399621780E+04  0.14400336278E+04  0.10000000000E+02 0. -1.
</event>
<event>
 5    1  0.1106231E-008  0.3815930E+03  0.7957747E-01  0.3444252E+00
         13   -1    0    0    0    0  0.00000000000E+00  0.00000000000E+00  0.14999999963E+04  0.15000000000E+04  0.10566000000E+00 0. -1.
        994   -1    0    0    0    0 -0.00000000000E+00 -0.00000000000E+00  0.11368683772E-12  0.17120000000E+03  0.17120000000E+03 0.  0.
         13    1    1    2    0    0 -0.35577819150E+01  0.17740210062E+02  0.46189365655E+02  0.49606869774E+02  0.10566000000E+00 0. -1.
        994    1    1    2    0    0  0.11871062763E+02 -0.19533720542E+02  0.50706065350E+01  0.17279363246E+03  0.17120000000E+03 0.  0.
        998    1    1    2    0    0 -0.83132808478E+01  0.17935104805E+01  0.14487400241E+04  0.14487994978E+04  0.10000000000E+02 0. -1.
</event>
<event>
 5    1  0.1106231E-008  0.3815403E+03  0.7957747E-01  0.3444479E+00
         13   -1    0    0    0    0  0.00000000000E+00  0.00000000000E+00  0.14999999963E+04  0.15000000000E+04  0.10566000000E+00 0. -1.
        994   -1    0    0    0    0 -0.00000000000E+00 -0.00000000000E+00  0.11368683772E-12  0.17120000000E+03  0.17120000000E+03 0.  0.
         13    1    1    2    0    0 -0.67823916903E+01  0.23826970992E+02  0.84272629593E+02  0.87838560134E+02  0.10566000000E+00 0. -1.
        994    1    1    2    0    0  0.10391013442E+02 -0.26951527766E+02  0.61376248389E+01  0.17372814524E+03  0.17120000000E+03 0.  0.
        998    1    1    2    0    0 -0.36086217519E+01  0.31245567736E+01  0.14095897418E+04  0.14096332946E+04  0.10000000000E+02 0. -1.
</event>
<event>
 5    1  0.1106231E-008  0.3790359E+03  0.7957747E-01  0.3455367E+00
         13   -1    0    0    0    0  0.00000000000E+00  0.00000000000E+00  0.14999999963E+04  0.15000000000E+04  0.10566000000E+00 0.  1.
        994   -1    0    0    0    0 -0.00000000000E+00 -0.00000000000E+00  0.11368683772E-12  0.17120000000E+03  0.17120000000E+03 0.  0.
         13    1    1    2    0    0  0.32142768121E+02 -0.12725789294E+02  0.12939321658E+03  0.13393176964E+03  0.10566000000E+00 0.  1.
        994    1    1    2    0    0 -0.17463963479E+02  0.54696046510E+01  0.57445405220E+01  0.17227114193E+03  0.17120000000E+03 0.  0.
        998    1    1    2    0    0 -0.14678804642E+02  0.72561846429E+01  0.13648622392E+04  0.13649970884E+04  0.10000000000E+02 0.  1.
</event>
<event>
 5    1  0.1106231E-008  0.3758412E+03  0.7957747E-01  0.3469469E+00
         13   -1    0    0    0    0  0.00000000000E+00  0.00000000000E+00  0.14999999963E+04  0.15000000000E+04  0.10566000000E+00 0.  1.
        994   -1    0    0    0    0 -0.00000000000E+00 -0.00000000000E+00  0.11368683772E-12  0.17120000000E+03  0.17120000000E+03 0.  0.
         13    1    1    2    0    0 -0.21874580775E+02  0.28280499781E+02  0.98742061310E+02  0.10501566449E+03  0.10566000000E+00 0.  1.
        994    1    1    2    0    0  0.78371752609E+01 -0.25604650713E+02  0.86816094313E+01  0.17349878903E+03  0.17120000000E+03 0.  0.
        998    1    1    2    0    0  0.14037405514E+02 -0.26758490676E+01  0.13925763255E+04  0.13926855465E+04  0.10000000000E+02 0.  1.
</event>
<event>
 5    1  0.1106231E-008  0.3838010E+03  0.7957747E-01  0.3434773E+00
         13   -1    0    0    0    0  0.00000000000E+00  0.00000000000E+00  0.14999999963E+04  0.15000000000E+04  0.10566000000E+00 0. -1.
        994   -1    0    0    0    0 -0.00000000000E+00 -0.00000000000E+00  0.11368683772E-12  0.17120000000E+03  0.17120000000E+03 0.  0.
         13    1    1    2    0    0 -0.21460344256E+02  0.13780805005E+02  0.13744894461E+03  0.13979513761E+03  0.10566000000E+00 0. -1.
        994    1    1    2    0    0  0.20588612634E+02 -0.98980374733E+01  0.39514188190E+01  0.17276259962E+03  0.17120000000E+03 0.  0.
        998    1    1    2    0    0  0.87173162185E+00 -0.38827675318E+01  0.13585996329E+04  0.13586422628E+04  0.10000000000E+02 0. -1.
</event>
<event>
 5    1  0.1106231E-008  0.3799261E+03  0.7957747E-01  0.3451480E+00
         13   -1    0    0    0    0  0.00000000000E+00  0.00000000000E+00  0.14999999963E+04  0.15000000000E+04  0.10566000000E+00 0.  1.
        994   -1    0    0    0    0 -0.00000000000E+00 -0.00000000000E+00  0.11368683772E-12  0.17120000000E+03  0.17120000000E+03 0.  0.
         13    1    1    2    0    0  0.11334549223E+02 -0.11370630608E+02  0.30899763963E+02  0.34821973286E+02  0.10566000000E+00 0.  1.
        994    1    1    2    0    0  0.24198130426E+02  0.14326529519E+02  0.68191909905E+01  0.17362816687E+03  0.17120000000E+03 0.  0.
        998    1    1    2    0    0 -0.35532679649E+02 -0.29558989111E+01  0.14622810413E+04  0.14627498598E+04  0.10000000000E+02 0.  1.
</event>
<event>
 5    1  0.1106231E-008  0.3837862E+03  0.7957747E-01  0.3434836E+00
         13   -1    0    0    0    0  0.00000000000E+00  0.00000000000E+00  0.14999999963E+04  0.15000000000E+04  0.10566000000E+00 0.  1.
        994   -1    0    0    0    0 -0.00000000000E+00 -0.00000000000E+00  0.11368683772E-12  0.17120000000E+03  0.17120000000E+03 0.  0.
         13    1    1    2    0    0 -0.10337376988E+02  0.69938669752E+01  0.34921816932E+02  0.37085307065E+02  0.10566000000E+00 0.  1.
        994    1    1    2    0    0  0.77134619569E+01  0.47437383135E+01  0.25047395405E+01  0.17145761654E+03  0.17120000000E+03 0.  0.
        998    1    1    2    0    0  0.26239150316E+01 -0.11737605289E+02  0.14625734398E+04  0.14626570764E+04  0.10000000000E+02 0.  1.
</event>
<event>
 5    1  0.1106231E-008  0.3795373E+03  0.7957747E-01  0.3453176E+00
         13   -1    0    0    0    0  0.00000000000E+00  0.00000000000E+00  0.14999999963E+04  0.15000000000E+04  0.10566000000E+00 0. -1.
        994   -1    0    0    0    0 -0.00000000000E+00 -0.00000000000E+00  0.11368683772E-12  0.17120000000E+03  0.17120000000E+03 0.  0.
         13    1    1    2    0    0 -0.11260738032E+02 -0.23362464825E+02  0.70525284400E+02  0.75142770028E+02  0.10566000000E+00 0. -1.
        994    1    1    2    0    0 -0.46541477122E+02  0.60240908931E+02  0.24019869694E+02  0.18889539524E+03  0.17120000000E+03 0.  0.
        998    1    1    2    0    0  0.57802215154E+02 -0.36878444106E+02  0.14054548422E+04  0.14071618347E+04  0.10000000000E+02 0. -1.
</event>
<event>
 5    1  0.1106231E-008  0.3750751E+03  0.7957747E-01  0.3472887E+00
         13   -1    0    0    0    0  0.00000000000E+00  0.00000000000E+00  0.14999999963E+04  0.15000000000E+04  0.10566000000E+00 0.  1.
        994   -1    0    0    0    0 -0.00000000000E+00 -0.00000000000E+00  0.11368683772E-12  0.17120000000E+03  0.17120000000E+03 0.  0.
         13    1    1    2    0    0 -0.99756379773E+01 -0.13441597578E+02  0.17639429917E+02  0.24317700351E+02  0.10566000000E+00 0.  1.
        994    1    1    2    0    0 -0.75037564522E+00  0.31928470791E+02  0.10114280494E+02  0.17444692310E+03  0.17120000000E+03 0.  0.
        998    1    1    2    0    0  0.10726013623E+02 -0.18486873213E+02  0.14722462859E+04  0.14724353765E+04  0.10000000000E+02 0.  1.
</event>
<event>
 5    1  0.1106231E-008  0.3856048E+03  0.7957747E-01  0.3427111E+00
         13   -1    0    0    0    0  0.00000000000E+00  0.00000000000E+00  0.14999999963E+04  0.15000000000E+04  0.10566000000E+00 0. -1.
        994   -1    0    0    0    0 -0.00000000000E+00 -0.00000000000E+00  0.11368683772E-12  0.17120000000E+03  0.17120000000E+03 0.  0.
         13    1    1    2    0    0 -0.14602633242E+02 -0.71024169994E+01  0.97072763854E+02  0.98421612825E+02  0.10566000000E+00 0. -1.
        994    1    1    2    0    0  0.12883697879E+02  0.45776686618E+01  0.19439805674E+01  0.17175611716E+03  0.17120000000E+03 0.  0.
        998    1    1    2    0    0  0.17189353624E+01  0.25247483376E+01  0.14009832519E+04  0.14010222700E+04  0.10000000000E+02 0. -1.
</event>
<event>
 5    1  0.1106231E-008  0.3820834E+03  0.7957747E-01  0.3442137E+00
         13   -1    0    0    0    0  0.00000000000E+00  0.00000000000E+00  0.14999999963E+04  0.15000000000E+04  0.10566000000E+00 0. -1.
        994   -1    0    0    0    0 -0.00000000000E+00 -0.00000000000E+00  0.11368683772E-12  0.17120000000E+03  0.17120000000E+03 0.  0.
         13    1    1    2    0    0  0.20766519656E+02 -0.91122453341E+01  0.76062256951E+02  0.79371023995E+02  0.10566000000E+00 0. -1.
        994    1    1    2    0    0 -0.28964067526E+02  0.85022597808E+01  0.61162818571E+01  0.17394842492E+03  0.17120000000E+03 0.  0.
        998    1    1    2    0    0  0.81975478698E+01  0.60998555330E+00  0.14178214575E+04  0.14178805511E+04  0.10000000000E+02 0. -1.
</event>
<event>
 5    1  0.1106231E-008  0.3721497E+03  0.7957747E-01  0.3486069E+00
         13   -1    0    0    0    0  0.00000000000E+00  0.00000000000E+00  0.14999999963E+04  0.15000000000E+04  0.10566000000E+00 0. -1.
        994   -1    0    0    0    0 -0.00000000000E+00 -0.00000000000E+00  0.11368683772E-12  0.17120000000E+03  0.17120000000E+03 0.  0.
         13    1    1    2    0    0 -0.27748468838E+02 -0.77511028733E+02  0.24215827014E+03  0.25577055354E+03  0.10566000000E+00 0. -1.
        994    1    1    2    0    0  0.36501127661E+02  0.66045619477E+02  0.32418944047E+02  0.18988097352E+03  0.17120000000E+03 0.  0.
        998    1    1    2    0    0 -0.87526588229E+01  0.11465409255E+02  0.12254227821E+04  0.12255484729E+04  0.10000000000E+02 0.  1.
</event>
<event>
 5    1  0.1106231E-008  0.3745131E+03  0.7957747E-01  0.3475403E+00
         13   -1    0    0    0    0  0.00000000000E+00  0.00000000000E+00  0.14999999963E+04  0.15000000000E+04  0.10566000000E+00 0.  1.
        994   -1    0    0    0    0 -0.00000000000E+00 -0.00000000000E+00  0.11368683772E-12  0.17120000000E+03  0.17120000000E+03 0.  0.
         13    1    1    2    0    0 -0.39537124648E+02 -0.39385442890E+02  0.32674849865E+03  0.33147999920E+03  0.10566000000E+00 0.  1.
        994    1    1    2    0    0 -0.22753767869E+02  0.40221079254E+01  0.87489214706E+01  0.17297368277E+03  0.17120000000E+03 0.  0.
        998    1    1    2    0    0  0.62290892517E+02  0.35363334965E+02  0.11645025762E+04  0.11667463180E+04  0.10000000000E+02 0.  1.
</event>
<event>
 5    1  0.1106231E-008  0.4237528E+03  0.7957747E-01  0.3280294E+00
         13   -1    0    0    0    0  0.00000000000E+00  0.00000000000E+00  0.14999999963E+04  0.15000000000E+04  0.10566000000E+00 0.  1.
        994   -1    0    0    0    0 -0.00000000000E+00 -0.00000000000E+00  0.11368683772E-12  0.17120000000E+03  0.17120000000E+03 0.  0.
         13    1    1    2    0    0  0.43291155021E+02  0.11987840252E+03  0.15435337049E+03  0.20017474776E+03  0.10566000000E+00 0.  1.
        994    1    1    2    0    0 -0.39624062336E+02 -0.12623338493E+03  0.12412797869E+03  0.24944363868E+03  0.17120000000E+03 0.  0.
        998    1    1    2    0    0 -0.36670926850E+01  0.63549824032E+01  0.12215186471E+04  0.12215816136E+04  0.10000000000E+02 0.  0.
</event>
<event>
 5    1  0.1106231E-008  0.3816347E+03  0.7957747E-01  0.3444071E+00
         13   -1    0    0    0    0  0.00000000000E+00  0.00000000000E+00  0.14999999963E+04  0.15000000000E+04  0.10566000000E+00 0.  1.
        994   -1    0    0    0    0 -0.00000000000E+00 -0.00000000000E+00  0.11368683772E-12  0.17120000000E+03  0.17120000000E+03 0.  0.
         13    1    1    2    0    0  0.63387571803E+01  0.94987062550E+01  0.17940580859E+02  0.21266896076E+02  0.10566000000E+00 0.  1.
        994    1    1    2    0    0 -0.78037016668E+01 -0.14301349335E+02  0.41932340617E+01  0.17202456093E+03  0.17120000000E+03 0.  0.
        998    1    1    2    0    0  0.14649444865E+01  0.48026430798E+01  0.14778661814E+04  0.14779085430E+04  0.10000000000E+02 0.  1.
</event>
<event>
 5    1  0.1106231E-008  0.3806427E+03  0.7957747E-01  0.3448365E+00
         13   -1    0    0    0    0  0.00000000000E+00  0.00000000000E+00  0.14999999963E+04  0.15000000000E+04  0.10566000000E+00 0.  1.
        994   -1    0    0    0    0 -0.00000000000E+00 -0.00000000000E+00  0.11368683772E-12  0.17120000000E+03  0.17120000000E+03 0.  0.
         13    1    1    2    0    0 -0.13983761839E+02 -0.29222112794E+01  0.26566164778E+02  0.30163839095E+02  0.10566000000E+00 0.  1.
        994    1    1    2    0    0 -0.71618120027E+01  0.12536716416E+01  0.39854383691E+01  0.17140066208E+03  0.17120000000E+03 0.  0.
        998    1    1    2    0    0  0.21145573841E+02  0.16685396378E+01  0.14694483931E+04  0.14696354988E+04  0.10000000000E+02 0.  1.
</event>
<event>
 5    1  0.1106231E-008  0.3804891E+03  0.7957747E-01  0.3449032E+00
         13   -1    0    0    0    0  0.00000000000E+00  0.00000000000E+00  0.14999999963E+04  0.15000000000E+04  0.10566000000E+00 0.  1.
        994   -1    0    0    0    0 -0.00000000000E+00 -0.00000000000E+00  0.11368683772E-12  0.17120000000E+03  0.17120000000E+03 0.  0.
         13    1    1    2    0    0  0.11536994857E+02 -0.80544274212E+01  0.23793402750E+02  0.27642598102E+02  0.10566000000E+00 0.  1.
        994    1    1    2    0    0 -0.11538135929E+02  0.31592186110E+01  0.43642351720E+01  0.17167293261E+03  0.17120000000E+03 0.  0.
        998    1    1    2    0    0  0.11410727070E-02  0.48952088102E+01  0.14718423584E+04  0.14718844693E+04  0.10000000000E+02 0.  1.
</event>
<event>
 5    1  0.1106231E-008  0.3800270E+03  0.7957747E-01  0.3451041E+00
         13   -1    0    0    0    0  0.00000000000E+00  0.00000000000E+00  0.14999999963E+04  0.15000000000E+04  0.10566000000E+00 0.  1.
        994   -1    0    0    0    0 -0.00000000000E+00 -0.00000000000E+00  0.11368683772E-12  0.17120000000E+03  0.17120000000E+03 0.  0.
         13    1    1    2    0    0  0.10937543443E+02  0.55615997978E+01  0.16399375839E+02  0.20481990646E+02  0.10566000000E+00 0.  1.
        994    1    1    2    0    0 -0.10654709890E+02 -0.47728363857E+01  0.45752565191E+01  0.17165860241E+03  0.17120000000E+03 0.  0.
        998    1    1    2    0    0 -0.28283355299E+00 -0.78876341213E+00  0.14790253639E+04  0.14790594069E+04  0.10000000000E+02 0.  1.
</event>
<event>
 5    1  0.1106231E-008  0.3002358E+03  0.7957747E-01  0.3894337E+00
         13   -1    0    0    0    0  0.00000000000E+00  0.00000000000E+00  0.14999999963E+04  0.15000000000E+04  0.10566000000E+00 0.  1.
        994   -1    0    0    0    0 -0.00000000000E+00 -0.00000000000E+00  0.11368683772E-12  0.17120000000E+03  0.17120000000E+03 0.  0.
         13    1    1    2    0    0  0.80601258440E+02 -0.17785619147E+03  0.67350838575E+03  0.70124385527E+03  0.10566000000E+00 0.  1.
        994    1    1    2    0    0 -0.85705598627E+02  0.13893708846E+03  0.12548020343E+03  0.26777543883E+03  0.17120000000E+03 0.  0.
        998    1    1    2    0    0  0.51043401867E+01  0.38919103011E+02  0.70101140710E+03  0.70218070591E+03  0.10000000000E+02 0.  1.
</event>
<event>
 5    1  0.1106231E-008  0.3828479E+03  0.7957747E-01  0.3438851E+00
         13   -1    0    0    0    0  0.00000000000E+00  0.00000000000E+00  0.14999999963E+04  0.15000000000E+04  0.10566000000E+00 0. -1.
        994   -1    0    0    0    0 -0.00000000000E+00 -0.00000000000E+00  0.11368683772E-12  0.17120000000E+03  0.17120000000E+03 0.  0.
         13    1    1    2    0    0  0.22014717895E+02  0.43834772567E+01  0.91086936475E+02  0.93812066587E+02  0.10566000000E+00 0. -1.
        994    1    1    2    0    0 -0.15462994989E+02 -0.68399589870E+01  0.36497681450E+01  0.17207164223E+03  0.17120000000E+03 0.  0.
        998    1    1    2    0    0 -0.65517229057E+01  0.24564817303E+01  0.14052632917E+04  0.14053162912E+04  0.10000000000E+02 0. -1.
</event>
<event>
 5    1  0.1106231E-008  0.3716547E+03  0.7957747E-01  0.3488321E+00
         13   -1    0    0    0    0  0.00000000000E+00  0.00000000000E+00  0.14999999963E+04  0.15000000000E+04  0.10566000000E+00 0. -1.
        994   -1    0    0    0    0 -0.00000000000E+00 -0.00000000000E+00  0.11368683772E-12  0.17120000000E+03  0.17120000000E+03 0.  0.
         13    1    1    2    0    0  0.41734279021E+01  0.33500572734E+02  0.44795402116E+02  0.56092290814E+02  0.10566000000E+00 0. -1.
        994    1    1    2    0    0  0.10406944872E+02 -0.14769905172E+02  0.12965188331E+02  0.17263832341E+03  0.17120000000E+03 0.  0.
        998    1    1    2    0    0 -0.14580372774E+02 -0.18730667562E+02  0.14422394058E+04  0.14424693858E+04  0.10000000000E+02 0. -1.
</event>
<event>
 5    1  0.1106231E-008  0.3828181E+03  0.7957747E-01  0.3438979E+00
         13   -1    0    0    0    0  0.00000000000E+00  0.00000000000E+00  0.14999999963E+04  0.15000000000E+04  0.10566000000E+00 0. -1.
        994   -1    0    0    0    0 -0.00000000000E+00 -0.00000000000E+00  0.11368683772E-12  0.17120000000E+03  0.17120000000E+03 0.  0.
         13    1    1    2    0    0 -0.55947693289E+01 -0.20437002703E+02  0.86873935380E+02  0.89420715362E+02  0.10566000000E+00 0. -1.
        994    1    1    2    0    0  0.14287163671E+02 -0.54333763668E+00  0.33946600540E+01  0.17182951428E+03  0.17120000000E+03 0.  0.
        998    1    1    2    0    0 -0.86923943422E+01  0.20980340340E+02  0.14097314008E+04  0.14099497704E+04  0.10000000000E+02 0. -1.
</event>
<event>
 5    1  0.1106231E-008  0.3018672E+03  0.7957747E-01  0.3882778E+00
         13   -1    0    0    0    0  0.00000000000E+00  0.00000000000E+00  0.14999999963E+04  0.15000000000E+04  0.10566000000E+00 0.  1.
        994   -1    0    0    0    0 -0.00000000000E+00 -0.00000000000E+00  0.11368683772E-12  0.17120000000E+03  0.17120000000E+03 0.  0.
         13    1    1    2    0    0 -0.12527969571E+03  0.15439138373E+03  0.95718882171E+03  0.97762065910E+03  0.10566000000E+00 0.  1.
        994    1    1    2    0    0  0.10433052588E+02 -0.59263993674E+02  0.64709299184E+02  0.19265981141E+03  0.17120000000E+03 0.  0.
        998    1    1    2    0    0  0.11484664313E+03 -0.95127390054E+02  0.47810187538E+03  0.50091952948E+03  0.10000000000E+02 0.  1.
</event>
<event>
 5    1  0.1106231E-008  0.3832990E+03  0.7957747E-01  0.3436919E+00
         13   -1    0    0    0    0  0.00000000000E+00  0.00000000000E+00  0.14999999963E+04  0.15000000000E+04  0.10566000000E+00 0.  1.
        994   -1    0    0    0    0 -0.00000000000E+00 -0.00000000000E+00  0.11368683772E-12  0.17120000000E+03  0.17120000000E+03 0.  0.
         13    1    1    2    0    0  0.27626639833E+01  0.15016212638E+02 -0.18461906802E+01  0.15379809438E+02  0.10566000000E+00 0.  1.
        994    1    1    2    0    0 -0.27763142971E+02 -0.62345008178E+01  0.21126558523E+02  0.17482972454E+03  0.17120000000E+03 0.  0.
        998    1    1    2    0    0  0.25000478988E+02 -0.87817118202E+01  0.14807196284E+04  0.14809904660E+04  0.10000000000E+02 0.  1.
</event>
<event>
 5    1  0.1106231E-008  0.3833756E+03  0.7957747E-01  0.3436591E+00
         13   -1    0    0    0    0  0.00000000000E+00  0.00000000000E+00  0.14999999963E+04  0.15000000000E+04  0.10566000000E+00 0.  1.
        994   -1    0    0    0    0 -0.00000000000E+00 -0.00000000000E+00  0.11368683772E-12  0.17120000000E+03  0.17120000000E+03 0.  0.
         13    1    1    2    0    0 -0.20872885297E+02  0.46258871308E+01  0.91369002276E+02  0.93836996506E+02  0.10566000000E+00 0.  1.
        994    1    1    2    0    0  0.13782975615E+02 -0.14185207532E+02  0.37331263311E+01  0.17237913668E+03  0.17120000000E+03 0.  0.
        998    1    1    2    0    0  0.70899096816E+01  0.95593204007E+01  0.14048978677E+04  0.14049838668E+04  0.10000000000E+02 0.  1.
</event>
<event>
 5    1  0.1106231E-008  0.3739253E+03  0.7957747E-01  0.3478043E+00
         13   -1    0    0    0    0  0.00000000000E+00  0.00000000000E+00  0.14999999963E+04  0.15000000000E+04  0.10566000000E+00 0.  1.
        994   -1    0    0    0    0 -0.00000000000E+00 -0.00000000000E+00  0.11368683772E-12  0.17120000000E+03  0.17120000000E+03 0.  0.
         13    1    1    2    0    0  0.55011439596E+01  0.11941313121E+02  0.58431931292E+00  0.13160932224E+02  0.10566000000E+00 0.  1.
        994    1    1    2    0    0 -0.91174011274E+01 -0.11721801347E+02  0.13811697107E+02  0.17239701450E+03  0.17120000000E+03 0.  0.
        998    1    1    2    0    0  0.36162571678E+01 -0.21951177375E+00  0.14856039799E+04  0.14856420533E+04  0.10000000000E+02 0.  1.
</event>
<event>
 5    1  0.1106231E-008  0.3806146E+03  0.7957747E-01  0.3448487E+00
         13   -1    0    0    0    0  0.00000000000E+00  0.00000000000E+00  0.14999999963E+04  0.15000000000E+04  0.10566000000E+00 0.  1.
        994   -1    0    0    0    0 -0.00000000000E+00 -0.00000000000E+00  0.11368683772E-12  0.17120000000E+03  0.17120000000E+03 0.  0.
         13    1    1    2    0    0 -0.10399842930E+02 -0.40129306748E+01  0.14907229910E+02  0.18614430241E+02  0.10566000000E+00 0.  1.
        994    1    1    2    0    0  0.43729697595E+01 -0.10661742508E+02  0.42663634910E+01  0.17164043077E+03  0.17120000000E+03 0.  0.
        998    1    1    2    0    0  0.60268731702E+01  0.14674673182E+02  0.14808264029E+04  0.14809451390E+04  0.10000000000E+02 0.  1.
</event>
<event>
 5    1  0.1106231E-008  0.3850368E+03  0.7957747E-01  0.3429516E+00
         13   -1    0    0    0    0  0.00000000000E+00  0.00000000000E+00  0.14999999963E+04  0.15000000000E+04  0.10566000000E+00 0. -1.
        994   -1    0    0    0    0 -0.00000000000E+00 -0.00000000000E+00  0.11368683772E-12  0.17120000000E+03  0.17120000000E+03 0.  0.
         13    1    1    2    0    0  0.16791033503E+02  0.25464964820E+01  0.77201876150E+02  0.79047860790E+02  0.10566000000E+00 0. -1.
        994    1    1    2    0    0 -0.35859953175E+02  0.13422485421E+02  0.64476829160E+01  0.17554803323E+03  0.17120000000E+03 0.  0.
        998    1    1    2    0    0  0.19068919671E+02 -0.15968981903E+02  0.14163504372E+04  0.14166041060E+04  0.10000000000E+02 0. -1.
</event>
<event>
 5    1  0.1106231E-008  0.3934423E+03  0.7957747E-01  0.3394638E+00
         13   -1    0    0    0    0  0.00000000000E+00  0.00000000000E+00  0.14999999963E+04  0.15000000000E+04  0.10566000000E+00 0. -1.
        994   -1    0    0    0    0 -0.00000000000E+00 -0.00000000000E+00  0.11368683772E-12  0.17120000000E+03  0.17120000000E+03 0.  0.
         13    1    1    2    0    0 -0.80589539000E+02 -0.22876706388E+02  0.14292712845E+03  0.16566892498E+03  0.10566000000E+00 0. -1.
        994    1    1    2    0    0  0.48452215648E+02  0.10871204613E+02  0.33378249626E+02  0.18135420546E+03  0.17120000000E+03 0.  0.
        998    1    1    2    0    0  0.32137323352E+02  0.12005501775E+02  0.13236946182E+04  0.13241768696E+04  0.10000000000E+02 0. -1.
</event>
<event>
 5    1  0.1106231E-008  0.3745803E+03  0.7957747E-01  0.3475102E+00
         13   -1    0    0    0    0  0.00000000000E+00  0.00000000000E+00  0.14999999963E+04  0.15000000000E+04  0.10566000000E+00 0.  1.
        994   -1    0    0    0    0 -0.00000000000E+00 -0.00000000000E+00  0.11368683772E-12  0.17120000000E+03  0.17120000000E+03 0.  0.
         13    1    1    2    0    0  0.32096499645E+01 -0.36750380119E+02  0.89337373458E+02  0.96654382995E+02  0.10566000000E+00 0.  1.
        994    1    1    2    0    0  0.20173779409E+01  0.41913206996E+02  0.12911843972E+02  0.17673975911E+03  0.17120000000E+03 0.  0.
        998    1    1    2    0    0 -0.52270279054E+01 -0.51628268773E+01  0.13977507788E+04  0.13978058579E+04  0.10000000000E+02 0.  1.
</event>
<event>
 5    1  0.1106231E-008  0.3842828E+03  0.7957747E-01  0.3432720E+00
         13   -1    0    0    0    0  0.00000000000E+00  0.00000000000E+00  0.14999999963E+04  0.15000000000E+04  0.10566000000E+00 0.  1.
        994   -1    0    0    0    0 -0.00000000000E+00 -0.00000000000E+00  0.11368683772E-12  0.17120000000E+03  0.17120000000E+03 0.  0.
         13    1    1    2    0    0  0.12331808632E+01 -0.10000405734E+02  0.24663553909E+02  0.26642651995E+02  0.10566000000E+00 0.  1.
        994    1    1    2    0    0 -0.10933129270E+02  0.93662792584E+01  0.26701249366E+01  0.17182499838E+03  0.17120000000E+03 0.  0.
        998    1    1    2    0    0  0.96999484068E+01  0.63412647509E+00  0.14726663174E+04  0.14727323496E+04  0.10000000000E+02 0.  1.
</event>
<event>
 5    1  0.1106231E-008  0.3780779E+03  0.7957747E-01  0.3459571E+00
         13   -1    0    0    0    0  0.00000000000E+00  0.00000000000E+00  0.14999999963E+04  0.15000000000E+04  0.10566000000E+00 0. -1.
        994   -1    0    0    0    0 -0.00000000000E+00 -0.00000000000E+00  0.11368683772E-12  0.17120000000E+03  0.17120000000E+03 0.  0.
         13    1    1    2    0    0 -0.40829831359E+02 -0.10439284575E+02  0.16178450682E+03  0.16718340708E+03  0.10566000000E+00 0. -1.
        994    1    1    2    0    0  0.33504088586E+02  0.10534519501E+02  0.92676548191E+01  0.17501094103E+03  0.17120000000E+03 0.  0.
        998    1    1    2    0    0  0.73257427737E+01 -0.95234926842E-01  0.13289478346E+04  0.13290056519E+04  0.10000000000E+02 0. -1.
</event>
<event>
 5    1  0.1106231E-008  0.3774958E+03  0.7957747E-01  0.3462135E+00
         13   -1    0    0    0    0  0.00000000000E+00  0.00000000000E+00  0.14999999963E+04  0.15000000000E+04  0.10566000000E+00 0. -1.
        994   -1    0    0    0    0 -0.00000000000E+00 -0.00000000000E+00  0.11368683772E-12  0.17120000000E+03  0.17120000000E+03 0.  0.
         13    1    1    2    0    0  0.83295975729E+01  0.34210139937E+02  0.10661995182E+03  0.11228330757E+03  0.10566000000E+00 0. -1.
        994    1    1    2    0    0 -0.95050154681E+01 -0.31941857448E+02  0.91554590060E+01  0.17465362867E+03  0.17120000000E+03 0.  0.
        998    1    1    2    0    0  0.11754178952E+01 -0.22682824890E+01  0.13842245855E+04  0.13842630638E+04  0.10000000000E+02 0. -1.
</event>
<event>
 5    1  0.1106231E-008  0.3820767E+03  0.7957747E-01  0.3442166E+00
         13   -1    0    0    0    0  0.00000000000E+00  0.00000000000E+00  0.14999999963E+04  0.15000000000E+04  0.10566000000E+00 0.  1.
        994   -1    0    0    0    0 -0.00000000000E+00 -0.00000000000E+00  0.11368683772E-12  0.17120000000E+03  0.17120000000E+03 0.  0.
         13    1    1    2    0    0  0.83149085011E+01 -0.60753547762E+01  0.15709613922E+02  0.18784322523E+02  0.10566000000E+00 0.  1.
        994    1    1    2    0    0 -0.10784156510E+02  0.55346352728E+01  0.35764717082E+01  0.17166584217E+03  0.17120000000E+03 0.  0.
        998    1    1    2    0    0  0.24692480093E+01  0.54071950334E+00  0.14807139106E+04  0.14807498353E+04  0.10000000000E+02 0.  1.
</event>
<event>
 5    1  0.1106231E-008  0.3837133E+03  0.7957747E-01  0.3435148E+00
         13   -1    0    0    0    0  0.00000000000E+00  0.00000000000E+00  0.14999999963E+04  0.15000000000E+04  0.10566000000E+00 0. -1.
        994   -1    0    0    0    0 -0.00000000000E+00 -0.00000000000E+00  0.11368683772E-12  0.17120000000E+03  0.17120000000E+03 0.  0.
         13    1    1    2    0    0 -0.43966036895E+01 -0.16667753855E+02  0.74783465381E+02  0.76744524241E+02  0.10566000000E+00 0. -1.
        994    1    1    2    0    0  0.54043888690E+02 -0.23379176804E+02  0.13806253360E+02  0.18156921668E+03  0.17120000000E+03 0.  0.
        998    1    1    2    0    0 -0.49647285001E+02  0.40046930659E+02  0.14114102775E+04  0.14128862591E+04  0.10000000000E+02 0. -1.
</event>
<event>
 5    1  0.1106231E-008  0.3748016E+03  0.7957747E-01  0.3474111E+00
         13   -1    0    0    0    0  0.00000000000E+00  0.00000000000E+00  0.14999999963E+04  0.15000000000E+04  0.10566000000E+00 0. -1.
        994   -1    0    0    0    0 -0.00000000000E+00 -0.00000000000E+00  0.11368683772E-12  0.17120000000E+03  0.17120000000E+03 0.  0.
         13    1    1    2    0    0  0.20310130749E+02  0.35920425541E+02  0.13430842376E+03  0.14050459864E+03  0.10566000000E+00 0. -1.
        994    1    1    2    0    0  0.71935203051E+01 -0.12281196093E+02  0.74700162641E+01  0.17195294605E+03  0.17120000000E+03 0.  0.
        998    1    1    2    0    0 -0.27503651054E+02 -0.23639229449E+02  0.13582215563E+04  0.13587424553E+04  0.10000000000E+02 0. -1.
</event>
<event>
 5    1  0.1106231E-008  0.3793951E+03  0.7957747E-01  0.3453797E+00
         13   -1    0    0    0    0  0.00000000000E+00  0.00000000000E+00  0.14999999963E+04  0.15000000000E+04  0.10566000000E+00 0.  1.
        994   -1    0    0    0    0 -0.00000000000E+00 -0.00000000000E+00  0.11368683772E-12  0.17120000000E+03  0.17120000000E+03 0.  0.
         13    1    1    2    0    0  0.30806884081E+02 -0.17724634373E+02  0.13257070932E+03  0.13725243497E+03  0.10566000000E+00 0.  1.
        994    1    1    2    0    0 -0.29160817291E+02  0.12668596071E+02  0.78321626605E+01  0.17430326837E+03  0.17120000000E+03 0.  0.
        998    1    1    2    0    0 -0.16460667903E+01  0.50560383026E+01  0.13595971243E+04  0.13596442967E+04  0.10000000000E+02 0.  1.
</event>
<event>
 5    1  0.1106231E-008  0.3743906E+03  0.7957747E-01  0.3475953E+00
         13   -1    0    0    0    0  0.00000000000E+00  0.00000000000E+00  0.14999999963E+04  0.15000000000E+04  0.10566000000E+00 0.  1.
        994   -1    0    0    0    0 -0.00000000000E+00 -0.00000000000E+00  0.11368683772E-12  0.17120000000E+03  0.17120000000E+03 0.  0.
         13    1    1    2    0    0  0.39103768621E+02 -0.86575811044E+02  0.55839484171E+03  0.56641794304E+03  0.10566000000E+00 0.  1.
        994    1    1    2    0    0  0.34068192125E+02  0.20345903830E+02  0.18891157632E+02  0.17675099251E+03  0.17120000000E+03 0.  0.
        998    1    1    2    0    0 -0.73171960747E+02  0.66229907214E+02  0.92271399693E+03  0.92803106445E+03  0.10000000000E+02 0.  1.
</event>
<event>
 5    1  0.1106231E-008  0.3763114E+03  0.7957747E-01  0.3467379E+00
         13   -1    0    0    0    0  0.00000000000E+00  0.00000000000E+00  0.14999999963E+04  0.15000000000E+04  0.10566000000E+00 0.  1.
        994   -1    0    0    0    0 -0.00000000000E+00 -0.00000000000E+00  0.11368683772E-12  0.17120000000E+03  0.17120000000E+03 0.  0.
         13    1    1    2    0    0 -0.37536213630E+00  0.41071249507E+02  0.11980916857E+03  0.12665400298E+03  0.10566000000E+00 0.  1.
        994    1    1    2    0    0  0.50922922167E+01 -0.54799455101E+02  0.16327074110E+02  0.18056833905E+03  0.17120000000E+03 0.  0.
        998    1    1    2    0    0 -0.47169300804E+01  0.13728205593E+02  0.13638637536E+04  0.13639776580E+04  0.10000000000E+02 0.  1.
</event>
<event>
 5    1  0.1106231E-008  0.3849512E+03  0.7957747E-01  0.3429879E+00
         13   -1    0    0    0    0  0.00000000000E+00  0.00000000000E+00  0.14999999963E+04  0.15000000000E+04  0.10566000000E+00 0.  1.
        994   -1    0    0    0    0 -0.00000000000E+00 -0.00000000000E+00  0.11368683772E-12  0.17120000000E+03  0.17120000000E+03 0.  0.
         13    1    1    2    0    0 -0.17940086498E+02  0.41746997065E+00  0.86710276623E+02  0.88547751077E+02  0.10566000000E+00 0.  1.
        994    1    1    2    0    0  0.28009023116E+02  0.55224036988E+01  0.43396415915E+01  0.17361818686E+03  0.17120000000E+03 0.  0.
        998    1    1    2    0    0 -0.10068936618E+02 -0.59398736695E+01  0.14089500781E+04  0.14090340621E+04  0.10000000000E+02 0.  1.
</event>
<event>
 5    1  0.1106231E-008  0.3780248E+03  0.7957747E-01  0.3459804E+00
         13   -1    0    0    0    0  0.00000000000E+00  0.00000000000E+00  0.14999999963E+04  0.15000000000E+04  0.10566000000E+00 0.  1.
        994   -1    0    0    0    0 -0.00000000000E+00 -0.00000000000E+00  0.11368683772E-12  0.17120000000E+03  0.17120000000E+03 0.  0.
         13    1    1    2    0    0  0.15852136513E+03  0.48750852067E+02  0.50563685993E+03  0.53214125386E+03  0.10566000000E+00 0.  1.
        994    1    1    2    0    0 -0.14746112213E+03 -0.13511512293E+03  0.17752017308E+03  0.31752752768E+03  0.17120000000E+03 0.  0.
        998    1    1    2    0    0 -0.11060243008E+02  0.86364270865E+02  0.81684296327E+03  0.82153121846E+03  0.10000000000E+02 0.  1.
</event>
<event>
 5    1  0.1106231E-008  0.3807220E+03  0.7957747E-01  0.3448021E+00
         13   -1    0    0    0    0  0.00000000000E+00  0.00000000000E+00  0.14999999963E+04  0.15000000000E+04  0.10566000000E+00 0.  1.
        994   -1    0    0    0    0 -0.00000000000E+00 -0.00000000000E+00  0.11368683772E-12  0.17120000000E+03  0.17120000000E+03 0.  0.
         13    1    1    2    0    0  0.54671203099E+01 -0.22500866228E+02  0.67666335466E+02  0.71518686404E+02  0.10566000000E+00 0.  1.
        994    1    1    2    0    0 -0.59194833973E+01  0.20857278931E+02  0.53383511140E+01  0.17264994747E+03  0.17120000000E+03 0.  0.
        998    1    1    2    0    0  0.45236308739E+00  0.16435872976E+01  0.14269953097E+04  0.14270313661E+04  0.10000000000E+02 0.  0.
</event>
<event>
 5    1  0.1106231E-008  0.3720843E+03  0.7957747E-01  0.3486366E+00
         13   -1    0    0    0    0  0.00000000000E+00  0.00000000000E+00  0.14999999963E+04  0.15000000000E+04  0.10566000000E+00 0. -1.
        994   -1    0    0    0    0 -0.00000000000E+00 -0.00000000000E+00  0.11368683772E-12  0.17120000000E+03  0.17120000000E+03 0.  0.
         13    1    1    2    0    0  0.21315944227E+02  0.45721098429E+02  0.15330161001E+03  0.16138829919E+03  0.10566000000E+00 0. -1.
        994    1    1    2    0    0  0.24391127939E+02 -0.44840492090E+02  0.17182188199E+02  0.17947218293E+03  0.17120000000E+03 0.  0.
        998    1    1    2    0    0 -0.45707072167E+02 -0.88060633913E+00  0.13295161981E+04  0.13303395179E+04  0.10000000000E+02 0. -1.
</event>
<event>
 5    1  0.1106231E-008  0.3692475E+03  0.7957747E-01  0.3499357E+00
         13   -1    0    0    0    0  0.00000000000E+00  0.00000000000E+00  0.14999999963E+04  0.15000000000E+04  0.10566000000E+00 0. -1.
        994   -1    0    0    0    0 -0.00000000000E+00 -0.00000000000E+00  0.11368683772E-12  0.17120000000E+03  0.17120000000E+03 0.  0.
         13    1    1    2    0    0 -0.48406867249E+02  0.52047158055E+02  0.31686200003E+03  0.32473630793E+03  0.10566000000E+00 0. -1.
        994    1    1    2    0    0 -0.18489922610E+02 -0.14809591241E+02  0.12500679286E+02  0.17328274067E+03  0.17120000000E+03 0.  0.
        998    1    1    2    0    0  0.66896789859E+02 -0.37237566814E+02  0.11706373170E+04  0.11731809514E+04  0.10000000000E+02 0. -1.
</event>
<event>
 5    1  0.1106231E-008  0.3819722E+03  0.7957747E-01  0.3442616E+00
         13   -1    0    0    0    0  0.00000000000E+00  0.00000000000E+00  0.14999999963E+04  0.15000000000E+04  0.10566000000E+00 0.  1.
        994   -1    0    0    0    0 -0.00000000000E+00 -0.00000000000E+00  0.11368683772E-12  0.17120000000E+03  0.17120000000E+03 0.  0.
         13    1    1    2    0    0  0.12598983539E+02 -0.35900044379E+01  0.26763734683E+02  0.29798174043E+02  0.10566000000E+00 0.  1.
        994    1    1    2    0    0 -0.34149303190E+01 -0.59428839430E+01  0.32969188033E+01  0.17136886909E+03  0.17120000000E+03 0.  0.
        998    1    1    2    0    0 -0.91840532198E+01  0.95328883809E+01  0.14699393428E+04  0.14700329569E+04  0.10000000000E+02 0.  1.
</event>
<event>
 5    1  0.1106231E-008  0.3724801E+03  0.7957747E-01  0.3484570E+00
         13   -1    0    0    0    0  0.00000000000E+00  0.00000000000E+00  0.14999999963E+04  0.15000000000E+04  0.10566000000E+00 0. -1.
        994   -1    0    0    0    0 -0.00000000000E+00 -0.00000000000E+00  0.11368683772E-12  0.17120000000E+03  0.17120000000E+03 0.  0.
         13    1    1    2    0    0  0.10298001801E+03 -0.55653149432E+02  0.60521896350E+03  0.61643504289E+03  0.10566000000E+00 0. -1.
        994    1    1    2    0    0 -0.28823572795E+02  0.93159572128E+02  0.46596273099E+02  0.20246026004E+03  0.17120000000E+03 0.  0.
        998    1    1    2    0    0 -0.74156445213E+02 -0.37506422696E+02  0.84818475968E+03  0.85230469708E+03  0.10000000000E+02 0. -1.
</event>
<event>
 5    1  0.1106231E-008  0.3842186E+03  0.7957747E-01  0.3432993E+00
         13   -1    0    0    0    0  0.00000000000E+00  0.00000000000E+00  0.14999999963E+04  0.15000000000E+04  0.10566000000E+00 0.  1.
        994   -1    0    0    0    0 -0.00000000000E+00 -0.00000000000E+00  0.11368683772E-12  0.17120000000E+03  0.17120000000E+03 0.  0.
         13    1    1    2    0    0 -0.54891904630E+01  0.22506170462E+02  0.11997340455E+03  0.12218955718E+03  0.10566000000E+00 0.  1.
        994    1    1    2    0    0  0.16031898770E+02 -0.24341399375E+02  0.48245111864E+01  0.17373036985E+03  0.17120000000E+03 0.  0.
        998    1    1    2    0    0 -0.10542708307E+02  0.18352289128E+01  0.13752020805E+04  0.13752800730E+04  0.10000000000E+02 0.  1.
</event>
<event>
 5    1  0.1106231E-008  0.3811408E+03  0.7957747E-01  0.3446206E+00
         13   -1    0    0    0    0  0.00000000000E+00  0.00000000000E+00  0.14999999963E+04  0.15000000000E+04  0.10566000000E+00 0. -1.
        994   -1    0    0    0    0 -0.00000000000E+00 -0.00000000000E+00  0.11368683772E-12  0.17120000000E+03  0.17120000000E+03 0.  0.
         13    1    1    2    0    0  0.17561106930E+02  0.27923816733E+01  0.41676226517E+02  0.45311244661E+02  0.10566000000E+00 0. -1.
        994    1    1    2    0    0 -0.19659689702E+02 -0.10668956287E+02  0.52264328572E+01  0.17273414725E+03  0.17120000000E+03 0.  0.
        998    1    1    2    0    0  0.20985827715E+01  0.78765746133E+01  0.14530973369E+04  0.14531546081E+04  0.10000000000E+02 0. -1.
</event>
<event>
 5    1  0.1106231E-008  0.3792648E+03  0.7957747E-01  0.3454366E+00
         13   -1    0    0    0    0  0.00000000000E+00  0.00000000000E+00  0.14999999963E+04  0.15000000000E+04  0.10566000000E+00 0. -1.
        994   -1    0    0    0    0 -0.00000000000E+00 -0.00000000000E+00  0.11368683772E-12  0.17120000000E+03  0.17120000000E+03 0.  0.
         13    1    1    2    0    0  0.76844840492E+01  0.85798506403E+01  0.13114708396E+02  0.17454852404E+02  0.10566000000E+00 0. -1.
        994    1    1    2    0    0  0.84553101201E+01 -0.28546522803E+01  0.47716400494E+01  0.17149883340E+03  0.17120000000E+03 0.  0.
        998    1    1    2    0    0 -0.16139794169E+02 -0.57251983600E+01  0.14821136478E+04  0.14822463142E+04  0.10000000000E+02 0. -1.
</event>
<event>
 5    1  0.1106231E-008  0.3852640E+03  0.7957747E-01  0.3428553E+00
         13   -1    0    0    0    0  0.00000000000E+00  0.00000000000E+00  0.14999999963E+04  0.15000000000E+04  0.10566000000E+00 0. -1.
        994   -1    0    0    0    0 -0.00000000000E+00 -0.00000000000E+00  0.11368683772E-12  0.17120000000E+03  0.17120000000E+03 0.  0.
         13    1    1    2    0    0  0.15627824794E+02  0.35007050162E+01  0.82332862288E+02  0.83876070604E+02  0.10566000000E+00 0. -1.
        994    1    1    2    0    0 -0.15417755441E+02 -0.42726894540E+01  0.23406185650E+01  0.17196186075E+03  0.17120000000E+03 0.  0.
        998    1    1    2    0    0 -0.21006935264E+00  0.77198443779E+00  0.14153265154E+04  0.14153620686E+04  0.10000000000E+02 0.  0.
</event>
<event>
 5    1  0.1106231E-008  0.3885960E+03  0.7957747E-01  0.3414563E+00
         13   -1    0    0    0    0  0.00000000000E+00  0.00000000000E+00  0.14999999963E+04  0.15000000000E+04  0.10566000000E+00 0. -1.
        994   -1    0    0    0    0 -0.00000000000E+00 -0.00000000000E+00  0.11368683772E-12  0.17120000000E+03  0.17120000000E+03 0.  0.
         13    1    1    2    0    0 -0.64061125128E+02 -0.61547626294E+02  0.15938155436E+03  0.18246761107E+03  0.10566000000E+00 0. -1.
        994    1    1    2    0    0  0.60907688206E+02  0.68876388944E+02  0.53509591987E+02  0.20155996594E+03  0.17120000000E+03 0.  0.
        998    1    1    2    0    0  0.31534369221E+01 -0.73287626499E+01  0.12871088499E+04  0.12871724230E+04  0.10000000000E+02 0. -1.
</event>
<event>
 5    1  0.1106231E-008  0.3809766E+03  0.7957747E-01  0.3446917E+00
         13   -1    0    0    0    0  0.00000000000E+00  0.00000000000E+00  0.14999999963E+04  0.15000000000E+04  0.10566000000E+00 0.  1.
        994   -1    0    0    0    0 -0.00000000000E+00 -0.00000000000E+00  0.11368683772E-12  0.17120000000E+03  0.17120000000E+03 0.  0.
         13    1    1    2    0    0  0.14188129419E+02 -0.32253404570E+02  0.15438687683E+03  0.15835688815E+03  0.10566000000E+00 0.  1.
        994    1    1    2    0    0 -0.20708626097E+02  0.28567007023E+02  0.78003674578E+01  0.17497201724E+03  0.17120000000E+03 0.  0.
        998    1    1    2    0    0  0.65204966779E+01  0.36863975466E+01  0.13378127520E+04  0.13378710946E+04  0.10000000000E+02 0.  1.
</event>
<event>
 5    1  0.1106231E-008  0.3794087E+03  0.7957747E-01  0.3453737E+00
         13   -1    0    0    0    0  0.00000000000E+00  0.00000000000E+00  0.14999999963E+04  0.15000000000E+04  0.10566000000E+00 0. -1.
        994   -1    0    0    0    0 -0.00000000000E+00 -0.00000000000E+00  0.11368683772E-12  0.17120000000E+03  0.17120000000E+03 0.  0.
         13    1    1    2    0    0  0.82792588607E+02  0.61681182224E+02  0.25305309377E+03  0.27330397070E+03  0.10566000000E+00 0. -1.
        994    1    1    2    0    0 -0.86371385201E+02 -0.77049121029E+02  0.66196268155E+02  0.21699762476E+03  0.17120000000E+03 0.  0.
        998    1    1    2    0    0  0.35787965945E+01  0.15367938805E+02  0.11807506344E+04  0.11808984045E+04  0.10000000000E+02 0. -1.
</event>
<event>
 5    1  0.1106231E-008  0.3841229E+03  0.7957747E-01  0.3433400E+00
         13   -1    0    0    0    0  0.00000000000E+00  0.00000000000E+00  0.14999999963E+04  0.15000000000E+04  0.10566000000E+00 0.  1.
        994   -1    0    0    0    0 -0.00000000000E+00 -0.00000000000E+00  0.11368683772E-12  0.17120000000E+03  0.17120000000E+03 0.  0.
         13    1    1    2    0    0  0.15404718570E+02 -0.55460179699E+01  0.65471042498E+02  0.67487274648E+02  0.10566000000E+00 0.  1.
        994    1    1    2    0    0 -0.30473779756E+01  0.15782381585E+02  0.29187779964E+01  0.17197770014E+03  0.17120000000E+03 0.  0.
        998    1    1    2    0    0 -0.12357340594E+02 -0.10236363615E+02  0.14316101758E+04  0.14317350252E+04  0.10000000000E+02 0.  1.
</event>
<event>
 5    1  0.1106231E-008  0.3804159E+03  0.7957747E-01  0.3449350E+00
         13   -1    0    0    0    0  0.00000000000E+00  0.00000000000E+00  0.14999999963E+04  0.15000000000E+04  0.10566000000E+00 0.  1.
        994   -1    0    0    0    0 -0.00000000000E+00 -0.00000000000E+00  0.11368683772E-12  0.17120000000E+03  0.17120000000E+03 0.  0.
         13    1    1    2    0    0 -0.20734737467E+02  0.31747628960E+01  0.54233890707E+02  0.58149243524E+02  0.10566000000E+00 0.  1.
        994    1    1    2    0    0  0.14327334220E+02 -0.88559546391E+01  0.48710124094E+01  0.17209551766E+03  0.17120000000E+03 0.  0.
        998    1    1    2    0    0  0.64074032469E+01  0.56811917432E+01  0.14408950932E+04  0.14409552388E+04  0.10000000000E+02 0.  1.
</event>
<event>
 5    1  0.1106231E-008  0.3769721E+03  0.7957747E-01  0.3464449E+00
         13   -1    0    0    0    0  0.00000000000E+00  0.00000000000E+00  0.14999999963E+04  0.15000000000E+04  0.10566000000E+00 0.  1.
        994   -1    0    0    0    0 -0.00000000000E+00 -0.00000000000E+00  0.11368683772E-12  0.17120000000E+03  0.17120000000E+03 0.  0.
         13    1    1    2    0    0  0.20816340775E+03 -0.57462454376E+02  0.10210269802E+04  0.10436139341E+04  0.10566000000E+00 0.  1.
        994    1    1    2    0    0 -0.20955898207E+03  0.39177728818E+02  0.17881429267E+03  0.32670147332E+03  0.17120000000E+03 0.  0.
        998    1    1    2    0    0  0.13955743222E+01  0.18284725558E+02  0.30015872339E+03  0.30088459257E+03  0.10000000000E+02 0.  1.
</event>
<event>
 5    1  0.1106231E-008  0.3819544E+03  0.7957747E-01  0.3442693E+00
         13   -1    0    0    0    0  0.00000000000E+00  0.00000000000E+00  0.14999999963E+04  0.15000000000E+04  0.10566000000E+00 0.  1.
        994   -1    0    0    0    0 -0.00000000000E+00 -0.00000000000E+00  0.11368683772E-12  0.17120000000E+03  0.17120000000E+03 0.  0.
         13    1    1    2    0    0 -0.22348724755E+02 -0.61149158106E+01  0.82525356615E+02  0.85716412326E+02  0.10566000000E+00 0.  1.
        994    1    1    2    0    0  0.20088835007E+02 -0.38426216094E+01  0.45405290893E+01  0.17247719686E+03  0.17120000000E+03 0.  0.
        998    1    1    2    0    0  0.22598897474E+01  0.99575374199E+01  0.14129341106E+04  0.14130063908E+04  0.10000000000E+02 0.  1.
</event>
<event>
 5    1  0.1106231E-008  0.3792681E+03  0.7957747E-01  0.3454352E+00
         13   -1    0    0    0    0  0.00000000000E+00  0.00000000000E+00  0.14999999963E+04  0.15000000000E+04  0.10566000000E+00 0.  1.
        994   -1    0    0    0    0 -0.00000000000E+00 -0.00000000000E+00  0.11368683772E-12  0.17120000000E+03  0.17120000000E+03 0.  0.
         13    1    1    2    0    0 -0.56088894687E+01  0.49341076846E+02  0.26317743004E+03  0.26782153079E+03  0.10566000000E+00 0.  1.
        994    1    1    2    0    0  0.18594086591E+01 -0.32428580423E+02  0.80467337478E+01  0.17443984680E+03  0.17120000000E+03 0.  0.
        998    1    1    2    0    0  0.37494808096E+01 -0.16912496423E+02  0.12287758325E+04  0.12289386224E+04  0.10000000000E+02 0.  1.
</event>
<event>
 5    1  0.1106231E-008  0.3832935E+03  0.7957747E-01  0.3436942E+00
         13   -1    0    0    0    0  0.00000000000E+00  0.00000000000E+00  0.14999999963E+04  0.15000000000E+04  0.10566000000E+00 0.  1.
        994   -1    0    0    0    0 -0.00000000000E+00 -0.00000000000E+00  0.11368683772E-12  0.17120000000E+03  0.17120000000E+03 0.  0.
         13    1    1    2    0    0 -0.16549989247E+02 -0.45650172538E+01  0.66482181120E+02  0.68663185894E+02  0.10566000000E+00 0.  1.
        994    1    1    2    0    0 -0.17423884527E+02  0.20993801969E+02  0.49450973830E+01  0.17343075120E+03  0.17120000000E+03 0.  0.
        998    1    1    2    0    0  0.33973873774E+02 -0.16428784715E+02  0.14285727178E+04  0.14291060629E+04  0.10000000000E+02 0.  1.
</event>
<event>
 5    1  0.1106231E-008  0.3842176E+03  0.7957747E-01  0.3432997E+00
         13   -1    0    0    0    0  0.00000000000E+00  0.00000000000E+00  0.14999999963E+04  0.15000000000E+04  0.10566000000E+00 0.  1.
        994   -1    0    0    0    0 -0.00000000000E+00 -0.00000000000E+00  0.11368683772E-12  0.17120000000E+03  0.17120000000E+03 0.  0.
         13    1    1    2    0    0 -0.90233530236E+01 -0.10885450701E+02  0.47895488428E+02  0.49938991906E+02  0.10566000000E+00 0.  1.
        994    1    1    2    0    0  0.83425546282E+01  0.11892473774E+02  0.27151768669E+01  0.17183667052E+03  0.17120000000E+03 0.  0.
        998    1    1    2    0    0  0.68079839542E+00 -0.10070230730E+01  0.14493893310E+04  0.14494243376E+04  0.10000000000E+02 0.  0.
</event>
<event>
 5    1  0.1106231E-008  0.3829211E+03  0.7957747E-01  0.3438537E+00
         13   -1    0    0    0    0  0.00000000000E+00  0.00000000000E+00  0.14999999963E+04  0.15000000000E+04  0.10566000000E+00 0. -1.
        994   -1    0    0    0    0 -0.00000000000E+00 -0.00000000000E+00  0.11368683772E-12  0.17120000000E+03  0.17120000000E+03 0.  0.
         13    1    1    2    0    0 -0.18589056225E+02 -0.23855725205E+02  0.17420309886E+03  0.17680887832E+03  0.10566000000E+00 0. -1.
        994    1    1    2    0    0  0.18492070144E+02  0.54787006085E+01  0.38983761311E+01  0.17232704418E+03  0.17120000000E+03 0.  0.
        998    1    1    2    0    0  0.96986080681E-01  0.18377024596E+02  0.13218985213E+04  0.13220640775E+04  0.10000000000E+02 0. -1.
</event>
<event>
 5    1  0.1106231E-008  0.3804675E+03  0.7957747E-01  0.3449125E+00
         13   -1    0    0    0    0  0.00000000000E+00  0.00000000000E+00  0.14999999963E+04  0.15000000000E+04  0.10566000000E+00 0.  1.
        994   -1    0    0    0    0 -0.00000000000E+00 -0.00000000000E+00  0.11368683772E-12  0.17120000000E+03  0.17120000000E+03 0.  0.
         13    1    1    2    0    0 -0.38430488462E+01 -0.13121963628E+02  0.21785963576E+02  0.25721475985E+02  0.10566000000E+00 0.  1.
        994    1    1    2    0    0  0.90045293962E+01  0.17440788215E+02  0.51843025494E+01  0.17239947690E+03  0.17120000000E+03 0.  0.
        998    1    1    2    0    0 -0.51614805500E+01 -0.43188245872E+01  0.14730297302E+04  0.14730790471E+04  0.10000000000E+02 0.  1.
</event>
<event>
 5    1  0.1106231E-008  0.3798219E+03  0.7957747E-01  0.3451934E+00
         13   -1    0    0    0    0  0.00000000000E+00  0.00000000000E+00  0.14999999963E+04  0.15000000000E+04  0.10566000000E+00 0. -1.
        994   -1    0    0    0    0 -0.00000000000E+00 -0.00000000000E+00  0.11368683772E-12  0.17120000000E+03  0.17120000000E+03 0.  0.
         13    1    1    2    0    0  0.37835944644E+02 -0.40369127108E+02  0.29376798816E+03  0.29893288070E+03  0.10566000000E+00 0. -1.
        994    1    1    2    0    0 -0.30826133595E+02  0.46441880490E+02  0.14686913666E+02  0.18064397086E+03  0.17120000000E+03 0.  0.
        998    1    1    2    0    0 -0.70098110487E+01 -0.60727533825E+01  0.11915450945E+04  0.11916231484E+04  0.10000000000E+02 0. -1.
</event>
<event>
 5    1  0.1106231E-008  0.3781094E+03  0.7957747E-01  0.3459432E+00
         13   -1    0    0    0    0  0.00000000000E+00  0.00000000000E+00  0.14999999963E+04  0.15000000000E+04  0.10566000000E+00 0. -1.
        994   -1    0    0    0    0 -0.00000000000E+00 -0.00000000000E+00  0.11368683772E-12  0.17120000000E+03  0.17120000000E+03 0.  0.
         13    1    1    2    0    0  0.17095017073E+02 -0.25745994375E+02  0.89253386281E+02  0.94452495794E+02  0.10566000000E+00 0. -1.
        994    1    1    2    0    0 -0.12866063086E+02  0.22395102266E+02  0.73378037151E+01  0.17329269906E+03  0.17120000000E+03 0.  0.
        998    1    1    2    0    0 -0.42289539868E+01  0.33508921088E+01  0.14034088063E+04  0.14034548051E+04  0.10000000000E+02 0. -1.
</event>
<event>
 5    1  0.2366160E-008  0.3854817E+03  0.7957747E-01  0.3427632E+00
         13   -1    0    0    0    0  0.00000000000E+00  0.00000000000E+00  0.14999999963E+04  0.15000000000E+04  0.10566000000E+00 0.  1.
        994   -1    0    0    0    0 -0.00000000000E+00 -0.00000000000E+00  0.11368683772E-12  0.17120000000E+03  0.17120000000E+03 0.  0.
         13    1    1    2    0    0 -0.99913906368E+01 -0.39573356657E+01  0.40767976316E+02  0.42160733501E+02  0.10566000000E+00 0.  1.
        994    1    1    2    0    0  0.10867368154E+02  0.27619347589E+01  0.18041019979E+01  0.17157628845E+03  0.17120000000E+03 0.  0.
        998    1    1    2    0    0 -0.87597751760E+00  0.11954009069E+01  0.14574279180E+04  0.14574629780E+04  0.10000000000E+02 0.  1.
</event>
<event>
 5    1  0.1753570E-008  0.3862221E+03  0.7957747E-01  0.3424506E+00
         13   -1    0    0    0    0  0.00000000000E+00  0.00000000000E+00  0.14999999963E+04  0.15000000000E+04  0.10566000000E+00 0. -1.
        994   -1    0    0    0    0 -0.00000000000E+00 -0.00000000000E+00  0.11368683772E-12  0.17120000000E+03  0.17120000000E+03 0.  0.
         13    1    1    2    0    0  0.40985055349E+01  0.10797299246E+02  0.62674432348E+02  0.63729703066E+02  0.10566000000E+00 0. -1.
        994    1    1    2    0    0 -0.69207404303E+01 -0.13031618812E+02  0.17380855221E+01  0.17184347726E+03  0.17120000000E+03 0.  0.
        998    1    1    2    0    0  0.28222348954E+01  0.22343195665E+01  0.14355874784E+04  0.14356268197E+04  0.10000000000E+02 0. -1.
</event>
<event>
 5    1  0.1106231E-008  0.3781959E+03  0.7957747E-01  0.3459052E+00
         13   -1    0    0    0    0  0.00000000000E+00  0.00000000000E+00  0.14999999963E+04  0.15000000000E+04  0.10566000000E+00 0. -1.
        994   -1    0    0    0    0 -0.00000000000E+00 -0.00000000000E+00  0.11368683772E-12  0.17120000000E+03  0.17120000000E+03 0.  0.
         13    1    1    2    0    0 -0.15150437473E+02  0.12262261022E+02  0.35103219739E+02  0.40151537967E+02  0.10566000000E+00 0. -1.
        994    1    1    2    0    0  0.12208370763E+02 -0.13454691400E+02  0.61574200438E+01  0.17227137562E+03  0.17120000000E+03 0.  0.
        998    1    1    2    0    0  0.29420667104E+01  0.11924303775E+01  0.14587393565E+04  0.14587770864E+04  0.10000000000E+02 0. -1.
</event>
<event>
 5    1  0.1106231E-008  0.3762547E+03  0.7957747E-01  0.3467630E+00
         13   -1    0    0    0    0  0.00000000000E+00  0.00000000000E+00  0.14999999963E+04  0.15000000000E+04  0.10566000000E+00 0. -1.
        994   -1    0    0    0    0 -0.00000000000E+00 -0.00000000000E+00  0.11368683772E-12  0.17120000000E+03  0.17120000000E+03 0.  0.
         13    1    1    2    0    0 -0.12191360476E+03  0.31803872313E+02  0.46075655867E+03  0.47767251422E+03  0.10566000000E+00 0. -1.
        994    1    1    2    0    0  0.90381903108E+02 -0.46726932293E+02  0.52284287292E+02  0.20590138734E+03  0.17120000000E+03 0.  0.
        998    1    1    2    0    0  0.31531701648E+02  0.14923059981E+02  0.98695915031E+03  0.98762609844E+03  0.10000000000E+02 0. -1.
</event>
<event>
 5    1  0.1106231E-008  0.3759492E+03  0.7957747E-01  0.3468989E+00
         13   -1    0    0    0    0  0.00000000000E+00  0.00000000000E+00  0.14999999963E+04  0.15000000000E+04  0.10566000000E+00 0. -1.
        994   -1    0    0    0    0 -0.00000000000E+00 -0.00000000000E+00  0.11368683772E-12  0.17120000000E+03  0.17120000000E+03 0.  0.
         13    1    1    2    0    0 -0.42192568763E+02  0.28126794029E+02  0.20648134309E+03  0.21261675760E+03  0.10566000000E+00 0. -1.
        994    1    1    2    0    0  0.36951901489E+02  0.28199756794E+01  0.10859841364E+02  0.17550148558E+03  0.17120000000E+03 0.  0.
        998    1    1    2    0    0  0.52406672733E+01 -0.30946769708E+02  0.12826588118E+04  0.12830817568E+04  0.10000000000E+02 0. -1.
</event>
<event>
 5    1  0.1106231E-008  0.3149775E+03  0.7957747E-01  0.3794574E+00
         13   -1    0    0    0    0  0.00000000000E+00  0.00000000000E+00  0.14999999963E+04  0.15000000000E+04  0.10566000000E+00 0.  1.
        994   -1    0    0    0    0 -0.00000000000E+00 -0.00000000000E+00  0.11368683772E-12  0.17120000000E+03  0.17120000000E+03 0.  0.
         13    1    1    2    0    0  0.84144134653E+02  0.20001226976E+03  0.98490307612E+03  0.10085232888E+04  0.10566000000E+00 0.  1.
        994    1    1    2    0    0 -0.61994549185E+02 -0.76554767020E+02  0.85851395335E+02  0.21536912166E+03  0.17120000000E+03 0.  0.
        998    1    1    2    0    0 -0.22149585468E+02 -0.12345750274E+03  0.42924552483E+03  0.44730758959E+03  0.10000000000E+02 0.  1.
</event>
<event>
 5    1  0.1209676E-008  0.3862337E+03  0.7957747E-01  0.3424457E+00
         13   -1    0    0    0    0  0.00000000000E+00  0.00000000000E+00  0.14999999963E+04  0.15000000000E+04  0.10566000000E+00 0.  1.
        994   -1    0    0    0    0 -0.00000000000E+00 -0.00000000000E+00  0.11368683772E-12  0.17120000000E+03  0.17120000000E+03 0.  0.
         13    1    1    2    0    0 -0.88321604625E+01 -0.11224677728E+02  0.82123723098E+02  0.83356568476E+02  0.10566000000E+00 0.  1.
        994    1    1    2    0    0  0.11275701317E+02  0.34945174806E+02  0.54477844676E+01  0.17517826645E+03  0.17120000000E+03 0.  0.
        998    1    1    2    0    0 -0.24435408546E+01 -0.23720497078E+02  0.14124284887E+04  0.14126651651E+04  0.10000000000E+02 0.  1.
</event>
<event>
 5    1  0.1106231E-008  0.3780138E+03  0.7957747E-01  0.3459853E+00
         13   -1    0    0    0    0  0.00000000000E+00  0.00000000000E+00  0.14999999963E+04  0.15000000000E+04  0.10566000000E+00 0.  1.
        994   -1    0    0    0    0 -0.00000000000E+00 -0.00000000000E+00  0.11368683772E-12  0.17120000000E+03  0.17120000000E+03 0.  0.
         13    1    1    2    0    0 -0.26930357416E+01 -0.47628416534E+02  0.17795663121E+03  0.18423976839E+03  0.10566000000E+00 0.  1.
        994    1    1    2    0    0  0.70120755805E+01  0.61756773588E+02  0.18250500815E+02  0.18304531971E+03  0.17120000000E+03 0.  0.
        998    1    1    2    0    0 -0.43190398389E+01 -0.14128357054E+02  0.13037928643E+04  0.13039149119E+04  0.10000000000E+02 0.  1.
</event>
<event>
 5    1  0.1106231E-008  0.3808746E+03  0.7957747E-01  0.3447359E+00
         13   -1    0    0    0    0  0.00000000000E+00  0.00000000000E+00  0.14999999963E+04  0.15000000000E+04  0.10566000000E+00 0.  1.
        994   -1    0    0    0    0 -0.00000000000E+00 -0.00000000000E+00  0.11368683772E-12  0.17120000000E+03  0.17120000000E+03 0.  0.
         13    1    1    2    0    0  0.56594234874E+01 -0.15549000813E+02  0.35646238717E+02  0.39299694645E+02  0.10566000000E+00 0.  1.
        994    1    1    2    0    0 -0.58595222725E+00  0.11906082553E+02  0.41661171947E+01  0.17166506539E+03  0.17120000000E+03 0.  0.
        998    1    1    2    0    0 -0.50734712601E+01  0.36429182597E+01  0.14601876404E+04  0.14602352400E+04  0.10000000000E+02 0.  1.
</event>
<event>
 5    1  0.1106231E-008  0.3806585E+03  0.7957747E-01  0.3448296E+00
         13   -1    0    0    0    0  0.00000000000E+00  0.00000000000E+00  0.14999999963E+04  0.15000000000E+04  0.10566000000E+00 0. -1.
        994   -1    0    0    0    0 -0.00000000000E+00 -0.00000000000E+00  0.11368683772E-12  0.17120000000E+03  0.17120000000E+03 0.  0.
         13    1    1    2    0    0 -0.11441009083E+02  0.24554514292E+02  0.97382493222E+02  0.10108007722E+03  0.10566000000E+00 0. -1.
        994    1    1    2    0    0  0.91915200557E+01 -0.93561833322E+01  0.43751425560E+01  0.17175739891E+03  0.17120000000E+03 0.  0.
        998    1    1    2    0    0  0.22494890271E+01 -0.15198330960E+02  0.13982423605E+04  0.13983625239E+04  0.10000000000E+02 0. -1.
</event>
<event>
 5    1  0.1106231E-008  0.3813397E+03  0.7957747E-01  0.3445346E+00
         13   -1    0    0    0    0  0.00000000000E+00  0.00000000000E+00  0.14999999963E+04  0.15000000000E+04  0.10566000000E+00 0. -1.
        994   -1    0    0    0    0 -0.00000000000E+00 -0.00000000000E+00  0.11368683772E-12  0.17120000000E+03  0.17120000000E+03 0.  0.
         13    1    1    2    0    0  0.13759366533E+02  0.11840743936E+02  0.48808199004E+02  0.52074704401E+02  0.10566000000E+00 0. -1.
        994    1    1    2    0    0  0.19867171071E+02 -0.22558997389E+02  0.64715867984E+01  0.17393945580E+03  0.17120000000E+03 0.  0.
        998    1    1    2    0    0 -0.33626537605E+02  0.10718253453E+02  0.14447202105E+04  0.14451858398E+04  0.10000000000E+02 0. -1.
</event>
<event>
 5    1  0.1106231E-008  0.3790261E+03  0.7957747E-01  0.3455410E+00
         13   -1    0    0    0    0  0.00000000000E+00  0.00000000000E+00  0.14999999963E+04  0.15000000000E+04  0.10566000000E+00 0.  1.
        994   -1    0    0    0    0 -0.00000000000E+00 -0.00000000000E+00  0.11368683772E-12  0.17120000000E+03  0.17120000000E+03 0.  0.
         13    1    1    2    0    0 -0.15189951604E+02  0.76681078832E+02  0.44532644454E+03  0.45213535125E+03  0.10566000000E+00 0.  1.
        994    1    1    2    0    0  0.10185825639E+02 -0.80843437030E+02  0.27224603128E+02  0.19154642093E+03  0.17120000000E+03 0.  0.
        998    1    1    2    0    0  0.50041259645E+01  0.41623581983E+01  0.10274489486E+04  0.10275182278E+04  0.10000000000E+02 0.  1.
</event>
<event>
 5    1  0.1106231E-008  0.3962920E+03  0.7957747E-01  0.3383149E+00
         13   -1    0    0    0    0  0.00000000000E+00  0.00000000000E+00  0.14999999963E+04  0.15000000000E+04  0.10566000000E+00 0. -1.
        994   -1    0    0    0    0 -0.00000000000E+00 -0.00000000000E+00  0.11368683772E-12  0.17120000000E+03  0.17120000000E+03 0.  0.
         13    1    1    2    0    0 -0.18769627955E+02  0.16137492543E+02  0.71308626420E+00  0.24763627666E+02  0.10566000000E+00 0. -1.
        994    1    1    2    0    0  0.23886397707E+02 -0.22430408792E+02  0.29732047510E+02  0.17682510535E+03  0.17120000000E+03 0.  0.
        998    1    1    2    0    0 -0.51167697519E+01  0.62929162496E+01  0.14695548625E+04  0.14696112670E+04  0.10000000000E+02 0. -1.
</event>
<event>
 5    1  0.1106231E-008  0.3756428E+03  0.7957747E-01  0.3470353E+00
         13   -1    0    0    0    0  0.00000000000E+00  0.00000000000E+00  0.14999999963E+04  0.15000000000E+04  0.10566000000E+00 0.  1.
        994   -1    0    0    0    0 -0.00000000000E+00 -0.00000000000E+00  0.11368683772E-12  0.17120000000E+03  0.17120000000E+03 0.  0.
         13    1    1    2    0    0  0.42419811309E+02  0.29120222967E+02  0.84386220222E+02  0.98835586226E+02  0.10566000000E+00 0.  1.
        994    1    1    2    0    0 -0.37678966083E+02 -0.41736973022E+02  0.25318016287E+02  0.18196736342E+03  0.17120000000E+03 0.  0.
        998    1    1    2    0    0 -0.47408452254E+01  0.12616750055E+02  0.13902957598E+04  0.13903970504E+04  0.10000000000E+02 0.  1.
</event>
<event>
 5    1  0.1106231E-008  0.3813121E+03  0.7957747E-01  0.3445465E+00
         13   -1    0    0    0    0  0.00000000000E+00  0.00000000000E+00  0.14999999963E+04  0.15000000000E+04  0.10566000000E+00 0. -1.
        994   -1    0    0    0    0 -0.00000000000E+00 -0.00000000000E+00  0.11368683772E-12  0.17120000000E+03  0.17120000000E+03 0.  0.
         13    1    1    2    0    0  0.11111659200E+02 -0.13371975941E+02  0.42109892334E+02  0.45558016937E+02  0.10566000000E+00 0. -1.
        994    1    1    2    0    0 -0.93728644212E+01  0.85059954238E+01  0.40056647300E+01  0.17171397117E+03  0.17120000000E+03 0.  0.
        998    1    1    2    0    0 -0.17387947790E+01  0.48659805177E+01  0.14538844392E+04  0.14539280119E+04  0.10000000000E+02 0. -1.
</event>
<event>
 5    1  0.1106231E-008  0.3818302E+03  0.7957747E-01  0.3443228E+00
         13   -1    0    0    0    0  0.00000000000E+00  0.00000000000E+00  0.14999999963E+04  0.15000000000E+04  0.10566000000E+00 0. -1.
        994   -1    0    0    0    0 -0.00000000000E+00 -0.00000000000E+00  0.11368683772E-12  0.17120000000E+03  0.17120000000E+03 0.  0.
         13    1    1    2    0    0 -0.12004799038E+03 -0.67609089682E+02  0.78135788472E+03  0.79341203935E+03  0.10566000000E+00 0. -1.
        994    1    1    2    0    0  0.15910718245E+03  0.55066256974E+02  0.10395996348E+03  0.26165722266E+03  0.17120000000E+03 0.  0.
        998    1    1    2    0    0 -0.39059192068E+02  0.12542832708E+02  0.61468214808E+03  0.61613073799E+03  0.10000000000E+02 0. -1.
</event>
<event>
 5    1  0.1106231E-008  0.3762081E+03  0.7957747E-01  0.3467837E+00
         13   -1    0    0    0    0  0.00000000000E+00  0.00000000000E+00  0.14999999963E+04  0.15000000000E+04  0.10566000000E+00 0.  1.
        994   -1    0    0    0    0 -0.00000000000E+00 -0.00000000000E+00  0.11368683772E-12  0.17120000000E+03  0.17120000000E+03 0.  0.
         13    1    1    2    0    0  0.22216900910E+02  0.44034652651E+01  0.37939074964E+02  0.44185583232E+02  0.10566000000E+00 0.  1.
        994    1    1    2    0    0 -0.20736220891E+02 -0.57252002686E+02  0.18716950884E+02  0.18266785957E+03  0.17120000000E+03 0.  0.
        998    1    1    2    0    0 -0.14806800185E+01  0.52848537421E+02  0.14433439704E+04  0.14443465572E+04  0.10000000000E+02 0.  1.
</event>
<event>
 5    1  0.1106231E-008  0.3860587E+03  0.7957747E-01  0.3425195E+00
         13   -1    0    0    0    0  0.00000000000E+00  0.00000000000E+00  0.14999999963E+04  0.15000000000E+04  0.10566000000E+00 0.  1.
        994   -1    0    0    0    0 -0.00000000000E+00 -0.00000000000E+00  0.11368683772E-12  0.17120000000E+03  0.17120000000E+03 0.  0.
         13    1    1    2    0    0 -0.63927590883E+01  0.10544052918E+02  0.70497557370E+02  0.71567878129E+02  0.10566000000E+00 0.  1.
        994    1    1    2    0    0  0.11135793076E+02 -0.11710031855E+01  0.15164504929E+01  0.17157248252E+03  0.17120000000E+03 0.  0.
        998    1    1    2    0    0 -0.47430339879E+01 -0.93730497322E+01  0.14279859884E+04  0.14280596394E+04  0.10000000000E+02 0.  1.
</event>
<event>
 5    1  0.1106231E-008  0.3858267E+03  0.7957747E-01  0.3426174E+00
         13   -1    0    0    0    0  0.00000000000E+00  0.00000000000E+00  0.14999999963E+04  0.15000000000E+04  0.10566000000E+00 0.  1.
        994   -1    0    0    0    0 -0.00000000000E+00 -0.00000000000E+00  0.11368683772E-12  0.17120000000E+03  0.17120000000E+03 0.  0.
         13    1    1    2    0    0 -0.72504247946E+01  0.69334145718E+01  0.41498915764E+02  0.42694403275E+02  0.10566000000E+00 0.  1.
        994    1    1    2    0    0  0.86142988323E+01 -0.12813860342E+01  0.14690708855E+01  0.17142767065E+03  0.17120000000E+03 0.  0.
        998    1    1    2    0    0 -0.13638740377E+01 -0.56520285376E+01  0.14570320096E+04  0.14570779261E+04  0.10000000000E+02 0.  1.
</event>
<event>
 5    1  0.1106231E-008  0.3757694E+03  0.7957747E-01  0.3469789E+00
         13   -1    0    0    0    0  0.00000000000E+00  0.00000000000E+00  0.14999999963E+04  0.15000000000E+04  0.10566000000E+00 0. -1.
        994   -1    0    0    0    0 -0.00000000000E+00 -0.00000000000E+00  0.11368683772E-12  0.17120000000E+03  0.17120000000E+03 0.  0.
         13    1    1    2    0    0  0.12264105645E+02 -0.35254873267E+02  0.42817914397E+02  0.56804043286E+02  0.10566000000E+00 0. -1.
        994    1    1    2    0    0 -0.63706236523E+01  0.39596548256E+02  0.19783933581E+02  0.17694438535E+03  0.17120000000E+03 0.  0.
        998    1    1    2    0    0 -0.58934819928E+01 -0.43416749887E+01  0.14373981483E+04  0.14374515714E+04  0.10000000000E+02 0. -1.
</event>
<event>
 5    1  0.1106231E-008  0.3739988E+03  0.7957747E-01  0.3477713E+00
         13   -1    0    0    0    0  0.00000000000E+00  0.00000000000E+00  0.14999999963E+04  0.15000000000E+04  0.10566000000E+00 0.  1.
        994   -1    0    0    0    0 -0.00000000000E+00 -0.00000000000E+00  0.11368683772E-12  0.17120000000E+03  0.17120000000E+03 0.  0.
         13    1    1    2    0    0 -0.58246505815E+02  0.63514699905E+02  0.36224508756E+03  0.37235505525E+03  0.10566000000E+00 0.  1.
        994    1    1    2    0    0  0.78627569684E+01 -0.86283459989E+01  0.13552375789E+02  0.17213186280E+03  0.17120000000E+03 0.  0.
        998    1    1    2    0    0  0.50383748846E+02 -0.54886353906E+02  0.11242025329E+04  0.11267130820E+04  0.10000000000E+02 0.  1.
</event>
<event>
 5    1  0.1106231E-008  0.3731872E+03  0.7957747E-01  0.3481370E+00
         13   -1    0    0    0    0  0.00000000000E+00  0.00000000000E+00  0.14999999963E+04  0.15000000000E+04  0.10566000000E+00 0. -1.
        994   -1    0    0    0    0 -0.00000000000E+00 -0.00000000000E+00  0.11368683772E-12  0.17120000000E+03  0.17120000000E+03 0.  0.
         13    1    1    2    0    0 -0.68671436280E+01 -0.16357775249E+03  0.73517798714E+03  0.75318757472E+03  0.10566000000E+00 0. -1.
        994    1    1    2    0    0  0.16791255987E+01  0.16844048392E+03  0.11188120497E+03  0.26495633624E+03  0.17120000000E+03 0.  0.
        998    1    1    2    0    0  0.51880180293E+01 -0.48627314286E+01  0.65294080417E+03  0.65305608905E+03  0.10000000000E+02 0.  0.
</event>
<event>
 5    1  0.1106231E-008  0.3805981E+03  0.7957747E-01  0.3448558E+00
         13   -1    0    0    0    0  0.00000000000E+00  0.00000000000E+00  0.14999999963E+04  0.15000000000E+04  0.10566000000E+00 0.  1.
        994   -1    0    0    0    0 -0.00000000000E+00 -0.00000000000E+00  0.11368683772E-12  0.17120000000E+03  0.17120000000E+03 0.  0.
         13    1    1    2    0    0 -0.35975588653E+02  0.25323348942E+02  0.23708288637E+03  0.24113029913E+03  0.10566000000E+00 0.  1.
        994    1    1    2    0    0  0.29036471912E+02 -0.14691708873E+02  0.73726270196E+01  0.17442121041E+03  0.17120000000E+03 0.  0.
        998    1    1    2    0    0  0.69391167413E+01 -0.10631640069E+02  0.12555444829E+04  0.12556484905E+04  0.10000000000E+02 0.  1.
</event>
<event>
 5    1  0.1106231E-008  0.3817725E+03  0.7957747E-01  0.3443477E+00
         13   -1    0    0    0    0  0.00000000000E+00  0.00000000000E+00  0.14999999963E+04  0.15000000000E+04  0.10566000000E+00 0.  1.
        994   -1    0    0    0    0 -0.00000000000E+00 -0.00000000000E+00  0.11368683772E-12  0.17120000000E+03  0.17120000000E+03 0.  0.
         13    1    1    2    0    0 -0.22027607482E+02  0.21710644281E+02  0.14364891787E+03  0.14694077152E+03  0.10566000000E+00 0.  1.
        994    1    1    2    0    0 -0.51296465817E+01 -0.37155589488E+02  0.79307849191E+01  0.17543998533E+03  0.17120000000E+03 0.  0.
        998    1    1    2    0    0  0.27157254064E+02  0.15444945208E+02  0.13484202935E+04  0.13488192431E+04  0.10000000000E+02 0.  1.
</event>
<event>
 5    1  0.1106231E-008  0.3818891E+03  0.7957747E-01  0.3442974E+00
         13   -1    0    0    0    0  0.00000000000E+00  0.00000000000E+00  0.14999999963E+04  0.15000000000E+04  0.10566000000E+00 0.  1.
        994   -1    0    0    0    0 -0.00000000000E+00 -0.00000000000E+00  0.11368683772E-12  0.17120000000E+03  0.17120000000E+03 0.  0.
         13    1    1    2    0    0 -0.12357874224E+02  0.38476916919E+01  0.24764430385E+02  0.27942976989E+02  0.10566000000E+00 0.  1.
        994    1    1    2    0    0  0.11210178325E+02 -0.84833558932E+01  0.38394125684E+01  0.17181913896E+03  0.17120000000E+03 0.  0.
        998    1    1    2    0    0  0.11476958991E+01  0.46356642013E+01  0.14713961533E+04  0.14714378840E+04  0.10000000000E+02 0.  1.
</event>
<event>
 5    1  0.1106231E-008  0.3693130E+03  0.7957747E-01  0.3499054E+00
         13   -1    0    0    0    0  0.00000000000E+00  0.00000000000E+00  0.14999999963E+04  0.15000000000E+04  0.10566000000E+00 0.  1.
        994   -1    0    0    0    0 -0.00000000000E+00 -0.00000000000E+00  0.11368683772E-12  0.17120000000E+03  0.17120000000E+03 0.  0.
         13    1    1    2    0    0 -0.13268107912E+02  0.73305827333E+02  0.25713212629E+03  0.26770642230E+03  0.10566000000E+00 0.  1.
        994    1    1    2    0    0 -0.70174006982E+01 -0.63543605218E+02  0.23930349876E+02  0.18430717653E+03  0.17120000000E+03 0.  0.
        998    1    1    2    0    0  0.20285508610E+02 -0.97622221157E+01  0.12189375201E+04  0.12191864012E+04  0.10000000000E+02 0.  1.
</event>
<event>
 5    1  0.1106231E-008  0.3772286E+03  0.7957747E-01  0.3463315E+00
         13   -1    0    0    0    0  0.00000000000E+00  0.00000000000E+00  0.14999999963E+04  0.15000000000E+04  0.10566000000E+00 0.  1.
        994   -1    0    0    0    0 -0.00000000000E+00 -0.00000000000E+00  0.11368683772E-12  0.17120000000E+03  0.17120000000E+03 0.  0.
         13    1    1    2    0    0 -0.56270840732E+02 -0.92277352110E+02  0.58934481865E+03  0.59917346709E+03  0.10566000000E+00 0.  1.
        994    1    1    2    0    0  0.44477893976E+02  0.10469781459E+03  0.50521590987E+02  0.21166432526E+03  0.17120000000E+03 0.  0.
        998    1    1    2    0    0  0.11792946756E+02 -0.12420462482E+02  0.86013358664E+03  0.86036220765E+03  0.10000000000E+02 0.  1.
</event>
<event>
 5    1  0.1106231E-008  0.3820913E+03  0.7957747E-01  0.3442103E+00
         13   -1    0    0    0    0  0.00000000000E+00  0.00000000000E+00  0.14999999963E+04  0.15000000000E+04  0.10566000000E+00 0.  1.
        994   -1    0    0    0    0 -0.00000000000E+00 -0.00000000000E+00  0.11368683772E-12  0.17120000000E+03  0.17120000000E+03 0.  0.
         13    1    1    2    0    0  0.39170158907E+02  0.16689251153E+02  0.43742505079E+02  0.61043020628E+02  0.10566000000E+00 0.  1.
        994    1    1    2    0    0 -0.39083588443E+02 -0.21862536195E+02  0.24839953885E+02  0.17869516133E+03  0.17120000000E+03 0.  0.
        998    1    1    2    0    0 -0.86570463047E-01  0.51732850417E+01  0.14314175373E+04  0.14314618180E+04  0.10000000000E+02 0.  1.
</event>
<event>
 5    1  0.1106231E-008  0.3722808E+03  0.7957747E-01  0.3485474E+00
         13   -1    0    0    0    0  0.00000000000E+00  0.00000000000E+00  0.14999999963E+04  0.15000000000E+04  0.10566000000E+00 0.  1.
        994   -1    0    0    0    0 -0.00000000000E+00 -0.00000000000E+00  0.11368683772E-12  0.17120000000E+03  0.17120000000E+03 0.  0.
         13    1    1    2    0    0  0.14460671886E+02 -0.37679218183E+02  0.10498403684E+03  0.11247441340E+03  0.10566000000E+00 0.  1.
        994    1    1    2    0    0 -0.13372767611E+02  0.31248145172E+01  0.87290386775E+01  0.17197160084E+03  0.17120000000E+03 0.  0.
        998    1    1    2    0    0 -0.10879042749E+01  0.34554403666E+02  0.13862869208E+04  0.13867539858E+04  0.10000000000E+02 0.  1.
</event>
<event>
 5    1  0.1106231E-008  0.3849136E+03  0.7957747E-01  0.3430039E+00
         13   -1    0    0    0    0  0.00000000000E+00  0.00000000000E+00  0.14999999963E+04  0.15000000000E+04  0.10566000000E+00 0. -1.
        994   -1    0    0    0    0 -0.00000000000E+00 -0.00000000000E+00  0.11368683772E-12  0.17120000000E+03  0.17120000000E+03 0.  0.
         13    1    1    2    0    0  0.40234792445E+01 -0.13128598258E+02  0.54675721907E+02  0.56373701382E+02  0.10566000000E+00 0. -1.
        994    1    1    2    0    0  0.37556149282E+01  0.16061369856E+02  0.25685291067E+01  0.17201194606E+03  0.17120000000E+03 0.  0.
        998    1    1    2    0    0 -0.77790941727E+01 -0.29327715981E+01  0.14427557453E+04  0.14428143526E+04  0.10000000000E+02 0. -1.
</event>
<event>
 5    1  0.1106231E-008  0.3721890E+03  0.7957747E-01  0.3485891E+00
         13   -1    0    0    0    0  0.00000000000E+00  0.00000000000E+00  0.14999999963E+04  0.15000000000E+04  0.10566000000E+00 0.  1.
        994   -1    0    0    0    0 -0.00000000000E+00 -0.00000000000E+00  0.11368683772E-12  0.17120000000E+03  0.17120000000E+03 0.  0.
         13    1    1    2    0    0  0.13716500082E+02 -0.14250019594E+02  0.11133452329E+02  0.22697364554E+02  0.10566000000E+00 0.  1.
        994    1    1    2    0    0  0.35150731319E+02  0.34152779565E+02  0.20611651340E+02  0.17926590985E+03  0.17120000000E+03 0.  0.
        998    1    1    2    0    0 -0.48867231400E+02 -0.19902759971E+02  0.14682548926E+04  0.14692367256E+04  0.10000000000E+02 0.  1.
</event>
<event>
 5    1  0.1106231E-008  0.3798500E+03  0.7957747E-01  0.3451812E+00
         13   -1    0    0    0    0  0.00000000000E+00  0.00000000000E+00  0.14999999963E+04  0.15000000000E+04  0.10566000000E+00 0. -1.
        994   -1    0    0    0    0 -0.00000000000E+00 -0.00000000000E+00  0.11368683772E-12  0.17120000000E+03  0.17120000000E+03 0.  0.
         13    1    1    2    0    0  0.35752622662E+01 -0.12842501566E+02  0.18929249013E+02  0.23152537204E+02  0.10566000000E+00 0. -1.
        994    1    1    2    0    0  0.94991415726E+01  0.20806039364E+02  0.59604901742E+01  0.17282387685E+03  0.17120000000E+03 0.  0.
        998    1    1    2    0    0 -0.13074403839E+02 -0.79635377981E+01  0.14751102571E+04  0.14752235860E+04  0.10000000000E+02 0. -1.
</event>
<event>
 5    1  0.1106231E-008  0.3821334E+03  0.7957747E-01  0.3441921E+00
         13   -1    0    0    0    0  0.00000000000E+00  0.00000000000E+00  0.14999999963E+04  0.15000000000E+04  0.10566000000E+00 0.  1.
        994   -1    0    0    0    0 -0.00000000000E+00 -0.00000000000E+00  0.11368683772E-12  0.17120000000E+03  0.17120000000E+03 0.  0.
         13    1    1    2    0    0  0.16630280462E+03  0.49409026034E+01  0.95329882799E+03  0.96770847984E+03  0.10566000000E+00 0.  1.
        994    1    1    2    0    0 -0.18925590017E+03 -0.45120938175E+02  0.14099023656E+03  0.29502776414E+03  0.17120000000E+03 0.  0.
        998    1    1    2    0    0  0.22953095542E+02  0.40180035572E+02  0.40571093173E+03  0.40846375602E+03  0.10000000000E+02 0.  1.
</event>
<event>
 5    1  0.1106231E-008  0.3728028E+03  0.7957747E-01  0.3483108E+00
         13   -1    0    0    0    0  0.00000000000E+00  0.00000000000E+00  0.14999999963E+04  0.15000000000E+04  0.10566000000E+00 0.  1.
        994   -1    0    0    0    0 -0.00000000000E+00 -0.00000000000E+00  0.11368683772E-12  0.17120000000E+03  0.17120000000E+03 0.  0.
         13    1    1    2    0    0  0.56406901656E+02  0.65817656945E+01  0.25513823698E+03  0.26138207537E+03  0.10566000000E+00 0.  1.
        994    1    1    2    0    0 -0.91078147495E+00  0.14310474562E+02  0.85158725953E+01  0.17201040460E+03  0.17120000000E+03 0.  0.
        998    1    1    2    0    0 -0.55496120181E+02 -0.20892240257E+02  0.12363458867E+04  0.12378075200E+04  0.10000000000E+02 0.  1.
</event>
<event>
 5    1  0.1106231E-008  0.3827210E+03  0.7957747E-01  0.3439396E+00
         13   -1    0    0    0    0  0.00000000000E+00  0.00000000000E+00  0.14999999963E+04  0.15000000000E+04  0.10566000000E+00 0. -1.
        994   -1    0    0    0    0 -0.00000000000E+00 -0.00000000000E+00  0.11368683772E-12  0.17120000000E+03  0.17120000000E+03 0.  0.
         13    1    1    2    0    0 -0.16423403580E+02 -0.53098370358E+01  0.53766566389E+02  0.56469260486E+02  0.10566000000E+00 0. -1.
        994    1    1    2    0    0  0.82372581606E+01  0.10222453478E+01  0.29941694322E+01  0.17142725121E+03  0.17120000000E+03 0.  0.
        998    1    1    2    0    0  0.81861454198E+01  0.42875916880E+01  0.14432392605E+04  0.14433034883E+04  0.10000000000E+02 0. -1.
</event>
<event>
 5    1  0.1106231E-008  0.3780095E+03  0.7957747E-01  0.3459872E+00
         13   -1    0    0    0    0  0.00000000000E+00  0.00000000000E+00  0.14999999963E+04  0.15000000000E+04  0.10566000000E+00 0.  1.
        994   -1    0    0    0    0 -0.00000000000E+00 -0.00000000000E+00  0.11368683772E-12  0.17120000000E+03  0.17120000000E+03 0.  0.
         13    1    1    2    0    0  0.61632713417E+02  0.17160975742E+02  0.33856867241E+03  0.34456036851E+03  0.10566000000E+00 0.  1.
        994    1    1    2    0    0 -0.57150347560E+02  0.16888816999E+01  0.16221752242E+02  0.18122251459E+03  0.17120000000E+03 0.  0.
        998    1    1    2    0    0 -0.44823658572E+01 -0.18849857442E+02  0.11452095716E+04  0.11454171169E+04  0.10000000000E+02 0.  0.
</event>
<event>
 5    1  0.1106231E-008  0.3751973E+03  0.7957747E-01  0.3472341E+00
         13   -1    0    0    0    0  0.00000000000E+00  0.00000000000E+00  0.14999999963E+04  0.15000000000E+04  0.10566000000E+00 0.  1.
        994   -1    0    0    0    0 -0.00000000000E+00 -0.00000000000E+00  0.11368683772E-12  0.17120000000E+03  0.17120000000E+03 0.  0.
         13    1    1    2    0    0  0.54076973621E+02  0.50207592888E+02  0.25600104707E+03  0.26642385164E+03  0.10566000000E+00 0.  1.
        994    1    1    2    0    0  0.32315142425E+02 -0.24735693660E+02  0.19634295327E+02  0.17706232949E+03  0.17120000000E+03 0.  0.
        998    1    1    2    0    0 -0.86392116046E+02 -0.25471899228E+02  0.12243646539E+04  0.12277138189E+04  0.10000000000E+02 0.  1.
</event>
<event>
 5    1  0.1106231E-008  0.4089876E+03  0.7957747E-01  0.3333901E+00
         13   -1    0    0    0    0  0.00000000000E+00  0.00000000000E+00  0.14999999963E+04  0.15000000000E+04  0.10566000000E+00 0. -1.
        994   -1    0    0    0    0 -0.00000000000E+00 -0.00000000000E+00  0.11368683772E-12  0.17120000000E+03  0.17120000000E+03 0.  0.
         13    1    1    2    0    0  0.30536769997E+02 -0.55280974046E+02  0.45699944087E+02  0.77954964350E+02  0.10566000000E+00 0. -1.
        994    1    1    2    0    0 -0.22005689508E+02  0.71008756447E+02  0.56097050119E+02  0.19489179792E+03  0.17120000000E+03 0.  0.
        998    1    1    2    0    0 -0.85310804886E+01 -0.15727782401E+02  0.13982030021E+04  0.13983532377E+04  0.10000000000E+02 0. -1.
</event>
<event>
 5    1  0.1106231E-008  0.3851025E+03  0.7957747E-01  0.3429238E+00
         13   -1    0    0    0    0  0.00000000000E+00  0.00000000000E+00  0.14999999963E+04  0.15000000000E+04  0.10566000000E+00 0. -1.
        994   -1    0    0    0    0 -0.00000000000E+00 -0.00000000000E+00  0.11368683772E-12  0.17120000000E+03  0.17120000000E+03 0.  0.
         13    1    1    2    0    0  0.39112884511E+01 -0.11302496980E+02  0.44783395788E+02  0.46353083152E+02  0.10566000000E+00 0. -1.
        994    1    1    2    0    0 -0.18359533688E+01  0.99158305462E+01  0.19136549412E+01  0.17150742402E+03  0.17120000000E+03 0.  0.
        998    1    1    2    0    0 -0.20753350823E+01  0.13866664338E+01  0.14533029455E+04  0.14533394928E+04  0.10000000000E+02 0. -1.
</event>
<event>
 5    1  0.1106231E-008  0.3847166E+03  0.7957747E-01  0.3430875E+00
         13   -1    0    0    0    0  0.00000000000E+00  0.00000000000E+00  0.14999999963E+04  0.15000000000E+04  0.10566000000E+00 0.  1.
        994   -1    0    0    0    0 -0.00000000000E+00 -0.00000000000E+00  0.11368683772E-12  0.17120000000E+03  0.17120000000E+03 0.  0.
         13    1    1    2    0    0 -0.71460672039E+01 -0.78849751477E+01  0.30733463047E+02  0.32523776294E+02  0.10566000000E+00 0.  1.
        994    1    1    2    0    0  0.25380224689E+02 -0.37431822738E+01  0.39403930920E+01  0.17315638572E+03  0.17120000000E+03 0.  0.
        998    1    1    2    0    0 -0.18234157486E+02  0.11628157421E+02  0.14653261401E+04  0.14655198380E+04  0.10000000000E+02 0.  1.
</event>
<event>
 5    1  0.1106231E-008  0.3749680E+03  0.7957747E-01  0.3473366E+00
         13   -1    0    0    0    0  0.00000000000E+00  0.00000000000E+00  0.14999999963E+04  0.15000000000E+04  0.10566000000E+00 0.  1.
        994   -1    0    0    0    0 -0.00000000000E+00 -0.00000000000E+00  0.11368683772E-12  0.17120000000E+03  0.17120000000E+03 0.  0.
         13    1    1    2    0    0  0.59262211964E+02 -0.51506277263E+02  0.39980850272E+03  0.40744540294E+03  0.10566000000E+00 0.  1.
        994    1    1    2    0    0 -0.34777708328E+02  0.52591091513E+02  0.20331786708E+02  0.18357051357E+03  0.17120000000E+03 0.  0.
        998    1    1    2    0    0 -0.24484503636E+02 -0.10848142496E+01  0.10798597069E+04  0.10801840835E+04  0.10000000000E+02 0.  1.
</event>
<event>
 5    1  0.1106231E-008  0.3833868E+03  0.7957747E-01  0.3436543E+00
         13   -1    0    0    0    0  0.00000000000E+00  0.00000000000E+00  0.14999999963E+04  0.15000000000E+04  0.10566000000E+00 0. -1.
        994   -1    0    0    0    0 -0.00000000000E+00 -0.00000000000E+00  0.11368683772E-12  0.17120000000E+03  0.17120000000E+03 0.  0.
         13    1    1    2    0    0  0.23758029777E+02 -0.10257007504E+02  0.13059296098E+03  0.13313220048E+03  0.10566000000E+00 0. -1.
        994    1    1    2    0    0 -0.19585837920E+02  0.10348613540E+02  0.40570684749E+01  0.17267483503E+03  0.17120000000E+03 0.  0.
        998    1    1    2    0    0 -0.41721918570E+01 -0.91606035264E-01  0.13653499668E+04  0.13653929645E+04  0.10000000000E+02 0. -1.
</event>
<event>
 5    1  0.1106231E-008  0.3808390E+03  0.7957747E-01  0.3447513E+00
         13   -1    0    0    0    0  0.00000000000E+00  0.00000000000E+00  0.14999999963E+04  0.15000000000E+04  0.10566000000E+00 0. -1.
        994   -1    0    0    0    0 -0.00000000000E+00 -0.00000000000E+00  0.11368683772E-12  0.17120000000E+03  0.17120000000E+03 0.  0.
         13    1    1    2    0    0  0.12679106733E+02 -0.70680632543E+02  0.36520849016E+03  0.37220124128E+03  0.10566000000E+00 0. -1.
        994    1    1    2    0    0  0.29573704852E+02  0.11809433712E+03  0.54809174443E+02  0.21710449577E+03  0.17120000000E+03 0.  0.
        998    1    1    2    0    0 -0.42252811585E+02 -0.47413704580E+02  0.10799823317E+04  0.10818942629E+04  0.10000000000E+02 0. -1.
</event>
<event>
 5    1  0.1106231E-008  0.3718035E+03  0.7957747E-01  0.3487643E+00
         13   -1    0    0    0    0  0.00000000000E+00  0.00000000000E+00  0.14999999963E+04  0.15000000000E+04  0.10566000000E+00 0.  1.
        994   -1    0    0    0    0 -0.00000000000E+00 -0.00000000000E+00  0.11368683772E-12  0.17120000000E+03  0.17120000000E+03 0.  0.
         13    1    1    2    0    0 -0.12525061340E+02  0.31181518738E+01  0.57795482697E+01  0.14142643844E+02  0.10566000000E+00 0.  1.
        994    1    1    2    0    0  0.40470862271E+02  0.24382747667E+02  0.16039898177E+02  0.17832309836E+03  0.17120000000E+03 0.  0.
        998    1    1    2    0    0 -0.27945800931E+02 -0.27500899541E+02  0.14781805498E+04  0.14787342578E+04  0.10000000000E+02 0.  1.
</event>
<event>
 5    1  0.1106231E-008  0.3814973E+03  0.7957747E-01  0.3444665E+00
         13   -1    0    0    0    0  0.00000000000E+00  0.00000000000E+00  0.14999999963E+04  0.15000000000E+04  0.10566000000E+00 0. -1.
        994   -1    0    0    0    0 -0.00000000000E+00 -0.00000000000E+00  0.11368683772E-12  0.17120000000E+03  0.17120000000E+03 0.  0.
         13    1    1    2    0    0  0.25720283905E+02  0.31376420372E+01  0.11686262542E+03  0.11970071923E+03  0.10566000000E+00 0. -1.
        994    1    1    2    0    0  0.11056682123E+02  0.79274592273E+01  0.39951656208E+01  0.17178619321E+03  0.17120000000E+03 0.  0.
        998    1    1    2    0    0 -0.36776966028E+02 -0.11065101265E+02  0.13791422052E+04  0.13797130876E+04  0.10000000000E+02 0. -1.
</event>
<event>
 5    1  0.1106231E-008  0.3799759E+03  0.7957747E-01  0.3451263E+00
         13   -1    0    0    0    0  0.00000000000E+00  0.00000000000E+00  0.14999999963E+04  0.15000000000E+04  0.10566000000E+00 0.  1.
        994   -1    0    0    0    0 -0.00000000000E+00 -0.00000000000E+00  0.11368683772E-12  0.17120000000E+03  0.17120000000E+03 0.  0.
         13    1    1    2    0    0 -0.14162931708E+03 -0.36729410957E+02  0.82416598343E+03  0.83705286123E+03  0.10566000000E+00 0.  1.
        994    1    1    2    0    0  0.15100850408E+03  0.86847605363E+02  0.11334451852E+03  0.26926287294E+03  0.17120000000E+03 0.  0.
        998    1    1    2    0    0 -0.93791870015E+01 -0.50118194406E+02  0.56248949432E+03  0.56488426583E+03  0.10000000000E+02 0.  1.
</event>
<event>
 5    1  0.1106231E-008  0.3774528E+03  0.7957747E-01  0.3462325E+00
         13   -1    0    0    0    0  0.00000000000E+00  0.00000000000E+00  0.14999999963E+04  0.15000000000E+04  0.10566000000E+00 0.  1.
        994   -1    0    0    0    0 -0.00000000000E+00 -0.00000000000E+00  0.11368683772E-12  0.17120000000E+03  0.17120000000E+03 0.  0.
         13    1    1    2    0    0 -0.72828712647E+02 -0.85682121197E+00  0.29098935676E+03  0.29996595214E+03  0.10566000000E+00 0.  1.
        994    1    1    2    0    0  0.10956946647E+03  0.11423607640E+02  0.47497425256E+02  0.20904882731E+03  0.17120000000E+03 0.  0.
        998    1    1    2    0    0 -0.36740753825E+02 -0.10566786428E+02  0.11615132143E+04  0.11621852205E+04  0.10000000000E+02 0.  1.
</event>
<event>
 5    1  0.1106231E-008  0.3754456E+03  0.7957747E-01  0.3471232E+00
         13   -1    0    0    0    0  0.00000000000E+00  0.00000000000E+00  0.14999999963E+04  0.15000000000E+04  0.10566000000E+00 0.  1.
        994   -1    0    0    0    0 -0.00000000000E+00 -0.00000000000E+00  0.11368683772E-12  0.17120000000E+03  0.17120000000E+03 0.  0.
         13    1    1    2    0    0 -0.13138175876E+02  0.35050025998E+02  0.11765963071E+03  0.12347030352E+03  0.10566000000E+00 0.  1.
        994    1    1    2    0    0  0.76069477107E+01  0.17330617109E+01  0.66566942478E+01  0.17150691162E+03  0.17120000000E+03 0.  0.
        998    1    1    2    0    0  0.55312281653E+01 -0.36783087709E+02  0.13756836713E+04  0.13762227849E+04  0.10000000000E+02 0. -1.
</event>
<event>
 5    1  0.1106231E-008  0.3746477E+03  0.7957747E-01  0.3474800E+00
         13   -1    0    0    0    0  0.00000000000E+00  0.00000000000E+00  0.14999999963E+04  0.15000000000E+04  0.10566000000E+00 0.  1.
        994   -1    0    0    0    0 -0.00000000000E+00 -0.00000000000E+00  0.11368683772E-12  0.17120000000E+03  0.17120000000E+03 0.  0.
         13    1    1    2    0    0  0.73284461556E+01  0.86570194127E+02  0.22998400315E+03  0.24584702053E+03  0.10566000000E+00 0.  1.
        994    1    1    2    0    0 -0.37313647126E+02 -0.87627787097E+02  0.46400770754E+02  0.20132910584E+03  0.17120000000E+03 0.  0.
        998    1    1    2    0    0  0.29985200971E+02  0.10575929698E+01  0.12236152224E+04  0.12240238736E+04  0.10000000000E+02 0.  1.
</event>
<event>
 5    1  0.1106231E-008  0.3765240E+03  0.7957747E-01  0.3466435E+00
         13   -1    0    0    0    0  0.00000000000E+00  0.00000000000E+00  0.14999999963E+04  0.15000000000E+04  0.10566000000E+00 0. -1.
        994   -1    0    0    0    0 -0.00000000000E+00 -0.00000000000E+00  0.11368683772E-12  0.17120000000E+03  0.17120000000E+03 0.  0.
         13    1    1    2    0    0 -0.80291330254E+01 -0.65575455752E+01  0.63920266071E+01  0.12179390350E+02  0.10566000000E+00 0. -1.
        994    1    1    2    0    0  0.71769677351E+01  0.47503373108E+01  0.61487624290E+01  0.17152644650E+03  0.17120000000E+03 0.  0.
        998    1    1    2    0    0  0.85216529033E+00  0.18072082645E+01  0.14874592072E+04  0.14874941631E+04  0.10000000000E+02 0. -1.
</event>
<event>
 5    1  0.1106231E-008  0.3797154E+03  0.7957747E-01  0.3452399E+00
         13   -1    0    0    0    0  0.00000000000E+00  0.00000000000E+00  0.14999999963E+04  0.15000000000E+04  0.10566000000E+00 0.  1.
        994   -1    0    0    0    0 -0.00000000000E+00 -0.00000000000E+00  0.11368683772E-12  0.17120000000E+03  0.17120000000E+03 0.  0.
         13    1    1    2    0    0 -0.28045490575E+02  0.27130399693E+02  0.15416266022E+03  0.15902435379E+03  0.10566000000E+00 0.  1.
        994    1    1    2    0    0  0.28194701538E+02 -0.35188783761E+02  0.11110263576E+02  0.17738677982E+03  0.17120000000E+03 0.  0.
        998    1    1    2    0    0 -0.14921096358E+00  0.80583840685E+01  0.13347270725E+04  0.13347888664E+04  0.10000000000E+02 0.  1.
</event>
<event>
 5    1  0.1145422E-008  0.3860912E+03  0.7957747E-01  0.3425058E+00
         13   -1    0    0    0    0  0.00000000000E+00  0.00000000000E+00  0.14999999963E+04  0.15000000000E+04  0.10566000000E+00 0. -1.
        994   -1    0    0    0    0 -0.00000000000E+00 -0.00000000000E+00  0.11368683772E-12  0.17120000000E+03  0.17120000000E+03 0.  0.
         13    1    1    2    0    0  0.10620367325E+02  0.43042206700E+00  0.51783654978E+02  0.52863366826E+02  0.10566000000E+00 0. -1.
        994    1    1    2    0    0 -0.92578506898E+01 -0.10786804521E+01  0.13740839176E+01  0.17145903143E+03  0.17120000000E+03 0.  0.
        998    1    1    2    0    0 -0.13625166357E+01  0.64825838511E+00  0.14468422574E+04  0.14468776017E+04  0.10000000000E+02 0. -1.
</event>
<event>
 5    1  0.1106231E-008  0.3791803E+03  0.7957747E-01  0.3454736E+00
         13   -1    0    0    0    0  0.00000000000E+00  0.00000000000E+00  0.14999999963E+04  0.15000000000E+04  0.10566000000E+00 0. -1.
        994   -1    0    0    0    0 -0.00000000000E+00 -0.00000000000E+00  0.11368683772E-12  0.17120000000E+03  0.17120000000E+03 0.  0.
         13    1    1    2    0    0 -0.19528760945E+02  0.28509261995E+02  0.11878486611E+03  0.12370936143E+03  0.10566000000E+00 0. -1.
        994    1    1    2    0    0  0.20807390195E+02 -0.30824269913E+02  0.91975680972E+01  0.17543408552E+03  0.17120000000E+03 0.  0.
        998    1    1    2    0    0 -0.12786292504E+01  0.23150079181E+01  0.13720175621E+04  0.13720565531E+04  0.10000000000E+02 0. -1.
</event>
<event>
 5    1  0.1106231E-008  0.3849494E+03  0.7957747E-01  0.3429887E+00
         13   -1    0    0    0    0  0.00000000000E+00  0.00000000000E+00  0.14999999963E+04  0.15000000000E+04  0.10566000000E+00 0.  1.
        994   -1    0    0    0    0 -0.00000000000E+00 -0.00000000000E+00  0.11368683772E-12  0.17120000000E+03  0.17120000000E+03 0.  0.
         13    1    1    2    0    0  0.21453075036E+02  0.51463034532E+02  0.72554095542E+02  0.91502930530E+02  0.10566000000E+00 0.  1.
        994    1    1    2    0    0 -0.19058070560E+02 -0.47021855173E+02  0.28635274679E+02  0.18084159885E+03  0.17120000000E+03 0.  0.
        998    1    1    2    0    0 -0.23950044766E+01 -0.44411793585E+01  0.13988106261E+04  0.13988554706E+04  0.10000000000E+02 0.  1.
</event>
<event>
 5    1  0.1106231E-008  0.3728171E+03  0.7957747E-01  0.3483043E+00
         13   -1    0    0    0    0  0.00000000000E+00  0.00000000000E+00  0.14999999963E+04  0.15000000000E+04  0.10566000000E+00 0. -1.
        994   -1    0    0    0    0 -0.00000000000E+00 -0.00000000000E+00  0.11368683772E-12  0.17120000000E+03  0.17120000000E+03 0.  0.
         13    1    1    2    0    0  0.22787155799E+02  0.52761138163E+02  0.18578861552E+03  0.19447471041E+03  0.10566000000E+00 0. -1.
        994    1    1    2    0    0 -0.24327856068E+02 -0.50265356716E+02  0.18559321665E+02  0.18103132074E+03  0.17120000000E+03 0.  0.
        998    1    1    2    0    0  0.15407002695E+01 -0.24957814469E+01  0.12956520591E+04  0.12956939688E+04  0.10000000000E+02 0. -1.
</event>
<event>
 5    1  0.1106231E-008  0.3786089E+03  0.7957747E-01  0.3457238E+00
         13   -1    0    0    0    0  0.00000000000E+00  0.00000000000E+00  0.14999999963E+04  0.15000000000E+04  0.10566000000E+00 0.  1.
        994   -1    0    0    0    0 -0.00000000000E+00 -0.00000000000E+00  0.11368683772E-12  0.17120000000E+03  0.17120000000E+03 0.  0.
         13    1    1    2    0    0 -0.94859388983E+00 -0.10953065435E+02  0.10210064314E+02  0.15004201082E+02  0.10566000000E+00 0.  1.
        994    1    1    2    0    0  0.37929246247E+01  0.13021239593E+02  0.54549610990E+01  0.17182297739E+03  0.17120000000E+03 0.  0.
        998    1    1    2    0    0 -0.28443307349E+01 -0.20681741581E+01  0.14843349709E+04  0.14843728215E+04  0.10000000000E+02 0.  1.
</event>
<event>
 5    1  0.1106231E-008  0.2793139E+03  0.7957747E-01  0.4055746E+00
         13   -1    0    0    0    0  0.00000000000E+00  0.00000000000E+00  0.14999999963E+04  0.15000000000E+04  0.10566000000E+00 0. -1.
        994   -1    0    0    0    0 -0.00000000000E+00 -0.00000000000E+00  0.11368683772E-12  0.17120000000E+03  0.17120000000E+03 0.  0.
         13    1    1    2    0    0 -0.79474691879E+01 -0.11870076348E+03  0.67869100023E+03  0.68903883670E+03  0.10566000000E+00 0. -1.
        994    1    1    2    0    0 -0.36687209232E+02  0.31452209203E+02  0.24830936885E+02  0.17961405349E+03  0.17120000000E+03 0.  0.
        998    1    1    2    0    0  0.44634678419E+02  0.87248554277E+02  0.79647805916E+03  0.80254710981E+03  0.10000000000E+02 0.  1.
</event>
<event>
 5    1  0.1106231E-008  0.3839575E+03  0.7957747E-01  0.3434106E+00
         13   -1    0    0    0    0  0.00000000000E+00  0.00000000000E+00  0.14999999963E+04  0.15000000000E+04  0.10566000000E+00 0.  1.
        994   -1    0    0    0    0 -0.00000000000E+00 -0.00000000000E+00  0.11368683772E-12  0.17120000000E+03  0.17120000000E+03 0.  0.
         13    1    1    2    0    0  0.12488357966E+02 -0.74372236561E+01  0.49120511107E+02  0.51226039822E+02  0.10566000000E+00 0.  1.
        994    1    1    2    0    0 -0.49124467424E+01  0.70103483262E+01  0.23904614490E+01  0.17143054402E+03  0.17120000000E+03 0.  0.
        998    1    1    2    0    0 -0.75759112231E+01  0.42687532996E+00  0.14484890237E+04  0.14485434162E+04  0.10000000000E+02 0.  0.
</event>
<event>
 5    1  0.1106231E-008  0.2938659E+03  0.7957747E-01  0.3940808E+00
         13   -1    0    0    0    0  0.00000000000E+00  0.00000000000E+00  0.14999999963E+04  0.15000000000E+04  0.10566000000E+00 0. -1.
        994   -1    0    0    0    0 -0.00000000000E+00 -0.00000000000E+00  0.11368683772E-12  0.17120000000E+03  0.17120000000E+03 0.  0.
         13    1    1    2    0    0  0.17310342183E+03  0.14251599341E+03  0.43670566713E+03  0.49090472996E+03  0.10566000000E+00 0. -1.
        994    1    1    2    0    0 -0.16490138624E+03 -0.17283371248E+03  0.31327365977E+03  0.42955067833E+03  0.17120000000E+03 0.  0.
        998    1    1    2    0    0 -0.82020355935E+01  0.30317719073E+02  0.75002066938E+03  0.75074459171E+03  0.10000000000E+02 0. -1.
</event>
<event>
 5    1  0.1106231E-008  0.3802163E+03  0.7957747E-01  0.3450217E+00
         13   -1    0    0    0    0  0.00000000000E+00  0.00000000000E+00  0.14999999963E+04  0.15000000000E+04  0.10566000000E+00 0. -1.
        994   -1    0    0    0    0 -0.00000000000E+00 -0.00000000000E+00  0.11368683772E-12  0.17120000000E+03  0.17120000000E+03 0.  0.
         13    1    1    2    0    0 -0.14742756483E+02 -0.66876764959E+02  0.13359454920E+03  0.15012449933E+03  0.10566000000E+00 0. -1.
        994    1    1    2    0    0  0.16716459818E+01  0.52856913416E+02  0.26658325967E+02  0.18115395121E+03  0.17120000000E+03 0.  0.
        998    1    1    2    0    0  0.13071110501E+02  0.14019851543E+02  0.13397471211E+04  0.13399215495E+04  0.10000000000E+02 0. -1.
</event>
<event>
 5    1  0.1106231E-008  0.3809999E+03  0.7957747E-01  0.3446816E+00
         13   -1    0    0    0    0  0.00000000000E+00  0.00000000000E+00  0.14999999963E+04  0.15000000000E+04  0.10566000000E+00 0.  1.
        994   -1    0    0    0    0 -0.00000000000E+00 -0.00000000000E+00  0.11368683772E-12  0.17120000000E+03  0.17120000000E+03 0.  0.
         13    1    1    2    0    0  0.40637416414E+01 -0.22847459759E+02  0.72032706424E+02  0.75678546315E+02  0.10566000000E+00 0.  1.
        994    1    1    2    0    0  0.30785336648E+00  0.17644769076E+02  0.46676243053E+01  0.17217043697E+03  0.17120000000E+03 0.  0.
        998    1    1    2    0    0 -0.43715950079E+01  0.52026906825E+01  0.14232996655E+04  0.14233510167E+04  0.10000000000E+02 0.  1.
</event>
<event>
 5    1  0.1106231E-008  0.3771604E+03  0.7957747E-01  0.3463617E+00
         13   -1    0    0    0    0  0.00000000000E+00  0.00000000000E+00  0.14999999963E+04  0.15000000000E+04  0.10566000000E+00 0. -1.
        994   -1    0    0    0    0 -0.00000000000E+00 -0.00000000000E+00  0.11368683772E-12  0.17120000000E+03  0.17120000000E+03 0.  0.
         13    1    1    2    0    0  0.16424417322E+02 -0.31730721646E+00  0.23726958178E+01  0.16598283577E+02  0.10566000000E+00 0. -1.
        994    1    1    2    0    0 -0.18103925060E+02  0.45334418063E-01  0.15952390690E+02  0.17289208463E+03  0.17120000000E+03 0.  0.
        998    1    1    2    0    0  0.16795077380E+01  0.27197279839E+00  0.14816749098E+04  0.14817096318E+04  0.10000000000E+02 0. -1.
</event>
<event>
 5    1  0.1106231E-008  0.3845255E+03  0.7957747E-01  0.3431687E+00
         13   -1    0    0    0    0  0.00000000000E+00  0.00000000000E+00  0.14999999963E+04  0.15000000000E+04  0.10566000000E+00 0. -1.
        994   -1    0    0    0    0 -0.00000000000E+00 -0.00000000000E+00  0.11368683772E-12  0.17120000000E+03  0.17120000000E+03 0.  0.
         13    1    1    2    0    0  0.95471053664E+01 -0.13572025524E+02  0.75958198412E+02  0.77749637734E+02  0.10566000000E+00 0. -1.
        994    1    1    2    0    0 -0.67053849644E+01  0.24494502645E+01  0.20337753672E+01  0.17136084219E+03  0.17120000000E+03 0.  0.
        998    1    1    2    0    0 -0.28417204020E+01  0.11122575260E+02  0.14220080225E+04  0.14220895201E+04  0.10000000000E+02 0. -1.
</event>
<event>
 5    1  0.1106231E-008  0.3781217E+03  0.7957747E-01  0.3459378E+00
         13   -1    0    0    0    0  0.00000000000E+00  0.00000000000E+00  0.14999999963E+04  0.15000000000E+04  0.10566000000E+00 0. -1.
        994   -1    0    0    0    0 -0.00000000000E+00 -0.00000000000E+00  0.11368683772E-12  0.17120000000E+03  0.17120000000E+03 0.  0.
         13    1    1    2    0    0 -0.29875122200E+01 -0.40433573513E+02  0.17697535339E+03  0.18156014421E+03  0.10566000000E+00 0. -1.
        994    1    1    2    0    0  0.42051424606E+02  0.67563682540E+01  0.11210509637E+02  0.17677411108E+03  0.17120000000E+03 0.  0.
        998    1    1    2    0    0 -0.39063912386E+02  0.33677205259E+02  0.13118141333E+04  0.13128657447E+04  0.10000000000E+02 0. -1.
</event>
<event>
 5    1  0.1106231E-008  0.3817844E+03  0.7957747E-01  0.3443425E+00
         13   -1    0    0    0    0  0.00000000000E+00  0.00000000000E+00  0.14999999963E+04  0.15000000000E+04  0.10566000000E+00 0.  1.
        994   -1    0    0    0    0 -0.00000000000E+00 -0.00000000000E+00  0.11368683772E-12  0.17120000000E+03  0.17120000000E+03 0.  0.
         13    1    1    2    0    0 -0.22207547701E+02  0.99264392886E+02  0.50683857386E+03  0.51694481909E+03  0.10566000000E+00 0.  1.
        994    1    1    2    0    0  0.63639028523E+02  0.17152095235E+02  0.33332066939E+02  0.18645264012E+03  0.17120000000E+03 0.  0.
        998    1    1    2    0    0 -0.41431480822E+02 -0.11641648812E+03  0.95982935548E+03  0.96780254079E+03  0.10000000000E+02 0.  1.
</event>
<event>
 5    1  0.1106231E-008  0.3723131E+03  0.7957747E-01  0.3485327E+00
         13   -1    0    0    0    0  0.00000000000E+00  0.00000000000E+00  0.14999999963E+04  0.15000000000E+04  0.10566000000E+00 0.  1.
        994   -1    0    0    0    0 -0.00000000000E+00 -0.00000000000E+00  0.11368683772E-12  0.17120000000E+03  0.17120000000E+03 0.  0.
         13    1    1    2    0    0  0.57155704215E+01 -0.10457716445E+02  0.15336559645E+00  0.11919155320E+02  0.10566000000E+00 0.  1.
        994    1    1    2    0    0 -0.88890995888E+01  0.10373148893E+02  0.12825163996E+02  0.17222236539E+03  0.17120000000E+03 0.  0.
        998    1    1    2    0    0  0.31735291673E+01  0.84567552329E-01  0.14870214667E+04  0.14870584793E+04  0.10000000000E+02 0.  1.
</event>
<event>
 5    1  0.1106231E-008  0.3827174E+03  0.7957747E-01  0.3439411E+00
         13   -1    0    0    0    0  0.00000000000E+00  0.00000000000E+00  0.14999999963E+04  0.15000000000E+04  0.10566000000E+00 0.  1.
        994   -1    0    0    0    0 -0.00000000000E+00 -0.00000000000E+00  0.11368683772E-12  0.17120000000E+03  0.17120000000E+03 0.  0.
         13    1    1    2    0    0  0.20783652070E+02  0.16290595732E+02  0.13715017626E+03  0.13966934422E+03  0.10566000000E+00 0.  1.
        994    1    1    2    0    0  0.25662529673E+01 -0.90775300350E+01  0.30625655000E+01  0.17148704474E+03  0.17120000000E+03 0.  0.
        998    1    1    2    0    0 -0.23349905038E+02 -0.72130656973E+01  0.13597872545E+04  0.13600436110E+04  0.10000000000E+02 0.  1.
</event>
<event>
 5    1  0.1106231E-008  0.3839055E+03  0.7957747E-01  0.3434327E+00
         13   -1    0    0    0    0  0.00000000000E+00  0.00000000000E+00  0.14999999963E+04  0.15000000000E+04  0.10566000000E+00 0. -1.
        994   -1    0    0    0    0 -0.00000000000E+00 -0.00000000000E+00  0.11368683772E-12  0.17120000000E+03  0.17120000000E+03 0.  0.
         13    1    1    2    0    0  0.21602419342E+02  0.87632167861E+01  0.13362026221E+03  0.13563865278E+03  0.10566000000E+00 0. -1.
        994    1    1    2    0    0 -0.66919317554E+01  0.17229319058E+01  0.23321049926E+01  0.17135527176E+03  0.17120000000E+03 0.  0.
        998    1    1    2    0    0 -0.14910487586E+02 -0.10486148692E+02  0.13640476291E+04  0.13642060755E+04  0.10000000000E+02 0. -1.
</event>
<event>
 5    1  0.1106231E-008  0.3716386E+03  0.7957747E-01  0.3488394E+00
         13   -1    0    0    0    0  0.00000000000E+00  0.00000000000E+00  0.14999999963E+04  0.15000000000E+04  0.10566000000E+00 0. -1.
        994   -1    0    0    0    0 -0.00000000000E+00 -0.00000000000E+00  0.11368683772E-12  0.17120000000E+03  0.17120000000E+03 0.  0.
         13    1    1    2    0    0  0.70079088133E+02  0.65561943403E+02  0.48908186398E+03  0.49840799337E+03  0.10566000000E+00 0. -1.
        994    1    1    2    0    0 -0.20641988507E+02 -0.19046707191E+02  0.14586615038E+02  0.17410076991E+03  0.17120000000E+03 0.  0.
        998    1    1    2    0    0 -0.49437099625E+02 -0.46515236211E+02  0.99633151726E+03  0.99869123672E+03  0.10000000000E+02 0. -1.
</event>
<event>
 5    1  0.1106231E-008  0.3841337E+03  0.7957747E-01  0.3433355E+00
         13   -1    0    0    0    0  0.00000000000E+00  0.00000000000E+00  0.14999999963E+04  0.15000000000E+04  0.10566000000E+00 0.  1.
        994   -1    0    0    0    0 -0.00000000000E+00 -0.00000000000E+00  0.11368683772E-12  0.17120000000E+03  0.17120000000E+03 0.  0.
         13    1    1    2    0    0  0.24136767378E+01 -0.20615767204E+02  0.10048389917E+03  0.10260536462E+03  0.10566000000E+00 0.  1.
        994    1    1    2    0    0  0.13750705210E+01  0.18442213513E+02  0.31895915842E+01  0.17222549043E+03  0.17120000000E+03 0.  0.
        998    1    1    2    0    0 -0.37887472588E+01  0.21735536907E+01  0.13963265055E+04  0.13963691450E+04  0.10000000000E+02 0.  1.
</event>
<event>
 5    1  0.1106231E-008  0.3865827E+03  0.7957747E-01  0.3422987E+00
         13   -1    0    0    0    0  0.00000000000E+00  0.00000000000E+00  0.14999999963E+04  0.15000000000E+04  0.10566000000E+00 0.  1.
        994   -1    0    0    0    0 -0.00000000000E+00 -0.00000000000E+00  0.11368683772E-12  0.17120000000E+03  0.17120000000E+03 0.  0.
         13    1    1    2    0    0 -0.15419830752E+02 -0.31246651008E+02  0.21678776383E+02  0.41037847033E+02  0.10566000000E+00 0.  1.
        994    1    1    2    0    0  0.27383931462E+01  0.41338295178E+02  0.26391518306E+02  0.17810756773E+03  0.17120000000E+03 0.  0.
        998    1    1    2    0    0  0.12681437606E+02 -0.10091644170E+02  0.14519297016E+04  0.14520545852E+04  0.10000000000E+02 0.  1.
</event>
<event>
 5    1  0.1106231E-008  0.3841899E+03  0.7957747E-01  0.3433115E+00
         13   -1    0    0    0    0  0.00000000000E+00  0.00000000000E+00  0.14999999963E+04  0.15000000000E+04  0.10566000000E+00 0. -1.
        994   -1    0    0    0    0 -0.00000000000E+00 -0.00000000000E+00  0.11368683772E-12  0.17120000000E+03  0.17120000000E+03 0.  0.
         13    1    1    2    0    0 -0.16462913301E+02  0.42701344211E+01  0.73023133070E+02  0.74977667940E+02  0.10566000000E+00 0. -1.
        994    1    1    2    0    0  0.87957037153E+01  0.96850260483E+01  0.25974395714E+01  0.17171881326E+03  0.17120000000E+03 0.  0.
        998    1    1    2    0    0  0.76672095854E+01 -0.13955160469E+02  0.14243794236E+04  0.14245035188E+04  0.10000000000E+02 0. -1.
</event>
<event>
 5    1  0.1106231E-008  0.3816733E+03  0.7957747E-01  0.3443905E+00
         13   -1    0    0    0    0  0.00000000000E+00  0.00000000000E+00  0.14999999963E+04  0.15000000000E+04  0.10566000000E+00 0.  1.
        994   -1    0    0    0    0 -0.00000000000E+00 -0.00000000000E+00  0.11368683772E-12  0.17120000000E+03  0.17120000000E+03 0.  0.
         13    1    1    2    0    0  0.15336776875E+02 -0.99552897736E+01  0.50630424322E+02  0.53830990614E+02  0.10566000000E+00 0.  1.
        994    1    1    2    0    0 -0.80274788677E+01  0.97299932642E+00  0.35082813844E+01  0.17142676332E+03  0.17120000000E+03 0.  0.
        998    1    1    2    0    0 -0.73092980078E+01  0.89822904472E+01  0.14458612906E+04  0.14459422461E+04  0.10000000000E+02 0.  1.
</event>
<event>
 5    1  0.1106231E-008  0.3830753E+03  0.7957747E-01  0.3437876E+00
         13   -1    0    0    0    0  0.00000000000E+00  0.00000000000E+00  0.14999999963E+04  0.15000000000E+04  0.10566000000E+00 0. -1.
        994   -1    0    0    0    0 -0.00000000000E+00 -0.00000000000E+00  0.11368683772E-12  0.17120000000E+03  0.17120000000E+03 0.  0.
         13    1    1    2    0    0 -0.14185892680E+02 -0.90020719770E+01  0.53493366919E+02  0.56069852143E+02  0.10566000000E+00 0. -1.
        994    1    1    2    0    0  0.12480666801E+02  0.29314158636E+01  0.31328300484E+01  0.17170793478E+03  0.17120000000E+03 0.  0.
        998    1    1    2    0    0  0.17052258789E+01  0.60706561134E+01  0.14433737993E+04  0.14434222131E+04  0.10000000000E+02 0. -1.
</event>
<event>
 5    1  0.1106231E-008  0.3713266E+03  0.7957747E-01  0.3489816E+00
         13   -1    0    0    0    0  0.00000000000E+00  0.00000000000E+00  0.14999999963E+04  0.15000000000E+04  0.10566000000E+00 0.  1.
        994   -1    0    0    0    0 -0.00000000000E+00 -0.00000000000E+00  0.11368683772E-12  0.17120000000E+03  0.17120000000E+03 0.  0.
         13    1    1    2    0    0 -0.28051070604E+02 -0.20031092113E+02  0.69120277396E+02  0.77238145528E+02  0.10566000000E+00 0.  1.
        994    1    1    2    0    0  0.12370215592E+02 -0.25556365966E+01  0.91266813130E+01  0.17190779454E+03  0.17120000000E+03 0.  0.
        998    1    1    2    0    0  0.15680855012E+02  0.22586728709E+02  0.14217530376E+04  0.14220540599E+04  0.10000000000E+02 0.  1.
</event>
<event>
 5    1  0.1106231E-008  0.3857043E+03  0.7957747E-01  0.3426691E+00
         13   -1    0    0    0    0  0.00000000000E+00  0.00000000000E+00  0.14999999963E+04  0.15000000000E+04  0.10566000000E+00 0. -1.
        994   -1    0    0    0    0 -0.00000000000E+00 -0.00000000000E+00  0.11368683772E-12  0.17120000000E+03  0.17120000000E+03 0.  0.
         13    1    1    2    0    0 -0.64700667091E+01 -0.13243322882E+02  0.83302969775E+02  0.84596946172E+02  0.10566000000E+00 0. -1.
        994    1    1    2    0    0  0.59821989111E+01  0.11265668020E+02  0.18148934587E+01  0.17168411638E+03  0.17120000000E+03 0.  0.
        998    1    1    2    0    0  0.48786779803E+00  0.19776548617E+01  0.14148821330E+04  0.14149189374E+04  0.10000000000E+02 0. -1.
</event>
<event>
 5    1  0.1106231E-008  0.3773317E+03  0.7957747E-01  0.3462860E+00
         13   -1    0    0    0    0  0.00000000000E+00  0.00000000000E+00  0.14999999963E+04  0.15000000000E+04  0.10566000000E+00 0.  1.
        994   -1    0    0    0    0 -0.00000000000E+00 -0.00000000000E+00  0.11368683772E-12  0.17120000000E+03  0.17120000000E+03 0.  0.
         13    1    1    2    0    0  0.23957831951E+02  0.17735858643E+02  0.84724025128E+02  0.89814865092E+02  0.10566000000E+00 0.  1.
        994    1    1    2    0    0  0.78263551727E+00 -0.44985924321E+01  0.55565132995E+01  0.17135099852E+03  0.17120000000E+03 0.  0.
        998    1    1    2    0    0 -0.24740467468E+02 -0.13237266211E+02  0.14097194579E+04  0.14100341364E+04  0.10000000000E+02 0.  1.
</event>
<event>
 5    1  0.1106231E-008  0.3858850E+03  0.7957747E-01  0.3425927E+00
         13   -1    0    0    0    0  0.00000000000E+00  0.00000000000E+00  0.14999999963E+04  0.15000000000E+04  0.10566000000E+00 0. -1.
        994   -1    0    0    0    0 -0.00000000000E+00 -0.00000000000E+00  0.11368683772E-12  0.17120000000E+03  0.17120000000E+03 0.  0.
         13    1    1    2    0    0 -0.90117458518E+01 -0.11096834236E+02  0.82825951561E+02  0.84050584229E+02  0.10566000000E+00 0. -1.
        994    1    1    2    0    0  0.83113283382E+01  0.12210792263E+02  0.19071839147E+01  0.17184661468E+03  0.17120000000E+03 0.  0.
        998    1    1    2    0    0  0.70041751354E+00 -0.11139580276E+01  0.14152668608E+04  0.14153028011E+04  0.10000000000E+02 0. -1.
</event>
<event>
 5    1  0.1106231E-008  0.3827202E+03  0.7957747E-01  0.3439399E+00
         13   -1    0    0    0    0  0.00000000000E+00  0.00000000000E+00  0.14999999963E+04  0.15000000000E+04  0.10566000000E+00 0.  1.
        994   -1    0    0    0    0 -0.00000000000E+00 -0.00000000000E+00  0.11368683772E-12  0.17120000000E+03  0.17120000000E+03 0.  0.
         13    1    1    2    0    0  0.47142082533E+02  0.60124390777E+02  0.15795369439E+03  0.17546138905E+03  0.10566000000E+00 0.  1.
        994    1    1    2    0    0 -0.41134030076E+02 -0.30492305963E+02  0.27488400877E+02  0.18079502575E+03  0.17120000000E+03 0.  0.
        998    1    1    2    0    0 -0.60080524574E+01 -0.29632084814E+02  0.13145579010E+04  0.13149435852E+04  0.10000000000E+02 0.  1.
</event>
<event>
 5    1  0.1106231E-008  0.3819551E+03  0.7957747E-01  0.3442690E+00
         13   -1    0    0    0    0  0.00000000000E+00  0.00000000000E+00  0.14999999963E+04  0.15000000000E+04  0.10566000000E+00 0. -1.
        994   -1    0    0    0    0 -0.00000000000E+00 -0.00000000000E+00  0.11368683772E-12  0.17120000000E+03  0.17120000000E+03 0.  0.
         13    1    1    2    0    0 -0.10538916049E+02 -0.97575664822E+01  0.32295933900E+02  0.35345683834E+02  0.10566000000E+00 0. -1.
        994    1    1    2    0    0 -0.74161510059E+01  0.13127014098E+02  0.39048617363E+01  0.17190696827E+03  0.17120000000E+03 0.  0.
        998    1    1    2    0    0  0.17955067055E+02 -0.33694476153E+01  0.14637992006E+04  0.14639473479E+04  0.10000000000E+02 0. -1.
</event>
<event>
 5    1  0.1106231E-008  0.3915373E+03  0.7957747E-01  0.3402411E+00
         13   -1    0    0    0    0  0.00000000000E+00  0.00000000000E+00  0.14999999963E+04  0.15000000000E+04  0.10566000000E+00 0.  1.
        994   -1    0    0    0    0 -0.00000000000E+00 -0.00000000000E+00  0.11368683772E-12  0.17120000000E+03  0.17120000000E+03 0.  0.
         13    1    1    2    0    0 -0.80191586996E+02  0.28083402834E+02  0.19537469358E+03  0.21305081599E+03  0.10566000000E+00 0.  1.
        994    1    1    2    0    0 -0.18954285643E+02 -0.19108648206E+02  0.25560996007E+02  0.17517765239E+03  0.17120000000E+03 0.  0.
        998    1    1    2    0    0  0.99145872639E+02 -0.89747546276E+01  0.12790643067E+04  0.12829715316E+04  0.10000000000E+02 0.  1.
</event>
<event>
 5    1  0.1106231E-008  0.3815011E+03  0.7957747E-01  0.3444648E+00
         13   -1    0    0    0    0  0.00000000000E+00  0.00000000000E+00  0.14999999963E+04  0.15000000000E+04  0.10566000000E+00 0. -1.
        994   -1    0    0    0    0 -0.00000000000E+00 -0.00000000000E+00  0.11368683772E-12  0.17120000000E+03  0.17120000000E+03 0.  0.
         13    1    1    2    0    0 -0.74661753354E+01 -0.10841071019E+02  0.23963033468E+02  0.27340642495E+02  0.10566000000E+00 0. -1.
        994    1    1    2    0    0  0.87803105506E+01  0.11084189448E+02  0.40427256890E+01  0.17183054659E+03  0.17120000000E+03 0.  0.
        998    1    1    2    0    0 -0.13141352153E+01 -0.24311842848E+00  0.14719942371E+04  0.14720288109E+04  0.10000000000E+02 0. -1.
</event>
<event>
 5    1  0.1106231E-008  0.3855118E+03  0.7957747E-01  0.3427504E+00
         13   -1    0    0    0    0  0.00000000000E+00  0.00000000000E+00  0.14999999963E+04  0.15000000000E+04  0.10566000000E+00 0. -1.
        994   -1    0    0    0    0 -0.00000000000E+00 -0.00000000000E+00  0.11368683772E-12  0.17120000000E+03  0.17120000000E+03 0.  0.
         13    1    1    2    0    0  0.23557120046E+02 -0.44752649370E+02  0.57598157542E+02  0.76650482364E+02  0.10566000000E+00 0. -1.
        994    1    1    2    0    0 -0.12497736751E+02  0.45162843712E+02  0.27554314605E+02  0.17962337300E+03  0.17120000000E+03 0.  0.
        998    1    1    2    0    0 -0.11059383295E+02 -0.41019434189E+00  0.14148475241E+04  0.14149261446E+04  0.10000000000E+02 0. -1.
</event>
<event>
 5    1  0.1106231E-008  0.3745802E+03  0.7957747E-01  0.3475102E+00
         13   -1    0    0    0    0  0.00000000000E+00  0.00000000000E+00  0.14999999963E+04  0.15000000000E+04  0.10566000000E+00 0. -1.
        994   -1    0    0    0    0 -0.00000000000E+00 -0.00000000000E+00  0.11368683772E-12  0.17120000000E+03  0.17120000000E+03 0.  0.
         13    1    1    2    0    0 -0.14061646647E+02  0.65679673212E+02  0.24515042743E+03  0.25418554761E+03  0.10566000000E+00 0. -1.
        994    1    1    2    0    0  0.36357102427E+02 -0.77106025200E+02  0.32049592219E+02  0.19391697806E+03  0.17120000000E+03 0.  0.
        998    1    1    2    0    0 -0.22295455780E+02  0.11426351987E+02  0.12227999766E+04  0.12230974743E+04  0.10000000000E+02 0. -1.
</event>
<event>
 5    1  0.1106231E-008  0.3852187E+03  0.7957747E-01  0.3428745E+00
         13   -1    0    0    0    0  0.00000000000E+00  0.00000000000E+00  0.14999999963E+04  0.15000000000E+04  0.10566000000E+00 0.  1.
        994   -1    0    0    0    0 -0.00000000000E+00 -0.00000000000E+00  0.11368683772E-12  0.17120000000E+03  0.17120000000E+03 0.  0.
         13    1    1    2    0    0 -0.62438089008E+01  0.12598137143E+02  0.66057167931E+02  0.67537092092E+02  0.10566000000E+00 0.  1.
        994    1    1    2    0    0 -0.66823609827E+01 -0.11403491829E+02  0.20959182706E+01  0.17172223632E+03  0.17120000000E+03 0.  0.
        998    1    1    2    0    0  0.12926169884E+02 -0.11946453148E+01  0.14318469101E+04  0.14319406716E+04  0.10000000000E+02 0.  1.
</event>
<event>
 5    1  0.1106231E-008  0.3796763E+03  0.7957747E-01  0.3452569E+00
         13   -1    0    0    0    0  0.00000000000E+00  0.00000000000E+00  0.14999999963E+04  0.15000000000E+04  0.10566000000E+00 0. -1.
        994   -1    0    0    0    0 -0.00000000000E+00 -0.00000000000E+00  0.11368683772E-12  0.17120000000E+03  0.17120000000E+03 0.  0.
         13    1    1    2    0    0 -0.20626060628E+02 -0.47236808832E+02  0.28211501780E+03  0.28678501516E+03  0.10566000000E+00 0. -1.
        994    1    1    2    0    0  0.36194706494E+02  0.28036955731E+02  0.11343439762E+02  0.17757883120E+03  0.17120000000E+03 0.  0.
        998    1    1    2    0    0 -0.15568645867E+02  0.19199853101E+02  0.12065415387E+04  0.12068361536E+04  0.10000000000E+02 0. -1.
</event>
<event>
 5    1  0.1106231E-008  0.3841580E+03  0.7957747E-01  0.3433251E+00
         13   -1    0    0    0    0  0.00000000000E+00  0.00000000000E+00  0.14999999963E+04  0.15000000000E+04  0.10566000000E+00 0. -1.
        994   -1    0    0    0    0 -0.00000000000E+00 -0.00000000000E+00  0.11368683772E-12  0.17120000000E+03  0.17120000000E+03 0.  0.
         13    1    1    2    0    0 -0.65664036087E+01  0.15355440948E+02  0.68651839044E+02  0.70654040162E+02  0.10566000000E+00 0. -1.
        994    1    1    2    0    0  0.33782661079E+00 -0.90942970733E+01  0.23219090600E+01  0.17145743387E+03  0.17120000000E+03 0.  0.
        998    1    1    2    0    0  0.62285769979E+01 -0.62611438747E+01  0.14290262482E+04  0.14290885260E+04  0.10000000000E+02 0. -1.
</event>
<event>
 5    1  0.1106231E-008  0.3795836E+03  0.7957747E-01  0.3452974E+00
         13   -1    0    0    0    0  0.00000000000E+00  0.00000000000E+00  0.14999999963E+04  0.15000000000E+04  0.10566000000E+00 0.  1.
        994   -1    0    0    0    0 -0.00000000000E+00 -0.00000000000E+00  0.11368683772E-12  0.17120000000E+03  0.17120000000E+03 0.  0.
         13    1    1    2    0    0 -0.24336622999E+02 -0.85391735700E+01  0.82533554034E+02  0.86469575053E+02  0.10566000000E+00 0.  1.
        994    1    1    2    0    0 -0.51223562682E+01  0.11346240389E+01  0.44356353561E+01  0.17133779725E+03  0.17120000000E+03 0.  0.
        998    1    1    2    0    0  0.29458979268E+02  0.74045495312E+01  0.14130308069E+04  0.14133926277E+04  0.10000000000E+02 0.  1.
</event>
<event>
 5    1  0.1106231E-008  0.3720631E+03  0.7957747E-01  0.3486463E+00
         13   -1    0    0    0    0  0.00000000000E+00  0.00000000000E+00  0.14999999963E+04  0.15000000000E+04  0.10566000000E+00 0.  1.
        994   -1    0    0    0    0 -0.00000000000E+00 -0.00000000000E+00  0.11368683772E-12  0.17120000000E+03  0.17120000000E+03 0.  0.
         13    1    1    2    0    0 -0.14427770540E+02 -0.74817542162E+01  0.52515025751E+01  0.17080007384E+02  0.10566000000E+00 0.  1.
        994    1    1    2    0    0  0.37549836739E+02 -0.12543858986E+02  0.17573479214E+02  0.17659446710E+03  0.17120000000E+03 0.  0.
        998    1    1    2    0    0 -0.23122066198E+02  0.20025613202E+02  0.14771750145E+04  0.14775255255E+04  0.10000000000E+02 0.  1.
</event>
<event>
 5    1  0.1106231E-008  0.3885288E+03  0.7957747E-01  0.3414842E+00
         13   -1    0    0    0    0  0.00000000000E+00  0.00000000000E+00  0.14999999963E+04  0.15000000000E+04  0.10566000000E+00 0. -1.
        994   -1    0    0    0    0 -0.00000000000E+00 -0.00000000000E+00  0.11368683772E-12  0.17120000000E+03  0.17120000000E+03 0.  0.
         13    1    1    2    0    0 -0.11090333692E+03 -0.70961439485E+02  0.39590329041E+03  0.41722236584E+03  0.10566000000E+00 0. -1.
        994    1    1    2    0    0  0.83396055343E+02  0.24393991421E+02  0.49926507920E+02  0.19837354929E+03  0.17120000000E+03 0.  0.
        998    1    1    2    0    0  0.27507281578E+02  0.46567448065E+02  0.10541701980E+04  0.10556040849E+04  0.10000000000E+02 0. -1.
</event>
<event>
 5    1  0.1106231E-008  0.3823521E+03  0.7957747E-01  0.3440980E+00
         13   -1    0    0    0    0  0.00000000000E+00  0.00000000000E+00  0.14999999963E+04  0.15000000000E+04  0.10566000000E+00 0. -1.
        994   -1    0    0    0    0 -0.00000000000E+00 -0.00000000000E+00  0.11368683772E-12  0.17120000000E+03  0.17120000000E+03 0.  0.
         13    1    1    2    0    0 -0.20121906442E+02  0.22075409836E+01  0.69247813565E+02  0.72145929917E+02  0.10566000000E+00 0. -1.
        994    1    1    2    0    0  0.11819265494E+02  0.83016117540E+01  0.36427882772E+01  0.17184679718E+03  0.17120000000E+03 0.  0.
        998    1    1    2    0    0  0.83026409487E+01 -0.10509152738E+02  0.14271093944E+04  0.14272072729E+04  0.10000000000E+02 0. -1.
</event>
<event>
 5    1  0.1106231E-008  0.3778645E+03  0.7957747E-01  0.3460510E+00
         13   -1    0    0    0    0  0.00000000000E+00  0.00000000000E+00  0.14999999963E+04  0.15000000000E+04  0.10566000000E+00 0. -1.
        994   -1    0    0    0    0 -0.00000000000E+00 -0.00000000000E+00  0.11368683772E-12  0.17120000000E+03  0.17120000000E+03 0.  0.
         13    1    1    2    0    0  0.12419630681E+02 -0.49952765507E+01  0.14863067792E+02  0.20003048825E+02  0.10566000000E+00 0. -1.
        994    1    1    2    0    0 -0.14709123291E+02 -0.79155042977E+01  0.61549338252E+01  0.17212302788E+03  0.17120000000E+03 0.  0.
        998    1    1    2    0    0  0.22894926098E+01  0.12910780848E+02  0.14789819947E+04  0.14790739233E+04  0.10000000000E+02 0. -1.
</event>
<event>
 5    1  0.1106231E-008  0.3847785E+03  0.7957747E-01  0.3430612E+00
         13   -1    0    0    0    0  0.00000000000E+00  0.00000000000E+00  0.14999999963E+04  0.15000000000E+04  0.10566000000E+00 0.  1.
        994   -1    0    0    0    0 -0.00000000000E+00 -0.00000000000E+00  0.11368683772E-12  0.17120000000E+03  0.17120000000E+03 0.  0.
         13    1    1    2    0    0  0.13472901890E+02  0.90266031686E+01  0.74201386503E+02  0.75952982648E+02  0.10566000000E+00 0.  1.
        994    1    1    2    0    0 -0.56481502232E+01 -0.15474172428E+02  0.26336760143E+01  0.17201083647E+03  0.17120000000E+03 0.  0.
        998    1    1    2    0    0 -0.78247516669E+01  0.64475692595E+01  0.14231649338E+04  0.14232361809E+04  0.10000000000E+02 0.  1.
</event>
<event>
 5    1  0.1106231E-008  0.3849889E+03  0.7957747E-01  0.3429719E+00
         13   -1    0    0    0    0  0.00000000000E+00  0.00000000000E+00  0.14999999963E+04  0.15000000000E+04  0.10566000000E+00 0. -1.
        994   -1    0    0    0    0 -0.00000000000E+00 -0.00000000000E+00  0.11368683772E-12  0.17120000000E+03  0.17120000000E+03 0.  0.
         13    1    1    2    0    0 -0.57931694770E+01  0.16724050182E+02  0.10326339701E+03  0.10476924641E+03  0.10566000000E+00 0. -1.
        994    1    1    2    0    0  0.76363058850E+01  0.36024673283E+00  0.18278708129E+01  0.17138034910E+03  0.17120000000E+03 0.  0.
        998    1    1    2    0    0 -0.18431364079E+01 -0.17084296915E+02  0.13949087285E+04  0.13950504045E+04  0.10000000000E+02 0. -1.
</event>
<event>
 5    1  0.1106231E-008  0.3774194E+03  0.7957747E-01  0.3462472E+00
         13   -1    0    0    0    0  0.00000000000E+00  0.00000000000E+00  0.14999999963E+04  0.15000000000E+04  0.10566000000E+00 0. -1.
        994   -1    0    0    0    0 -0.00000000000E+00 -0.00000000000E+00  0.11368683772E-12  0.17120000000E+03  0.17120000000E+03 0.  0.
         13    1    1    2    0    0 -0.19711283236E+02  0.64338076223E+01  0.36225681301E+02  0.41740145150E+02  0.10566000000E+00 0. -1.
        994    1    1    2    0    0  0.20871759424E+02 -0.12976287913E+02  0.74807202072E+01  0.17311676858E+03  0.17120000000E+03 0.  0.
        998    1    1    2    0    0 -0.11604761884E+01  0.65424802907E+01  0.14562935948E+04  0.14563430863E+04  0.10000000000E+02 0. -1.
</event>
<event>
 5    1  0.1106231E-008  0.3838328E+03  0.7957747E-01  0.3434638E+00
         13   -1    0    0    0    0  0.00000000000E+00  0.00000000000E+00  0.14999999963E+04  0.15000000000E+04  0.10566000000E+00 0. -1.
        994   -1    0    0    0    0 -0.00000000000E+00 -0.00000000000E+00  0.11368683772E-12  0.17120000000E+03  0.17120000000E+03 0.  0.
         13    1    1    2    0    0  0.18117420738E+02 -0.84430679399E+00  0.73444461628E+02  0.75650868442E+02  0.10566000000E+00 0. -1.
        994    1    1    2    0    0 -0.12761025945E+02  0.47970842258E+00  0.27492605410E+01  0.17169761890E+03  0.17120000000E+03 0.  0.
        998    1    1    2    0    0 -0.53563947927E+01  0.36459837140E+00  0.14238062741E+04  0.14238515127E+04  0.10000000000E+02 0.  0.
</event>
<event>
 5    1  0.1106231E-008  0.3782688E+03  0.7957747E-01  0.3458731E+00
         13   -1    0    0    0    0  0.00000000000E+00  0.00000000000E+00  0.14999999963E+04  0.15000000000E+04  0.10566000000E+00 0.  1.
        994   -1    0    0    0    0 -0.00000000000E+00 -0.00000000000E+00  0.11368683772E-12  0.17120000000E+03  0.17120000000E+03 0.  0.
         13    1    1    2    0    0  0.48278650222E+00  0.11261638139E+02  0.10405469382E+02  0.15340877859E+02  0.10566000000E+00 0.  1.
        994    1    1    2    0    0 -0.24161154196E+01 -0.97545138465E+01  0.53492093785E+01  0.17157809358E+03  0.17120000000E+03 0.  0.
        998    1    1    2    0    0  0.19333289174E+01 -0.15071242928E+01  0.14842453175E+04  0.14842810286E+04  0.10000000000E+02 0.  1.
</event>
<event>
 5    1  0.1106231E-008  0.3849286E+03  0.7957747E-01  0.3429975E+00
         13   -1    0    0    0    0  0.00000000000E+00  0.00000000000E+00  0.14999999963E+04  0.15000000000E+04  0.10566000000E+00 0.  1.
        994   -1    0    0    0    0 -0.00000000000E+00 -0.00000000000E+00  0.11368683772E-12  0.17120000000E+03  0.17120000000E+03 0.  0.
         13    1    1    2    0    0  0.11126611923E+02 -0.12672498020E+02  0.83359519783E+02  0.85048306282E+02  0.10566000000E+00 0.  1.
        994    1    1    2    0    0  0.24782985877E+02  0.45308971675E+02  0.10488518055E+02  0.17912718474E+03  0.17120000000E+03 0.  0.
        998    1    1    2    0    0 -0.35909597800E+02 -0.32636473655E+02  0.14061519584E+04  0.14070245090E+04  0.10000000000E+02 0.  1.
</event>
<event>
 5    1  0.1106231E-008  0.3711135E+03  0.7957747E-01  0.3490789E+00
         13   -1    0    0    0    0  0.00000000000E+00  0.00000000000E+00  0.14999999963E+04  0.15000000000E+04  0.10566000000E+00 0.  1.
        994   -1    0    0    0    0 -0.00000000000E+00 -0.00000000000E+00  0.11368683772E-12  0.17120000000E+03  0.17120000000E+03 0.  0.
         13    1    1    2    0    0  0.16938880175E+02  0.26113175523E+02  0.50933456244E+02  0.59691303609E+02  0.10566000000E+00 0.  1.
        994    1    1    2    0    0 -0.15070965527E+02 -0.26359246510E+02  0.11870340567E+02  0.17427647249E+03  0.17120000000E+03 0.  0.
        998    1    1    2    0    0 -0.18679146483E+01  0.24607098627E+00  0.14371961995E+04  0.14372322239E+04  0.10000000000E+02 0.  1.
</event>
<event>
 5    1  0.1106231E-008  0.3845060E+03  0.7957747E-01  0.3431770E+00
         13   -1    0    0    0    0  0.00000000000E+00  0.00000000000E+00  0.14999999963E+04  0.15000000000E+04  0.10566000000E+00 0.  1.
        994   -1    0    0    0    0 -0.00000000000E+00 -0.00000000000E+00  0.11368683772E-12  0.17120000000E+03  0.17120000000E+03 0.  0.
         13    1    1    2    0    0  0.14842557527E+02  0.31209388805E+00  0.57314034805E+02  0.59205647249E+02  0.10566000000E+00 0.  1.
        994    1    1    2    0    0 -0.13748540753E+02  0.80105398461E+01  0.27100228963E+01  0.17195922582E+03  0.17120000000E+03 0.  0.
        998    1    1    2    0    0 -0.10940167740E+01 -0.83226337341E+01  0.14399759386E+04  0.14400351269E+04  0.10000000000E+02 0.  1.
</event>
<event>
 5    1  0.1106231E-008  0.3794269E+03  0.7957747E-01  0.3453658E+00
         13   -1    0    0    0    0  0.00000000000E+00  0.00000000000E+00  0.14999999963E+04  0.15000000000E+04  0.10566000000E+00 0. -1.
        994   -1    0    0    0    0 -0.00000000000E+00 -0.00000000000E+00  0.11368683772E-12  0.17120000000E+03  0.17120000000E+03 0.  0.
         13    1    1    2    0    0 -0.86094934881E+01  0.11913319751E+02  0.22645328482E+02  0.26997641225E+02  0.10566000000E+00 0. -1.
        994    1    1    2    0    0  0.39243952299E+01 -0.87460333583E+01  0.47305335668E+01  0.17153341344E+03  0.17120000000E+03 0.  0.
        998    1    1    2    0    0  0.46850982582E+01 -0.31672863923E+01  0.14726241342E+04  0.14726689453E+04  0.10000000000E+02 0. -1.
</event>
<event>
 5    1  0.1106231E-008  0.3842564E+03  0.7957747E-01  0.3432832E+00
         13   -1    0    0    0    0  0.00000000000E+00  0.00000000000E+00  0.14999999963E+04  0.15000000000E+04  0.10566000000E+00 0. -1.
        994   -1    0    0    0    0 -0.00000000000E+00 -0.00000000000E+00  0.11368683772E-12  0.17120000000E+03  0.17120000000E+03 0.  0.
         13    1    1    2    0    0  0.17745199262E+02  0.62318893265E+01  0.84168638847E+02  0.86244417041E+02  0.10566000000E+00 0. -1.
        994    1    1    2    0    0 -0.18441157472E+02 -0.50942736476E+01  0.32073440602E+01  0.17229554541E+03  0.17120000000E+03 0.  0.
        998    1    1    2    0    0  0.69595820942E+00 -0.11376156789E+01  0.14126240134E+04  0.14126600375E+04  0.10000000000E+02 0.  0.
</event>
<event>
 5    1  0.1286200E-008  0.3863267E+03  0.7957747E-01  0.3424065E+00
         13   -1    0    0    0    0  0.00000000000E+00  0.00000000000E+00  0.14999999963E+04  0.15000000000E+04  0.10566000000E+00 0.  1.
        994   -1    0    0    0    0 -0.00000000000E+00 -0.00000000000E+00  0.11368683772E-12  0.17120000000E+03  0.17120000000E+03 0.  0.
         13    1    1    2    0    0  0.89328458080E+01  0.73646170672E+01  0.67248258838E+02  0.68237620120E+02  0.10566000000E+00 0.  1.
        994    1    1    2    0    0 -0.77697562057E+01 -0.10675206226E+02  0.15439190417E+01  0.17171532496E+03  0.17120000000E+03 0.  0.
        998    1    1    2    0    0 -0.11630896023E+01  0.33105891589E+01  0.14312078184E+04  0.14312470549E+04  0.10000000000E+02 0.  1.
</event>
<event>
 5    1  0.1106231E-008  0.3764430E+03  0.7957747E-01  0.3466794E+00
         13   -1    0    0    0    0  0.00000000000E+00  0.00000000000E+00  0.14999999963E+04  0.15000000000E+04  0.10566000000E+00 0. -1.
        994   -1    0    0    0    0 -0.00000000000E+00 -0.00000000000E+00  0.11368683772E-12  0.17120000000E+03  0.17120000000E+03 0.  0.
         13    1    1    2    0    0 -0.37940675034E+02 -0.38478214423E+02  0.20388528274E+03  0.21092483848E+03  0.10566000000E+00 0. -1.
        994    1    1    2    0    0  0.45391358391E+02  0.39474658542E+02  0.18280139954E+02  0.18237935081E+03  0.17120000000E+03 0.  0.
        998    1    1    2    0    0 -0.74506833564E+01 -0.99644411938E+00  0.12778345736E+04  0.12778958107E+04  0.10000000000E+02 0. -1.
</event>
<event>
 5    1  0.1106231E-008  0.3760066E+03  0.7957747E-01  0.3468733E+00
         13   -1    0    0    0    0  0.00000000000E+00  0.00000000000E+00  0.14999999963E+04  0.15000000000E+04  0.10566000000E+00 0.  1.
        994   -1    0    0    0    0 -0.00000000000E+00 -0.00000000000E+00  0.11368683772E-12  0.17120000000E+03  0.17120000000E+03 0.  0.
         13    1    1    2    0    0  0.90818638053E+01  0.28353941818E+02  0.73772704503E+02  0.79554065644E+02  0.10566000000E+00 0.  1.
        994    1    1    2    0    0 -0.23425537207E+01 -0.31008816835E+01  0.62138872661E+01  0.17135680734E+03  0.17120000000E+03 0.  0.
        998    1    1    2    0    0 -0.67393100847E+01 -0.25253060134E+02  0.14200134045E+04  0.14202891270E+04  0.10000000000E+02 0.  1.
</event>
<event>
 5    1  0.1106231E-008  0.3696255E+03  0.7957747E-01  0.3497614E+00
         13   -1    0    0    0    0  0.00000000000E+00  0.00000000000E+00  0.14999999963E+04  0.15000000000E+04  0.10566000000E+00 0.  1.
        994   -1    0    0    0    0 -0.00000000000E+00 -0.00000000000E+00  0.11368683772E-12  0.17120000000E+03  0.17120000000E+03 0.  0.
         13    1    1    2    0    0  0.34269459985E+01 -0.26480492871E+02  0.33383341137E+02  0.42748322670E+02  0.10566000000E+00 0.  1.
        994    1    1    2    0    0  0.57492821377E+00  0.23934793867E+02  0.11451958101E+02  0.17324489096E+03  0.17120000000E+03 0.  0.
        998    1    1    2    0    0 -0.40018742123E+01  0.25456990048E+01  0.14551646970E+04  0.14552067864E+04  0.10000000000E+02 0.  1.
</event>
<event>
 5    1  0.1106231E-008  0.3753663E+03  0.7957747E-01  0.3471586E+00
         13   -1    0    0    0    0  0.00000000000E+00  0.00000000000E+00  0.14999999963E+04  0.15000000000E+04  0.10566000000E+00 0.  1.
        994   -1    0    0    0    0 -0.00000000000E+00 -0.00000000000E+00  0.11368683772E-12  0.17120000000E+03  0.17120000000E+03 0.  0.
         13    1    1    2    0    0 -0.73435758107E+01 -0.22225888456E+02  0.42157467988E+02  0.48220135779E+02  0.10566000000E+00 0.  1.
        994    1    1    2    0    0  0.10536248477E+02 -0.88623254174E+01  0.71345295650E+01  0.17190082855E+03  0.17120000000E+03 0.  0.
        998    1    1    2    0    0 -0.31926726662E+01  0.31088213873E+02  0.14507079987E+04  0.14510790357E+04  0.10000000000E+02 0.  1.
</event>
<event>
 5    1  0.1106231E-008  0.3734823E+03  0.7957747E-01  0.3480038E+00
         13   -1    0    0    0    0  0.00000000000E+00  0.00000000000E+00  0.14999999963E+04  0.15000000000E+04  0.10566000000E+00 0.  1.
        994   -1    0    0    0    0 -0.00000000000E+00 -0.00000000000E+00  0.11368683772E-12  0.17120000000E+03  0.17120000000E+03 0.  0.
         13    1    1    2    0    0  0.85965614146E+02 -0.14115106186E+02  0.24854608061E+03  0.26337138871E+03  0.10566000000E+00 0.  1.
        994    1    1    2    0    0 -0.81843374552E+02  0.15514895938E+02  0.37776157992E+02  0.19410184973E+03  0.17120000000E+03 0.  0.
        998    1    1    2    0    0 -0.41222395932E+01 -0.13997897526E+01  0.12136777577E+04  0.12137267616E+04  0.10000000000E+02 0.  1.
</event>
<event>
 5    1  0.1106231E-008  0.3742836E+03  0.7957747E-01  0.3476433E+00
         13   -1    0    0    0    0  0.00000000000E+00  0.00000000000E+00  0.14999999963E+04  0.15000000000E+04  0.10566000000E+00 0. -1.
        994   -1    0    0    0    0 -0.00000000000E+00 -0.00000000000E+00  0.11368683772E-12  0.17120000000E+03  0.17120000000E+03 0.  0.
         13    1    1    2    0    0 -0.49673005125E+02  0.21229024786E+01  0.18500216431E+03  0.19156650573E+03  0.10566000000E+00 0. -1.
        994    1    1    2    0    0  0.18035789631E+02  0.13657212757E+02  0.87929888325E+01  0.17291201757E+03  0.17120000000E+03 0.  0.
        998    1    1    2    0    0  0.31637215494E+02 -0.15780115236E+02  0.13062048431E+04  0.13067214767E+04  0.10000000000E+02 0. -1.
</event>
<event>
 5    1  0.1106231E-008  0.3830464E+03  0.7957747E-01  0.3438000E+00
         13   -1    0    0    0    0  0.00000000000E+00  0.00000000000E+00  0.14999999963E+04  0.15000000000E+04  0.10566000000E+00 0.  1.
        994   -1    0    0    0    0 -0.00000000000E+00 -0.00000000000E+00  0.11368683772E-12  0.17120000000E+03  0.17120000000E+03 0.  0.
         13    1    1    2    0    0 -0.10982400684E+02  0.77672726210E+01  0.34121735723E+02  0.36677617991E+02  0.10566000000E+00 0.  1.
        994    1    1    2    0    0  0.66561186644E+01 -0.35155378028E+01  0.27907565947E+01  0.17138813041E+03  0.17120000000E+03 0.  0.
        998    1    1    2    0    0  0.43262820197E+01 -0.42517348182E+01  0.14630875040E+04  0.14631342516E+04  0.10000000000E+02 0.  1.
</event>
<event>
 5    1  0.1106231E-008  0.3699210E+03  0.7957747E-01  0.3496254E+00
         13   -1    0    0    0    0  0.00000000000E+00  0.00000000000E+00  0.14999999963E+04  0.15000000000E+04  0.10566000000E+00 0.  1.
        994   -1    0    0    0    0 -0.00000000000E+00 -0.00000000000E+00  0.11368683772E-12  0.17120000000E+03  0.17120000000E+03 0.  0.
         13    1    1    2    0    0 -0.19025807144E+03 -0.42472212348E+01  0.79988630985E+03  0.82221304568E+03  0.10566000000E+00 0.  1.
        994    1    1    2    0    0  0.18556347454E+03  0.12642448697E+02  0.14051999209E+03  0.28922126956E+03  0.17120000000E+03 0.  0.
        998    1    1    2    0    0  0.46945968979E+01 -0.83952274618E+01  0.55959369434E+03  0.55976568476E+03  0.10000000000E+02 0.  0.
</event>
<event>
 5    1  0.1106231E-008  0.3798843E+03  0.7957747E-01  0.3451662E+00
         13   -1    0    0    0    0  0.00000000000E+00  0.00000000000E+00  0.14999999963E+04  0.15000000000E+04  0.10566000000E+00 0.  1.
        994   -1    0    0    0    0 -0.00000000000E+00 -0.00000000000E+00  0.11368683772E-12  0.17120000000E+03  0.17120000000E+03 0.  0.
         13    1    1    2    0    0  0.13699630334E+01 -0.21787398214E+02  0.56599116280E+02  0.60663322093E+02  0.10566000000E+00 0.  1.
        994    1    1    2    0    0 -0.17152147407E+01  0.81225395668E+01  0.44220630603E+01  0.17145819389E+03  0.17120000000E+03 0.  0.
        998    1    1    2    0    0  0.34525170738E+00  0.13664858647E+02  0.14389788169E+04  0.14390784840E+04  0.10000000000E+02 0.  1.
</event>
<event>
 5    1  0.1106231E-008  0.3798256E+03  0.7957747E-01  0.3451918E+00
         13   -1    0    0    0    0  0.00000000000E+00  0.00000000000E+00  0.14999999963E+04  0.15000000000E+04  0.10566000000E+00 0. -1.
        994   -1    0    0    0    0 -0.00000000000E+00 -0.00000000000E+00  0.11368683772E-12  0.17120000000E+03  0.17120000000E+03 0.  0.
         13    1    1    2    0    0 -0.50559976083E+02 -0.32523672690E+02  0.34216728009E+03  0.34740834647E+03  0.10566000000E+00 0. -1.
        994    1    1    2    0    0  0.57101472227E+02  0.17559745554E+02  0.16252501800E+02  0.18205083523E+03  0.17120000000E+03 0.  0.
        998    1    1    2    0    0 -0.65414961439E+01  0.14963927137E+02  0.11415802144E+04  0.11417408183E+04  0.10000000000E+02 0. -1.
</event>
<event>
 5    1  0.1106231E-008  0.3809440E+03  0.7957747E-01  0.3447058E+00
         13   -1    0    0    0    0  0.00000000000E+00  0.00000000000E+00  0.14999999963E+04  0.15000000000E+04  0.10566000000E+00 0.  1.
        994   -1    0    0    0    0 -0.00000000000E+00 -0.00000000000E+00  0.11368683772E-12  0.17120000000E+03  0.17120000000E+03 0.  0.
         13    1    1    2    0    0  0.21645556863E+02  0.15730699822E+01  0.61347563666E+02  0.65073338725E+02  0.10566000000E+00 0.  1.
        994    1    1    2    0    0 -0.20634774128E+02  0.17661613077E+01  0.50880566739E+01  0.17252316236E+03  0.17120000000E+03 0.  0.
        998    1    1    2    0    0 -0.10107827351E+01 -0.33392312900E+01  0.14335643759E+04  0.14336034989E+04  0.10000000000E+02 0.  1.
</event>
<event>
 5    1  0.1106231E-008  0.3855600E+03  0.7957747E-01  0.3427301E+00
         13   -1    0    0    0    0  0.00000000000E+00  0.00000000000E+00  0.14999999963E+04  0.15000000000E+04  0.10566000000E+00 0. -1.
        994   -1    0    0    0    0 -0.00000000000E+00 -0.00000000000E+00  0.11368683772E-12  0.17120000000E+03  0.17120000000E+03 0.  0.
         13    1    1    2    0    0 -0.25783928501E+01 -0.16199587232E+02  0.97917997516E+02  0.99282526850E+02  0.10566000000E+00 0. -1.
        994    1    1    2    0    0  0.16592710012E+02  0.10969347052E+02  0.26522316697E+01  0.17237203640E+03  0.17120000000E+03 0.  0.
        998    1    1    2    0    0 -0.14014317162E+02  0.52302401802E+01  0.13994297671E+04  0.13995454367E+04  0.10000000000E+02 0. -1.
</event>
<event>
 5    1  0.1106231E-008  0.3800082E+03  0.7957747E-01  0.3451123E+00
         13   -1    0    0    0    0  0.00000000000E+00  0.00000000000E+00  0.14999999963E+04  0.15000000000E+04  0.10566000000E+00 0.  1.
        994   -1    0    0    0    0 -0.00000000000E+00 -0.00000000000E+00  0.11368683772E-12  0.17120000000E+03  0.17120000000E+03 0.  0.
         13    1    1    2    0    0  0.76415307937E+02 -0.26204167186E+01  0.45220151582E+03  0.45862009109E+03  0.10566000000E+00 0.  1.
        994    1    1    2    0    0 -0.83563076954E+02 -0.38185529286E+01  0.27886193076E+02  0.19257323007E+03  0.17120000000E+03 0.  0.
        998    1    1    2    0    0  0.71477690173E+01  0.64389696471E+01  0.10199122874E+04  0.10200066788E+04  0.10000000000E+02 0.  1.
</event>
<event>
 5    1  0.1106231E-008  0.3857892E+03  0.7957747E-01  0.3426332E+00
         13   -1    0    0    0    0  0.00000000000E+00  0.00000000000E+00  0.14999999963E+04  0.15000000000E+04  0.10566000000E+00 0.  1.
        994   -1    0    0    0    0 -0.00000000000E+00 -0.00000000000E+00  0.11368683772E-12  0.17120000000E+03  0.17120000000E+03 0.  0.
         13    1    1    2    0    0  0.72708692063E+00  0.11593462027E+02  0.54360154248E+02  0.55587539531E+02  0.10566000000E+00 0.  1.
        994    1    1    2    0    0 -0.11968782539E+02 -0.87927198952E+01  0.19626684825E+01  0.17185417000E+03  0.17120000000E+03 0.  0.
        998    1    1    2    0    0  0.11241695619E+02 -0.28007421317E+01  0.14436771735E+04  0.14437582905E+04  0.10000000000E+02 0.  1.
</event>
<event>
 5    1  0.1106231E-008  0.3836413E+03  0.7957747E-01  0.3435455E+00
         13   -1    0    0    0    0  0.00000000000E+00  0.00000000000E+00  0.14999999963E+04  0.15000000000E+04  0.10566000000E+00 0.  1.
        994   -1    0    0    0    0 -0.00000000000E+00 -0.00000000000E+00  0.11368683772E-12  0.17120000000E+03  0.17120000000E+03 0.  0.
         13    1    1    2    0    0  0.28676389658E+01  0.17114323089E+02  0.61233848981E+02  0.63645257743E+02  0.10566000000E+00 0.  1.
        994    1    1    2    0    0 -0.66031677372E+01 -0.21134878061E+02  0.39273851241E+01  0.17267063806E+03  0.17120000000E+03 0.  0.
        998    1    1    2    0    0  0.37355287714E+01  0.40205549722E+01  0.14348387622E+04  0.14348841042E+04  0.10000000000E+02 0.  1.
</event>
<event>
 5    1  0.1106231E-008  0.3702620E+03  0.7957747E-01  0.3494688E+00
         13   -1    0    0    0    0  0.00000000000E+00  0.00000000000E+00  0.14999999963E+04  0.15000000000E+04  0.10566000000E+00 0.  1.
        994   -1    0    0    0    0 -0.00000000000E+00 -0.00000000000E+00  0.11368683772E-12  0.17120000000E+03  0.17120000000E+03 0.  0.
         13    1    1    2    0    0 -0.20733574863E+02  0.19412998419E+03  0.68258458968E+03  0.70995638254E+03  0.10566000000E+00 0.  1.
        994    1    1    2    0    0  0.79013641070E+02 -0.21579653834E+03  0.22197617723E+03  0.36248333023E+03  0.17120000000E+03 0.  0.
        998    1    1    2    0    0 -0.58280066207E+02  0.21666554155E+02  0.59543922937E+03  0.59876028723E+03  0.10000000000E+02 0.  1.
</event>
<event>
 5    1  0.1106231E-008  0.3850252E+03  0.7957747E-01  0.3429565E+00
         13   -1    0    0    0    0  0.00000000000E+00  0.00000000000E+00  0.14999999963E+04  0.15000000000E+04  0.10566000000E+00 0.  1.
        994   -1    0    0    0    0 -0.00000000000E+00 -0.00000000000E+00  0.11368683772E-12  0.17120000000E+03  0.17120000000E+03 0.  0.
         13    1    1    2    0    0  0.61776352772E+01  0.93478758842E+01  0.38034927303E+02  0.39651138952E+02  0.10566000000E+00 0.  1.
        994    1    1    2    0    0 -0.11082383244E+02 -0.58478662596E+01  0.21341230216E+01  0.17167123009E+03  0.17120000000E+03 0.  0.
        998    1    1    2    0    0  0.49047479671E+01 -0.35000096246E+01  0.14598309460E+04  0.14598776310E+04  0.10000000000E+02 0.  1.
</event>
<event>
 5    1  0.1106231E-008  0.3817609E+03  0.7957747E-01  0.3443527E+00
         13   -1    0    0    0    0  0.00000000000E+00  0.00000000000E+00  0.14999999963E+04  0.15000000000E+04  0.10566000000E+00 0.  1.
        994   -1    0    0    0    0 -0.00000000000E+00 -0.00000000000E+00  0.11368683772E-12  0.17120000000E+03  0.17120000000E+03 0.  0.
         13    1    1    2    0    0  0.16298936585E+02  0.11133398791E+02  0.60582552596E+02  0.63717067929E+02  0.10566000000E+00 0.  1.
        994    1    1    2    0    0 -0.53932717794E+01 -0.36099227273E+01  0.33868863039E+01  0.17135644114E+03  0.17120000000E+03 0.  0.
        998    1    1    2    0    0 -0.10905664806E+02 -0.75234760632E+01  0.14360305574E+04  0.14361264909E+04  0.10000000000E+02 0.  1.
</event>
<event>
 5    1  0.1106231E-008  0.3816843E+03  0.7957747E-01  0.3443857E+00
         13   -1    0    0    0    0  0.00000000000E+00  0.00000000000E+00  0.14999999963E+04  0.15000000000E+04  0.10566000000E+00 0.  1.
        994   -1    0    0    0    0 -0.00000000000E+00 -0.00000000000E+00  0.11368683772E-12  0.17120000000E+03  0.17120000000E+03 0.  0.
         13    1    1    2    0    0 -0.51056467398E+01  0.20056353326E+02  0.66583150276E+02  0.69725547700E+02  0.10566000000E+00 0.  1.
        994    1    1    2    0    0  0.62901809587E+01 -0.36583140496E+01  0.34613967276E+01  0.17138952974E+03  0.17120000000E+03 0.  0.
        998    1    1    2    0    0 -0.11845342190E+01 -0.16398039276E+02  0.14299554493E+04  0.14300849226E+04  0.10000000000E+02 0.  1.
</event>
<event>
 5    1  0.1106231E-008  0.3755228E+03  0.7957747E-01  0.3470888E+00
         13   -1    0    0    0    0  0.00000000000E+00  0.00000000000E+00  0.14999999963E+04  0.15000000000E+04  0.10566000000E+00 0.  1.
        994   -1    0    0    0    0 -0.00000000000E+00 -0.00000000000E+00  0.11368683772E-12  0.17120000000E+03  0.17120000000E+03 0.  0.
         13    1    1    2    0    0 -0.32745180115E+02 -0.38874969064E+02  0.84815471232E+02  0.98879650913E+02  0.10566000000E+00 0.  1.
        994    1    1    2    0    0  0.30098441848E+02  0.34956300174E+02  0.21514237371E+02  0.17860616320E+03  0.17120000000E+03 0.  0.
        998    1    1    2    0    0  0.26467382663E+01  0.39186688894E+01  0.13936702877E+04  0.13937141859E+04  0.10000000000E+02 0.  1.
</event>
<event>
 5    1  0.1125351E-008  0.3861124E+03  0.7957747E-01  0.3424968E+00
         13   -1    0    0    0    0  0.00000000000E+00  0.00000000000E+00  0.14999999963E+04  0.15000000000E+04  0.10566000000E+00 0. -1.
        994   -1    0    0    0    0 -0.00000000000E+00 -0.00000000000E+00  0.11368683772E-12  0.17120000000E+03  0.17120000000E+03 0.  0.
         13    1    1    2    0    0 -0.10525112781E+02 -0.76168795920E+01  0.77329266691E+02  0.78413146249E+02  0.10566000000E+00 0. -1.
        994    1    1    2    0    0  0.10873500035E+02  0.46042658810E+01  0.15359047270E+01  0.17161361039E+03  0.17120000000E+03 0.  0.
        998    1    1    2    0    0 -0.34838725316E+00  0.30126137110E+01  0.14211348249E+04  0.14211732434E+04  0.10000000000E+02 0.  0.
</event>
<event>
 5    1  0.1106231E-008  0.3792789E+03  0.7957747E-01  0.3454304E+00
         13   -1    0    0    0    0  0.00000000000E+00  0.00000000000E+00  0.14999999963E+04  0.15000000000E+04  0.10566000000E+00 0.  1.
        994   -1    0    0    0    0 -0.00000000000E+00 -0.00000000000E+00  0.11368683772E-12  0.17120000000E+03  0.17120000000E+03 0.  0.
         13    1    1    2    0    0 -0.17419356955E+02 -0.38082535554E+01  0.32959261905E+02  0.37473469298E+02  0.10566000000E+00 0.  1.
        994    1    1    2    0    0  0.17469293481E+02  0.38459007323E+01  0.55704750145E+01  0.17222205828E+03  0.17120000000E+03 0.  0.
        998    1    1    2    0    0 -0.49936526088E-01 -0.37647176942E-01  0.14614702594E+04  0.14615044724E+04  0.10000000000E+02 0.  0.
</event>
<event>
 5    1  0.1106231E-008  0.3698749E+03  0.7957747E-01  0.3496466E+00
         13   -1    0    0    0    0  0.00000000000E+00  0.00000000000E+00  0.14999999963E+04  0.15000000000E+04  0.10566000000E+00 0. -1.
        994   -1    0    0    0    0 -0.00000000000E+00 -0.00000000000E+00  0.11368683772E-12  0.17120000000E+03  0.17120000000E+03 0.  0.
         13    1    1    2    0    0  0.28411814590E+02 -0.41092416903E+02  0.12481171295E+03  0.13443880685E+03  0.10566000000E+00 0. -1.
        994    1    1    2    0    0 -0.43425589155E+02 -0.27418862511E+02  0.20147049521E+02  0.17986917307E+03  0.17120000000E+03 0.  0.
        998    1    1    2    0    0  0.15013774565E+02  0.68511279413E+02  0.13550412338E+04  0.13568920201E+04  0.10000000000E+02 0. -1.
</event>
<event>
 5    1  0.1106231E-008  0.3838272E+03  0.7957747E-01  0.3434662E+00
         13   -1    0    0    0    0  0.00000000000E+00  0.00000000000E+00  0.14999999963E+04  0.15000000000E+04  0.10566000000E+00 0.  1.
        994   -1    0    0    0    0 -0.00000000000E+00 -0.00000000000E+00  0.11368683772E-12  0.17120000000E+03  0.17120000000E+03 0.  0.
         13    1    1    2    0    0  0.35978548974E+02  0.37877739413E+02  0.75199015633E+02  0.91564634251E+02  0.10566000000E+00 0.  1.
        994    1    1    2    0    0 -0.11925338495E+02  0.14691313640E+02  0.19762547192E+02  0.17337256607E+03  0.17120000000E+03 0.  0.
        998    1    1    2    0    0 -0.24053210479E+02 -0.52569053054E+02  0.14050384335E+04  0.14062627997E+04  0.10000000000E+02 0.  1.
</event>
<event>
 5    1  0.1106231E-008  0.3843610E+03  0.7957747E-01  0.3432387E+00
         13   -1    0    0    0    0  0.00000000000E+00  0.00000000000E+00  0.14999999963E+04  0.15000000000E+04  0.10566000000E+00 0. -1.
        994   -1    0    0    0    0 -0.00000000000E+00 -0.00000000000E+00  0.11368683772E-12  0.17120000000E+03  0.17120000000E+03 0.  0.
         13    1    1    2    0    0 -0.53812834481E+01  0.99062913632E+01  0.31999428117E+02  0.33927383983E+02  0.10566000000E+00 0. -1.
        994    1    1    2    0    0  0.14644612755E+02 -0.23351605611E+01  0.26727784107E+01  0.17186186721E+03  0.17120000000E+03 0.  0.
        998    1    1    2    0    0 -0.92633293069E+01 -0.75711308020E+01  0.14653277898E+04  0.14654107488E+04  0.10000000000E+02 0. -1.
</event>
<event>
 5    1  0.1106231E-008  0.3849007E+03  0.7957747E-01  0.3430093E+00
         13   -1    0    0    0    0  0.00000000000E+00  0.00000000000E+00  0.14999999963E+04  0.15000000000E+04  0.10566000000E+00 0.  1.
        994   -1    0    0    0    0 -0.00000000000E+00 -0.00000000000E+00  0.11368683772E-12  0.17120000000E+03  0.17120000000E+03 0.  0.
         13    1    1    2    0    0  0.10283928819E+02 -0.11818931945E+02  0.72439466098E+02  0.74114328957E+02  0.10566000000E+00 0.  1.
        994    1    1    2    0    0 -0.14245392587E+02  0.30085739399E+01  0.23771148512E+01  0.17183443602E+03  0.17120000000E+03 0.  0.
        998    1    1    2    0    0  0.39614637680E+01  0.88103580047E+01  0.14251834153E+04  0.14252512350E+04  0.10000000000E+02 0.  1.
</event>
<event>
 5    1  0.1106231E-008  0.3786704E+03  0.7957747E-01  0.3456969E+00
         13   -1    0    0    0    0  0.00000000000E+00  0.00000000000E+00  0.14999999963E+04  0.15000000000E+04  0.10566000000E+00 0.  1.
        994   -1    0    0    0    0 -0.00000000000E+00 -0.00000000000E+00  0.11368683772E-12  0.17120000000E+03  0.17120000000E+03 0.  0.
         13    1    1    2    0    0  0.12570157419E+03  0.34926283443E+02  0.63835133720E+03  0.65154675343E+03  0.10566000000E+00 0.  1.
        994    1    1    2    0    0 -0.14552728401E+03 -0.74948366571E+02  0.10078635627E+03  0.25741557384E+03  0.17120000000E+03 0.  0.
        998    1    1    2    0    0  0.19825709818E+02  0.40022083128E+02  0.76086230280E+03  0.76223767273E+03  0.10000000000E+02 0. -1.
</event>
<event>
 5    1  0.1106231E-008  0.3848778E+03  0.7957747E-01  0.3430191E+00
         13   -1    0    0    0    0  0.00000000000E+00  0.00000000000E+00  0.14999999963E+04  0.15000000000E+04  0.10566000000E+00 0. -1.
        994   -1    0    0    0    0 -0.00000000000E+00 -0.00000000000E+00  0.11368683772E-12  0.17120000000E+03  0.17120000000E+03 0.  0.
         13    1    1    2    0    0  0.35742314740E+01  0.10055069942E+02  0.33085294096E+02  0.34763880848E+02  0.10566000000E+00 0. -1.
        994    1    1    2    0    0 -0.23373656365E+01 -0.92924694003E+01  0.19929528811E+01  0.17147951810E+03  0.17120000000E+03 0.  0.
        998    1    1    2    0    0 -0.12368658375E+01 -0.76260054202E+00  0.14649217493E+04  0.14649566011E+04  0.10000000000E+02 0. -1.
</event>
<event>
 5    1  0.1106231E-008  0.3833253E+03  0.7957747E-01  0.3436806E+00
         13   -1    0    0    0    0  0.00000000000E+00  0.00000000000E+00  0.14999999963E+04  0.15000000000E+04  0.10566000000E+00 0. -1.
        994   -1    0    0    0    0 -0.00000000000E+00 -0.00000000000E+00  0.11368683772E-12  0.17120000000E+03  0.17120000000E+03 0.  0.
         13    1    1    2    0    0  0.14469219813E+02 -0.85277611048E+01  0.55078359458E+02  0.57582270502E+02  0.10566000000E+00 0. -1.
        994    1    1    2    0    0 -0.16651203386E+02  0.43094180168E+01  0.34426858433E+01  0.17209626883E+03  0.17120000000E+03 0.  0.
        998    1    1    2    0    0  0.21819835725E+01  0.42183430880E+01  0.14414789510E+04  0.14415214607E+04  0.10000000000E+02 0. -1.
</event>
<event>
 5    1  0.1106231E-008  0.3770728E+03  0.7957747E-01  0.3464004E+00
         13   -1    0    0    0    0  0.00000000000E+00  0.00000000000E+00  0.14999999963E+04  0.15000000000E+04  0.10566000000E+00 0. -1.
        994   -1    0    0    0    0 -0.00000000000E+00 -0.00000000000E+00  0.11368683772E-12  0.17120000000E+03  0.17120000000E+03 0.  0.
         13    1    1    2    0    0 -0.21638215496E+02  0.20665882211E+02  0.73609912696E+02  0.79458929445E+02  0.10566000000E+00 0. -1.
        994    1    1    2    0    0  0.22724375509E+02 -0.22883409092E+02  0.91369262589E+01  0.17445048316E+03  0.17120000000E+03 0.  0.
        998    1    1    2    0    0 -0.10861600130E+01  0.22175268818E+01  0.14172531573E+04  0.14172905874E+04  0.10000000000E+02 0.  0.
</event>
<event>
 5    1  0.1106231E-008  0.3809974E+03  0.7957747E-01  0.3446827E+00
         13   -1    0    0    0    0  0.00000000000E+00  0.00000000000E+00  0.14999999963E+04  0.15000000000E+04  0.10566000000E+00 0.  1.
        994   -1    0    0    0    0 -0.00000000000E+00 -0.00000000000E+00  0.11368683772E-12  0.17120000000E+03  0.17120000000E+03 0.  0.
         13    1    1    2    0    0 -0.13921456675E+02 -0.29278906424E+02  0.12813620738E+03  0.13217397672E+03  0.10566000000E+00 0.  1.
        994    1    1    2    0    0 -0.99903023115E-01  0.42490263102E+02  0.96696075623E+01  0.17665891925E+03  0.17120000000E+03 0.  0.
        998    1    1    2    0    0  0.14021359698E+02 -0.13211356678E+02  0.13621941813E+04  0.13623671040E+04  0.10000000000E+02 0.  1.
</event>
<event>
 5    1  0.1106231E-008  0.3776235E+03  0.7957747E-01  0.3461572E+00
         13   -1    0    0    0    0  0.00000000000E+00  0.00000000000E+00  0.14999999963E+04  0.15000000000E+04  0.10566000000E+00 0. -1.
        994   -1    0    0    0    0 -0.00000000000E+00 -0.00000000000E+00  0.11368683772E-12  0.17120000000E+03  0.17120000000E+03 0.  0.
         13    1    1    2    0    0 -0.29686608372E+02  0.38629227173E+02  0.21754585294E+03  0.22293434281E+03  0.10566000000E+00 0. -1.
        994    1    1    2    0    0  0.22078859878E+02 -0.20888454871E+02  0.84565729420E+01  0.17408261609E+03  0.17120000000E+03 0.  0.
        998    1    1    2    0    0  0.76077484943E+01 -0.17740772301E+02  0.12739975704E+04  0.12741830411E+04  0.10000000000E+02 0. -1.
</event>
<event>
 5    1  0.1106231E-008  0.3810732E+03  0.7957747E-01  0.3446499E+00
         13   -1    0    0    0    0  0.00000000000E+00  0.00000000000E+00  0.14999999963E+04  0.15000000000E+04  0.10566000000E+00 0. -1.
        994   -1    0    0    0    0 -0.00000000000E+00 -0.00000000000E+00  0.11368683772E-12  0.17120000000E+03  0.17120000000E+03 0.  0.
         13    1    1    2    0    0 -0.17202782161E+02  0.27217824406E+01  0.43499675817E+02  0.46856982126E+02  0.10566000000E+00 0. -1.
        994    1    1    2    0    0 -0.31295155628E+01  0.11264072477E+02  0.40477867010E+01  0.17164643245E+03  0.17120000000E+03 0.  0.
        998    1    1    2    0    0  0.20332297724E+02 -0.13985854918E+02  0.14524525338E+04  0.14526965854E+04  0.10000000000E+02 0. -1.
</event>
<event>
 5    1  0.1106231E-008  0.3859084E+03  0.7957747E-01  0.3425829E+00
         13   -1    0    0    0    0  0.00000000000E+00  0.00000000000E+00  0.14999999963E+04  0.15000000000E+04  0.10566000000E+00 0.  1.
        994   -1    0    0    0    0 -0.00000000000E+00 -0.00000000000E+00  0.11368683772E-12  0.17120000000E+03  0.17120000000E+03 0.  0.
         13    1    1    2    0    0 -0.10301369827E+02 -0.57559294424E+00  0.45393592483E+02  0.46551465391E+02  0.10566000000E+00 0.  1.
        994    1    1    2    0    0  0.79699567977E+01 -0.63386046295E+01  0.15199221131E+01  0.17150932419E+03  0.17120000000E+03 0.  0.
        998    1    1    2    0    0  0.23314130289E+01  0.69141975737E+01  0.14530864817E+04  0.14531392104E+04  0.10000000000E+02 0.  1.
</event>
<event>
 5    1  0.1106231E-008  0.3809498E+03  0.7957747E-01  0.3447033E+00
         13   -1    0    0    0    0  0.00000000000E+00  0.00000000000E+00  0.14999999963E+04  0.15000000000E+04  0.10566000000E+00 0.  1.
        994   -1    0    0    0    0 -0.00000000000E+00 -0.00000000000E+00  0.11368683772E-12  0.17120000000E+03  0.17120000000E+03 0.  0.
         13    1    1    2    0    0 -0.19958014251E+02  0.73476633746E+01  0.58967083861E+01  0.22070179513E+02  0.10566000000E+00 0.  1.
        994    1    1    2    0    0  0.20879962151E+02 -0.77044850614E+01  0.18653036453E+02  0.17364535029E+03  0.17120000000E+03 0.  0.
        998    1    1    2    0    0 -0.92194790033E+00  0.35682168676E+00  0.14754502514E+04  0.14754844702E+04  0.10000000000E+02 0.  1.
</event>
<event>
 5    1  0.1106231E-008  0.3715208E+03  0.7957747E-01  0.3488931E+00
         13   -1    0    0    0    0  0.00000000000E+00  0.00000000000E+00  0.14999999963E+04  0.15000000000E+04  0.10566000000E+00 0.  1.
        994   -1    0    0    0    0 -0.00000000000E+00 -0.00000000000E+00  0.11368683772E-12  0.17120000000E+03  0.17120000000E+03 0.  0.
         13    1    1    2    0    0  0.20867320001E+02  0.59526112792E+02  0.20623600243E+03  0.21566664788E+03  0.10566000000E+00 0.  1.
        994    1    1    2    0    0 -0.38786531100E+02 -0.48642807527E+02  0.21909281655E+02  0.18346654829E+03  0.17120000000E+03 0.  0.
        998    1    1    2    0    0  0.17919211098E+02 -0.10883305265E+02  0.12718547122E+04  0.12720668038E+04  0.10000000000E+02 0.  1.
</event>
<event>
 5    1  0.1106231E-008  0.3779206E+03  0.7957747E-01  0.3460263E+00
         13   -1    0    0    0    0  0.00000000000E+00  0.00000000000E+00  0.14999999963E+04  0.15000000000E+04  0.10566000000E+00 0.  1.
        994   -1    0    0    0    0 -0.00000000000E+00 -0.00000000000E+00  0.11368683772E-12  0.17120000000E+03  0.17120000000E+03 0.  0.
         13    1    1    2    0    0  0.90500712033E+01 -0.78007870862E+02  0.42291853116E+03  0.43014791278E+03  0.10566000000E+00 0.  1.
        994    1    1    2    0    0 -0.19484767976E+01  0.79176734904E+02  0.26600372132E+02  0.19049874464E+03  0.17120000000E+03 0.  0.
        998    1    1    2    0    0 -0.71015944057E+01 -0.11688640416E+01  0.10504810930E+04  0.10505533426E+04  0.10000000000E+02 0.  1.
</event>
<event>
 5    1  0.1106231E-008  0.3790801E+03  0.7957747E-01  0.3455174E+00
         13   -1    0    0    0    0  0.00000000000E+00  0.00000000000E+00  0.14999999963E+04  0.15000000000E+04  0.10566000000E+00 0.  1.
        994   -1    0    0    0    0 -0.00000000000E+00 -0.00000000000E+00  0.11368683772E-12  0.17120000000E+03  0.17120000000E+03 0.  0.
         13    1    1    2    0    0  0.34651543513E+01 -0.28333194549E+02  0.96120381284E+02  0.10026921796E+03  0.10566000000E+00 0.  1.
        994    1    1    2    0    0  0.11448358683E+02 -0.15065705573E+01  0.50454102287E+01  0.17166313185E+03  0.17120000000E+03 0.  0.
        998    1    1    2    0    0 -0.14913513034E+02  0.29839765106E+02  0.13988342048E+04  0.13992676502E+04  0.10000000000E+02 0.  1.
</event>
<event>
 5    1  0.1106231E-008  0.3794659E+03  0.7957747E-01  0.3453488E+00
         13   -1    0    0    0    0  0.00000000000E+00  0.00000000000E+00  0.14999999963E+04  0.15000000000E+04  0.10566000000E+00 0.  1.
        994   -1    0    0    0    0 -0.00000000000E+00 -0.00000000000E+00  0.11368683772E-12  0.17120000000E+03  0.17120000000E+03 0.  0.
         13    1    1    2    0    0 -0.39499576969E+02  0.12584641013E+02  0.16358713242E+03  0.16875826151E+03  0.10566000000E+00 0.  1.
        994    1    1    2    0    0  0.52006913035E+02 -0.51424761056E+01  0.13604094744E+02  0.17951511206E+03  0.17120000000E+03 0.  0.
        998    1    1    2    0    0 -0.12507336066E+02 -0.74421649074E+01  0.13228087691E+04  0.13229266264E+04  0.10000000000E+02 0.  1.
</event>
<event>
 5    1  0.1106231E-008  0.3801988E+03  0.7957747E-01  0.3450293E+00
         13   -1    0    0    0    0  0.00000000000E+00  0.00000000000E+00  0.14999999963E+04  0.15000000000E+04  0.10566000000E+00 0.  1.
        994   -1    0    0    0    0 -0.00000000000E+00 -0.00000000000E+00  0.11368683772E-12  0.17120000000E+03  0.17120000000E+03 0.  0.
         13    1    1    2    0    0  0.29241780025E+02  0.17202906585E+02  0.16067554771E+03  0.16421834395E+03  0.10566000000E+00 0.  1.
        994    1    1    2    0    0  0.35227947279E+01 -0.81966177712E+01  0.42987924954E+01  0.17148619257E+03  0.17120000000E+03 0.  0.
        998    1    1    2    0    0 -0.32764574753E+02 -0.90062888137E+01  0.13350256561E+04  0.13354954635E+04  0.10000000000E+02 0.  1.
</event>
<event>
 5    1  0.1106231E-008  0.3827155E+03  0.7957747E-01  0.3439419E+00
         13   -1    0    0    0    0  0.00000000000E+00  0.00000000000E+00  0.14999999963E+04  0.15000000000E+04  0.10566000000E+00 0.  1.
        994   -1    0    0    0    0 -0.00000000000E+00 -0.00000000000E+00  0.11368683772E-12  0.17120000000E+03  0.17120000000E+03 0.  0.
         13    1    1    2    0    0  0.46518535274E+01 -0.89718361259E+01  0.17184519246E+02  0.19936209531E+02  0.10566000000E+00 0.  1.
        994    1    1    2    0    0 -0.73153647321E+01  0.83391658141E+01  0.31764309501E+01  0.17158842024E+03  0.17120000000E+03 0.  0.
        998    1    1    2    0    0  0.26635112047E+01  0.63267031175E+00  0.14796390461E+04  0.14796753702E+04  0.10000000000E+02 0.  1.
</event>
<event>
 5    1  0.1106231E-008  0.3844578E+03  0.7957747E-01  0.3431975E+00
         13   -1    0    0    0    0  0.00000000000E+00  0.00000000000E+00  0.14999999963E+04  0.15000000000E+04  0.10566000000E+00 0. -1.
        994   -1    0    0    0    0 -0.00000000000E+00 -0.00000000000E+00  0.11368683772E-12  0.17120000000E+03  0.17120000000E+03 0.  0.
         13    1    1    2    0    0 -0.11572270379E+02 -0.43926254569E+01  0.49123312657E+02  0.50658894683E+02  0.10566000000E+00 0. -1.
        994    1    1    2    0    0 -0.25122342115E+02 -0.18883371928E+02  0.51603076203E+01  0.17413725214E+03  0.17120000000E+03 0.  0.
        998    1    1    2    0    0  0.36694612494E+02  0.23275997385E+02  0.14457163760E+04  0.14464038532E+04  0.10000000000E+02 0. -1.
</event>
<event>
 5    1  0.1106231E-008  0.3787892E+03  0.7957747E-01  0.3456447E+00
         13   -1    0    0    0    0  0.00000000000E+00  0.00000000000E+00  0.14999999963E+04  0.15000000000E+04  0.10566000000E+00 0. -1.
        994   -1    0    0    0    0 -0.00000000000E+00 -0.00000000000E+00  0.11368683772E-12  0.17120000000E+03  0.17120000000E+03 0.  0.
         13    1    1    2    0    0 -0.49309028990E+02  0.44943693092E+02  0.36331101275E+03  0.36938627348E+03  0.10566000000E+00 0. -1.
        994    1    1    2    0    0  0.62653880726E+02 -0.28355389400E+02  0.20787006718E+02  0.18566388051E+03  0.17120000000E+03 0.  0.
        998    1    1    2    0    0 -0.13344851736E+02 -0.16588303692E+02  0.11159019768E+04  0.11161498460E+04  0.10000000000E+02 0. -1.
</event>
<event>
 5    1  0.1106231E-008  0.3762227E+03  0.7957747E-01  0.3467772E+00
         13   -1    0    0    0    0  0.00000000000E+00  0.00000000000E+00  0.14999999963E+04  0.15000000000E+04  0.10566000000E+00 0.  1.
        994   -1    0    0    0    0 -0.00000000000E+00 -0.00000000000E+00  0.11368683772E-12  0.17120000000E+03  0.17120000000E+03 0.  0.
         13    1    1    2    0    0  0.26990765033E+02 -0.51865292733E+02  0.28945880174E+03  0.29530479010E+03  0.10566000000E+00 0.  1.
        994    1    1    2    0    0 -0.38850255006E+01  0.31167458761E+02  0.93989826186E+01  0.17431088544E+03  0.17120000000E+03 0.  0.
        998    1    1    2    0    0 -0.23105739532E+02  0.20697833972E+02  0.12011422119E+04  0.12015843245E+04  0.10000000000E+02 0.  1.
</event>
<event>
 5    1  0.1106231E-008  0.3852071E+03  0.7957747E-01  0.3428794E+00
         13   -1    0    0    0    0  0.00000000000E+00  0.00000000000E+00  0.14999999963E+04  0.15000000000E+04  0.10566000000E+00 0. -1.
        994   -1    0    0    0    0 -0.00000000000E+00 -0.00000000000E+00  0.11368683772E-12  0.17120000000E+03  0.17120000000E+03 0.  0.
         13    1    1    2    0    0 -0.24573748175E+01  0.99181855303E+01  0.34173275208E+02  0.35668375316E+02  0.10566000000E+00 0. -1.
        994    1    1    2    0    0  0.48951174605E+01 -0.53745158799E+01  0.17010435532E+01  0.17136271807E+03  0.17120000000E+03 0.  0.
        998    1    1    2    0    0 -0.24377426429E+01 -0.45436696504E+01  0.14641256775E+04  0.14641689066E+04  0.10000000000E+02 0. -1.
</event>
<event>
 5    1  0.1106231E-008  0.3926575E+03  0.7957747E-01  0.3397831E+00
         13   -1    0    0    0    0  0.00000000000E+00  0.00000000000E+00  0.14999999963E+04  0.15000000000E+04  0.10566000000E+00 0.  1.
        994   -1    0    0    0    0 -0.00000000000E+00 -0.00000000000E+00  0.11368683772E-12  0.17120000000E+03  0.17120000000E+03 0.  0.
         13    1    1    2    0    0 -0.42994530250E+02  0.96459997886E+02  0.50297022188E+03  0.51393785235E+03  0.10566000000E+00 0.  1.
        994    1    1    2    0    0 -0.46391017212E+02  0.26815553840E+02  0.34457626630E+02  0.18266901335E+03  0.17120000000E+03 0.  0.
        998    1    1    2    0    0  0.89385547462E+02 -0.12327555173E+03  0.96257214777E+03  0.97459313430E+03  0.10000000000E+02 0.  1.
</event>
<event>
 5    1  0.1106231E-008  0.3813802E+03  0.7957747E-01  0.3445171E+00
         13   -1    0    0    0    0  0.00000000000E+00  0.00000000000E+00  0.14999999963E+04  0.15000000000E+04  0.10566000000E+00 0.  1.
        994   -1    0    0    0    0 -0.00000000000E+00 -0.00000000000E+00  0.11368683772E-12  0.17120000000E+03  0.17120000000E+03 0.  0.
         13    1    1    2    0    0  0.68040695016E+00 -0.11418035476E+02  0.17346512372E+02  0.20778526012E+02  0.10566000000E+00 0.  1.
        994    1    1    2    0    0  0.33857811995E+01  0.13920506532E+02  0.41213448622E+01  0.17184780912E+03  0.17120000000E+03 0.  0.
        998    1    1    2    0    0 -0.40661881497E+01 -0.25024710567E+01  0.14785321390E+04  0.14785736649E+04  0.10000000000E+02 0.  1.
</event>
<event>
 5    1  0.1106231E-008  0.3856632E+03  0.7957747E-01  0.3426864E+00
         13   -1    0    0    0    0  0.00000000000E+00  0.00000000000E+00  0.14999999963E+04  0.15000000000E+04  0.10566000000E+00 0. -1.
        994   -1    0    0    0    0 -0.00000000000E+00 -0.00000000000E+00  0.11368683772E-12  0.17120000000E+03  0.17120000000E+03 0.  0.
         13    1    1    2    0    0 -0.39628079610E+01  0.13247441822E+02  0.74601793061E+02  0.75872506573E+02  0.10566000000E+00 0. -1.
        994    1    1    2    0    0  0.34993819661E+01 -0.72997653075E+01  0.15163130500E+01  0.17139799139E+03  0.17120000000E+03 0.  0.
        998    1    1    2    0    0  0.46342599490E+00 -0.59476765143E+01  0.14238818902E+04  0.14239295020E+04  0.10000000000E+02 0. -1.
</event>
<event>
 5    1  0.1106231E-008  0.3773602E+03  0.7957747E-01  0.3462734E+00
         13   -1    0    0    0    0  0.00000000000E+00  0.00000000000E+00  0.14999999963E+04  0.15000000000E+04  0.10566000000E+00 0.  1.
        994   -1    0    0    0    0 -0.00000000000E+00 -0.00000000000E+00  0.11368683772E-12  0.17120000000E+03  0.17120000000E+03 0.  0.
         13    1    1    2    0    0 -0.16535869534E+02 -0.17969747726E+02  0.50158531040E+02  0.55787419860E+02  0.10566000000E+00 0.  1.
        994    1    1    2    0    0  0.10555388690E+02  0.29340331470E+02  0.87574807349E+01  0.17423663435E+03  0.17120000000E+03 0.  0.
        998    1    1    2    0    0  0.59804808434E+01 -0.11370583745E+02  0.14410839845E+04  0.14411759458E+04  0.10000000000E+02 0.  1.
</event>
<event>
 5    1  0.1106231E-008  0.3785383E+03  0.7957747E-01  0.3457548E+00
         13   -1    0    0    0    0  0.00000000000E+00  0.00000000000E+00  0.14999999963E+04  0.15000000000E+04  0.10566000000E+00 0.  1.
        994   -1    0    0    0    0 -0.00000000000E+00 -0.00000000000E+00  0.11368683772E-12  0.17120000000E+03  0.17120000000E+03 0.  0.
         13    1    1    2    0    0 -0.42491100774E+01 -0.35891277691E+02  0.12603271370E+03  0.13111252738E+03  0.10566000000E+00 0.  1.
        994    1    1    2    0    0  0.56312666040E+01  0.30201461213E+02  0.80498401392E+01  0.17412087568E+03  0.17120000000E+03 0.  0.
        998    1    1    2    0    0 -0.13821565266E+01  0.56898164778E+01  0.13659174424E+04  0.13659665969E+04  0.10000000000E+02 0.  1.
</event>
<event>
 5    1  0.1106231E-008  0.3812742E+03  0.7957747E-01  0.3445629E+00
         13   -1    0    0    0    0  0.00000000000E+00  0.00000000000E+00  0.14999999963E+04  0.15000000000E+04  0.10566000000E+00 0.  1.
        994   -1    0    0    0    0 -0.00000000000E+00 -0.00000000000E+00  0.11368683772E-12  0.17120000000E+03  0.17120000000E+03 0.  0.
         13    1    1    2    0    0  0.53180557228E+02 -0.40273911268E+02  0.31181433123E+03  0.31887042497E+03  0.10566000000E+00 0.  1.
        994    1    1    2    0    0 -0.12207205943E+03  0.36741328730E+02  0.59629223891E+02  0.22162264612E+03  0.17120000000E+03 0.  0.
        998    1    1    2    0    0  0.68891502200E+02  0.35325825380E+01  0.11285564412E+04  0.11307069289E+04  0.10000000000E+02 0.  1.
</event>
<event>
 5    1  0.1106231E-008  0.3723010E+03  0.7957747E-01  0.3485382E+00
         13   -1    0    0    0    0  0.00000000000E+00  0.00000000000E+00  0.14999999963E+04  0.15000000000E+04  0.10566000000E+00 0. -1.
        994   -1    0    0    0    0 -0.00000000000E+00 -0.00000000000E+00  0.11368683772E-12  0.17120000000E+03  0.17120000000E+03 0.  0.
         13    1    1    2    0    0 -0.39571729736E+01  0.13661812425E+02  0.89505189441E+01  0.16805573185E+02  0.10566000000E+00 0. -1.
        994    1    1    2    0    0 -0.70860139677E+01 -0.10049702894E+02  0.85901760059E+01  0.17185586765E+03  0.17120000000E+03 0.  0.
        998    1    1    2    0    0  0.11043186941E+02 -0.36121095307E+01  0.14824593013E+04  0.14825385592E+04  0.10000000000E+02 0. -1.
</event>
<event>
 5    1  0.1106231E-008  0.3839596E+03  0.7957747E-01  0.3434097E+00
         13   -1    0    0    0    0  0.00000000000E+00  0.00000000000E+00  0.14999999963E+04  0.15000000000E+04  0.10566000000E+00 0. -1.
        994   -1    0    0    0    0 -0.00000000000E+00 -0.00000000000E+00  0.11368683772E-12  0.17120000000E+03  0.17120000000E+03 0.  0.
         13    1    1    2    0    0  0.12566069839E+02 -0.37270477673E+01  0.38011002360E+02  0.40207517465E+02  0.10566000000E+00 0. -1.
        994    1    1    2    0    0 -0.16912133180E+02  0.44164187627E+01  0.31563558506E+01  0.17211893442E+03  0.17120000000E+03 0.  0.
        998    1    1    2    0    0  0.43460633406E+01 -0.68937099546E+00  0.14588326381E+04  0.14588735481E+04  0.10000000000E+02 0. -1.
</event>
<event>
 5    1  0.1106231E-008  0.3802032E+03  0.7957747E-01  0.3450274E+00
         13   -1    0    0    0    0  0.00000000000E+00  0.00000000000E+00  0.14999999963E+04  0.15000000000E+04  0.10566000000E+00 0.  1.
        994   -1    0    0    0    0 -0.00000000000E+00 -0.00000000000E+00  0.11368683772E-12  0.17120000000E+03  0.17120000000E+03 0.  0.
         13    1    1    2    0    0  0.19839577219E+02  0.41061600051E+02  0.21975994675E+03  0.22444177236E+03  0.10566000000E+00 0.  1.
        994    1    1    2    0    0 -0.13537750404E+02 -0.45016105555E+02  0.11448127782E+02  0.17790508727E+03  0.17120000000E+03 0.  0.
        998    1    1    2    0    0 -0.63018268147E+01  0.39545055041E+01  0.12687919217E+04  0.12688531404E+04  0.10000000000E+02 0.  1.
</event>
<event>
 5    1  0.1106231E-008  0.3905939E+03  0.7957747E-01  0.3406289E+00
         13   -1    0    0    0    0  0.00000000000E+00  0.00000000000E+00  0.14999999963E+04  0.15000000000E+04  0.10566000000E+00 0.  1.
        994   -1    0    0    0    0 -0.00000000000E+00 -0.00000000000E+00  0.11368683772E-12  0.17120000000E+03  0.17120000000E+03 0.  0.
         13    1    1    2    0    0 -0.10488277248E+02 -0.56373076060E+01 -0.70354432530E+01  0.13830828698E+02  0.10566000000E+00 0.  1.
        994    1    1    2    0    0  0.11555180838E+02  0.69646377028E+01  0.22959756116E+02  0.17325882022E+03  0.17120000000E+03 0.  0.
        998    1    1    2    0    0 -0.10669035905E+01 -0.13273300969E+01  0.14840756834E+04  0.14841103511E+04  0.10000000000E+02 0.  1.
</event>
<event>
 5    1  0.1106231E-008  0.3824093E+03  0.7957747E-01  0.3440735E+00
         13   -1    0    0    0    0  0.00000000000E+00  0.00000000000E+00  0.14999999963E+04  0.15000000000E+04  0.10566000000E+00 0. -1.
        994   -1    0    0    0    0 -0.00000000000E+00 -0.00000000000E+00  0.11368683772E-12  0.17120000000E+03  0.17120000000E+03 0.  0.
         13    1    1    2    0    0 -0.17345067517E+02  0.63991095944E+00  0.54117647781E+02  0.56833016976E+02  0.10566000000E+00 0. -1.
        994    1    1    2    0    0 -0.31664368080E+01  0.87130398834E+01  0.32069479644E+01  0.17148080913E+03  0.17120000000E+03 0.  0.
        998    1    1    2    0    0  0.20511504325E+02 -0.93529508428E+01  0.14426754005E+04  0.14428861739E+04  0.10000000000E+02 0. -1.
</event>
<event>
 5    1  0.1106231E-008  0.3778240E+03  0.7957747E-01  0.3460688E+00
         13   -1    0    0    0    0  0.00000000000E+00  0.00000000000E+00  0.14999999963E+04  0.15000000000E+04  0.10566000000E+00 0. -1.
        994   -1    0    0    0    0 -0.00000000000E+00 -0.00000000000E+00  0.11368683772E-12  0.17120000000E+03  0.17120000000E+03 0.  0.
         13    1    1    2    0    0 -0.63129268449E+02 -0.28000393898E+02  0.40018059730E+03  0.40609586087E+03  0.10566000000E+00 0. -1.
        994    1    1    2    0    0  0.50689585512E+02  0.14334936753E+02  0.14636769618E+02  0.17971811126E+03  0.17120000000E+03 0.  0.
        998    1    1    2    0    0  0.12439682937E+02  0.13665457146E+02  0.10851826294E+04  0.10853860279E+04  0.10000000000E+02 0.  0.
</event>
<event>
 5    1  0.1106231E-008  0.4089305E+03  0.7957747E-01  0.3334116E+00
         13   -1    0    0    0    0  0.00000000000E+00  0.00000000000E+00  0.14999999963E+04  0.15000000000E+04  0.10566000000E+00 0.  1.
        994   -1    0    0    0    0 -0.00000000000E+00 -0.00000000000E+00  0.11368683772E-12  0.17120000000E+03  0.17120000000E+03 0.  0.
         13    1    1    2    0    0 -0.31285294105E+02 -0.70287974388E+01  0.37203782689E+01  0.32280427493E+02  0.10566000000E+00 0.  1.
        994    1    1    2    0    0 -0.78114095770E+02 -0.86110739881E+02  0.90646628766E+02  0.22592725110E+03  0.17120000000E+03 0.  0.
        998    1    1    2    0    0  0.10939938987E+03  0.93139537320E+02  0.14056329892E+04  0.14129923214E+04  0.10000000000E+02 0.  1.
</event>
<event>
 5    1  0.1106231E-008  0.3776018E+03  0.7957747E-01  0.3461668E+00
         13   -1    0    0    0    0  0.00000000000E+00  0.00000000000E+00  0.14999999963E+04  0.15000000000E+04  0.10566000000E+00 0.  1.
        994   -1    0    0    0    0 -0.00000000000E+00 -0.00000000000E+00  0.11368683772E-12  0.17120000000E+03  0.17120000000E+03 0.  0.
         13    1    1    2    0    0 -0.46382190811E+02  0.37103081293E+02  0.33384374512E+03  0.33908642495E+03  0.10566000000E+00 0.  1.
        994    1    1    2    0    0  0.27780272733E+02 -0.16239703863E+02  0.88457286028E+01  0.17442235651E+03  0.17120000000E+03 0.  0.
        998    1    1    2    0    0  0.18601918078E+02 -0.20863377430E+02  0.11573105226E+04  0.11576912185E+04  0.10000000000E+02 0.  0.
</event>
<event>
 5    1  0.1106231E-008  0.3721228E+03  0.7957747E-01  0.3486192E+00
         13   -1    0    0    0    0  0.00000000000E+00  0.00000000000E+00  0.14999999963E+04  0.15000000000E+04  0.10566000000E+00 0.  1.
        994   -1    0    0    0    0 -0.00000000000E+00 -0.00000000000E+00  0.11368683772E-12  0.17120000000E+03  0.17120000000E+03 0.  0.
         13    1    1    2    0    0  0.66762265626E+01  0.25307775103E+02  0.39204966897E+02  0.47139114069E+02  0.10566000000E+00 0.  1.
        994    1    1    2    0    0  0.58805678794E+01 -0.14941106653E+02  0.90491686848E+01  0.17218927144E+03  0.17120000000E+03 0.  0.
        998    1    1    2    0    0 -0.12556794442E+02 -0.10366668451E+02  0.14517458607E+04  0.14518716145E+04  0.10000000000E+02 0.  1.
</event>
<event>
 5    1  0.1106231E-008  0.3691160E+03  0.7957747E-01  0.3499963E+00
         13   -1    0    0    0    0  0.00000000000E+00  0.00000000000E+00  0.14999999963E+04  0.15000000000E+04  0.10566000000E+00 0. -1.
        994   -1    0    0    0    0 -0.00000000000E+00 -0.00000000000E+00  0.11368683772E-12  0.17120000000E+03  0.17120000000E+03 0.  0.
         13    1    1    2    0    0  0.21168373178E+02 -0.71343166442E+01  0.20575804645E+02  0.30370600880E+02  0.10566000000E+00 0. -1.
        994    1    1    2    0    0 -0.29744288161E+02  0.19489152408E+02  0.14130308440E+02  0.17542421542E+03  0.17120000000E+03 0.  0.
        998    1    1    2    0    0  0.85759149834E+01 -0.12354835764E+02  0.14652938832E+04  0.14654051837E+04  0.10000000000E+02 0. -1.
</event>
<event>
 5    1  0.1314891E-008  0.3861907E+03  0.7957747E-01  0.3424638E+00
         13   -1    0    0    0    0  0.00000000000E+00  0.00000000000E+00  0.14999999963E+04  0.15000000000E+04  0.10566000000E+00 0. -1.
        994   -1    0    0    0    0 -0.00000000000E+00 -0.00000000000E+00  0.11368683772E-12  0.17120000000E+03  0.17120000000E+03 0.  0.
         13    1    1    2    0    0  0.87684255472E+01 -0.65489135939E+01  0.56321543632E+02  0.57375090387E+02  0.10566000000E+00 0. -1.
        994    1    1    2    0    0 -0.16102239806E+02 -0.49647283817E+00  0.18907799380E+01  0.17196669346E+03  0.17120000000E+03 0.  0.
        998    1    1    2    0    0  0.73338142585E+01  0.70453864320E+01  0.14417876727E+04  0.14418582161E+04  0.10000000000E+02 0. -1.
</event>
<event>
 5    1  0.1106231E-008  0.3731435E+03  0.7957747E-01  0.3481567E+00
         13   -1    0    0    0    0  0.00000000000E+00  0.00000000000E+00  0.14999999963E+04  0.15000000000E+04  0.10566000000E+00 0. -1.
        994   -1    0    0    0    0 -0.00000000000E+00 -0.00000000000E+00  0.11368683772E-12  0.17120000000E+03  0.17120000000E+03 0.  0.
         13    1    1    2    0    0 -0.66006579004E+02  0.58736618634E+02  0.44591840409E+03  0.45458782772E+03  0.10566000000E+00 0. -1.
        994    1    1    2    0    0  0.50399725813E+02 -0.41642111690E+02  0.22399796198E+02  0.18462228657E+03  0.17120000000E+03 0.  0.
        998    1    1    2    0    0  0.15606853191E+02 -0.17094506944E+02  0.10316817960E+04  0.10319898857E+04  0.10000000000E+02 0. -1.
</event>
<event>
 5    1  0.1106231E-008  0.3830649E+03  0.7957747E-01  0.3437921E+00
         13   -1    0    0    0    0  0.00000000000E+00  0.00000000000E+00  0.14999999963E+04  0.15000000000E+04  0.10566000000E+00 0. -1.
        994   -1    0    0    0    0 -0.00000000000E+00 -0.00000000000E+00  0.11368683772E-12  0.17120000000E+03  0.17120000000E+03 0.  0.
         13    1    1    2    0    0 -0.14064366448E+02  0.49305407186E+01  0.42136981124E+02  0.44695111340E+02  0.10566000000E+00 0. -1.
        994    1    1    2    0    0  0.88914465166E+01 -0.26536131255E+01  0.28789108653E+01  0.17147544317E+03  0.17120000000E+03 0.  0.
        998    1    1    2    0    0  0.51729199313E+01 -0.22769275930E+01  0.14549841043E+04  0.14550294455E+04  0.10000000000E+02 0. -1.
</event>
<event>
 5    1  0.1106231E-008  0.3818489E+03  0.7957747E-01  0.3443147E+00
         13   -1    0    0    0    0  0.00000000000E+00  0.00000000000E+00  0.14999999963E+04  0.15000000000E+04  0.10566000000E+00 0.  1.
        994   -1    0    0    0    0 -0.00000000000E+00 -0.00000000000E+00  0.11368683772E-12  0.17120000000E+03  0.17120000000E+03 0.  0.
         13    1    1    2    0    0  0.64441613679E+01  0.13089576710E+02  0.32243095240E+02  0.35390572034E+02  0.10566000000E+00 0.  1.
        994    1    1    2    0    0 -0.11047101861E+02 -0.36974940289E+01  0.36537686224E+01  0.17163478653E+03  0.17120000000E+03 0.  0.
        998    1    1    2    0    0  0.46029404928E+01 -0.93920826807E+01  0.14641031324E+04  0.14641746414E+04  0.10000000000E+02 0.  1.
</event>
<event>
 5    1  0.1106231E-008  0.3813598E+03  0.7957747E-01  0.3445259E+00
         13   -1    0    0    0    0  0.00000000000E+00  0.00000000000E+00  0.14999999963E+04  0.15000000000E+04  0.10566000000E+00 0.  1.
        994   -1    0    0    0    0 -0.00000000000E+00 -0.00000000000E+00  0.11368683772E-12  0.17120000000E+03  0.17120000000E+03 0.  0.
         13    1    1    2    0    0 -0.18240425917E+02  0.72847831370E+01  0.53382578995E+02  0.56881386298E+02  0.10566000000E+00 0.  1.
        994    1    1    2    0    0  0.19373786920E+02 -0.21235995080E+01  0.47134309851E+01  0.17237026926E+03  0.17120000000E+03 0.  0.
        998    1    1    2    0    0 -0.11333610023E+01 -0.51611836290E+01  0.14419039863E+04  0.14419483444E+04  0.10000000000E+02 0.  1.
</event>
<event>
 5    1  0.1106231E-008  0.3836033E+03  0.7957747E-01  0.3435617E+00
         13   -1    0    0    0    0  0.00000000000E+00  0.00000000000E+00  0.14999999963E+04  0.15000000000E+04  0.10566000000E+00 0.  1.
        994   -1    0    0    0    0 -0.00000000000E+00 -0.00000000000E+00  0.11368683772E-12  0.17120000000E+03  0.17120000000E+03 0.  0.
         13    1    1    2    0    0 -0.12141218045E+02 -0.69997028919E+01  0.41310141650E+02  0.43622746169E+02  0.10566000000E+00 0.  1.
        994    1    1    2    0    0  0.10599566841E+02  0.35874634825E+01  0.27389431893E+01  0.17158718636E+03  0.17120000000E+03 0.  0.
        998    1    1    2    0    0  0.15416512033E+01  0.34122394095E+01  0.14559509114E+04  0.14559900675E+04  0.10000000000E+02 0.  1.
</event>
<event>
 5    1  0.1106231E-008  0.3832753E+03  0.7957747E-01  0.3437020E+00
         13   -1    0    0    0    0  0.00000000000E+00  0.00000000000E+00  0.14999999963E+04  0.15000000000E+04  0.10566000000E+00 0.  1.
        994   -1    0    0    0    0 -0.00000000000E+00 -0.00000000000E+00  0.11368683772E-12  0.17120000000E+03  0.17120000000E+03 0.  0.
         13    1    1    2    0    0  0.40693513194E+01  0.24528548319E+02  0.14683397138E+03  0.14892426135E+03  0.10566000000E+00 0.  1.
        994    1    1    2    0    0  0.10926423255E+02  0.42569362919E+01  0.29437408483E+01  0.17162637863E+03  0.17120000000E+03 0.  0.
        998    1    1    2    0    0 -0.14995774574E+02 -0.28785484611E+02  0.13502222841E+04  0.13506493600E+04  0.10000000000E+02 0.  1.
</event>
<event>
 5    1  0.1106231E-008  0.4062026E+03  0.7957747E-01  0.3344443E+00
         13   -1    0    0    0    0  0.00000000000E+00  0.00000000000E+00  0.14999999963E+04  0.15000000000E+04  0.10566000000E+00 0.  1.
        994   -1    0    0    0    0 -0.00000000000E+00 -0.00000000000E+00  0.11368683772E-12  0.17120000000E+03  0.17120000000E+03 0.  0.
         13    1    1    2    0    0  0.43652756386E+02 -0.11224112493E+03  0.26630508718E+03  0.29227049781E+03  0.10566000000E+00 0.  1.
        994    1    1    2    0    0  0.25220495570E+02  0.46347498099E+02  0.42805682673E+02  0.18418993036E+03  0.17120000000E+03 0.  0.
        998    1    1    2    0    0 -0.68873251955E+02  0.65893626829E+02  0.11908892264E+04  0.11947395718E+04  0.10000000000E+02 0.  1.
</event>
<event>
 5    1  0.1106231E-008  0.3637298E+03  0.7957747E-01  0.3525214E+00
         13   -1    0    0    0    0  0.00000000000E+00  0.00000000000E+00  0.14999999963E+04  0.15000000000E+04  0.10566000000E+00 0. -1.
        994   -1    0    0    0    0 -0.00000000000E+00 -0.00000000000E+00  0.11368683772E-12  0.17120000000E+03  0.17120000000E+03 0.  0.
         13    1    1    2    0    0 -0.28153283567E+02 -0.28668514069E+03  0.90805170070E+03  0.95264835043E+03  0.10566000000E+00 0. -1.
        994    1    1    2    0    0  0.33276532419E+02  0.28464734180E+03  0.37803015335E+03  0.50432893397E+03  0.17120000000E+03 0.  0.
        998    1    1    2    0    0 -0.51232488515E+01  0.20377988925E+01  0.21391814223E+03  0.21422271560E+03  0.10000000000E+02 0.  1.
</event>
<event>
 5    1  0.1106231E-008  0.3777386E+03  0.7957747E-01  0.3461065E+00
         13   -1    0    0    0    0  0.00000000000E+00  0.00000000000E+00  0.14999999963E+04  0.15000000000E+04  0.10566000000E+00 0.  1.
        994   -1    0    0    0    0 -0.00000000000E+00 -0.00000000000E+00  0.11368683772E-12  0.17120000000E+03  0.17120000000E+03 0.  0.
         13    1    1    2    0    0  0.26442101938E+02 -0.18368976753E+02  0.97731330603E+02  0.10289814482E+03  0.10566000000E+00 0.  1.
        994    1    1    2    0    0 -0.15604369762E+02  0.64069177994E+01  0.62380238904E+01  0.17214208635E+03  0.17120000000E+03 0.  0.
        998    1    1    2    0    0 -0.10837732176E+02  0.11962058954E+02  0.13960306418E+04  0.13961597688E+04  0.10000000000E+02 0.  1.
</event>
<event>
 5    1  0.1106231E-008  0.3708934E+03  0.7957747E-01  0.3491795E+00
         13   -1    0    0    0    0  0.00000000000E+00  0.00000000000E+00  0.14999999963E+04  0.15000000000E+04  0.10566000000E+00 0. -1.
        994   -1    0    0    0    0 -0.00000000000E+00 -0.00000000000E+00  0.11368683772E-12  0.17120000000E+03  0.17120000000E+03 0.  0.
         13    1    1    2    0    0 -0.25286368946E+02 -0.26435998135E+01  0.24052989777E+02  0.34999236502E+02  0.10566000000E+00 0. -1.
        994    1    1    2    0    0  0.57086648299E+01  0.29912515983E+02  0.14671074507E+02  0.17450509418E+03  0.17120000000E+03 0.  0.
        998    1    1    2    0    0  0.19577704116E+02 -0.27268916169E+02  0.14612759320E+04  0.14616956693E+04  0.10000000000E+02 0. -1.
</event>
<event>
 5    1  0.1106231E-008  0.3760034E+03  0.7957747E-01  0.3468747E+00
         13   -1    0    0    0    0  0.00000000000E+00  0.00000000000E+00  0.14999999963E+04  0.15000000000E+04  0.10566000000E+00 0. -1.
        994   -1    0    0    0    0 -0.00000000000E+00 -0.00000000000E+00  0.11368683772E-12  0.17120000000E+03  0.17120000000E+03 0.  0.
         13    1    1    2    0    0  0.55231066893E+02 -0.48224569473E+02  0.23096213880E+03  0.24232127552E+03  0.10566000000E+00 0. -1.
        994    1    1    2    0    0  0.11634620522E+02  0.12940308105E+02  0.15231199169E+02  0.17275487083E+03  0.17120000000E+03 0.  0.
        998    1    1    2    0    0 -0.66865687415E+02  0.35284261368E+02  0.12538066583E+04  0.12561238536E+04  0.10000000000E+02 0. -1.
</event>
<event>
 5    1  0.1106231E-008  0.3834126E+03  0.7957747E-01  0.3436433E+00
         13   -1    0    0    0    0  0.00000000000E+00  0.00000000000E+00  0.14999999963E+04  0.15000000000E+04  0.10566000000E+00 0.  1.
        994   -1    0    0    0    0 -0.00000000000E+00 -0.00000000000E+00  0.11368683772E-12  0.17120000000E+03  0.17120000000E+03 0.  0.
         13    1    1    2    0    0 -0.20231795067E+01  0.12084265540E+02  0.33313666516E+02  0.35495552816E+02  0.10566000000E+00 0.  1.
        994    1    1    2    0    0  0.13554095881E+02  0.18529881345E+02  0.41645635999E+01  0.17278267740E+03  0.17120000000E+03 0.  0.
        998    1    1    2    0    0 -0.11530916374E+02 -0.30614146885E+02  0.14625217662E+04  0.14629217698E+04  0.10000000000E+02 0.  1.
</event>
<event>
 5    1  0.1106231E-008  0.3763414E+03  0.7957747E-01  0.3467245E+00
         13   -1    0    0    0    0  0.00000000000E+00  0.00000000000E+00  0.14999999963E+04  0.15000000000E+04  0.10566000000E+00 0.  1.
        994   -1    0    0    0    0 -0.00000000000E+00 -0.00000000000E+00  0.11368683772E-12  0.17120000000E+03  0.17120000000E+03 0.  0.
         13    1    1    2    0    0  0.12262143895E+03 -0.37941112151E+02  0.61118833048E+03  0.62452120201E+03  0.10566000000E+00 0.  1.
        994    1    1    2    0    0 -0.14737971495E+03  0.20045065448E+02  0.84949791804E+02  0.24217450765E+03  0.17120000000E+03 0.  0.
        998    1    1    2    0    0  0.24758275993E+02  0.17896046703E+02  0.80386187399E+03  0.80450429034E+03  0.10000000000E+02 0.  1.
</event>
<event>
 5    1  0.1106231E-008  0.3855002E+03  0.7957747E-01  0.3427554E+00
         13   -1    0    0    0    0  0.00000000000E+00  0.00000000000E+00  0.14999999963E+04  0.15000000000E+04  0.10566000000E+00 0. -1.
        994   -1    0    0    0    0 -0.00000000000E+00 -0.00000000000E+00  0.11368683772E-12  0.17120000000E+03  0.17120000000E+03 0.  0.
         13    1    1    2    0    0 -0.80352848645E+01 -0.13507563732E+02  0.89414011332E+02  0.90784892285E+02  0.10566000000E+00 0. -1.
        994    1    1    2    0    0  0.62348135214E+01  0.87797272957E+01  0.17628321248E+01  0.17154738147E+03  0.17120000000E+03 0.  0.
        998    1    1    2    0    0  0.18004713430E+01  0.47278364367E+01  0.14088231528E+04  0.14088677262E+04  0.10000000000E+02 0. -1.
</event>
<event>
 5    1  0.1106231E-008  0.3819421E+03  0.7957747E-01  0.3442745E+00
         13   -1    0    0    0    0  0.00000000000E+00  0.00000000000E+00  0.14999999963E+04  0.15000000000E+04  0.10566000000E+00 0.  1.
        994   -1    0    0    0    0 -0.00000000000E+00 -0.00000000000E+00  0.11368683772E-12  0.17120000000E+03  0.17120000000E+03 0.  0.
         13    1    1    2    0    0 -0.17645987703E+02 -0.29232725529E+01  0.49765278135E+02  0.52882137592E+02  0.10566000000E+00 0.  1.
        994    1    1    2    0    0  0.10901154377E+02  0.13718214441E+01  0.35570438550E+01  0.17158907198E+03  0.17120000000E+03 0.  0.
        998    1    1    2    0    0  0.67448333252E+01  0.15514511088E+01  0.14466776743E+04  0.14467287904E+04  0.10000000000E+02 0.  1.
</event>
<event>
 5    1  0.1106231E-008  0.3845728E+03  0.7957747E-01  0.3431486E+00
         13   -1    0    0    0    0  0.00000000000E+00  0.00000000000E+00  0.14999999963E+04  0.15000000000E+04  0.10566000000E+00 0.  1.
        994   -1    0    0    0    0 -0.00000000000E+00 -0.00000000000E+00  0.11368683772E-12  0.17120000000E+03  0.17120000000E+03 0.  0.
         13    1    1    2    0    0  0.41355367972E+01  0.10237988233E+02  0.32118809767E+02  0.33963924575E+02  0.10566000000E+00 0.  1.
        994    1    1    2    0    0 -0.14079663111E+02 -0.70887535650E+01  0.26611474630E+01  0.17194478488E+03  0.17120000000E+03 0.  0.
        998    1    1    2    0    0  0.99441263135E+01 -0.31492346677E+01  0.14652200390E+04  0.14652912905E+04  0.10000000000E+02 0.  1.
</event>
<event>
 5    1  0.1106231E-008  0.3807177E+03  0.7957747E-01  0.3448039E+00
         13   -1    0    0    0    0  0.00000000000E+00  0.00000000000E+00  0.14999999963E+04  0.15000000000E+04  0.10566000000E+00 0.  1.
        994   -1    0    0    0    0 -0.00000000000E+00 -0.00000000000E+00  0.11368683772E-12  0.17120000000E+03  0.17120000000E+03 0.  0.
         13    1    1    2    0    0  0.14168101131E+01 -0.17298481354E+02  0.39399855311E+02  0.43053508227E+02  0.10566000000E+00 0.  1.
        994    1    1    2    0    0  0.93761155673E+01  0.59722660720E+01  0.41835496616E+01  0.17161154271E+03  0.17120000000E+03 0.  0.
        998    1    1    2    0    0 -0.10792925680E+02  0.11326215282E+02  0.14564165913E+04  0.14565349491E+04  0.10000000000E+02 0.  1.
</event>
<event>
 5    1  0.1106231E-008  0.3768226E+03  0.7957747E-01  0.3465111E+00
         13   -1    0    0    0    0  0.00000000000E+00  0.00000000000E+00  0.14999999963E+04  0.15000000000E+04  0.10566000000E+00 0. -1.
        994   -1    0    0    0    0 -0.00000000000E+00 -0.00000000000E+00  0.11368683772E-12  0.17120000000E+03  0.17120000000E+03 0.  0.
         13    1    1    2    0    0 -0.95370485977E+02  0.81938038512E+01  0.43907116591E+03  0.44938420968E+03  0.10566000000E+00 0. -1.
        994    1    1    2    0    0  0.87765129746E+01 -0.66900797208E+02  0.31085575642E+02  0.18662394503E+03  0.17120000000E+03 0.  0.
        998    1    1    2    0    0  0.86593973002E+02  0.58706993357E+02  0.10298432547E+04  0.10351918453E+04  0.10000000000E+02 0. -1.
</event>
<event>
 5    1  0.1106231E-008  0.3808557E+03  0.7957747E-01  0.3447441E+00
         13   -1    0    0    0    0  0.00000000000E+00  0.00000000000E+00  0.14999999963E+04  0.15000000000E+04  0.10566000000E+00 0.  1.
        994   -1    0    0    0    0 -0.00000000000E+00 -0.00000000000E+00  0.11368683772E-12  0.17120000000E+03  0.17120000000E+03 0.  0.
         13    1    1    2    0    0  0.30423930132E+02 -0.38978812554E+01  0.11231985333E+03  0.11643268278E+03  0.10566000000E+00 0.  1.
        994    1    1    2    0    0 -0.37211120452E+02  0.13722725091E+02  0.89631812337E+01  0.17596238032E+03  0.17120000000E+03 0.  0.
        998    1    1    2    0    0  0.67871903206E+01 -0.98248438355E+01  0.13787169617E+04  0.13788049369E+04  0.10000000000E+02 0.  1.
</event>
<event>
 5    1  0.1106231E-008  0.3777193E+03  0.7957747E-01  0.3461150E+00
         13   -1    0    0    0    0  0.00000000000E+00  0.00000000000E+00  0.14999999963E+04  0.15000000000E+04  0.10566000000E+00 0. -1.
        994   -1    0    0    0    0 -0.00000000000E+00 -0.00000000000E+00  0.11368683772E-12  0.17120000000E+03  0.17120000000E+03 0.  0.
         13    1    1    2    0    0 -0.38829990181E+02 -0.11392178902E+02  0.16080344866E+03  0.16581709847E+03  0.10566000000E+00 0. -1.
        994    1    1    2    0    0  0.14694072268E+02  0.43410713585E+01  0.60800256188E+01  0.17199176542E+03  0.17120000000E+03 0.  0.
        998    1    1    2    0    0  0.24135917913E+02  0.70511075433E+01  0.13331165220E+04  0.13333911361E+04  0.10000000000E+02 0. -1.
</event>
<event>
 5    1  0.1106231E-008  0.3773672E+03  0.7957747E-01  0.3462703E+00
         13   -1    0    0    0    0  0.00000000000E+00  0.00000000000E+00  0.14999999963E+04  0.15000000000E+04  0.10566000000E+00 0. -1.
        994   -1    0    0    0    0 -0.00000000000E+00 -0.00000000000E+00  0.11368683772E-12  0.17120000000E+03  0.17120000000E+03 0.  0.
         13    1    1    2    0    0  0.33198454472E+02 -0.64941211183E+00  0.10202605860E+03  0.10729346165E+03  0.10566000000E+00 0. -1.
        994    1    1    2    0    0 -0.13451109327E+02  0.44851495795E+00  0.60791706347E+01  0.17183576410E+03  0.17120000000E+03 0.  0.
        998    1    1    2    0    0 -0.19747345145E+02  0.20089715388E+00  0.13918947670E+04  0.13920707742E+04  0.10000000000E+02 0. -1.
</event>
<event>
 5    1  0.1106231E-008  0.4253567E+03  0.7957747E-01  0.3274691E+00
         13   -1    0    0    0    0  0.00000000000E+00  0.00000000000E+00  0.14999999963E+04  0.15000000000E+04  0.10566000000E+00 0.  1.
        994   -1    0    0    0    0 -0.00000000000E+00 -0.00000000000E+00  0.11368683772E-12  0.17120000000E+03  0.17120000000E+03 0.  0.
         13    1    1    2    0    0 -0.41826738209E+02  0.26812041159E+02  0.12254020882E+02  0.51171610998E+02  0.10566000000E+00 0.  1.
        994    1    1    2    0    0  0.31487513452E+02 -0.20286523232E+02  0.50065022385E+02  0.18226067320E+03  0.17120000000E+03 0.  0.
        998    1    1    2    0    0  0.10339224757E+02 -0.65255179269E+01  0.14376809530E+04  0.14377677158E+04  0.10000000000E+02 0.  1.
</event>
<event>
 5    1  0.1106231E-008  0.3939950E+03  0.7957747E-01  0.3392397E+00
         13   -1    0    0    0    0  0.00000000000E+00  0.00000000000E+00  0.14999999963E+04  0.15000000000E+04  0.10566000000E+00 0.  1.
        994   -1    0    0    0    0 -0.00000000000E+00 -0.00000000000E+00  0.11368683772E-12  0.17120000000E+03  0.17120000000E+03 0.  0.
         13    1    1    2    0    0 -0.38244762776E+02  0.52359614907E+02  0.84149110430E+02  0.10623217546E+03  0.10566000000E+00 0.  1.
        994    1    1    2    0    0 -0.23582705166E+02 -0.44332852334E+02  0.33936151888E+02  0.18161125566E+03  0.17120000000E+03 0.  0.
        998    1    1    2    0    0  0.61827467942E+02 -0.80267625730E+01  0.13819147340E+04  0.13833565689E+04  0.10000000000E+02 0.  1.
</event>
<event>
 5    1  0.1106231E-008  0.3822437E+03  0.7957747E-01  0.3441447E+00
         13   -1    0    0    0    0  0.00000000000E+00  0.00000000000E+00  0.14999999963E+04  0.15000000000E+04  0.10566000000E+00 0. -1.
        994   -1    0    0    0    0 -0.00000000000E+00 -0.00000000000E+00  0.11368683772E-12  0.17120000000E+03  0.17120000000E+03 0.  0.
         13    1    1    2    0    0 -0.71691588499E+01  0.30883553796E+02  0.15951247114E+03  0.16263280833E+03  0.10566000000E+00 0. -1.
        994    1    1    2    0    0  0.99855176518E+01 -0.22610521129E+02  0.50347269122E+01  0.17304835944E+03  0.17120000000E+03 0.  0.
        998    1    1    2    0    0 -0.28163588018E+01 -0.82730326673E+01  0.13354527982E+04  0.13355188322E+04  0.10000000000E+02 0. -1.
</event>
<event>
 5    1  0.1106231E-008  0.3812681E+03  0.7957747E-01  0.3445655E+00
         13   -1    0    0    0    0  0.00000000000E+00  0.00000000000E+00  0.14999999963E+04  0.15000000000E+04  0.10566000000E+00 0. -1.
        994   -1    0    0    0    0 -0.00000000000E+00 -0.00000000000E+00  0.11368683772E-12  0.17120000000E+03  0.17120000000E+03 0.  0.
         13    1    1    2    0    0  0.50916502191E+01  0.14904712814E+02  0.34150752207E+02  0.37607983279E+02  0.10566000000E+00 0. -1.
        994    1    1    2    0    0  0.18209388893E+01 -0.12165863678E+02  0.39982835311E+01  0.17168794462E+03  0.17120000000E+03 0.  0.
        998    1    1    2    0    0 -0.69125891083E+01 -0.27388491365E+01  0.14618509605E+04  0.14619040721E+04  0.10000000000E+02 0. -1.
</event>
<event>
 5    1  0.1106231E-008  0.3811884E+03  0.7957747E-01  0.3446000E+00
         13   -1    0    0    0    0  0.00000000000E+00  0.00000000000E+00  0.14999999963E+04  0.15000000000E+04  0.10566000000E+00 0. -1.
        994   -1    0    0    0    0 -0.00000000000E+00 -0.00000000000E+00  0.11368683772E-12  0.17120000000E+03  0.17120000000E+03 0.  0.
         13    1    1    2    0    0  0.15230371805E+02  0.46960148380E+01  0.35019151735E+02  0.38475562803E+02  0.10566000000E+00 0. -1.
        994    1    1    2    0    0 -0.78025684337E+01  0.52287354090E+00  0.37380937486E+01  0.17141927201E+03  0.17120000000E+03 0.  0.
        998    1    1    2    0    0 -0.74278033713E+01 -0.52188883789E+01  0.14612427508E+04  0.14613051652E+04  0.10000000000E+02 0. -1.
</event>
<event>
 5    1  0.1106231E-008  0.3696663E+03  0.7957747E-01  0.3497426E+00
         13   -1    0    0    0    0  0.00000000000E+00  0.00000000000E+00  0.14999999963E+04  0.15000000000E+04  0.10566000000E+00 0.  1.
        994   -1    0    0    0    0 -0.00000000000E+00 -0.00000000000E+00  0.11368683772E-12  0.17120000000E+03  0.17120000000E+03 0.  0.
         13    1    1    2    0    0  0.20882339010E+02 -0.37836609435E+02  0.10499656471E+03  0.11354281510E+03  0.10566000000E+00 0.  1.
        994    1    1    2    0    0 -0.48123275055E+01  0.16263358306E-01  0.95238027412E+01  0.17153221732E+03  0.17120000000E+03 0.  0.
        998    1    1    2    0    0 -0.16070011505E+02  0.37820346076E+02  0.13854796288E+04  0.13861249676E+04  0.10000000000E+02 0.  1.
</event>
<event>
 5    1  0.1106231E-008  0.3826562E+03  0.7957747E-01  0.3439674E+00
         13   -1    0    0    0    0  0.00000000000E+00  0.00000000000E+00  0.14999999963E+04  0.15000000000E+04  0.10566000000E+00 0.  1.
        994   -1    0    0    0    0 -0.00000000000E+00 -0.00000000000E+00  0.11368683772E-12  0.17120000000E+03  0.17120000000E+03 0.  0.
         13    1    1    2    0    0  0.14979449597E+02  0.34182292115E+01  0.41054991488E+02  0.43835963446E+02  0.10566000000E+00 0.  1.
        994    1    1    2    0    0 -0.10924025244E+02 -0.38701159526E+01  0.32435052144E+01  0.17162247071E+03  0.17120000000E+03 0.  0.
        998    1    1    2    0    0 -0.40554243536E+01  0.45188674103E+00  0.14557014996E+04  0.14557415658E+04  0.10000000000E+02 0.  1.
</event>
<event>
 5    1  0.1106231E-008  0.3721093E+03  0.7957747E-01  0.3486253E+00
         13   -1    0    0    0    0  0.00000000000E+00  0.00000000000E+00  0.14999999963E+04  0.15000000000E+04  0.10566000000E+00 0. -1.
        994   -1    0    0    0    0 -0.00000000000E+00 -0.00000000000E+00  0.11368683772E-12  0.17120000000E+03  0.17120000000E+03 0.  0.
         13    1    1    2    0    0  0.11866875429E+02 -0.10678432299E+03  0.39422782750E+03  0.40860654119E+03  0.10566000000E+00 0. -1.
        994    1    1    2    0    0 -0.44665816328E+02  0.86407436597E+02  0.46173350060E+02  0.20224415567E+03  0.17120000000E+03 0.  0.
        998    1    1    2    0    0  0.32798940900E+02  0.20376886393E+02  0.10595988187E+04  0.10603493031E+04  0.10000000000E+02 0. -1.
</event>
<event>
 5    1  0.1106231E-008  0.3786878E+03  0.7957747E-01  0.3456892E+00
         13   -1    0    0    0    0  0.00000000000E+00  0.00000000000E+00  0.14999999963E+04  0.15000000000E+04  0.10566000000E+00 0.  1.
        994   -1    0    0    0    0 -0.00000000000E+00 -0.00000000000E+00  0.11368683772E-12  0.17120000000E+03  0.17120000000E+03 0.  0.
         13    1    1    2    0    0  0.75817614913E+00  0.20673220100E+02  0.40481470865E+02  0.45461164831E+02  0.10566000000E+00 0.  1.
        994    1    1    2    0    0  0.24131082610E+01 -0.30389268434E+02  0.79235267316E+01  0.17407341268E+03  0.17120000000E+03 0.  0.
        998    1    1    2    0    0 -0.31712844101E+01  0.97160483342E+01  0.14515949987E+04  0.14516654225E+04  0.10000000000E+02 0.  1.
</event>
<event>
 5    1  0.1106231E-008  0.3757628E+03  0.7957747E-01  0.3469818E+00
         13   -1    0    0    0    0  0.00000000000E+00  0.00000000000E+00  0.14999999963E+04  0.15000000000E+04  0.10566000000E+00 0.  1.
        994   -1    0    0    0    0 -0.00000000000E+00 -0.00000000000E+00  0.11368683772E-12  0.17120000000E+03  0.17120000000E+03 0.  0.
         13    1    1    2    0    0 -0.14486242451E+02 -0.40458558529E+02  0.61628297266E+02  0.75131913103E+02  0.10566000000E+00 0.  1.
        994    1    1    2    0    0  0.24257268867E+02  0.16950043298E+02  0.17149944714E+02  0.17458315974E+03  0.17120000000E+03 0.  0.
        998    1    1    2    0    0 -0.97710264156E+01  0.23508515232E+02  0.14212217543E+04  0.14214849272E+04  0.10000000000E+02 0.  1.
</event>
<event>
 5    1  0.1106231E-008  0.3851872E+03  0.7957747E-01  0.3428879E+00
         13   -1    0    0    0    0  0.00000000000E+00  0.00000000000E+00  0.14999999963E+04  0.15000000000E+04  0.10566000000E+00 0.  1.
        994   -1    0    0    0    0 -0.00000000000E+00 -0.00000000000E+00  0.11368683772E-12  0.17120000000E+03  0.17120000000E+03 0.  0.
         13    1    1    2    0    0 -0.39419700769E+01 -0.15975697998E+02  0.87685509897E+02  0.89216152487E+02  0.10566000000E+00 0.  1.
        994    1    1    2    0    0  0.85691041002E+01  0.97811688267E+01  0.20932074680E+01  0.17170591815E+03  0.17120000000E+03 0.  0.
        998    1    1    2    0    0 -0.46271340233E+01  0.61945291709E+01  0.14102212789E+04  0.14102779294E+04  0.10000000000E+02 0.  1.
</event>
<event>
 5    1  0.1106231E-008  0.3809435E+03  0.7957747E-01  0.3447061E+00
         13   -1    0    0    0    0  0.00000000000E+00  0.00000000000E+00  0.14999999963E+04  0.15000000000E+04  0.10566000000E+00 0. -1.
        994   -1    0    0    0    0 -0.00000000000E+00 -0.00000000000E+00  0.11368683772E-12  0.17120000000E+03  0.17120000000E+03 0.  0.
         13    1    1    2    0    0  0.22601196160E+02  0.68200756882E+01  0.71837651203E+02  0.75617370984E+02  0.10566000000E+00 0. -1.
        994    1    1    2    0    0 -0.26835196941E+02  0.56258229139E+01  0.61669968157E+01  0.17349135289E+03  0.17120000000E+03 0.  0.
        998    1    1    2    0    0  0.42340007812E+01 -0.12445898602E+02  0.14219953483E+04  0.14220912761E+04  0.10000000000E+02 0. -1.
</event>
<event>
 5    1  0.1106231E-008  0.3860040E+03  0.7957747E-01  0.3425425E+00
         13   -1    0    0    0    0  0.00000000000E+00  0.00000000000E+00  0.14999999963E+04  0.15000000000E+04  0.10566000000E+00 0.  1.
        994   -1    0    0    0    0 -0.00000000000E+00 -0.00000000000E+00  0.11368683772E-12  0.17120000000E+03  0.17120000000E+03 0.  0.
         13    1    1    2    0    0  0.82337871829E+01 -0.77109098865E+01  0.53236746875E+02  0.54418891614E+02  0.10566000000E+00 0.  1.
        994    1    1    2    0    0 -0.13735959562E+02  0.10642666069E+02  0.21228809820E+01  0.17209267721E+03  0.17120000000E+03 0.  0.
        998    1    1    2    0    0  0.55021723796E+01 -0.29317561826E+01  0.14446403684E+04  0.14446884312E+04  0.10000000000E+02 0.  1.
</event>
<event>
 5    1  0.1106231E-008  0.3754819E+03  0.7957747E-01  0.3471070E+00
         13   -1    0    0    0    0  0.00000000000E+00  0.00000000000E+00  0.14999999963E+04  0.15000000000E+04  0.10566000000E+00 0. -1.
        994   -1    0    0    0    0 -0.00000000000E+00 -0.00000000000E+00  0.11368683772E-12  0.17120000000E+03  0.17120000000E+03 0.  0.
         13    1    1    2    0    0 -0.81004964838E+02 -0.10078210666E+02  0.40864576929E+03  0.41671903074E+03  0.10566000000E+00 0. -1.
        994    1    1    2    0    0  0.72444526160E+02  0.50622350020E+01  0.24544843925E+02  0.18757858342E+03  0.17120000000E+03 0.  0.
        998    1    1    2    0    0  0.85604386782E+01  0.50159756640E+01  0.10668093831E+04  0.10669023858E+04  0.10000000000E+02 0.  0.
</event>
<event>
 5    1  0.1106231E-008  0.3840843E+03  0.7957747E-01  0.3433565E+00
         13   -1    0    0    0    0  0.00000000000E+00  0.00000000000E+00  0.14999999963E+04  0.15000000000E+04  0.10566000000E+00 0. -1.
        994   -1    0    0    0    0 -0.00000000000E+00 -0.00000000000E+00  0.11368683772E-12  0.17120000000E+03  0.17120000000E+03 0.  0.
         13    1    1    2    0    0 -0.21552801995E+02 -0.69580467179E+01  0.13064713307E+03  0.13259570970E+03  0.10566000000E+00 0. -1.
        994    1    1    2    0    0  0.86149939347E+01 -0.64107255277E+01  0.24659271539E+01  0.17155417896E+03  0.17120000000E+03 0.  0.
        998    1    1    2    0    0  0.12937808060E+02  0.13368772246E+02  0.13668869361E+04  0.13670501113E+04  0.10000000000E+02 0. -1.
</event>
<event>
 5    1  0.1106231E-008  0.3787030E+03  0.7957747E-01  0.3456825E+00
         13   -1    0    0    0    0  0.00000000000E+00  0.00000000000E+00  0.14999999963E+04  0.15000000000E+04  0.10566000000E+00 0. -1.
        994   -1    0    0    0    0 -0.00000000000E+00 -0.00000000000E+00  0.11368683772E-12  0.17120000000E+03  0.17120000000E+03 0.  0.
         13    1    1    2    0    0  0.47652814046E+01 -0.50849512282E+02  0.25330286506E+03  0.25840033556E+03  0.10566000000E+00 0. -1.
        994    1    1    2    0    0 -0.19036412442E+02  0.36398390762E+02  0.10474767323E+02  0.17637003317E+03  0.17120000000E+03 0.  0.
        998    1    1    2    0    0  0.14271131038E+02  0.14451121520E+02  0.12362223639E+04  0.12364296313E+04  0.10000000000E+02 0. -1.
</event>
<event>
 5    1  0.1106231E-008  0.3841208E+03  0.7957747E-01  0.3433409E+00
         13   -1    0    0    0    0  0.00000000000E+00  0.00000000000E+00  0.14999999963E+04  0.15000000000E+04  0.10566000000E+00 0.  1.
        994   -1    0    0    0    0 -0.00000000000E+00 -0.00000000000E+00  0.11368683772E-12  0.17120000000E+03  0.17120000000E+03 0.  0.
         13    1    1    2    0    0 -0.31937846666E+01 -0.11025457300E+02  0.31390634377E+02  0.33423705058E+02  0.10566000000E+00 0.  1.
        994    1    1    2    0    0  0.57402570444E+01  0.59869209905E+01  0.22941848792E+01  0.17141615168E+03  0.17120000000E+03 0.  0.
        998    1    1    2    0    0 -0.25464723778E+01  0.50385363094E+01  0.14663151770E+04  0.14663601433E+04  0.10000000000E+02 0.  1.
</event>
<event>
 5    1  0.1106231E-008  0.3785124E+03  0.7957747E-01  0.3457662E+00
         13   -1    0    0    0    0  0.00000000000E+00  0.00000000000E+00  0.14999999963E+04  0.15000000000E+04  0.10566000000E+00 0. -1.
        994   -1    0    0    0    0 -0.00000000000E+00 -0.00000000000E+00  0.11368683772E-12  0.17120000000E+03  0.17120000000E+03 0.  0.
         13    1    1    2    0    0 -0.34540484659E+02  0.50509678155E+02  0.28709710461E+03  0.29354562049E+03  0.10566000000E+00 0. -1.
        994    1    1    2    0    0  0.21445817003E+02 -0.71194551818E+02  0.23689284485E+02  0.18814677641E+03  0.17120000000E+03 0.  0.
        998    1    1    2    0    0  0.13094667656E+02  0.20684873664E+02  0.11892136072E+04  0.11895076031E+04  0.10000000000E+02 0. -1.
</event>
<event>
 5    1  0.1106231E-008  0.3852830E+03  0.7957747E-01  0.3428473E+00
         13   -1    0    0    0    0  0.00000000000E+00  0.00000000000E+00  0.14999999963E+04  0.15000000000E+04  0.10566000000E+00 0. -1.
        994   -1    0    0    0    0 -0.00000000000E+00 -0.00000000000E+00  0.11368683772E-12  0.17120000000E+03  0.17120000000E+03 0.  0.
         13    1    1    2    0    0  0.54725191370E+01 -0.16298610869E+02  0.99019923212E+02  0.10050149023E+03  0.10566000000E+00 0. -1.
        994    1    1    2    0    0 -0.73694323833E+01  0.97859580001E+01  0.19829404816E+01  0.17164919330E+03  0.17120000000E+03 0.  0.
        998    1    1    2    0    0  0.18969132462E+01  0.65126528687E+01  0.13989971326E+04  0.13990493165E+04  0.10000000000E+02 0. -1.
</event>
<event>
 5    1  0.1106231E-008  0.3830120E+03  0.7957747E-01  0.3438147E+00
         13   -1    0    0    0    0  0.00000000000E+00  0.00000000000E+00  0.14999999963E+04  0.15000000000E+04  0.10566000000E+00 0. -1.
        994   -1    0    0    0    0 -0.00000000000E+00 -0.00000000000E+00  0.11368683772E-12  0.17120000000E+03  0.17120000000E+03 0.  0.
         13    1    1    2    0    0  0.98734996103E+01  0.74963050313E+01  0.33495756650E+02  0.35716347256E+02  0.10566000000E+00 0. -1.
        994    1    1    2    0    0  0.31723703397E+02  0.14680684959E+02  0.66754262862E+01  0.17485970715E+03  0.17120000000E+03 0.  0.
        998    1    1    2    0    0 -0.41597203007E+02 -0.22176989990E+02  0.14598288133E+04  0.14606239456E+04  0.10000000000E+02 0. -1.
</event>
<event>
 5    1  0.1106231E-008  0.3855303E+03  0.7957747E-01  0.3427426E+00
         13   -1    0    0    0    0  0.00000000000E+00  0.00000000000E+00  0.14999999963E+04  0.15000000000E+04  0.10566000000E+00 0. -1.
        994   -1    0    0    0    0 -0.00000000000E+00 -0.00000000000E+00  0.11368683772E-12  0.17120000000E+03  0.17120000000E+03 0.  0.
         13    1    1    2    0    0  0.12582625791E+02  0.98304126702E+01  0.83040203965E+02  0.84561493150E+02  0.10566000000E+00 0. -1.
        994    1    1    2    0    0 -0.22652465371E+02 -0.13722383735E+02  0.36733154922E+01  0.17327542021E+03  0.17120000000E+03 0.  0.
        998    1    1    2    0    0  0.10069839580E+02  0.38919710645E+01  0.14132864768E+04  0.14133630866E+04  0.10000000000E+02 0. -1.
</event>
<event>
 5    1  0.1106231E-008  0.3793762E+03  0.7957747E-01  0.3453879E+00
         13   -1    0    0    0    0  0.00000000000E+00  0.00000000000E+00  0.14999999963E+04  0.15000000000E+04  0.10566000000E+00 0.  1.
        994   -1    0    0    0    0 -0.00000000000E+00 -0.00000000000E+00  0.11368683772E-12  0.17120000000E+03  0.17120000000E+03 0.  0.
         13    1    1    2    0    0 -0.17668978929E+02 -0.15296167160E+02  0.57813537604E+02  0.62358494534E+02  0.10566000000E+00 0.  1.
        994    1    1    2    0    0  0.20896590023E+02  0.11723763935E+02  0.63739195746E+01  0.17298607160E+03  0.17120000000E+03 0.  0.
        998    1    1    2    0    0 -0.32276110934E+01  0.35724032251E+01  0.14358125391E+04  0.14358554339E+04  0.10000000000E+02 0.  1.
</event>
<event>
 5    1  0.1106231E-008  0.3831935E+03  0.7957747E-01  0.3437370E+00
         13   -1    0    0    0    0  0.00000000000E+00  0.00000000000E+00  0.14999999963E+04  0.15000000000E+04  0.10566000000E+00 0.  1.
        994   -1    0    0    0    0 -0.00000000000E+00 -0.00000000000E+00  0.11368683772E-12  0.17120000000E+03  0.17120000000E+03 0.  0.
         13    1    1    2    0    0 -0.11190844256E+02  0.36898327840E+01  0.26689693219E+02  0.29175344887E+02  0.10566000000E+00 0.  1.
        994    1    1    2    0    0  0.39438992614E+01 -0.10347831333E+02  0.29354766090E+01  0.17158289244E+03  0.17120000000E+03 0.  0.
        998    1    1    2    0    0  0.72469449944E+01  0.66579985488E+01  0.14703748265E+04  0.14704417627E+04  0.10000000000E+02 0.  1.
</event>
<event>
 5    1  0.1106231E-008  0.3841487E+03  0.7957747E-01  0.3433291E+00
         13   -1    0    0    0    0  0.00000000000E+00  0.00000000000E+00  0.14999999963E+04  0.15000000000E+04  0.10566000000E+00 0. -1.
        994   -1    0    0    0    0 -0.00000000000E+00 -0.00000000000E+00  0.11368683772E-12  0.17120000000E+03  0.17120000000E+03 0.  0.
         13    1    1    2    0    0 -0.63639905401E+01 -0.16438058328E+02  0.83186959421E+02  0.85034060934E+02  0.10566000000E+00 0. -1.
        994    1    1    2    0    0 -0.11113631766E+02  0.26969509361E+00  0.24610443082E+01  0.17157821040E+03  0.17120000000E+03 0.  0.
        998    1    1    2    0    0  0.17477622307E+02  0.16168363234E+02  0.14143519925E+04  0.14145877287E+04  0.10000000000E+02 0. -1.
</event>
<event>
 5    1  0.1106231E-008  0.3829380E+03  0.7957747E-01  0.3438465E+00
         13   -1    0    0    0    0  0.00000000000E+00  0.00000000000E+00  0.14999999963E+04  0.15000000000E+04  0.10566000000E+00 0. -1.
        994   -1    0    0    0    0 -0.00000000000E+00 -0.00000000000E+00  0.11368683772E-12  0.17120000000E+03  0.17120000000E+03 0.  0.
         13    1    1    2    0    0  0.21889093900E+03  0.66646346151E+02  0.98186129063E+03  0.10081699181E+04  0.10566000000E+00 0. -1.
        994    1    1    2    0    0 -0.23472465398E+03 -0.78293537750E+02  0.24232783860E+03  0.38633892193E+03  0.17120000000E+03 0.  0.
        998    1    1    2    0    0  0.15833714976E+02  0.11647191599E+02  0.27581086705E+03  0.27669115993E+03  0.10000000000E+02 0. -1.
</event>
<event>
 5    1  0.1106231E-008  0.3773531E+03  0.7957747E-01  0.3462765E+00
         13   -1    0    0    0    0  0.00000000000E+00  0.00000000000E+00  0.14999999963E+04  0.15000000000E+04  0.10566000000E+00 0.  1.
        994   -1    0    0    0    0 -0.00000000000E+00 -0.00000000000E+00  0.11368683772E-12  0.17120000000E+03  0.17120000000E+03 0.  0.
         13    1    1    2    0    0 -0.20768642677E+01  0.27400157917E+02  0.65318858184E+02  0.70863576100E+02  0.10566000000E+00 0.  1.
        994    1    1    2    0    0  0.71953688587E+01 -0.23370713914E+02  0.74945019347E+01  0.17309988781E+03  0.17120000000E+03 0.  0.
        998    1    1    2    0    0 -0.51185045910E+01 -0.40294440038E+01  0.14271866362E+04  0.14272365361E+04  0.10000000000E+02 0.  1.
</event>
<event>
 5    1  0.1106231E-008  0.3848088E+03  0.7957747E-01  0.3430484E+00
         13   -1    0    0    0    0  0.00000000000E+00  0.00000000000E+00  0.14999999963E+04  0.15000000000E+04  0.10566000000E+00 0.  1.
        994   -1    0    0    0    0 -0.00000000000E+00 -0.00000000000E+00  0.11368683772E-12  0.17120000000E+03  0.17120000000E+03 0.  0.
         13    1    1    2    0    0  0.20574812507E+01 -0.19015920162E+02  0.10140841703E+03  0.10319649538E+03  0.10566000000E+00 0.  1.
        994    1    1    2    0    0 -0.85321005347E+01  0.17147542928E+02  0.29331696398E+01  0.17229300175E+03  0.17120000000E+03 0.  0.
        998    1    1    2    0    0  0.64746192841E+01  0.18683772347E+01  0.13956584096E+04  0.13957105029E+04  0.10000000000E+02 0.  1.
</event>
<event>
 5    1  0.1106231E-008  0.3821038E+03  0.7957747E-01  0.3442049E+00
         13   -1    0    0    0    0  0.00000000000E+00  0.00000000000E+00  0.14999999963E+04  0.15000000000E+04  0.10566000000E+00 0. -1.
        994   -1    0    0    0    0 -0.00000000000E+00 -0.00000000000E+00  0.11368683772E-12  0.17120000000E+03  0.17120000000E+03 0.  0.
         13    1    1    2    0    0 -0.11638584972E+02 -0.20543515120E+00  0.20813329121E+02  0.23847530205E+02  0.10566000000E+00 0. -1.
        994    1    1    2    0    0  0.84335520562E+01  0.36968993165E+00  0.33115474192E+01  0.17143998313E+03  0.17120000000E+03 0.  0.
        998    1    1    2    0    0  0.32050329161E+01 -0.16425478045E+00  0.14758751197E+04  0.14759124867E+04  0.10000000000E+02 0. -1.
</event>
<event>
 5    1  0.1126663E-008  0.3856843E+03  0.7957747E-01  0.3426775E+00
         13   -1    0    0    0    0  0.00000000000E+00  0.00000000000E+00  0.14999999963E+04  0.15000000000E+04  0.10566000000E+00 0.  1.
        994   -1    0    0    0    0 -0.00000000000E+00 -0.00000000000E+00  0.11368683772E-12  0.17120000000E+03  0.17120000000E+03 0.  0.
         13    1    1    2    0    0 -0.66794309298E+01 -0.14863385599E+02  0.93725940518E+02  0.95132003653E+02  0.10566000000E+00 0.  1.
        994    1    1    2    0    0  0.89520579363E+01  0.20556373820E+02  0.29420748854E+01  0.17268699908E+03  0.17120000000E+03 0.  0.
        998    1    1    2    0    0 -0.22726270065E+01 -0.56929882213E+01  0.14033319809E+04  0.14033809973E+04  0.10000000000E+02 0.  1.
</event>
<event>
 5    1  0.1106231E-008  0.4043090E+03  0.7957747E-01  0.3351693E+00
         13   -1    0    0    0    0  0.00000000000E+00  0.00000000000E+00  0.14999999963E+04  0.15000000000E+04  0.10566000000E+00 0.  1.
        994   -1    0    0    0    0 -0.00000000000E+00 -0.00000000000E+00  0.11368683772E-12  0.17120000000E+03  0.17120000000E+03 0.  0.
         13    1    1    2    0    0 -0.89656943251E+02  0.48813710227E+02  0.21639851649E+03  0.23926862494E+03  0.10566000000E+00 0.  1.
        994    1    1    2    0    0 -0.12809340282E+02 -0.68691188219E+01  0.31224647207E+02  0.17463013081E+03  0.17120000000E+03 0.  0.
        998    1    1    2    0    0  0.10246628353E+03 -0.41944591405E+02  0.12523768326E+04  0.12573012443E+04  0.10000000000E+02 0.  1.
</event>
<event>
 5    1  0.1106231E-008  0.3860846E+03  0.7957747E-01  0.3425085E+00
         13   -1    0    0    0    0  0.00000000000E+00  0.00000000000E+00  0.14999999963E+04  0.15000000000E+04  0.10566000000E+00 0.  1.
        994   -1    0    0    0    0 -0.00000000000E+00 -0.00000000000E+00  0.11368683772E-12  0.17120000000E+03  0.17120000000E+03 0.  0.
         13    1    1    2    0    0  0.71576627782E+01  0.10563377895E+02  0.74689221809E+02  0.75771420123E+02  0.10566000000E+00 0.  1.
        994    1    1    2    0    0 -0.60745596913E+01 -0.75854213825E+01  0.14021600138E+01  0.17148132536E+03  0.17120000000E+03 0.  0.
        998    1    1    2    0    0 -0.10831030869E+01 -0.29779565128E+01  0.14239086145E+04  0.14239472545E+04  0.10000000000E+02 0.  1.
</event>
<event>
 5    1  0.1106231E-008  0.3775260E+03  0.7957747E-01  0.3462002E+00
         13   -1    0    0    0    0  0.00000000000E+00  0.00000000000E+00  0.14999999963E+04  0.15000000000E+04  0.10566000000E+00 0. -1.
        994   -1    0    0    0    0 -0.00000000000E+00 -0.00000000000E+00  0.11368683772E-12  0.17120000000E+03  0.17120000000E+03 0.  0.
         13    1    1    2    0    0  0.33130419178E+02 -0.35392726278E+00  0.99553123774E+02  0.10492180687E+03  0.10566000000E+00 0. -1.
        994    1    1    2    0    0 -0.21093018322E+02  0.13961598081E+01  0.68948316826E+01  0.17263789673E+03  0.17120000000E+03 0.  0.
        998    1    1    2    0    0 -0.12037400856E+02 -0.10422325453E+01  0.13935520408E+04  0.13936402964E+04  0.10000000000E+02 0. -1.
</event>
<event>
 5    1  0.1106231E-008  0.3850892E+03  0.7957747E-01  0.3429294E+00
         13   -1    0    0    0    0  0.00000000000E+00  0.00000000000E+00  0.14999999963E+04  0.15000000000E+04  0.10566000000E+00 0. -1.
        994   -1    0    0    0    0 -0.00000000000E+00 -0.00000000000E+00  0.11368683772E-12  0.17120000000E+03  0.17120000000E+03 0.  0.
         13    1    1    2    0    0  0.14473179262E+00  0.10285852443E+02  0.33278048546E+02  0.34831873146E+02  0.10566000000E+00 0. -1.
        994    1    1    2    0    0 -0.41824164799E+01 -0.64640908911E+01  0.17807877084E+01  0.17138228696E+03  0.17120000000E+03 0.  0.
        998    1    1    2    0    0  0.40376846873E+01 -0.38217615517E+01  0.14649411600E+04  0.14649858399E+04  0.10000000000E+02 0. -1.
</event>
<event>
 5    1  0.1106231E-008  0.3800226E+03  0.7957747E-01  0.3451060E+00
         13   -1    0    0    0    0  0.00000000000E+00  0.00000000000E+00  0.14999999963E+04  0.15000000000E+04  0.10566000000E+00 0.  1.
        994   -1    0    0    0    0 -0.00000000000E+00 -0.00000000000E+00  0.11368683772E-12  0.17120000000E+03  0.17120000000E+03 0.  0.
         13    1    1    2    0    0  0.20186225974E+02 -0.11609916595E+02  0.64154972622E+02  0.68250608485E+02  0.10566000000E+00 0.  1.
        994    1    1    2    0    0 -0.10868569222E+02  0.11874229835E+02  0.49883979199E+01  0.17202746073E+03  0.17120000000E+03 0.  0.
        998    1    1    2    0    0 -0.93176567520E+01 -0.26431323982E+00  0.14308566257E+04  0.14309219308E+04  0.10000000000E+02 0.  1.
</event>
<event>
 5    1  0.1106231E-008  0.3805660E+03  0.7957747E-01  0.3448698E+00
         13   -1    0    0    0    0  0.00000000000E+00  0.00000000000E+00  0.14999999963E+04  0.15000000000E+04  0.10566000000E+00 0.  1.
        994   -1    0    0    0    0 -0.00000000000E+00 -0.00000000000E+00  0.11368683772E-12  0.17120000000E+03  0.17120000000E+03 0.  0.
         13    1    1    2    0    0  0.27236227878E+02 -0.19154499410E+02  0.15091476332E+03  0.15454443992E+03  0.10566000000E+00 0.  1.
        994    1    1    2    0    0 -0.20265789557E+02 -0.85156451960E+01  0.54617283062E+01  0.17269189013E+03  0.17120000000E+03 0.  0.
        998    1    1    2    0    0 -0.69704383209E+01  0.27670144606E+02  0.13436235046E+04  0.13439636700E+04  0.10000000000E+02 0.  1.
</event>
<event>
 5    1  0.1106231E-008  0.3829526E+03  0.7957747E-01  0.3438402E+00
         13   -1    0    0    0    0  0.00000000000E+00  0.00000000000E+00  0.14999999963E+04  0.15000000000E+04  0.10566000000E+00 0.  1.
        994   -1    0    0    0    0 -0.00000000000E+00 -0.00000000000E+00  0.11368683772E-12  0.17120000000E+03  0.17120000000E+03 0.  0.
         13    1    1    2    0    0  0.70580597459E+01  0.15798875684E+02  0.57233547742E+02  0.59792230528E+02  0.10566000000E+00 0.  1.
        994    1    1    2    0    0 -0.71647839308E+01 -0.30257210868E+01  0.28503309413E+01  0.17140027276E+03  0.17120000000E+03 0.  0.
        998    1    1    2    0    0  0.10672418489E+00 -0.12773154597E+02  0.14399161176E+04  0.14400074967E+04  0.10000000000E+02 0.  1.
</event>
<event>
 5    1  0.1106231E-008  0.3831362E+03  0.7957747E-01  0.3437615E+00
         13   -1    0    0    0    0  0.00000000000E+00  0.00000000000E+00  0.14999999963E+04  0.15000000000E+04  0.10566000000E+00 0. -1.
        994   -1    0    0    0    0 -0.00000000000E+00 -0.00000000000E+00  0.11368683772E-12  0.17120000000E+03  0.17120000000E+03 0.  0.
         13    1    1    2    0    0 -0.13679894870E+02 -0.33057220179E+01  0.37423744868E+02  0.39982685824E+02  0.10566000000E+00 0. -1.
        994    1    1    2    0    0  0.14500139794E+02 -0.58274472008E+01  0.33667377347E+01  0.17194472402E+03  0.17120000000E+03 0.  0.
        998    1    1    2    0    0 -0.82024492430E+00  0.91331692186E+01  0.14592095137E+04  0.14592725902E+04  0.10000000000E+02 0. -1.
</event>
<event>
 5    1  0.1106231E-008  0.3843892E+03  0.7957747E-01  0.3432267E+00
         13   -1    0    0    0    0  0.00000000000E+00  0.00000000000E+00  0.14999999963E+04  0.15000000000E+04  0.10566000000E+00 0. -1.
        994   -1    0    0    0    0 -0.00000000000E+00 -0.00000000000E+00  0.11368683772E-12  0.17120000000E+03  0.17120000000E+03 0.  0.
         13    1    1    2    0    0  0.13484576525E+02 -0.60309619100E+00  0.50003367938E+02  0.51793295881E+02  0.10566000000E+00 0. -1.
        994    1    1    2    0    0  0.30566927956E+01 -0.13211694971E+02  0.25399049175E+01  0.17175500974E+03  0.17120000000E+03 0.  0.
        998    1    1    2    0    0 -0.16541269321E+02  0.13814791162E+02  0.14474567234E+04  0.14476516944E+04  0.10000000000E+02 0. -1.
</event>
<event>
 5    1  0.1106231E-008  0.3851306E+03  0.7957747E-01  0.3429119E+00
         13   -1    0    0    0    0  0.00000000000E+00  0.00000000000E+00  0.14999999963E+04  0.15000000000E+04  0.10566000000E+00 0.  1.
        994   -1    0    0    0    0 -0.00000000000E+00 -0.00000000000E+00  0.11368683772E-12  0.17120000000E+03  0.17120000000E+03 0.  0.
         13    1    1    2    0    0  0.13167141096E+02  0.15753611367E+02  0.10399261426E+03  0.10600011726E+03  0.10566000000E+00 0.  1.
        994    1    1    2    0    0 -0.29884718824E+02 -0.35311985149E+02  0.86320444967E+01  0.17754995045E+03  0.17120000000E+03 0.  0.
        998    1    1    2    0    0  0.16717577728E+02  0.19558373782E+02  0.13873753375E+04  0.13876499323E+04  0.10000000000E+02 0.  1.
</event>
<event>
 5    1  0.1106231E-008  0.3771644E+03  0.7957747E-01  0.3463599E+00
         13   -1    0    0    0    0  0.00000000000E+00  0.00000000000E+00  0.14999999963E+04  0.15000000000E+04  0.10566000000E+00 0. -1.
        994   -1    0    0    0    0 -0.00000000000E+00 -0.00000000000E+00  0.11368683772E-12  0.17120000000E+03  0.17120000000E+03 0.  0.
         13    1    1    2    0    0  0.30377023371E+02 -0.42635647635E+02  0.23235320939E+03  0.23817763765E+03  0.10566000000E+00 0. -1.
        994    1    1    2    0    0 -0.71082873038E+01  0.40968911111E+02  0.11428325454E+02  0.17654751782E+03  0.17120000000E+03 0.  0.
        998    1    1    2    0    0 -0.23268736067E+02  0.16667365245E+01  0.12562184614E+04  0.12564748445E+04  0.10000000000E+02 0. -1.
</event>
<event>
 5    1  0.1106231E-008  0.3803386E+03  0.7957747E-01  0.3449685E+00
         13   -1    0    0    0    0  0.00000000000E+00  0.00000000000E+00  0.14999999963E+04  0.15000000000E+04  0.10566000000E+00 0.  1.
        994   -1    0    0    0    0 -0.00000000000E+00 -0.00000000000E+00  0.11368683772E-12  0.17120000000E+03  0.17120000000E+03 0.  0.
         13    1    1    2    0    0 -0.88297817754E+01  0.82668520486E+01  0.17280971745E+02  0.21093815147E+02  0.10566000000E+00 0.  1.
        994    1    1    2    0    0  0.19344027487E+01  0.57329851322E+01  0.40845778853E+01  0.17135557420E+03  0.17120000000E+03 0.  0.
        998    1    1    2    0    0  0.68953790267E+01 -0.13999837181E+02  0.14786344466E+04  0.14787506107E+04  0.10000000000E+02 0.  1.
</event>
<event>
 5    1  0.1106231E-008  0.3722409E+03  0.7957747E-01  0.3485655E+00
         13   -1    0    0    0    0  0.00000000000E+00  0.00000000000E+00  0.14999999963E+04  0.15000000000E+04  0.10566000000E+00 0.  1.
        994   -1    0    0    0    0 -0.00000000000E+00 -0.00000000000E+00  0.11368683772E-12  0.17120000000E+03  0.17120000000E+03 0.  0.
         13    1    1    2    0    0  0.32128297351E+02  0.48510628651E+01  0.66967746133E+02  0.74434202405E+02  0.10566000000E+00 0.  1.
        994    1    1    2    0    0 -0.33346518756E+00  0.13621611557E+02  0.87397498729E+01  0.17196360873E+03  0.17120000000E+03 0.  0.
        998    1    1    2    0    0 -0.31794832163E+02 -0.18472674422E+02  0.14242925003E+04  0.14248021889E+04  0.10000000000E+02 0.  1.
</event>
<event>
 5    1  0.1106231E-008  0.3693501E+03  0.7957747E-01  0.3498883E+00
         13   -1    0    0    0    0  0.00000000000E+00  0.00000000000E+00  0.14999999963E+04  0.15000000000E+04  0.10566000000E+00 0. -1.
        994   -1    0    0    0    0 -0.00000000000E+00 -0.00000000000E+00  0.11368683772E-12  0.17120000000E+03  0.17120000000E+03 0.  0.
         13    1    1    2    0    0  0.14315798080E+03 -0.36575203713E+02  0.44834869925E+03  0.47206834281E+03  0.10566000000E+00 0. -1.
        994    1    1    2    0    0 -0.19212627494E+03  0.26244717775E+02  0.15608972400E+03  0.30211708438E+03  0.17120000000E+03 0.  0.
        998    1    1    2    0    0  0.48968294135E+02  0.10330485939E+02  0.89556157302E+03  0.89701457281E+03  0.10000000000E+02 0. -1.
</event>
<event>
 5    1  0.1106231E-008  0.3719849E+03  0.7957747E-01  0.3486818E+00
         13   -1    0    0    0    0  0.00000000000E+00  0.00000000000E+00  0.14999999963E+04  0.15000000000E+04  0.10566000000E+00 0. -1.
        994   -1    0    0    0    0 -0.00000000000E+00 -0.00000000000E+00  0.11368683772E-12  0.17120000000E+03  0.17120000000E+03 0.  0.
         13    1    1    2    0    0  0.82279962980E+02  0.25184641473E+02  0.34963028150E+03  0.36006333245E+03  0.10566000000E+00 0. -1.
        994    1    1    2    0    0 -0.76874999751E+02 -0.31714381634E+02  0.32371937763E+02  0.19306203652E+03  0.17120000000E+03 0.  0.
        998    1    1    2    0    0 -0.54049632295E+01  0.65297401605E+01  0.11179977770E+04  0.11180746310E+04  0.10000000000E+02 0. -1.
</event>
<event>
 5    1  0.1106231E-008  0.3690712E+03  0.7957747E-01  0.3500170E+00
         13   -1    0    0    0    0  0.00000000000E+00  0.00000000000E+00  0.14999999963E+04  0.15000000000E+04  0.10566000000E+00 0. -1.
        994   -1    0    0    0    0 -0.00000000000E+00 -0.00000000000E+00  0.11368683772E-12  0.17120000000E+03  0.17120000000E+03 0.  0.
         13    1    1    2    0    0  0.13763516524E+02  0.34516091337E+02  0.65457718751E+02  0.75269642329E+02  0.10566000000E+00 0. -1.
        994    1    1    2    0    0 -0.16381912073E+01 -0.76588679341E+01  0.10662329524E+02  0.17171041669E+03  0.17120000000E+03 0.  0.
        998    1    1    2    0    0 -0.12125325317E+02 -0.26857223403E+02  0.14238799480E+04  0.14242199410E+04  0.10000000000E+02 0. -1.
</event>
<event>
 5    1  0.1106231E-008  0.3827661E+03  0.7957747E-01  0.3439202E+00
         13   -1    0    0    0    0  0.00000000000E+00  0.00000000000E+00  0.14999999963E+04  0.15000000000E+04  0.10566000000E+00 0. -1.
        994   -1    0    0    0    0 -0.00000000000E+00 -0.00000000000E+00  0.11368683772E-12  0.17120000000E+03  0.17120000000E+03 0.  0.
         13    1    1    2    0    0  0.17442273237E+02 -0.32537441514E+01  0.56373680524E+02  0.59100108008E+02  0.10566000000E+00 0. -1.
        994    1    1    2    0    0 -0.13349088417E+02 -0.48719980350E+01  0.34125194411E+01  0.17182264058E+03  0.17120000000E+03 0.  0.
        998    1    1    2    0    0 -0.40931848201E+01  0.81257421864E+01  0.14402137963E+04  0.14402772514E+04  0.10000000000E+02 0. -1.
</event>
<event>
 5    1  0.1106231E-008  0.3832744E+03  0.7957747E-01  0.3437024E+00
         13   -1    0    0    0    0  0.00000000000E+00  0.00000000000E+00  0.14999999963E+04  0.15000000000E+04  0.10566000000E+00 0.  1.
        994   -1    0    0    0    0 -0.00000000000E+00 -0.00000000000E+00  0.11368683772E-12  0.17120000000E+03  0.17120000000E+03 0.  0.
         13    1    1    2    0    0 -0.94490424041E+01  0.34611737964E+01  0.19880079572E+02  0.22282119608E+02  0.10566000000E+00 0.  1.
        994    1    1    2    0    0  0.90282635401E+01  0.25182126725E+02  0.48596449259E+01  0.17334562353E+03  0.17120000000E+03 0.  0.
        998    1    1    2    0    0  0.42077886395E+00 -0.28643300521E+02  0.14752602718E+04  0.14755722569E+04  0.10000000000E+02 0.  1.
</event>
<event>
 5    1  0.1106231E-008  0.3778355E+03  0.7957747E-01  0.3460638E+00
         13   -1    0    0    0    0  0.00000000000E+00  0.00000000000E+00  0.14999999963E+04  0.15000000000E+04  0.10566000000E+00 0. -1.
        994   -1    0    0    0    0 -0.00000000000E+00 -0.00000000000E+00  0.11368683772E-12  0.17120000000E+03  0.17120000000E+03 0.  0.
         13    1    1    2    0    0 -0.16643516610E+02  0.22289197343E+00  0.24724999376E+02  0.29805923642E+02  0.10566000000E+00 0. -1.
        994    1    1    2    0    0  0.53114664402E+01  0.93957443687E+01  0.56220922192E+01  0.17163198889E+03  0.17120000000E+03 0.  0.
        998    1    1    2    0    0  0.11332050170E+02 -0.96186363422E+01  0.14696529047E+04  0.14697620875E+04  0.10000000000E+02 0. -1.
</event>
<event>
 5    1  0.1106231E-008  0.3786497E+03  0.7957747E-01  0.3457059E+00
         13   -1    0    0    0    0  0.00000000000E+00  0.00000000000E+00  0.14999999963E+04  0.15000000000E+04  0.10566000000E+00 0. -1.
        994   -1    0    0    0    0 -0.00000000000E+00 -0.00000000000E+00  0.11368683772E-12  0.17120000000E+03  0.17120000000E+03 0.  0.
         13    1    1    2    0    0 -0.24298914750E+02 -0.14983581304E+02  0.81650148322E+02  0.86496837236E+02  0.10566000000E+00 0. -1.
        994    1    1    2    0    0  0.20637077549E+02  0.67419567942E+01  0.64006520629E+01  0.17268975447E+03  0.17120000000E+03 0.  0.
        998    1    1    2    0    0  0.36618372007E+01  0.82416245093E+01  0.14119491959E+04  0.14120134083E+04  0.10000000000E+02 0. -1.
</event>
<event>
 5    1  0.1106231E-008  0.3856615E+03  0.7957747E-01  0.3426872E+00
         13   -1    0    0    0    0  0.00000000000E+00  0.00000000000E+00  0.14999999963E+04  0.15000000000E+04  0.10566000000E+00 0. -1.
        994   -1    0    0    0    0 -0.00000000000E+00 -0.00000000000E+00  0.11368683772E-12  0.17120000000E+03  0.17120000000E+03 0.  0.
         13    1    1    2    0    0 -0.60692624419E+02 -0.21045942767E+03  0.12253059923E+04  0.12447295093E+04  0.10566000000E+00 0. -1.
        994    1    1    2    0    0  0.65723845636E+02  0.21252495264E+03  0.18529180772E+03  0.33634650791E+03  0.17120000000E+03 0.  0.
        998    1    1    2    0    0 -0.50312212169E+01 -0.20655249661E+01  0.89402196210E+02  0.90123982754E+02  0.10000000000E+02 0.  1.
</event>
<event>
 5    1  0.1106231E-008  0.3823812E+03  0.7957747E-01  0.3440855E+00
         13   -1    0    0    0    0  0.00000000000E+00  0.00000000000E+00  0.14999999963E+04  0.15000000000E+04  0.10566000000E+00 0.  1.
        994   -1    0    0    0    0 -0.00000000000E+00 -0.00000000000E+00  0.11368683772E-12  0.17120000000E+03  0.17120000000E+03 0.  0.
         13    1    1    2    0    0 -0.18256195239E+02  0.21149004210E+02  0.12705589162E+03  0.13009142863E+03  0.10566000000E+00 0.  1.
        994    1    1    2    0    0  0.19226199558E+02 -0.13181795540E+02  0.47403966992E+01  0.17284477963E+03  0.17120000000E+03 0.  0.
        998    1    1    2    0    0 -0.97000431960E+00 -0.79672086701E+01  0.13682037080E+04  0.13682637917E+04  0.10000000000E+02 0.  1.
</event>
<event>
 5    1  0.1106231E-008  0.3707824E+03  0.7957747E-01  0.3492303E+00
         13   -1    0    0    0    0  0.00000000000E+00  0.00000000000E+00  0.14999999963E+04  0.15000000000E+04  0.10566000000E+00 0.  1.
        994   -1    0    0    0    0 -0.00000000000E+00 -0.00000000000E+00  0.11368683772E-12  0.17120000000E+03  0.17120000000E+03 0.  0.
         13    1    1    2    0    0  0.62645400811E+02  0.46096381897E+02  0.34253979878E+03  0.35125894662E+03  0.10566000000E+00 0.  1.
        994    1    1    2    0    0 -0.11564197115E+02 -0.61133242097E+02  0.22329973083E+02  0.18351858664E+03  0.17120000000E+03 0.  0.
        998    1    1    2    0    0 -0.51081203696E+02  0.15036860200E+02  0.11351302244E+04  0.11364224667E+04  0.10000000000E+02 0.  1.
</event>
<event>
 5    1  0.1106231E-008  0.3834824E+03  0.7957747E-01  0.3436134E+00
         13   -1    0    0    0    0  0.00000000000E+00  0.00000000000E+00  0.14999999963E+04  0.15000000000E+04  0.10566000000E+00 0. -1.
        994   -1    0    0    0    0 -0.00000000000E+00 -0.00000000000E+00  0.11368683772E-12  0.17120000000E+03  0.17120000000E+03 0.  0.
         13    1    1    2    0    0 -0.19673910843E+01  0.16360355942E+02  0.53551133172E+02  0.56029161178E+02  0.10566000000E+00 0. -1.
        994    1    1    2    0    0  0.25469104662E+01 -0.20980143823E+02  0.38629917195E+01  0.17254279438E+03  0.17120000000E+03 0.  0.
        998    1    1    2    0    0 -0.57951938190E+00  0.46197878808E+01  0.14425858714E+04  0.14426280444E+04  0.10000000000E+02 0. -1.
</event>
<event>
 5    1  0.1106231E-008  0.3832667E+03  0.7957747E-01  0.3437057E+00
         13   -1    0    0    0    0  0.00000000000E+00  0.00000000000E+00  0.14999999963E+04  0.15000000000E+04  0.10566000000E+00 0. -1.
        994   -1    0    0    0    0 -0.00000000000E+00 -0.00000000000E+00  0.11368683772E-12  0.17120000000E+03  0.17120000000E+03 0.  0.
         13    1    1    2    0    0  0.57495251342E+01  0.20198136855E+02  0.96367721159E+02  0.98629461203E+02  0.10566000000E+00 0. -1.
        994    1    1    2    0    0  0.10603115390E+02 -0.17663220352E+01  0.28753513890E+01  0.17156122404E+03  0.17120000000E+03 0.  0.
        998    1    1    2    0    0 -0.16352640524E+02 -0.18431814820E+02  0.14007569237E+04  0.14010093148E+04  0.10000000000E+02 0. -1.
</event>
<event>
 5    1  0.1106231E-008  0.3842244E+03  0.7957747E-01  0.3432968E+00
         13   -1    0    0    0    0  0.00000000000E+00  0.00000000000E+00  0.14999999963E+04  0.15000000000E+04  0.10566000000E+00 0.  1.
        994   -1    0    0    0    0 -0.00000000000E+00 -0.00000000000E+00  0.11368683772E-12  0.17120000000E+03  0.17120000000E+03 0.  0.
         13    1    1    2    0    0  0.23782042843E+02 -0.50975784974E+01  0.13606181666E+03  0.13821866728E+03  0.10566000000E+00 0.  1.
        994    1    1    2    0    0 -0.23961304612E+02  0.13964820692E+01  0.39173675782E+01  0.17291870937E+03  0.17120000000E+03 0.  0.
        998    1    1    2    0    0  0.17926176924E+00  0.37010964282E+01  0.13600208120E+04  0.13600626234E+04  0.10000000000E+02 0.  1.
</event>
<event>
 5    1  0.1106231E-008  0.3850625E+03  0.7957747E-01  0.3429407E+00
         13   -1    0    0    0    0  0.00000000000E+00  0.00000000000E+00  0.14999999963E+04  0.15000000000E+04  0.10566000000E+00 0. -1.
        994   -1    0    0    0    0 -0.00000000000E+00 -0.00000000000E+00  0.11368683772E-12  0.17120000000E+03  0.17120000000E+03 0.  0.
         13    1    1    2    0    0 -0.10552115983E+02  0.79082869472E+00  0.34662636609E+02  0.36241993632E+02  0.10566000000E+00 0. -1.
        994    1    1    2    0    0  0.94052716292E+01  0.12113095795E+02  0.23727656729E+01  0.17190187969E+03  0.17120000000E+03 0.  0.
        998    1    1    2    0    0  0.11468443536E+01 -0.12903924489E+02  0.14629645940E+04  0.14630561267E+04  0.10000000000E+02 0. -1.
</event>
<event>
 5    1  0.1106231E-008  0.3849696E+03  0.7957747E-01  0.3429801E+00
         13   -1    0    0    0    0  0.00000000000E+00  0.00000000000E+00  0.14999999963E+04  0.15000000000E+04  0.10566000000E+00 0.  1.
        994   -1    0    0    0    0 -0.00000000000E+00 -0.00000000000E+00  0.11368683772E-12  0.17120000000E+03  0.17120000000E+03 0.  0.
         13    1    1    2    0    0 -0.20292866495E+02  0.45152044580E+01  0.12210909060E+03  0.12386617243E+03  0.10566000000E+00 0.  1.
        994    1    1    2    0    0  0.20695144935E+02 -0.61318718990E+01  0.31790321486E+01  0.17258457382E+03  0.17120000000E+03 0.  0.
        998    1    1    2    0    0 -0.40227844066E+00  0.16166674411E+01  0.13747118735E+04  0.13747492537E+04  0.10000000000E+02 0.  0.
</event>
<event>
 5    1  0.1106231E-008  0.3709260E+03  0.7957747E-01  0.3491646E+00
         13   -1    0    0    0    0  0.00000000000E+00  0.00000000000E+00  0.14999999963E+04  0.15000000000E+04  0.10566000000E+00 0. -1.
        994   -1    0    0    0    0 -0.00000000000E+00 -0.00000000000E+00  0.11368683772E-12  0.17120000000E+03  0.17120000000E+03 0.  0.
         13    1    1    2    0    0 -0.71011414292E+02  0.42763232686E+02  0.48492440200E+03  0.49195833345E+03  0.10566000000E+00 0. -1.
        994    1    1    2    0    0  0.19644883164E+02 -0.15084128665E+02  0.10903076336E+02  0.17332561682E+03  0.17120000000E+03 0.  0.
        998    1    1    2    0    0  0.51366531128E+02 -0.27679104021E+02  0.10041725179E+04  0.10059160497E+04  0.10000000000E+02 0. -1.
</event>
<event>
 5    1  0.2601111E-008  0.3863325E+03  0.7957747E-01  0.3424041E+00
         13   -1    0    0    0    0  0.00000000000E+00  0.00000000000E+00  0.14999999963E+04  0.15000000000E+04  0.10566000000E+00 0.  1.
        994   -1    0    0    0    0 -0.00000000000E+00 -0.00000000000E+00  0.11368683772E-12  0.17120000000E+03  0.17120000000E+03 0.  0.
         13    1    1    2    0    0  0.26063880363E+01  0.10419240829E+02  0.60411370113E+02  0.61358769879E+02  0.10566000000E+00 0.  1.
        994    1    1    2    0    0 -0.20612866498E+01 -0.71677042195E+01  0.11521860469E+01  0.17136625228E+03  0.17120000000E+03 0.  0.
        998    1    1    2    0    0 -0.54510138651E+00 -0.32515366093E+01  0.14384364401E+04  0.14384749778E+04  0.10000000000E+02 0.  1.
</event>
<event>
 5    1  0.1106231E-008  0.3822882E+03  0.7957747E-01  0.3441255E+00
         13   -1    0    0    0    0  0.00000000000E+00  0.00000000000E+00  0.14999999963E+04  0.15000000000E+04  0.10566000000E+00 0.  1.
        994   -1    0    0    0    0 -0.00000000000E+00 -0.00000000000E+00  0.11368683772E-12  0.17120000000E+03  0.17120000000E+03 0.  0.
         13    1    1    2    0    0  0.21687049990E+02 -0.14987172726E+00  0.94497863053E+02  0.96954669225E+02  0.10566000000E+00 0.  1.
        994    1    1    2    0    0  0.18712068613E+02  0.10874889556E+02  0.45381218081E+01  0.17262224447E+03  0.17120000000E+03 0.  0.
        998    1    1    2    0    0 -0.40399118603E+02 -0.10725017829E+02  0.14009640114E+04  0.14016230863E+04  0.10000000000E+02 0.  1.
</event>
<event>
 5    1  0.1106231E-008  0.3808086E+03  0.7957747E-01  0.3447645E+00
         13   -1    0    0    0    0  0.00000000000E+00  0.00000000000E+00  0.14999999963E+04  0.15000000000E+04  0.10566000000E+00 0.  1.
        994   -1    0    0    0    0 -0.00000000000E+00 -0.00000000000E+00  0.11368683772E-12  0.17120000000E+03  0.17120000000E+03 0.  0.
         13    1    1    2    0    0 -0.17392504911E+01 -0.24271158208E+02  0.89071337071E+02  0.92335412301E+02  0.10566000000E+00 0.  1.
        994    1    1    2    0    0  0.54778333035E+01 -0.10423959544E+02  0.41879543761E+01  0.17165559866E+03  0.17120000000E+03 0.  0.
        998    1    1    2    0    0 -0.37385828124E+01  0.34695117752E+02  0.14067407048E+04  0.14072089890E+04  0.10000000000E+02 0.  1.
</event>
<event>
 5    1  0.1106231E-008  0.3814808E+03  0.7957747E-01  0.3444736E+00
         13   -1    0    0    0    0  0.00000000000E+00  0.00000000000E+00  0.14999999963E+04  0.15000000000E+04  0.10566000000E+00 0.  1.
        994   -1    0    0    0    0 -0.00000000000E+00 -0.00000000000E+00  0.11368683772E-12  0.17120000000E+03  0.17120000000E+03 0.  0.
         13    1    1    2    0    0 -0.11234554012E+02  0.77859642439E+01  0.25449138887E+02  0.28887822299E+02  0.10566000000E+00 0.  1.
        994    1    1    2    0    0  0.19424612127E+02 -0.63019500842E+01  0.47760639754E+01  0.17247979858E+03  0.17120000000E+03 0.  0.
        998    1    1    2    0    0 -0.81900581147E+01 -0.14840141597E+01  0.14697747934E+04  0.14698323791E+04  0.10000000000E+02 0.  1.
</event>
<event>
 5    1  0.1106231E-008  0.3854428E+03  0.7957747E-01  0.3427796E+00
         13   -1    0    0    0    0  0.00000000000E+00  0.00000000000E+00  0.14999999963E+04  0.15000000000E+04  0.10566000000E+00 0. -1.
        994   -1    0    0    0    0 -0.00000000000E+00 -0.00000000000E+00  0.11368683772E-12  0.17120000000E+03  0.17120000000E+03 0.  0.
         13    1    1    2    0    0 -0.22504497413E+01  0.13006604993E+02  0.61328102813E+02  0.62732636292E+02  0.10566000000E+00 0. -1.
        994    1    1    2    0    0  0.58220819398E+01 -0.96865460654E+01  0.18299870017E+01  0.17158238448E+03  0.17120000000E+03 0.  0.
        998    1    1    2    0    0 -0.35716321985E+01 -0.33200589280E+01  0.14368419065E+04  0.14368849792E+04  0.10000000000E+02 0. -1.
</event>
<event>
 5    1  0.1106231E-008  0.3741480E+03  0.7957747E-01  0.3477042E+00
         13   -1    0    0    0    0  0.00000000000E+00  0.00000000000E+00  0.14999999963E+04  0.15000000000E+04  0.10566000000E+00 0.  1.
        994   -1    0    0    0    0 -0.00000000000E+00 -0.00000000000E+00  0.11368683772E-12  0.17120000000E+03  0.17120000000E+03 0.  0.
         13    1    1    2    0    0 -0.39964476664E+02 -0.11908767365E+02  0.13515502374E+03  0.14144210738E+03  0.10566000000E+00 0.  1.
        994    1    1    2    0    0  0.22233545857E+01 -0.78619850547E+01  0.73444745953E+01  0.17155213616E+03  0.17120000000E+03 0.  0.
        998    1    1    2    0    0  0.37741122078E+02  0.19770752420E+02  0.13575004979E+04  0.13582057565E+04  0.10000000000E+02 0.  1.
</event>
<event>
 5    1  0.1106231E-008  0.3812162E+03  0.7957747E-01  0.3445880E+00
         13   -1    0    0    0    0  0.00000000000E+00  0.00000000000E+00  0.14999999963E+04  0.15000000000E+04  0.10566000000E+00 0. -1.
        994   -1    0    0    0    0 -0.00000000000E+00 -0.00000000000E+00  0.11368683772E-12  0.17120000000E+03  0.17120000000E+03 0.  0.
         13    1    1    2    0    0 -0.30643641148E+02 -0.38662409113E+01  0.12596738455E+03  0.12969878062E+03  0.10566000000E+00 0. -1.
        994    1    1    2    0    0  0.27900430288E+02  0.99977495869E+01  0.64506020235E+01  0.17386615333E+03  0.17120000000E+03 0.  0.
        998    1    1    2    0    0  0.27432108595E+01 -0.61315086756E+01  0.13675820097E+04  0.13676350660E+04  0.10000000000E+02 0. -1.
</event>
<event>
 5    1  0.1106231E-008  0.3791408E+03  0.7957747E-01  0.3454908E+00
         13   -1    0    0    0    0  0.00000000000E+00  0.00000000000E+00  0.14999999963E+04  0.15000000000E+04  0.10566000000E+00 0.  1.
        994   -1    0    0    0    0 -0.00000000000E+00 -0.00000000000E+00  0.11368683772E-12  0.17120000000E+03  0.17120000000E+03 0.  0.
         13    1    1    2    0    0  0.12466649219E+02  0.41825493801E+01  0.16432727274E+02  0.21046537762E+02  0.10566000000E+00 0.  1.
        994    1    1    2    0    0 -0.22443362306E+02 -0.26398134484E+01  0.62813596982E+01  0.17279921472E+03  0.17120000000E+03 0.  0.
        998    1    1    2    0    0  0.99767130869E+01 -0.15427359317E+01  0.14772859093E+04  0.14773542475E+04  0.10000000000E+02 0.  1.
</event>
<event>
 5    1  0.1106231E-008  0.3848625E+03  0.7957747E-01  0.3430255E+00
         13   -1    0    0    0    0  0.00000000000E+00  0.00000000000E+00  0.14999999963E+04  0.15000000000E+04  0.10566000000E+00 0.  1.
        994   -1    0    0    0    0 -0.00000000000E+00 -0.00000000000E+00  0.11368683772E-12  0.17120000000E+03  0.17120000000E+03 0.  0.
         13    1    1    2    0    0 -0.84980078439E+01 -0.13469751008E+02  0.76632362320E+02  0.78269920457E+02  0.10566000000E+00 0.  1.
        994    1    1    2    0    0 -0.22317014945E+01  0.91406992608E+01  0.19897353644E+01  0.17146991550E+03  0.17120000000E+03 0.  0.
        998    1    1    2    0    0  0.10729709338E+02  0.43290517470E+01  0.14213778986E+04  0.14214601640E+04  0.10000000000E+02 0.  1.
</event>
<event>
 5    1  0.1106231E-008  0.3724821E+03  0.7957747E-01  0.3484561E+00
         13   -1    0    0    0    0  0.00000000000E+00  0.00000000000E+00  0.14999999963E+04  0.15000000000E+04  0.10566000000E+00 0.  1.
        994   -1    0    0    0    0 -0.00000000000E+00 -0.00000000000E+00  0.11368683772E-12  0.17120000000E+03  0.17120000000E+03 0.  0.
         13    1    1    2    0    0  0.55075696585E+02 -0.62935436173E+02  0.32805648578E+03  0.33854877124E+03  0.10566000000E+00 0.  1.
        994    1    1    2    0    0 -0.52948656507E+02  0.70307316664E+02  0.35021631601E+02  0.19565948401E+03  0.17120000000E+03 0.  0.
        998    1    1    2    0    0 -0.21270400779E+01 -0.73718804902E+01  0.11369218789E+04  0.11369917447E+04  0.10000000000E+02 0.  1.
</event>
<event>
 5    1  0.1106231E-008  0.3717795E+03  0.7957747E-01  0.3487752E+00
         13   -1    0    0    0    0  0.00000000000E+00  0.00000000000E+00  0.14999999963E+04  0.15000000000E+04  0.10566000000E+00 0. -1.
        994   -1    0    0    0    0 -0.00000000000E+00 -0.00000000000E+00  0.11368683772E-12  0.17120000000E+03  0.17120000000E+03 0.  0.
         13    1    1    2    0    0  0.11116535887E+02 -0.19495312021E+02  0.15742883617E+02  0.27413392886E+02  0.10566000000E+00 0. -1.
        994    1    1    2    0    0 -0.12332944141E+02  0.22462661212E+02  0.14196385811E+02  0.17368837045E+03  0.17120000000E+03 0.  0.
        998    1    1    2    0    0  0.12164082538E+01 -0.29673491915E+01  0.14700607269E+04  0.14700982367E+04  0.10000000000E+02 0. -1.
</event>
<event>
 5    1  0.1106231E-008  0.3846907E+03  0.7957747E-01  0.3430985E+00
         13   -1    0    0    0    0  0.00000000000E+00  0.00000000000E+00  0.14999999963E+04  0.15000000000E+04  0.10566000000E+00 0.  1.
        994   -1    0    0    0    0 -0.00000000000E+00 -0.00000000000E+00  0.11368683772E-12  0.17120000000E+03  0.17120000000E+03 0.  0.
         13    1    1    2    0    0  0.63011051090E+01 -0.89990012256E+01  0.32900288980E+02  0.34686108569E+02  0.10566000000E+00 0.  1.
        994    1    1    2    0    0 -0.45945548412E+01  0.10977420800E+02  0.22501224565E+01  0.17162784376E+03  0.17120000000E+03 0.  0.
        998    1    1    2    0    0 -0.17065502679E+01 -0.19784195748E+01  0.14648495848E+04  0.14648860477E+04  0.10000000000E+02 0.  1.
</event>
<event>
 5    1  0.1106231E-008  0.4091031E+03  0.7957747E-01  0.3333467E+00
         13   -1    0    0    0    0  0.00000000000E+00  0.00000000000E+00  0.14999999963E+04  0.15000000000E+04  0.10566000000E+00 0. -1.
        994   -1    0    0    0    0 -0.00000000000E+00 -0.00000000000E+00  0.11368683772E-12  0.17120000000E+03  0.17120000000E+03 0.  0.
         13    1    1    2    0    0  0.92305088826E+01 -0.13990444368E+03  0.24502319944E+03  0.28230273658E+03  0.10566000000E+00 0. -1.
        994    1    1    2    0    0  0.11358372044E+02  0.12931813718E+03  0.10588213261E+03  0.23952590512E+03  0.17120000000E+03 0.  0.
        998    1    1    2    0    0 -0.20588880927E+02  0.10586306496E+02  0.11490946642E+04  0.11493713583E+04  0.10000000000E+02 0. -1.
</event>
<event>
 5    1  0.1106231E-008  0.3745137E+03  0.7957747E-01  0.3475401E+00
         13   -1    0    0    0    0  0.00000000000E+00  0.00000000000E+00  0.14999999963E+04  0.15000000000E+04  0.10566000000E+00 0.  1.
        994   -1    0    0    0    0 -0.00000000000E+00 -0.00000000000E+00  0.11368683772E-12  0.17120000000E+03  0.17120000000E+03 0.  0.
         13    1    1    2    0    0  0.37297983714E+02 -0.32245821033E+02  0.16335661935E+03  0.17063507498E+03  0.10566000000E+00 0.  1.
        994    1    1    2    0    0 -0.27008622292E+02  0.29961560083E+02  0.12489029064E+02  0.17633087253E+03  0.17120000000E+03 0.  0.
        998    1    1    2    0    0 -0.10289361422E+02  0.22842609493E+01  0.13241543479E+04  0.13242340525E+04  0.10000000000E+02 0.  1.
</event>
<event>
 5    1  0.1106231E-008  0.2102393E+03  0.7957747E-01  0.4860662E+00
         13   -1    0    0    0    0  0.00000000000E+00  0.00000000000E+00  0.14999999963E+04  0.15000000000E+04  0.10566000000E+00 0. -1.
        994   -1    0    0    0    0 -0.00000000000E+00 -0.00000000000E+00  0.11368683772E-12  0.17120000000E+03  0.17120000000E+03 0.  0.
         13    1    1    2    0    0  0.99508953416E+02 -0.66707066871E+02  0.69998863980E+02  0.13875055569E+03  0.10566000000E+00 0. -1.
        994    1    1    2    0    0 -0.10588455618E+03  0.46185678145E+02  0.15750940885E+03  0.25973700156E+03  0.17120000000E+03 0.  0.
        998    1    1    2    0    0  0.63756027604E+01  0.20521388726E+02  0.12724917234E+04  0.12727124428E+04  0.10000000000E+02 0. -1.
</event>
<event>
 5    1  0.1106231E-008  0.3808682E+03  0.7957747E-01  0.3447387E+00
         13   -1    0    0    0    0  0.00000000000E+00  0.00000000000E+00  0.14999999963E+04  0.15000000000E+04  0.10566000000E+00 0. -1.
        994   -1    0    0    0    0 -0.00000000000E+00 -0.00000000000E+00  0.11368683772E-12  0.17120000000E+03  0.17120000000E+03 0.  0.
         13    1    1    2    0    0 -0.33179786250E+01 -0.25953170366E+02  0.10465870731E+03  0.10787971178E+03  0.10566000000E+00 0. -1.
        994    1    1    2    0    0 -0.76212030916E+01 -0.71120855137E+01  0.40578411130E+01  0.17156506221E+03  0.17120000000E+03 0.  0.
        998    1    1    2    0    0  0.10939181717E+02  0.33065255880E+02  0.13912834479E+04  0.13917552260E+04  0.10000000000E+02 0. -1.
</event>
<event>
 5    1  0.1106231E-008  0.3707780E+03  0.7957747E-01  0.3492323E+00
         13   -1    0    0    0    0  0.00000000000E+00  0.00000000000E+00  0.14999999963E+04  0.15000000000E+04  0.10566000000E+00 0.  1.
        994   -1    0    0    0    0 -0.00000000000E+00 -0.00000000000E+00  0.11368683772E-12  0.17120000000E+03  0.17120000000E+03 0.  0.
         13    1    1    2    0    0  0.12940704331E+03 -0.35472002331E+02  0.44998314355E+03  0.46956286741E+03  0.10566000000E+00 0.  1.
        994    1    1    2    0    0 -0.15714933249E+03  0.72543324732E+01  0.10393819668E+03  0.25467847724E+03  0.17120000000E+03 0.  0.
        998    1    1    2    0    0  0.27742289176E+02  0.28217669858E+02  0.94607865605E+03  0.94695865534E+03  0.10000000000E+02 0.  1.
</event>
<event>
 5    1  0.1106231E-008  0.3878951E+03  0.7957747E-01  0.3417486E+00
         13   -1    0    0    0    0  0.00000000000E+00  0.00000000000E+00  0.14999999963E+04  0.15000000000E+04  0.10566000000E+00 0.  1.
        994   -1    0    0    0    0 -0.00000000000E+00 -0.00000000000E+00  0.11368683772E-12  0.17120000000E+03  0.17120000000E+03 0.  0.
         13    1    1    2    0    0 -0.84907603382E+02 -0.34058146210E+02  0.17832493254E+03  0.20042218232E+03  0.10566000000E+00 0.  1.
        994    1    1    2    0    0  0.72258824196E+02  0.42717819930E+02  0.47536468429E+02  0.19650777502E+03  0.17120000000E+03 0.  0.
        998    1    1    2    0    0  0.12648779186E+02 -0.86596737194E+01  0.12741385953E+04  0.12742700427E+04  0.10000000000E+02 0.  1.
</event>
<event>
 5    1  0.1106231E-008  0.3788935E+03  0.7957747E-01  0.3455991E+00
         13   -1    0    0    0    0  0.00000000000E+00  0.00000000000E+00  0.14999999963E+04  0.15000000000E+04  0.10566000000E+00 0.  1.
        994   -1    0    0    0    0 -0.00000000000E+00 -0.00000000000E+00  0.11368683772E-12  0.17120000000E+03  0.17120000000E+03 0.  0.
         13    1    1    2    0    0  0.67115595801E+02 -0.21712527678E+02  0.32197988395E+03  0.32961643450E+03  0.10566000000E+00 0.  1.
        994    1    1    2    0    0 -0.83508298657E+02  0.70904752318E+02  0.46074511116E+02  0.20840686270E+03  0.17120000000E+03 0.  0.
        998    1    1    2    0    0  0.16392702856E+02 -0.49192224639E+02  0.11319456012E+04  0.11331767028E+04  0.10000000000E+02 0.  1.
</event>
<event>
 5    1  0.1106231E-008  0.3814035E+03  0.7957747E-01  0.3445070E+00
         13   -1    0    0    0    0  0.00000000000E+00  0.00000000000E+00  0.14999999963E+04  0.15000000000E+04  0.10566000000E+00 0.  1.
        994   -1    0    0    0    0 -0.00000000000E+00 -0.00000000000E+00  0.11368683772E-12  0.17120000000E+03  0.17120000000E+03 0.  0.
         13    1    1    2    0    0  0.97798950385E+01  0.27188062074E+02  0.11234274277E+03  0.11599887967E+03  0.10566000000E+00 0.  1.
        994    1    1    2    0    0 -0.75506370444E+01 -0.28814937685E+02  0.63844612773E+01  0.17388937316E+03  0.17120000000E+03 0.  0.
        998    1    1    2    0    0 -0.22292579942E+01  0.16268756106E+01  0.13812727922E+04  0.13813117472E+04  0.10000000000E+02 0.  1.
</event>
<event>
 5    1  0.1106231E-008  0.3702929E+03  0.7957747E-01  0.3494546E+00
         13   -1    0    0    0    0  0.00000000000E+00  0.00000000000E+00  0.14999999963E+04  0.15000000000E+04  0.10566000000E+00 0.  1.
        994   -1    0    0    0    0 -0.00000000000E+00 -0.00000000000E+00  0.11368683772E-12  0.17120000000E+03  0.17120000000E+03 0.  0.
         13    1    1    2    0    0 -0.36508051461E+02 -0.63797038660E+02  0.22895142113E+03  0.24046135732E+03  0.10566000000E+00 0.  1.
        994    1    1    2    0    0  0.32790644472E+02  0.41707863075E+02  0.21010119342E+02  0.18045951713E+03  0.17120000000E+03 0.  0.
        998    1    1    2    0    0  0.37174069886E+01  0.22089175585E+02  0.12500384558E+04  0.12502791255E+04  0.10000000000E+02 0.  1.
</event>
<event>
 5    1  0.1106231E-008  0.3855943E+03  0.7957747E-01  0.3427155E+00
         13   -1    0    0    0    0  0.00000000000E+00  0.00000000000E+00  0.14999999963E+04  0.15000000000E+04  0.10566000000E+00 0.  1.
        994   -1    0    0    0    0 -0.00000000000E+00 -0.00000000000E+00  0.11368683772E-12  0.17120000000E+03  0.17120000000E+03 0.  0.
         13    1    1    2    0    0  0.16015616120E+02 -0.26749513367E+01  0.79517460117E+02  0.81158443504E+02  0.10566000000E+00 0.  1.
        994    1    1    2    0    0 -0.44206428561E+02 -0.14098261869E+02  0.84342289623E+01  0.17757687218E+03  0.17120000000E+03 0.  0.
        998    1    1    2    0    0  0.28190812442E+02  0.16773213205E+02  0.14120483072E+04  0.14124646843E+04  0.10000000000E+02 0.  1.
</event>
<event>
 5    1  0.1106231E-008  0.3860937E+03  0.7957747E-01  0.3425047E+00
         13   -1    0    0    0    0  0.00000000000E+00  0.00000000000E+00  0.14999999963E+04  0.15000000000E+04  0.10566000000E+00 0. -1.
        994   -1    0    0    0    0 -0.00000000000E+00 -0.00000000000E+00  0.11368683772E-12  0.17120000000E+03  0.17120000000E+03 0.  0.
         13    1    1    2    0    0 -0.10226093280E+03 -0.75109345079E+02  0.41858226813E+03  0.43738980150E+03  0.10566000000E+00 0. -1.
        994    1    1    2    0    0  0.99706299641E+02 -0.11478106754E+02  0.58095185432E+02  0.20677906977E+03  0.17120000000E+03 0.  0.
        998    1    1    2    0    0  0.25546331637E+01  0.86587451834E+02  0.10233225427E+04  0.10270311287E+04  0.10000000000E+02 0. -1.
</event>
<event>
 5    1  0.1106231E-008  0.3825904E+03  0.7957747E-01  0.3439956E+00
         13   -1    0    0    0    0  0.00000000000E+00  0.00000000000E+00  0.14999999963E+04  0.15000000000E+04  0.10566000000E+00 0.  1.
        994   -1    0    0    0    0 -0.00000000000E+00 -0.00000000000E+00  0.11368683772E-12  0.17120000000E+03  0.17120000000E+03 0.  0.
         13    1    1    2    0    0 -0.26754621120E+02  0.66789465425E+01  0.12951377744E+03  0.13241694676E+03  0.10566000000E+00 0.  1.
        994    1    1    2    0    0  0.18391174953E+02 -0.12947529101E+02  0.45097506735E+01  0.17272999646E+03  0.17120000000E+03 0.  0.
        998    1    1    2    0    0  0.83634461671E+01  0.62685825584E+01  0.13659764682E+04  0.13660530568E+04  0.10000000000E+02 0.  1.
</event>
<event>
 5    1  0.1106231E-008  0.3766699E+03  0.7957747E-01  0.3465788E+00
         13   -1    0    0    0    0  0.00000000000E+00  0.00000000000E+00  0.14999999963E+04  0.15000000000E+04  0.10566000000E+00 0. -1.
        994   -1    0    0    0    0 -0.00000000000E+00 -0.00000000000E+00  0.11368683772E-12  0.17120000000E+03  0.17120000000E+03 0.  0.
         13    1    1    2    0    0 -0.50623667607E+02 -0.90176241168E+01  0.26937427146E+03  0.27423818580E+03  0.10566000000E+00 0. -1.
        994    1    1    2    0    0  0.56559163316E+01  0.38524630320E+01  0.59820173172E+01  0.17144111348E+03  0.17120000000E+03 0.  0.
        998    1    1    2    0    0  0.44967751276E+02  0.51651610848E+01  0.12246437075E+04  0.12255207007E+04  0.10000000000E+02 0. -1.
</event>
<event>
 5    1  0.1106231E-008  0.3716693E+03  0.7957747E-01  0.3488254E+00
         13   -1    0    0    0    0  0.00000000000E+00  0.00000000000E+00  0.14999999963E+04  0.15000000000E+04  0.10566000000E+00 0.  1.
        994   -1    0    0    0    0 -0.00000000000E+00 -0.00000000000E+00  0.11368683772E-12  0.17120000000E+03  0.17120000000E+03 0.  0.
         13    1    1    2    0    0  0.42075672174E+02  0.28019500236E+02  0.14114818185E+03  0.14992756580E+03  0.10566000000E+00 0.  1.
        994    1    1    2    0    0 -0.35196072055E+02 -0.24258849194E+02  0.14707220438E+02  0.17706777681E+03  0.17120000000E+03 0.  0.
        998    1    1    2    0    0 -0.68796001197E+01 -0.37606510426E+01  0.13441445940E+04  0.13442046574E+04  0.10000000000E+02 0.  1.
</event>
<event>
 5    1  0.1106231E-008  0.3842769E+03  0.7957747E-01  0.3432745E+00
         13   -1    0    0    0    0  0.00000000000E+00  0.00000000000E+00  0.14999999963E+04  0.15000000000E+04  0.10566000000E+00 0. -1.
        994   -1    0    0    0    0 -0.00000000000E+00 -0.00000000000E+00  0.11368683772E-12  0.17120000000E+03  0.17120000000E+03 0.  0.
         13    1    1    2    0    0 -0.12044095474E+02  0.30086287412E+01  0.38717155742E+02  0.40658841541E+02  0.10566000000E+00 0. -1.
        994    1    1    2    0    0  0.52129908869E+01 -0.38365015522E+01  0.21276945421E+01  0.17133552201E+03  0.17120000000E+03 0.  0.
        998    1    1    2    0    0  0.68311045870E+01  0.82787281097E+00  0.14591551460E+04  0.14592056364E+04  0.10000000000E+02 0. -1.
</event>
<event>
 5    1  0.1106231E-008  0.3836880E+03  0.7957747E-01  0.3435256E+00
         13   -1    0    0    0    0  0.00000000000E+00  0.00000000000E+00  0.14999999963E+04  0.15000000000E+04  0.10566000000E+00 0. -1.
        994   -1    0    0    0    0 -0.00000000000E+00 -0.00000000000E+00  0.11368683772E-12  0.17120000000E+03  0.17120000000E+03 0.  0.
         13    1    1    2    0    0 -0.16306611224E+02  0.13021598071E+02  0.10370827402E+03  0.10578697864E+03  0.10566000000E+00 0. -1.
        994    1    1    2    0    0  0.59573036781E+01  0.69487119530E+01  0.25596570429E+01  0.17146359937E+03  0.17120000000E+03 0.  0.
        998    1    1    2    0    0  0.10349307546E+02 -0.19970310024E+02  0.13937320652E+04  0.13939494220E+04  0.10000000000E+02 0. -1.
</event>
<event>
 5    1  0.1106231E-008  0.3738651E+03  0.7957747E-01  0.3478314E+00
         13   -1    0    0    0    0  0.00000000000E+00  0.00000000000E+00  0.14999999963E+04  0.15000000000E+04  0.10566000000E+00 0.  1.
        994   -1    0    0    0    0 -0.00000000000E+00 -0.00000000000E+00  0.11368683772E-12  0.17120000000E+03  0.17120000000E+03 0.  0.
         13    1    1    2    0    0 -0.56455604361E+01  0.13706746904E+02  0.11692733225E+02  0.18880636579E+02  0.10566000000E+00 0.  1.
        994    1    1    2    0    0  0.10601498708E+02 -0.15397475593E+02  0.84560619107E+01  0.17242511132E+03  0.17120000000E+03 0.  0.
        998    1    1    2    0    0 -0.49559382722E+01  0.16907286896E+01  0.14798512011E+04  0.14798942521E+04  0.10000000000E+02 0.  1.
</event>
<event>
 5    1  0.1106231E-008  0.3815513E+03  0.7957747E-01  0.3444431E+00
         13   -1    0    0    0    0  0.00000000000E+00  0.00000000000E+00  0.14999999963E+04  0.15000000000E+04  0.10566000000E+00 0.  1.
        994   -1    0    0    0    0 -0.00000000000E+00 -0.00000000000E+00  0.11368683772E-12  0.17120000000E+03  0.17120000000E+03 0.  0.
         13    1    1    2    0    0  0.16872000134E+02  0.43798444922E+01  0.43222734521E+02  0.46605400651E+02  0.10566000000E+00 0.  1.
        994    1    1    2    0    0 -0.17955215716E+02  0.16892873467E+01  0.44345544474E+01  0.17220438071E+03  0.17120000000E+03 0.  0.
        998    1    1    2    0    0  0.10832155822E+01 -0.60691318389E+01  0.14523427073E+04  0.14523902186E+04  0.10000000000E+02 0.  1.
</event>
<event>
 5    1  0.1106231E-008  0.3850897E+03  0.7957747E-01  0.3429292E+00
         13   -1    0    0    0    0  0.00000000000E+00  0.00000000000E+00  0.14999999963E+04  0.15000000000E+04  0.10566000000E+00 0.  1.
        994   -1    0    0    0    0 -0.00000000000E+00 -0.00000000000E+00  0.11368683772E-12  0.17120000000E+03  0.17120000000E+03 0.  0.
         13    1    1    2    0    0  0.91722334701E+02 -0.68904755102E+02  0.48695816470E+03  0.50028903375E+03  0.10566000000E+00 0.  1.
        994    1    1    2    0    0 -0.40852114502E+02 -0.22440912484E+02  0.27217124581E+02  0.17950682907E+03  0.17120000000E+03 0.  0.
        998    1    1    2    0    0 -0.50870220199E+02  0.91345667586E+02  0.98582470699E+03  0.99140413717E+03  0.10000000000E+02 0.  1.
</event>
<event>
 5    1  0.1106231E-008  0.3808985E+03  0.7957747E-01  0.3447255E+00
         13   -1    0    0    0    0  0.00000000000E+00  0.00000000000E+00  0.14999999963E+04  0.15000000000E+04  0.10566000000E+00 0. -1.
        994   -1    0    0    0    0 -0.00000000000E+00 -0.00000000000E+00  0.11368683772E-12  0.17120000000E+03  0.17120000000E+03 0.  0.
         13    1    1    2    0    0  0.26147383806E+01  0.19413393645E+03  0.96913881876E+03  0.98839510487E+03  0.10566000000E+00 0. -1.
        994    1    1    2    0    0  0.14174708974E+02 -0.20672066193E+03  0.16328169268E+03  0.31449118527E+03  0.17120000000E+03 0.  0.
        998    1    1    2    0    0 -0.16789447355E+02  0.12586725485E+02  0.36757948483E+03  0.36831370986E+03  0.10000000000E+02 0. -1.
</event>
<event>
 5    1  0.1106231E-008  0.3836306E+03  0.7957747E-01  0.3435501E+00
         13   -1    0    0    0    0  0.00000000000E+00  0.00000000000E+00  0.14999999963E+04  0.15000000000E+04  0.10566000000E+00 0.  1.
        994   -1    0    0    0    0 -0.00000000000E+00 -0.00000000000E+00  0.11368683772E-12  0.17120000000E+03  0.17120000000E+03 0.  0.
         13    1    1    2    0    0 -0.45412868630E+01 -0.14732221337E+02  0.48997324388E+02  0.51365461091E+02  0.10566000000E+00 0.  1.
        994    1    1    2    0    0  0.13025837873E+01  0.18378096593E+02  0.34336533589E+01  0.17222276602E+03  0.17120000000E+03 0.  0.
        998    1    1    2    0    0  0.32387030757E+01 -0.36458752567E+01  0.14475690185E+04  0.14476117729E+04  0.10000000000E+02 0.  1.
</event>
<event>
 5    1  0.1106231E-008  0.3836841E+03  0.7957747E-01  0.3435272E+00
         13   -1    0    0    0    0  0.00000000000E+00  0.00000000000E+00  0.14999999963E+04  0.15000000000E+04  0.10566000000E+00 0.  1.
        994   -1    0    0    0    0 -0.00000000000E+00 -0.00000000000E+00  0.11368683772E-12  0.17120000000E+03  0.17120000000E+03 0.  0.
         13    1    1    2    0    0 -0.69626348155E+01 -0.21880655435E+02  0.10597823654E+03  0.10843725905E+03  0.10566000000E+00 0.  1.
        994    1    1    2    0    0  0.13124933619E+02  0.23128728691E+02  0.46240419377E+01  0.17331481107E+03  0.17120000000E+03 0.  0.
        998    1    1    2    0    0 -0.61622988036E+01 -0.12480732556E+01  0.13893977178E+04  0.13894479299E+04  0.10000000000E+02 0.  1.
</event>
<event>
 5    1  0.1106231E-008  0.3835773E+03  0.7957747E-01  0.3435728E+00
         13   -1    0    0    0    0  0.00000000000E+00  0.00000000000E+00  0.14999999963E+04  0.15000000000E+04  0.10566000000E+00 0. -1.
        994   -1    0    0    0    0 -0.00000000000E+00 -0.00000000000E+00  0.11368683772E-12  0.17120000000E+03  0.17120000000E+03 0.  0.
         13    1    1    2    0    0 -0.12532514410E+01 -0.27608691603E+02  0.15346853046E+03  0.15593720370E+03  0.10566000000E+00 0. -1.
        994    1    1    2    0    0  0.81386877063E+01  0.23401218650E+02  0.43688501492E+01  0.17303867234E+03  0.17120000000E+03 0.  0.
        998    1    1    2    0    0 -0.68854362653E+01  0.42074729526E+01  0.13421626157E+04  0.13422241240E+04  0.10000000000E+02 0. -1.
</event>
<event>
 5    1  0.1106231E-008  0.3853426E+03  0.7957747E-01  0.3428221E+00
         13   -1    0    0    0    0  0.00000000000E+00  0.00000000000E+00  0.14999999963E+04  0.15000000000E+04  0.10566000000E+00 0.  1.
        994   -1    0    0    0    0 -0.00000000000E+00 -0.00000000000E+00  0.11368683772E-12  0.17120000000E+03  0.17120000000E+03 0.  0.
         13    1    1    2    0    0  0.41367678099E+02  0.22251832860E+02  0.52044392555E+02  0.70107480466E+02  0.10566000000E+00 0.  1.
        994    1    1    2    0    0 -0.17448679126E+02 -0.92436415239E+01  0.20735774377E+02  0.17357797571E+03  0.17120000000E+03 0.  0.
        998    1    1    2    0    0 -0.23918998973E+02 -0.13008191336E+02  0.14272198293E+04  0.14275145438E+04  0.10000000000E+02 0.  1.
</event>
<event>
 5    1  0.1223618E-008  0.3857659E+03  0.7957747E-01  0.3426430E+00
         13   -1    0    0    0    0  0.00000000000E+00  0.00000000000E+00  0.14999999963E+04  0.15000000000E+04  0.10566000000E+00 0. -1.
        994   -1    0    0    0    0 -0.00000000000E+00 -0.00000000000E+00  0.11368683772E-12  0.17120000000E+03  0.17120000000E+03 0.  0.
         13    1    1    2    0    0 -0.10352197788E+02 -0.14706830888E+01  0.42857511913E+02  0.44114718623E+02  0.10566000000E+00 0. -1.
        994    1    1    2    0    0  0.11340417839E+02  0.36935359574E+01  0.17171189357E+01  0.17162352922E+03  0.17120000000E+03 0.  0.
        998    1    1    2    0    0 -0.98822005129E+00 -0.22228528686E+01  0.14554253654E+04  0.14554617522E+04  0.10000000000E+02 0. -1.
</event>
<event>
 5    1  0.1106231E-008  0.3822565E+03  0.7957747E-01  0.3441392E+00
         13   -1    0    0    0    0  0.00000000000E+00  0.00000000000E+00  0.14999999963E+04  0.15000000000E+04  0.10566000000E+00 0. -1.
        994   -1    0    0    0    0 -0.00000000000E+00 -0.00000000000E+00  0.11368683772E-12  0.17120000000E+03  0.17120000000E+03 0.  0.
         13    1    1    2    0    0 -0.26462710355E+02 -0.10860974966E+02  0.12114962829E+03  0.12448083955E+03  0.10566000000E+00 0. -1.
        994    1    1    2    0    0  0.29188982866E+02  0.20281023024E+02  0.72016289578E+01  0.17499891450E+03  0.17120000000E+03 0.  0.
        998    1    1    2    0    0 -0.27262725108E+01 -0.94200480579E+01  0.13716487390E+04  0.13717202460E+04  0.10000000000E+02 0. -1.
</event>
<event>
 5    1  0.1106231E-008  0.3805510E+03  0.7957747E-01  0.3448763E+00
         13   -1    0    0    0    0  0.00000000000E+00  0.00000000000E+00  0.14999999963E+04  0.15000000000E+04  0.10566000000E+00 0.  1.
        994   -1    0    0    0    0 -0.00000000000E+00 -0.00000000000E+00  0.11368683772E-12  0.17120000000E+03  0.17120000000E+03 0.  0.
         13    1    1    2    0    0 -0.62556151236E+01 -0.14562779730E+02  0.32768986667E+02  0.36400891819E+02  0.10566000000E+00 0.  1.
        994    1    1    2    0    0 -0.99152178097E+00 -0.56023217619E+01  0.39633058752E+01  0.17134035403E+03  0.17120000000E+03 0.  0.
        998    1    1    2    0    0  0.72471369046E+01  0.20165101491E+02  0.14632677037E+04  0.14634587542E+04  0.10000000000E+02 0.  1.
</event>
<event>
 5    1  0.1106231E-008  0.3967818E+03  0.7957747E-01  0.3381191E+00
         13   -1    0    0    0    0  0.00000000000E+00  0.00000000000E+00  0.14999999963E+04  0.15000000000E+04  0.10566000000E+00 0. -1.
        994   -1    0    0    0    0 -0.00000000000E+00 -0.00000000000E+00  0.11368683772E-12  0.17120000000E+03  0.17120000000E+03 0.  0.
         13    1    1    2    0    0 -0.11216521090E+03 -0.70638248207E+02  0.49411644705E+03  0.51158759862E+03  0.10566000000E+00 0. -1.
        994    1    1    2    0    0  0.18465393667E+02  0.66275439208E+01  0.27358452381E+02  0.17447870936E+03  0.17120000000E+03 0.  0.
        998    1    1    2    0    0  0.93699817236E+02  0.64010704286E+02  0.97852509684E+03  0.98513369203E+03  0.10000000000E+02 0.  1.
</event>
<event>
 5    1  0.1106231E-008  0.3736140E+03  0.7957747E-01  0.3479445E+00
         13   -1    0    0    0    0  0.00000000000E+00  0.00000000000E+00  0.14999999963E+04  0.15000000000E+04  0.10566000000E+00 0.  1.
        994   -1    0    0    0    0 -0.00000000000E+00 -0.00000000000E+00  0.11368683772E-12  0.17120000000E+03  0.17120000000E+03 0.  0.
         13    1    1    2    0    0  0.20032296471E+02 -0.43006699512E+02  0.16674039843E+03  0.17335870539E+03  0.10566000000E+00 0.  1.
        994    1    1    2    0    0  0.10019377493E+02  0.13298713771E+02  0.83395773472E+01  0.17220984950E+03  0.17120000000E+03 0.  0.
        998    1    1    2    0    0 -0.30051673964E+02  0.29707985742E+02  0.13249200205E+04  0.13256314451E+04  0.10000000000E+02 0.  1.
</event>
<event>
 5    1  0.1106231E-008  0.3850807E+03  0.7957747E-01  0.3429330E+00
         13   -1    0    0    0    0  0.00000000000E+00  0.00000000000E+00  0.14999999963E+04  0.15000000000E+04  0.10566000000E+00 0.  1.
        994   -1    0    0    0    0 -0.00000000000E+00 -0.00000000000E+00  0.11368683772E-12  0.17120000000E+03  0.17120000000E+03 0.  0.
         13    1    1    2    0    0 -0.77412305584E+01 -0.80323820580E+01  0.39061467813E+02  0.40623333736E+02  0.10566000000E+00 0.  1.
        994    1    1    2    0    0  0.35711436535E+01  0.68033759686E+01  0.17842326187E+01  0.17138162818E+03  0.17120000000E+03 0.  0.
        998    1    1    2    0    0  0.41700869049E+01  0.12290060894E+01  0.14591542958E+04  0.14591950381E+04  0.10000000000E+02 0.  1.
</event>
<event>
 5    1  0.1106231E-008  0.3776822E+03  0.7957747E-01  0.3461313E+00
         13   -1    0    0    0    0  0.00000000000E+00  0.00000000000E+00  0.14999999963E+04  0.15000000000E+04  0.10566000000E+00 0. -1.
        994   -1    0    0    0    0 -0.00000000000E+00 -0.00000000000E+00  0.11368683772E-12  0.17120000000E+03  0.17120000000E+03 0.  0.
         13    1    1    2    0    0  0.16137916777E+02  0.17577283929E+02  0.52160448459E+02  0.57359539884E+02  0.10566000000E+00 0. -1.
        994    1    1    2    0    0 -0.11357312521E+02 -0.64685086285E+01  0.58834427658E+01  0.17179896697E+03  0.17120000000E+03 0.  0.
        998    1    1    2    0    0 -0.47806042564E+01 -0.11108775301E+02  0.14419561051E+04  0.14420414932E+04  0.10000000000E+02 0. -1.
</event>
<event>
 5    1  0.1106231E-008  0.3727139E+03  0.7957747E-01  0.3483510E+00
         13   -1    0    0    0    0  0.00000000000E+00  0.00000000000E+00  0.14999999963E+04  0.15000000000E+04  0.10566000000E+00 0.  1.
        994   -1    0    0    0    0 -0.00000000000E+00 -0.00000000000E+00  0.11368683772E-12  0.17120000000E+03  0.17120000000E+03 0.  0.
         13    1    1    2    0    0 -0.46269384255E+02 -0.22964619926E+02  0.12915566722E+03  0.13910221863E+03  0.10566000000E+00 0.  1.
        994    1    1    2    0    0 -0.31926753814E+02  0.76566213180E+01  0.16195233648E+02  0.17507046311E+03  0.17120000000E+03 0.  0.
        998    1    1    2    0    0  0.78196138069E+02  0.15307998608E+02  0.13546490954E+04  0.13570273183E+04  0.10000000000E+02 0.  1.
</event>
<event>
 5    1  0.1106231E-008  0.3837896E+03  0.7957747E-01  0.3434822E+00
         13   -1    0    0    0    0  0.00000000000E+00  0.00000000000E+00  0.14999999963E+04  0.15000000000E+04  0.10566000000E+00 0. -1.
        994   -1    0    0    0    0 -0.00000000000E+00 -0.00000000000E+00  0.11368683772E-12  0.17120000000E+03  0.17120000000E+03 0.  0.
         13    1    1    2    0    0 -0.11206120537E+02 -0.51665876006E+01  0.32740833409E+02  0.34989199780E+02  0.10566000000E+00 0. -1.
        994    1    1    2    0    0  0.96839354547E+01  0.12305637633E+02  0.30422725636E+01  0.17194156782E+03  0.17120000000E+03 0.  0.
        998    1    1    2    0    0  0.15221850821E+01 -0.71390500325E+01  0.14642168903E+04  0.14642692324E+04  0.10000000000E+02 0. -1.
</event>
<event>
 5    1  0.1106231E-008  0.3844497E+03  0.7957747E-01  0.3432009E+00
         13   -1    0    0    0    0  0.00000000000E+00  0.00000000000E+00  0.14999999963E+04  0.15000000000E+04  0.10566000000E+00 0.  1.
        994   -1    0    0    0    0 -0.00000000000E+00 -0.00000000000E+00  0.11368683772E-12  0.17120000000E+03  0.17120000000E+03 0.  0.
         13    1    1    2    0    0  0.18968522229E+02 -0.86100221651E+01  0.11718400360E+03  0.11902117114E+03  0.10566000000E+00 0.  1.
        994    1    1    2    0    0 -0.10654828649E+02 -0.96857977409E+00  0.22807752528E+01  0.17154913423E+03  0.17120000000E+03 0.  0.
        998    1    1    2    0    0 -0.83136935800E+01  0.95786019392E+01  0.13805352174E+04  0.13806296946E+04  0.10000000000E+02 0.  1.
</event>
<event>
 5    1  0.1106231E-008  0.3698783E+03  0.7957747E-01  0.3496450E+00
         13   -1    0    0    0    0  0.00000000000E+00  0.00000000000E+00  0.14999999963E+04  0.15000000000E+04  0.10566000000E+00 0.  1.
        994   -1    0    0    0    0 -0.00000000000E+00 -0.00000000000E+00  0.11368683772E-12  0.17120000000E+03  0.17120000000E+03 0.  0.
         13    1    1    2    0    0 -0.30190907301E+02  0.84112912828E+00  0.44611022746E+02  0.53873489736E+02  0.10566000000E+00 0.  1.
        994    1    1    2    0    0  0.25693256950E+02  0.21934899095E+02  0.13290754075E+02  0.17500676385E+03  0.17120000000E+03 0.  0.
        998    1    1    2    0    0  0.44976503513E+01 -0.22776028223E+02  0.14420982195E+04  0.14423197464E+04  0.10000000000E+02 0.  1.
</event>
<event>
 5    1  0.1106231E-008  0.3857546E+03  0.7957747E-01  0.3426478E+00
         13   -1    0    0    0    0  0.00000000000E+00  0.00000000000E+00  0.14999999963E+04  0.15000000000E+04  0.10566000000E+00 0. -1.
        994   -1    0    0    0    0 -0.00000000000E+00 -0.00000000000E+00  0.11368683772E-12  0.17120000000E+03  0.17120000000E+03 0.  0.
         13    1    1    2    0    0 -0.29106239033E+00  0.10095425454E+02  0.41183924153E+02  0.42404352431E+02  0.10566000000E+00 0. -1.
        994    1    1    2    0    0 -0.42275336195E+02 -0.86582753385E+01  0.73889994153E+01  0.17670938598E+03  0.17120000000E+03 0.  0.
        998    1    1    2    0    0  0.42566398586E+02 -0.14371501158E+01  0.14514270727E+04  0.14520862616E+04  0.10000000000E+02 0. -1.
</event>
<event>
 5    1  0.1106231E-008  0.3839002E+03  0.7957747E-01  0.3434350E+00
         13   -1    0    0    0    0  0.00000000000E+00  0.00000000000E+00  0.14999999963E+04  0.15000000000E+04  0.10566000000E+00 0.  1.
        994   -1    0    0    0    0 -0.00000000000E+00 -0.00000000000E+00  0.11368683772E-12  0.17120000000E+03  0.17120000000E+03 0.  0.
         13    1    1    2    0    0  0.17918288879E+02  0.32322249791E+01  0.69579465920E+02  0.71922358112E+02  0.10566000000E+00 0.  1.
        994    1    1    2    0    0 -0.25334265983E+02 -0.94128988220E+01  0.45915757677E+01  0.17338093974E+03  0.17120000000E+03 0.  0.
        998    1    1    2    0    0  0.74159771043E+01  0.61806738429E+01  0.14258289546E+04  0.14258967021E+04  0.10000000000E+02 0.  1.
</event>
<event>
 5    1  0.1106231E-008  0.3815633E+03  0.7957747E-01  0.3444380E+00
         13   -1    0    0    0    0  0.00000000000E+00  0.00000000000E+00  0.14999999963E+04  0.15000000000E+04  0.10566000000E+00 0.  1.
        994   -1    0    0    0    0 -0.00000000000E+00 -0.00000000000E+00  0.11368683772E-12  0.17120000000E+03  0.17120000000E+03 0.  0.
         13    1    1    2    0    0 -0.53323262209E+01  0.25732456728E+02  0.94190826407E+02  0.97788117762E+02  0.10566000000E+00 0.  1.
        994    1    1    2    0    0  0.20503178313E+02 -0.27566467782E+02  0.72813598257E+01  0.17476483819E+03  0.17120000000E+03 0.  0.
        998    1    1    2    0    0 -0.15170852092E+02  0.18340110532E+01  0.13985278100E+04  0.13986470440E+04  0.10000000000E+02 0.  1.
</event>
<event>
 5    1  0.1106231E-008  0.3736609E+03  0.7957747E-01  0.3479233E+00
         13   -1    0    0    0    0  0.00000000000E+00  0.00000000000E+00  0.14999999963E+04  0.15000000000E+04  0.10566000000E+00 0. -1.
        994   -1    0    0    0    0 -0.00000000000E+00 -0.00000000000E+00  0.11368683772E-12  0.17120000000E+03  0.17120000000E+03 0.  0.
         13    1    1    2    0    0  0.15104235842E+02 -0.82855270205E+01  0.18241693559E+02  0.25091003294E+02  0.10566000000E+00 0. -1.
        994    1    1    2    0    0  0.21531286792E+02 -0.17353443493E+01  0.89628956270E+01  0.17278999169E+03  0.17120000000E+03 0.  0.
        998    1    1    2    0    0 -0.36635522634E+02  0.10020871370E+02  0.14727954071E+04  0.14733190050E+04  0.10000000000E+02 0. -1.
</event>
<event>
 5    1  0.1106231E-008  0.3801989E+03  0.7957747E-01  0.3450293E+00
         13   -1    0    0    0    0  0.00000000000E+00  0.00000000000E+00  0.14999999963E+04  0.15000000000E+04  0.10566000000E+00 0. -1.
        994   -1    0    0    0    0 -0.00000000000E+00 -0.00000000000E+00  0.11368683772E-12  0.17120000000E+03  0.17120000000E+03 0.  0.
         13    1    1    2    0    0  0.78039055926E+01  0.18345941185E+02  0.47137527809E+02  0.51180388748E+02  0.10566000000E+00 0. -1.
        994    1    1    2    0    0 -0.15448705226E+01 -0.17514416649E+02  0.50662099727E+01  0.17217505016E+03  0.17120000000E+03 0.  0.
        998    1    1    2    0    0 -0.62590350700E+01 -0.83152453638E+00  0.14477962585E+04  0.14478445611E+04  0.10000000000E+02 0. -1.
</event>
<event>
 5    1  0.1106231E-008  0.3842886E+03  0.7957747E-01  0.3432695E+00
         13   -1    0    0    0    0  0.00000000000E+00  0.00000000000E+00  0.14999999963E+04  0.15000000000E+04  0.10566000000E+00 0.  1.
        994   -1    0    0    0    0 -0.00000000000E+00 -0.00000000000E+00  0.11368683772E-12  0.17120000000E+03  0.17120000000E+03 0.  0.
         13    1    1    2    0    0  0.52858550578E+00 -0.14766453361E+02  0.59047850365E+02  0.60868607214E+02  0.10566000000E+00 0.  1.
        994    1    1    2    0    0  0.85653710042E+01 -0.35951125572E+01  0.22682439246E+01  0.17146683453E+03  0.17120000000E+03 0.  0.
        998    1    1    2    0    0 -0.90939565100E+01  0.18361565918E+02  0.14386839020E+04  0.14388645583E+04  0.10000000000E+02 0.  1.
</event>
<event>
 5    1  0.1106231E-008  0.3800289E+03  0.7957747E-01  0.3451033E+00
         13   -1    0    0    0    0  0.00000000000E+00  0.00000000000E+00  0.14999999963E+04  0.15000000000E+04  0.10566000000E+00 0. -1.
        994   -1    0    0    0    0 -0.00000000000E+00 -0.00000000000E+00  0.11368683772E-12  0.17120000000E+03  0.17120000000E+03 0.  0.
         13    1    1    2    0    0  0.52261438445E+02  0.26130688111E+02  0.31946759573E+03  0.32476703449E+03  0.10566000000E+00 0. -1.
        994    1    1    2    0    0 -0.43229169074E+02 -0.53091741919E+02  0.19949415257E+02  0.18545865655E+03  0.17120000000E+03 0.  0.
        998    1    1    2    0    0 -0.90322693708E+01  0.26961053808E+02  0.11605829853E+04  0.11609743090E+04  0.10000000000E+02 0. -1.
</event>
<event>
 5    1  0.1106231E-008  0.3845201E+03  0.7957747E-01  0.3431710E+00
         13   -1    0    0    0    0  0.00000000000E+00  0.00000000000E+00  0.14999999963E+04  0.15000000000E+04  0.10566000000E+00 0.  1.
        994   -1    0    0    0    0 -0.00000000000E+00 -0.00000000000E+00  0.11368683772E-12  0.17120000000E+03  0.17120000000E+03 0.  0.
         13    1    1    2    0    0  0.50506719721E+01 -0.10509572916E+02  0.35144987611E+02  0.37028930966E+02  0.10566000000E+00 0.  1.
        994    1    1    2    0    0 -0.85891533373E+01  0.10766511595E+02  0.24936469739E+01  0.17177121296E+03  0.17120000000E+03 0.  0.
        998    1    1    2    0    0  0.35384813652E+01 -0.25693867887E+00  0.14623613617E+04  0.14623998561E+04  0.10000000000E+02 0.  1.
</event>
<event>
 5    1  0.1106231E-008  0.3857856E+03  0.7957747E-01  0.3426347E+00
         13   -1    0    0    0    0  0.00000000000E+00  0.00000000000E+00  0.14999999963E+04  0.15000000000E+04  0.10566000000E+00 0. -1.
        994   -1    0    0    0    0 -0.00000000000E+00 -0.00000000000E+00  0.11368683772E-12  0.17120000000E+03  0.17120000000E+03 0.  0.
         13    1    1    2    0    0  0.10941865851E+02  0.56003823012E+01  0.61215436287E+02  0.62437404767E+02  0.10566000000E+00 0. -1.
        994    1    1    2    0    0 -0.74037696822E+01 -0.45538522008E+01  0.14884658580E+01  0.17142697835E+03  0.17120000000E+03 0.  0.
        998    1    1    2    0    0 -0.35380961691E+01 -0.10465301004E+01  0.14372960941E+04  0.14373356169E+04  0.10000000000E+02 0.  0.
</event>
<event>
 5    1  0.1106231E-008  0.3821819E+03  0.7957747E-01  0.3441713E+00
         13   -1    0    0    0    0  0.00000000000E+00  0.00000000000E+00  0.14999999963E+04  0.15000000000E+04  0.10566000000E+00 0.  1.
        994   -1    0    0    0    0 -0.00000000000E+00 -0.00000000000E+00  0.11368683772E-12  0.17120000000E+03  0.17120000000E+03 0.  0.
         13    1    1    2    0    0 -0.17568491010E+02 -0.98923734293E+01  0.64748366481E+02  0.67814991370E+02  0.10566000000E+00 0.  1.
        994    1    1    2    0    0  0.19576586866E+02 -0.30551938399E+00  0.43090987624E+01  0.17236978978E+03  0.17120000000E+03 0.  0.
        998    1    1    2    0    0 -0.20080958562E+01  0.10197892813E+02  0.14309425310E+04  0.14310152189E+04  0.10000000000E+02 0.  1.
</event>
<event>
 5    1  0.1106231E-008  0.3804349E+03  0.7957747E-01  0.3449267E+00
         13   -1    0    0    0    0  0.00000000000E+00  0.00000000000E+00  0.14999999963E+04  0.15000000000E+04  0.10566000000E+00 0.  1.
        994   -1    0    0    0    0 -0.00000000000E+00 -0.00000000000E+00  0.11368683772E-12  0.17120000000E+03  0.17120000000E+03 0.  0.
         13    1    1    2    0    0 -0.28392170154E+02 -0.12156229141E+03  0.49363062154E+03  0.50917060766E+03  0.10566000000E+00 0.  1.
        994    1    1    2    0    0 -0.66799896064E+01  0.69637623651E+02  0.34550746510E+02  0.18814147595E+03  0.17120000000E+03 0.  0.
        998    1    1    2    0    0  0.35072159761E+02  0.51924667762E+02  0.97181862823E+03  0.97388791639E+03  0.10000000000E+02 0.  1.
</event>
<event>
 5    1  0.1106231E-008  0.3794880E+03  0.7957747E-01  0.3453391E+00
         13   -1    0    0    0    0  0.00000000000E+00  0.00000000000E+00  0.14999999963E+04  0.15000000000E+04  0.10566000000E+00 0.  1.
        994   -1    0    0    0    0 -0.00000000000E+00 -0.00000000000E+00  0.11368683772E-12  0.17120000000E+03  0.17120000000E+03 0.  0.
         13    1    1    2    0    0 -0.14145722730E+03 -0.11844429597E+02  0.85771946251E+03  0.86938663734E+03  0.10566000000E+00 0.  1.
        994    1    1    2    0    0  0.14386751889E+03  0.35947840534E+02  0.81940038450E+02  0.24086037477E+03  0.17120000000E+03 0.  0.
        998    1    1    2    0    0 -0.24102915904E+01 -0.24103410937E+02  0.56034049532E+03  0.56095298789E+03  0.10000000000E+02 0.  1.
</event>
<event>
 5    1  0.1106231E-008  0.3863223E+03  0.7957747E-01  0.3424083E+00
         13   -1    0    0    0    0  0.00000000000E+00  0.00000000000E+00  0.14999999963E+04  0.15000000000E+04  0.10566000000E+00 0. -1.
        994   -1    0    0    0    0 -0.00000000000E+00 -0.00000000000E+00  0.11368683772E-12  0.17120000000E+03  0.17120000000E+03 0.  0.
         13    1    1    2    0    0 -0.10033340169E+02 -0.26965647587E+01  0.59375346707E+02  0.60277544219E+02  0.10566000000E+00 0. -1.
        994    1    1    2    0    0  0.30544622538E+01 -0.95732427735E+01  0.13057725888E+01  0.17149962612E+03  0.17120000000E+03 0.  0.
        998    1    1    2    0    0  0.69788779152E+01  0.12269807532E+02  0.14393188770E+04  0.14394228297E+04  0.10000000000E+02 0. -1.
</event>
<event>
 5    1  0.1106231E-008  0.3755817E+03  0.7957747E-01  0.3470625E+00
         13   -1    0    0    0    0  0.00000000000E+00  0.00000000000E+00  0.14999999963E+04  0.15000000000E+04  0.10566000000E+00 0. -1.
        994   -1    0    0    0    0 -0.00000000000E+00 -0.00000000000E+00  0.11368683772E-12  0.17120000000E+03  0.17120000000E+03 0.  0.
         13    1    1    2    0    0 -0.23761276746E+01 -0.13718960343E+02  0.12299131017E+02  0.18577826660E+02  0.10566000000E+00 0. -1.
        994    1    1    2    0    0  0.19443830279E+01  0.12070084565E+02  0.68875507628E+01  0.17177411307E+03  0.17120000000E+03 0.  0.
        998    1    1    2    0    0  0.43174464667E+00  0.16488757785E+01  0.14808133145E+04  0.14808480603E+04  0.10000000000E+02 0. -1.
</event>
<event>
 5    1  0.1106231E-008  0.3702469E+03  0.7957747E-01  0.3494757E+00
         13   -1    0    0    0    0  0.00000000000E+00  0.00000000000E+00  0.14999999963E+04  0.15000000000E+04  0.10566000000E+00 0.  1.
        994   -1    0    0    0    0 -0.00000000000E+00 -0.00000000000E+00  0.11368683772E-12  0.17120000000E+03  0.17120000000E+03 0.  0.
         13    1    1    2    0    0  0.74055080773E+01 -0.70392341530E+02  0.22590330783E+03  0.23673242057E+03  0.10566000000E+00 0.  1.
        994    1    1    2    0    0 -0.80474670222E+01  0.73837507260E+02  0.28447725189E+02  0.18877354760E+03  0.17120000000E+03 0.  0.
        998    1    1    2    0    0  0.64195894490E+00 -0.34451657299E+01  0.12456489633E+04  0.12456940318E+04  0.10000000000E+02 0.  1.
</event>
<event>
 5    1  0.1106231E-008  0.3845120E+03  0.7957747E-01  0.3431745E+00
         13   -1    0    0    0    0  0.00000000000E+00  0.00000000000E+00  0.14999999963E+04  0.15000000000E+04  0.10566000000E+00 0.  1.
        994   -1    0    0    0    0 -0.00000000000E+00 -0.00000000000E+00  0.11368683772E-12  0.17120000000E+03  0.17120000000E+03 0.  0.
         13    1    1    2    0    0  0.17644101726E+02  0.77662913072E+01  0.95791260896E+02  0.97711854114E+02  0.10566000000E+00 0.  1.
        994    1    1    2    0    0 -0.15870859076E+02 -0.57953731517E+01  0.28134943499E+01  0.17205471882E+03  0.17120000000E+03 0.  0.
        998    1    1    2    0    0 -0.17732426505E+01 -0.19709181555E+01  0.14013952410E+04  0.14014334271E+04  0.10000000000E+02 0.  1.
</event>
<event>
 5    1  0.1106231E-008  0.3699807E+03  0.7957747E-01  0.3495980E+00
         13   -1    0    0    0    0  0.00000000000E+00  0.00000000000E+00  0.14999999963E+04  0.15000000000E+04  0.10566000000E+00 0. -1.
        994   -1    0    0    0    0 -0.00000000000E+00 -0.00000000000E+00  0.11368683772E-12  0.17120000000E+03  0.17120000000E+03 0.  0.
         13    1    1    2    0    0  0.13143110917E+01 -0.41606311402E+02  0.98243473978E+02  0.10669865934E+03  0.10566000000E+00 0. -1.
        994    1    1    2    0    0  0.15390902697E+02  0.33911457790E+01  0.10138488542E+02  0.17222255574E+03  0.17120000000E+03 0.  0.
        998    1    1    2    0    0 -0.16705213789E+02  0.38215165623E+02  0.13916180338E+04  0.13922787849E+04  0.10000000000E+02 0. -1.
</event>
<event>
 5    1  0.1106231E-008  0.3785689E+03  0.7957747E-01  0.3457414E+00
         13   -1    0    0    0    0  0.00000000000E+00  0.00000000000E+00  0.14999999963E+04  0.15000000000E+04  0.10566000000E+00 0. -1.
        994   -1    0    0    0    0 -0.00000000000E+00 -0.00000000000E+00  0.11368683772E-12  0.17120000000E+03  0.17120000000E+03 0.  0.
         13    1    1    2    0    0 -0.28221499878E+02 -0.19364146442E+02  0.12717149911E+03  0.13169671436E+03  0.10566000000E+00 0. -1.
        994    1    1    2    0    0  0.12796453929E+02 -0.41342602024E+01  0.54649359421E+01  0.17181428016E+03  0.17120000000E+03 0.  0.
        998    1    1    2    0    0  0.15425045949E+02  0.23498406645E+02  0.13673635612E+04  0.13676890055E+04  0.10000000000E+02 0. -1.
</event>
<event>
 5    1  0.1106231E-008  0.3823398E+03  0.7957747E-01  0.3441033E+00
         13   -1    0    0    0    0  0.00000000000E+00  0.00000000000E+00  0.14999999963E+04  0.15000000000E+04  0.10566000000E+00 0.  1.
        994   -1    0    0    0    0 -0.00000000000E+00 -0.00000000000E+00  0.11368683772E-12  0.17120000000E+03  0.17120000000E+03 0.  0.
         13    1    1    2    0    0 -0.56642171193E+01 -0.15834932060E+02  0.46215140546E+02  0.49180065155E+02  0.10566000000E+00 0.  1.
        994    1    1    2    0    0  0.44545233931E+01  0.13681652796E+02  0.36437187370E+01  0.17184221568E+03  0.17120000000E+03 0.  0.
        998    1    1    2    0    0  0.12096937262E+01  0.21532792639E+01  0.14501411370E+04  0.14501777192E+04  0.10000000000E+02 0.  1.
</event>
<event>
 5    1  0.1106231E-008  0.3828695E+03  0.7957747E-01  0.3438758E+00
         13   -1    0    0    0    0  0.00000000000E+00  0.00000000000E+00  0.14999999963E+04  0.15000000000E+04  0.10566000000E+00 0.  1.
        994   -1    0    0    0    0 -0.00000000000E+00 -0.00000000000E+00  0.11368683772E-12  0.17120000000E+03  0.17120000000E+03 0.  0.
         13    1    1    2    0    0  0.13475891476E+02 -0.22849500819E+02  0.15169283104E+03  0.15399488788E+03  0.10566000000E+00 0.  1.
        994    1    1    2    0    0 -0.11237234593E+02 -0.10283987554E+02  0.34603505335E+01  0.17191116854E+03  0.17120000000E+03 0.  0.
        998    1    1    2    0    0 -0.22386568825E+01  0.33133488373E+02  0.13448468147E+04  0.13452939436E+04  0.10000000000E+02 0.  1.
</event>
<event>
 5    1  0.1106231E-008  0.3806283E+03  0.7957747E-01  0.3448428E+00
         13   -1    0    0    0    0  0.00000000000E+00  0.00000000000E+00  0.14999999963E+04  0.15000000000E+04  0.10566000000E+00 0.  1.
        994   -1    0    0    0    0 -0.00000000000E+00 -0.00000000000E+00  0.11368683772E-12  0.17120000000E+03  0.17120000000E+03 0.  0.
         13    1    1    2    0    0 -0.10399976566E+02 -0.42404988336E+02  0.25389361506E+03  0.25762049896E+03  0.10566000000E+00 0.  1.
        994    1    1    2    0    0  0.23099003704E+02  0.18158734297E+02  0.67016584124E+01  0.17383226349E+03  0.17120000000E+03 0.  0.
        998    1    1    2    0    0 -0.12699027138E+02  0.24246254038E+02  0.12394047228E+04  0.12397472376E+04  0.10000000000E+02 0.  1.
</event>
<event>
 5    1  0.1106231E-008  0.3832412E+03  0.7957747E-01  0.3437166E+00
         13   -1    0    0    0    0  0.00000000000E+00  0.00000000000E+00  0.14999999963E+04  0.15000000000E+04  0.10566000000E+00 0. -1.
        994   -1    0    0    0    0 -0.00000000000E+00 -0.00000000000E+00  0.11368683772E-12  0.17120000000E+03  0.17120000000E+03 0.  0.
         13    1    1    2    0    0  0.56352269368E+01  0.17705046387E+02  0.73209784602E+02  0.75530842546E+02  0.10566000000E+00 0. -1.
        994    1    1    2    0    0 -0.96922753659E+01  0.37969466581E+01  0.28643664529E+01  0.17154008745E+03  0.17120000000E+03 0.  0.
        998    1    1    2    0    0  0.40570484291E+01 -0.21501993045E+02  0.14239258452E+04  0.14241290700E+04  0.10000000000E+02 0. -1.
</event>
<event>
 5    1  0.1106231E-008  0.3836476E+03  0.7957747E-01  0.3435428E+00
         13   -1    0    0    0    0  0.00000000000E+00  0.00000000000E+00  0.14999999963E+04  0.15000000000E+04  0.10566000000E+00 0.  1.
        994   -1    0    0    0    0 -0.00000000000E+00 -0.00000000000E+00  0.11368683772E-12  0.17120000000E+03  0.17120000000E+03 0.  0.
         13    1    1    2    0    0 -0.22805610875E+02  0.12264448471E+02  0.10388770034E+02  0.27900722044E+02  0.10566000000E+00 0.  1.
        994    1    1    2    0    0  0.11940716149E+02 -0.23665343082E+02  0.20930106726E+02  0.17449968061E+03  0.17120000000E+03 0.  0.
        998    1    1    2    0    0  0.10864894727E+02  0.11400894611E+02  0.14686811195E+04  0.14687995973E+04  0.10000000000E+02 0.  1.
</event>
<event>
 5    1  0.1106231E-008  0.3826134E+03  0.7957747E-01  0.3439858E+00
         13   -1    0    0    0    0  0.00000000000E+00  0.00000000000E+00  0.14999999963E+04  0.15000000000E+04  0.10566000000E+00 0. -1.
        994   -1    0    0    0    0 -0.00000000000E+00 -0.00000000000E+00  0.11368683772E-12  0.17120000000E+03  0.17120000000E+03 0.  0.
         13    1    1    2    0    0 -0.21444348797E+02  0.12880369325E+01  0.85457517863E+02  0.88116500485E+02  0.10566000000E+00 0. -1.
        994    1    1    2    0    0  0.31760173944E+01 -0.23880297281E+02  0.47455633451E+01  0.17295177379E+03  0.17120000000E+03 0.  0.
        998    1    1    2    0    0  0.18268331403E+02  0.22592260349E+02  0.14097969151E+04  0.14101317257E+04  0.10000000000E+02 0. -1.
</event>
<event>
 5    1  0.1106231E-008  0.3723836E+03  0.7957747E-01  0.3485008E+00
         13   -1    0    0    0    0  0.00000000000E+00  0.00000000000E+00  0.14999999963E+04  0.15000000000E+04  0.10566000000E+00 0.  1.
        994   -1    0    0    0    0 -0.00000000000E+00 -0.00000000000E+00  0.11368683772E-12  0.17120000000E+03  0.17120000000E+03 0.  0.
         13    1    1    2    0    0 -0.24895747526E+01  0.99368682272E+01  0.27456901042E+01  0.10606097812E+02  0.10566000000E+00 0.  1.
        994    1    1    2    0    0  0.47077195033E+01 -0.11762754209E+02  0.85791860355E+01  0.17188242331E+03  0.17120000000E+03 0.  0.
        998    1    1    2    0    0 -0.22181447507E+01  0.18258859815E+01  0.14886751201E+04  0.14887114789E+04  0.10000000000E+02 0.  1.
</event>
<event>
 5    1  0.1106231E-008  0.3821105E+03  0.7957747E-01  0.3442020E+00
         13   -1    0    0    0    0  0.00000000000E+00  0.00000000000E+00  0.14999999963E+04  0.15000000000E+04  0.10566000000E+00 0.  1.
        994   -1    0    0    0    0 -0.00000000000E+00 -0.00000000000E+00  0.11368683772E-12  0.17120000000E+03  0.17120000000E+03 0.  0.
         13    1    1    2    0    0  0.32956231772E+02  0.27200880725E+02  0.24638346822E+03  0.25006164380E+03  0.10566000000E+00 0.  1.
        994    1    1    2    0    0 -0.32180991111E+02 -0.30916865772E+02  0.97111065623E+01  0.17718694751E+03  0.17120000000E+03 0.  0.
        998    1    1    2    0    0 -0.77524066077E+00  0.37159850478E+01  0.12439054215E+04  0.12439514087E+04  0.10000000000E+02 0.  0.
</event>
<event>
 5    1  0.1148772E-008  0.3847185E+03  0.7957747E-01  0.3430867E+00
         13   -1    0    0    0    0  0.00000000000E+00  0.00000000000E+00  0.14999999963E+04  0.15000000000E+04  0.10566000000E+00 0. -1.
        994   -1    0    0    0    0 -0.00000000000E+00 -0.00000000000E+00  0.11368683772E-12  0.17120000000E+03  0.17120000000E+03 0.  0.
         13    1    1    2    0    0  0.76561625325E+01  0.81203858607E+01  0.34005181671E+02  0.35789957192E+02  0.10566000000E+00 0. -1.
        994    1    1    2    0    0 -0.92159194419E+01 -0.95961709079E+01  0.23528447538E+01  0.17173233692E+03  0.17120000000E+03 0.  0.
        998    1    1    2    0    0  0.15597569094E+01  0.14757850472E+01  0.14636419699E+04  0.14636777059E+04  0.10000000000E+02 0. -1.
</event>
<event>
 5    1  0.1106231E-008  0.3832389E+03  0.7957747E-01  0.3437176E+00
         13   -1    0    0    0    0  0.00000000000E+00  0.00000000000E+00  0.14999999963E+04  0.15000000000E+04  0.10566000000E+00 0.  1.
        994   -1    0    0    0    0 -0.00000000000E+00 -0.00000000000E+00  0.11368683772E-12  0.17120000000E+03  0.17120000000E+03 0.  0.
         13    1    1    2    0    0 -0.13738998364E+02  0.13843963438E+02  0.70591055679E+02  0.73236081993E+02  0.10566000000E+00 0.  1.
        994    1    1    2    0    0  0.65313488514E+01 -0.27939836269E+02  0.52348620302E+01  0.17366674048E+03  0.17120000000E+03 0.  0.
        998    1    1    2    0    0  0.72076495128E+01  0.14095872831E+02  0.14241740786E+04  0.14242971775E+04  0.10000000000E+02 0.  1.
</event>
<event>
 5    1  0.1106231E-008  0.3836125E+03  0.7957747E-01  0.3435578E+00
         13   -1    0    0    0    0  0.00000000000E+00  0.00000000000E+00  0.14999999963E+04  0.15000000000E+04  0.10566000000E+00 0.  1.
        994   -1    0    0    0    0 -0.00000000000E+00 -0.00000000000E+00  0.11368683772E-12  0.17120000000E+03  0.17120000000E+03 0.  0.
         13    1    1    2    0    0 -0.12856718865E+02  0.11902734765E+02  0.64990116972E+02  0.67310450771E+02  0.10566000000E+00 0.  1.
        994    1    1    2    0    0  0.47239679040E+01 -0.14138716108E+02  0.30550189014E+01  0.17187493216E+03  0.17120000000E+03 0.  0.
        998    1    1    2    0    0  0.81327509612E+01  0.22359813429E+01  0.14319548604E+04  0.14320146171E+04  0.10000000000E+02 0.  1.
</event>
<event>
 5    1  0.1106231E-008  0.3418326E+03  0.7957747E-01  0.3636284E+00
         13   -1    0    0    0    0  0.00000000000E+00  0.00000000000E+00  0.14999999963E+04  0.15000000000E+04  0.10566000000E+00 0.  1.
        994   -1    0    0    0    0 -0.00000000000E+00 -0.00000000000E+00  0.11368683772E-12  0.17120000000E+03  0.17120000000E+03 0.  0.
         13    1    1    2    0    0 -0.17710098487E+03  0.11812970095E+03  0.97585990689E+03  0.99881026933E+03  0.10566000000E+00 0.  1.
        994    1    1    2    0    0  0.15262200790E+03 -0.99389456821E+02  0.13924000576E+03  0.28612752511E+03  0.17120000000E+03 0.  0.
        998    1    1    2    0    0  0.24478976977E+02 -0.18740244128E+02  0.38490008363E+03  0.38626220556E+03  0.10000000000E+02 0. -1.
</event>
<event>
 5    1  0.1106231E-008  0.3913631E+03  0.7957747E-01  0.3403126E+00
         13   -1    0    0    0    0  0.00000000000E+00  0.00000000000E+00  0.14999999963E+04  0.15000000000E+04  0.10566000000E+00 0.  1.
        994   -1    0    0    0    0 -0.00000000000E+00 -0.00000000000E+00  0.11368683772E-12  0.17120000000E+03  0.17120000000E+03 0.  0.
         13    1    1    2    0    0  0.21927095985E+02  0.65907820563E+02  0.86740879485E+02  0.11112438836E+03  0.10566000000E+00 0.  1.
        994    1    1    2    0    0 -0.23227295174E+02 -0.89826834633E+02  0.56067883433E+02  0.20263616413E+03  0.17120000000E+03 0.  0.
        998    1    1    2    0    0  0.13001991892E+01  0.23919014070E+02  0.13571912334E+04  0.13574394475E+04  0.10000000000E+02 0.  1.
</event>
<event>
 5    1  0.1106231E-008  0.3771442E+03  0.7957747E-01  0.3463689E+00
         13   -1    0    0    0    0  0.00000000000E+00  0.00000000000E+00  0.14999999963E+04  0.15000000000E+04  0.10566000000E+00 0. -1.
        994   -1    0    0    0    0 -0.00000000000E+00 -0.00000000000E+00  0.11368683772E-12  0.17120000000E+03  0.17120000000E+03 0.  0.
         13    1    1    2    0    0  0.79656407620E+02 -0.42506408759E+02  0.46756949768E+03  0.47620708141E+03  0.10566000000E+00 0. -1.
        994    1    1    2    0    0 -0.90501979026E+02  0.33745716178E+02  0.37744071844E+02  0.20015852849E+03  0.17120000000E+03 0.  0.
        998    1    1    2    0    0  0.10845571406E+02  0.87606925810E+01  0.99468642676E+03  0.99483439010E+03  0.10000000000E+02 0.  1.
</event>
<event>
 5    1  0.1106231E-008  0.3767949E+03  0.7957747E-01  0.3465234E+00
         13   -1    0    0    0    0  0.00000000000E+00  0.00000000000E+00  0.14999999963E+04  0.15000000000E+04  0.10566000000E+00 0.  1.
        994   -1    0    0    0    0 -0.00000000000E+00 -0.00000000000E+00  0.11368683772E-12  0.17120000000E+03  0.17120000000E+03 0.  0.
         13    1    1    2    0    0 -0.18896837737E+01 -0.31932263141E+02  0.81976597978E+02  0.87996671041E+02  0.10566000000E+00 0.  1.
        994    1    1    2    0    0  0.32769433790E+01  0.33544416261E+02  0.96076041730E+01  0.17475042855E+03  0.17120000000E+03 0.  0.
        998    1    1    2    0    0 -0.13872596053E+01 -0.16121531195E+01  0.14084157941E+04  0.14084529004E+04  0.10000000000E+02 0.  1.
</event>
<event>
 5    1  0.1106231E-008  0.3850076E+03  0.7957747E-01  0.3429640E+00
         13   -1    0    0    0    0  0.00000000000E+00  0.00000000000E+00  0.14999999963E+04  0.15000000000E+04  0.10566000000E+00 0.  1.
        994   -1    0    0    0    0 -0.00000000000E+00 -0.00000000000E+00  0.11368683772E-12  0.17120000000E+03  0.17120000000E+03 0.  0.
         13    1    1    2    0    0 -0.84583261665E+01  0.11076887116E+02  0.61700927168E+02  0.63255484246E+02  0.10566000000E+00 0.  1.
        994    1    1    2    0    0 -0.48687011388E+01 -0.88332734417E+01  0.19610057330E+01  0.17150806545E+03  0.17120000000E+03 0.  0.
        998    1    1    2    0    0  0.13327027305E+02 -0.22436136743E+01  0.14363380634E+04  0.14364364503E+04  0.10000000000E+02 0.  1.
</event>
<event>
 5    1  0.1106231E-008  0.3825303E+03  0.7957747E-01  0.3440214E+00
         13   -1    0    0    0    0  0.00000000000E+00  0.00000000000E+00  0.14999999963E+04  0.15000000000E+04  0.10566000000E+00 0. -1.
        994   -1    0    0    0    0 -0.00000000000E+00 -0.00000000000E+00  0.11368683772E-12  0.17120000000E+03  0.17120000000E+03 0.  0.
         13    1    1    2    0    0  0.75729360316E+01  0.10471691460E+02  0.27709322868E+02  0.30574882175E+02  0.10566000000E+00 0. -1.
        994    1    1    2    0    0 -0.79777748909E+01 -0.10948430467E+02  0.34699049672E+01  0.17177017571E+03  0.17120000000E+03 0.  0.
        998    1    1    2    0    0  0.40483885931E+00  0.47673900697E+00  0.14688207684E+04  0.14688549421E+04  0.10000000000E+02 0. -1.
</event>
<event>
 5    1  0.1106231E-008  0.3702687E+03  0.7957747E-01  0.3494657E+00
         13   -1    0    0    0    0  0.00000000000E+00  0.00000000000E+00  0.14999999963E+04  0.15000000000E+04  0.10566000000E+00 0.  1.
        994   -1    0    0    0    0 -0.00000000000E+00 -0.00000000000E+00  0.11368683772E-12  0.17120000000E+03  0.17120000000E+03 0.  0.
         13    1    1    2    0    0  0.68586482697E+02  0.30057061468E+02  0.27813704390E+03  0.28804124515E+03  0.10566000000E+00 0.  1.
        994    1    1    2    0    0 -0.29591461887E+02  0.35327891221E+01  0.14195065526E+02  0.17435330539E+03  0.17120000000E+03 0.  0.
        998    1    1    2    0    0 -0.38995020811E+02 -0.33589850590E+02  0.12076678869E+04  0.12088054495E+04  0.10000000000E+02 0.  1.
</event>
<event>
 5    1  0.1106231E-008  0.4022634E+03  0.7957747E-01  0.3359601E+00
         13   -1    0    0    0    0  0.00000000000E+00  0.00000000000E+00  0.14999999963E+04  0.15000000000E+04  0.10566000000E+00 0.  1.
        994   -1    0    0    0    0 -0.00000000000E+00 -0.00000000000E+00  0.11368683772E-12  0.17120000000E+03  0.17120000000E+03 0.  0.
         13    1    1    2    0    0  0.19863002349E+02  0.12580705835E+03  0.22185294063E+03  0.25581378622E+03  0.10566000000E+00 0.  1.
        994    1    1    2    0    0 -0.89448506584E+02 -0.11714172043E+03  0.12137203228E+03  0.25644459092E+03  0.17120000000E+03 0.  0.
        998    1    1    2    0    0  0.69585504235E+02 -0.86653379191E+01  0.11567750234E+04  0.11589416229E+04  0.10000000000E+02 0. -1.
</event>
<event>
 5    1  0.1106231E-008  0.3710821E+03  0.7957747E-01  0.3490932E+00
         13   -1    0    0    0    0  0.00000000000E+00  0.00000000000E+00  0.14999999963E+04  0.15000000000E+04  0.10566000000E+00 0.  1.
        994   -1    0    0    0    0 -0.00000000000E+00 -0.00000000000E+00  0.11368683772E-12  0.17120000000E+03  0.17120000000E+03 0.  0.
         13    1    1    2    0    0  0.35185872596E+02 -0.65782747584E+02  0.19712103138E+03  0.21076557519E+03  0.10566000000E+00 0.  1.
        994    1    1    2    0    0 -0.35480985788E+02  0.76555874217E+02  0.36934988457E+02  0.19440508121E+03  0.17120000000E+03 0.  0.
        998    1    1    2    0    0  0.29511319262E+00 -0.10773126633E+02  0.12659439764E+04  0.12660293436E+04  0.10000000000E+02 0.  1.
</event>
<event>
 5    1  0.1106231E-008  0.3854558E+03  0.7957747E-01  0.3427741E+00
         13   -1    0    0    0    0  0.00000000000E+00  0.00000000000E+00  0.14999999963E+04  0.15000000000E+04  0.10566000000E+00 0. -1.
        994   -1    0    0    0    0 -0.00000000000E+00 -0.00000000000E+00  0.11368683772E-12  0.17120000000E+03  0.17120000000E+03 0.  0.
         13    1    1    2    0    0 -0.35798868365E+01 -0.15586017500E+02  0.87221066978E+02  0.88675054102E+02  0.10566000000E+00 0. -1.
        994    1    1    2    0    0 -0.48353878418E+01  0.18137654543E+02  0.25619091817E+01  0.17224505469E+03  0.17120000000E+03 0.  0.
        998    1    1    2    0    0  0.84152746784E+01 -0.25516370436E+01  0.14102170201E+04  0.14102798912E+04  0.10000000000E+02 0. -1.
</event>
<event>
 5    1  0.1106231E-008  0.3694063E+03  0.7957747E-01  0.3498624E+00
         13   -1    0    0    0    0  0.00000000000E+00  0.00000000000E+00  0.14999999963E+04  0.15000000000E+04  0.10566000000E+00 0. -1.
        994   -1    0    0    0    0 -0.00000000000E+00 -0.00000000000E+00  0.11368683772E-12  0.17120000000E+03  0.17120000000E+03 0.  0.
         13    1    1    2    0    0  0.11058841570E+03 -0.41572137898E+02  0.43257820837E+03  0.44842162956E+03  0.10566000000E+00 0. -1.
        994    1    1    2    0    0 -0.11428490641E+03  0.83666526771E+02  0.82679335221E+02  0.23707897420E+03  0.17120000000E+03 0.  0.
        998    1    1    2    0    0  0.36964907089E+01 -0.42094388873E+02  0.98474245269E+03  0.98569939624E+03  0.10000000000E+02 0. -1.
</event>
<event>
 5    1  0.1106231E-008  0.3693063E+03  0.7957747E-01  0.3499085E+00
         13   -1    0    0    0    0  0.00000000000E+00  0.00000000000E+00  0.14999999963E+04  0.15000000000E+04  0.10566000000E+00 0.  1.
        994   -1    0    0    0    0 -0.00000000000E+00 -0.00000000000E+00  0.11368683772E-12  0.17120000000E+03  0.17120000000E+03 0.  0.
         13    1    1    2    0    0 -0.55118304363E+02 -0.82235330729E+02  0.43740913013E+03  0.44847233513E+03  0.10566000000E+00 0.  1.
        994    1    1    2    0    0  0.32329934458E+02  0.68942402372E+02  0.30006624378E+02  0.18975804861E+03  0.17120000000E+03 0.  0.
        998    1    1    2    0    0  0.22788369906E+02  0.13292928357E+02  0.10325842418E+04  0.10329696163E+04  0.10000000000E+02 0. -1.
</event>
<event>
 5    1  0.1106231E-008  0.3752272E+03  0.7957747E-01  0.3472207E+00
         13   -1    0    0    0    0  0.00000000000E+00  0.00000000000E+00  0.14999999963E+04  0.15000000000E+04  0.10566000000E+00 0. -1.
        994   -1    0    0    0    0 -0.00000000000E+00 -0.00000000000E+00  0.11368683772E-12  0.17120000000E+03  0.17120000000E+03 0.  0.
         13    1    1    2    0    0 -0.15160975289E+02 -0.31542703149E+02  0.87988841396E+02  0.94693424628E+02  0.10566000000E+00 0. -1.
        994    1    1    2    0    0  0.15070351594E+02  0.25997045205E+02  0.96352001838E+01  0.17408399966E+03  0.17120000000E+03 0.  0.
        998    1    1    2    0    0  0.90623694942E-01  0.55456579437E+01  0.14023759547E+04  0.14024225757E+04  0.10000000000E+02 0. -1.
</event>
<event>
 5    1  0.1106231E-008  0.3832699E+03  0.7957747E-01  0.3437043E+00
         13   -1    0    0    0    0  0.00000000000E+00  0.00000000000E+00  0.14999999963E+04  0.15000000000E+04  0.10566000000E+00 0. -1.
        994   -1    0    0    0    0 -0.00000000000E+00 -0.00000000000E+00  0.11368683772E-12  0.17120000000E+03  0.17120000000E+03 0.  0.
         13    1    1    2    0    0  0.16942637194E+02  0.20701296398E+02  0.13837990893E+03  0.14094185676E+03  0.10566000000E+00 0. -1.
        994    1    1    2    0    0 -0.17346550981E+02 -0.12166913952E+02  0.39776723785E+01  0.17255201681E+03  0.17120000000E+03 0.  0.
        998    1    1    2    0    0  0.40391378680E+00 -0.85343824457E+01  0.13576424150E+04  0.13577061264E+04  0.10000000000E+02 0. -1.
</event>
<event>
 5    1  0.1106231E-008  0.3850934E+03  0.7957747E-01  0.3429276E+00
         13   -1    0    0    0    0  0.00000000000E+00  0.00000000000E+00  0.14999999963E+04  0.15000000000E+04  0.10566000000E+00 0. -1.
        994   -1    0    0    0    0 -0.00000000000E+00 -0.00000000000E+00  0.11368683772E-12  0.17120000000E+03  0.17120000000E+03 0.  0.
         13    1    1    2    0    0  0.35242214948E+01  0.96520771282E+01  0.35759429156E+02  0.37206594411E+02  0.10566000000E+00 0. -1.
        994    1    1    2    0    0  0.45209312114E+01  0.72364879973E+01  0.18231874484E+01  0.17142219690E+03  0.17120000000E+03 0.  0.
        998    1    1    2    0    0 -0.80451527062E+01 -0.16888565125E+02  0.14624173797E+04  0.14625712087E+04  0.10000000000E+02 0. -1.
</event>
<event>
 5    1  0.1106231E-008  0.2883884E+03  0.7957747E-01  0.3982569E+00
         13   -1    0    0    0    0  0.00000000000E+00  0.00000000000E+00  0.14999999963E+04  0.15000000000E+04  0.10566000000E+00 0. -1.
        994   -1    0    0    0    0 -0.00000000000E+00 -0.00000000000E+00  0.11368683772E-12  0.17120000000E+03  0.17120000000E+03 0.  0.
         13    1    1    2    0    0  0.15577349114E+03  0.34109078690E+01  0.68412941746E+03  0.70164812109E+03  0.10566000000E+00 0. -1.
        994    1    1    2    0    0 -0.90933021411E+02  0.96247065034E+01  0.49546562030E+02  0.20031413122E+03  0.17120000000E+03 0.  0.
        998    1    1    2    0    0 -0.64840469730E+02 -0.13035614372E+02  0.76632401679E+03  0.76923774768E+03  0.10000000000E+02 0. -1.
</event>
<event>
 5    1  0.1106231E-008  0.3798832E+03  0.7957747E-01  0.3451667E+00
         13   -1    0    0    0    0  0.00000000000E+00  0.00000000000E+00  0.14999999963E+04  0.15000000000E+04  0.10566000000E+00 0. -1.
        994   -1    0    0    0    0 -0.00000000000E+00 -0.00000000000E+00  0.11368683772E-12  0.17120000000E+03  0.17120000000E+03 0.  0.
         13    1    1    2    0    0  0.11476599987E+02 -0.55196111161E+01  0.17535842653E+02  0.21672457076E+02  0.10566000000E+00 0. -1.
        994    1    1    2    0    0 -0.95427569568E+01  0.26750936382E+01  0.45206370146E+01  0.17154619347E+03  0.17120000000E+03 0.  0.
        998    1    1    2    0    0 -0.19338430307E+01  0.28445174779E+01  0.14779435166E+04  0.14779813494E+04  0.10000000000E+02 0. -1.
</event>
<event>
 5    1  0.1106231E-008  0.3846722E+03  0.7957747E-01  0.3431064E+00
         13   -1    0    0    0    0  0.00000000000E+00  0.00000000000E+00  0.14999999963E+04  0.15000000000E+04  0.10566000000E+00 0.  1.
        994   -1    0    0    0    0 -0.00000000000E+00 -0.00000000000E+00  0.11368683772E-12  0.17120000000E+03  0.17120000000E+03 0.  0.
         13    1    1    2    0    0  0.71544963040E+01  0.82300135359E+01  0.32994233079E+02  0.34749827635E+02  0.10566000000E+00 0.  1.
        994    1    1    2    0    0 -0.32671629062E-01 -0.83365509116E+01  0.20218150134E+01  0.17141478024E+03  0.17120000000E+03 0.  0.
        998    1    1    2    0    0 -0.71218246749E+01  0.10653737564E+00  0.14649839482E+04  0.14650353921E+04  0.10000000000E+02 0.  1.
</event>
<event>
 5    1  0.1106231E-008  0.3738921E+03  0.7957747E-01  0.3478193E+00
         13   -1    0    0    0    0  0.00000000000E+00  0.00000000000E+00  0.14999999963E+04  0.15000000000E+04  0.10566000000E+00 0.  1.
        994   -1    0    0    0    0 -0.00000000000E+00 -0.00000000000E+00  0.11368683772E-12  0.17120000000E+03  0.17120000000E+03 0.  0.
         13    1    1    2    0    0  0.21578344624E+02  0.84588102100E+02  0.50379348706E+03  0.51130094929E+03  0.10566000000E+00 0.  1.
        994    1    1    2    0    0 -0.15381592747E+02 -0.51861723951E+02  0.17299453283E+02  0.18037445188E+03  0.17120000000E+03 0.  0.
        998    1    1    2    0    0 -0.61967518763E+01 -0.32726378150E+02  0.97890705594E+03  0.97952459884E+03  0.10000000000E+02 0. -1.
</event>
<event>
 5    1  0.1106231E-008  0.3837586E+03  0.7957747E-01  0.3434954E+00
         13   -1    0    0    0    0  0.00000000000E+00  0.00000000000E+00  0.14999999963E+04  0.15000000000E+04  0.10566000000E+00 0. -1.
        994   -1    0    0    0    0 -0.00000000000E+00 -0.00000000000E+00  0.11368683772E-12  0.17120000000E+03  0.17120000000E+03 0.  0.
         13    1    1    2    0    0 -0.71837448503E+00 -0.13159690349E+02  0.40342879915E+02  0.42441166759E+02  0.10566000000E+00 0. -1.
        994    1    1    2    0    0  0.86215597430E+01 -0.49318504523E+01  0.25735303314E+01  0.17150719373E+03  0.17120000000E+03 0.  0.
        998    1    1    2    0    0 -0.79031852580E+01  0.18091540801E+02  0.14570835860E+04  0.14572516395E+04  0.10000000000E+02 0. -1.
</event>
<event>
 5    1  0.1106231E-008  0.3772828E+03  0.7957747E-01  0.3463076E+00
         13   -1    0    0    0    0  0.00000000000E+00  0.00000000000E+00  0.14999999963E+04  0.15000000000E+04  0.10566000000E+00 0.  1.
        994   -1    0    0    0    0 -0.00000000000E+00 -0.00000000000E+00  0.11368683772E-12  0.17120000000E+03  0.17120000000E+03 0.  0.
         13    1    1    2    0    0  0.24226470139E+02 -0.14357993830E+02  0.68053715715E+02  0.73650480168E+02  0.10566000000E+00 0.  1.
        994    1    1    2    0    0 -0.19005445525E+02  0.16645251434E+02  0.76671030136E+01  0.17322383157E+03  0.17120000000E+03 0.  0.
        998    1    1    2    0    0 -0.52210246137E+01 -0.22872576039E+01  0.14242791775E+04  0.14243256883E+04  0.10000000000E+02 0.  1.
</event>
<event>
 5    1  0.1106231E-008  0.3862078E+03  0.7957747E-01  0.3424566E+00
         13   -1    0    0    0    0  0.00000000000E+00  0.00000000000E+00  0.14999999963E+04  0.15000000000E+04  0.10566000000E+00 0. -1.
        994   -1    0    0    0    0 -0.00000000000E+00 -0.00000000000E+00  0.11368683772E-12  0.17120000000E+03  0.17120000000E+03 0.  0.
         13    1    1    2    0    0 -0.26950241819E+01  0.11192397498E+02  0.60995505534E+02  0.62072504190E+02  0.10566000000E+00 0. -1.
        994    1    1    2    0    0  0.17378528877E+02 -0.13164553403E+02  0.25902546362E+01  0.17260205141E+03  0.17120000000E+03 0.  0.
        998    1    1    2    0    0 -0.14683504695E+02  0.19721559055E+01  0.14364142361E+04  0.14365254444E+04  0.10000000000E+02 0. -1.
</event>
<event>
 5    1  0.1106231E-008  0.3835433E+03  0.7957747E-01  0.3435874E+00
         13   -1    0    0    0    0  0.00000000000E+00  0.00000000000E+00  0.14999999963E+04  0.15000000000E+04  0.10566000000E+00 0. -1.
        994   -1    0    0    0    0 -0.00000000000E+00 -0.00000000000E+00  0.11368683772E-12  0.17120000000E+03  0.17120000000E+03 0.  0.
         13    1    1    2    0    0 -0.62734030520E+01  0.34502371188E+02  0.27374440915E+02  0.44487530645E+02  0.10566000000E+00 0. -1.
        994    1    1    2    0    0 -0.52223177545E+01 -0.11547257320E+02  0.18877376670E+02  0.17270323420E+03  0.17120000000E+03 0.  0.
        998    1    1    2    0    0  0.11495720806E+02 -0.22955113868E+02  0.14537481787E+04  0.14540092352E+04  0.10000000000E+02 0. -1.
</event>
<event>
 5    1  0.1106231E-008  0.3795963E+03  0.7957747E-01  0.3452918E+00
         13   -1    0    0    0    0  0.00000000000E+00  0.00000000000E+00  0.14999999963E+04  0.15000000000E+04  0.10566000000E+00 0.  1.
        994   -1    0    0    0    0 -0.00000000000E+00 -0.00000000000E+00  0.11368683772E-12  0.17120000000E+03  0.17120000000E+03 0.  0.
         13    1    1    2    0    0  0.19152131953E+02  0.41356828460E+01  0.41807927088E+02  0.46171657565E+02  0.10566000000E+00 0.  1.
        994    1    1    2    0    0 -0.16428718260E+02 -0.11222574895E+02  0.56632311181E+01  0.17244524104E+03  0.17120000000E+03 0.  0.
        998    1    1    2    0    0 -0.27234136928E+01  0.70868920494E+01  0.14525288381E+04  0.14525831014E+04  0.10000000000E+02 0.  1.
</event>
<event>
 5    1  0.1106231E-008  0.3705300E+03  0.7957747E-01  0.3493459E+00
         13   -1    0    0    0    0  0.00000000000E+00  0.00000000000E+00  0.14999999963E+04  0.15000000000E+04  0.10566000000E+00 0.  1.
        994   -1    0    0    0    0 -0.00000000000E+00 -0.00000000000E+00  0.11368683772E-12  0.17120000000E+03  0.17120000000E+03 0.  0.
         13    1    1    2    0    0  0.73349966843E+02 -0.29889813340E+01  0.34059660963E+03  0.34841815868E+03  0.10566000000E+00 0.  1.
        994    1    1    2    0    0 -0.23352479156E+02  0.27826096873E+02  0.13560494245E+02  0.17553619842E+03  0.17120000000E+03 0.  0.
        998    1    1    2    0    0 -0.49997487687E+02 -0.24837115539E+02  0.11458428924E+04  0.11472456429E+04  0.10000000000E+02 0.  1.
</event>
<event>
 5    1  0.1106231E-008  0.3826794E+03  0.7957747E-01  0.3439574E+00
         13   -1    0    0    0    0  0.00000000000E+00  0.00000000000E+00  0.14999999963E+04  0.15000000000E+04  0.10566000000E+00 0.  1.
        994   -1    0    0    0    0 -0.00000000000E+00 -0.00000000000E+00  0.11368683772E-12  0.17120000000E+03  0.17120000000E+03 0.  0.
         13    1    1    2    0    0  0.20402741598E+02  0.17696182432E+02  0.12922804859E+03  0.13202017438E+03  0.10566000000E+00 0.  1.
        994    1    1    2    0    0 -0.19098739702E+02 -0.43604118012E+01  0.40593880337E+01  0.17236500132E+03  0.17120000000E+03 0.  0.
        998    1    1    2    0    0 -0.13040018960E+01 -0.13335770631E+02  0.13667125597E+04  0.13668148243E+04  0.10000000000E+02 0.  1.
</event>
<event>
 5    1  0.1106231E-008  0.3793098E+03  0.7957747E-01  0.3454169E+00
         13   -1    0    0    0    0  0.00000000000E+00  0.00000000000E+00  0.14999999963E+04  0.15000000000E+04  0.10566000000E+00 0.  1.
        994   -1    0    0    0    0 -0.00000000000E+00 -0.00000000000E+00  0.11368683772E-12  0.17120000000E+03  0.17120000000E+03 0.  0.
         13    1    1    2    0    0  0.32530615884E+02 -0.42187500850E+01  0.30079130299E+02  0.44506225022E+02  0.10566000000E+00 0.  1.
        994    1    1    2    0    0  0.18935765032E+02  0.12060046800E+02  0.17772343407E+02  0.17357794824E+03  0.17120000000E+03 0.  0.
        998    1    1    2    0    0 -0.51466380917E+02 -0.78412967149E+01  0.14521485226E+04  0.14531158267E+04  0.10000000000E+02 0.  1.
</event>
<event>
 5    1  0.1106231E-008  0.3829395E+03  0.7957747E-01  0.3438458E+00
         13   -1    0    0    0    0  0.00000000000E+00  0.00000000000E+00  0.14999999963E+04  0.15000000000E+04  0.10566000000E+00 0. -1.
        994   -1    0    0    0    0 -0.00000000000E+00 -0.00000000000E+00  0.11368683772E-12  0.17120000000E+03  0.17120000000E+03 0.  0.
         13    1    1    2    0    0 -0.85315493282E+01  0.83075629661E+01  0.25910188036E+02  0.28515819196E+02  0.10566000000E+00 0. -1.
        994    1    1    2    0    0  0.40532220676E+01 -0.50190961668E+01  0.27943994140E+01  0.17134429843E+03  0.17120000000E+03 0.  0.
        998    1    1    2    0    0  0.44783272606E+01 -0.32884667994E+01  0.14712954088E+04  0.14713398824E+04  0.10000000000E+02 0. -1.
</event>
<event>
 5    1  0.1106231E-008  0.3887655E+03  0.7957747E-01  0.3413857E+00
         13   -1    0    0    0    0  0.00000000000E+00  0.00000000000E+00  0.14999999963E+04  0.15000000000E+04  0.10566000000E+00 0. -1.
        994   -1    0    0    0    0 -0.00000000000E+00 -0.00000000000E+00  0.11368683772E-12  0.17120000000E+03  0.17120000000E+03 0.  0.
         13    1    1    2    0    0  0.38439064269E+02  0.66995170102E+02  0.13544457120E+03  0.15592035631E+03  0.10566000000E+00 0. -1.
        994    1    1    2    0    0  0.37186854124E+01 -0.57747423180E+02  0.33876162199E+02  0.18386306826E+03  0.17120000000E+03 0.  0.
        998    1    1    2    0    0 -0.42157749681E+02 -0.92477469220E+01  0.13306792629E+04  0.13314165754E+04  0.10000000000E+02 0. -1.
</event>
<event>
 5    1  0.1106231E-008  0.3845932E+03  0.7957747E-01  0.3431399E+00
         13   -1    0    0    0    0  0.00000000000E+00  0.00000000000E+00  0.14999999963E+04  0.15000000000E+04  0.10566000000E+00 0.  1.
        994   -1    0    0    0    0 -0.00000000000E+00 -0.00000000000E+00  0.11368683772E-12  0.17120000000E+03  0.17120000000E+03 0.  0.
         13    1    1    2    0    0 -0.46719230016E+01  0.15309408846E+02  0.77483151093E+02  0.79119243747E+02  0.10566000000E+00 0.  1.
        994    1    1    2    0    0 -0.90123426019E+01  0.27861577360E+01  0.21253202686E+01  0.17147286077E+03  0.17120000000E+03 0.  0.
        998    1    1    2    0    0  0.13684265604E+02 -0.18095566582E+02  0.14203915249E+04  0.14206078955E+04  0.10000000000E+02 0.  1.
</event>
<event>
 5    1  0.1106231E-008  0.3769574E+03  0.7957747E-01  0.3464514E+00
         13   -1    0    0    0    0  0.00000000000E+00  0.00000000000E+00  0.14999999963E+04  0.15000000000E+04  0.10566000000E+00 0. -1.
        994   -1    0    0    0    0 -0.00000000000E+00 -0.00000000000E+00  0.11368683772E-12  0.17120000000E+03  0.17120000000E+03 0.  0.
         13    1    1    2    0    0 -0.11593746776E+03  0.52680763990E+02  0.75553873718E+03  0.76619550629E+03  0.10566000000E+00 0. -1.
        994    1    1    2    0    0  0.11016216652E+03 -0.48489572692E+02  0.56277004646E+02  0.21671059698E+03  0.17120000000E+03 0.  0.
        998    1    1    2    0    0  0.57753012416E+01 -0.41911912981E+01  0.68818425446E+03  0.68829389673E+03  0.10000000000E+02 0.  0.
</event>
<event>
 5    1  0.1106231E-008  0.3824575E+03  0.7957747E-01  0.3440527E+00
         13   -1    0    0    0    0  0.00000000000E+00  0.00000000000E+00  0.14999999963E+04  0.15000000000E+04  0.10566000000E+00 0. -1.
        994   -1    0    0    0    0 -0.00000000000E+00 -0.00000000000E+00  0.11368683772E-12  0.17120000000E+03  0.17120000000E+03 0.  0.
         13    1    1    2    0    0 -0.41495174614E+00  0.14401738560E+02  0.33753131454E+02  0.36699690809E+02  0.10566000000E+00 0. -1.
        994    1    1    2    0    0 -0.12777550711E+02 -0.18593545606E+02  0.45873541296E+01  0.17274104769E+03  0.17120000000E+03 0.  0.
        998    1    1    2    0    0  0.13192502457E+02  0.41918070459E+01  0.14616595107E+04  0.14617592615E+04  0.10000000000E+02 0. -1.
</event>
<event>
 5    1  0.1106231E-008  0.3774874E+03  0.7957747E-01  0.3462172E+00
         13   -1    0    0    0    0  0.00000000000E+00  0.00000000000E+00  0.14999999963E+04  0.15000000000E+04  0.10566000000E+00 0.  1.
        994   -1    0    0    0    0 -0.00000000000E+00 -0.00000000000E+00  0.11368683772E-12  0.17120000000E+03  0.17120000000E+03 0.  0.
         13    1    1    2    0    0 -0.19539087282E+02 -0.89710306987E+01  0.35264949272E+02  0.41302338128E+02  0.10566000000E+00 0.  1.
        994    1    1    2    0    0  0.39470446886E+02  0.58381941311E+02  0.22335406756E+02  0.18647969767E+03  0.17120000000E+03 0.  0.
        998    1    1    2    0    0 -0.19931359604E+02 -0.49410910613E+02  0.14423996403E+04  0.14434179642E+04  0.10000000000E+02 0.  1.
</event>
<event>
 5    1  0.1106231E-008  0.3741171E+03  0.7957747E-01  0.3477181E+00
         13   -1    0    0    0    0  0.00000000000E+00  0.00000000000E+00  0.14999999963E+04  0.15000000000E+04  0.10566000000E+00 0.  1.
        994   -1    0    0    0    0 -0.00000000000E+00 -0.00000000000E+00  0.11368683772E-12  0.17120000000E+03  0.17120000000E+03 0.  0.
         13    1    1    2    0    0  0.16904159564E+02 -0.65901777795E+01  0.19769359654E+02  0.26833184658E+02  0.10566000000E+00 0.  1.
        994    1    1    2    0    0 -0.16062500149E+02  0.84065184248E+01  0.82541452721E+01  0.17235499522E+03  0.17120000000E+03 0.  0.
        998    1    1    2    0    0 -0.84165941561E+00 -0.18163406453E+01  0.14719764914E+04  0.14720118201E+04  0.10000000000E+02 0.  1.
</event>
<event>
 5    1  0.1106231E-008  0.3752045E+03  0.7957747E-01  0.3472309E+00
         13   -1    0    0    0    0  0.00000000000E+00  0.00000000000E+00  0.14999999963E+04  0.15000000000E+04  0.10566000000E+00 0. -1.
        994   -1    0    0    0    0 -0.00000000000E+00 -0.00000000000E+00  0.11368683772E-12  0.17120000000E+03  0.17120000000E+03 0.  0.
         13    1    1    2    0    0 -0.35444555843E+02 -0.11116641178E+02  0.10705244028E+03  0.11331430794E+03  0.10566000000E+00 0. -1.
        994    1    1    2    0    0  0.24113010140E+00  0.46119195948E+02  0.13833487600E+02  0.17784218779E+03  0.17120000000E+03 0.  0.
        998    1    1    2    0    0  0.35203425741E+02 -0.35002554770E+02  0.13791140684E+04  0.13800435043E+04  0.10000000000E+02 0. -1.
</event>
<event>
 5    1  0.1106231E-008  0.3798016E+03  0.7957747E-01  0.3452023E+00
         13   -1    0    0    0    0  0.00000000000E+00  0.00000000000E+00  0.14999999963E+04  0.15000000000E+04  0.10566000000E+00 0. -1.
        994   -1    0    0    0    0 -0.00000000000E+00 -0.00000000000E+00  0.11368683772E-12  0.17120000000E+03  0.17120000000E+03 0.  0.
         13    1    1    2    0    0 -0.12681613001E+02 -0.10912425161E+02  0.31194333002E+02  0.35397766973E+02  0.10566000000E+00 0. -1.
        994    1    1    2    0    0  0.10161855799E+02  0.85789886313E+01  0.48251507951E+01  0.17178353949E+03  0.17120000000E+03 0.  0.
        998    1    1    2    0    0  0.25197572023E+01  0.23334365301E+01  0.14639805125E+04  0.14640186935E+04  0.10000000000E+02 0. -1.
</event>
<event>
 5    1  0.1106231E-008  0.3787850E+03  0.7957747E-01  0.3456466E+00
         13   -1    0    0    0    0  0.00000000000E+00  0.00000000000E+00  0.14999999963E+04  0.15000000000E+04  0.10566000000E+00 0. -1.
        994   -1    0    0    0    0 -0.00000000000E+00 -0.00000000000E+00  0.11368683772E-12  0.17120000000E+03  0.17120000000E+03 0.  0.
         13    1    1    2    0    0  0.72928234947E+02  0.13342467596E+02  0.41299818333E+03  0.41959988024E+03  0.10566000000E+00 0. -1.
        994    1    1    2    0    0 -0.72577296113E+02 -0.21881110155E+02  0.24282844112E+02  0.18879974420E+03  0.17120000000E+03 0.  0.
        998    1    1    2    0    0 -0.35093883418E+00  0.85386425593E+01  0.10627189688E+04  0.10628003756E+04  0.10000000000E+02 0. -1.
</event>
<event>
 5    1  0.1106231E-008  0.3780284E+03  0.7957747E-01  0.3459788E+00
         13   -1    0    0    0    0  0.00000000000E+00  0.00000000000E+00  0.14999999963E+04  0.15000000000E+04  0.10566000000E+00 0. -1.
        994   -1    0    0    0    0 -0.00000000000E+00 -0.00000000000E+00  0.11368683772E-12  0.17120000000E+03  0.17120000000E+03 0.  0.
         13    1    1    2    0    0  0.30308891078E+02  0.20597715787E+02  0.13075436876E+03  0.13579252884E+03  0.10566000000E+00 0. -1.
        994    1    1    2    0    0 -0.46721683569E+01 -0.28235622748E+02  0.78927122301E+01  0.17375504153E+03  0.17120000000E+03 0.  0.
        998    1    1    2    0    0 -0.25636722721E+02  0.76379069615E+01  0.13613529153E+04  0.13616524296E+04  0.10000000000E+02 0. -1.
</event>
<event>
 5    1  0.1106231E-008  0.3841131E+03  0.7957747E-01  0.3433442E+00
         13   -1    0    0    0    0  0.00000000000E+00  0.00000000000E+00  0.14999999963E+04  0.15000000000E+04  0.10566000000E+00 0. -1.
        994   -1    0    0    0    0 -0.00000000000E+00 -0.00000000000E+00  0.11368683772E-12  0.17120000000E+03  0.17120000000E+03 0.  0.
         13    1    1    2    0    0 -0.15907636453E+02 -0.54236606896E+01  0.68669713655E+02  0.70696603386E+02  0.10566000000E+00 0. -1.
        994    1    1    2    0    0  0.83975353908E+01  0.25264180810E+01  0.23247566052E+01  0.17144021081E+03  0.17120000000E+03 0.  0.
        998    1    1    2    0    0  0.75101010618E+01  0.28972426086E+01  0.14290055260E+04  0.14290631858E+04  0.10000000000E+02 0. -1.
</event>
<event>
 5    1  0.1106231E-008  0.3798217E+03  0.7957747E-01  0.3451935E+00
         13   -1    0    0    0    0  0.00000000000E+00  0.00000000000E+00  0.14999999963E+04  0.15000000000E+04  0.10566000000E+00 0. -1.
        994   -1    0    0    0    0 -0.00000000000E+00 -0.00000000000E+00  0.11368683772E-12  0.17120000000E+03  0.17120000000E+03 0.  0.
         13    1    1    2    0    0 -0.23613435929E+02 -0.88751340225E+01  0.73149807537E+02  0.77377437713E+02  0.10566000000E+00 0. -1.
        994    1    1    2    0    0  0.18252157960E+02  0.24587859226E+01  0.53585161210E+01  0.17227112525E+03  0.17120000000E+03 0.  0.
        998    1    1    2    0    0  0.53612779696E+01  0.64163480999E+01  0.14214916726E+04  0.14215514370E+04  0.10000000000E+02 0.  0.
</event>
<event>
 5    1  0.1106231E-008  0.3855243E+03  0.7957747E-01  0.3427452E+00
         13   -1    0    0    0    0  0.00000000000E+00  0.00000000000E+00  0.14999999963E+04  0.15000000000E+04  0.10566000000E+00 0. -1.
        994   -1    0    0    0    0 -0.00000000000E+00 -0.00000000000E+00  0.11368683772E-12  0.17120000000E+03  0.17120000000E+03 0.  0.
         13    1    1    2    0    0 -0.13087157803E+02 -0.81001727376E+01  0.83717740902E+02  0.85120842357E+02  0.10566000000E+00 0. -1.
        994    1    1    2    0    0  0.10576478896E+02  0.11137530329E+02  0.21449258163E+01  0.17190098078E+03  0.17120000000E+03 0.  0.
        998    1    1    2    0    0  0.25106789071E+01 -0.30373575914E+01  0.14141373296E+04  0.14141781769E+04  0.10000000000E+02 0. -1.
</event>
<event>
 5    1  0.1106231E-008  0.3808401E+03  0.7957747E-01  0.3447509E+00
         13   -1    0    0    0    0  0.00000000000E+00  0.00000000000E+00  0.14999999963E+04  0.15000000000E+04  0.10566000000E+00 0.  1.
        994   -1    0    0    0    0 -0.00000000000E+00 -0.00000000000E+00  0.11368683772E-12  0.17120000000E+03  0.17120000000E+03 0.  0.
         13    1    1    2    0    0  0.19096354667E+02  0.26216833294E+02  0.12483528247E+03  0.12898004506E+03  0.10566000000E+00 0.  1.
        994    1    1    2    0    0 -0.32136500013E+02 -0.25359231122E+02  0.93166381621E+01  0.17627275735E+03  0.17120000000E+03 0.  0.
        998    1    1    2    0    0  0.13040145345E+02 -0.85760217135E+00  0.13658480756E+04  0.13659471976E+04  0.10000000000E+02 0.  1.
</event>
<event>
 5    1  0.1106231E-008  0.3734865E+03  0.7957747E-01  0.3480020E+00
         13   -1    0    0    0    0  0.00000000000E+00  0.00000000000E+00  0.14999999963E+04  0.15000000000E+04  0.10566000000E+00 0. -1.
        994   -1    0    0    0    0 -0.00000000000E+00 -0.00000000000E+00  0.11368683772E-12  0.17120000000E+03  0.17120000000E+03 0.  0.
         13    1    1    2    0    0 -0.14067352311E+02 -0.14192120259E+02  0.23442221824E+02  0.30803499908E+02  0.10566000000E+00 0. -1.
        994    1    1    2    0    0  0.16475577282E+02  0.77164577781E+01  0.85896982080E+01  0.17237810558E+03  0.17120000000E+03 0.  0.
        998    1    1    2    0    0 -0.24082249705E+01  0.64756624810E+01  0.14679680762E+04  0.14680183945E+04  0.10000000000E+02 0. -1.
</event>
<event>
 5    1  0.1106231E-008  0.3723694E+03  0.7957747E-01  0.3485072E+00
         13   -1    0    0    0    0  0.00000000000E+00  0.00000000000E+00  0.14999999963E+04  0.15000000000E+04  0.10566000000E+00 0. -1.
        994   -1    0    0    0    0 -0.00000000000E+00 -0.00000000000E+00  0.11368683772E-12  0.17120000000E+03  0.17120000000E+03 0.  0.
         13    1    1    2    0    0  0.26164455977E+02  0.25535208937E+02  0.75793590747E+02  0.84150491468E+02  0.10566000000E+00 0. -1.
        994    1    1    2    0    0 -0.67998393582E+01 -0.49504179654E+02  0.16648358553E+02  0.17911870215E+03  0.17120000000E+03 0.  0.
        998    1    1    2    0    0 -0.19364616619E+02  0.23968970717E+02  0.14075580470E+04  0.14079308064E+04  0.10000000000E+02 0. -1.
</event>
<event>
 5    1  0.1106231E-008  0.3719084E+03  0.7957747E-01  0.3487166E+00
         13   -1    0    0    0    0  0.00000000000E+00  0.00000000000E+00  0.14999999963E+04  0.15000000000E+04  0.10566000000E+00 0. -1.
        994   -1    0    0    0    0 -0.00000000000E+00 -0.00000000000E+00  0.11368683772E-12  0.17120000000E+03  0.17120000000E+03 0.  0.
         13    1    1    2    0    0  0.18101617687E+02 -0.27984613813E+02  0.41145088978E+02  0.52950322796E+02  0.10566000000E+00 0. -1.
        994    1    1    2    0    0 -0.15536521255E+02  0.24870308481E+02  0.14983880611E+02  0.17433838480E+03  0.17120000000E+03 0.  0.
        998    1    1    2    0    0 -0.25650964324E+01  0.31143053319E+01  0.14438710267E+04  0.14439112924E+04  0.10000000000E+02 0. -1.
</event>
<event>
 5    1  0.1106231E-008  0.3752228E+03  0.7957747E-01  0.3472227E+00
         13   -1    0    0    0    0  0.00000000000E+00  0.00000000000E+00  0.14999999963E+04  0.15000000000E+04  0.10566000000E+00 0. -1.
        994   -1    0    0    0    0 -0.00000000000E+00 -0.00000000000E+00  0.11368683772E-12  0.17120000000E+03  0.17120000000E+03 0.  0.
         13    1    1    2    0    0 -0.49673477420E+02  0.43964857638E+02  0.27455417827E+03  0.28245419281E+03  0.10566000000E+00 0. -1.
        994    1    1    2    0    0  0.52620271344E+02 -0.39299618217E+02  0.21359182858E+02  0.18460500438E+03  0.17120000000E+03 0.  0.
        998    1    1    2    0    0 -0.29467939237E+01 -0.46652394207E+01  0.12040866351E+04  0.12041408028E+04  0.10000000000E+02 0.  0.
</event>
<event>
 5    1  0.1106231E-008  0.3727717E+03  0.7957747E-01  0.3483249E+00
         13   -1    0    0    0    0  0.00000000000E+00  0.00000000000E+00  0.14999999963E+04  0.15000000000E+04  0.10566000000E+00 0.  1.
        994   -1    0    0    0    0 -0.00000000000E+00 -0.00000000000E+00  0.11368683772E-12  0.17120000000E+03  0.17120000000E+03 0.  0.
         13    1    1    2    0    0  0.11150865633E+02 -0.72634387937E+01  0.78670462461E+01  0.15459654852E+02  0.10566000000E+00 0.  1.
        994    1    1    2    0    0 -0.90416055997E+01 -0.66114017725E+01  0.82572817781E+01  0.17176461792E+03  0.17120000000E+03 0.  0.
        998    1    1    2    0    0 -0.21092600330E+01  0.13874840566E+02  0.14838756683E+04  0.14839757272E+04  0.10000000000E+02 0.  1.
</event>
<event>
 5    1  0.1106231E-008  0.3822239E+03  0.7957747E-01  0.3441532E+00
         13   -1    0    0    0    0  0.00000000000E+00  0.00000000000E+00  0.14999999963E+04  0.15000000000E+04  0.10566000000E+00 0.  1.
        994   -1    0    0    0    0 -0.00000000000E+00 -0.00000000000E+00  0.11368683772E-12  0.17120000000E+03  0.17120000000E+03 0.  0.
         13    1    1    2    0    0  0.25600706275E+00  0.18895308669E+02  0.63528427061E+02  0.66279487311E+02  0.10566000000E+00 0.  1.
        994    1    1    2    0    0  0.83523760633E+01  0.57107730518E+01  0.33545493303E+01  0.17153153680E+03  0.17120000000E+03 0.  0.
        998    1    1    2    0    0 -0.86083831261E+01 -0.24606081721E+02  0.14331170199E+04  0.14333889759E+04  0.10000000000E+02 0.  1.
</event>
<event>
 5    1  0.1106231E-008  0.3830472E+03  0.7957747E-01  0.3437997E+00
         13   -1    0    0    0    0  0.00000000000E+00  0.00000000000E+00  0.14999999963E+04  0.15000000000E+04  0.10566000000E+00 0. -1.
        994   -1    0    0    0    0 -0.00000000000E+00 -0.00000000000E+00  0.11368683772E-12  0.17120000000E+03  0.17120000000E+03 0.  0.
         13    1    1    2    0    0 -0.24203115881E+02  0.11470870899E+02  0.12465807358E+03  0.12750301240E+03  0.10566000000E+00 0. -1.
        994    1    1    2    0    0  0.25642102735E+02 -0.15522030896E+02  0.55819711550E+01  0.17389378735E+03  0.17120000000E+03 0.  0.
        998    1    1    2    0    0 -0.14389868542E+01  0.40511599968E+01  0.13697599515E+04  0.13698032003E+04  0.10000000000E+02 0. -1.
</event>
<event>
 5    1  0.1106231E-008  0.4043271E+03  0.7957747E-01  0.3351623E+00
         13   -1    0    0    0    0  0.00000000000E+00  0.00000000000E+00  0.14999999963E+04  0.15000000000E+04  0.10566000000E+00 0.  1.
        994   -1    0    0    0    0 -0.00000000000E+00 -0.00000000000E+00  0.11368683772E-12  0.17120000000E+03  0.17120000000E+03 0.  0.
         13    1    1    2    0    0  0.13145773527E+02  0.29557301619E+02  0.45470461980E+01  0.32666989971E+02  0.10566000000E+00 0.  1.
        994    1    1    2    0    0 -0.15455482115E+02 -0.28876614384E+02  0.34676879428E+02  0.17772072685E+03  0.17120000000E+03 0.  0.
        998    1    1    2    0    0  0.23097085886E+01 -0.68068723504E+00  0.14607760707E+04  0.14608122832E+04  0.10000000000E+02 0.  1.
</event>
<event>
 5    1  0.1106231E-008  0.3820207E+03  0.7957747E-01  0.3442407E+00
         13   -1    0    0    0    0  0.00000000000E+00  0.00000000000E+00  0.14999999963E+04  0.15000000000E+04  0.10566000000E+00 0. -1.
        994   -1    0    0    0    0 -0.00000000000E+00 -0.00000000000E+00  0.11368683772E-12  0.17120000000E+03  0.17120000000E+03 0.  0.
         13    1    1    2    0    0  0.14919549383E+02 -0.34870166300E+01  0.37083516267E+02  0.40124189481E+02  0.10566000000E+00 0. -1.
        994    1    1    2    0    0 -0.73725074891E+01 -0.33808646672E+01  0.33350575069E+01  0.17142446360E+03  0.17120000000E+03 0.  0.
        998    1    1    2    0    0 -0.75470418944E+01  0.68678812973E+01  0.14595814225E+04  0.14596513469E+04  0.10000000000E+02 0. -1.
</event>
<event>
 5    1  0.1106231E-008  0.3835110E+03  0.7957747E-01  0.3436012E+00
         13   -1    0    0    0    0  0.00000000000E+00  0.00000000000E+00  0.14999999963E+04  0.15000000000E+04  0.10566000000E+00 0.  1.
        994   -1    0    0    0    0 -0.00000000000E+00 -0.00000000000E+00  0.11368683772E-12  0.17120000000E+03  0.17120000000E+03 0.  0.
         13    1    1    2    0    0  0.22339880124E+02  0.96748466814E+01  0.13919366330E+03  0.14130661686E+03  0.10566000000E+00 0.  1.
        994    1    1    2    0    0  0.19230716368E+01 -0.64712468637E+01  0.25218301674E+01  0.17135161180E+03  0.17120000000E+03 0.  0.
        998    1    1    2    0    0 -0.24262951761E+02 -0.32035998177E+01  0.13582845028E+04  0.13585417713E+04  0.10000000000E+02 0.  1.
</event>
<event>
 5    1  0.1106231E-008  0.3837271E+03  0.7957747E-01  0.3435089E+00
         13   -1    0    0    0    0  0.00000000000E+00  0.00000000000E+00  0.14999999963E+04  0.15000000000E+04  0.10566000000E+00 0. -1.
        994   -1    0    0    0    0 -0.00000000000E+00 -0.00000000000E+00  0.11368683772E-12  0.17120000000E+03  0.17120000000E+03 0.  0.
         13    1    1    2    0    0  0.78720788602E+01  0.16809091612E+02  0.85299953854E+02  0.87296096579E+02  0.10566000000E+00 0. -1.
        994    1    1    2    0    0 -0.80228893308E+00  0.82650168227E+01  0.24911816654E+01  0.17141936926E+03  0.17120000000E+03 0.  0.
        998    1    1    2    0    0 -0.70697899271E+01 -0.25074108435E+02  0.14122088608E+04  0.14124845342E+04  0.10000000000E+02 0. -1.
</event>
<event>
 5    1  0.1106231E-008  0.3796521E+03  0.7957747E-01  0.3452675E+00
         13   -1    0    0    0    0  0.00000000000E+00  0.00000000000E+00  0.14999999963E+04  0.15000000000E+04  0.10566000000E+00 0.  1.
        994   -1    0    0    0    0 -0.00000000000E+00 -0.00000000000E+00  0.11368683772E-12  0.17120000000E+03  0.17120000000E+03 0.  0.
         13    1    1    2    0    0  0.34982901101E+02  0.13758413562E+02  0.19873034418E+03  0.20225443920E+03  0.10566000000E+00 0.  1.
        994    1    1    2    0    0  0.28081962275E+01  0.65452730039E+01  0.44786392375E+01  0.17140660657E+03  0.17120000000E+03 0.  0.
        998    1    1    2    0    0 -0.37791097329E+02 -0.20303686566E+02  0.12967910129E+04  0.12975389542E+04  0.10000000000E+02 0.  1.
</event>
<event>
 5    1  0.1106231E-008  0.3782898E+03  0.7957747E-01  0.3458639E+00
         13   -1    0    0    0    0  0.00000000000E+00  0.00000000000E+00  0.14999999963E+04  0.15000000000E+04  0.10566000000E+00 0.  1.
        994   -1    0    0    0    0 -0.00000000000E+00 -0.00000000000E+00  0.11368683772E-12  0.17120000000E+03  0.17120000000E+03 0.  0.
         13    1    1    2    0    0  0.72901475907E+02  0.21616325550E+02  0.16960817430E+03  0.18587316824E+03  0.10566000000E+00 0.  1.
        994    1    1    2    0    0 -0.62042688464E+02 -0.23981823352E+02  0.31500558021E+02  0.18634953233E+03  0.17120000000E+03 0.  0.
        998    1    1    2    0    0 -0.10858787443E+02  0.23654978025E+01  0.12988912640E+04  0.12989772994E+04  0.10000000000E+02 0.  1.
</event>
<event>
 5    1  0.1106231E-008  0.3747108E+03  0.7957747E-01  0.3474517E+00
         13   -1    0    0    0    0  0.00000000000E+00  0.00000000000E+00  0.14999999963E+04  0.15000000000E+04  0.10566000000E+00 0.  1.
        994   -1    0    0    0    0 -0.00000000000E+00 -0.00000000000E+00  0.11368683772E-12  0.17120000000E+03  0.17120000000E+03 0.  0.
         13    1    1    2    0    0 -0.21639150783E+02  0.48829324983E+02  0.20576221364E+03  0.21258093882E+03  0.10566000000E+00 0.  1.
        994    1    1    2    0    0  0.93167125621E+01 -0.30529611032E+02  0.10301840550E+02  0.17445465371E+03  0.17120000000E+03 0.  0.
        998    1    1    2    0    0  0.12322438221E+02 -0.18299713951E+02  0.12839359421E+04  0.12841644075E+04  0.10000000000E+02 0.  1.
</event>
<event>
 5    1  0.1106231E-008  0.3837435E+03  0.7957747E-01  0.3435019E+00
         13   -1    0    0    0    0  0.00000000000E+00  0.00000000000E+00  0.14999999963E+04  0.15000000000E+04  0.10566000000E+00 0.  1.
        994   -1    0    0    0    0 -0.00000000000E+00 -0.00000000000E+00  0.11368683772E-12  0.17120000000E+03  0.17120000000E+03 0.  0.
         13    1    1    2    0    0  0.10951267430E+02  0.15498484191E+02  0.77930735004E+02  0.80208128596E+02  0.10566000000E+00 0.  1.
        994    1    1    2    0    0 -0.56436804315E+01 -0.14551810074E+02  0.30600952223E+01  0.17193722834E+03  0.17120000000E+03 0.  0.
        998    1    1    2    0    0 -0.53075869987E+01 -0.94667411702E+00  0.14190091661E+04  0.14190546431E+04  0.10000000000E+02 0.  1.
</event>
<event>
 5    1  0.1106231E-008  0.3784971E+03  0.7957747E-01  0.3457729E+00
         13   -1    0    0    0    0  0.00000000000E+00  0.00000000000E+00  0.14999999963E+04  0.15000000000E+04  0.10566000000E+00 0. -1.
        994   -1    0    0    0    0 -0.00000000000E+00 -0.00000000000E+00  0.11368683772E-12  0.17120000000E+03  0.17120000000E+03 0.  0.
         13    1    1    2    0    0 -0.39514673189E+01  0.26767336539E+02  0.70911777313E+02  0.75898588427E+02  0.10566000000E+00 0. -1.
        994    1    1    2    0    0  0.58684482762E+01 -0.23555878612E+02  0.68761201519E+01  0.17304923904E+03  0.17120000000E+03 0.  0.
        998    1    1    2    0    0 -0.19169809573E+01 -0.32114579277E+01  0.14222120988E+04  0.14222521725E+04  0.10000000000E+02 0. -1.
</event>
<event>
 5    1  0.1106231E-008  0.3826649E+03  0.7957747E-01  0.3439636E+00
         13   -1    0    0    0    0  0.00000000000E+00  0.00000000000E+00  0.14999999963E+04  0.15000000000E+04  0.10566000000E+00 0.  1.
        994   -1    0    0    0    0 -0.00000000000E+00 -0.00000000000E+00  0.11368683772E-12  0.17120000000E+03  0.17120000000E+03 0.  0.
         13    1    1    2    0    0 -0.17126393795E+02 -0.92901187884E+01  0.63634940409E+02  0.66551006577E+02  0.10566000000E+00 0.  1.
        994    1    1    2    0    0  0.22197451900E+02  0.80351455516E+01  0.46428050641E+01  0.17288228965E+03  0.17120000000E+03 0.  0.
        998    1    1    2    0    0 -0.50710581050E+01  0.12549732368E+01  0.14317222508E+04  0.14317667038E+04  0.10000000000E+02 0.  1.
</event>
<event>
 5    1  0.1106231E-008  0.3688717E+03  0.7957747E-01  0.3501092E+00
         13   -1    0    0    0    0  0.00000000000E+00  0.00000000000E+00  0.14999999963E+04  0.15000000000E+04  0.10566000000E+00 0.  1.
        994   -1    0    0    0    0 -0.00000000000E+00 -0.00000000000E+00  0.11368683772E-12  0.17120000000E+03  0.17120000000E+03 0.  0.
         13    1    1    2    0    0 -0.40567407530E+01  0.10779079983E+02  0.20239869266E+01  0.11694160848E+02  0.10566000000E+00 0.  1.
        994    1    1    2    0    0  0.96958733806E+01 -0.18868517438E+02  0.11423672993E+02  0.17288716325E+03  0.17120000000E+03 0.  0.
        998    1    1    2    0    0 -0.56391326276E+01  0.80894374542E+01  0.14865523364E+04  0.14866186759E+04  0.10000000000E+02 0.  1.
</event>
<event>
 5    1  0.1106231E-008  0.4296522E+03  0.7957747E-01  0.3259887E+00
         13   -1    0    0    0    0  0.00000000000E+00  0.00000000000E+00  0.14999999963E+04  0.15000000000E+04  0.10566000000E+00 0. -1.
        994   -1    0    0    0    0 -0.00000000000E+00 -0.00000000000E+00  0.11368683772E-12  0.17120000000E+03  0.17120000000E+03 0.  0.
         13    1    1    2    0    0  0.17244498451E+01 -0.65223210717E+02  0.13608104896E+02  0.66650075967E+02  0.10566000000E+00 0. -1.
        994    1    1    2    0    0  0.14415231096E+03  0.14554754473E+03  0.28074733474E+03  0.38741771062E+03  0.17120000000E+03 0.  0.
        998    1    1    2    0    0 -0.14587676081E+03 -0.80324334016E+02  0.12056445566E+04  0.12171322134E+04  0.10000000000E+02 0. -1.
</event>
<event>
 5    1  0.1106231E-008  0.3689392E+03  0.7957747E-01  0.3500780E+00
         13   -1    0    0    0    0  0.00000000000E+00  0.00000000000E+00  0.14999999963E+04  0.15000000000E+04  0.10566000000E+00 0.  1.
        994   -1    0    0    0    0 -0.00000000000E+00 -0.00000000000E+00  0.11368683772E-12  0.17120000000E+03  0.17120000000E+03 0.  0.
         13    1    1    2    0    0  0.11060041876E+02 -0.22456045418E+02  0.27302733407E+02  0.37041178675E+02  0.10566000000E+00 0.  1.
        994    1    1    2    0    0  0.10752440747E+02  0.33092967856E+02  0.14037988696E+02  0.17526341498E+03  0.17120000000E+03 0.  0.
        998    1    1    2    0    0 -0.21812482623E+02 -0.10636922438E+02  0.14586592742E+04  0.14588954063E+04  0.10000000000E+02 0.  1.
</event>
<event>
 5    1  0.1106231E-008  0.3842632E+03  0.7957747E-01  0.3432803E+00
         13   -1    0    0    0    0  0.00000000000E+00  0.00000000000E+00  0.14999999963E+04  0.15000000000E+04  0.10566000000E+00 0.  1.
        994   -1    0    0    0    0 -0.00000000000E+00 -0.00000000000E+00  0.11368683772E-12  0.17120000000E+03  0.17120000000E+03 0.  0.
         13    1    1    2    0    0  0.93730066734E+01  0.11141982328E+02  0.52889434394E+02  0.54857091236E+02  0.10566000000E+00 0.  1.
        994    1    1    2    0    0 -0.19195305004E+01 -0.10288391785E+02  0.23575470863E+01  0.17153580860E+03  0.17120000000E+03 0.  0.
        998    1    1    2    0    0 -0.74534761730E+01 -0.85359054252E+00  0.14447530148E+04  0.14448071002E+04  0.10000000000E+02 0.  1.
</event>
<event>
 5    1  0.1106231E-008  0.3748223E+03  0.7957747E-01  0.3474018E+00
         13   -1    0    0    0    0  0.00000000000E+00  0.00000000000E+00  0.14999999963E+04  0.15000000000E+04  0.10566000000E+00 0.  1.
        994   -1    0    0    0    0 -0.00000000000E+00 -0.00000000000E+00  0.11368683772E-12  0.17120000000E+03  0.17120000000E+03 0.  0.
         13    1    1    2    0    0 -0.72526209568E+01 -0.61643159641E+02  0.28847624673E+03  0.29507801635E+03  0.10566000000E+00 0.  1.
        994    1    1    2    0    0  0.16493638090E+01  0.32582343025E+02  0.10398619083E+02  0.17459066629E+03  0.17120000000E+03 0.  0.
        998    1    1    2    0    0  0.56032571478E+01  0.29060816616E+02  0.12011251305E+04  0.12015313174E+04  0.10000000000E+02 0.  1.
</event>
<event>
 5    1  0.1106231E-008  0.3776257E+03  0.7957747E-01  0.3461562E+00
         13   -1    0    0    0    0  0.00000000000E+00  0.00000000000E+00  0.14999999963E+04  0.15000000000E+04  0.10566000000E+00 0. -1.
        994   -1    0    0    0    0 -0.00000000000E+00 -0.00000000000E+00  0.11368683772E-12  0.17120000000E+03  0.17120000000E+03 0.  0.
         13    1    1    2    0    0  0.89246819521E+02  0.10161264789E+03  0.71810723296E+03  0.73073123253E+03  0.10566000000E+00 0. -1.
        994    1    1    2    0    0 -0.10727030481E+03 -0.98260735814E+02  0.80319667691E+02  0.23858495241E+03  0.17120000000E+03 0.  0.
        998    1    1    2    0    0  0.18023485288E+02 -0.33519120724E+01  0.70157309563E+03  0.70188381506E+03  0.10000000000E+02 0. -1.
</event>
<event>
 5    1  0.1106231E-008  0.3812007E+03  0.7957747E-01  0.3445947E+00
         13   -1    0    0    0    0  0.00000000000E+00  0.00000000000E+00  0.14999999963E+04  0.15000000000E+04  0.10566000000E+00 0. -1.
        994   -1    0    0    0    0 -0.00000000000E+00 -0.00000000000E+00  0.11368683772E-12  0.17120000000E+03  0.17120000000E+03 0.  0.
         13    1    1    2    0    0 -0.42319820225E+02  0.57560253917E+02  0.36926498124E+03  0.37611273250E+03  0.10566000000E+00 0. -1.
        994    1    1    2    0    0  0.83492867188E+02 -0.72460830043E+02  0.45354202506E+02  0.20877757170E+03  0.17120000000E+03 0.  0.
        998    1    1    2    0    0 -0.41173046962E+02  0.14900576126E+02  0.10853808125E+04  0.10863096958E+04  0.10000000000E+02 0. -1.
</event>
<event>
 5    1  0.1106231E-008  0.3705966E+03  0.7957747E-01  0.3493154E+00
         13   -1    0    0    0    0  0.00000000000E+00  0.00000000000E+00  0.14999999963E+04  0.15000000000E+04  0.10566000000E+00 0. -1.
        994   -1    0    0    0    0 -0.00000000000E+00 -0.00000000000E+00  0.11368683772E-12  0.17120000000E+03  0.17120000000E+03 0.  0.
         13    1    1    2    0    0 -0.14503564180E+02  0.16810446008E+01  0.42751218098E+01  0.15214043361E+02  0.10566000000E+00 0. -1.
        994    1    1    2    0    0  0.15537330074E+02 -0.18226157146E+01  0.12112422240E+02  0.17233943636E+03  0.17120000000E+03 0.  0.
        998    1    1    2    0    0 -0.10337658943E+01  0.14157111384E+00  0.14836124522E+04  0.14836465203E+04  0.10000000000E+02 0. -1.
</event>
<event>
 5    1  0.1106231E-008  0.3856408E+03  0.7957747E-01  0.3426959E+00
         13   -1    0    0    0    0  0.00000000000E+00  0.00000000000E+00  0.14999999963E+04  0.15000000000E+04  0.10566000000E+00 0.  1.
        994   -1    0    0    0    0 -0.00000000000E+00 -0.00000000000E+00  0.11368683772E-12  0.17120000000E+03  0.17120000000E+03 0.  0.
         13    1    1    2    0    0  0.14147984018E+02  0.45228398852E+01  0.78275675588E+02  0.79672542856E+02  0.10566000000E+00 0.  1.
        994    1    1    2    0    0 -0.19980397580E+02 -0.30738510041E+01  0.26546600464E+01  0.17240983750E+03  0.17120000000E+03 0.  0.
        998    1    1    2    0    0  0.58324135611E+01 -0.14489888811E+01  0.14190696606E+04  0.14191176196E+04  0.10000000000E+02 0.  1.
</event>
<event>
 5    1  0.1106231E-008  0.2809209E+03  0.7957747E-01  0.4042404E+00
         13   -1    0    0    0    0  0.00000000000E+00  0.00000000000E+00  0.14999999963E+04  0.15000000000E+04  0.10566000000E+00 0. -1.
        994   -1    0    0    0    0 -0.00000000000E+00 -0.00000000000E+00  0.11368683772E-12  0.17120000000E+03  0.17120000000E+03 0.  0.
         13    1    1    2    0    0  0.16432795372E+03  0.61088908660E+02  0.49118418585E+03  0.52153374457E+03  0.10566000000E+00 0. -1.
        994    1    1    2    0    0 -0.18527468971E+03 -0.55299941209E+02  0.16707287338E+03  0.30758345073E+03  0.17120000000E+03 0.  0.
        998    1    1    2    0    0  0.20946735989E+02 -0.57889674508E+01  0.84174293705E+03  0.84208280470E+03  0.10000000000E+02 0. -1.
</event>
<event>
 5    1  0.1106231E-008  0.3823131E+03  0.7957747E-01  0.3441148E+00
         13   -1    0    0    0    0  0.00000000000E+00  0.00000000000E+00  0.14999999963E+04  0.15000000000E+04  0.10566000000E+00 0. -1.
        994   -1    0    0    0    0 -0.00000000000E+00 -0.00000000000E+00  0.11368683772E-12  0.17120000000E+03  0.17120000000E+03 0.  0.
         13    1    1    2    0    0  0.40530026297E+01  0.12034932230E+02 -0.34746362627E+01  0.13166270743E+02  0.10566000000E+00 0. -1.
        994    1    1    2    0    0 -0.23193954785E+02  0.71542045035E+01  0.19759544662E+02  0.17403741490E+03  0.17120000000E+03 0.  0.
        998    1    1    2    0    0  0.19140952155E+02 -0.19189136733E+02  0.14837150879E+04  0.14839963144E+04  0.10000000000E+02 0. -1.
</event>
<event>
 5    1  0.1106231E-008  0.3782900E+03  0.7957747E-01  0.3458638E+00
         13   -1    0    0    0    0  0.00000000000E+00  0.00000000000E+00  0.14999999963E+04  0.15000000000E+04  0.10566000000E+00 0.  1.
        994   -1    0    0    0    0 -0.00000000000E+00 -0.00000000000E+00  0.11368683772E-12  0.17120000000E+03  0.17120000000E+03 0.  0.
         13    1    1    2    0    0  0.32491291606E+02  0.46277524754E+02  0.26805180152E+03  0.27395085835E+03  0.10566000000E+00 0.  1.
        994    1    1    2    0    0 -0.32595707438E+02 -0.43290266580E+02  0.14935470747E+02  0.18019166354E+03  0.17120000000E+03 0.  0.
        998    1    1    2    0    0  0.10441583156E+00 -0.29872581746E+01  0.12170127240E+04  0.12170574781E+04  0.10000000000E+02 0.  0.
</event>
<event>
 5    1  0.1106231E-008  0.3849471E+03  0.7957747E-01  0.3429897E+00
         13   -1    0    0    0    0  0.00000000000E+00  0.00000000000E+00  0.14999999963E+04  0.15000000000E+04  0.10566000000E+00 0.  1.
        994   -1    0    0    0    0 -0.00000000000E+00 -0.00000000000E+00  0.11368683772E-12  0.17120000000E+03  0.17120000000E+03 0.  0.
         13    1    1    2    0    0  0.14102558503E+02 -0.11653960123E+01  0.61157288917E+02  0.62773126861E+02  0.10566000000E+00 0.  1.
        994    1    1    2    0    0 -0.77774374730E+01 -0.43670452905E+01  0.19181328953E+01  0.17144293176E+03  0.17120000000E+03 0.  0.
        998    1    1    2    0    0 -0.63251210300E+01  0.55324413028E+01  0.14369245745E+04  0.14369839414E+04  0.10000000000E+02 0.  1.
</event>
<event>
 5    1  0.1106231E-008  0.3804539E+03  0.7957747E-01  0.3449185E+00
         13   -1    0    0    0    0  0.00000000000E+00  0.00000000000E+00  0.14999999963E+04  0.15000000000E+04  0.10566000000E+00 0.  1.
        994   -1    0    0    0    0 -0.00000000000E+00 -0.00000000000E+00  0.11368683772E-12  0.17120000000E+03  0.17120000000E+03 0.  0.
         13    1    1    2    0    0 -0.25645713019E+02  0.16892140035E+02  0.10812448027E+03  0.11240089585E+03  0.10566000000E+00 0.  1.
        994    1    1    2    0    0  0.28402924428E+02 -0.23968209115E+02  0.85283067149E+01  0.17539490637E+03  0.17120000000E+03 0.  0.
        998    1    1    2    0    0 -0.27572114097E+01  0.70760690798E+01  0.13833472093E+04  0.13834041978E+04  0.10000000000E+02 0.  1.
</event>
<event>
 5    1  0.1106231E-008  0.3849553E+03  0.7957747E-01  0.3429862E+00
         13   -1    0    0    0    0  0.00000000000E+00  0.00000000000E+00  0.14999999963E+04  0.15000000000E+04  0.10566000000E+00 0. -1.
        994   -1    0    0    0    0 -0.00000000000E+00 -0.00000000000E+00  0.11368683772E-12  0.17120000000E+03  0.17120000000E+03 0.  0.
         13    1    1    2    0    0  0.12276508657E+02 -0.93503935605E+01  0.67352945749E+02  0.69098284997E+02  0.10566000000E+00 0. -1.
        994    1    1    2    0    0 -0.22820454885E+02  0.45931473854E+01  0.34366207705E+01  0.17280949200E+03  0.17120000000E+03 0.  0.
        998    1    1    2    0    0  0.10543946227E+02  0.47572461751E+01  0.14292104298E+04  0.14292922230E+04  0.10000000000E+02 0. -1.
</event>
<event>
 5    1  0.1106231E-008  0.3739625E+03  0.7957747E-01  0.3477876E+00
         13   -1    0    0    0    0  0.00000000000E+00  0.00000000000E+00  0.14999999963E+04  0.15000000000E+04  0.10566000000E+00 0.  1.
        994   -1    0    0    0    0 -0.00000000000E+00 -0.00000000000E+00  0.11368683772E-12  0.17120000000E+03  0.17120000000E+03 0.  0.
         13    1    1    2    0    0 -0.50557316975E+02  0.60892033489E+02  0.26372488000E+03  0.27534470312E+03  0.10566000000E+00 0.  1.
        994    1    1    2    0    0  0.34673392793E+02 -0.59114995993E+01  0.17448369490E+02  0.17564474257E+03  0.17120000000E+03 0.  0.
        998    1    1    2    0    0  0.15883924182E+02 -0.54980533890E+02  0.12188267468E+04  0.12202105543E+04  0.10000000000E+02 0.  1.
</event>
<event>
 5    1  0.1106231E-008  0.3703488E+03  0.7957747E-01  0.3494289E+00
         13   -1    0    0    0    0  0.00000000000E+00  0.00000000000E+00  0.14999999963E+04  0.15000000000E+04  0.10566000000E+00 0.  1.
        994   -1    0    0    0    0 -0.00000000000E+00 -0.00000000000E+00  0.11368683772E-12  0.17120000000E+03  0.17120000000E+03 0.  0.
         13    1    1    2    0    0 -0.70770048846E+01  0.39217831928E+02  0.78442730528E+02  0.87985200323E+02  0.10566000000E+00 0.  1.
        994    1    1    2    0    0  0.13274323831E+02 -0.44109743032E+02  0.16450617804E+02  0.17805038593E+03  0.17120000000E+03 0.  0.
        998    1    1    2    0    0 -0.61973189460E+01  0.48919111039E+01  0.14051066479E+04  0.14051644137E+04  0.10000000000E+02 0.  1.
</event>
<event>
 5    1  0.1106231E-008  0.3825367E+03  0.7957747E-01  0.3440187E+00
         13   -1    0    0    0    0  0.00000000000E+00  0.00000000000E+00  0.14999999963E+04  0.15000000000E+04  0.10566000000E+00 0.  1.
        994   -1    0    0    0    0 -0.00000000000E+00 -0.00000000000E+00  0.11368683772E-12  0.17120000000E+03  0.17120000000E+03 0.  0.
         13    1    1    2    0    0  0.23098291838E+02  0.40186832498E+01  0.10605791045E+03  0.10861847188E+03  0.10566000000E+00 0.  1.
        994    1    1    2    0    0  0.43116618342E+01 -0.12030642407E+02  0.33997078238E+01  0.17171000203E+03  0.17120000000E+03 0.  0.
        998    1    1    2    0    0 -0.27409953673E+02  0.80119591570E+01  0.13905423780E+04  0.13908715261E+04  0.10000000000E+02 0.  1.
</event>
<event>
 5    1  0.1106231E-008  0.3806370E+03  0.7957747E-01  0.3448390E+00
         13   -1    0    0    0    0  0.00000000000E+00  0.00000000000E+00  0.14999999963E+04  0.15000000000E+04  0.10566000000E+00 0. -1.
        994   -1    0    0    0    0 -0.00000000000E+00 -0.00000000000E+00  0.11368683772E-12  0.17120000000E+03  0.17120000000E+03 0.  0.
         13    1    1    2    0    0 -0.31864634307E+02  0.14329766265E+02  0.20632457914E+03  0.20926189391E+03  0.10566000000E+00 0. -1.
        994    1    1    2    0    0 -0.75882138563E+01  0.11189175988E+02  0.44218988987E+01  0.17178990610E+03  0.17120000000E+03 0.  0.
        998    1    1    2    0    0  0.39452848163E+02 -0.25518942253E+02  0.12892535182E+04  0.12901482000E+04  0.10000000000E+02 0. -1.
</event>
<event>
 5    1  0.1106231E-008  0.3822517E+03  0.7957747E-01  0.3441412E+00
         13   -1    0    0    0    0  0.00000000000E+00  0.00000000000E+00  0.14999999963E+04  0.15000000000E+04  0.10566000000E+00 0. -1.
        994   -1    0    0    0    0 -0.00000000000E+00 -0.00000000000E+00  0.11368683772E-12  0.17120000000E+03  0.17120000000E+03 0.  0.
         13    1    1    2    0    0  0.32896602588E+01  0.14147704436E+02  0.33752167006E+02  0.36745058812E+02  0.10566000000E+00 0. -1.
        994    1    1    2    0    0 -0.90712290085E+01 -0.10817511270E+02  0.36624277563E+01  0.17182013596E+03  0.17120000000E+03 0.  0.
        998    1    1    2    0    0  0.57815687497E+01 -0.33301931655E+01  0.14625854015E+04  0.14626348052E+04  0.10000000000E+02 0. -1.
</event>
<event>
 5    1  0.1106231E-008  0.3817933E+03  0.7957747E-01  0.3443387E+00
         13   -1    0    0    0    0  0.00000000000E+00  0.00000000000E+00  0.14999999963E+04  0.15000000000E+04  0.10566000000E+00 0. -1.
        994   -1    0    0    0    0 -0.00000000000E+00 -0.00000000000E+00  0.11368683772E-12  0.17120000000E+03  0.17120000000E+03 0.  0.
         13    1    1    2    0    0  0.24282015945E+02  0.33321936557E+02  0.22037801226E+03  0.22420180018E+03  0.10566000000E+00 0. -1.
        994    1    1    2    0    0 -0.29661840551E+02 -0.33057440555E+02  0.98140022869E+01  0.17713941911E+03  0.17120000000E+03 0.  0.
        998    1    1    2    0    0  0.53798246067E+01 -0.26449600241E+00  0.12698079817E+04  0.12698587807E+04  0.10000000000E+02 0.  0.
</event>
<event>
 5    1  0.1106231E-008  0.3806473E+03  0.7957747E-01  0.3448345E+00
         13   -1    0    0    0    0  0.00000000000E+00  0.00000000000E+00  0.14999999963E+04  0.15000000000E+04  0.10566000000E+00 0. -1.
        994   -1    0    0    0    0 -0.00000000000E+00 -0.00000000000E+00  0.11368683772E-12  0.17120000000E+03  0.17120000000E+03 0.  0.
         13    1    1    2    0    0  0.13311612844E+02 -0.26268375204E+02  0.12164328080E+03  0.12515720315E+03  0.10566000000E+00 0. -1.
        994    1    1    2    0    0  0.22767543198E+02  0.17828641239E+02  0.66011959291E+01  0.17375050290E+03  0.17120000000E+03 0.  0.
        998    1    1    2    0    0 -0.36079156042E+02  0.84397339657E+01  0.13717555196E+04  0.13722922939E+04  0.10000000000E+02 0. -1.
</event>
<event>
 5    1  0.1106231E-008  0.3808251E+03  0.7957747E-01  0.3447574E+00
         13   -1    0    0    0    0  0.00000000000E+00  0.00000000000E+00  0.14999999963E+04  0.15000000000E+04  0.10566000000E+00 0. -1.
        994   -1    0    0    0    0 -0.00000000000E+00 -0.00000000000E+00  0.11368683772E-12  0.17120000000E+03  0.17120000000E+03 0.  0.
         13    1    1    2    0    0  0.13469387497E+02 -0.29274224311E+01  0.23716915392E+02  0.27431686812E+02  0.10566000000E+00 0. -1.
        994    1    1    2    0    0 -0.13983787767E+02  0.40284949204E+01  0.44235629376E+01  0.17187432327E+03  0.17120000000E+03 0.  0.
        998    1    1    2    0    0  0.51440027077E+00 -0.11010724894E+01  0.14718595179E+04  0.14718939899E+04  0.10000000000E+02 0. -1.
</event>
<event>
 5    1  0.1106231E-008  0.3715041E+03  0.7957747E-01  0.3489007E+00
         13   -1    0    0    0    0  0.00000000000E+00  0.00000000000E+00  0.14999999963E+04  0.15000000000E+04  0.10566000000E+00 0. -1.
        994   -1    0    0    0    0 -0.00000000000E+00 -0.00000000000E+00  0.11368683772E-12  0.17120000000E+03  0.17120000000E+03 0.  0.
         13    1    1    2    0    0 -0.69483546871E+02  0.56694063691E+01  0.26696802340E+03  0.27592035470E+03  0.10566000000E+00 0. -1.
        994    1    1    2    0    0  0.48899903831E+02 -0.15411405787E+02  0.17582049776E+02  0.17957527808E+03  0.17120000000E+03 0.  0.
        998    1    1    2    0    0  0.20583643040E+02  0.97419994176E+01  0.12154499231E+04  0.12157043672E+04  0.10000000000E+02 0. -1.
</event>
<event>
 5    1  0.1106231E-008  0.3807885E+03  0.7957747E-01  0.3447732E+00
         13   -1    0    0    0    0  0.00000000000E+00  0.00000000000E+00  0.14999999963E+04  0.15000000000E+04  0.10566000000E+00 0. -1.
        994   -1    0    0    0    0 -0.00000000000E+00 -0.00000000000E+00  0.11368683772E-12  0.17120000000E+03  0.17120000000E+03 0.  0.
         13    1    1    2    0    0 -0.58387423398E+01 -0.31093161656E+02  0.13144498572E+03  0.13519863553E+03  0.10566000000E+00 0. -1.
        994    1    1    2    0    0  0.76779435725E+01  0.19307685026E+02  0.51764735509E+01  0.17253397751E+03  0.17120000000E+03 0.  0.
        998    1    1    2    0    0 -0.18392012326E+01  0.11785476630E+02  0.13633785370E+04  0.13634673870E+04  0.10000000000E+02 0. -1.
</event>
<event>
 5    1  0.1106231E-008  0.3794755E+03  0.7957747E-01  0.3453446E+00
         13   -1    0    0    0    0  0.00000000000E+00  0.00000000000E+00  0.14999999963E+04  0.15000000000E+04  0.10566000000E+00 0. -1.
        994   -1    0    0    0    0 -0.00000000000E+00 -0.00000000000E+00  0.11368683772E-12  0.17120000000E+03  0.17120000000E+03 0.  0.
         13    1    1    2    0    0 -0.24359966477E+02 -0.28796347073E+02  0.18001659104E+03  0.18392558763E+03  0.10566000000E+00 0. -1.
        994    1    1    2    0    0  0.24245904258E+02 -0.12546584069E+02  0.68978919449E+01  0.17350014858E+03  0.17120000000E+03 0.  0.
        998    1    1    2    0    0  0.11406221909E+00  0.41342931142E+02  0.13130855133E+04  0.13137742638E+04  0.10000000000E+02 0. -1.
</event>
<event>
 5    1  0.1106231E-008  0.3817610E+03  0.7957747E-01  0.3443527E+00
         13   -1    0    0    0    0  0.00000000000E+00  0.00000000000E+00  0.14999999963E+04  0.15000000000E+04  0.10566000000E+00 0. -1.
        994   -1    0    0    0    0 -0.00000000000E+00 -0.00000000000E+00  0.11368683772E-12  0.17120000000E+03  0.17120000000E+03 0.  0.
         13    1    1    2    0    0  0.24286611225E+02 -0.14717556225E+02  0.11209873103E+03  0.11563988329E+03  0.10566000000E+00 0. -1.
        994    1    1    2    0    0 -0.25952193467E+02  0.20614138066E+02  0.69062623960E+01  0.17451531593E+03  0.17120000000E+03 0.  0.
        998    1    1    2    0    0  0.16655822429E+01 -0.58965818413E+01  0.13809950029E+04  0.13810448008E+04  0.10000000000E+02 0. -1.
</event>
<event>
 5    1  0.1106231E-008  0.3701649E+03  0.7957747E-01  0.3495133E+00
         13   -1    0    0    0    0  0.00000000000E+00  0.00000000000E+00  0.14999999963E+04  0.15000000000E+04  0.10566000000E+00 0.  1.
        994   -1    0    0    0    0 -0.00000000000E+00 -0.00000000000E+00  0.11368683772E-12  0.17120000000E+03  0.17120000000E+03 0.  0.
         13    1    1    2    0    0 -0.93184946268E+01 -0.14620966432E+02  0.12241953705E+02  0.21224598844E+02  0.10566000000E+00 0.  1.
        994    1    1    2    0    0  0.33780116347E+01  0.15763627682E+02  0.10081523589E+02  0.17225266337E+03  0.17120000000E+03 0.  0.
        998    1    1    2    0    0  0.59404829921E+01 -0.11426612497E+01  0.14776765190E+04  0.14777227378E+04  0.10000000000E+02 0.  1.
</event>
<event>
 5    1  0.1106231E-008  0.3909964E+03  0.7957747E-01  0.3404632E+00
         13   -1    0    0    0    0  0.00000000000E+00  0.00000000000E+00  0.14999999963E+04  0.15000000000E+04  0.10566000000E+00 0.  1.
        994   -1    0    0    0    0 -0.00000000000E+00 -0.00000000000E+00  0.11368683772E-12  0.17120000000E+03  0.17120000000E+03 0.  0.
         13    1    1    2    0    0  0.99838522421E+02 -0.10632886984E+03  0.34036840615E+03  0.37030287899E+03  0.10566000000E+00 0.  1.
        994    1    1    2    0    0 -0.11697331446E+03  0.92256607354E+02  0.11216668416E+03  0.25314984285E+03  0.17120000000E+03 0.  0.
        998    1    1    2    0    0  0.17134792041E+02  0.14072262483E+02  0.10474649060E+04  0.10477472782E+04  0.10000000000E+02 0.  1.
</event>
<event>
 5    1  0.1106231E-008  0.4423527E+03  0.7957747E-01  0.3217754E+00
         13   -1    0    0    0    0  0.00000000000E+00  0.00000000000E+00  0.14999999963E+04  0.15000000000E+04  0.10566000000E+00 0. -1.
        994   -1    0    0    0    0 -0.00000000000E+00 -0.00000000000E+00  0.11368683772E-12  0.17120000000E+03  0.17120000000E+03 0.  0.
         13    1    1    2    0    0 -0.35686926149E+02 -0.37660013607E+02  0.34445676896E+01  0.51997206978E+02  0.10566000000E+00 0. -1.
        994    1    1    2    0    0  0.37168741959E+02  0.40366700406E+02  0.70498383633E+02  0.19310734832E+03  0.17120000000E+03 0.  0.
        998    1    1    2    0    0 -0.14818158095E+01 -0.27066867995E+01  0.14260570450E+04  0.14260954447E+04  0.10000000000E+02 0. -1.
</event>
<event>
 5    1  0.1106231E-008  0.3831448E+03  0.7957747E-01  0.3437579E+00
         13   -1    0    0    0    0  0.00000000000E+00  0.00000000000E+00  0.14999999963E+04  0.15000000000E+04  0.10566000000E+00 0. -1.
        994   -1    0    0    0    0 -0.00000000000E+00 -0.00000000000E+00  0.11368683772E-12  0.17120000000E+03  0.17120000000E+03 0.  0.
         13    1    1    2    0    0 -0.81783623016E+01  0.13830916735E+02  0.53187628312E+02  0.55561810960E+02  0.10566000000E+00 0. -1.
        994    1    1    2    0    0  0.94688426957E+01  0.93010164474E+01  0.31370855134E+01  0.17174239196E+03  0.17120000000E+03 0.  0.
        998    1    1    2    0    0 -0.12904803941E+01 -0.23131933183E+02  0.14436752825E+04  0.14438957971E+04  0.10000000000E+02 0. -1.
</event>
<event>
 5    1  0.1106231E-008  0.3775966E+03  0.7957747E-01  0.3461690E+00
         13   -1    0    0    0    0  0.00000000000E+00  0.00000000000E+00  0.14999999963E+04  0.15000000000E+04  0.10566000000E+00 0. -1.
        994   -1    0    0    0    0 -0.00000000000E+00 -0.00000000000E+00  0.11368683772E-12  0.17120000000E+03  0.17120000000E+03 0.  0.
         13    1    1    2    0    0 -0.23079789653E+02 -0.34485564865E+01  0.49579407317E+02  0.54796879712E+02  0.10566000000E+00 0. -1.
        994    1    1    2    0    0  0.11377636954E+02 -0.36789664234E+01  0.58332552932E+01  0.17171619692E+03  0.17120000000E+03 0.  0.
        998    1    1    2    0    0  0.11702152699E+02  0.71275229099E+01  0.14445873337E+04  0.14446869234E+04  0.10000000000E+02 0. -1.
</event>
<event>
 5    1  0.1106231E-008  0.3848378E+03  0.7957747E-01  0.3430360E+00
         13   -1    0    0    0    0  0.00000000000E+00  0.00000000000E+00  0.14999999963E+04  0.15000000000E+04  0.10566000000E+00 0.  1.
        994   -1    0    0    0    0 -0.00000000000E+00 -0.00000000000E+00  0.11368683772E-12  0.17120000000E+03  0.17120000000E+03 0.  0.
         13    1    1    2    0    0  0.12143519120E+02  0.92428306077E+01  0.66011256777E+02  0.67752432869E+02  0.10566000000E+00 0.  1.
        994    1    1    2    0    0 -0.13167488223E+02 -0.71761871121E+01  0.24509557863E+01  0.17187299844E+03  0.17120000000E+03 0.  0.
        998    1    1    2    0    0  0.10239691035E+01 -0.20666434956E+01  0.14315377837E+04  0.14315745687E+04  0.10000000000E+02 0.  0.
</event>
<event>
 5    1  0.1106231E-008  0.3848704E+03  0.7957747E-01  0.3430222E+00
         13   -1    0    0    0    0  0.00000000000E+00  0.00000000000E+00  0.14999999963E+04  0.15000000000E+04  0.10566000000E+00 0. -1.
        994   -1    0    0    0    0 -0.00000000000E+00 -0.00000000000E+00  0.11368683772E-12  0.17120000000E+03  0.17120000000E+03 0.  0.
         13    1    1    2    0    0 -0.12157185428E+02  0.55831415741E+01  0.52651019265E+02  0.54324116385E+02  0.10566000000E+00 0. -1.
        994    1    1    2    0    0  0.91320812935E+01 -0.19233612025E+01  0.19811056651E+01  0.17146562048E+03  0.17120000000E+03 0.  0.
        998    1    1    2    0    0  0.30251041343E+01 -0.36597803716E+01  0.14453678713E+04  0.14454102631E+04  0.10000000000E+02 0. -1.
</event>
<event>
 5    1  0.1106231E-008  0.3720255E+03  0.7957747E-01  0.3486634E+00
         13   -1    0    0    0    0  0.00000000000E+00  0.00000000000E+00  0.14999999963E+04  0.15000000000E+04  0.10566000000E+00 0.  1.
        994   -1    0    0    0    0 -0.00000000000E+00 -0.00000000000E+00  0.11368683772E-12  0.17120000000E+03  0.17120000000E+03 0.  0.
         13    1    1    2    0    0  0.12226095076E+02  0.16542528522E+02  0.21926833200E+02  0.30065425807E+02  0.10566000000E+00 0.  1.
        994    1    1    2    0    0 -0.14160912129E+02 -0.15657447596E+02  0.97460326021E+01  0.17277185028E+03  0.17120000000E+03 0.  0.
        998    1    1    2    0    0  0.19348170532E+01 -0.88508092637E+00  0.14683271305E+04  0.14683627239E+04  0.10000000000E+02 0.  1.
</event>
<event>
 5    1  0.1106231E-008  0.3840244E+03  0.7957747E-01  0.3433820E+00
         13   -1    0    0    0    0  0.00000000000E+00  0.00000000000E+00  0.14999999963E+04  0.15000000000E+04  0.10566000000E+00 0.  1.
        994   -1    0    0    0    0 -0.00000000000E+00 -0.00000000000E+00  0.11368683772E-12  0.17120000000E+03  0.17120000000E+03 0.  0.
         13    1    1    2    0    0 -0.24983300397E+01  0.19203348709E+02  0.82074029626E+02  0.84327740144E+02  0.10566000000E+00 0.  1.
        994    1    1    2    0    0  0.35633781059E+01 -0.23703597174E+02  0.40130947154E+01  0.17291646281E+03  0.17120000000E+03 0.  0.
        998    1    1    2    0    0 -0.10650480662E+01  0.45002484660E+01  0.14139128719E+04  0.14139557970E+04  0.10000000000E+02 0.  1.
</event>
<event>
 5    1  0.1106231E-008  0.3820665E+03  0.7957747E-01  0.3442210E+00
         13   -1    0    0    0    0  0.00000000000E+00  0.00000000000E+00  0.14999999963E+04  0.15000000000E+04  0.10566000000E+00 0. -1.
        994   -1    0    0    0    0 -0.00000000000E+00 -0.00000000000E+00  0.11368683772E-12  0.17120000000E+03  0.17120000000E+03 0.  0.
         13    1    1    2    0    0  0.98951835272E+01 -0.24714647145E+02  0.12111189121E+03  0.12400334591E+03  0.10566000000E+00 0. -1.
        994    1    1    2    0    0 -0.52778651448E+01  0.46146771381E+01  0.32568164637E+01  0.17137443788E+03  0.17120000000E+03 0.  0.
        998    1    1    2    0    0 -0.46173183824E+01  0.20099970007E+02  0.13756312886E+04  0.13758222162E+04  0.10000000000E+02 0. -1.
</event>
<event>
 5    1  0.1106231E-008  0.3752574E+03  0.7957747E-01  0.3472072E+00
         13   -1    0    0    0    0  0.00000000000E+00  0.00000000000E+00  0.14999999963E+04  0.15000000000E+04  0.10566000000E+00 0.  1.
        994   -1    0    0    0    0 -0.00000000000E+00 -0.00000000000E+00  0.11368683772E-12  0.17120000000E+03  0.17120000000E+03 0.  0.
         13    1    1    2    0    0 -0.11139608017E+02 -0.47908959392E+01  0.82875275300E+01  0.14688016451E+02  0.10566000000E+00 0.  1.
        994    1    1    2    0    0  0.86287695562E+01 -0.10489506450E+01  0.68032347735E+01  0.17155547198E+03  0.17120000000E+03 0.  0.
        998    1    1    2    0    0  0.25108384609E+01  0.58398465842E+01  0.14849092340E+04  0.14849565116E+04  0.10000000000E+02 0.  1.
</event>
<event>
 5    1  0.1285755E-008  0.3859865E+03  0.7957747E-01  0.3425499E+00
         13   -1    0    0    0    0  0.00000000000E+00  0.00000000000E+00  0.14999999963E+04  0.15000000000E+04  0.10566000000E+00 0.  1.
        994   -1    0    0    0    0 -0.00000000000E+00 -0.00000000000E+00  0.11368683772E-12  0.17120000000E+03  0.17120000000E+03 0.  0.
         13    1    1    2    0    0  0.84274508466E+01 -0.66089262649E+01  0.50230535340E+02  0.51359689239E+02  0.10566000000E+00 0.  1.
        994    1    1    2    0    0 -0.86457847633E+01  0.36068275109E+01  0.14288668794E+01  0.17146206712E+03  0.17120000000E+03 0.  0.
        998    1    1    2    0    0  0.21833391662E+00  0.30020987540E+01  0.14483405941E+04  0.14483782436E+04  0.10000000000E+02 0.  1.
</event>
<event>
 5    1  0.1106231E-008  0.3815856E+03  0.7957747E-01  0.3444284E+00
         13   -1    0    0    0    0  0.00000000000E+00  0.00000000000E+00  0.14999999963E+04  0.15000000000E+04  0.10566000000E+00 0. -1.
        994   -1    0    0    0    0 -0.00000000000E+00 -0.00000000000E+00  0.11368683772E-12  0.17120000000E+03  0.17120000000E+03 0.  0.
         13    1    1    2    0    0 -0.61074263440E+01 -0.31156824212E+02  0.21695153323E+02  0.38454378077E+02  0.10566000000E+00 0. -1.
        994    1    1    2    0    0  0.72066627757E+01  0.34220438444E+02  0.21671186245E+02  0.17607400350E+03  0.17120000000E+03 0.  0.
        998    1    1    2    0    0 -0.10992364317E+01 -0.30636142317E+01  0.14566336567E+04  0.14566716184E+04  0.10000000000E+02 0. -1.
</event>
<event>
 5    1  0.1106231E-008  0.3738749E+03  0.7957747E-01  0.3478270E+00
         13   -1    0    0    0    0  0.00000000000E+00  0.00000000000E+00  0.14999999963E+04  0.15000000000E+04  0.10566000000E+00 0.  1.
        994   -1    0    0    0    0 -0.00000000000E+00 -0.00000000000E+00  0.11368683772E-12  0.17120000000E+03  0.17120000000E+03 0.  0.
         13    1    1    2    0    0 -0.86574846052E+01 -0.15893032875E+02  0.19177875898E+02  0.26369350042E+02  0.10566000000E+00 0.  1.
        994    1    1    2    0    0  0.78832055733E+01  0.16942130586E+02  0.84499681894E+01  0.17242396203E+03  0.17120000000E+03 0.  0.
        998    1    1    2    0    0  0.77427903186E+00 -0.10490977111E+01  0.14723721522E+04  0.14724066879E+04  0.10000000000E+02 0.  1.
</event>
<event>
 5    1  0.1106231E-008  0.3774274E+03  0.7957747E-01  0.3462437E+00
         13   -1    0    0    0    0  0.00000000000E+00  0.00000000000E+00  0.14999999963E+04  0.15000000000E+04  0.10566000000E+00 0. -1.
        994   -1    0    0    0    0 -0.00000000000E+00 -0.00000000000E+00  0.11368683772E-12  0.17120000000E+03  0.17120000000E+03 0.  0.
         13    1    1    2    0    0  0.15625370084E+02  0.42352519489E+02  0.22647438719E+03  0.23092974541E+03  0.10566000000E+00 0. -1.
        994    1    1    2    0    0 -0.56320913900E+01  0.36007650131E+01  0.55881403312E+01  0.17142156596E+03  0.17120000000E+03 0.  0.
        998    1    1    2    0    0 -0.99932786936E+01 -0.45953284502E+02  0.12679374688E+04  0.12688486886E+04  0.10000000000E+02 0. -1.
</event>
<event>
 5    1  0.1106231E-008  0.3843739E+03  0.7957747E-01  0.3432332E+00
         13   -1    0    0    0    0  0.00000000000E+00  0.00000000000E+00  0.14999999963E+04  0.15000000000E+04  0.10566000000E+00 0. -1.
        994   -1    0    0    0    0 -0.00000000000E+00 -0.00000000000E+00  0.11368683772E-12  0.17120000000E+03  0.17120000000E+03 0.  0.
         13    1    1    2    0    0 -0.70181686901E+01  0.97177337235E+01  0.35607545339E+02  0.37571232208E+02  0.10566000000E+00 0. -1.
        994    1    1    2    0    0  0.10617814634E+02 -0.10029358502E+02  0.26446067971E+01  0.17184225314E+03  0.17120000000E+03 0.  0.
        998    1    1    2    0    0 -0.35996459436E+01  0.31162477863E+00  0.14617478441E+04  0.14617865147E+04  0.10000000000E+02 0. -1.
</event>
<event>
 5    1  0.1106231E-008  0.3876598E+03  0.7957747E-01  0.3418470E+00
         13   -1    0    0    0    0  0.00000000000E+00  0.00000000000E+00  0.14999999963E+04  0.15000000000E+04  0.10566000000E+00 0. -1.
        994   -1    0    0    0    0 -0.00000000000E+00 -0.00000000000E+00  0.11368683772E-12  0.17120000000E+03  0.17120000000E+03 0.  0.
         13    1    1    2    0    0  0.85298745785E+01  0.10744448804E+03  0.19048949707E+03  0.21886830842E+03  0.10566000000E+00 0. -1.
        994    1    1    2    0    0  0.49518876753E+02 -0.15989282374E+03  0.13439242453E+03  0.27456984177E+03  0.17120000000E+03 0.  0.
        998    1    1    2    0    0 -0.58048751331E+02  0.52448335690E+02  0.11751180747E+04  0.11777618498E+04  0.10000000000E+02 0. -1.
</event>
<event>
 5    1  0.1106231E-008  0.3807147E+03  0.7957747E-01  0.3448052E+00
         13   -1    0    0    0    0  0.00000000000E+00  0.00000000000E+00  0.14999999963E+04  0.15000000000E+04  0.10566000000E+00 0. -1.
        994   -1    0    0    0    0 -0.00000000000E+00 -0.00000000000E+00  0.11368683772E-12  0.17120000000E+03  0.17120000000E+03 0.  0.
         13    1    1    2    0    0  0.10032084901E+02  0.42907014369E+01  0.14044802256E+02  0.17785400775E+02  0.10566000000E+00 0. -1.
        994    1    1    2    0    0 -0.10104059413E+02 -0.49467366680E+01  0.41949972791E+01  0.17162051224E+03  0.17120000000E+03 0.  0.
        998    1    1    2    0    0  0.71974512217E-01  0.65603523111E+00  0.14817601967E+04  0.14817940870E+04  0.10000000000E+02 0. -1.
</event>
<event>
 5    1  0.1106231E-008  0.3814932E+03  0.7957747E-01  0.3444682E+00
         13   -1    0    0    0    0  0.00000000000E+00  0.00000000000E+00  0.14999999963E+04  0.15000000000E+04  0.10566000000E+00 0. -1.
        994   -1    0    0    0    0 -0.00000000000E+00 -0.00000000000E+00  0.11368683772E-12  0.17120000000E+03  0.17120000000E+03 0.  0.
         13    1    1    2    0    0  0.36052931239E+02  0.21420842105E+02  0.22059301749E+03  0.22454388626E+03  0.10566000000E+00 0. -1.
        994    1    1    2    0    0 -0.39133479845E+02 -0.19059503886E+02  0.97097520611E+01  0.17691357556E+03  0.17120000000E+03 0.  0.
        998    1    1    2    0    0  0.30805486058E+01 -0.23613382188E+01  0.12696972267E+04  0.12697425382E+04  0.10000000000E+02 0.  0.
</event>
<event>
 5    1  0.1106231E-008  0.3854462E+03  0.7957747E-01  0.3427782E+00
         13   -1    0    0    0    0  0.00000000000E+00  0.00000000000E+00  0.14999999963E+04  0.15000000000E+04  0.10566000000E+00 0. -1.
        994   -1    0    0    0    0 -0.00000000000E+00 -0.00000000000E+00  0.11368683772E-12  0.17120000000E+03  0.17120000000E+03 0.  0.
         13    1    1    2    0    0  0.77038926026E+01 -0.11289968355E+02  0.69345660203E+02  0.70679877616E+02  0.10566000000E+00 0. -1.
        994    1    1    2    0    0  0.44999077143E+01  0.71887388018E+01  0.16450280171E+01  0.17141783236E+03  0.17120000000E+03 0.  0.
        998    1    1    2    0    0 -0.12203800317E+02  0.41012295530E+01  0.14290093081E+04  0.14291022900E+04  0.10000000000E+02 0. -1.
</event>
<event>
 5    1  0.1106231E-008  0.3851280E+03  0.7957747E-01  0.3429130E+00
         13   -1    0    0    0    0  0.00000000000E+00  0.00000000000E+00  0.14999999963E+04  0.15000000000E+04  0.10566000000E+00 0.  1.
        994   -1    0    0    0    0 -0.00000000000E+00 -0.00000000000E+00  0.11368683772E-12  0.17120000000E+03  0.17120000000E+03 0.  0.
         13    1    1    2    0    0  0.12691232823E+02 -0.62787244681E+01  0.70046114362E+02  0.71462990931E+02  0.10566000000E+00 0.  1.
        994    1    1    2    0    0  0.64212382677E+01  0.46663447117E+01  0.17737644119E+01  0.17139309588E+03  0.17120000000E+03 0.  0.
        998    1    1    2    0    0 -0.19112471091E+02  0.16123797564E+01  0.14281801175E+04  0.14283439132E+04  0.10000000000E+02 0.  1.
</event>
<event>
 5    1  0.1106231E-008  0.3860405E+03  0.7957747E-01  0.3425271E+00
         13   -1    0    0    0    0  0.00000000000E+00  0.00000000000E+00  0.14999999963E+04  0.15000000000E+04  0.10566000000E+00 0.  1.
        994   -1    0    0    0    0 -0.00000000000E+00 -0.00000000000E+00  0.11368683772E-12  0.17120000000E+03  0.17120000000E+03 0.  0.
         13    1    1    2    0    0 -0.71153784983E+01  0.72004304290E+01  0.33851056760E+02  0.35332421617E+02  0.10566000000E+00 0.  1.
        994    1    1    2    0    0  0.50852838476E+02 -0.43607266623E+02  0.15963442999E+02  0.18453150516E+03  0.17120000000E+03 0.  0.
        998    1    1    2    0    0 -0.43737459978E+02  0.36406836194E+02  0.14501854965E+04  0.14513360732E+04  0.10000000000E+02 0.  1.
</event>
<event>
 5    1  0.1106231E-008  0.3725862E+03  0.7957747E-01  0.3484089E+00
         13   -1    0    0    0    0  0.00000000000E+00  0.00000000000E+00  0.14999999963E+04  0.15000000000E+04  0.10566000000E+00 0. -1.
        994   -1    0    0    0    0 -0.00000000000E+00 -0.00000000000E+00  0.11368683772E-12  0.17120000000E+03  0.17120000000E+03 0.  0.
         13    1    1    2    0    0 -0.10211770972E+02 -0.30160458929E+01  0.34398663493E+01  0.11190203025E+02  0.10566000000E+00 0. -1.
        994    1    1    2    0    0  0.10134244456E+02  0.50586831829E+01  0.83633257030E+01  0.17177799161E+03  0.17120000000E+03 0.  0.
        998    1    1    2    0    0  0.77526515599E-01 -0.20426372900E+01  0.14881968042E+04  0.14882318054E+04  0.10000000000E+02 0. -1.
</event>
<event>
 5    1  0.1106231E-008  0.3707018E+03  0.7957747E-01  0.3492672E+00
         13   -1    0    0    0    0  0.00000000000E+00  0.00000000000E+00  0.14999999963E+04  0.15000000000E+04  0.10566000000E+00 0. -1.
        994   -1    0    0    0    0 -0.00000000000E+00 -0.00000000000E+00  0.11368683772E-12  0.17120000000E+03  0.17120000000E+03 0.  0.
         13    1    1    2    0    0 -0.92743894912E+01  0.19311975490E+02  0.14981516177E+02  0.26142373434E+02  0.10566000000E+00 0. -1.
        994    1    1    2    0    0  0.12647138430E+02 -0.24306782687E+02  0.13945969481E+02  0.17393878193E+03  0.17120000000E+03 0.  0.
        998    1    1    2    0    0 -0.33727489391E+01  0.49948071972E+01  0.14710725106E+04  0.14711188446E+04  0.10000000000E+02 0. -1.
</event>
<event>
 5    1  0.1106231E-008  0.3838463E+03  0.7957747E-01  0.3434580E+00
         13   -1    0    0    0    0  0.00000000000E+00  0.00000000000E+00  0.14999999963E+04  0.15000000000E+04  0.10566000000E+00 0. -1.
        994   -1    0    0    0    0 -0.00000000000E+00 -0.00000000000E+00  0.11368683772E-12  0.17120000000E+03  0.17120000000E+03 0.  0.
         13    1    1    2    0    0 -0.12195749939E+02  0.30740011111E+01  0.32728250942E+02  0.35061879202E+02  0.10566000000E+00 0. -1.
        994    1    1    2    0    0  0.27781843389E+02 -0.13618718464E+01  0.47621001485E+01  0.17351023922E+03  0.17120000000E+03 0.  0.
        998    1    1    2    0    0 -0.15586093450E+02 -0.17121292647E+01  0.14625096452E+04  0.14626278816E+04  0.10000000000E+02 0. -1.
</event>
<event>
 5    1  0.1106231E-008  0.3795921E+03  0.7957747E-01  0.3452936E+00
         13   -1    0    0    0    0  0.00000000000E+00  0.00000000000E+00  0.14999999963E+04  0.15000000000E+04  0.10566000000E+00 0. -1.
        994   -1    0    0    0    0 -0.00000000000E+00 -0.00000000000E+00  0.11368683772E-12  0.17120000000E+03  0.17120000000E+03 0.  0.
         13    1    1    2    0    0  0.28087167180E+02 -0.78324033097E+01  0.99599212772E+02  0.10377981427E+03  0.10566000000E+00 0. -1.
        994    1    1    2    0    0 -0.12283503615E+02 -0.14342260759E+01  0.48513031382E+01  0.17171463714E+03  0.17120000000E+03 0.  0.
        998    1    1    2    0    0 -0.15803663565E+02  0.92666293856E+01  0.13955494804E+04  0.13957055486E+04  0.10000000000E+02 0. -1.
</event>
<event>
 5    1  0.1106231E-008  0.3756862E+03  0.7957747E-01  0.3470159E+00
         13   -1    0    0    0    0  0.00000000000E+00  0.00000000000E+00  0.14999999963E+04  0.15000000000E+04  0.10566000000E+00 0.  1.
        994   -1    0    0    0    0 -0.00000000000E+00 -0.00000000000E+00  0.11368683772E-12  0.17120000000E+03  0.17120000000E+03 0.  0.
         13    1    1    2    0    0  0.31138860174E+02  0.37090612517E+02  0.15712123260E+03  0.16441543433E+03  0.10566000000E+00 0.  1.
        994    1    1    2    0    0 -0.41303498226E+02 -0.40272737067E+02  0.17697493410E+02  0.18152276328E+03  0.17120000000E+03 0.  0.
        998    1    1    2    0    0  0.10164638052E+02  0.31821245504E+01  0.13251812703E+04  0.13252618024E+04  0.10000000000E+02 0.  1.
</event>
<event>
 5    1  0.1106231E-008  0.3791031E+03  0.7957747E-01  0.3455073E+00
         13   -1    0    0    0    0  0.00000000000E+00  0.00000000000E+00  0.14999999963E+04  0.15000000000E+04  0.10566000000E+00 0.  1.
        994   -1    0    0    0    0 -0.00000000000E+00 -0.00000000000E+00  0.11368683772E-12  0.17120000000E+03  0.17120000000E+03 0.  0.
         13    1    1    2    0    0 -0.12672506103E+02 -0.31741461131E+02  0.31546092754E+02  0.46511072851E+02  0.10566000000E+00 0.  1.
        994    1    1    2    0    0 -0.10448861020E+02  0.17269880563E+02  0.17308307111E+02  0.17325254678E+03  0.17120000000E+03 0.  0.
        998    1    1    2    0    0  0.23121367123E+02  0.14471580569E+02  0.14511455964E+04  0.14514363804E+04  0.10000000000E+02 0.  1.
</event>
<event>
 5    1  0.1106231E-008  0.3757994E+03  0.7957747E-01  0.3469655E+00
         13   -1    0    0    0    0  0.00000000000E+00  0.00000000000E+00  0.14999999963E+04  0.15000000000E+04  0.10566000000E+00 0.  1.
        994   -1    0    0    0    0 -0.00000000000E+00 -0.00000000000E+00  0.11368683772E-12  0.17120000000E+03  0.17120000000E+03 0.  0.
         13    1    1    2    0    0  0.73782951361E+02  0.52582079442E+02  0.54297570422E+03  0.55048290212E+03  0.10566000000E+00 0.  1.
        994    1    1    2    0    0  0.13911340217E+02  0.77965079830E+01  0.14946825567E+02  0.17258956665E+03  0.17120000000E+03 0.  0.
        998    1    1    2    0    0 -0.87694291578E+02 -0.60378587425E+02  0.94207746649E+03  0.94812753122E+03  0.10000000000E+02 0. -1.
</event>
<event>
 5    1  0.1106231E-008  0.3769892E+03  0.7957747E-01  0.3464374E+00
         13   -1    0    0    0    0  0.00000000000E+00  0.00000000000E+00  0.14999999963E+04  0.15000000000E+04  0.10566000000E+00 0.  1.
        994   -1    0    0    0    0 -0.00000000000E+00 -0.00000000000E+00  0.11368683772E-12  0.17120000000E+03  0.17120000000E+03 0.  0.
         13    1    1    2    0    0  0.27801650251E+01 -0.36439682526E+02  0.37812594618E+02  0.52586911451E+02  0.10566000000E+00 0.  1.
        994    1    1    2    0    0 -0.98109226874E+01  0.45510518963E+02  0.22492132827E+02  0.17883734951E+03  0.17120000000E+03 0.  0.
        998    1    1    2    0    0  0.70307576623E+01 -0.90708364370E+01  0.14396952688E+04  0.14397757390E+04  0.10000000000E+02 0.  1.
</event>
<event>
 5    1  0.1106231E-008  0.3817034E+03  0.7957747E-01  0.3443775E+00
         13   -1    0    0    0    0  0.00000000000E+00  0.00000000000E+00  0.14999999963E+04  0.15000000000E+04  0.10566000000E+00 0. -1.
        994   -1    0    0    0    0 -0.00000000000E+00 -0.00000000000E+00  0.11368683772E-12  0.17120000000E+03  0.17120000000E+03 0.  0.
         13    1    1    2    0    0  0.12094435165E+02 -0.61538970452E+01  0.24648070932E+02  0.28136886386E+02  0.10566000000E+00 0. -1.
        994    1    1    2    0    0 -0.94295763716E+01  0.61720016781E+02  0.16344589533E+02  0.18296137021E+03  0.17120000000E+03 0.  0.
        998    1    1    2    0    0 -0.26648587936E+01 -0.55566119736E+02  0.14590073358E+04  0.14601017434E+04  0.10000000000E+02 0. -1.
</event>
<event>
 5    1  0.1106231E-008  0.3868217E+03  0.7957747E-01  0.3421983E+00
         13   -1    0    0    0    0  0.00000000000E+00  0.00000000000E+00  0.14999999963E+04  0.15000000000E+04  0.10566000000E+00 0.  1.
        994   -1    0    0    0    0 -0.00000000000E+00 -0.00000000000E+00  0.11368683772E-12  0.17120000000E+03  0.17120000000E+03 0.  0.
         13    1    1    2    0    0 -0.64358477482E+02 -0.11346344193E+03  0.39334946274E+03  0.41441498197E+03  0.10566000000E+00 0.  1.
        994    1    1    2    0    0  0.54395265732E+02  0.70509750363E+02  0.50242248920E+02  0.19940961212E+03  0.17120000000E+03 0.  0.
        998    1    1    2    0    0  0.99632117499E+01  0.42953691571E+02  0.10564082846E+04  0.10573754059E+04  0.10000000000E+02 0.  1.
</event>
<event>
 5    1  0.1106231E-008  0.3824312E+03  0.7957747E-01  0.3440641E+00
         13   -1    0    0    0    0  0.00000000000E+00  0.00000000000E+00  0.14999999963E+04  0.15000000000E+04  0.10566000000E+00 0.  1.
        994   -1    0    0    0    0 -0.00000000000E+00 -0.00000000000E+00  0.11368683772E-12  0.17120000000E+03  0.17120000000E+03 0.  0.
         13    1    1    2    0    0 -0.22079959144E+02 -0.67888377114E+01  0.93863226222E+02  0.96664002162E+02  0.10566000000E+00 0.  1.
        994    1    1    2    0    0  0.10365738416E+02 -0.42643550121E+01  0.33276604618E+01  0.17159879539E+03  0.17120000000E+03 0.  0.
        998    1    1    2    0    0  0.11714220728E+02  0.11053192723E+02  0.14028091096E+04  0.14029372024E+04  0.10000000000E+02 0.  1.
</event>
<event>
 5    1  0.1106231E-008  0.3804836E+03  0.7957747E-01  0.3449056E+00
         13   -1    0    0    0    0  0.00000000000E+00  0.00000000000E+00  0.14999999963E+04  0.15000000000E+04  0.10566000000E+00 0.  1.
        994   -1    0    0    0    0 -0.00000000000E+00 -0.00000000000E+00  0.11368683772E-12  0.17120000000E+03  0.17120000000E+03 0.  0.
         13    1    1    2    0    0 -0.99299161918E+01  0.13596839470E+02  0.36241251209E+02  0.39961440569E+02  0.10566000000E+00 0.  1.
        994    1    1    2    0    0  0.77244174889E+01  0.49410287975E+01  0.41699114925E+01  0.17149608903E+03  0.17120000000E+03 0.  0.
        998    1    1    2    0    0  0.22054987030E+01 -0.18537868268E+02  0.14595888336E+04  0.14597424704E+04  0.10000000000E+02 0.  1.
</event>
<event>
 5    1  0.1106231E-008  0.3781469E+03  0.7957747E-01  0.3459267E+00
         13   -1    0    0    0    0  0.00000000000E+00  0.00000000000E+00  0.14999999963E+04  0.15000000000E+04  0.10566000000E+00 0.  1.
        994   -1    0    0    0    0 -0.00000000000E+00 -0.00000000000E+00  0.11368683772E-12  0.17120000000E+03  0.17120000000E+03 0.  0.
         13    1    1    2    0    0 -0.36182099795E+02  0.33255603651E+02  0.23415394960E+03  0.23925543421E+03  0.10566000000E+00 0.  1.
        994    1    1    2    0    0  0.12974442901E+02 -0.29753428026E+02  0.86235007091E+01  0.17446319787E+03  0.17120000000E+03 0.  0.
        998    1    1    2    0    0  0.23207656894E+02 -0.35021756250E+01  0.12572225460E+04  0.12574813679E+04  0.10000000000E+02 0.  1.
</event>
<event>
 5    1  0.1106231E-008  0.3830533E+03  0.7957747E-01  0.3437970E+00
         13   -1    0    0    0    0  0.00000000000E+00  0.00000000000E+00  0.14999999963E+04  0.15000000000E+04  0.10566000000E+00 0.  1.
        994   -1    0    0    0    0 -0.00000000000E+00 -0.00000000000E+00  0.11368683772E-12  0.17120000000E+03  0.17120000000E+03 0.  0.
         13    1    1    2    0    0  0.10665479585E+02 -0.19247512887E+02  0.10301762394E+03  0.10534164045E+03  0.10566000000E+00 0.  1.
        994    1    1    2    0    0 -0.41353187235E+01 -0.55901461336E+01  0.27597555698E+01  0.17136337662E+03  0.17120000000E+03 0.  0.
        998    1    1    2    0    0 -0.65301608612E+01  0.24837659021E+02  0.13942226168E+04  0.13944949829E+04  0.10000000000E+02 0.  1.
</event>
<event>
 5    1  0.1106231E-008  0.3773753E+03  0.7957747E-01  0.3462667E+00
         13   -1    0    0    0    0  0.00000000000E+00  0.00000000000E+00  0.14999999963E+04  0.15000000000E+04  0.10566000000E+00 0. -1.
        994   -1    0    0    0    0 -0.00000000000E+00 -0.00000000000E+00  0.11368683772E-12  0.17120000000E+03  0.17120000000E+03 0.  0.
         13    1    1    2    0    0  0.10531680705E+02  0.18417691792E+02  0.38770728741E+02  0.44196246906E+02  0.10566000000E+00 0. -1.
        994    1    1    2    0    0 -0.47786856012E+01 -0.16005076541E+02  0.64053787835E+01  0.17213212132E+03  0.17120000000E+03 0.  0.
        998    1    1    2    0    0 -0.57529951042E+01 -0.24126152509E+01  0.14548238888E+04  0.14548716318E+04  0.10000000000E+02 0. -1.
</event>
<event>
 5    1  0.1106231E-008  0.3771391E+03  0.7957747E-01  0.3463711E+00
         13   -1    0    0    0    0  0.00000000000E+00  0.00000000000E+00  0.14999999963E+04  0.15000000000E+04  0.10566000000E+00 0. -1.
        994   -1    0    0    0    0 -0.00000000000E+00 -0.00000000000E+00  0.11368683772E-12  0.17120000000E+03  0.17120000000E+03 0.  0.
         13    1    1    2    0    0 -0.12455422069E+02 -0.22542450051E+02  0.54965475161E+02  0.60700199481E+02  0.10566000000E+00 0. -1.
        994    1    1    2    0    0  0.13532785935E+02  0.24926793802E+02  0.83041103333E+01  0.17373220655E+03  0.17120000000E+03 0.  0.
        998    1    1    2    0    0 -0.10773638658E+01 -0.23843437506E+01  0.14367304108E+04  0.14367675940E+04  0.10000000000E+02 0. -1.
</event>
<event>
 5    1  0.1106231E-008  0.3795990E+03  0.7957747E-01  0.3452907E+00
         13   -1    0    0    0    0  0.00000000000E+00  0.00000000000E+00  0.14999999963E+04  0.15000000000E+04  0.10566000000E+00 0. -1.
        994   -1    0    0    0    0 -0.00000000000E+00 -0.00000000000E+00  0.11368683772E-12  0.17120000000E+03  0.17120000000E+03 0.  0.
         13    1    1    2    0    0 -0.44603403973E+02  0.40689112355E+01  0.19791193838E+03  0.20291664841E+03  0.10566000000E+00 0. -1.
        994    1    1    2    0    0  0.46637837764E+02 -0.74669381917E+01  0.11839589190E+02  0.17799005295E+03  0.17120000000E+03 0.  0.
        998    1    1    2    0    0 -0.20344337905E+01  0.33980269562E+01  0.12902484687E+04  0.12902932986E+04  0.10000000000E+02 0.  0.
</event>
<event>
 5    1  0.1106231E-008  0.3798994E+03  0.7957747E-01  0.3451597E+00
         13   -1    0    0    0    0  0.00000000000E+00  0.00000000000E+00  0.14999999963E+04  0.15000000000E+04  0.10566000000E+00 0. -1.
        994   -1    0    0    0    0 -0.00000000000E+00 -0.00000000000E+00  0.11368683772E-12  0.17120000000E+03  0.17120000000E+03 0.  0.
         13    1    1    2    0    0  0.65088670093E+01 -0.22227753088E+02  0.67597402065E+02  0.71455288727E+02  0.10566000000E+00 0. -1.
        994    1    1    2    0    0 -0.91944990975E+01 -0.59811774544E+01  0.45863689582E+01  0.17161231913E+03  0.17120000000E+03 0.  0.
        998    1    1    2    0    0  0.26856320882E+01  0.28208930542E+02  0.14278162253E+04  0.14281323921E+04  0.10000000000E+02 0. -1.
</event>
<event>
 5    1  0.1106231E-008  0.3769363E+03  0.7957747E-01  0.3464608E+00
         13   -1    0    0    0    0  0.00000000000E+00  0.00000000000E+00  0.14999999963E+04  0.15000000000E+04  0.10566000000E+00 0. -1.
        994   -1    0    0    0    0 -0.00000000000E+00 -0.00000000000E+00  0.11368683772E-12  0.17120000000E+03  0.17120000000E+03 0.  0.
         13    1    1    2    0    0  0.25584996800E+02  0.57174763565E+00  0.59477933477E+02  0.64749939701E+02  0.10566000000E+00 0. -1.
        994    1    1    2    0    0  0.36841510924E+01 -0.22949994707E+02  0.75144889607E+01  0.17293404168E+03  0.17120000000E+03 0.  0.
        998    1    1    2    0    0 -0.29269147892E+02  0.22378247071E+02  0.14330075738E+04  0.14335160186E+04  0.10000000000E+02 0. -1.
</event>
<event>
 5    1  0.1106231E-008  0.2649141E+03  0.7957747E-01  0.4183443E+00
         13   -1    0    0    0    0  0.00000000000E+00  0.00000000000E+00  0.14999999963E+04  0.15000000000E+04  0.10566000000E+00 0. -1.
        994   -1    0    0    0    0 -0.00000000000E+00 -0.00000000000E+00  0.11368683772E-12  0.17120000000E+03  0.17120000000E+03 0.  0.
         13    1    1    2    0    0 -0.13560478838E+03  0.59013447003E+02  0.54994990271E+03  0.56948762253E+03  0.10566000000E+00 0. -1.
        994    1    1    2    0    0  0.61356576174E+02 -0.20142255389E+02  0.39412050982E+02  0.18717128427E+03  0.17120000000E+03 0.  0.
        998    1    1    2    0    0  0.74248212203E+02 -0.38871191614E+02  0.91063804258E+03  0.91454109320E+03  0.10000000000E+02 0.  1.
</event>
<event>
 5    1  0.1106231E-008  0.3858115E+03  0.7957747E-01  0.3426238E+00
         13   -1    0    0    0    0  0.00000000000E+00  0.00000000000E+00  0.14999999963E+04  0.15000000000E+04  0.10566000000E+00 0.  1.
        994   -1    0    0    0    0 -0.00000000000E+00 -0.00000000000E+00  0.11368683772E-12  0.17120000000E+03  0.17120000000E+03 0.  0.
         13    1    1    2    0    0 -0.72145169852E+01  0.12258046765E+02  0.79949124978E+02  0.81204573237E+02  0.10566000000E+00 0.  1.
        994    1    1    2    0    0  0.86002917309E+01 -0.11367649413E+02  0.18945028858E+01  0.17180284518E+03  0.17120000000E+03 0.  0.
        998    1    1    2    0    0 -0.13857747457E+01 -0.89039735205E+00  0.14181563684E+04  0.14181925816E+04  0.10000000000E+02 0.  1.
</event>
<event>
 5    1  0.1106231E-008  0.3784369E+03  0.7957747E-01  0.3457993E+00
         13   -1    0    0    0    0  0.00000000000E+00  0.00000000000E+00  0.14999999963E+04  0.15000000000E+04  0.10566000000E+00 0. -1.
        994   -1    0    0    0    0 -0.00000000000E+00 -0.00000000000E+00  0.11368683772E-12  0.17120000000E+03  0.17120000000E+03 0.  0.
         13    1    1    2    0    0 -0.32690550476E+02  0.73775625912E+01  0.11270728556E+03  0.11758419921E+03  0.10566000000E+00 0. -1.
        994    1    1    2    0    0  0.16253808349E+02 -0.17076407858E+02  0.67941370918E+01  0.17294909740E+03  0.17120000000E+03 0.  0.
        998    1    1    2    0    0  0.16436742127E+02  0.96988452669E+01  0.13804985736E+04  0.13806667034E+04  0.10000000000E+02 0. -1.
</event>
<event>
 5    1  0.1106231E-008  0.3851829E+03  0.7957747E-01  0.3428897E+00
         13   -1    0    0    0    0  0.00000000000E+00  0.00000000000E+00  0.14999999963E+04  0.15000000000E+04  0.10566000000E+00 0.  1.
        994   -1    0    0    0    0 -0.00000000000E+00 -0.00000000000E+00  0.11368683772E-12  0.17120000000E+03  0.17120000000E+03 0.  0.
         13    1    1    2    0    0  0.10280072120E+02  0.91846318507E+01  0.66501680378E+02  0.67915550518E+02  0.10566000000E+00 0.  1.
        994    1    1    2    0    0 -0.10117416985E+02  0.13459769611E+02  0.24717844313E+01  0.17204382361E+03  0.17120000000E+03 0.  0.
        998    1    1    2    0    0 -0.16265513569E+00 -0.22644401462E+02  0.14310265315E+04  0.14312406259E+04  0.10000000000E+02 0.  1.
</event>
<event>
 5    1  0.1106231E-008  0.3815483E+03  0.7957747E-01  0.3444445E+00
         13   -1    0    0    0    0  0.00000000000E+00  0.00000000000E+00  0.14999999963E+04  0.15000000000E+04  0.10566000000E+00 0. -1.
        994   -1    0    0    0    0 -0.00000000000E+00 -0.00000000000E+00  0.11368683772E-12  0.17120000000E+03  0.17120000000E+03 0.  0.
         13    1    1    2    0    0 -0.35303456903E+02 -0.21758535018E+02  0.22841373829E+03  0.23214782988E+03  0.10566000000E+00 0. -1.
        994    1    1    2    0    0  0.27607142437E+02  0.25442450869E+02  0.80556108995E+01  0.17545314328E+03  0.17120000000E+03 0.  0.
        998    1    1    2    0    0  0.76963144656E+01 -0.36839158511E+01  0.12635306471E+04  0.12635990268E+04  0.10000000000E+02 0. -1.
</event>
<event>
 5    1  0.1106231E-008  0.3842644E+03  0.7957747E-01  0.3432798E+00
         13   -1    0    0    0    0  0.00000000000E+00  0.00000000000E+00  0.14999999963E+04  0.15000000000E+04  0.10566000000E+00 0.  1.
        994   -1    0    0    0    0 -0.00000000000E+00 -0.00000000000E+00  0.11368683772E-12  0.17120000000E+03  0.17120000000E+03 0.  0.
         13    1    1    2    0    0  0.10094760269E+02 -0.14052930563E+02  0.71697323813E+02  0.73755721461E+02  0.10566000000E+00 0.  1.
        994    1    1    2    0    0 -0.80205746099E+01  0.16411742898E+02  0.30965410128E+01  0.17219960362E+03  0.17120000000E+03 0.  0.
        998    1    1    2    0    0 -0.20741856594E+01 -0.23588123347E+01  0.14252061315E+04  0.14252446749E+04  0.10000000000E+02 0.  1.
</event>
<event>
 5    1  0.1106231E-008  0.3854438E+03  0.7957747E-01  0.3427792E+00
         13   -1    0    0    0    0  0.00000000000E+00  0.00000000000E+00  0.14999999963E+04  0.15000000000E+04  0.10566000000E+00 0.  1.
        994   -1    0    0    0    0 -0.00000000000E+00 -0.00000000000E+00  0.11368683772E-12  0.17120000000E+03  0.17120000000E+03 0.  0.
         13    1    1    2    0    0  0.73864117198E+00 -0.11823806141E+02  0.49679694548E+02  0.51072802908E+02  0.10566000000E+00 0.  1.
        994    1    1    2    0    0 -0.31419440437E+01  0.87071934351E+01  0.16913798102E+01  0.17145841419E+03  0.17120000000E+03 0.  0.
        998    1    1    2    0    0  0.24033028717E+01  0.31166127058E+01  0.14486289219E+04  0.14486687829E+04  0.10000000000E+02 0.  1.
</event>
<event>
 5    1  0.1106231E-008  0.3780409E+03  0.7957747E-01  0.3459734E+00
         13   -1    0    0    0    0  0.00000000000E+00  0.00000000000E+00  0.14999999963E+04  0.15000000000E+04  0.10566000000E+00 0. -1.
        994   -1    0    0    0    0 -0.00000000000E+00 -0.00000000000E+00  0.11368683772E-12  0.17120000000E+03  0.17120000000E+03 0.  0.
         13    1    1    2    0    0 -0.18596808887E+02 -0.53149029290E+01  0.34665043435E+02  0.39695917854E+02  0.10566000000E+00 0. -1.
        994    1    1    2    0    0  0.74969990091E+01  0.13328592132E+02  0.59126401284E+01  0.17198330057E+03  0.17120000000E+03 0.  0.
        998    1    1    2    0    0  0.11099809878E+02 -0.80136892034E+01  0.14594223127E+04  0.14595207816E+04  0.10000000000E+02 0. -1.
</event>
<event>
 5    1  0.1106231E-008  0.3714447E+03  0.7957747E-01  0.3489277E+00
         13   -1    0    0    0    0  0.00000000000E+00  0.00000000000E+00  0.14999999963E+04  0.15000000000E+04  0.10566000000E+00 0. -1.
        994   -1    0    0    0    0 -0.00000000000E+00 -0.00000000000E+00  0.11368683772E-12  0.17120000000E+03  0.17120000000E+03 0.  0.
         13    1    1    2    0    0 -0.11957513821E+03 -0.47578765256E+02  0.34865000537E+03  0.37164336398E+03  0.10566000000E+00 0. -1.
        994    1    1    2    0    0  0.16680637892E+03  0.75308457696E+02  0.14076047418E+03  0.28743465856E+03  0.17120000000E+03 0.  0.
        998    1    1    2    0    0 -0.47231240706E+02 -0.27729692441E+02  0.10105895167E+04  0.10121219775E+04  0.10000000000E+02 0. -1.
</event>
<event>
 5    1  0.1106231E-008  0.3581243E+03  0.7957747E-01  0.3552316E+00
         13   -1    0    0    0    0  0.00000000000E+00  0.00000000000E+00  0.14999999963E+04  0.15000000000E+04  0.10566000000E+00 0.  1.
        994   -1    0    0    0    0 -0.00000000000E+00 -0.00000000000E+00  0.11368683772E-12  0.17120000000E+03  0.17120000000E+03 0.  0.
         13    1    1    2    0    0 -0.66179605776E+02  0.26389723366E+03  0.91029742070E+03  0.95008573058E+03  0.10566000000E+00 0.  1.
        994    1    1    2    0    0  0.44905037571E+02 -0.27090214259E+03  0.33693988117E+03  0.46716416470E+03  0.17120000000E+03 0.  0.
        998    1    1    2    0    0  0.21274568205E+02  0.70049089255E+01  0.25276269441E+03  0.25395010472E+03  0.10000000000E+02 0.  1.
</event>
<event>
 5    1  0.1106231E-008  0.3858091E+03  0.7957747E-01  0.3426248E+00
         13   -1    0    0    0    0  0.00000000000E+00  0.00000000000E+00  0.14999999963E+04  0.15000000000E+04  0.10566000000E+00 0.  1.
        994   -1    0    0    0    0 -0.00000000000E+00 -0.00000000000E+00  0.11368683772E-12  0.17120000000E+03  0.17120000000E+03 0.  0.
         13    1    1    2    0    0 -0.14283547165E+01  0.11325500963E+02  0.53855547735E+02  0.55052142148E+02  0.10566000000E+00 0.  1.
        994    1    1    2    0    0  0.16975939577E+02 -0.48616397095E+01  0.22524007858E+01  0.17212301233E+03  0.17120000000E+03 0.  0.
        998    1    1    2    0    0 -0.15547584861E+02 -0.64638612533E+01  0.14438920478E+04  0.14440248455E+04  0.10000000000E+02 0.  1.
</event>
<event>
 5    1  0.1106231E-008  0.3841544E+03  0.7957747E-01  0.3433267E+00
         13   -1    0    0    0    0  0.00000000000E+00  0.00000000000E+00  0.14999999963E+04  0.15000000000E+04  0.10566000000E+00 0.  1.
        994   -1    0    0    0    0 -0.00000000000E+00 -0.00000000000E+00  0.11368683772E-12  0.17120000000E+03  0.17120000000E+03 0.  0.
         13    1    1    2    0    0  0.15508462951E+02  0.15314878964E+02  0.10586432115E+03  0.10808479818E+03  0.10566000000E+00 0.  1.
        994    1    1    2    0    0 -0.19804222762E+02 -0.16550805377E+02  0.42503605675E+01  0.17318672571E+03  0.17120000000E+03 0.  0.
        998    1    1    2    0    0  0.42957598110E+01  0.12359264128E+01  0.13898853146E+04  0.13899284761E+04  0.10000000000E+02 0.  1.
</event>
<event>
 5    1  0.1106231E-008  0.3807667E+03  0.7957747E-01  0.3447827E+00
         13   -1    0    0    0    0  0.00000000000E+00  0.00000000000E+00  0.14999999963E+04  0.15000000000E+04  0.10566000000E+00 0.  1.
        994   -1    0    0    0    0 -0.00000000000E+00 -0.00000000000E+00  0.11368683772E-12  0.17120000000E+03  0.17120000000E+03 0.  0.
         13    1    1    2    0    0  0.35632374284E+02  0.59334232109E+00  0.15241044835E+03  0.15652148122E+03  0.10566000000E+00 0.  1.
        994    1    1    2    0    0 -0.35908058393E+02 -0.35249776608E+01  0.80996992875E+01  0.17514810662E+03  0.17120000000E+03 0.  0.
        998    1    1    2    0    0  0.27568410863E+00  0.29316353397E+01  0.13394898486E+04  0.13395304122E+04  0.10000000000E+02 0.  1.
</event>
<event>
 5    1  0.1106231E-008  0.3847484E+03  0.7957747E-01  0.3430740E+00
         13   -1    0    0    0    0  0.00000000000E+00  0.00000000000E+00  0.14999999963E+04  0.15000000000E+04  0.10566000000E+00 0.  1.
        994   -1    0    0    0    0 -0.00000000000E+00 -0.00000000000E+00  0.11368683772E-12  0.17120000000E+03  0.17120000000E+03 0.  0.
         13    1    1    2    0    0  0.96566925987E+01  0.85859993092E+01  0.47527111948E+02  0.49252498720E+02  0.10566000000E+00 0.  1.
        994    1    1    2    0    0 -0.64225455660E+01 -0.49083355591E+01  0.19701700775E+01  0.17140204905E+03  0.17120000000E+03 0.  0.
        998    1    1    2    0    0 -0.32341470327E+01 -0.36776637501E+01  0.14505027143E+04  0.14505454522E+04  0.10000000000E+02 0.  1.
</event>
<event>
 5    1  0.1106231E-008  0.3769135E+03  0.7957747E-01  0.3464709E+00
         13   -1    0    0    0    0  0.00000000000E+00  0.00000000000E+00  0.14999999963E+04  0.15000000000E+04  0.10566000000E+00 0.  1.
        994   -1    0    0    0    0 -0.00000000000E+00 -0.00000000000E+00  0.11368683772E-12  0.17120000000E+03  0.17120000000E+03 0.  0.
         13    1    1    2    0    0 -0.41840813301E+02  0.40429250955E+01  0.12814860438E+03  0.13486687833E+03  0.10566000000E+00 0.  1.
        994    1    1    2    0    0  0.59833258733E+02 -0.98498162518E+01  0.18220712595E+02  0.18253348213E+03  0.17120000000E+03 0.  0.
        998    1    1    2    0    0 -0.17992445432E+02  0.58068911562E+01  0.13536306793E+04  0.13537996395E+04  0.10000000000E+02 0.  1.
</event>
<event>
 5    1  0.1106231E-008  0.3781824E+03  0.7957747E-01  0.3459111E+00
         13   -1    0    0    0    0  0.00000000000E+00  0.00000000000E+00  0.14999999963E+04  0.15000000000E+04  0.10566000000E+00 0.  1.
        994   -1    0    0    0    0 -0.00000000000E+00 -0.00000000000E+00  0.11368683772E-12  0.17120000000E+03  0.17120000000E+03 0.  0.
         13    1    1    2    0    0  0.12518285818E+02  0.25602885806E+02  0.85421348920E+02  0.90050170776E+02  0.10566000000E+00 0.  1.
        994    1    1    2    0    0  0.23804548614E+02 -0.10588712883E+02  0.73396286462E+01  0.17332653439E+03  0.17120000000E+03 0.  0.
        998    1    1    2    0    0 -0.36322834431E+02 -0.15014172923E+02  0.14072390187E+04  0.14078232948E+04  0.10000000000E+02 0.  1.
</event>
<event>
 5    1  0.1106231E-008  0.3780671E+03  0.7957747E-01  0.3459618E+00
         13   -1    0    0    0    0  0.00000000000E+00  0.00000000000E+00  0.14999999963E+04  0.15000000000E+04  0.10566000000E+00 0.  1.
        994   -1    0    0    0    0 -0.00000000000E+00 -0.00000000000E+00  0.11368683772E-12  0.17120000000E+03  0.17120000000E+03 0.  0.
         13    1    1    2    0    0  0.42111670904E+02 -0.99133676230E+01  0.15131652289E+03  0.15737969675E+03  0.10566000000E+00 0.  1.
        994    1    1    2    0    0 -0.59266224244E+02 -0.10314422753E+01  0.17025564456E+02  0.18196939043E+03  0.17120000000E+03 0.  0.
        998    1    1    2    0    0  0.17154553340E+02  0.10944809898E+02  0.13316579089E+04  0.13318509128E+04  0.10000000000E+02 0.  1.
</event>
<event>
 5    1  0.1106231E-008  0.3781679E+03  0.7957747E-01  0.3459175E+00
         13   -1    0    0    0    0  0.00000000000E+00  0.00000000000E+00  0.14999999963E+04  0.15000000000E+04  0.10566000000E+00 0. -1.
        994   -1    0    0    0    0 -0.00000000000E+00 -0.00000000000E+00  0.11368683772E-12  0.17120000000E+03  0.17120000000E+03 0.  0.
         13    1    1    2    0    0 -0.82024772678E+02 -0.24602073937E+02  0.50775850056E+03  0.51492915186E+03  0.10566000000E+00 0. -1.
        994    1    1    2    0    0  0.68947244786E+02  0.74038363103E+02  0.40296103610E+02  0.20290051193E+03  0.17120000000E+03 0.  0.
        998    1    1    2    0    0  0.13077527892E+02 -0.49436289165E+02  0.95194539211E+03  0.95337033622E+03  0.10000000000E+02 0. -1.
</event>
<event>
 5    1  0.1106231E-008  0.3832861E+03  0.7957747E-01  0.3436974E+00
         13   -1    0    0    0    0  0.00000000000E+00  0.00000000000E+00  0.14999999963E+04  0.15000000000E+04  0.10566000000E+00 0.  1.
        994   -1    0    0    0    0 -0.00000000000E+00 -0.00000000000E+00  0.11368683772E-12  0.17120000000E+03  0.17120000000E+03 0.  0.
         13    1    1    2    0    0  0.12859231802E+02 -0.16967190109E+02  0.84605942863E+02  0.87243464595E+02  0.10566000000E+00 0.  1.
        994    1    1    2    0    0 -0.12411765148E+02  0.22011337885E+02  0.45979976583E+01  0.17311595100E+03  0.17120000000E+03 0.  0.
        998    1    1    2    0    0 -0.44746665386E+00 -0.50441477769E+01  0.14107960558E+04  0.14108405844E+04  0.10000000000E+02 0.  1.
</event>
<event>
 5    1  0.1106231E-008  0.3852997E+03  0.7957747E-01  0.3428402E+00
         13   -1    0    0    0    0  0.00000000000E+00  0.00000000000E+00  0.14999999963E+04  0.15000000000E+04  0.10566000000E+00 0.  1.
        994   -1    0    0    0    0 -0.00000000000E+00 -0.00000000000E+00  0.11368683772E-12  0.17120000000E+03  0.17120000000E+03 0.  0.
         13    1    1    2    0    0  0.11666087147E+02  0.12801128056E+02  0.96689439915E+02  0.98228434905E+02  0.10566000000E+00 0.  1.
        994    1    1    2    0    0 -0.91582168788E+01 -0.14958524802E+02  0.24927507442E+01  0.17211416039E+03  0.17120000000E+03 0.  0.
        998    1    1    2    0    0 -0.25078702685E+01  0.21573967460E+01  0.14008178056E+04  0.14008574047E+04  0.10000000000E+02 0.  1.
</event>
<event>
 5    1  0.1106231E-008  0.3766503E+03  0.7957747E-01  0.3465875E+00
         13   -1    0    0    0    0  0.00000000000E+00  0.00000000000E+00  0.14999999963E+04  0.15000000000E+04  0.10566000000E+00 0.  1.
        994   -1    0    0    0    0 -0.00000000000E+00 -0.00000000000E+00  0.11368683772E-12  0.17120000000E+03  0.17120000000E+03 0.  0.
         13    1    1    2    0    0  0.52268116121E+02  0.48368475131E+01  0.20907783374E+03  0.21556646952E+03  0.10566000000E+00 0.  1.
        994    1    1    2    0    0 -0.47242977262E+02 -0.10697617509E+02  0.13806721841E+02  0.17845560649E+03  0.17120000000E+03 0.  0.
        998    1    1    2    0    0 -0.50251388593E+01  0.58607699960E+01  0.12771154407E+04  0.12771779240E+04  0.10000000000E+02 0.  1.
</event>
<event>
 5    1  0.1106231E-008  0.3827071E+03  0.7957747E-01  0.3439455E+00
         13   -1    0    0    0    0  0.00000000000E+00  0.00000000000E+00  0.14999999963E+04  0.15000000000E+04  0.10566000000E+00 0.  1.
        994   -1    0    0    0    0 -0.00000000000E+00 -0.00000000000E+00  0.11368683772E-12  0.17120000000E+03  0.17120000000E+03 0.  0.
         13    1    1    2    0    0 -0.31403886410E+02  0.11041194522E+02  0.17810076707E+03  0.18118500615E+03  0.10566000000E+00 0.  1.
        994    1    1    2    0    0  0.36915571065E+02  0.39818671366E+01  0.73540190396E+01  0.17533435559E+03  0.17120000000E+03 0.  0.
        998    1    1    2    0    0 -0.55116846547E+01 -0.15023061659E+02  0.13145452102E+04  0.13146806383E+04  0.10000000000E+02 0.  1.
</event>
<event>
 5    1  0.1106231E-008  0.3813898E+03  0.7957747E-01  0.3445129E+00
         13   -1    0    0    0    0  0.00000000000E+00  0.00000000000E+00  0.14999999963E+04  0.15000000000E+04  0.10566000000E+00 0. -1.
        994   -1    0    0    0    0 -0.00000000000E+00 -0.00000000000E+00  0.11368683772E-12  0.17120000000E+03  0.17120000000E+03 0.  0.
         13    1    1    2    0    0  0.37337058845E+02 -0.33493051758E+02  0.29460205385E+03  0.29884146596E+03  0.10566000000E+00 0. -1.
        994    1    1    2    0    0 -0.40803112746E+02  0.30570239724E+02  0.12131980572E+02  0.17904205796E+03  0.17120000000E+03 0.  0.
        998    1    1    2    0    0  0.34660539013E+01  0.29228120344E+01  0.11932659619E+04  0.11933164761E+04  0.10000000000E+02 0. -1.
</event>
<event>
 5    1  0.1106231E-008  0.3831146E+03  0.7957747E-01  0.3437708E+00
         13   -1    0    0    0    0  0.00000000000E+00  0.00000000000E+00  0.14999999963E+04  0.15000000000E+04  0.10566000000E+00 0.  1.
        994   -1    0    0    0    0 -0.00000000000E+00 -0.00000000000E+00  0.11368683772E-12  0.17120000000E+03  0.17120000000E+03 0.  0.
         13    1    1    2    0    0  0.72126176700E+01 -0.16667419481E+02  0.60790900724E+02  0.63445799708E+02  0.10566000000E+00 0.  1.
        994    1    1    2    0    0 -0.78750993789E+01  0.18859274490E+02  0.39524266279E+01  0.17246086832E+03  0.17120000000E+03 0.  0.
        998    1    1    2    0    0  0.66248170883E+00 -0.21918550091E+01  0.14352566689E+04  0.14352933320E+04  0.10000000000E+02 0.  1.
</event>
<event>
 5    1  0.1106231E-008  0.3823827E+03  0.7957747E-01  0.3440849E+00
         13   -1    0    0    0    0  0.00000000000E+00  0.00000000000E+00  0.14999999963E+04  0.15000000000E+04  0.10566000000E+00 0. -1.
        994   -1    0    0    0    0 -0.00000000000E+00 -0.00000000000E+00  0.11368683772E-12  0.17120000000E+03  0.17120000000E+03 0.  0.
         13    1    1    2    0    0  0.12963238821E+02 -0.75978056320E+02  0.38114113232E+03  0.38885638032E+03  0.10566000000E+00 0. -1.
        994    1    1    2    0    0 -0.42942673259E+02  0.13046674264E+03  0.68259264200E+02  0.22985737158E+03  0.17120000000E+03 0.  0.
        998    1    1    2    0    0  0.29979434439E+02 -0.54488686321E+02  0.10505995998E+04  0.10524862481E+04  0.10000000000E+02 0. -1.
</event>
<event>
 5    1  0.1106231E-008  0.3820048E+03  0.7957747E-01  0.3442475E+00
         13   -1    0    0    0    0  0.00000000000E+00  0.00000000000E+00  0.14999999963E+04  0.15000000000E+04  0.10566000000E+00 0.  1.
        994   -1    0    0    0    0 -0.00000000000E+00 -0.00000000000E+00  0.11368683772E-12  0.17120000000E+03  0.17120000000E+03 0.  0.
         13    1    1    2    0    0 -0.61661943148E+01  0.38675327921E+02  0.23528430362E+03  0.23852152447E+03  0.10566000000E+00 0.  1.
        994    1    1    2    0    0  0.32152050110E+01 -0.26514724368E+02  0.54971866301E+01  0.17335808955E+03  0.17120000000E+03 0.  0.
        998    1    1    2    0    0  0.29509893038E+01 -0.12160603554E+02  0.12592185060E+04  0.12593203860E+04  0.10000000000E+02 0.  1.
</event>
<event>
 5    1  0.1106231E-008  0.3814749E+03  0.7957747E-01  0.3444761E+00
         13   -1    0    0    0    0  0.00000000000E+00  0.00000000000E+00  0.14999999963E+04  0.15000000000E+04  0.10566000000E+00 0. -1.
        994   -1    0    0    0    0 -0.00000000000E+00 -0.00000000000E+00  0.11368683772E-12  0.17120000000E+03  0.17120000000E+03 0.  0.
         13    1    1    2    0    0 -0.33724884300E+02 -0.63385082854E+01  0.19292306657E+03  0.19595118088E+03  0.10566000000E+00 0. -1.
        994    1    1    2    0    0  0.67532055092E+01 -0.23292783907E+01  0.35602407669E+01  0.17138595811E+03  0.17120000000E+03 0.  0.
        998    1    1    2    0    0  0.26971678791E+02  0.86677866761E+01  0.13035166889E+04  0.13038628610E+04  0.10000000000E+02 0. -1.
</event>
<event>
 5    1  0.1106231E-008  0.3886464E+03  0.7957747E-01  0.3414353E+00
         13   -1    0    0    0    0  0.00000000000E+00  0.00000000000E+00  0.14999999963E+04  0.15000000000E+04  0.10566000000E+00 0. -1.
        994   -1    0    0    0    0 -0.00000000000E+00 -0.00000000000E+00  0.11368683772E-12  0.17120000000E+03  0.17120000000E+03 0.  0.
         13    1    1    2    0    0 -0.68738440850E+02  0.92371878182E+02  0.41699592264E+03  0.43260044821E+03  0.10566000000E+00 0. -1.
        994    1    1    2    0    0 -0.86986129253E+02 -0.11322839745E+03  0.10219473174E+03  0.24523551918E+03  0.17120000000E+03 0.  0.
        998    1    1    2    0    0  0.15572457010E+03  0.20856519263E+02  0.98080934191E+03  0.99336403262E+03  0.10000000000E+02 0. -1.
</event>
<event>
 5    1  0.1106231E-008  0.3828674E+03  0.7957747E-01  0.3438767E+00
         13   -1    0    0    0    0  0.00000000000E+00  0.00000000000E+00  0.14999999963E+04  0.15000000000E+04  0.10566000000E+00 0.  1.
        994   -1    0    0    0    0 -0.00000000000E+00 -0.00000000000E+00  0.11368683772E-12  0.17120000000E+03  0.17120000000E+03 0.  0.
         13    1    1    2    0    0  0.82623626811E+01 -0.58363866328E+01  0.17655212994E+02  0.20348163453E+02  0.10566000000E+00 0.  1.
        994    1    1    2    0    0 -0.12407211616E+02  0.51547524286E+01  0.32906232225E+01  0.17175790687E+03  0.17120000000E+03 0.  0.
        998    1    1    2    0    0  0.41448489354E+01  0.68163420419E+00  0.14790541601E+04  0.14790939297E+04  0.10000000000E+02 0.  1.
</event>
<event>
 5    1  0.1106231E-008  0.3824995E+03  0.7957747E-01  0.3440347E+00
         13   -1    0    0    0    0  0.00000000000E+00  0.00000000000E+00  0.14999999963E+04  0.15000000000E+04  0.10566000000E+00 0.  1.
        994   -1    0    0    0    0 -0.00000000000E+00 -0.00000000000E+00  0.11368683772E-12  0.17120000000E+03  0.17120000000E+03 0.  0.
         13    1    1    2    0    0 -0.49301766097E+01  0.31221301671E+02  0.19060457778E+03  0.19320764103E+03  0.10566000000E+00 0.  1.
        994    1    1    2    0    0  0.39668670077E+01 -0.66429021367E+01  0.30752205598E+01  0.17140233710E+03  0.17120000000E+03 0.  0.
        998    1    1    2    0    0  0.96330960199E+00 -0.24578399534E+02  0.13063201979E+04  0.13065900219E+04  0.10000000000E+02 0.  1.
</event>
<event>
 5    1  0.1106231E-008  0.3803650E+03  0.7957747E-01  0.3449571E+00
         13   -1    0    0    0    0  0.00000000000E+00  0.00000000000E+00  0.14999999963E+04  0.15000000000E+04  0.10566000000E+00 0. -1.
        994   -1    0    0    0    0 -0.00000000000E+00 -0.00000000000E+00  0.11368683772E-12  0.17120000000E+03  0.17120000000E+03 0.  0.
         13    1    1    2    0    0 -0.39302631003E+01 -0.30344437933E+02  0.11563433616E+03  0.11961414108E+03  0.10566000000E+00 0. -1.
        994    1    1    2    0    0  0.20588371803E+01  0.20674287285E+02  0.53915896417E+01  0.17254035529E+03  0.17120000000E+03 0.  0.
        998    1    1    2    0    0  0.18714259200E+01  0.96701506480E+01  0.13789740705E+04  0.13790455036E+04  0.10000000000E+02 0. -1.
</event>
<event>
 5    1  0.1106231E-008  0.3826441E+03  0.7957747E-01  0.3439726E+00
         13   -1    0    0    0    0  0.00000000000E+00  0.00000000000E+00  0.14999999963E+04  0.15000000000E+04  0.10566000000E+00 0. -1.
        994   -1    0    0    0    0 -0.00000000000E+00 -0.00000000000E+00  0.11368683772E-12  0.17120000000E+03  0.17120000000E+03 0.  0.
         13    1    1    2    0    0  0.80673359597E+01  0.12914284628E+02  0.41698031930E+02  0.44391414573E+02  0.10566000000E+00 0. -1.
        994    1    1    2    0    0  0.10055941377E+02 -0.93019552266E+01  0.34264431269E+01  0.17178134020E+03  0.17120000000E+03 0.  0.
        998    1    1    2    0    0 -0.18123277336E+02 -0.36123294017E+01  0.14548755212E+04  0.14550272452E+04  0.10000000000E+02 0. -1.
</event>
<event>
 5    1  0.1106231E-008  0.3810085E+03  0.7957747E-01  0.3446779E+00
         13   -1    0    0    0    0  0.00000000000E+00  0.00000000000E+00  0.14999999963E+04  0.15000000000E+04  0.10566000000E+00 0.  1.
        994   -1    0    0    0    0 -0.00000000000E+00 -0.00000000000E+00  0.11368683772E-12  0.17120000000E+03  0.17120000000E+03 0.  0.
         13    1    1    2    0    0  0.16479031715E+02 -0.25119987679E+02  0.12510565670E+03  0.12866238288E+03  0.10566000000E+00 0.  1.
        994    1    1    2    0    0 -0.50475686245E+01  0.15349385755E+02  0.44952730752E+01  0.17201956014E+03  0.17120000000E+03 0.  0.
        998    1    1    2    0    0 -0.11431463091E+02  0.97706019234E+01  0.13703990665E+04  0.13705180570E+04  0.10000000000E+02 0.  1.
</event>
<event>
 5    1  0.1106231E-008  0.3848114E+03  0.7957747E-01  0.3430472E+00
         13   -1    0    0    0    0  0.00000000000E+00  0.00000000000E+00  0.14999999963E+04  0.15000000000E+04  0.10566000000E+00 0. -1.
        994   -1    0    0    0    0 -0.00000000000E+00 -0.00000000000E+00  0.11368683772E-12  0.17120000000E+03  0.17120000000E+03 0.  0.
         13    1    1    2    0    0  0.52709028792E+01  0.86800529101E+01  0.30318699314E+02  0.31974371422E+02  0.10566000000E+00 0. -1.
        994    1    1    2    0    0 -0.10717472322E+02  0.47768756115E+01  0.21769911274E+01  0.17161544815E+03  0.17120000000E+03 0.  0.
        998    1    1    2    0    0  0.54465694433E+01 -0.13456928522E+02  0.14675043058E+04  0.14676101804E+04  0.10000000000E+02 0. -1.
</event>
<event>
 5    1  0.1106231E-008  0.3763708E+03  0.7957747E-01  0.3467115E+00
         13   -1    0    0    0    0  0.00000000000E+00  0.00000000000E+00  0.14999999963E+04  0.15000000000E+04  0.10566000000E+00 0.  1.
        994   -1    0    0    0    0 -0.00000000000E+00 -0.00000000000E+00  0.11368683772E-12  0.17120000000E+03  0.17120000000E+03 0.  0.
         13    1    1    2    0    0 -0.28719333261E+02 -0.23153431918E+02  0.10651735329E+03  0.11272461678E+03  0.10566000000E+00 0.  1.
        994    1    1    2    0    0  0.26282284588E+02  0.19874413985E+02  0.96589462423E+01  0.17460952453E+03  0.17120000000E+03 0.  0.
        998    1    1    2    0    0  0.24370486729E+01  0.32790179332E+01  0.13838236967E+04  0.13838658587E+04  0.10000000000E+02 0.  1.
</event>
<event>
 5    1  0.1106231E-008  0.3836332E+03  0.7957747E-01  0.3435490E+00
         13   -1    0    0    0    0  0.00000000000E+00  0.00000000000E+00  0.14999999963E+04  0.15000000000E+04  0.10566000000E+00 0. -1.
        994   -1    0    0    0    0 -0.00000000000E+00 -0.00000000000E+00  0.11368683772E-12  0.17120000000E+03  0.17120000000E+03 0.  0.
         13    1    1    2    0    0  0.10025014051E+02  0.14922475205E+02  0.72708738334E+02  0.74898284140E+02  0.10566000000E+00 0. -1.
        994    1    1    2    0    0  0.51207091007E+01 -0.76844882675E+01  0.25919783547E+01  0.17146845591E+03  0.17120000000E+03 0.  0.
        998    1    1    2    0    0 -0.15145723152E+02 -0.72379869378E+01  0.14246992796E+04  0.14248332599E+04  0.10000000000E+02 0.  1.
</event>
<event>
 5    1  0.1106231E-008  0.3830198E+03  0.7957747E-01  0.3438114E+00
         13   -1    0    0    0    0  0.00000000000E+00  0.00000000000E+00  0.14999999963E+04  0.15000000000E+04  0.10566000000E+00 0. -1.
        994   -1    0    0    0    0 -0.00000000000E+00 -0.00000000000E+00  0.11368683772E-12  0.17120000000E+03  0.17120000000E+03 0.  0.
         13    1    1    2    0    0 -0.10238078678E+02  0.30699009299E+01  0.22527674524E+02  0.24934911875E+02  0.10566000000E+00 0. -1.
        994    1    1    2    0    0 -0.10036109102E+02  0.22456393184E+02  0.46215555399E+01  0.17301968633E+03  0.17120000000E+03 0.  0.
        998    1    1    2    0    0  0.20274187780E+02 -0.25526294114E+02  0.14728507662E+04  0.14732454018E+04  0.10000000000E+02 0. -1.
</event>
<event>
 5    1  0.1106231E-008  0.3850940E+03  0.7957747E-01  0.3429274E+00
         13   -1    0    0    0    0  0.00000000000E+00  0.00000000000E+00  0.14999999963E+04  0.15000000000E+04  0.10566000000E+00 0.  1.
        994   -1    0    0    0    0 -0.00000000000E+00 -0.00000000000E+00  0.11368683772E-12  0.17120000000E+03  0.17120000000E+03 0.  0.
         13    1    1    2    0    0 -0.12283814562E+02  0.59910520654E+01  0.58370742495E+02  0.59949474965E+02  0.10566000000E+00 0.  1.
        994    1    1    2    0    0  0.90573278694E+01 -0.62883992105E+01  0.19832806919E+01  0.17156617544E+03  0.17120000000E+03 0.  0.
        998    1    1    2    0    0  0.32264866929E+01  0.29734714507E+00  0.14396459731E+04  0.14396843496E+04  0.10000000000E+02 0.  1.
</event>
<event>
 5    1  0.1106231E-008  0.3380057E+03  0.7957747E-01  0.3657227E+00
         13   -1    0    0    0    0  0.00000000000E+00  0.00000000000E+00  0.14999999963E+04  0.15000000000E+04  0.10566000000E+00 0.  1.
        994   -1    0    0    0    0 -0.00000000000E+00 -0.00000000000E+00  0.11368683772E-12  0.17120000000E+03  0.17120000000E+03 0.  0.
         13    1    1    2    0    0 -0.83348454118E+02  0.25051449715E+03  0.75366775031E+03  0.79857345755E+03  0.10566000000E+00 0.  1.
        994    1    1    2    0    0  0.88523869086E+02 -0.24360425896E+03  0.31957487611E+03  0.44566473029E+03  0.17120000000E+03 0.  0.
        998    1    1    2    0    0 -0.51754149680E+01 -0.69102381891E+01  0.42675736986E+03  0.42696181215E+03  0.10000000000E+02 0.  1.
</event>
<event>
 5    1  0.1106231E-008  0.3782942E+03  0.7957747E-01  0.3458620E+00
         13   -1    0    0    0    0  0.00000000000E+00  0.00000000000E+00  0.14999999963E+04  0.15000000000E+04  0.10566000000E+00 0.  1.
        994   -1    0    0    0    0 -0.00000000000E+00 -0.00000000000E+00  0.11368683772E-12  0.17120000000E+03  0.17120000000E+03 0.  0.
         13    1    1    2    0    0 -0.71777549329E+02 -0.39780277766E+02  0.44119850165E+03  0.44876565834E+03  0.10566000000E+00 0.  1.
        994    1    1    2    0    0  0.77850513507E+02  0.40913975150E+02  0.31456456567E+02  0.19502206151E+03  0.17120000000E+03 0.  0.
        998    1    1    2    0    0 -0.60729641784E+01 -0.11336973843E+01  0.10273450381E+04  0.10274122802E+04  0.10000000000E+02 0. -1.
</event>
<event>
 5    1  0.1106231E-008  0.3808317E+03  0.7957747E-01  0.3447545E+00
         13   -1    0    0    0    0  0.00000000000E+00  0.00000000000E+00  0.14999999963E+04  0.15000000000E+04  0.10566000000E+00 0.  1.
        994   -1    0    0    0    0 -0.00000000000E+00 -0.00000000000E+00  0.11368683772E-12  0.17120000000E+03  0.17120000000E+03 0.  0.
         13    1    1    2    0    0 -0.15909953166E+02 -0.38300326881E+02  0.20323862755E+03  0.20742707765E+03  0.10566000000E+00 0.  1.
        994    1    1    2    0    0  0.14944665010E+02  0.37340112217E+02  0.91255329168E+01  0.17609753645E+03  0.17120000000E+03 0.  0.
        998    1    1    2    0    0  0.96528815613E+00  0.96021466385E+00  0.12876358358E+04  0.12876753859E+04  0.10000000000E+02 0.  0.
</event>
<event>
 5    1  0.1106231E-008  0.3816201E+03  0.7957747E-01  0.3444135E+00
         13   -1    0    0    0    0  0.00000000000E+00  0.00000000000E+00  0.14999999963E+04  0.15000000000E+04  0.10566000000E+00 0. -1.
        994   -1    0    0    0    0 -0.00000000000E+00 -0.00000000000E+00  0.11368683772E-12  0.17120000000E+03  0.17120000000E+03 0.  0.
         13    1    1    2    0    0  0.48447728920E+01  0.14311085708E+02  0.33219394246E+02  0.36494086050E+02  0.10566000000E+00 0. -1.
        994    1    1    2    0    0 -0.21769983572E+02 -0.30522632294E+01  0.49260824062E+01  0.17267586624E+03  0.17120000000E+03 0.  0.
        998    1    1    2    0    0  0.16925210680E+02 -0.11258822479E+02  0.14618545196E+04  0.14620300477E+04  0.10000000000E+02 0. -1.
</event>
<event>
 5    1  0.1106231E-008  0.3694316E+03  0.7957747E-01  0.3498507E+00
         13   -1    0    0    0    0  0.00000000000E+00  0.00000000000E+00  0.14999999963E+04  0.15000000000E+04  0.10566000000E+00 0. -1.
        994   -1    0    0    0    0 -0.00000000000E+00 -0.00000000000E+00  0.11368683772E-12  0.17120000000E+03  0.17120000000E+03 0.  0.
         13    1    1    2    0    0  0.40544019045E+02 -0.59245009239E+01  0.80760763866E+02  0.90560638998E+02  0.10566000000E+00 0. -1.
        994    1    1    2    0    0 -0.38235545152E+02  0.70648611093E+01  0.14822434392E+02  0.17618460130E+03  0.17120000000E+03 0.  0.
        998    1    1    2    0    0 -0.23084738938E+01 -0.11403601854E+01  0.14044167980E+04  0.14044547597E+04  0.10000000000E+02 0. -1.
</event>
<event>
 5    1  0.1106231E-008  0.3691965E+03  0.7957747E-01  0.3499592E+00
         13   -1    0    0    0    0  0.00000000000E+00  0.00000000000E+00  0.14999999963E+04  0.15000000000E+04  0.10566000000E+00 0. -1.
        994   -1    0    0    0    0 -0.00000000000E+00 -0.00000000000E+00  0.11368683772E-12  0.17120000000E+03  0.17120000000E+03 0.  0.
         13    1    1    2    0    0  0.61592059443E+02  0.35804831320E+02  0.25011019018E+03  0.26005900509E+03  0.10566000000E+00 0. -1.
        994    1    1    2    0    0 -0.35158291777E+02 -0.54379376378E+01  0.14939849767E+02  0.17549448925E+03  0.17120000000E+03 0.  0.
        998    1    1    2    0    0 -0.26433767665E+02 -0.30366893683E+02  0.12349499563E+04  0.12356465057E+04  0.10000000000E+02 0. -1.
</event>
<event>
 5    1  0.1106231E-008  0.3758341E+03  0.7957747E-01  0.3469501E+00
         13   -1    0    0    0    0  0.00000000000E+00  0.00000000000E+00  0.14999999963E+04  0.15000000000E+04  0.10566000000E+00 0. -1.
        994   -1    0    0    0    0 -0.00000000000E+00 -0.00000000000E+00  0.11368683772E-12  0.17120000000E+03  0.17120000000E+03 0.  0.
         13    1    1    2    0    0  0.11105996281E+02  0.17042109357E+02  0.29712972429E+02  0.36009006364E+02  0.10566000000E+00 0. -1.
        994    1    1    2    0    0 -0.18160531357E+02 -0.16588227172E+02  0.83044088555E+01  0.17315708876E+03  0.17120000000E+03 0.  0.
        998    1    1    2    0    0  0.70545350768E+01 -0.45388218485E+00  0.14619826150E+04  0.14620339049E+04  0.10000000000E+02 0. -1.
</event>
<event>
 5    1  0.1106231E-008  0.3862358E+03  0.7957747E-01  0.3424448E+00
         13   -1    0    0    0    0  0.00000000000E+00  0.00000000000E+00  0.14999999963E+04  0.15000000000E+04  0.10566000000E+00 0. -1.
        994   -1    0    0    0    0 -0.00000000000E+00 -0.00000000000E+00  0.11368683772E-12  0.17120000000E+03  0.17120000000E+03 0.  0.
         13    1    1    2    0    0 -0.93598841818E+01  0.74795389718E+01  0.72345135492E+02  0.73330626129E+02  0.10566000000E+00 0. -1.
        994    1    1    2    0    0  0.83315669798E+01 -0.46659642357E+00  0.12459234118E+01  0.17140777417E+03  0.17120000000E+03 0.  0.
        998    1    1    2    0    0  0.10283172019E+01 -0.70129425482E+01  0.14264089374E+04  0.14264615997E+04  0.10000000000E+02 0. -1.
</event>
<event>
 5    1  0.1106231E-008  0.3791879E+03  0.7957747E-01  0.3454702E+00
         13   -1    0    0    0    0  0.00000000000E+00  0.00000000000E+00  0.14999999963E+04  0.15000000000E+04  0.10566000000E+00 0.  1.
        994   -1    0    0    0    0 -0.00000000000E+00 -0.00000000000E+00  0.11368683772E-12  0.17120000000E+03  0.17120000000E+03 0.  0.
         13    1    1    2    0    0 -0.24818453614E+02 -0.12169694561E+02  0.79725718150E+02  0.84381623616E+02  0.10566000000E+00 0.  1.
        994    1    1    2    0    0  0.22630285286E+02  0.10095462624E+02  0.66045913965E+01  0.17311010602E+03  0.17120000000E+03 0.  0.
        998    1    1    2    0    0  0.21881683287E+01  0.20742319371E+01  0.14136696867E+04  0.14137082704E+04  0.10000000000E+02 0.  1.
</event>
<event>
 5    1  0.1106231E-008  0.3692246E+03  0.7957747E-01  0.3499462E+00
         13   -1    0    0    0    0  0.00000000000E+00  0.00000000000E+00  0.14999999963E+04  0.15000000000E+04  0.10566000000E+00 0. -1.
        994   -1    0    0    0    0 -0.00000000000E+00 -0.00000000000E+00  0.11368683772E-12  0.17120000000E+03  0.17120000000E+03 0.  0.
         13    1    1    2    0    0  0.32511164609E+02  0.11945280776E+02  0.61291451304E+02  0.70401127293E+02  0.10566000000E+00 0. -1.
        994    1    1    2    0    0 -0.59274732037E+01 -0.32942237653E+01  0.98343733737E+01  0.17161626307E+03  0.17120000000E+03 0.  0.
        998    1    1    2    0    0 -0.26583691405E+02 -0.86510570109E+01  0.14288741716E+04  0.14291826096E+04  0.10000000000E+02 0. -1.
</event>
<event>
 5    1  0.1106231E-008  0.3935464E+03  0.7957747E-01  0.3394215E+00
         13   -1    0    0    0    0  0.00000000000E+00  0.00000000000E+00  0.14999999963E+04  0.15000000000E+04  0.10566000000E+00 0.  1.
        994   -1    0    0    0    0 -0.00000000000E+00 -0.00000000000E+00  0.11368683772E-12  0.17120000000E+03  0.17120000000E+03 0.  0.
         13    1    1    2    0    0  0.32082411211E+01 -0.36960306490E+02  0.19842881151E+02  0.42072653391E+02  0.10566000000E+00 0.  1.
        994    1    1    2    0    0  0.57058360351E+02  0.15365775217E+02  0.37420515228E+02  0.18493647151E+03  0.17120000000E+03 0.  0.
        998    1    1    2    0    0 -0.60266601472E+02  0.21594531273E+02  0.14427365999E+04  0.14441908751E+04  0.10000000000E+02 0.  1.
</event>
<event>
 5    1  0.1106231E-008  0.3826812E+03  0.7957747E-01  0.3439566E+00
         13   -1    0    0    0    0  0.00000000000E+00  0.00000000000E+00  0.14999999963E+04  0.15000000000E+04  0.10566000000E+00 0.  1.
        994   -1    0    0    0    0 -0.00000000000E+00 -0.00000000000E+00  0.11368683772E-12  0.17120000000E+03  0.17120000000E+03 0.  0.
         13    1    1    2    0    0 -0.56781888029E+02  0.17502707662E+03  0.10032622389E+04  0.10199969566E+04  0.10566000000E+00 0.  1.
        994    1    1    2    0    0  0.49064717498E+02 -0.19129528261E+03  0.14505447842E+03  0.29891716806E+03  0.17120000000E+03 0.  0.
        998    1    1    2    0    0  0.77171705307E+01  0.16268205990E+02  0.35168327901E+03  0.35228587537E+03  0.10000000000E+02 0.  1.
</event>
<event>
 5    1  0.1106231E-008  0.3754088E+03  0.7957747E-01  0.3471396E+00
         13   -1    0    0    0    0  0.00000000000E+00  0.00000000000E+00  0.14999999963E+04  0.15000000000E+04  0.10566000000E+00 0. -1.
        994   -1    0    0    0    0 -0.00000000000E+00 -0.00000000000E+00  0.11368683772E-12  0.17120000000E+03  0.17120000000E+03 0.  0.
         13    1    1    2    0    0  0.14233243138E+02  0.20037631206E+02  0.44423700875E+02  0.50769757120E+02  0.10566000000E+00 0. -1.
        994    1    1    2    0    0 -0.98540503182E+01 -0.10476558657E+02  0.71714460570E+01  0.17195269765E+03  0.17120000000E+03 0.  0.
        998    1    1    2    0    0 -0.43791928194E+01 -0.95610725487E+01  0.14484048493E+04  0.14484775452E+04  0.10000000000E+02 0. -1.
</event>
<event>
 5    1  0.1106231E-008  0.3808948E+03  0.7957747E-01  0.3447272E+00
         13   -1    0    0    0    0  0.00000000000E+00  0.00000000000E+00  0.14999999963E+04  0.15000000000E+04  0.10566000000E+00 0.  1.
        994   -1    0    0    0    0 -0.00000000000E+00 -0.00000000000E+00  0.11368683772E-12  0.17120000000E+03  0.17120000000E+03 0.  0.
         13    1    1    2    0    0  0.30973233088E+02  0.65520244038E+01  0.14037649685E+03  0.14390219673E+03  0.10566000000E+00 0.  1.
        994    1    1    2    0    0 -0.12036868652E+02 -0.39415156902E+01  0.42170386448E+01  0.17171967030E+03  0.17120000000E+03 0.  0.
        998    1    1    2    0    0 -0.18936364436E+02 -0.26105087136E+01  0.13554064608E+04  0.13555781330E+04  0.10000000000E+02 0.  1.
</event>
<event>
 5    1  0.1106231E-008  0.3803041E+03  0.7957747E-01  0.3449836E+00
         13   -1    0    0    0    0  0.00000000000E+00  0.00000000000E+00  0.14999999963E+04  0.15000000000E+04  0.10566000000E+00 0. -1.
        994   -1    0    0    0    0 -0.00000000000E+00 -0.00000000000E+00  0.11368683772E-12  0.17120000000E+03  0.17120000000E+03 0.  0.
         13    1    1    2    0    0  0.10479296033E+02 -0.18628833333E+01  0.12415499519E+02  0.16353647055E+02  0.10566000000E+00 0. -1.
        994    1    1    2    0    0 -0.10773706398E+02 -0.11578347730E+00  0.43674952965E+01  0.17159429236E+03  0.17120000000E+03 0.  0.
        998    1    1    2    0    0  0.29441036464E+00  0.19786668106E+01  0.14832170015E+04  0.14832520606E+04  0.10000000000E+02 0. -1.
</event>
<event>
 5    1  0.1106231E-008  0.3762784E+03  0.7957747E-01  0.3467525E+00
         13   -1    0    0    0    0  0.00000000000E+00  0.00000000000E+00  0.14999999963E+04  0.15000000000E+04  0.10566000000E+00 0. -1.
        994   -1    0    0    0    0 -0.00000000000E+00 -0.00000000000E+00  0.11368683772E-12  0.17120000000E+03  0.17120000000E+03 0.  0.
         13    1    1    2    0    0 -0.33508355984E+01 -0.32183835193E+02  0.80245394253E+02  0.86523764422E+02  0.10566000000E+00 0. -1.
        994    1    1    2    0    0 -0.22167747518E+01  0.34208547213E+02  0.10011406677E+02  0.17488512531E+03  0.17120000000E+03 0.  0.
        998    1    1    2    0    0  0.55676103502E+01 -0.20247120197E+01  0.14097431953E+04  0.14097911103E+04  0.10000000000E+02 0. -1.
</event>
<event>
 5    1  0.1106231E-008  0.3743337E+03  0.7957747E-01  0.3476208E+00
         13   -1    0    0    0    0  0.00000000000E+00  0.00000000000E+00  0.14999999963E+04  0.15000000000E+04  0.10566000000E+00 0.  1.
        994   -1    0    0    0    0 -0.00000000000E+00 -0.00000000000E+00  0.11368683772E-12  0.17120000000E+03  0.17120000000E+03 0.  0.
         13    1    1    2    0    0  0.96502925817E+01 -0.14971258893E+02  0.19519858398E+02  0.26425419120E+02  0.10566000000E+00 0.  1.
        994    1    1    2    0    0 -0.42339896956E+01  0.13779395230E+02  0.77295529737E+01  0.17197960458E+03  0.17120000000E+03 0.  0.
        998    1    1    2    0    0 -0.54163028861E+01  0.11918636631E+01  0.14727505849E+04  0.14727949763E+04  0.10000000000E+02 0.  1.
</event>
<event>
 5    1  0.1106231E-008  0.3813952E+03  0.7957747E-01  0.3445106E+00
         13   -1    0    0    0    0  0.00000000000E+00  0.00000000000E+00  0.14999999963E+04  0.15000000000E+04  0.10566000000E+00 0.  1.
        994   -1    0    0    0    0 -0.00000000000E+00 -0.00000000000E+00  0.11368683772E-12  0.17120000000E+03  0.17120000000E+03 0.  0.
         13    1    1    2    0    0 -0.13965193335E+01  0.24438968712E+02  0.84470099628E+02  0.87945564715E+02  0.10566000000E+00 0.  1.
        994    1    1    2    0    0  0.55458266893E+02 -0.18306678751E+02  0.14864428836E+02  0.18149695617E+03  0.17120000000E+03 0.  0.
        998    1    1    2    0    0 -0.54061747559E+02 -0.61322899610E+01  0.14006654678E+04  0.14017574791E+04  0.10000000000E+02 0.  1.
</event>
<event>
 5    1  0.1106231E-008  0.3790745E+03  0.7957747E-01  0.3455198E+00
         13   -1    0    0    0    0  0.00000000000E+00  0.00000000000E+00  0.14999999963E+04  0.15000000000E+04  0.10566000000E+00 0.  1.
        994   -1    0    0    0    0 -0.00000000000E+00 -0.00000000000E+00  0.11368683772E-12  0.17120000000E+03  0.17120000000E+03 0.  0.
         13    1    1    2    0    0  0.13644427721E+02  0.13252453318E+02  0.39356747297E+02  0.43712271145E+02  0.10566000000E+00 0.  1.
        994    1    1    2    0    0  0.74080593635E+01 -0.48656391146E+01  0.48645042750E+01  0.17149827168E+03  0.17120000000E+03 0.  0.
        998    1    1    2    0    0 -0.21052487084E+02 -0.83868142038E+01  0.14557787447E+04  0.14559894572E+04  0.10000000000E+02 0.  1.
</event>
<event>
 5    1  0.1106231E-008  0.2228629E+03  0.7957747E-01  0.4668350E+00
         13   -1    0    0    0    0  0.00000000000E+00  0.00000000000E+00  0.14999999963E+04  0.15000000000E+04  0.10566000000E+00 0.  1.
        994   -1    0    0    0    0 -0.00000000000E+00 -0.00000000000E+00  0.11368683772E-12  0.17120000000E+03  0.17120000000E+03 0.  0.
         13    1    1    2    0    0 -0.73507098451E+02  0.14882994957E+01  0.93058245969E+00  0.73528128670E+02  0.10566000000E+00 0.  1.
        994    1    1    2    0    0  0.76764551442E+02 -0.58624349742E+01  0.12948848115E+03  0.22804357315E+03  0.17120000000E+03 0.  0.
        998    1    1    2    0    0 -0.32574529916E+01  0.43741354786E+01  0.13695809327E+04  0.13696282982E+04  0.10000000000E+02 0.  1.
</event>
<event>
 5    1  0.1106231E-008  0.3843355E+03  0.7957747E-01  0.3432495E+00
         13   -1    0    0    0    0  0.00000000000E+00  0.00000000000E+00  0.14999999963E+04  0.15000000000E+04  0.10566000000E+00 0.  1.
        994   -1    0    0    0    0 -0.00000000000E+00 -0.00000000000E+00  0.11368683772E-12  0.17120000000E+03  0.17120000000E+03 0.  0.
         13    1    1    2    0    0 -0.22012701236E+00 -0.18954009968E+02  0.92803140976E+02  0.94719254056E+02  0.10566000000E+00 0.  1.
        994    1    1    2    0    0  0.27820336174E+01  0.97702285890E+01  0.23006091462E+01  0.17151655862E+03  0.17120000000E+03 0.  0.
        998    1    1    2    0    0 -0.25619066051E+01  0.91837813787E+01  0.14048962462E+04  0.14049641873E+04  0.10000000000E+02 0.  1.
</event>
<event>
 5    1  0.1106231E-008  0.3781360E+03  0.7957747E-01  0.3459315E+00
         13   -1    0    0    0    0  0.00000000000E+00  0.00000000000E+00  0.14999999963E+04  0.15000000000E+04  0.10566000000E+00 0. -1.
        994   -1    0    0    0    0 -0.00000000000E+00 -0.00000000000E+00  0.11368683772E-12  0.17120000000E+03  0.17120000000E+03 0.  0.
         13    1    1    2    0    0  0.29863976742E+02 -0.34919149127E+02  0.16400397100E+03  0.17031887080E+03  0.10566000000E+00 0. -1.
        994    1    1    2    0    0 -0.25848493478E+02  0.64864114784E+02  0.21655742243E+02  0.18615560473E+03  0.17120000000E+03 0.  0.
        998    1    1    2    0    0 -0.40154832643E+01 -0.29944965657E+02  0.13143402830E+04  0.13147255245E+04  0.10000000000E+02 0. -1.
</event>
<event>
 5    1  0.1106231E-008  0.3703880E+03  0.7957747E-01  0.3494110E+00
         13   -1    0    0    0    0  0.00000000000E+00  0.00000000000E+00  0.14999999963E+04  0.15000000000E+04  0.10566000000E+00 0.  1.
        994   -1    0    0    0    0 -0.00000000000E+00 -0.00000000000E+00  0.11368683772E-12  0.17120000000E+03  0.17120000000E+03 0.  0.
         13    1    1    2    0    0  0.87991834266E+01 -0.27343236197E+02  0.32236621955E+02  0.43177414858E+02  0.10566000000E+00 0.  1.
        994    1    1    2    0    0 -0.79845626985E+01  0.22344596511E+02  0.13117603316E+02  0.17333362556E+03  0.17120000000E+03 0.  0.
        998    1    1    2    0    0 -0.81462072811E+00  0.49986396862E+01  0.14546457710E+04  0.14546889596E+04  0.10000000000E+02 0.  1.
</event>
<event>
 5    1  0.1106231E-008  0.3827289E+03  0.7957747E-01  0.3439362E+00
         13   -1    0    0    0    0  0.00000000000E+00  0.00000000000E+00  0.14999999963E+04  0.15000000000E+04  0.10566000000E+00 0. -1.
        994   -1    0    0    0    0 -0.00000000000E+00 -0.00000000000E+00  0.11368683772E-12  0.17120000000E+03  0.17120000000E+03 0.  0.
         13    1    1    2    0    0 -0.21266786346E+02  0.61019905277E+01  0.91940574775E+02  0.94565273456E+02  0.10566000000E+00 0. -1.
        994    1    1    2    0    0  0.45538093529E+01 -0.61852052862E+01  0.29573967574E+01  0.17139772501E+03  0.17120000000E+03 0.  0.
        998    1    1    2    0    0  0.16712976993E+02  0.83214758549E-01  0.14051020247E+04  0.14052370015E+04  0.10000000000E+02 0. -1.
</event>
<event>
 5    1  0.1106231E-008  0.3752596E+03  0.7957747E-01  0.3472063E+00
         13   -1    0    0    0    0  0.00000000000E+00  0.00000000000E+00  0.14999999963E+04  0.15000000000E+04  0.10566000000E+00 0.  1.
        994   -1    0    0    0    0 -0.00000000000E+00 -0.00000000000E+00  0.11368683772E-12  0.17120000000E+03  0.17120000000E+03 0.  0.
         13    1    1    2    0    0  0.63217259418E+02  0.50538515102E+02  0.37581832810E+03  0.38443463723E+03  0.10566000000E+00 0.  1.
        994    1    1    2    0    0 -0.61683750307E+02 -0.50477982329E+02  0.28436846034E+02  0.19097383581E+03  0.17120000000E+03 0.  0.
        998    1    1    2    0    0 -0.15335091109E+01 -0.60532772959E-01  0.10957448221E+04  0.10957915270E+04  0.10000000000E+02 0.  0.
</event>
<event>
 5    1  0.1106231E-008  0.3837839E+03  0.7957747E-01  0.3434846E+00
         13   -1    0    0    0    0  0.00000000000E+00  0.00000000000E+00  0.14999999963E+04  0.15000000000E+04  0.10566000000E+00 0.  1.
        994   -1    0    0    0    0 -0.00000000000E+00 -0.00000000000E+00  0.11368683772E-12  0.17120000000E+03  0.17120000000E+03 0.  0.
         13    1    1    2    0    0  0.10421500352E+02 -0.20138867809E+02  0.10700970010E+03  0.10938587087E+03  0.10566000000E+00 0.  1.
        994    1    1    2    0    0 -0.18155060810E+02  0.17526048658E+02  0.43403151801E+01  0.17310415059E+03  0.17120000000E+03 0.  0.
        998    1    1    2    0    0  0.77335604586E+01  0.26128191509E+01  0.13886499810E+04  0.13887099785E+04  0.10000000000E+02 0.  1.
</event>
<event>
 5    1  0.1106231E-008  0.3771466E+03  0.7957747E-01  0.3463678E+00
         13   -1    0    0    0    0  0.00000000000E+00  0.00000000000E+00  0.14999999963E+04  0.15000000000E+04  0.10566000000E+00 0. -1.
        994   -1    0    0    0    0 -0.00000000000E+00 -0.00000000000E+00  0.11368683772E-12  0.17120000000E+03  0.17120000000E+03 0.  0.
         13    1    1    2    0    0 -0.84676657295E+01  0.51793435004E+02  0.22528109988E+03  0.23131330787E+03  0.10566000000E+00 0. -1.
        994    1    1    2    0    0 -0.22695263311E+00 -0.43023658910E+02  0.11853125658E+02  0.17692095218E+03  0.17120000000E+03 0.  0.
        998    1    1    2    0    0  0.86946183626E+01 -0.87697760938E+01  0.12628657707E+04  0.12629657399E+04  0.10000000000E+02 0. -1.
</event>
<event>
 5    1  0.1106231E-008  0.3744593E+03  0.7957747E-01  0.3475644E+00
         13   -1    0    0    0    0  0.00000000000E+00  0.00000000000E+00  0.14999999963E+04  0.15000000000E+04  0.10566000000E+00 0. -1.
        994   -1    0    0    0    0 -0.00000000000E+00 -0.00000000000E+00  0.11368683772E-12  0.17120000000E+03  0.17120000000E+03 0.  0.
         13    1    1    2    0    0  0.63830977443E+02  0.19050260326E+02  0.33681550784E+03  0.34333948736E+03  0.10566000000E+00 0. -1.
        994    1    1    2    0    0 -0.28483495553E+02 -0.10714348707E+02  0.10116874174E+02  0.17417777680E+03  0.17120000000E+03 0.  0.
        998    1    1    2    0    0 -0.35347481890E+02 -0.83359116196E+01  0.11530676143E+04  0.11536827358E+04  0.10000000000E+02 0. -1.
</event>
<event>
 5    1  0.1106231E-008  0.3915427E+03  0.7957747E-01  0.3402389E+00
         13   -1    0    0    0    0  0.00000000000E+00  0.00000000000E+00  0.14999999963E+04  0.15000000000E+04  0.10566000000E+00 0.  1.
        994   -1    0    0    0    0 -0.00000000000E+00 -0.00000000000E+00  0.11368683772E-12  0.17120000000E+03  0.17120000000E+03 0.  0.
         13    1    1    2    0    0 -0.13823368743E+03 -0.84349924860E+02  0.41327728413E+03  0.44387113772E+03  0.10566000000E+00 0.  1.
        994    1    1    2    0    0  0.13329077049E+03  0.70522412238E+02  0.11508108266E+03  0.25552482406E+03  0.17120000000E+03 0.  0.
        998    1    1    2    0    0  0.49429169371E+01  0.13827512621E+02  0.97164162949E+03  0.97180403822E+03  0.10000000000E+02 0.  0.
</event>
<event>
 5    1  0.1106231E-008  0.3765237E+03  0.7957747E-01  0.3466436E+00
         13   -1    0    0    0    0  0.00000000000E+00  0.00000000000E+00  0.14999999963E+04  0.15000000000E+04  0.10566000000E+00 0.  1.
        994   -1    0    0    0    0 -0.00000000000E+00 -0.00000000000E+00  0.11368683772E-12  0.17120000000E+03  0.17120000000E+03 0.  0.
         13    1    1    2    0    0 -0.10895977676E+03 -0.13058382392E+03  0.82852421916E+03  0.84579948033E+03  0.10566000000E+00 0.  1.
        994    1    1    2    0    0  0.11025343640E+03  0.13735347656E+03  0.11925097487E+03  0.27304218130E+03  0.17120000000E+03 0.  0.
        998    1    1    2    0    0 -0.12936596403E+01 -0.67696526399E+01  0.55222480225E+03  0.55235833837E+03  0.10000000000E+02 0.  1.
</event>
<event>
 5    1  0.1106231E-008  0.3855404E+03  0.7957747E-01  0.3427384E+00
         13   -1    0    0    0    0  0.00000000000E+00  0.00000000000E+00  0.14999999963E+04  0.15000000000E+04  0.10566000000E+00 0. -1.
        994   -1    0    0    0    0 -0.00000000000E+00 -0.00000000000E+00  0.11368683772E-12  0.17120000000E+03  0.17120000000E+03 0.  0.
         13    1    1    2    0    0  0.13507552474E+02  0.65450436705E+01  0.66193010996E+02  0.67873540052E+02  0.10566000000E+00 0. -1.
        994    1    1    2    0    0 -0.32600954590E+02 -0.34410142021E+02  0.87734014754E+01  0.17785750669E+03  0.17120000000E+03 0.  0.
        998    1    1    2    0    0  0.19093402116E+02  0.27865098351E+02  0.14250335838E+04  0.14254689533E+04  0.10000000000E+02 0. -1.
</event>
<event>
 5    1  0.1106231E-008  0.3793158E+03  0.7957747E-01  0.3454143E+00
         13   -1    0    0    0    0  0.00000000000E+00  0.00000000000E+00  0.14999999963E+04  0.15000000000E+04  0.10566000000E+00 0. -1.
        994   -1    0    0    0    0 -0.00000000000E+00 -0.00000000000E+00  0.11368683772E-12  0.17120000000E+03  0.17120000000E+03 0.  0.
         13    1    1    2    0    0 -0.61112399817E+02  0.12667303962E+02  0.34494295446E+03  0.35054363352E+03  0.10566000000E+00 0. -1.
        994    1    1    2    0    0  0.58222985235E+02 -0.12639169952E+02  0.16465318116E+02  0.18201706329E+03  0.17120000000E+03 0.  0.
        998    1    1    2    0    0  0.28894145821E+01 -0.28134009566E-01  0.11385917237E+04  0.11386393032E+04  0.10000000000E+02 0.  1.
</event>
<event>
 5    1  0.1106231E-008  0.3849401E+03  0.7957747E-01  0.3429926E+00
         13   -1    0    0    0    0  0.00000000000E+00  0.00000000000E+00  0.14999999963E+04  0.15000000000E+04  0.10566000000E+00 0.  1.
        994   -1    0    0    0    0 -0.00000000000E+00 -0.00000000000E+00  0.11368683772E-12  0.17120000000E+03  0.17120000000E+03 0.  0.
         13    1    1    2    0    0 -0.15634462250E+02 -0.78262368423E+01  0.86618558986E+02  0.88365560699E+02  0.10566000000E+00 0.  1.
        994    1    1    2    0    0  0.11476155924E+02  0.22053926788E+02  0.36955788131E+01  0.17303518470E+03  0.17120000000E+03 0.  0.
        998    1    1    2    0    0  0.41583063257E+01 -0.14227689945E+02  0.14096858585E+04  0.14097992546E+04  0.10000000000E+02 0.  1.
</event>
<event>
 5    1  0.1106231E-008  0.3779852E+03  0.7957747E-01  0.3459978E+00
         13   -1    0    0    0    0  0.00000000000E+00  0.00000000000E+00  0.14999999963E+04  0.15000000000E+04  0.10566000000E+00 0. -1.
        994   -1    0    0    0    0 -0.00000000000E+00 -0.00000000000E+00  0.11368683772E-12  0.17120000000E+03  0.17120000000E+03 0.  0.
         13    1    1    2    0    0 -0.15918964668E+03  0.27636774878E+02  0.75951053991E+03  0.77650589588E+03  0.10566000000E+00 0. -1.
        994    1    1    2    0    0  0.18099994639E+03 -0.20663503503E+02  0.12646611916E+03  0.28016259612E+03  0.17120000000E+03 0.  0.
        998    1    1    2    0    0 -0.21810299708E+02 -0.69732713747E+01  0.61402333721E+03  0.61453150800E+03  0.10000000000E+02 0.  1.
</event>
<event>
 5    1  0.1106231E-008  0.3688357E+03  0.7957747E-01  0.3501259E+00
         13   -1    0    0    0    0  0.00000000000E+00  0.00000000000E+00  0.14999999963E+04  0.15000000000E+04  0.10566000000E+00 0.  1.
        994   -1    0    0    0    0 -0.00000000000E+00 -0.00000000000E+00  0.11368683772E-12  0.17120000000E+03  0.17120000000E+03 0.  0.
         13    1    1    2    0    0  0.17401290628E+02  0.20520390213E+01  0.10308478270E+02  0.20329576187E+02  0.10566000000E+00 0.  1.
        994    1    1    2    0    0 -0.11461743186E+02 -0.53113126576E+01  0.10880315680E+02  0.17200989177E+03  0.17120000000E+03 0.  0.
        998    1    1    2    0    0 -0.59395474421E+01  0.32592736364E+01  0.14788112023E+04  0.14788605320E+04  0.10000000000E+02 0.  1.
</event>
<event>
 5    1  0.1106231E-008  0.3899693E+03  0.7957747E-01  0.3408866E+00
         13   -1    0    0    0    0  0.00000000000E+00  0.00000000000E+00  0.14999999963E+04  0.15000000000E+04  0.10566000000E+00 0.  1.
        994   -1    0    0    0    0 -0.00000000000E+00 -0.00000000000E+00  0.11368683772E-12  0.17120000000E+03  0.17120000000E+03 0.  0.
         13    1    1    2    0    0 -0.31643407426E+02 -0.25352050985E+02  0.28501977224E+02  0.49562138699E+02  0.10566000000E+00 0.  1.
        994    1    1    2    0    0  0.33207363138E+02  0.20302768729E+02  0.27634735360E+02  0.17773027312E+03  0.17120000000E+03 0.  0.
        998    1    1    2    0    0 -0.15639557123E+01  0.50492822558E+01  0.14438632837E+04  0.14439075882E+04  0.10000000000E+02 0.  1.
</event>
<event>
 5    1  0.1106231E-008  0.3806902E+03  0.7957747E-01  0.3448159E+00
         13   -1    0    0    0    0  0.00000000000E+00  0.00000000000E+00  0.14999999963E+04  0.15000000000E+04  0.10566000000E+00 0. -1.
        994   -1    0    0    0    0 -0.00000000000E+00 -0.00000000000E+00  0.11368683772E-12  0.17120000000E+03  0.17120000000E+03 0.  0.
         13    1    1    2    0    0 -0.13934712094E+02  0.15227641820E+02  0.51206413024E+01  0.21267096839E+02  0.10566000000E+00 0. -1.
        994    1    1    2    0    0  0.14653491939E+02 -0.25491287073E+02  0.19853698769E+02  0.17483746709E+03  0.17120000000E+03 0.  0.
        998    1    1    2    0    0 -0.71877984449E+00  0.10263645253E+02  0.14750256562E+04  0.14750954361E+04  0.10000000000E+02 0. -1.
</event>
<event>
 5    1  0.1106231E-008  0.3705811E+03  0.7957747E-01  0.3493224E+00
         13   -1    0    0    0    0  0.00000000000E+00  0.00000000000E+00  0.14999999963E+04  0.15000000000E+04  0.10566000000E+00 0.  1.
        994   -1    0    0    0    0 -0.00000000000E+00 -0.00000000000E+00  0.11368683772E-12  0.17120000000E+03  0.17120000000E+03 0.  0.
         13    1    1    2    0    0  0.56242521006E+02 -0.30674349616E+02  0.27296732941E+03  0.28038422028E+03  0.10566000000E+00 0.  1.
        994    1    1    2    0    0 -0.43580394051E+00  0.16141229365E+02  0.98658513062E+01  0.17224257381E+03  0.17120000000E+03 0.  0.
        998    1    1    2    0    0 -0.55806717065E+02  0.14533120252E+02  0.12171668156E+04  0.12185732059E+04  0.10000000000E+02 0.  1.
</event>
<event>
 5    1  0.1106231E-008  0.3706414E+03  0.7957747E-01  0.3492948E+00
         13   -1    0    0    0    0  0.00000000000E+00  0.00000000000E+00  0.14999999963E+04  0.15000000000E+04  0.10566000000E+00 0. -1.
        994   -1    0    0    0    0 -0.00000000000E+00 -0.00000000000E+00  0.11368683772E-12  0.17120000000E+03  0.17120000000E+03 0.  0.
         13    1    1    2    0    0  0.18605963061E+02  0.15926555842E+02  0.21381178896E+02  0.32511582820E+02  0.10566000000E+00 0. -1.
        994    1    1    2    0    0 -0.22508534760E+02 -0.14970480884E+02  0.13843042909E+02  0.17387299754E+03  0.17120000000E+03 0.  0.
        998    1    1    2    0    0  0.39025716993E+01 -0.95607495892E+00  0.14647757745E+04  0.14648154196E+04  0.10000000000E+02 0. -1.
</event>
<event>
 5    1  0.1106231E-008  0.3685482E+03  0.7957747E-01  0.3502590E+00
         13   -1    0    0    0    0  0.00000000000E+00  0.00000000000E+00  0.14999999963E+04  0.15000000000E+04  0.10566000000E+00 0. -1.
        994   -1    0    0    0    0 -0.00000000000E+00 -0.00000000000E+00  0.11368683772E-12  0.17120000000E+03  0.17120000000E+03 0.  0.
         13    1    1    2    0    0  0.52954577175E+01 -0.14787825343E+02  0.74817946084E+01  0.17398565038E+02  0.10566000000E+00 0. -1.
        994    1    1    2    0    0 -0.30195980146E+01  0.14772788883E+02  0.10964372417E+02  0.17221210970E+03  0.17120000000E+03 0.  0.
        998    1    1    2    0    0 -0.22758597029E+01  0.15036459190E-01  0.14815538293E+04  0.14815893253E+04  0.10000000000E+02 0. -1.
</event>
<event>
 5    1  0.1106231E-008  0.3819832E+03  0.7957747E-01  0.3442568E+00
         13   -1    0    0    0    0  0.00000000000E+00  0.00000000000E+00  0.14999999963E+04  0.15000000000E+04  0.10566000000E+00 0. -1.
        994   -1    0    0    0    0 -0.00000000000E+00 -0.00000000000E+00  0.11368683772E-12  0.17120000000E+03  0.17120000000E+03 0.  0.
         13    1    1    2    0    0  0.22831779322E+02 -0.19942733298E+02  0.13344881544E+03  0.13684882266E+03  0.10566000000E+00 0. -1.
        994    1    1    2    0    0 -0.29976441250E+02  0.13182196715E+02  0.67050093382E+01  0.17443266463E+03  0.17120000000E+03 0.  0.
        998    1    1    2    0    0  0.71446619280E+01  0.67605365829E+01  0.13598461715E+04  0.13599185127E+04  0.10000000000E+02 0. -1.
</event>
<event>
 5    1  0.1106231E-008  0.3852211E+03  0.7957747E-01  0.3428735E+00
         13   -1    0    0    0    0  0.00000000000E+00  0.00000000000E+00  0.14999999963E+04  0.15000000000E+04  0.10566000000E+00 0.  1.
        994   -1    0    0    0    0 -0.00000000000E+00 -0.00000000000E+00  0.11368683772E-12  0.17120000000E+03  0.17120000000E+03 0.  0.
         13    1    1    2    0    0 -0.84370241696E+01 -0.14218971451E+02  0.87282794258E+02  0.88835014851E+02  0.10566000000E+00 0.  1.
        994    1    1    2    0    0  0.57140726883E+01  0.13963678062E+02  0.22688285032E+01  0.17187851092E+03  0.17120000000E+03 0.  0.
        998    1    1    2    0    0  0.27229514812E+01  0.25529338877E+00  0.14104483735E+04  0.14104864742E+04  0.10000000000E+02 0.  1.
</event>
<event>
 5    1  0.1106231E-008  0.3768204E+03  0.7957747E-01  0.3465121E+00
         13   -1    0    0    0    0  0.00000000000E+00  0.00000000000E+00  0.14999999963E+04  0.15000000000E+04  0.10566000000E+00 0.  1.
        994   -1    0    0    0    0 -0.00000000000E+00 -0.00000000000E+00  0.11368683772E-12  0.17120000000E+03  0.17120000000E+03 0.  0.
         13    1    1    2    0    0 -0.24639433440E+00  0.43064893997E+02  0.16641913681E+03  0.17190109385E+03  0.10566000000E+00 0.  1.
        994    1    1    2    0    0  0.14075111158E+02 -0.17911611818E+02  0.75020626752E+01  0.17287178930E+03  0.17120000000E+03 0.  0.
        998    1    1    2    0    0 -0.13828716824E+02 -0.25153282178E+02  0.13260787968E+04  0.13264271168E+04  0.10000000000E+02 0.  1.
</event>
<event>
 5    1  0.1106231E-008  0.3855007E+03  0.7957747E-01  0.3427551E+00
         13   -1    0    0    0    0  0.00000000000E+00  0.00000000000E+00  0.14999999963E+04  0.15000000000E+04  0.10566000000E+00 0. -1.
        994   -1    0    0    0    0 -0.00000000000E+00 -0.00000000000E+00  0.11368683772E-12  0.17120000000E+03  0.17120000000E+03 0.  0.
         13    1    1    2    0    0 -0.11898610788E+02  0.33864320222E+01  0.55736306349E+02  0.57092835540E+02  0.10566000000E+00 0. -1.
        994    1    1    2    0    0  0.75434448880E+01 -0.27637760861E+01  0.15936956919E+01  0.17139580475E+03  0.17120000000E+03 0.  0.
        998    1    1    2    0    0  0.43551658995E+01 -0.62265593612E+00  0.14426699942E+04  0.14427113597E+04  0.10000000000E+02 0. -1.
</event>
<event>
 5    1  0.1106231E-008  0.3812125E+03  0.7957747E-01  0.3445896E+00
         13   -1    0    0    0    0  0.00000000000E+00  0.00000000000E+00  0.14999999963E+04  0.15000000000E+04  0.10566000000E+00 0.  1.
        994   -1    0    0    0    0 -0.00000000000E+00 -0.00000000000E+00  0.11368683772E-12  0.17120000000E+03  0.17120000000E+03 0.  0.
         13    1    1    2    0    0  0.57594613082E+01 -0.10356141684E+02  0.18380478857E+02  0.21869481754E+02  0.10566000000E+00 0.  1.
        994    1    1    2    0    0 -0.62001526610E+01  0.85247480062E+01  0.38924004619E+01  0.17156836539E+03  0.17120000000E+03 0.  0.
        998    1    1    2    0    0  0.44069135279E+00  0.18313936782E+01  0.14777271170E+04  0.14777621529E+04  0.10000000000E+02 0.  1.
</event>
<event>
 5    1  0.1106231E-008  0.3739754E+03  0.7957747E-01  0.3477818E+00
         13   -1    0    0    0    0  0.00000000000E+00  0.00000000000E+00  0.14999999963E+04  0.15000000000E+04  0.10566000000E+00 0.  1.
        994   -1    0    0    0    0 -0.00000000000E+00 -0.00000000000E+00  0.11368683772E-12  0.17120000000E+03  0.17120000000E+03 0.  0.
         13    1    1    2    0    0  0.29843153328E+02  0.40460708452E+01  0.27193753273E+02  0.40577036252E+02  0.10566000000E+00 0.  1.
        994    1    1    2    0    0 -0.50836889155E+02 -0.21727375193E+02  0.23973276795E+02  0.18149552648E+03  0.17120000000E+03 0.  0.
        998    1    1    2    0    0  0.20993735827E+02  0.17681304348E+02  0.14488329662E+04  0.14491274373E+04  0.10000000000E+02 0.  1.
</event>
<event>
 5    1  0.1106231E-008  0.3746800E+03  0.7957747E-01  0.3474655E+00
         13   -1    0    0    0    0  0.00000000000E+00  0.00000000000E+00  0.14999999963E+04  0.15000000000E+04  0.10566000000E+00 0.  1.
        994   -1    0    0    0    0 -0.00000000000E+00 -0.00000000000E+00  0.11368683772E-12  0.17120000000E+03  0.17120000000E+03 0.  0.
         13    1    1    2    0    0 -0.75486889927E+02 -0.29673515621E+02  0.26646005126E+03  0.27853143119E+03  0.10566000000E+00 0.  1.
        994    1    1    2    0    0  0.50223646831E+02 -0.41257157144E+02  0.28606991559E+02  0.18534391731E+03  0.17120000000E+03 0.  0.
        998    1    1    2    0    0  0.25263243095E+02  0.70930672764E+02  0.12049329535E+04  0.12073246515E+04  0.10000000000E+02 0.  1.
</event>
<event>
 5    1  0.1106231E-008  0.3849424E+03  0.7957747E-01  0.3429917E+00
         13   -1    0    0    0    0  0.00000000000E+00  0.00000000000E+00  0.14999999963E+04  0.15000000000E+04  0.10566000000E+00 0. -1.
        994   -1    0    0    0    0 -0.00000000000E+00 -0.00000000000E+00  0.11368683772E-12  0.17120000000E+03  0.17120000000E+03 0.  0.
         13    1    1    2    0    0 -0.44484874958E+01 -0.11788078554E+02  0.47123067509E+02  0.48778504410E+02  0.10566000000E+00 0. -1.
        994    1    1    2    0    0 -0.19738738842E+01  0.12448063213E+02  0.21814302267E+01  0.17167716532E+03  0.17120000000E+03 0.  0.
        998    1    1    2    0    0  0.64223613799E+01 -0.65998465863E+00  0.14506954985E+04  0.14507443303E+04  0.10000000000E+02 0. -1.
</event>
<event>
 5    1  0.1106231E-008  0.3801529E+03  0.7957747E-01  0.3450493E+00
         13   -1    0    0    0    0  0.00000000000E+00  0.00000000000E+00  0.14999999963E+04  0.15000000000E+04  0.10566000000E+00 0. -1.
        994   -1    0    0    0    0 -0.00000000000E+00 -0.00000000000E+00  0.11368683772E-12  0.17120000000E+03  0.17120000000E+03 0.  0.
         13    1    1    2    0    0  0.99116384460E+01 -0.46998792400E+01  0.12991043432E+02  0.17003170735E+02  0.10566000000E+00 0. -1.
        994    1    1    2    0    0 -0.74956834618E+01  0.87398228502E+01  0.44990366408E+01  0.17164571391E+03  0.17120000000E+03 0.  0.
        998    1    1    2    0    0 -0.24159549842E+01 -0.40399436102E+01  0.14825099162E+04  0.14825511154E+04  0.10000000000E+02 0. -1.
</event>
<event>
 5    1  0.1106231E-008  0.3811459E+03  0.7957747E-01  0.3446184E+00
         13   -1    0    0    0    0  0.00000000000E+00  0.00000000000E+00  0.14999999963E+04  0.15000000000E+04  0.10566000000E+00 0. -1.
        994   -1    0    0    0    0 -0.00000000000E+00 -0.00000000000E+00  0.11368683772E-12  0.17120000000E+03  0.17120000000E+03 0.  0.
         13    1    1    2    0    0  0.92995939070E+01  0.19555929096E+02  0.64762969928E+02  0.68287409144E+02  0.10566000000E+00 0. -1.
        994    1    1    2    0    0 -0.50850082023E+01 -0.12643694932E+02  0.41745523416E+01  0.17179227927E+03  0.17120000000E+03 0.  0.
        998    1    1    2    0    0 -0.42145857046E+01 -0.69122341648E+01  0.14310624740E+04  0.14311203116E+04  0.10000000000E+02 0. -1.
</event>
<event>
 5    1  0.1106231E-008  0.3711428E+03  0.7957747E-01  0.3490655E+00
         13   -1    0    0    0    0  0.00000000000E+00  0.00000000000E+00  0.14999999963E+04  0.15000000000E+04  0.10566000000E+00 0. -1.
        994   -1    0    0    0    0 -0.00000000000E+00 -0.00000000000E+00  0.11368683772E-12  0.17120000000E+03  0.17120000000E+03 0.  0.
         13    1    1    2    0    0 -0.14974524160E+02  0.48630445620E+02  0.14571879382E+03  0.15434744782E+03  0.10566000000E+00 0. -1.
        994    1    1    2    0    0  0.18904678115E+02 -0.27236339047E+02  0.12468118243E+02  0.17482591053E+03  0.17120000000E+03 0.  0.
        998    1    1    2    0    0 -0.39301539548E+01 -0.21394106572E+02  0.13418130842E+04  0.13420266416E+04  0.10000000000E+02 0. -1.
</event>
<event>
 5    1  0.1106231E-008  0.3848465E+03  0.7957747E-01  0.3430323E+00
         13   -1    0    0    0    0  0.00000000000E+00  0.00000000000E+00  0.14999999963E+04  0.15000000000E+04  0.10566000000E+00 0.  1.
        994   -1    0    0    0    0 -0.00000000000E+00 -0.00000000000E+00  0.11368683772E-12  0.17120000000E+03  0.17120000000E+03 0.  0.
         13    1    1    2    0    0 -0.79978331154E+01  0.11570863376E+02  0.58671903138E+02  0.60334514133E+02  0.10566000000E+00 0.  1.
        994    1    1    2    0    0  0.24723497924E+01 -0.68431446497E+01  0.18805780131E+01  0.17136486722E+03  0.17120000000E+03 0.  0.
        998    1    1    2    0    0  0.55254833230E+01 -0.47277187263E+01  0.14394475151E+04  0.14395006187E+04  0.10000000000E+02 0.  1.
</event>
<event>
 5    1  0.1106231E-008  0.3711417E+03  0.7957747E-01  0.3490660E+00
         13   -1    0    0    0    0  0.00000000000E+00  0.00000000000E+00  0.14999999963E+04  0.15000000000E+04  0.10566000000E+00 0. -1.
        994   -1    0    0    0    0 -0.00000000000E+00 -0.00000000000E+00  0.11368683772E-12  0.17120000000E+03  0.17120000000E+03 0.  0.
         13    1    1    2    0    0  0.11633142174E+02 -0.10634841664E+02  0.10141905298E+02  0.18742978984E+02  0.10566000000E+00 0. -1.
        994    1    1    2    0    0 -0.14210487610E+02  0.20014895349E+02  0.10751508056E+02  0.17328464710E+03  0.17120000000E+03 0.  0.
        998    1    1    2    0    0  0.25773454353E+01 -0.93800536842E+01  0.14791065829E+04  0.14791723739E+04  0.10000000000E+02 0. -1.
</event>
<event>
 5    1  0.1106231E-008  0.3783783E+03  0.7957747E-01  0.3458250E+00
         13   -1    0    0    0    0  0.00000000000E+00  0.00000000000E+00  0.14999999963E+04  0.15000000000E+04  0.10566000000E+00 0.  1.
        994   -1    0    0    0    0 -0.00000000000E+00 -0.00000000000E+00  0.11368683772E-12  0.17120000000E+03  0.17120000000E+03 0.  0.
         13    1    1    2    0    0  0.20625348645E+02 -0.40330013327E+01  0.41544289115E+02  0.46557590450E+02  0.10566000000E+00 0.  1.
        994    1    1    2    0    0 -0.20810303115E+02  0.78160674998E+01  0.66166175597E+01  0.17276394084E+03  0.17120000000E+03 0.  0.
        998    1    1    2    0    0  0.18495447031E+00 -0.37830661671E+01  0.14518390896E+04  0.14518784687E+04  0.10000000000E+02 0.  1.
</event>
<event>
 5    1  0.1106231E-008  0.3814180E+03  0.7957747E-01  0.3445007E+00
         13   -1    0    0    0    0  0.00000000000E+00  0.00000000000E+00  0.14999999963E+04  0.15000000000E+04  0.10566000000E+00 0.  1.
        994   -1    0    0    0    0 -0.00000000000E+00 -0.00000000000E+00  0.11368683772E-12  0.17120000000E+03  0.17120000000E+03 0.  0.
         13    1    1    2    0    0  0.25592045240E+02  0.21455927788E+02  0.17355377993E+03  0.17673775859E+03  0.10566000000E+00 0.  1.
        994    1    1    2    0    0 -0.71191519353E+01 -0.76924932910E+01  0.37846597741E+01  0.17156229314E+03  0.17120000000E+03 0.  0.
        998    1    1    2    0    0 -0.18472893305E+02 -0.13763434497E+02  0.13226615566E+04  0.13228999483E+04  0.10000000000E+02 0.  1.
</event>
<event>
 5    1  0.1106231E-008  0.3791602E+03  0.7957747E-01  0.3454824E+00
         13   -1    0    0    0    0  0.00000000000E+00  0.00000000000E+00  0.14999999963E+04  0.15000000000E+04  0.10566000000E+00 0.  1.
        994   -1    0    0    0    0 -0.00000000000E+00 -0.00000000000E+00  0.11368683772E-12  0.17120000000E+03  0.17120000000E+03 0.  0.
         13    1    1    2    0    0  0.77730363255E+01  0.15115223797E+02  0.30783244439E+02  0.35164035411E+02  0.10566000000E+00 0.  1.
        994    1    1    2    0    0  0.22007245929E+02 -0.12804221661E+02  0.67338579386E+01  0.17321389035E+03  0.17120000000E+03 0.  0.
        998    1    1    2    0    0 -0.29780282254E+02 -0.23110021360E+01  0.14624828939E+04  0.14628220742E+04  0.10000000000E+02 0.  1.
</event>
<event>
 5    1  0.1106231E-008  0.3727311E+03  0.7957747E-01  0.3483433E+00
         13   -1    0    0    0    0  0.00000000000E+00  0.00000000000E+00  0.14999999963E+04  0.15000000000E+04  0.10566000000E+00 0.  1.
        994   -1    0    0    0    0 -0.00000000000E+00 -0.00000000000E+00  0.11368683772E-12  0.17120000000E+03  0.17120000000E+03 0.  0.
         13    1    1    2    0    0  0.11559707664E+02  0.10516880058E+02  0.38770205125E+01  0.16101989303E+02  0.10566000000E+00 0.  1.
        994    1    1    2    0    0 -0.14084210364E+02 -0.35522091900E+02  0.17562031936E+02  0.17628967344E+03  0.17120000000E+03 0.  0.
        998    1    1    2    0    0  0.25245027002E+01  0.25005211842E+02  0.14785609438E+04  0.14788083373E+04  0.10000000000E+02 0.  1.
</event>
<event>
 5    1  0.1106231E-008  0.3793163E+03  0.7957747E-01  0.3454141E+00
         13   -1    0    0    0    0  0.00000000000E+00  0.00000000000E+00  0.14999999963E+04  0.15000000000E+04  0.10566000000E+00 0.  1.
        994   -1    0    0    0    0 -0.00000000000E+00 -0.00000000000E+00  0.11368683772E-12  0.17120000000E+03  0.17120000000E+03 0.  0.
         13    1    1    2    0    0  0.27967195383E+02  0.30494295497E+02  0.23187849400E+03  0.23554131955E+03  0.10566000000E+00 0.  1.
        994    1    1    2    0    0 -0.24933310682E+02  0.22048615331E+02  0.81993043343E+01  0.17459805271E+03  0.17120000000E+03 0.  0.
        998    1    1    2    0    0 -0.30338847010E+01 -0.52542910828E+02  0.12599221979E+04  0.12610606277E+04  0.10000000000E+02 0.  1.
</event>
<event>
 5    1  0.1106231E-008  0.3753538E+03  0.7957747E-01  0.3471642E+00
         13   -1    0    0    0    0  0.00000000000E+00  0.00000000000E+00  0.14999999963E+04  0.15000000000E+04  0.10566000000E+00 0.  1.
        994   -1    0    0    0    0 -0.00000000000E+00 -0.00000000000E+00  0.11368683772E-12  0.17120000000E+03  0.17120000000E+03 0.  0.
         13    1    1    2    0    0  0.56507417731E+02  0.13560658759E+02  0.26191151755E+03  0.26828088623E+03  0.10566000000E+00 0.  1.
        994    1    1    2    0    0 -0.37368255637E+02  0.18666268205E+02  0.12444136562E+02  0.17666101051E+03  0.17120000000E+03 0.  0.
        998    1    1    2    0    0 -0.19139162093E+02 -0.32226926964E+02  0.12256443422E+04  0.12262581033E+04  0.10000000000E+02 0.  1.
</event>
<event>
 5    1  0.1106231E-008  0.3798810E+03  0.7957747E-01  0.3451677E+00
         13   -1    0    0    0    0  0.00000000000E+00  0.00000000000E+00  0.14999999963E+04  0.15000000000E+04  0.10566000000E+00 0.  1.
        994   -1    0    0    0    0 -0.00000000000E+00 -0.00000000000E+00  0.11368683772E-12  0.17120000000E+03  0.17120000000E+03 0.  0.
         13    1    1    2    0    0 -0.27323783582E+02 -0.89255494970E+01  0.10035843621E+03  0.10439387657E+03  0.10566000000E+00 0.  1.
        994    1    1    2    0    0  0.11792523587E+02 -0.51102824264E+00  0.46593136177E+01  0.17166966525E+03  0.17120000000E+03 0.  0.
        998    1    1    2    0    0  0.15531259995E+02  0.94365777396E+01  0.13949822464E+04  0.13951364582E+04  0.10000000000E+02 0.  1.
</event>
<event>
 5    1  0.1106231E-008  0.3698447E+03  0.7957747E-01  0.3496605E+00
         13   -1    0    0    0    0  0.00000000000E+00  0.00000000000E+00  0.14999999963E+04  0.15000000000E+04  0.10566000000E+00 0.  1.
        994   -1    0    0    0    0 -0.00000000000E+00 -0.00000000000E+00  0.11368683772E-12  0.17120000000E+03  0.17120000000E+03 0.  0.
         13    1    1    2    0    0 -0.11661673101E+02  0.40619088419E+01  0.19394228249E+01  0.12500649899E+02  0.10566000000E+00 0.  1.
        994    1    1    2    0    0  0.10463938639E+02 -0.15866190648E+02  0.12119860778E+02  0.17267762172E+03  0.17120000000E+03 0.  0.
        998    1    1    2    0    0  0.11977344625E+01  0.11804281806E+02  0.14859407127E+04  0.14860217284E+04  0.10000000000E+02 0.  1.
</event>
<event>
 5    1  0.1106231E-008  0.3739127E+03  0.7957747E-01  0.3478100E+00
         13   -1    0    0    0    0  0.00000000000E+00  0.00000000000E+00  0.14999999963E+04  0.15000000000E+04  0.10566000000E+00 0.  1.
        994   -1    0    0    0    0 -0.00000000000E+00 -0.00000000000E+00  0.11368683772E-12  0.17120000000E+03  0.17120000000E+03 0.  0.
         13    1    1    2    0    0 -0.85188093908E+02  0.27141185398E+02  0.40520664103E+03  0.41495311589E+03  0.10566000000E+00 0.  1.
        994    1    1    2    0    0  0.82604941380E+02 -0.28296791707E+02  0.33713558301E+02  0.19511619301E+03  0.17120000000E+03 0.  0.
        998    1    1    2    0    0  0.25831525276E+01  0.11556063090E+01  0.10610797970E+04  0.10611306911E+04  0.10000000000E+02 0.  1.
</event>
<event>
 5    1  0.1106231E-008  0.3791736E+03  0.7957747E-01  0.3454765E+00
         13   -1    0    0    0    0  0.00000000000E+00  0.00000000000E+00  0.14999999963E+04  0.15000000000E+04  0.10566000000E+00 0.  1.
        994   -1    0    0    0    0 -0.00000000000E+00 -0.00000000000E+00  0.11368683772E-12  0.17120000000E+03  0.17120000000E+03 0.  0.
         13    1    1    2    0    0  0.43031593264E+02 -0.83130007388E+01  0.19027327348E+03  0.19525561136E+03  0.10566000000E+00 0.  1.
        994    1    1    2    0    0 -0.41616878654E+02 -0.59222137300E+01  0.10497034448E+02  0.17659746583E+03  0.17120000000E+03 0.  0.
        998    1    1    2    0    0 -0.14147146098E+01  0.14235214469E+02  0.12992296883E+04  0.12993469228E+04  0.10000000000E+02 0.  1.
</event>
<event>
 5    1  0.1106231E-008  0.3859801E+03  0.7957747E-01  0.3425526E+00
         13   -1    0    0    0    0  0.00000000000E+00  0.00000000000E+00  0.14999999963E+04  0.15000000000E+04  0.10566000000E+00 0. -1.
        994   -1    0    0    0    0 -0.00000000000E+00 -0.00000000000E+00  0.11368683772E-12  0.17120000000E+03  0.17120000000E+03 0.  0.
         13    1    1    2    0    0  0.10712718509E+02  0.20666884490E+01  0.47373572535E+02  0.48613784853E+02  0.10566000000E+00 0. -1.
        994    1    1    2    0    0 -0.23238406121E+02 -0.59850357810E+01  0.30343454741E+01  0.17290023547E+03  0.17120000000E+03 0.  0.
        998    1    1    2    0    0  0.12525687612E+02  0.39183473320E+01  0.14495920783E+04  0.14496859797E+04  0.10000000000E+02 0. -1.
</event>
<event>
 5    1  0.1106231E-008  0.3808060E+03  0.7957747E-01  0.3447656E+00
         13   -1    0    0    0    0  0.00000000000E+00  0.00000000000E+00  0.14999999963E+04  0.15000000000E+04  0.10566000000E+00 0. -1.
        994   -1    0    0    0    0 -0.00000000000E+00 -0.00000000000E+00  0.11368683772E-12  0.17120000000E+03  0.17120000000E+03 0.  0.
         13    1    1    2    0    0  0.23270227349E+02 -0.31260801075E+02  0.20090301509E+03  0.20464792646E+03  0.10566000000E+00 0. -1.
        994    1    1    2    0    0 -0.11553102783E+02  0.20758259979E+02  0.56107536555E+01  0.17293148961E+03  0.17120000000E+03 0.  0.
        998    1    1    2    0    0 -0.11717124566E+02  0.10502541096E+02  0.12934862275E+04  0.12936205839E+04  0.10000000000E+02 0. -1.
</event>
<event>
 5    1  0.1106231E-008  0.3739820E+03  0.7957747E-01  0.3477788E+00
         13   -1    0    0    0    0  0.00000000000E+00  0.00000000000E+00  0.14999999963E+04  0.15000000000E+04  0.10566000000E+00 0.  1.
        994   -1    0    0    0    0 -0.00000000000E+00 -0.00000000000E+00  0.11368683772E-12  0.17120000000E+03  0.17120000000E+03 0.  0.
         13    1    1    2    0    0  0.72327922256E+01  0.18707204621E+02  0.25035656968E+02  0.32079090884E+02  0.10566000000E+00 0.  1.
        994    1    1    2    0    0 -0.61879600303E+01 -0.10338953460E+02  0.76977852283E+01  0.17179604392E+03  0.17120000000E+03 0.  0.
        998    1    1    2    0    0 -0.10448321954E+01 -0.83682511613E+01  0.14672665541E+04  0.14673248652E+04  0.10000000000E+02 0.  1.
</event>
<event>
 5    1  0.1106231E-008  0.3839023E+03  0.7957747E-01  0.3434341E+00
         13   -1    0    0    0    0  0.00000000000E+00  0.00000000000E+00  0.14999999963E+04  0.15000000000E+04  0.10566000000E+00 0. -1.
        994   -1    0    0    0    0 -0.00000000000E+00 -0.00000000000E+00  0.11368683772E-12  0.17120000000E+03  0.17120000000E+03 0.  0.
         13    1    1    2    0    0 -0.26890372472E+01 -0.15424790909E+02  0.55312518335E+02  0.57486006510E+02  0.10566000000E+00 0. -1.
        994    1    1    2    0    0 -0.74908989815E+00  0.12488930083E+02  0.26929270686E+01  0.17167768162E+03  0.17120000000E+03 0.  0.
        998    1    1    2    0    0  0.34381271453E+01  0.29358608260E+01  0.14419945509E+04  0.14420363119E+04  0.10000000000E+02 0. -1.
</event>
<event>
 5    1  0.1106231E-008  0.3842459E+03  0.7957747E-01  0.3432877E+00
         13   -1    0    0    0    0  0.00000000000E+00  0.00000000000E+00  0.14999999963E+04  0.15000000000E+04  0.10566000000E+00 0.  1.
        994   -1    0    0    0    0 -0.00000000000E+00 -0.00000000000E+00  0.11368683772E-12  0.17120000000E+03  0.17120000000E+03 0.  0.
         13    1    1    2    0    0  0.13895882692E+02  0.55625871015E+00  0.48340173988E+02  0.50300979760E+02  0.10566000000E+00 0.  1.
        994    1    1    2    0    0 -0.71532830428E+01 -0.14049280587E+01  0.21802345837E+01  0.17136900742E+03  0.17120000000E+03 0.  0.
        998    1    1    2    0    0 -0.67425996487E+01  0.84866934851E+00  0.14494795877E+04  0.14495300128E+04  0.10000000000E+02 0.  1.
</event>
<event>
 5    1  0.1106231E-008  0.3832093E+03  0.7957747E-01  0.3437302E+00
         13   -1    0    0    0    0  0.00000000000E+00  0.00000000000E+00  0.14999999963E+04  0.15000000000E+04  0.10566000000E+00 0.  1.
        994   -1    0    0    0    0 -0.00000000000E+00 -0.00000000000E+00  0.11368683772E-12  0.17120000000E+03  0.17120000000E+03 0.  0.
         13    1    1    2    0    0 -0.94494761604E+01  0.15513592644E+02  0.63395443891E+02  0.65946627105E+02  0.10566000000E+00 0.  1.
        994    1    1    2    0    0  0.27597293905E+01 -0.16872113327E+02  0.34892189398E+01  0.17208689364E+03  0.17120000000E+03 0.  0.
        998    1    1    2    0    0  0.66897467699E+01  0.13585206830E+01  0.14331153334E+04  0.14331664793E+04  0.10000000000E+02 0.  1.
</event>
<event>
 5    1  0.1106231E-008  0.3795629E+03  0.7957747E-01  0.3453064E+00
         13   -1    0    0    0    0  0.00000000000E+00  0.00000000000E+00  0.14999999963E+04  0.15000000000E+04  0.10566000000E+00 0. -1.
        994   -1    0    0    0    0 -0.00000000000E+00 -0.00000000000E+00  0.11368683772E-12  0.17120000000E+03  0.17120000000E+03 0.  0.
         13    1    1    2    0    0 -0.12287788101E+02 -0.10321932068E+01  0.15632847906E+02  0.19911108882E+02  0.10566000000E+00 0. -1.
        994    1    1    2    0    0  0.68924176346E+01  0.98451858767E+01  0.48376098099E+01  0.17168947427E+03  0.17120000000E+03 0.  0.
        998    1    1    2    0    0  0.53953704663E+01 -0.88129926699E+01  0.14795295386E+04  0.14795994168E+04  0.10000000000E+02 0. -1.
</event>
<event>
 5    1  0.1106231E-008  0.3843650E+03  0.7957747E-01  0.3432370E+00
         13   -1    0    0    0    0  0.00000000000E+00  0.00000000000E+00  0.14999999963E+04  0.15000000000E+04  0.10566000000E+00 0.  1.
        994   -1    0    0    0    0 -0.00000000000E+00 -0.00000000000E+00  0.11368683772E-12  0.17120000000E+03  0.17120000000E+03 0.  0.
         13    1    1    2    0    0 -0.80371295543E+01  0.10414624116E+02  0.51773877445E+02  0.53419148221E+02  0.10566000000E+00 0.  1.
        994    1    1    2    0    0 -0.11289285970E+02  0.17834000962E+02  0.34152284892E+01  0.17253000711E+03  0.17120000000E+03 0.  0.
        998    1    1    2    0    0  0.19326415524E+02 -0.28248625078E+02  0.14448108903E+04  0.14452508447E+04  0.10000000000E+02 0.  1.
</event>
<event>
 5    1  0.1106231E-008  0.3789430E+03  0.7957747E-01  0.3455774E+00
         13   -1    0    0    0    0  0.00000000000E+00  0.00000000000E+00  0.14999999963E+04  0.15000000000E+04  0.10566000000E+00 0. -1.
        994   -1    0    0    0    0 -0.00000000000E+00 -0.00000000000E+00  0.11368683772E-12  0.17120000000E+03  0.17120000000E+03 0.  0.
         13    1    1    2    0    0  0.23594782144E+02  0.54430748670E+02  0.29690541382E+03  0.30277426586E+03  0.10566000000E+00 0. -1.
        994    1    1    2    0    0 -0.23225797829E+02 -0.56919568937E+02  0.17451990167E+02  0.18273830188E+03  0.17120000000E+03 0.  0.
        998    1    1    2    0    0 -0.36898431499E+00  0.24888202672E+01  0.11856425923E+04  0.11856874323E+04  0.10000000000E+02 0.  0.
</event>
<event>
 5    1  0.1106231E-008  0.3787245E+03  0.7957747E-01  0.3456731E+00
         13   -1    0    0    0    0  0.00000000000E+00  0.00000000000E+00  0.14999999963E+04  0.15000000000E+04  0.10566000000E+00 0.  1.
        994   -1    0    0    0    0 -0.00000000000E+00 -0.00000000000E+00  0.11368683772E-12  0.17120000000E+03  0.17120000000E+03 0.  0.
         13    1    1    2    0    0  0.89243187173E+01  0.15210541115E+02  0.30933811966E+02  0.35607806902E+02  0.10566000000E+00 0.  1.
        994    1    1    2    0    0  0.20521960400E+01 -0.11051816577E+02  0.52026992854E+01  0.17164749412E+03  0.17120000000E+03 0.  0.
        998    1    1    2    0    0 -0.10976514757E+02 -0.41587245380E+01  0.14638634850E+04  0.14639446990E+04  0.10000000000E+02 0.  1.
</event>
<event>
 5    1  0.1106231E-008  0.3857599E+03  0.7957747E-01  0.3426456E+00
         13   -1    0    0    0    0  0.00000000000E+00  0.00000000000E+00  0.14999999963E+04  0.15000000000E+04  0.10566000000E+00 0. -1.
        994   -1    0    0    0    0 -0.00000000000E+00 -0.00000000000E+00  0.11368683772E-12  0.17120000000E+03  0.17120000000E+03 0.  0.
         13    1    1    2    0    0  0.91624540824E+00  0.14138322007E+02  0.76125595448E+02  0.77432868352E+02  0.10566000000E+00 0. -1.
        994    1    1    2    0    0 -0.49564948320E+01 -0.16667081337E+02  0.22458752778E+01  0.17209544560E+03  0.17120000000E+03 0.  0.
        998    1    1    2    0    0  0.40402494238E+01  0.25287593294E+01  0.14216285256E+04  0.14216716860E+04  0.10000000000E+02 0. -1.
</event>
<event>
 5    1  0.1106231E-008  0.3762373E+03  0.7957747E-01  0.3467708E+00
         13   -1    0    0    0    0  0.00000000000E+00  0.00000000000E+00  0.14999999963E+04  0.15000000000E+04  0.10566000000E+00 0.  1.
        994   -1    0    0    0    0 -0.00000000000E+00 -0.00000000000E+00  0.11368683772E-12  0.17120000000E+03  0.17120000000E+03 0.  0.
         13    1    1    2    0    0 -0.31073008710E+01 -0.13485908146E+02  0.13066201259E+02  0.19033176735E+02  0.10566000000E+00 0.  1.
        994    1    1    2    0    0  0.19109477966E+01  0.13359178541E+02  0.66614552962E+01  0.17186021750E+03  0.17120000000E+03 0.  0.
        998    1    1    2    0    0  0.11963530745E+01  0.12672960452E+00  0.14802723397E+04  0.14803066058E+04  0.10000000000E+02 0.  1.
</event>
<event>
 5    1  0.1106231E-008  0.3851966E+03  0.7957747E-01  0.3428839E+00
         13   -1    0    0    0    0  0.00000000000E+00  0.00000000000E+00  0.14999999963E+04  0.15000000000E+04  0.10566000000E+00 0.  1.
        994   -1    0    0    0    0 -0.00000000000E+00 -0.00000000000E+00  0.11368683772E-12  0.17120000000E+03  0.17120000000E+03 0.  0.
         13    1    1    2    0    0  0.19053173736E+01  0.11436668463E+02  0.43955605556E+02  0.45459146975E+02  0.10566000000E+00 0.  1.
        994    1    1    2    0    0  0.37370847280E+01 -0.81274253262E+01  0.17955797368E+01  0.17144294955E+03  0.17120000000E+03 0.  0.
        998    1    1    2    0    0 -0.56424021016E+01 -0.33092431370E+01  0.14542488110E+04  0.14542979035E+04  0.10000000000E+02 0.  1.
</event>
<event>
 5    1  0.1106231E-008  0.3818449E+03  0.7957747E-01  0.3443165E+00
         13   -1    0    0    0    0  0.00000000000E+00  0.00000000000E+00  0.14999999963E+04  0.15000000000E+04  0.10566000000E+00 0.  1.
        994   -1    0    0    0    0 -0.00000000000E+00 -0.00000000000E+00  0.11368683772E-12  0.17120000000E+03  0.17120000000E+03 0.  0.
         13    1    1    2    0    0 -0.13755810006E+02 -0.31998619626E+02  0.16820146510E+03  0.17176984017E+03  0.10566000000E+00 0.  1.
        994    1    1    2    0    0 -0.75874073527E+01  0.42895693954E+02  0.95356645650E+01  0.17691234612E+03  0.17120000000E+03 0.  0.
        998    1    1    2    0    0  0.21343217358E+02 -0.10897074328E+02  0.13222628666E+04  0.13225178137E+04  0.10000000000E+02 0.  1.
</event>
<event>
 5    1  0.1106231E-008  0.3833497E+03  0.7957747E-01  0.3436702E+00
         13   -1    0    0    0    0  0.00000000000E+00  0.00000000000E+00  0.14999999963E+04  0.15000000000E+04  0.10566000000E+00 0.  1.
        994   -1    0    0    0    0 -0.00000000000E+00 -0.00000000000E+00  0.11368683772E-12  0.17120000000E+03  0.17120000000E+03 0.  0.
         13    1    1    2    0    0  0.18098784359E+01 -0.27563071701E+02  0.13816978394E+03  0.14090386418E+03  0.10566000000E+00 0.  1.
        994    1    1    2    0    0 -0.74440039686E+01  0.31422900510E+02  0.59072464930E+01  0.17431909658E+03  0.17120000000E+03 0.  0.
        998    1    1    2    0    0  0.56341255327E+01 -0.38598288092E+01  0.13559229658E+04  0.13559770392E+04  0.10000000000E+02 0.  1.
</event>
<event>
 5    1  0.1106231E-008  0.3754210E+03  0.7957747E-01  0.3471342E+00
         13   -1    0    0    0    0  0.00000000000E+00  0.00000000000E+00  0.14999999963E+04  0.15000000000E+04  0.10566000000E+00 0.  1.
        994   -1    0    0    0    0 -0.00000000000E+00 -0.00000000000E+00  0.11368683772E-12  0.17120000000E+03  0.17120000000E+03 0.  0.
         13    1    1    2    0    0  0.13998929693E+02  0.59822612303E+02  0.36405955954E+03  0.36920737944E+03  0.10566000000E+00 0.  1.
        994    1    1    2    0    0  0.14925600588E+01 -0.10404001304E+02  0.68377519726E+01  0.17165857343E+03  0.17120000000E+03 0.  0.
        998    1    1    2    0    0 -0.15491489752E+02 -0.49418610999E+02  0.11291026848E+04  0.11303340471E+04  0.10000000000E+02 0. -1.
</event>
<event>
 5    1  0.1106231E-008  0.3814088E+03  0.7957747E-01  0.3445047E+00
         13   -1    0    0    0    0  0.00000000000E+00  0.00000000000E+00  0.14999999963E+04  0.15000000000E+04  0.10566000000E+00 0. -1.
        994   -1    0    0    0    0 -0.00000000000E+00 -0.00000000000E+00  0.11368683772E-12  0.17120000000E+03  0.17120000000E+03 0.  0.
         13    1    1    2    0    0  0.27558624311E+02  0.39338773565E+02  0.24132561218E+03  0.24605909684E+03  0.10566000000E+00 0. -1.
        994    1    1    2    0    0 -0.47509569359E+02 -0.48183253551E+02  0.18812116655E+02  0.18504626675E+03  0.17120000000E+03 0.  0.
        998    1    1    2    0    0  0.19950945048E+02  0.88444799864E+01  0.12398622674E+04  0.12400946364E+04  0.10000000000E+02 0. -1.
</event>
<event>
 5    1  0.1106231E-008  0.3786933E+03  0.7957747E-01  0.3456868E+00
         13   -1    0    0    0    0  0.00000000000E+00  0.00000000000E+00  0.14999999963E+04  0.15000000000E+04  0.10566000000E+00 0.  1.
        994   -1    0    0    0    0 -0.00000000000E+00 -0.00000000000E+00  0.11368683772E-12  0.17120000000E+03  0.17120000000E+03 0.  0.
         13    1    1    2    0    0 -0.18623771131E+02 -0.58827466348E+01  0.36364216252E+02  0.41277341808E+02  0.10566000000E+00 0.  1.
        994    1    1    2    0    0  0.21885409105E+02  0.17449387461E+02  0.74290795265E+01  0.17363203471E+03  0.17120000000E+03 0.  0.
        998    1    1    2    0    0 -0.32616379737E+01 -0.11566640827E+02  0.14562067005E+04  0.14562906235E+04  0.10000000000E+02 0.  1.
</event>
<event>
 5    1  0.1106231E-008  0.3853000E+03  0.7957747E-01  0.3428401E+00
         13   -1    0    0    0    0  0.00000000000E+00  0.00000000000E+00  0.14999999963E+04  0.15000000000E+04  0.10566000000E+00 0. -1.
        994   -1    0    0    0    0 -0.00000000000E+00 -0.00000000000E+00  0.11368683772E-12  0.17120000000E+03  0.17120000000E+03 0.  0.
         13    1    1    2    0    0  0.14333886922E+02 -0.31858026491E+01  0.72617392969E+02  0.74087155286E+02  0.10566000000E+00 0. -1.
        994    1    1    2    0    0 -0.75520477804E+01  0.15064324842E+02  0.24147837988E+01  0.17204429223E+03  0.17120000000E+03 0.  0.
        998    1    1    2    0    0 -0.67818391416E+01 -0.11878522193E+02  0.14249678195E+04  0.14250685525E+04  0.10000000000E+02 0. -1.
</event>
<event>
 5    1  0.1106231E-008  0.3782618E+03  0.7957747E-01  0.3458762E+00
         13   -1    0    0    0    0  0.00000000000E+00  0.00000000000E+00  0.14999999963E+04  0.15000000000E+04  0.10566000000E+00 0. -1.
        994   -1    0    0    0    0 -0.00000000000E+00 -0.00000000000E+00  0.11368683772E-12  0.17120000000E+03  0.17120000000E+03 0.  0.
         13    1    1    2    0    0  0.31050509721E+00  0.26888010097E+02  0.71092216913E+02  0.76007736251E+02  0.10566000000E+00 0. -1.
        994    1    1    2    0    0 -0.36473521801E+01 -0.14054330295E+02  0.57223167789E+01  0.17190989584E+03  0.17120000000E+03 0.  0.
        998    1    1    2    0    0  0.33368470828E+01 -0.12833679802E+02  0.14231854626E+04  0.14232823679E+04  0.10000000000E+02 0. -1.
</event>
<event>
 5    1  0.1106231E-008  0.3797166E+03  0.7957747E-01  0.3452393E+00
         13   -1    0    0    0    0  0.00000000000E+00  0.00000000000E+00  0.14999999963E+04  0.15000000000E+04  0.10566000000E+00 0. -1.
        994   -1    0    0    0    0 -0.00000000000E+00 -0.00000000000E+00  0.11368683772E-12  0.17120000000E+03  0.17120000000E+03 0.  0.
         13    1    1    2    0    0  0.93562696290E+01 -0.18561988947E+02  0.46799300714E+02  0.51208133401E+02  0.10566000000E+00 0. -1.
        994    1    1    2    0    0 -0.95428540253E+01  0.24139258595E+02  0.65339933617E+01  0.17327983996E+03  0.17120000000E+03 0.  0.
        998    1    1    2    0    0  0.18658439634E+00 -0.55772696481E+01  0.14466667022E+04  0.14467120266E+04  0.10000000000E+02 0. -1.
</event>
<event>
 5    1  0.1106231E-008  0.3832313E+03  0.7957747E-01  0.3437208E+00
         13   -1    0    0    0    0  0.00000000000E+00  0.00000000000E+00  0.14999999963E+04  0.15000000000E+04  0.10566000000E+00 0.  1.
        994   -1    0    0    0    0 -0.00000000000E+00 -0.00000000000E+00  0.11368683772E-12  0.17120000000E+03  0.17120000000E+03 0.  0.
         13    1    1    2    0    0  0.12600691954E+02 -0.67681839605E+01  0.39533971328E+02  0.42042024271E+02  0.10566000000E+00 0.  1.
        994    1    1    2    0    0 -0.13946691219E+02  0.78755974324E-01  0.31544531506E+01  0.17179612037E+03  0.17120000000E+03 0.  0.
        998    1    1    2    0    0  0.13459992645E+01  0.66894279862E+01  0.14573115718E+04  0.14573618554E+04  0.10000000000E+02 0.  1.
</event>
<event>
 5    1  0.1106231E-008  0.3691497E+03  0.7957747E-01  0.3499808E+00
         13   -1    0    0    0    0  0.00000000000E+00  0.00000000000E+00  0.14999999963E+04  0.15000000000E+04  0.10566000000E+00 0.  1.
        994   -1    0    0    0    0 -0.00000000000E+00 -0.00000000000E+00  0.11368683772E-12  0.17120000000E+03  0.17120000000E+03 0.  0.
         13    1    1    2    0    0  0.15124731948E+02 -0.16260974569E+02  0.20944824676E+02  0.30526605693E+02  0.10566000000E+00 0.  1.
        994    1    1    2    0    0 -0.14685252626E+02  0.16809176214E+02  0.11443771831E+02  0.17302775778E+03  0.17120000000E+03 0.  0.
        998    1    1    2    0    0 -0.43947932224E+00 -0.54820164516E+00  0.14676113998E+04  0.14676456365E+04  0.10000000000E+02 0.  1.
</event>
<event>
 5    1  0.1106231E-008  0.3817025E+03  0.7957747E-01  0.3443779E+00
         13   -1    0    0    0    0  0.00000000000E+00  0.00000000000E+00  0.14999999963E+04  0.15000000000E+04  0.10566000000E+00 0. -1.
        994   -1    0    0    0    0 -0.00000000000E+00 -0.00000000000E+00  0.11368683772E-12  0.17120000000E+03  0.17120000000E+03 0.  0.
         13    1    1    2    0    0  0.48754588972E+01 -0.16967277485E+02  0.47892362747E+02  0.51042611397E+02  0.10566000000E+00 0. -1.
        994    1    1    2    0    0 -0.60727374116E+01  0.23223194644E+01  0.34167518341E+01  0.17135747868E+03  0.17120000000E+03 0.  0.
        998    1    1    2    0    0  0.11972785144E+01  0.14644958021E+02  0.14486908817E+04  0.14487999099E+04  0.10000000000E+02 0. -1.
</event>
<event>
 5    1  0.1106231E-008  0.3853056E+03  0.7957747E-01  0.3428377E+00
         13   -1    0    0    0    0  0.00000000000E+00  0.00000000000E+00  0.14999999963E+04  0.15000000000E+04  0.10566000000E+00 0.  1.
        994   -1    0    0    0    0 -0.00000000000E+00 -0.00000000000E+00  0.11368683772E-12  0.17120000000E+03  0.17120000000E+03 0.  0.
         13    1    1    2    0    0 -0.14950595586E+02  0.10135032463E+02  0.10698549305E+03  0.10849952110E+03  0.10566000000E+00 0.  1.
        994    1    1    2    0    0  0.12464427197E+02 -0.91432507422E+01  0.22639426046E+01  0.17191139117E+03  0.17120000000E+03 0.  0.
        998    1    1    2    0    0  0.24861683893E+01 -0.99178172117E+00  0.13907505606E+04  0.13907890877E+04  0.10000000000E+02 0.  0.
</event>
<event>
 5    1  0.1106231E-008  0.3857392E+03  0.7957747E-01  0.3426543E+00
         13   -1    0    0    0    0  0.00000000000E+00  0.00000000000E+00  0.14999999963E+04  0.15000000000E+04  0.10566000000E+00 0. -1.
        994   -1    0    0    0    0 -0.00000000000E+00 -0.00000000000E+00  0.11368683772E-12  0.17120000000E+03  0.17120000000E+03 0.  0.
         13    1    1    2    0    0  0.94404523756E+00  0.12561816982E+02  0.63654692861E+02  0.64889302312E+02  0.10566000000E+00 0. -1.
        994    1    1    2    0    0 -0.25101023550E+01 -0.74199420997E+01  0.14648798514E+01  0.17138536118E+03  0.17120000000E+03 0.  0.
        998    1    1    2    0    0  0.15660571174E+01 -0.51418748819E+01  0.14348804236E+04  0.14349253365E+04  0.10000000000E+02 0. -1.
</event>
<event>
 5    1  0.1106231E-008  0.3774173E+03  0.7957747E-01  0.3462482E+00
         13   -1    0    0    0    0  0.00000000000E+00  0.00000000000E+00  0.14999999963E+04  0.15000000000E+04  0.10566000000E+00 0. -1.
        994   -1    0    0    0    0 -0.00000000000E+00 -0.00000000000E+00  0.11368683772E-12  0.17120000000E+03  0.17120000000E+03 0.  0.
         13    1    1    2    0    0  0.82303775827E+01 -0.60717185154E+02  0.31423735250E+03  0.32015533817E+03  0.10566000000E+00 0. -1.
        994    1    1    2    0    0 -0.13048615352E+02  0.44057537529E+02  0.12594707536E+02  0.17770593584E+03  0.17120000000E+03 0.  0.
        998    1    1    2    0    0  0.48182377695E+01  0.16659647625E+02  0.11731679362E+04  0.11733387260E+04  0.10000000000E+02 0. -1.
</event>
<event>
 5    1  0.1106231E-008  0.4044606E+03  0.7957747E-01  0.3351110E+00
         13   -1    0    0    0    0  0.00000000000E+00  0.00000000000E+00  0.14999999963E+04  0.15000000000E+04  0.10566000000E+00 0.  1.
        994   -1    0    0    0    0 -0.00000000000E+00 -0.00000000000E+00  0.11368683772E-12  0.17120000000E+03  0.17120000000E+03 0.  0.
         13    1    1    2    0    0  0.57256827002E+02  0.64528749521E+02  0.10118090534E+03  0.13296574943E+03  0.10566000000E+00 0.  1.
        994    1    1    2    0    0 -0.63996639499E+02 -0.75099994874E+02  0.70469583400E+02  0.20978794360E+03  0.17120000000E+03 0.  0.
        998    1    1    2    0    0  0.67398124973E+01  0.10571245353E+02  0.13283495075E+04  0.13284463070E+04  0.10000000000E+02 0.  1.
</event>
<event>
 5    1  0.1106231E-008  0.3856209E+03  0.7957747E-01  0.3427043E+00
         13   -1    0    0    0    0  0.00000000000E+00  0.00000000000E+00  0.14999999963E+04  0.15000000000E+04  0.10566000000E+00 0. -1.
        994   -1    0    0    0    0 -0.00000000000E+00 -0.00000000000E+00  0.11368683772E-12  0.17120000000E+03  0.17120000000E+03 0.  0.
         13    1    1    2    0    0 -0.49359607095E+01  0.13598225539E+02  0.80859179280E+02  0.82143128038E+02  0.10566000000E+00 0. -1.
        994    1    1    2    0    0  0.13936057200E+02 -0.32090406593E+01  0.19937029856E+01  0.17180781846E+03  0.17120000000E+03 0.  0.
        998    1    1    2    0    0 -0.90000964904E+01 -0.10389184879E+02  0.14171471140E+04  0.14172490535E+04  0.10000000000E+02 0. -1.
</event>
<event>
 5    1  0.1106231E-008  0.3715305E+03  0.7957747E-01  0.3488887E+00
         13   -1    0    0    0    0  0.00000000000E+00  0.00000000000E+00  0.14999999963E+04  0.15000000000E+04  0.10566000000E+00 0. -1.
        994   -1    0    0    0    0 -0.00000000000E+00 -0.00000000000E+00  0.11368683772E-12  0.17120000000E+03  0.17120000000E+03 0.  0.
         13    1    1    2    0    0  0.15683001963E+01 -0.15553044343E+02  0.10591347927E+02  0.18882387793E+02  0.10566000000E+00 0. -1.
        994    1    1    2    0    0 -0.16057523461E+02  0.11676301430E+02  0.98282349092E+01  0.17262738565E+03  0.17120000000E+03 0.  0.
        998    1    1    2    0    0  0.14489223265E+02  0.38767429129E+01  0.14795804134E+04  0.14796902266E+04  0.10000000000E+02 0. -1.
</event>
<event>
 5    1  0.1106231E-008  0.3701429E+03  0.7957747E-01  0.3495234E+00
         13   -1    0    0    0    0  0.00000000000E+00  0.00000000000E+00  0.14999999963E+04  0.15000000000E+04  0.10566000000E+00 0. -1.
        994   -1    0    0    0    0 -0.00000000000E+00 -0.00000000000E+00  0.11368683772E-12  0.17120000000E+03  0.17120000000E+03 0.  0.
         13    1    1    2    0    0  0.11209830929E+03  0.24851569887E+02  0.51766765952E+03  0.53024847793E+03  0.10566000000E+00 0. -1.
        994    1    1    2    0    0 -0.99667938944E+02 -0.21573604542E+02  0.46042572107E+02  0.20452011371E+03  0.17120000000E+03 0.  0.
        998    1    1    2    0    0 -0.12430370350E+02 -0.32779653448E+01  0.93628976465E+03  0.93643140836E+03  0.10000000000E+02 0. -1.
</event>
<event>
 5    1  0.1106231E-008  0.3836610E+03  0.7957747E-01  0.3435371E+00
         13   -1    0    0    0    0  0.00000000000E+00  0.00000000000E+00  0.14999999963E+04  0.15000000000E+04  0.10566000000E+00 0.  1.
        994   -1    0    0    0    0 -0.00000000000E+00 -0.00000000000E+00  0.11368683772E-12  0.17120000000E+03  0.17120000000E+03 0.  0.
         13    1    1    2    0    0  0.95006934031E+01 -0.36206716453E+01  0.20214149751E+02  0.22627316511E+02  0.10566000000E+00 0.  1.
        994    1    1    2    0    0 -0.19118576776E+02  0.31723076993E+02  0.68409128222E+01  0.17529435724E+03  0.17120000000E+03 0.  0.
        998    1    1    2    0    0  0.96178833726E+01 -0.28102405348E+02  0.14729449337E+04  0.14732783262E+04  0.10000000000E+02 0.  1.
</event>
<event>
 5    1  0.1106231E-008  0.3842428E+03  0.7957747E-01  0.3432890E+00
         13   -1    0    0    0    0  0.00000000000E+00  0.00000000000E+00  0.14999999963E+04  0.15000000000E+04  0.10566000000E+00 0. -1.
        994   -1    0    0    0    0 -0.00000000000E+00 -0.00000000000E+00  0.11368683772E-12  0.17120000000E+03  0.17120000000E+03 0.  0.
         13    1    1    2    0    0 -0.92215993763E+01 -0.10690703211E+02  0.49231231230E+02  0.51215762443E+02  0.10566000000E+00 0. -1.
        994    1    1    2    0    0  0.18216526635E+02 -0.27623426378E+01  0.31264935906E+01  0.17221697751E+03  0.17120000000E+03 0.  0.
        998    1    1    2    0    0 -0.89949272590E+01  0.13453045849E+02  0.14476422715E+04  0.14477672600E+04  0.10000000000E+02 0. -1.
</event>
<event>
 5    1  0.1106231E-008  0.3801824E+03  0.7957747E-01  0.3450365E+00
         13   -1    0    0    0    0  0.00000000000E+00  0.00000000000E+00  0.14999999963E+04  0.15000000000E+04  0.10566000000E+00 0. -1.
        994   -1    0    0    0    0 -0.00000000000E+00 -0.00000000000E+00  0.11368683772E-12  0.17120000000E+03  0.17120000000E+03 0.  0.
         13    1    1    2    0    0  0.38719785157E+02 -0.26264702469E+02  0.25296394240E+03  0.25725439487E+03  0.10566000000E+00 0. -1.
        994    1    1    2    0    0 -0.36405191307E+02  0.78688596208E+01  0.86897015311E+01  0.17542008955E+03  0.17120000000E+03 0.  0.
        998    1    1    2    0    0 -0.23145938501E+01  0.18395842849E+02  0.12383463523E+04  0.12385255156E+04  0.10000000000E+02 0. -1.
</event>
<event>
 5    1  0.1106231E-008  0.3843771E+03  0.7957747E-01  0.3432318E+00
         13   -1    0    0    0    0  0.00000000000E+00  0.00000000000E+00  0.14999999963E+04  0.15000000000E+04  0.10566000000E+00 0.  1.
        994   -1    0    0    0    0 -0.00000000000E+00 -0.00000000000E+00  0.11368683772E-12  0.17120000000E+03  0.17120000000E+03 0.  0.
         13    1    1    2    0    0  0.40323207013E+01 -0.11942665268E+02  0.38484651170E+02  0.40496498659E+02  0.10566000000E+00 0.  1.
        994    1    1    2    0    0 -0.11060938462E+02  0.17517246312E+02  0.33553105282E+01  0.17248158275E+03  0.17120000000E+03 0.  0.
        998    1    1    2    0    0  0.70286177608E+01 -0.55745810438E+01  0.14581600346E+04  0.14582219186E+04  0.10000000000E+02 0.  1.
</event>
<event>
 5    1  0.1106231E-008  0.3713670E+03  0.7957747E-01  0.3489632E+00
         13   -1    0    0    0    0  0.00000000000E+00  0.00000000000E+00  0.14999999963E+04  0.15000000000E+04  0.10566000000E+00 0. -1.
        994   -1    0    0    0    0 -0.00000000000E+00 -0.00000000000E+00  0.11368683772E-12  0.17120000000E+03  0.17120000000E+03 0.  0.
         13    1    1    2    0    0 -0.28156916491E+02 -0.13814612829E+03  0.70915358547E+03  0.72303249142E+03  0.10566000000E+00 0. -1.
        994    1    1    2    0    0  0.45364644777E+02  0.11997861123E+03  0.67497922698E+02  0.22431724793E+03  0.17120000000E+03 0.  0.
        998    1    1    2    0    0 -0.17207728287E+02  0.18167517059E+02  0.72334848811E+03  0.72385026065E+03  0.10000000000E+02 0. -1.
</event>
<event>
 5    1  0.1106231E-008  0.3789349E+03  0.7957747E-01  0.3455809E+00
         13   -1    0    0    0    0  0.00000000000E+00  0.00000000000E+00  0.14999999963E+04  0.15000000000E+04  0.10566000000E+00 0.  1.
        994   -1    0    0    0    0 -0.00000000000E+00 -0.00000000000E+00  0.11368683772E-12  0.17120000000E+03  0.17120000000E+03 0.  0.
         13    1    1    2    0    0  0.18404963099E+02  0.16859096358E+02  0.74745227724E+02  0.78802487450E+02  0.10566000000E+00 0.  1.
        994    1    1    2    0    0  0.12790392292E+02  0.10789979749E+02  0.56116972897E+01  0.17210737621E+03  0.17120000000E+03 0.  0.
        998    1    1    2    0    0 -0.31195355391E+02 -0.27649076107E+02  0.14196430713E+04  0.14202901363E+04  0.10000000000E+02 0.  1.
</event>
<event>
 5    1  0.1106231E-008  0.3934626E+03  0.7957747E-01  0.3394556E+00
         13   -1    0    0    0    0  0.00000000000E+00  0.00000000000E+00  0.14999999963E+04  0.15000000000E+04  0.10566000000E+00 0.  1.
        994   -1    0    0    0    0 -0.00000000000E+00 -0.00000000000E+00  0.11368683772E-12  0.17120000000E+03  0.17120000000E+03 0.  0.
         13    1    1    2    0    0  0.48593091006E+02 -0.67015500155E+02  0.12583081218E+03  0.15061796112E+03  0.10566000000E+00 0.  1.
        994    1    1    2    0    0 -0.49484453340E+02  0.63261793700E+02  0.48972537170E+02  0.19534204632E+03  0.17120000000E+03 0.  0.
        998    1    1    2    0    0  0.89136233340E+00  0.37537064554E+01  0.13251966469E+04  0.13252399926E+04  0.10000000000E+02 0.  1.
</event>
<event>
 5    1  0.1106231E-008  0.3783858E+03  0.7957747E-01  0.3458217E+00
         13   -1    0    0    0    0  0.00000000000E+00  0.00000000000E+00  0.14999999963E+04  0.15000000000E+04  0.10566000000E+00 0. -1.
        994   -1    0    0    0    0 -0.00000000000E+00 -0.00000000000E+00  0.11368683772E-12  0.17120000000E+03  0.17120000000E+03 0.  0.
         13    1    1    2    0    0  0.36290234930E+02 -0.23420360685E+02  0.22443467528E+03  0.22855290214E+03  0.10566000000E+00 0. -1.
        994    1    1    2    0    0 -0.41518213419E+01 -0.56053133511E+01  0.51137537009E+01  0.17141834101E+03  0.17120000000E+03 0.  0.
        998    1    1    2    0    0 -0.32138413589E+02  0.29025674036E+02  0.12704515673E+04  0.12712287568E+04  0.10000000000E+02 0. -1.
</event>
<event>
 5    1  0.1106231E-008  0.3859023E+03  0.7957747E-01  0.3425855E+00
         13   -1    0    0    0    0  0.00000000000E+00  0.00000000000E+00  0.14999999963E+04  0.15000000000E+04  0.10566000000E+00 0. -1.
        994   -1    0    0    0    0 -0.00000000000E+00 -0.00000000000E+00  0.11368683772E-12  0.17120000000E+03  0.17120000000E+03 0.  0.
         13    1    1    2    0    0 -0.94604517427E+01  0.73955657304E+01  0.60279185773E+02  0.61463696123E+02  0.10566000000E+00 0. -1.
        994    1    1    2    0    0  0.11277807323E+02 -0.35186528283E+01  0.16406292867E+01  0.17161498047E+03  0.17120000000E+03 0.  0.
        998    1    1    2    0    0 -0.18173555799E+01 -0.38769129021E+01  0.14380801812E+04  0.14381213234E+04  0.10000000000E+02 0. -1.
</event>
<event>
 5    1  0.1106231E-008  0.3846571E+03  0.7957747E-01  0.3431128E+00
         13   -1    0    0    0    0  0.00000000000E+00  0.00000000000E+00  0.14999999963E+04  0.15000000000E+04  0.10566000000E+00 0. -1.
        994   -1    0    0    0    0 -0.00000000000E+00 -0.00000000000E+00  0.11368683772E-12  0.17120000000E+03  0.17120000000E+03 0.  0.
         13    1    1    2    0    0  0.85257764757E+01  0.16417710049E+02  0.90660410008E+02  0.92528650561E+02  0.10566000000E+00 0. -1.
        994    1    1    2    0    0 -0.99878263831E+01 -0.15419113906E+02  0.29124159911E+01  0.17220751411E+03  0.17120000000E+03 0.  0.
        998    1    1    2    0    0  0.14620499074E+01 -0.99859614258E+00  0.14064271703E+04  0.14064638353E+04  0.10000000000E+02 0. -1.
</event>
<event>
 5    1  0.1106231E-008  0.3766103E+03  0.7957747E-01  0.3466052E+00
         13   -1    0    0    0    0  0.00000000000E+00  0.00000000000E+00  0.14999999963E+04  0.15000000000E+04  0.10566000000E+00 0.  1.
        994   -1    0    0    0    0 -0.00000000000E+00 -0.00000000000E+00  0.11368683772E-12  0.17120000000E+03  0.17120000000E+03 0.  0.
         13    1    1    2    0    0  0.85611409440E+01 -0.52791691476E+02  0.18830781172E+03  0.19575520157E+03  0.10566000000E+00 0.  1.
        994    1    1    2    0    0 -0.32169417817E+02  0.69473685875E+02  0.25935063625E+02  0.18932388121E+03  0.17120000000E+03 0.  0.
        998    1    1    2    0    0  0.23608276873E+02 -0.16681994399E+02  0.12857571209E+04  0.12861209172E+04  0.10000000000E+02 0.  1.
</event>
<event>
 5    1  0.1106231E-008  0.3821604E+03  0.7957747E-01  0.3441805E+00
         13   -1    0    0    0    0  0.00000000000E+00  0.00000000000E+00  0.14999999963E+04  0.15000000000E+04  0.10566000000E+00 0.  1.
        994   -1    0    0    0    0 -0.00000000000E+00 -0.00000000000E+00  0.11368683772E-12  0.17120000000E+03  0.17120000000E+03 0.  0.
         13    1    1    2    0    0 -0.23311119147E+01 -0.12538402631E+02  0.25864574601E+02  0.28838047898E+02  0.10566000000E+00 0.  1.
        994    1    1    2    0    0 -0.18550829914E+02  0.85258508464E+01  0.44313005172E+01  0.17246999695E+03  0.17120000000E+03 0.  0.
        998    1    1    2    0    0  0.20881941829E+02  0.40125517842E+01  0.14697041212E+04  0.14698919552E+04  0.10000000000E+02 0.  1.
</event>
<event>
 5    1  0.1106231E-008  0.3822560E+03  0.7957747E-01  0.3441394E+00
         13   -1    0    0    0    0  0.00000000000E+00  0.00000000000E+00  0.14999999963E+04  0.15000000000E+04  0.10566000000E+00 0. -1.
        994   -1    0    0    0    0 -0.00000000000E+00 -0.00000000000E+00  0.11368683772E-12  0.17120000000E+03  0.17120000000E+03 0.  0.
         13    1    1    2    0    0 -0.20317268654E+02 -0.55744426248E+02  0.34582673699E+03  0.35087943177E+03  0.10566000000E+00 0. -1.
        994    1    1    2    0    0  0.43321511474E+02  0.73089555310E+02  0.27333696585E+02  0.19306840089E+03  0.17120000000E+03 0.  0.
        998    1    1    2    0    0 -0.23004242820E+02 -0.17345129062E+02  0.11268395627E+04  0.11272521673E+04  0.10000000000E+02 0. -1.
</event>
<event>
 5    1  0.1106231E-008  0.3698845E+03  0.7957747E-01  0.3496422E+00
         13   -1    0    0    0    0  0.00000000000E+00  0.00000000000E+00  0.14999999963E+04  0.15000000000E+04  0.10566000000E+00 0.  1.
        994   -1    0    0    0    0 -0.00000000000E+00 -0.00000000000E+00  0.11368683772E-12  0.17120000000E+03  0.17120000000E+03 0.  0.
         13    1    1    2    0    0 -0.75960443745E+02 -0.54945667646E+01  0.26347511409E+03  0.27426141943E+03  0.10566000000E+00 0.  1.
        994    1    1    2    0    0  0.70287771698E+02  0.15444316380E+01  0.26626414211E+02  0.18697904175E+03  0.17120000000E+03 0.  0.
        998    1    1    2    0    0  0.56726720477E+01  0.39501351266E+01  0.12098984680E+04  0.12099595388E+04  0.10000000000E+02 0.  0.
</event>
<event>
 5    1  0.1106231E-008  0.3792302E+03  0.7957747E-01  0.3454517E+00
         13   -1    0    0    0    0  0.00000000000E+00  0.00000000000E+00  0.14999999963E+04  0.15000000000E+04  0.10566000000E+00 0.  1.
        994   -1    0    0    0    0 -0.00000000000E+00 -0.00000000000E+00  0.11368683772E-12  0.17120000000E+03  0.17120000000E+03 0.  0.
         13    1    1    2    0    0  0.54325283053E+01  0.20210121364E+02  0.45651712151E+02  0.50220029427E+02  0.10566000000E+00 0.  1.
        994    1    1    2    0    0  0.10711934984E+02 -0.23844219779E+02  0.68156020650E+01  0.17331816062E+03  0.17120000000E+03 0.  0.
        998    1    1    2    0    0 -0.16144463289E+02  0.36340984157E+01  0.14475326821E+04  0.14476618100E+04  0.10000000000E+02 0.  1.
</event>
<event>
 5    1  0.1106231E-008  0.3796408E+03  0.7957747E-01  0.3452724E+00
         13   -1    0    0    0    0  0.00000000000E+00  0.00000000000E+00  0.14999999963E+04  0.15000000000E+04  0.10566000000E+00 0. -1.
        994   -1    0    0    0    0 -0.00000000000E+00 -0.00000000000E+00  0.11368683772E-12  0.17120000000E+03  0.17120000000E+03 0.  0.
         13    1    1    2    0    0 -0.33860790121E+01  0.39190409116E+02  0.17356073312E+03  0.17796261670E+03  0.10566000000E+00 0. -1.
        994    1    1    2    0    0  0.10136251866E+02 -0.25830402220E+02  0.68958188593E+01  0.17357115428E+03  0.17120000000E+03 0.  0.
        998    1    1    2    0    0 -0.67501728535E+01 -0.13360006896E+02  0.13195434443E+04  0.13196662290E+04  0.10000000000E+02 0. -1.
</event>
<event>
 5    1  0.1106231E-008  0.3836398E+03  0.7957747E-01  0.3435461E+00
         13   -1    0    0    0    0  0.00000000000E+00  0.00000000000E+00  0.14999999963E+04  0.15000000000E+04  0.10566000000E+00 0. -1.
        994   -1    0    0    0    0 -0.00000000000E+00 -0.00000000000E+00  0.11368683772E-12  0.17120000000E+03  0.17120000000E+03 0.  0.
         13    1    1    2    0    0  0.12869331344E+02  0.18886785490E+02  0.12130842706E+03  0.12344260203E+03  0.10566000000E+00 0. -1.
        994    1    1    2    0    0 -0.18519387919E+02  0.68849628318E+01  0.35974879006E+01  0.17237387378E+03  0.17120000000E+03 0.  0.
        998    1    1    2    0    0  0.56500565756E+01 -0.25771748322E+02  0.13750940813E+04  0.13753835242E+04  0.10000000000E+02 0. -1.
</event>
<event>
 5    1  0.1106231E-008  0.3812729E+03  0.7957747E-01  0.3445635E+00
         13   -1    0    0    0    0  0.00000000000E+00  0.00000000000E+00  0.14999999963E+04  0.15000000000E+04  0.10566000000E+00 0.  1.
        994   -1    0    0    0    0 -0.00000000000E+00 -0.00000000000E+00  0.11368683772E-12  0.17120000000E+03  0.17120000000E+03 0.  0.
         13    1    1    2    0    0  0.30534171913E+02  0.26946825485E+01  0.12659671391E+03  0.13025488899E+03  0.10566000000E+00 0.  1.
        994    1    1    2    0    0 -0.26788883811E+02 -0.53796272408E+00  0.58855688994E+01  0.17338400624E+03  0.17120000000E+03 0.  0.
        998    1    1    2    0    0 -0.37452881020E+01 -0.21567198244E+01  0.13675177135E+04  0.13675611048E+04  0.10000000000E+02 0.  1.
</event>
<event>
 5    1  0.1106231E-008  0.3690668E+03  0.7957747E-01  0.3500191E+00
         13   -1    0    0    0    0  0.00000000000E+00  0.00000000000E+00  0.14999999963E+04  0.15000000000E+04  0.10566000000E+00 0. -1.
        994   -1    0    0    0    0 -0.00000000000E+00 -0.00000000000E+00  0.11368683772E-12  0.17120000000E+03  0.17120000000E+03 0.  0.
         13    1    1    2    0    0 -0.62589536118E+02 -0.77654797162E+02  0.38019250314E+03  0.39305733444E+03  0.10566000000E+00 0. -1.
        994    1    1    2    0    0  0.52827775623E+02  0.82437188351E+02  0.43790162684E+02  0.20202396454E+03  0.17120000000E+03 0.  0.
        998    1    1    2    0    0  0.97617604957E+01 -0.47823911889E+01  0.10760173305E+04  0.10761187010E+04  0.10000000000E+02 0. -1.
</event>
<event>
 5    1  0.1106231E-008  0.3776888E+03  0.7957747E-01  0.3461284E+00
         13   -1    0    0    0    0  0.00000000000E+00  0.00000000000E+00  0.14999999963E+04  0.15000000000E+04  0.10566000000E+00 0.  1.
        994   -1    0    0    0    0 -0.00000000000E+00 -0.00000000000E+00  0.11368683772E-12  0.17120000000E+03  0.17120000000E+03 0.  0.
         13    1    1    2    0    0  0.26614073630E+02  0.61821444760E+02  0.35185017639E+03  0.35823003466E+03  0.10566000000E+00 0.  1.
        994    1    1    2    0    0 -0.22857201908E+02 -0.54882291262E+02  0.17304937231E+02  0.18205333951E+03  0.17120000000E+03 0.  0.
        998    1    1    2    0    0 -0.37568717223E+01 -0.69391534976E+01  0.11308448827E+04  0.11309166258E+04  0.10000000000E+02 0.  1.
</event>
<event>
 5    1  0.1106231E-008  0.3797193E+03  0.7957747E-01  0.3452382E+00
         13   -1    0    0    0    0  0.00000000000E+00  0.00000000000E+00  0.14999999963E+04  0.15000000000E+04  0.10566000000E+00 0.  1.
        994   -1    0    0    0    0 -0.00000000000E+00 -0.00000000000E+00  0.11368683772E-12  0.17120000000E+03  0.17120000000E+03 0.  0.
         13    1    1    2    0    0 -0.27776966296E+02  0.23850900328E+02  0.17237922980E+03  0.17622438915E+03  0.10566000000E+00 0.  1.
        994    1    1    2    0    0  0.24174920135E+02  0.17093438656E+02  0.72136058814E+01  0.17389102484E+03  0.17120000000E+03 0.  0.
        998    1    1    2    0    0  0.36020461604E+01 -0.40944338983E+02  0.13204071606E+04  0.13210845860E+04  0.10000000000E+02 0.  1.
</event>
<event>
 5    1  0.1106231E-008  0.3841427E+03  0.7957747E-01  0.3433316E+00
         13   -1    0    0    0    0  0.00000000000E+00  0.00000000000E+00  0.14999999963E+04  0.15000000000E+04  0.10566000000E+00 0. -1.
        994   -1    0    0    0    0 -0.00000000000E+00 -0.00000000000E+00  0.11368683772E-12  0.17120000000E+03  0.17120000000E+03 0.  0.
         13    1    1    2    0    0  0.37230232950E+01 -0.11077241333E+02  0.32520371248E+02  0.34556502834E+02  0.10566000000E+00 0. -1.
        994    1    1    2    0    0 -0.65539325224E+01  0.74774639806E+01  0.23824633967E+01  0.17150505133E+03  0.17120000000E+03 0.  0.
        998    1    1    2    0    0  0.28309092274E+01  0.35997773526E+01  0.14650971616E+04  0.14651384458E+04  0.10000000000E+02 0. -1.
</event>
<event>
 5    1  0.1106231E-008  0.3733856E+03  0.7957747E-01  0.3480475E+00
         13   -1    0    0    0    0  0.00000000000E+00  0.00000000000E+00  0.14999999963E+04  0.15000000000E+04  0.10566000000E+00 0.  1.
        994   -1    0    0    0    0 -0.00000000000E+00 -0.00000000000E+00  0.11368683772E-12  0.17120000000E+03  0.17120000000E+03 0.  0.
         13    1    1    2    0    0 -0.87870417978E+01 -0.54817038732E+01  0.36152345400E+01  0.10970062248E+02  0.10566000000E+00 0.  1.
        994    1    1    2    0    0  0.11291741372E+02  0.28151778056E+01  0.79731186676E+01  0.17178020628E+03  0.17120000000E+03 0.  0.
        998    1    1    2    0    0 -0.25046995738E+01  0.26665260677E+01  0.14884116431E+04  0.14884497315E+04  0.10000000000E+02 0.  1.
</event>
<event>
 5    1  0.1106231E-008  0.3850732E+03  0.7957747E-01  0.3429362E+00
         13   -1    0    0    0    0  0.00000000000E+00  0.00000000000E+00  0.14999999963E+04  0.15000000000E+04  0.10566000000E+00 0.  1.
        994   -1    0    0    0    0 -0.00000000000E+00 -0.00000000000E+00  0.11368683772E-12  0.17120000000E+03  0.17120000000E+03 0.  0.
         13    1    1    2    0    0 -0.12720583801E+02 -0.37918540794E+01  0.63335642810E+02  0.64711716279E+02  0.10566000000E+00 0.  1.
        994    1    1    2    0    0 -0.17781794173E+01 -0.32401007214E+02  0.50635391815E+01  0.17432173307E+03  0.17120000000E+03 0.  0.
        998    1    1    2    0    0  0.14498763218E+02  0.36192861293E+02  0.14316008143E+04  0.14321665507E+04  0.10000000000E+02 0.  1.
</event>
<event>
 5    1  0.1106231E-008  0.3793219E+03  0.7957747E-01  0.3454116E+00
         13   -1    0    0    0    0  0.00000000000E+00  0.00000000000E+00  0.14999999963E+04  0.15000000000E+04  0.10566000000E+00 0.  1.
        994   -1    0    0    0    0 -0.00000000000E+00 -0.00000000000E+00  0.11368683772E-12  0.17120000000E+03  0.17120000000E+03 0.  0.
         13    1    1    2    0    0  0.12727000286E+02 -0.16833269951E+02  0.47730629355E+02  0.52187734729E+02  0.10566000000E+00 0.  1.
        994    1    1    2    0    0 -0.12018571250E+02  0.10575877073E+02  0.53350016749E+01  0.17202964126E+03  0.17120000000E+03 0.  0.
        998    1    1    2    0    0 -0.70842903574E+00  0.62573928779E+01  0.14469343652E+04  0.14469826240E+04  0.10000000000E+02 0.  1.
</event>
<event>
 5    1  0.1106231E-008  0.3771135E+03  0.7957747E-01  0.3463824E+00
         13   -1    0    0    0    0  0.00000000000E+00  0.00000000000E+00  0.14999999963E+04  0.15000000000E+04  0.10566000000E+00 0.  1.
        994   -1    0    0    0    0 -0.00000000000E+00 -0.00000000000E+00  0.11368683772E-12  0.17120000000E+03  0.17120000000E+03 0.  0.
         13    1    1    2    0    0 -0.24215535391E+02  0.24489399757E+02  0.33616781501E+02  0.48127144287E+02  0.10566000000E+00 0.  1.
        994    1    1    2    0    0  0.25409346680E+02 -0.22832302020E+02  0.18946320460E+02  0.17559997714E+03  0.17120000000E+03 0.  0.
        998    1    1    2    0    0 -0.11938112891E+01 -0.16570977364E+01  0.14474368943E+04  0.14474728786E+04  0.10000000000E+02 0.  1.
</event>
<event>
 5    1  0.1106231E-008  0.3812036E+03  0.7957747E-01  0.3445934E+00
         13   -1    0    0    0    0  0.00000000000E+00  0.00000000000E+00  0.14999999963E+04  0.15000000000E+04  0.10566000000E+00 0. -1.
        994   -1    0    0    0    0 -0.00000000000E+00 -0.00000000000E+00  0.11368683772E-12  0.17120000000E+03  0.17120000000E+03 0.  0.
         13    1    1    2    0    0 -0.36944048435E+02  0.35489549118E+02  0.30981561030E+03  0.31402244245E+03  0.10566000000E+00 0. -1.
        994    1    1    2    0    0  0.34175723927E+02 -0.32639055786E+02  0.10998903909E+02  0.17794297951E+03  0.17120000000E+03 0.  0.
        998    1    1    2    0    0  0.27683245082E+01 -0.28504933322E+01  0.11791854821E+04  0.11792345780E+04  0.10000000000E+02 0. -1.
</event>
<event>
 5    1  0.1106231E-008  0.3724639E+03  0.7957747E-01  0.3484643E+00
         13   -1    0    0    0    0  0.00000000000E+00  0.00000000000E+00  0.14999999963E+04  0.15000000000E+04  0.10566000000E+00 0. -1.
        994   -1    0    0    0    0 -0.00000000000E+00 -0.00000000000E+00  0.11368683772E-12  0.17120000000E+03  0.17120000000E+03 0.  0.
         13    1    1    2    0    0  0.29635521378E+02 -0.31234256458E+02  0.11153865575E+03  0.11956055284E+03  0.10566000000E+00 0. -1.
        994    1    1    2    0    0 -0.10216630020E+02  0.31882141317E+02  0.11839428191E+02  0.17484410921E+03  0.17120000000E+03 0.  0.
        998    1    1    2    0    0 -0.19418891358E+02 -0.64788485849E+00  0.13766219123E+04  0.13767953380E+04  0.10000000000E+02 0. -1.
</event>
<event>
 5    1  0.1106231E-008  0.3770690E+03  0.7957747E-01  0.3464021E+00
         13   -1    0    0    0    0  0.00000000000E+00  0.00000000000E+00  0.14999999963E+04  0.15000000000E+04  0.10566000000E+00 0. -1.
        994   -1    0    0    0    0 -0.00000000000E+00 -0.00000000000E+00  0.11368683772E-12  0.17120000000E+03  0.17120000000E+03 0.  0.
         13    1    1    2    0    0  0.22882714143E+02 -0.49187274431E+00  0.44316256291E+02  0.49877873662E+02  0.10566000000E+00 0. -1.
        994    1    1    2    0    0 -0.15617032313E+02  0.62659023577E+01  0.65764755585E+01  0.17215064119E+03  0.17120000000E+03 0.  0.
        998    1    1    2    0    0 -0.72656818301E+01 -0.57740296134E+01  0.14491072644E+04  0.14491714852E+04  0.10000000000E+02 0. -1.
</event>
<event>
 5    1  0.1106231E-008  0.3855605E+03  0.7957747E-01  0.3427298E+00
         13   -1    0    0    0    0  0.00000000000E+00  0.00000000000E+00  0.14999999963E+04  0.15000000000E+04  0.10566000000E+00 0. -1.
        994   -1    0    0    0    0 -0.00000000000E+00 -0.00000000000E+00  0.11368683772E-12  0.17120000000E+03  0.17120000000E+03 0.  0.
         13    1    1    2    0    0  0.10384128118E+02 -0.92065982982E+01  0.74624498390E+02  0.75904008412E+02  0.10566000000E+00 0. -1.
        994    1    1    2    0    0 -0.12347631195E+02 -0.79407481876E+01  0.20599057340E+01  0.17184063166E+03  0.17120000000E+03 0.  0.
        998    1    1    2    0    0  0.19635030778E+01  0.17147346486E+02  0.14233155922E+04  0.14234553599E+04  0.10000000000E+02 0. -1.
</event>
<event>
 5    1  0.1106231E-008  0.3781871E+03  0.7957747E-01  0.3459090E+00
         13   -1    0    0    0    0  0.00000000000E+00  0.00000000000E+00  0.14999999963E+04  0.15000000000E+04  0.10566000000E+00 0. -1.
        994   -1    0    0    0    0 -0.00000000000E+00 -0.00000000000E+00  0.11368683772E-12  0.17120000000E+03  0.17120000000E+03 0.  0.
         13    1    1    2    0    0 -0.43376717690E+02  0.56661392421E+01  0.20577553266E+03  0.21037401402E+03  0.10566000000E+00 0. -1.
        994    1    1    2    0    0  0.13181789864E+02  0.70161730882E+01  0.58013443885E+01  0.17194790451E+03  0.17120000000E+03 0.  0.
        998    1    1    2    0    0  0.30194927826E+02 -0.12682312330E+02  0.12884231192E+04  0.12888780815E+04  0.10000000000E+02 0. -1.
</event>
<event>
 5    1  0.1106231E-008  0.3750493E+03  0.7957747E-01  0.3473002E+00
         13   -1    0    0    0    0  0.00000000000E+00  0.00000000000E+00  0.14999999963E+04  0.15000000000E+04  0.10566000000E+00 0. -1.
        994   -1    0    0    0    0 -0.00000000000E+00 -0.00000000000E+00  0.11368683772E-12  0.17120000000E+03  0.17120000000E+03 0.  0.
         13    1    1    2    0    0 -0.37534124564E+02 -0.73556268449E+02  0.46890116499E+03  0.47611726374E+03  0.10566000000E+00 0. -1.
        994    1    1    2    0    0  0.29793445672E+02  0.47554819046E+02  0.17432341249E+02  0.18100396885E+03  0.17120000000E+03 0.  0.
        998    1    1    2    0    0  0.77406788913E+01  0.26001449403E+02  0.10136664900E+04  0.10140787674E+04  0.10000000000E+02 0. -1.
</event>
<event>
 5    1  0.1106231E-008  0.3282719E+03  0.7957747E-01  0.3712801E+00
         13   -1    0    0    0    0  0.00000000000E+00  0.00000000000E+00  0.14999999963E+04  0.15000000000E+04  0.10566000000E+00 0. -1.
        994   -1    0    0    0    0 -0.00000000000E+00 -0.00000000000E+00  0.11368683772E-12  0.17120000000E+03  0.17120000000E+03 0.  0.
         13    1    1    2    0    0 -0.69827582014E+02  0.24396246339E+03  0.71131509558E+03  0.75522364312E+03  0.10566000000E+00 0. -1.
        994    1    1    2    0    0  0.76362721779E+02 -0.23188212109E+03  0.28652599271E+03  0.41353012932E+03  0.17120000000E+03 0.  0.
        998    1    1    2    0    0 -0.65351397650E+01 -0.12080342304E+02  0.50215890799E+03  0.50244622757E+03  0.10000000000E+02 0.  1.
</event>
<event>
 5    1  0.1106231E-008  0.3854414E+03  0.7957747E-01  0.3427803E+00
         13   -1    0    0    0    0  0.00000000000E+00  0.00000000000E+00  0.14999999963E+04  0.15000000000E+04  0.10566000000E+00 0.  1.
        994   -1    0    0    0    0 -0.00000000000E+00 -0.00000000000E+00  0.11368683772E-12  0.17120000000E+03  0.17120000000E+03 0.  0.
         13    1    1    2    0    0 -0.10007491222E+02  0.36484163785E+01  0.38575605373E+02  0.40019361771E+02  0.10566000000E+00 0.  1.
        994    1    1    2    0    0  0.17491808422E+02  0.26128489411E+01  0.24390333386E+01  0.17212838007E+03  0.17120000000E+03 0.  0.
        998    1    1    2    0    0 -0.74843172001E+01 -0.62612653196E+01  0.14589853576E+04  0.14590522582E+04  0.10000000000E+02 0.  1.
</event>
<event>
 5    1  0.1106231E-008  0.3906260E+03  0.7957747E-01  0.3406157E+00
         13   -1    0    0    0    0  0.00000000000E+00  0.00000000000E+00  0.14999999963E+04  0.15000000000E+04  0.10566000000E+00 0.  1.
        994   -1    0    0    0    0 -0.00000000000E+00 -0.00000000000E+00  0.11368683772E-12  0.17120000000E+03  0.17120000000E+03 0.  0.
         13    1    1    2    0    0  0.24629886778E+02 -0.50652174181E+02  0.60871624579E+02  0.82931537517E+02  0.10566000000E+00 0.  1.
        994    1    1    2    0    0 -0.15695240046E+02  0.55234080302E+02  0.34833427014E+02  0.18390201691E+03  0.17120000000E+03 0.  0.
        998    1    1    2    0    0 -0.89346467319E+01 -0.45819061202E+01  0.14042949447E+04  0.14043664456E+04  0.10000000000E+02 0.  1.
</event>
<event>
 5    1  0.1106231E-008  0.3808434E+03  0.7957747E-01  0.3447494E+00
         13   -1    0    0    0    0  0.00000000000E+00  0.00000000000E+00  0.14999999963E+04  0.15000000000E+04  0.10566000000E+00 0. -1.
        994   -1    0    0    0    0 -0.00000000000E+00 -0.00000000000E+00  0.11368683772E-12  0.17120000000E+03  0.17120000000E+03 0.  0.
         13    1    1    2    0    0  0.17271912917E+02 -0.16610232954E+02  0.80341187994E+02  0.83838752775E+02  0.10566000000E+00 0. -1.
        994    1    1    2    0    0 -0.97793776720E+01 -0.42759387541E+01  0.40878696131E+01  0.17158109033E+03  0.17120000000E+03 0.  0.
        998    1    1    2    0    0 -0.74925352451E+01  0.20886171708E+02  0.14155709387E+04  0.14157801569E+04  0.10000000000E+02 0. -1.
</event>
<event>
 5    1  0.1106231E-008  0.3752139E+03  0.7957747E-01  0.3472267E+00
         13   -1    0    0    0    0  0.00000000000E+00  0.00000000000E+00  0.14999999963E+04  0.15000000000E+04  0.10566000000E+00 0. -1.
        994   -1    0    0    0    0 -0.00000000000E+00 -0.00000000000E+00  0.11368683772E-12  0.17120000000E+03  0.17120000000E+03 0.  0.
         13    1    1    2    0    0  0.31742548718E+02 -0.25087371433E+02  0.12557605840E+03  0.13193302548E+03  0.10566000000E+00 0. -1.
        994    1    1    2    0    0 -0.25994614769E+02 -0.23002394677E+01  0.88856049223E+01  0.17340532020E+03  0.17120000000E+03 0.  0.
        998    1    1    2    0    0 -0.57479339486E+01  0.27387610900E+02  0.13655383330E+04  0.13658616543E+04  0.10000000000E+02 0. -1.
</event>
<event>
 5    1  0.1106231E-008  0.3779452E+03  0.7957747E-01  0.3460155E+00
         13   -1    0    0    0    0  0.00000000000E+00  0.00000000000E+00  0.14999999963E+04  0.15000000000E+04  0.10566000000E+00 0. -1.
        994   -1    0    0    0    0 -0.00000000000E+00 -0.00000000000E+00  0.11368683772E-12  0.17120000000E+03  0.17120000000E+03 0.  0.
         13    1    1    2    0    0 -0.16712936301E+02 -0.40755715871E+01  0.26222150580E+02  0.31361518915E+02  0.10566000000E+00 0. -1.
        994    1    1    2    0    0  0.23760918185E+02 -0.36173085610E+02  0.11504399252E+02  0.17696006487E+03  0.17120000000E+03 0.  0.
        998    1    1    2    0    0 -0.70479818843E+01  0.40248657198E+02  0.14622734464E+04  0.14628784162E+04  0.10000000000E+02 0. -1.
</event>
<event>
 5    1  0.1106231E-008  0.3798162E+03  0.7957747E-01  0.3451959E+00
         13   -1    0    0    0    0  0.00000000000E+00  0.00000000000E+00  0.14999999963E+04  0.15000000000E+04  0.10566000000E+00 0. -1.
        994   -1    0    0    0    0 -0.00000000000E+00 -0.00000000000E+00  0.11368683772E-12  0.17120000000E+03  0.17120000000E+03 0.  0.
         13    1    1    2    0    0  0.11786838780E+02 -0.12668036465E+02  0.33232284892E+02  0.37467381006E+02  0.10566000000E+00 0. -1.
        994    1    1    2    0    0 -0.14652412041E+02  0.91737083934E+01  0.52262338498E+01  0.17214994518E+03  0.17120000000E+03 0.  0.
        998    1    1    2    0    0  0.28655732608E+01  0.34943280718E+01  0.14615414775E+04  0.14615826738E+04  0.10000000000E+02 0. -1.
</event>
<event>
 5    1  0.1106231E-008  0.3839280E+03  0.7957747E-01  0.3434231E+00
         13   -1    0    0    0    0  0.00000000000E+00  0.00000000000E+00  0.14999999963E+04  0.15000000000E+04  0.10566000000E+00 0.  1.
        994   -1    0    0    0    0 -0.00000000000E+00 -0.00000000000E+00  0.11368683772E-12  0.17120000000E+03  0.17120000000E+03 0.  0.
         13    1    1    2    0    0  0.45357841014E+01 -0.27883471405E+02  0.17038252690E+03  0.17270865048E+03  0.10566000000E+00 0.  1.
        994    1    1    2    0    0 -0.34973958540E+01  0.25106268936E+02  0.42866939465E+01  0.17311953172E+03  0.17120000000E+03 0.  0.
        998    1    1    2    0    0 -0.10383882474E+01  0.27772024692E+01  0.13253307754E+04  0.13253718178E+04  0.10000000000E+02 0.  1.
</event>
<event>
 5    1  0.1106231E-008  0.3854790E+03  0.7957747E-01  0.3427643E+00
         13   -1    0    0    0    0  0.00000000000E+00  0.00000000000E+00  0.14999999963E+04  0.15000000000E+04  0.10566000000E+00 0. -1.
        994   -1    0    0    0    0 -0.00000000000E+00 -0.00000000000E+00  0.11368683772E-12  0.17120000000E+03  0.17120000000E+03 0.  0.
         13    1    1    2    0    0  0.10973511961E+02 -0.86375787895E+01  0.75220989473E+02  0.76506432105E+02  0.10566000000E+00 0. -1.
        994    1    1    2    0    0  0.62392888738E+01  0.85702215347E+01  0.17616100285E+01  0.17153693682E+03  0.17120000000E+03 0.  0.
        998    1    1    2    0    0 -0.17212800835E+02  0.67357254773E-01  0.14230173968E+04  0.14231566311E+04  0.10000000000E+02 0. -1.
</event>
<event>
 5    1  0.1106231E-008  0.3844630E+03  0.7957747E-01  0.3431953E+00
         13   -1    0    0    0    0  0.00000000000E+00  0.00000000000E+00  0.14999999963E+04  0.15000000000E+04  0.10566000000E+00 0. -1.
        994   -1    0    0    0    0 -0.00000000000E+00 -0.00000000000E+00  0.11368683772E-12  0.17120000000E+03  0.17120000000E+03 0.  0.
         13    1    1    2    0    0  0.19979605547E+01  0.19704089864E+02  0.10218210419E+03  0.10408379597E+03  0.10566000000E+00 0. -1.
        994    1    1    2    0    0  0.35121373717E+01 -0.14240563311E+02  0.26060103029E+01  0.17184690874E+03  0.17120000000E+03 0.  0.
        998    1    1    2    0    0 -0.55100979264E+01 -0.54635265529E+01  0.13952118818E+04  0.13952692953E+04  0.10000000000E+02 0. -1.
</event>
<event>
 5    1  0.1106231E-008  0.3780029E+03  0.7957747E-01  0.3459901E+00
         13   -1    0    0    0    0  0.00000000000E+00  0.00000000000E+00  0.14999999963E+04  0.15000000000E+04  0.10566000000E+00 0.  1.
        994   -1    0    0    0    0 -0.00000000000E+00 -0.00000000000E+00  0.11368683772E-12  0.17120000000E+03  0.17120000000E+03 0.  0.
         13    1    1    2    0    0  0.18894810419E+02 -0.49048761183E+02  0.22769805313E+03  0.23368613437E+03  0.10566000000E+00 0.  1.
        994    1    1    2    0    0 -0.16513311456E+02  0.50039472809E+02  0.14545983252E+02  0.17971550830E+03  0.17120000000E+03 0.  0.
        998    1    1    2    0    0 -0.23814989633E+01 -0.99071162521E+00  0.12577559599E+04  0.12577983573E+04  0.10000000000E+02 0.  1.
</event>
<event>
 5    1  0.1106231E-008  0.3716002E+03  0.7957747E-01  0.3488569E+00
         13   -1    0    0    0    0  0.00000000000E+00  0.00000000000E+00  0.14999999963E+04  0.15000000000E+04  0.10566000000E+00 0.  1.
        994   -1    0    0    0    0 -0.00000000000E+00 -0.00000000000E+00  0.11368683772E-12  0.17120000000E+03  0.17120000000E+03 0.  0.
         13    1    1    2    0    0  0.47719362095E+02  0.89791125909E+02  0.52328155376E+03  0.53306958221E+03  0.10566000000E+00 0.  1.
        994    1    1    2    0    0 -0.16190339889E+02 -0.77173106404E+02  0.30129443448E+02  0.19087964486E+03  0.17120000000E+03 0.  0.
        998    1    1    2    0    0 -0.31529022206E+02 -0.12618019505E+02  0.94658899907E+03  0.94725077294E+03  0.10000000000E+02 0.  1.
</event>
<event>
 5    1  0.1106231E-008  0.3847245E+03  0.7957747E-01  0.3430842E+00
         13   -1    0    0    0    0  0.00000000000E+00  0.00000000000E+00  0.14999999963E+04  0.15000000000E+04  0.10566000000E+00 0. -1.
        994   -1    0    0    0    0 -0.00000000000E+00 -0.00000000000E+00  0.11368683772E-12  0.17120000000E+03  0.17120000000E+03 0.  0.
         13    1    1    2    0    0 -0.75208623050E+01 -0.13243612234E+02  0.64171584950E+02  0.65954227415E+02  0.10566000000E+00 0. -1.
        994    1    1    2    0    0  0.81807102324E+01  0.10794774267E+02  0.23710745418E+01  0.17175131198E+03  0.17120000000E+03 0.  0.
        998    1    1    2    0    0 -0.65984792744E+00  0.24488379675E+01  0.14334573368E+04  0.14334944606E+04  0.10000000000E+02 0. -1.
</event>
<event>
 5    1  0.1106231E-008  0.3927382E+03  0.7957747E-01  0.3397502E+00
         13   -1    0    0    0    0  0.00000000000E+00  0.00000000000E+00  0.14999999963E+04  0.15000000000E+04  0.10566000000E+00 0. -1.
        994   -1    0    0    0    0 -0.00000000000E+00 -0.00000000000E+00  0.11368683772E-12  0.17120000000E+03  0.17120000000E+03 0.  0.
         13    1    1    2    0    0  0.67726366273E+02  0.34720605401E+02  0.13490354238E+03  0.15489143953E+03  0.10566000000E+00 0. -1.
        994    1    1    2    0    0 -0.20070400369E+02  0.28892900137E+02  0.28228086539E+02  0.17704204450E+03  0.17120000000E+03 0.  0.
        998    1    1    2    0    0 -0.47655965904E+02 -0.63613505539E+02  0.13368683674E+04  0.13392665160E+04  0.10000000000E+02 0. -1.
</event>
<event>
 5    1  0.1106231E-008  0.3753530E+03  0.7957747E-01  0.3471646E+00
         13   -1    0    0    0    0  0.00000000000E+00  0.00000000000E+00  0.14999999963E+04  0.15000000000E+04  0.10566000000E+00 0.  1.
        994   -1    0    0    0    0 -0.00000000000E+00 -0.00000000000E+00  0.11368683772E-12  0.17120000000E+03  0.17120000000E+03 0.  0.
         13    1    1    2    0    0  0.17985928267E+02  0.23077546997E+02  0.61963007471E+02  0.68523661970E+02  0.10566000000E+00 0.  1.
        994    1    1    2    0    0 -0.12919168572E+02 -0.22247229342E+02  0.87478952272E+01  0.17334304082E+03  0.17120000000E+03 0.  0.
        998    1    1    2    0    0 -0.50667596943E+01 -0.83031765486E+00  0.14292890936E+04  0.14293332972E+04  0.10000000000E+02 0.  1.
</event>
<event>
 5    1  0.1106231E-008  0.3751514E+03  0.7957747E-01  0.3472546E+00
         13   -1    0    0    0    0  0.00000000000E+00  0.00000000000E+00  0.14999999963E+04  0.15000000000E+04  0.10566000000E+00 0. -1.
        994   -1    0    0    0    0 -0.00000000000E+00 -0.00000000000E+00  0.11368683772E-12  0.17120000000E+03  0.17120000000E+03 0.  0.
         13    1    1    2    0    0 -0.49253443914E+02 -0.43171442304E+01  0.15541770143E+03  0.16309265021E+03  0.10566000000E+00 0. -1.
        994    1    1    2    0    0  0.61498980927E+02 -0.73339935582E+01  0.19746945761E+02  0.18312644261E+03  0.17120000000E+03 0.  0.
        998    1    1    2    0    0 -0.12245537013E+02  0.11651137789E+02  0.13248353491E+04  0.13249809072E+04  0.10000000000E+02 0. -1.
</event>
<event>
 5    1  0.1106231E-008  0.3824160E+03  0.7957747E-01  0.3440706E+00
         13   -1    0    0    0    0  0.00000000000E+00  0.00000000000E+00  0.14999999963E+04  0.15000000000E+04  0.10566000000E+00 0.  1.
        994   -1    0    0    0    0 -0.00000000000E+00 -0.00000000000E+00  0.11368683772E-12  0.17120000000E+03  0.17120000000E+03 0.  0.
         13    1    1    2    0    0  0.15749419233E+02 -0.19019134794E+02  0.94831272633E+02  0.97993638200E+02  0.10566000000E+00 0.  1.
        994    1    1    2    0    0 -0.15984080313E+02  0.26377057997E+02  0.60796447471E+01  0.17406217881E+03  0.17120000000E+03 0.  0.
        998    1    1    2    0    0  0.23466108005E+00 -0.73579232028E+01  0.13990890789E+04  0.13991441830E+04  0.10000000000E+02 0.  1.
</event>
<event>
 5    1  0.1106231E-008  0.3845871E+03  0.7957747E-01  0.3431425E+00
         13   -1    0    0    0    0  0.00000000000E+00  0.00000000000E+00  0.14999999963E+04  0.15000000000E+04  0.10566000000E+00 0. -1.
        994   -1    0    0    0    0 -0.00000000000E+00 -0.00000000000E+00  0.11368683772E-12  0.17120000000E+03  0.17120000000E+03 0.  0.
         13    1    1    2    0    0 -0.98529434526E+01  0.13258993306E+02  0.70168139564E+02  0.72086478427E+02  0.10566000000E+00 0. -1.
        994    1    1    2    0    0  0.10513242417E+02 -0.16784200138E+02  0.31280196306E+01  0.17237013125E+03  0.17120000000E+03 0.  0.
        998    1    1    2    0    0 -0.66029896432E+00  0.35252068323E+01  0.14267038371E+04  0.14267433903E+04  0.10000000000E+02 0. -1.
</event>
<event>
 5    1  0.1106231E-008  0.3814239E+03  0.7957747E-01  0.3444982E+00
         13   -1    0    0    0    0  0.00000000000E+00  0.00000000000E+00  0.14999999963E+04  0.15000000000E+04  0.10566000000E+00 0.  1.
        994   -1    0    0    0    0 -0.00000000000E+00 -0.00000000000E+00  0.11368683772E-12  0.17120000000E+03  0.17120000000E+03 0.  0.
         13    1    1    2    0    0 -0.20925358116E+02 -0.14208613484E+01  0.61473630389E+02  0.64953120452E+02  0.10566000000E+00 0.  1.
        994    1    1    2    0    0  0.19933428198E+02 -0.21613468437E+01  0.47548507244E+01  0.17243567376E+03  0.17120000000E+03 0.  0.
        998    1    1    2    0    0  0.99192991874E+00  0.35822081921E+01  0.14337715152E+04  0.14338112058E+04  0.10000000000E+02 0.  1.
</event>
<event>
 5    1  0.1106231E-008  0.3797762E+03  0.7957747E-01  0.3452134E+00
         13   -1    0    0    0    0  0.00000000000E+00  0.00000000000E+00  0.14999999963E+04  0.15000000000E+04  0.10566000000E+00 0. -1.
        994   -1    0    0    0    0 -0.00000000000E+00 -0.00000000000E+00  0.11368683772E-12  0.17120000000E+03  0.17120000000E+03 0.  0.
         13    1    1    2    0    0 -0.10653117840E+02  0.13002969958E+02  0.32325240813E+02  0.36434852889E+02  0.10566000000E+00 0. -1.
        994    1    1    2    0    0 -0.35601145445E-01 -0.52927331084E+01  0.43398940592E+01  0.17133677064E+03  0.17120000000E+03 0.  0.
        998    1    1    2    0    0  0.10688718985E+02 -0.77102368492E+01  0.14633348614E+04  0.14634283765E+04  0.10000000000E+02 0. -1.
</event>
<event>
 5    1  0.1106231E-008  0.3747386E+03  0.7957747E-01  0.3474393E+00
         13   -1    0    0    0    0  0.00000000000E+00  0.00000000000E+00  0.14999999963E+04  0.15000000000E+04  0.10566000000E+00 0.  1.
        994   -1    0    0    0    0 -0.00000000000E+00 -0.00000000000E+00  0.11368683772E-12  0.17120000000E+03  0.17120000000E+03 0.  0.
         13    1    1    2    0    0 -0.79640218258E+02  0.25814811411E+02  0.42880370780E+03  0.43689998837E+03  0.10566000000E+00 0.  1.
        994    1    1    2    0    0  0.64162221333E+02 -0.20316872359E+02  0.22383133276E+02  0.18531057877E+03  0.17120000000E+03 0.  0.
        998    1    1    2    0    0  0.15477996925E+02 -0.54979390525E+01  0.10488131552E+04  0.10489894329E+04  0.10000000000E+02 0.  1.
</event>
<event>
 5    1  0.1106231E-008  0.3737608E+03  0.7957747E-01  0.3478784E+00
         13   -1    0    0    0    0  0.00000000000E+00  0.00000000000E+00  0.14999999963E+04  0.15000000000E+04  0.10566000000E+00 0. -1.
        994   -1    0    0    0    0 -0.00000000000E+00 -0.00000000000E+00  0.11368683772E-12  0.17120000000E+03  0.17120000000E+03 0.  0.
         13    1    1    2    0    0  0.61481290384E+02  0.15391257623E+02  0.36470698691E+03  0.37017298300E+03  0.10566000000E+00 0. -1.
        994    1    1    2    0    0 -0.44071389536E+00 -0.82089714591E+01  0.75471830765E+01  0.17156334519E+03  0.17120000000E+03 0.  0.
        998    1    1    2    0    0 -0.61040576489E+02 -0.71822861638E+01  0.11277458263E+04  0.11294636718E+04  0.10000000000E+02 0. -1.
</event>
<event>
 5    1  0.1106231E-008  0.3809302E+03  0.7957747E-01  0.3447118E+00
         13   -1    0    0    0    0  0.00000000000E+00  0.00000000000E+00  0.14999999963E+04  0.15000000000E+04  0.10566000000E+00 0. -1.
        994   -1    0    0    0    0 -0.00000000000E+00 -0.00000000000E+00  0.11368683772E-12  0.17120000000E+03  0.17120000000E+03 0.  0.
         13    1    1    2    0    0 -0.70286911955E+02 -0.78935485307E+02  0.26100114954E+03  0.28158954536E+03  0.10566000000E+00 0. -1.
        994    1    1    2    0    0  0.75593160382E+02  0.79515756694E+02  0.62033321591E+02  0.21259034420E+03  0.17120000000E+03 0.  0.
        998    1    1    2    0    0 -0.53062484273E+01 -0.58027138719E+00  0.11769655251E+04  0.11770201104E+04  0.10000000000E+02 0. -1.
</event>
<event>
 5    1  0.1106231E-008  0.3828660E+03  0.7957747E-01  0.3438773E+00
         13   -1    0    0    0    0  0.00000000000E+00  0.00000000000E+00  0.14999999963E+04  0.15000000000E+04  0.10566000000E+00 0.  1.
        994   -1    0    0    0    0 -0.00000000000E+00 -0.00000000000E+00  0.11368683772E-12  0.17120000000E+03  0.17120000000E+03 0.  0.
         13    1    1    2    0    0  0.91354596448E+00  0.10940361614E+02  0.21119614835E+02  0.23802843807E+02  0.10566000000E+00 0.  1.
        994    1    1    2    0    0  0.70097893503E+00 -0.11620725490E+02  0.31422896601E+01  0.17162414346E+03  0.17120000000E+03 0.  0.
        998    1    1    2    0    0 -0.16145248995E+01  0.68036387676E+00  0.14757380918E+04  0.14757730127E+04  0.10000000000E+02 0.  1.
</event>
<event>
 5    1  0.1106231E-008  0.3822135E+03  0.7957747E-01  0.3441577E+00
         13   -1    0    0    0    0  0.00000000000E+00  0.00000000000E+00  0.14999999963E+04  0.15000000000E+04  0.10566000000E+00 0.  1.
        994   -1    0    0    0    0 -0.00000000000E+00 -0.00000000000E+00  0.11368683772E-12  0.17120000000E+03  0.17120000000E+03 0.  0.
         13    1    1    2    0    0 -0.95081501420E+01 -0.41221710595E+02  0.42560865419E+02  0.60008939107E+02  0.10566000000E+00 0.  1.
        994    1    1    2    0    0  0.11479616682E+02  0.45832764605E+02  0.25748933687E+02  0.17945715783E+03  0.17120000000E+03 0.  0.
        998    1    1    2    0    0 -0.19714665399E+01 -0.46110540097E+01  0.14316901972E+04  0.14317339031E+04  0.10000000000E+02 0.  1.
</event>
<event>
 5    1  0.1106231E-008  0.3847535E+03  0.7957747E-01  0.3430718E+00
         13   -1    0    0    0    0  0.00000000000E+00  0.00000000000E+00  0.14999999963E+04  0.15000000000E+04  0.10566000000E+00 0.  1.
        994   -1    0    0    0    0 -0.00000000000E+00 -0.00000000000E+00  0.11368683772E-12  0.17120000000E+03  0.17120000000E+03 0.  0.
         13    1    1    2    0    0  0.17824569158E+02  0.29751461013E+01  0.93391151732E+02  0.95123525723E+02  0.10566000000E+00 0.  1.
        994    1    1    2    0    0 -0.10900243199E+02 -0.21726249610E+01  0.21592707949E+01  0.17157400168E+03  0.17120000000E+03 0.  0.
        998    1    1    2    0    0 -0.69243259593E+01 -0.80252114032E+00  0.14044495738E+04  0.14045024726E+04  0.10000000000E+02 0.  1.
</event>
<event>
 5    1  0.1106231E-008  0.3689082E+03  0.7957747E-01  0.3500924E+00
         13   -1    0    0    0    0  0.00000000000E+00  0.00000000000E+00  0.14999999963E+04  0.15000000000E+04  0.10566000000E+00 0. -1.
        994   -1    0    0    0    0 -0.00000000000E+00 -0.00000000000E+00  0.11368683772E-12  0.17120000000E+03  0.17120000000E+03 0.  0.
         13    1    1    2    0    0 -0.51380331596E+02  0.96109863475E+01  0.12008700806E+03  0.13097026458E+03  0.10566000000E+00 0. -1.
        994    1    1    2    0    0  0.48986404604E+02 -0.65176148874E+01  0.18916644502E+02  0.17919103376E+03  0.17120000000E+03 0.  0.
        998    1    1    2    0    0  0.23939269918E+01 -0.30933714601E+01  0.13609963437E+04  0.13610387017E+04  0.10000000000E+02 0. -1.
</event>
<event>
 5    1  0.1106231E-008  0.3724036E+03  0.7957747E-01  0.3484917E+00
         13   -1    0    0    0    0  0.00000000000E+00  0.00000000000E+00  0.14999999963E+04  0.15000000000E+04  0.10566000000E+00 0.  1.
        994   -1    0    0    0    0 -0.00000000000E+00 -0.00000000000E+00  0.11368683772E-12  0.17120000000E+03  0.17120000000E+03 0.  0.
         13    1    1    2    0    0 -0.16902087600E+02  0.93089075078E+01  0.19271078225E+02  0.27271265908E+02  0.10566000000E+00 0.  1.
        994    1    1    2    0    0  0.20439392608E+02 -0.13934532587E+02  0.10119434157E+02  0.17327372252E+03  0.17120000000E+03 0.  0.
        998    1    1    2    0    0 -0.35373050083E+01  0.46256250791E+01  0.14706094839E+04  0.14706550116E+04  0.10000000000E+02 0.  1.
</event>
<event>
 5    1  0.1106231E-008  0.3808258E+03  0.7957747E-01  0.3447571E+00
         13   -1    0    0    0    0  0.00000000000E+00  0.00000000000E+00  0.14999999963E+04  0.15000000000E+04  0.10566000000E+00 0.  1.
        994   -1    0    0    0    0 -0.00000000000E+00 -0.00000000000E+00  0.11368683772E-12  0.17120000000E+03  0.17120000000E+03 0.  0.
         13    1    1    2    0    0 -0.98595378618E+01  0.23247539032E+02  0.79574531579E+02  0.83485183104E+02  0.10566000000E+00 0.  1.
        994    1    1    2    0    0  0.13078460424E+02 -0.25119030199E+02  0.63952321127E+01  0.17364432268E+03  0.17120000000E+03 0.  0.
        998    1    1    2    0    0 -0.32189225622E+01  0.18714911667E+01  0.14140302326E+04  0.14140704942E+04  0.10000000000E+02 0.  1.
</event>
<event>
 5    1  0.1106231E-008  0.3858108E+03  0.7957747E-01  0.3426241E+00
         13   -1    0    0    0    0  0.00000000000E+00  0.00000000000E+00  0.14999999963E+04  0.15000000000E+04  0.10566000000E+00 0. -1.
        994   -1    0    0    0    0 -0.00000000000E+00 -0.00000000000E+00  0.11368683772E-12  0.17120000000E+03  0.17120000000E+03 0.  0.
         13    1    1    2    0    0 -0.14645320914E+02 -0.17102552938E+00  0.85285343450E+02  0.86533898825E+02  0.10566000000E+00 0. -1.
        994    1    1    2    0    0  0.13985740049E+02  0.21136486252E+02  0.33378818711E+01  0.17309804572E+03  0.17120000000E+03 0.  0.
        998    1    1    2    0    0  0.65958086447E+00 -0.20965460723E+02  0.14113767710E+04  0.14115680555E+04  0.10000000000E+02 0. -1.
</event>
<event>
 5    1  0.1106231E-008  0.3845832E+03  0.7957747E-01  0.3431442E+00
         13   -1    0    0    0    0  0.00000000000E+00  0.00000000000E+00  0.14999999963E+04  0.15000000000E+04  0.10566000000E+00 0.  1.
        994   -1    0    0    0    0 -0.00000000000E+00 -0.00000000000E+00  0.11368683772E-12  0.17120000000E+03  0.17120000000E+03 0.  0.
         13    1    1    2    0    0 -0.11759993028E+01  0.17429102432E+02  0.87779650190E+02  0.89501032047E+02  0.10566000000E+00 0.  1.
        994    1    1    2    0    0 -0.12324206867E+02 -0.41142443256E+01  0.23933480189E+01  0.17170900150E+03  0.17120000000E+03 0.  0.
        998    1    1    2    0    0  0.13500206170E+02 -0.13314858106E+02  0.14098269981E+04  0.14099899665E+04  0.10000000000E+02 0.  1.
</event>
<event>
 5    1  0.1106231E-008  0.3819544E+03  0.7957747E-01  0.3442692E+00
         13   -1    0    0    0    0  0.00000000000E+00  0.00000000000E+00  0.14999999963E+04  0.15000000000E+04  0.10566000000E+00 0.  1.
        994   -1    0    0    0    0 -0.00000000000E+00 -0.00000000000E+00  0.11368683772E-12  0.17120000000E+03  0.17120000000E+03 0.  0.
         13    1    1    2    0    0 -0.13020633934E+02 -0.26546117038E+02  0.14374059944E+03  0.14675014252E+03  0.10566000000E+00 0.  1.
        994    1    1    2    0    0  0.62018858200E+01  0.98380478677E+01  0.35991647576E+01  0.17163229463E+03  0.17120000000E+03 0.  0.
        998    1    1    2    0    0  0.68187481142E+01  0.16708069170E+02  0.13526602321E+04  0.13528175629E+04  0.10000000000E+02 0.  1.
</event>
<event>
 5    1  0.1106231E-008  0.3718201E+03  0.7957747E-01  0.3487568E+00
         13   -1    0    0    0    0  0.00000000000E+00  0.00000000000E+00  0.14999999963E+04  0.15000000000E+04  0.10566000000E+00 0.  1.
        994   -1    0    0    0    0 -0.00000000000E+00 -0.00000000000E+00  0.11368683772E-12  0.17120000000E+03  0.17120000000E+03 0.  0.
         13    1    1    2    0    0 -0.11548728402E+02 -0.63197050051E+02  0.20013238037E+03  0.21019091583E+03  0.10566000000E+00 0.  1.
        994    1    1    2    0    0  0.80273512311E+02  0.65236197425E+02  0.46033389924E+02  0.20525133671E+03  0.17120000000E+03 0.  0.
        998    1    1    2    0    0 -0.68724783908E+02 -0.20391473742E+01  0.12538342260E+04  0.12557577475E+04  0.10000000000E+02 0.  1.
</event>
<event>
 5    1  0.1106231E-008  0.3849783E+03  0.7957747E-01  0.3429764E+00
         13   -1    0    0    0    0  0.00000000000E+00  0.00000000000E+00  0.14999999963E+04  0.15000000000E+04  0.10566000000E+00 0. -1.
        994   -1    0    0    0    0 -0.00000000000E+00 -0.00000000000E+00  0.11368683772E-12  0.17120000000E+03  0.17120000000E+03 0.  0.
         13    1    1    2    0    0 -0.18782719258E+02  0.85539140115E+01  0.12146354840E+03  0.12320456462E+03  0.10566000000E+00 0. -1.
        994    1    1    2    0    0  0.15904676748E+02 -0.15228667502E+02  0.32372159362E+01  0.17264064013E+03  0.17120000000E+03 0.  0.
        998    1    1    2    0    0  0.28780425106E+01  0.66747534905E+01  0.13752992319E+04  0.13753547953E+04  0.10000000000E+02 0. -1.
</event>
<event>
 5    1  0.1106231E-008  0.3853688E+03  0.7957747E-01  0.3428109E+00
         13   -1    0    0    0    0  0.00000000000E+00  0.00000000000E+00  0.14999999963E+04  0.15000000000E+04  0.10566000000E+00 0.  1.
        994   -1    0    0    0    0 -0.00000000000E+00 -0.00000000000E+00  0.11368683772E-12  0.17120000000E+03  0.17120000000E+03 0.  0.
         13    1    1    2    0    0 -0.28056876106E+01  0.12407015447E+02  0.54764565374E+02  0.56222546189E+02  0.10566000000E+00 0.  1.
        994    1    1    2    0    0  0.93875012966E+01 -0.10630679229E+02  0.21080869083E+01  0.17179936133E+03  0.17120000000E+03 0.  0.
        998    1    1    2    0    0 -0.65818136861E+01 -0.17763362174E+01  0.14431273440E+04  0.14431780925E+04  0.10000000000E+02 0.  1.
</event>
<event>
 5    1  0.1106231E-008  0.3834786E+03  0.7957747E-01  0.3436150E+00
         13   -1    0    0    0    0  0.00000000000E+00  0.00000000000E+00  0.14999999963E+04  0.15000000000E+04  0.10566000000E+00 0.  1.
        994   -1    0    0    0    0 -0.00000000000E+00 -0.00000000000E+00  0.11368683772E-12  0.17120000000E+03  0.17120000000E+03 0.  0.
         13    1    1    2    0    0  0.76600847958E+01  0.10215875090E+02  0.34303856461E+02  0.36603370543E+02  0.10566000000E+00 0.  1.
        994    1    1    2    0    0 -0.75146187772E+01  0.29336544755E+01  0.26024896429E+01  0.17140971027E+03  0.17120000000E+03 0.  0.
        998    1    1    2    0    0 -0.14546601862E+00 -0.13149529565E+02  0.14630936502E+04  0.14631869192E+04  0.10000000000E+02 0.  1.
</event>
<event>
 5    1  0.1106231E-008  0.4118265E+03  0.7957747E-01  0.3323300E+00
         13   -1    0    0    0    0  0.00000000000E+00  0.00000000000E+00  0.14999999963E+04  0.15000000000E+04  0.10566000000E+00 0. -1.
        994   -1    0    0    0    0 -0.00000000000E+00 -0.00000000000E+00  0.11368683772E-12  0.17120000000E+03  0.17120000000E+03 0.  0.
         13    1    1    2    0    0  0.44180527620E+02 -0.20990133465E+02  0.22327914402E+02  0.53768500530E+02  0.10566000000E+00 0. -1.
        994    1    1    2    0    0 -0.33768980609E+02 -0.24825668767E+02  0.42306140951E+02  0.18126198565E+03  0.17120000000E+03 0.  0.
        998    1    1    2    0    0 -0.10411547011E+02  0.45815802232E+02  0.14353659409E+04  0.14361695138E+04  0.10000000000E+02 0. -1.
</event>
<event>
 5    1  0.1106231E-008  0.3733597E+03  0.7957747E-01  0.3480591E+00
         13   -1    0    0    0    0  0.00000000000E+00  0.00000000000E+00  0.14999999963E+04  0.15000000000E+04  0.10566000000E+00 0.  1.
        994   -1    0    0    0    0 -0.00000000000E+00 -0.00000000000E+00  0.11368683772E-12  0.17120000000E+03  0.17120000000E+03 0.  0.
         13    1    1    2    0    0 -0.71040920815E+02 -0.20720095991E+02  0.22675918238E+03  0.23852855755E+03  0.10566000000E+00 0.  1.
        994    1    1    2    0    0  0.25006940096E+02  0.21698163282E+02  0.16614127313E+02  0.17516171548E+03  0.17120000000E+03 0.  0.
        998    1    1    2    0    0  0.46033980718E+02 -0.97806729154E+00  0.12566266866E+04  0.12575097270E+04  0.10000000000E+02 0.  1.
</event>
<event>
 5    1  0.1106231E-008  0.3703495E+03  0.7957747E-01  0.3494286E+00
         13   -1    0    0    0    0  0.00000000000E+00  0.00000000000E+00  0.14999999963E+04  0.15000000000E+04  0.10566000000E+00 0. -1.
        994   -1    0    0    0    0 -0.00000000000E+00 -0.00000000000E+00  0.11368683772E-12  0.17120000000E+03  0.17120000000E+03 0.  0.
         13    1    1    2    0    0 -0.68160619621E+02 -0.14066234884E+03  0.74477946246E+03  0.76100474723E+03  0.10566000000E+00 0. -1.
        994    1    1    2    0    0  0.50740979654E+02  0.13458671539E+03  0.84328056839E+02  0.23897466842E+03  0.17120000000E+03 0.  0.
        998    1    1    2    0    0  0.17419639967E+02  0.60756334428E+01  0.67089247698E+03  0.67122058435E+03  0.10000000000E+02 0.  1.
</event>
<event>
 5    1  0.1106231E-008  0.3733794E+03  0.7957747E-01  0.3480503E+00
         13   -1    0    0    0    0  0.00000000000E+00  0.00000000000E+00  0.14999999963E+04  0.15000000000E+04  0.10566000000E+00 0.  1.
        994   -1    0    0    0    0 -0.00000000000E+00 -0.00000000000E+00  0.11368683772E-12  0.17120000000E+03  0.17120000000E+03 0.  0.
         13    1    1    2    0    0 -0.38483342641E+02 -0.16395708334E+01  0.94189131446E+02  0.10176079550E+03  0.10566000000E+00 0.  1.
        994    1    1    2    0    0  0.28606937564E+02  0.69239588983E+01  0.10479941737E+02  0.17402748996E+03  0.17120000000E+03 0.  0.
        998    1    1    2    0    0  0.98764050774E+01 -0.52843880649E+01  0.13953309231E+04  0.13954117145E+04  0.10000000000E+02 0.  1.
</event>
<event>
 5    1  0.1106231E-008  0.3854382E+03  0.7957747E-01  0.3427816E+00
         13   -1    0    0    0    0  0.00000000000E+00  0.00000000000E+00  0.14999999963E+04  0.15000000000E+04  0.10566000000E+00 0.  1.
        994   -1    0    0    0    0 -0.00000000000E+00 -0.00000000000E+00  0.11368683772E-12  0.17120000000E+03  0.17120000000E+03 0.  0.
         13    1    1    2    0    0 -0.43213088883E+01 -0.17918859971E+02  0.10065194939E+03  0.10232587812E+03  0.10566000000E+00 0.  1.
        994    1    1    2    0    0 -0.15352225406E+01  0.35516174901E+02  0.55739279109E+01  0.17494074500E+03  0.17120000000E+03 0.  0.
        998    1    1    2    0    0  0.58565314289E+01 -0.17597314930E+02  0.13937741190E+04  0.13939333769E+04  0.10000000000E+02 0.  1.
</event>
<event>
 5    1  0.1106231E-008  0.3783718E+03  0.7957747E-01  0.3458279E+00
         13   -1    0    0    0    0  0.00000000000E+00  0.00000000000E+00  0.14999999963E+04  0.15000000000E+04  0.10566000000E+00 0. -1.
        994   -1    0    0    0    0 -0.00000000000E+00 -0.00000000000E+00  0.11368683772E-12  0.17120000000E+03  0.17120000000E+03 0.  0.
         13    1    1    2    0    0  0.40842923632E+02 -0.39574039502E+01  0.19081871606E+03  0.19518093918E+03  0.10566000000E+00 0. -1.
        994    1    1    2    0    0 -0.41748414863E+01  0.11888034246E+02  0.54910625185E+01  0.17175082657E+03  0.17120000000E+03 0.  0.
        998    1    1    2    0    0 -0.36668082146E+02 -0.79306302959E+01  0.13036902177E+04  0.13042682343E+04  0.10000000000E+02 0. -1.
</event>
<event>
 5    1  0.1106231E-008  0.3458206E+03  0.7957747E-01  0.3614973E+00
         13   -1    0    0    0    0  0.00000000000E+00  0.00000000000E+00  0.14999999963E+04  0.15000000000E+04  0.10566000000E+00 0. -1.
        994   -1    0    0    0    0 -0.00000000000E+00 -0.00000000000E+00  0.11368683772E-12  0.17120000000E+03  0.17120000000E+03 0.  0.
         13    1    1    2    0    0  0.25604530931E+03  0.17646751570E+03  0.61434738743E+03  0.68856568904E+03  0.10566000000E+00 0. -1.
        994    1    1    2    0    0 -0.20511242513E+03 -0.20472623821E+03  0.57384593393E+03  0.66527628505E+03  0.17120000000E+03 0.  0.
        998    1    1    2    0    0 -0.50932884176E+02  0.28258722515E+02  0.31180667492E+03  0.31735802591E+03  0.10000000000E+02 0.  1.
</event>
<event>
 5    1  0.1106231E-008  0.3781003E+03  0.7957747E-01  0.3459472E+00
         13   -1    0    0    0    0  0.00000000000E+00  0.00000000000E+00  0.14999999963E+04  0.15000000000E+04  0.10566000000E+00 0.  1.
        994   -1    0    0    0    0 -0.00000000000E+00 -0.00000000000E+00  0.11368683772E-12  0.17120000000E+03  0.17120000000E+03 0.  0.
         13    1    1    2    0    0 -0.14385044003E+02  0.22215490990E+00  0.17853686869E+02  0.22929111248E+02  0.10566000000E+00 0.  1.
        994    1    1    2    0    0  0.16215974953E+02 -0.23354442349E+01  0.59986509420E+01  0.17208671058E+03  0.17120000000E+03 0.  0.
        998    1    1    2    0    0 -0.18309309503E+01  0.21132893250E+01  0.14761476585E+04  0.14761841782E+04  0.10000000000E+02 0.  1.
</event>
<event>
 5    1  0.1106231E-008  0.3844321E+03  0.7957747E-01  0.3432084E+00
         13   -1    0    0    0    0  0.00000000000E+00  0.00000000000E+00  0.14999999963E+04  0.15000000000E+04  0.10566000000E+00 0.  1.
        994   -1    0    0    0    0 -0.00000000000E+00 -0.00000000000E+00  0.11368683772E-12  0.17120000000E+03  0.17120000000E+03 0.  0.
         13    1    1    2    0    0  0.47575706572E+02  0.31941782326E+02  0.78811838013E+02  0.97442507608E+02  0.10566000000E+00 0.  1.
        994    1    1    2    0    0 -0.40084467779E+02 -0.29169789194E+02  0.27891881015E+02  0.18040243398E+03  0.17120000000E+03 0.  0.
        998    1    1    2    0    0 -0.74912387931E+01 -0.27719931322E+01  0.13932962773E+04  0.13933550584E+04  0.10000000000E+02 0.  1.
</event>
<event>
 5    1  0.1106231E-008  0.3794352E+03  0.7957747E-01  0.3453622E+00
         13   -1    0    0    0    0  0.00000000000E+00  0.00000000000E+00  0.14999999963E+04  0.15000000000E+04  0.10566000000E+00 0.  1.
        994   -1    0    0    0    0 -0.00000000000E+00 -0.00000000000E+00  0.11368683772E-12  0.17120000000E+03  0.17120000000E+03 0.  0.
         13    1    1    2    0    0  0.11830216439E+02 -0.22053159895E+02  0.65849525473E+02  0.70444780158E+02  0.10566000000E+00 0.  1.
        994    1    1    2    0    0 -0.15145647014E+02  0.23811017712E+02  0.70902436591E+01  0.17365502222E+03  0.17120000000E+03 0.  0.
        998    1    1    2    0    0  0.33154305745E+01 -0.17578578175E+01  0.14270602271E+04  0.14271001976E+04  0.10000000000E+02 0.  1.
</event>
<event>
 5    1  0.1106231E-008  0.3824265E+03  0.7957747E-01  0.3440660E+00
         13   -1    0    0    0    0  0.00000000000E+00  0.00000000000E+00  0.14999999963E+04  0.15000000000E+04  0.10566000000E+00 0. -1.
        994   -1    0    0    0    0 -0.00000000000E+00 -0.00000000000E+00  0.11368683772E-12  0.17120000000E+03  0.17120000000E+03 0.  0.
         13    1    1    2    0    0 -0.16970209958E+02 -0.16163601780E+02  0.88256237736E+02  0.91314975288E+02  0.10566000000E+00 0. -1.
        994    1    1    2    0    0  0.11532126542E+02  0.23717592690E+02  0.52231915290E+01  0.17329811273E+03  0.17120000000E+03 0.  0.
        998    1    1    2    0    0  0.54380834163E+01 -0.75539909097E+01  0.14065205670E+04  0.14065869120E+04  0.10000000000E+02 0. -1.
</event>
<event>
 5    1  0.1106231E-008  0.3833790E+03  0.7957747E-01  0.3436576E+00
         13   -1    0    0    0    0  0.00000000000E+00  0.00000000000E+00  0.14999999963E+04  0.15000000000E+04  0.10566000000E+00 0.  1.
        994   -1    0    0    0    0 -0.00000000000E+00 -0.00000000000E+00  0.11368683772E-12  0.17120000000E+03  0.17120000000E+03 0.  0.
         13    1    1    2    0    0 -0.12331714381E+02 -0.14452224934E+02  0.74688833116E+02  0.77067314352E+02  0.10566000000E+00 0.  1.
        994    1    1    2    0    0  0.13441326683E+02  0.64526242625E+00  0.30359696919E+01  0.17175489145E+03  0.17120000000E+03 0.  0.
        998    1    1    2    0    0 -0.11096123021E+01  0.13806962508E+02  0.14222751935E+04  0.14223777942E+04  0.10000000000E+02 0.  1.
</event>
<event>
 5    1  0.1106231E-008  0.3726435E+03  0.7957747E-01  0.3483829E+00
         13   -1    0    0    0    0  0.00000000000E+00  0.00000000000E+00  0.14999999963E+04  0.15000000000E+04  0.10566000000E+00 0.  1.
        994   -1    0    0    0    0 -0.00000000000E+00 -0.00000000000E+00  0.11368683772E-12  0.17120000000E+03  0.17120000000E+03 0.  0.
         13    1    1    2    0    0 -0.57179658323E+02  0.21532760227E+02  0.28953613648E+03  0.29591275502E+03  0.10566000000E+00 0.  1.
        994    1    1    2    0    0  0.96720405348E+01  0.10515860940E+02  0.85935789641E+01  0.17200994535E+03  0.17120000000E+03 0.  0.
        998    1    1    2    0    0  0.47507617788E+02 -0.32048621166E+02  0.12018702808E+04  0.12032772996E+04  0.10000000000E+02 0.  1.
</event>
<event>
 5    1  0.1106231E-008  0.3854949E+03  0.7957747E-01  0.3427576E+00
         13   -1    0    0    0    0  0.00000000000E+00  0.00000000000E+00  0.14999999963E+04  0.15000000000E+04  0.10566000000E+00 0. -1.
        994   -1    0    0    0    0 -0.00000000000E+00 -0.00000000000E+00  0.11368683772E-12  0.17120000000E+03  0.17120000000E+03 0.  0.
         13    1    1    2    0    0  0.23894067684E+01 -0.17547631345E+02  0.10406535680E+03  0.10556153789E+03  0.10566000000E+00 0. -1.
        994    1    1    2    0    0  0.13045534263E+02  0.24191396441E+02  0.38688535865E+01  0.17343534142E+03  0.17120000000E+03 0.  0.
        998    1    1    2    0    0 -0.15434941031E+02 -0.66437650954E+01  0.13920657859E+04  0.13922031207E+04  0.10000000000E+02 0. -1.
</event>
<event>
 5    1  0.1106231E-008  0.3741690E+03  0.7957747E-01  0.3476947E+00
         13   -1    0    0    0    0  0.00000000000E+00  0.00000000000E+00  0.14999999963E+04  0.15000000000E+04  0.10566000000E+00 0.  1.
        994   -1    0    0    0    0 -0.00000000000E+00 -0.00000000000E+00  0.11368683772E-12  0.17120000000E+03  0.17120000000E+03 0.  0.
         13    1    1    2    0    0 -0.25394120482E+02 -0.10437117241E+03  0.62000303174E+03  0.62923920215E+03  0.10566000000E+00 0.  1.
        994    1    1    2    0    0 -0.16590925364E+02  0.96493913315E+02  0.40521799708E+02  0.20133998699E+03  0.17120000000E+03 0.  0.
        998    1    1    2    0    0  0.41985045846E+02  0.78772590911E+01  0.83947516483E+03  0.84062081086E+03  0.10000000000E+02 0.  1.
</event>
<event>
 5    1  0.1106231E-008  0.3857282E+03  0.7957747E-01  0.3426590E+00
         13   -1    0    0    0    0  0.00000000000E+00  0.00000000000E+00  0.14999999963E+04  0.15000000000E+04  0.10566000000E+00 0. -1.
        994   -1    0    0    0    0 -0.00000000000E+00 -0.00000000000E+00  0.11368683772E-12  0.17120000000E+03  0.17120000000E+03 0.  0.
         13    1    1    2    0    0 -0.70484563986E+01  0.10334496620E+02  0.61215610139E+02  0.62480754211E+02  0.10566000000E+00 0. -1.
        994    1    1    2    0    0  0.46854610802E+01 -0.95109474410E+01  0.16379206421E+01  0.17153581099E+03  0.17120000000E+03 0.  0.
        998    1    1    2    0    0  0.23629953184E+01 -0.82354917862E+00  0.14371464655E+04  0.14371834348E+04  0.10000000000E+02 0. -1.
</event>
<event>
 5    1  0.1106231E-008  0.2335819E+03  0.7957747E-01  0.4524935E+00
         13   -1    0    0    0    0  0.00000000000E+00  0.00000000000E+00  0.14999999963E+04  0.15000000000E+04  0.10566000000E+00 0.  1.
        994   -1    0    0    0    0 -0.00000000000E+00 -0.00000000000E+00  0.11368683772E-12  0.17120000000E+03  0.17120000000E+03 0.  0.
         13    1    1    2    0    0 -0.76925556483E+02 -0.14995639278E+03  0.50797726856E+03  0.53520592067E+03  0.10566000000E+00 0.  1.
        994    1    1    2    0    0 -0.12906330149E+03  0.49952484666E+02  0.15779320890E+03  0.27085184749E+03  0.17120000000E+03 0.  0.
        998    1    1    2    0    0  0.20598885797E+03  0.10000390812E+03  0.83422951882E+03  0.86514223184E+03  0.10000000000E+02 0.  1.
</event>
<event>
 5    1  0.1106231E-008  0.3757886E+03  0.7957747E-01  0.3469703E+00
         13   -1    0    0    0    0  0.00000000000E+00  0.00000000000E+00  0.14999999963E+04  0.15000000000E+04  0.10566000000E+00 0. -1.
        994   -1    0    0    0    0 -0.00000000000E+00 -0.00000000000E+00  0.11368683772E-12  0.17120000000E+03  0.17120000000E+03 0.  0.
         13    1    1    2    0    0 -0.27710212595E+02  0.23953223051E+02  0.99810733349E+02  0.10631936057E+03  0.10566000000E+00 0. -1.
        994    1    1    2    0    0  0.65809435039E+02  0.22680700190E+02  0.22881842771E+02  0.18622114442E+03  0.17120000000E+03 0.  0.
        998    1    1    2    0    0 -0.38099222443E+02 -0.46633923241E+02  0.13773074202E+04  0.13786594950E+04  0.10000000000E+02 0. -1.
</event>
<event>
 5    1  0.1106231E-008  0.3756759E+03  0.7957747E-01  0.3470206E+00
         13   -1    0    0    0    0  0.00000000000E+00  0.00000000000E+00  0.14999999963E+04  0.15000000000E+04  0.10566000000E+00 0. -1.
        994   -1    0    0    0    0 -0.00000000000E+00 -0.00000000000E+00  0.11368683772E-12  0.17120000000E+03  0.17120000000E+03 0.  0.
         13    1    1    2    0    0 -0.44706898310E+02  0.18332913206E+02  0.20448228467E+03  0.21011382242E+03  0.10566000000E+00 0. -1.
        994    1    1    2    0    0  0.85632080837E+01 -0.47645271669E+01  0.66578200934E+01  0.17160942812E+03  0.17120000000E+03 0.  0.
        998    1    1    2    0    0  0.36143690226E+02 -0.13568386039E+02  0.12888598915E+04  0.12894767495E+04  0.10000000000E+02 0. -1.
</event>
<event>
 5    1  0.1106231E-008  0.3848242E+03  0.7957747E-01  0.3430418E+00
         13   -1    0    0    0    0  0.00000000000E+00  0.00000000000E+00  0.14999999963E+04  0.15000000000E+04  0.10566000000E+00 0. -1.
        994   -1    0    0    0    0 -0.00000000000E+00 -0.00000000000E+00  0.11368683772E-12  0.17120000000E+03  0.17120000000E+03 0.  0.
         13    1    1    2    0    0  0.11211405809E+01  0.14460761711E+02  0.63198798476E+02  0.64841883673E+02  0.10566000000E+00 0. -1.
        994    1    1    2    0    0  0.98217252441E+01 -0.51092184621E+01  0.21208484633E+01  0.17157070962E+03  0.17120000000E+03 0.  0.
        998    1    1    2    0    0 -0.10942865825E+02 -0.93515432491E+01  0.14346803493E+04  0.14347874067E+04  0.10000000000E+02 0. -1.
</event>
<event>
 5    1  0.1106231E-008  0.3806830E+03  0.7957747E-01  0.3448190E+00
         13   -1    0    0    0    0  0.00000000000E+00  0.00000000000E+00  0.14999999963E+04  0.15000000000E+04  0.10566000000E+00 0. -1.
        994   -1    0    0    0    0 -0.00000000000E+00 -0.00000000000E+00  0.11368683772E-12  0.17120000000E+03  0.17120000000E+03 0.  0.
         13    1    1    2    0    0  0.82328143530E+01 -0.22085964656E+02  0.68493649568E+02  0.72435904510E+02  0.10566000000E+00 0. -1.
        994    1    1    2    0    0 -0.58295016764E+01  0.25664108134E+02  0.61023625828E+01  0.17331851709E+03  0.17120000000E+03 0.  0.
        998    1    1    2    0    0 -0.24033126767E+01 -0.35781434781E+01  0.14254039841E+04  0.14254455784E+04  0.10000000000E+02 0. -1.
</event>
<event>
 5    1  0.1106231E-008  0.3861751E+03  0.7957747E-01  0.3424704E+00
         13   -1    0    0    0    0  0.00000000000E+00  0.00000000000E+00  0.14999999963E+04  0.15000000000E+04  0.10566000000E+00 0.  1.
        994   -1    0    0    0    0 -0.00000000000E+00 -0.00000000000E+00  0.11368683772E-12  0.17120000000E+03  0.17120000000E+03 0.  0.
         13    1    1    2    0    0  0.11638571471E+02  0.43773246419E+01  0.74067623063E+02  0.75104202726E+02  0.10566000000E+00 0.  1.
        994    1    1    2    0    0 -0.73525281142E+01 -0.74645040955E+01  0.14075581612E+01  0.17152609047E+03  0.17120000000E+03 0.  0.
        998    1    1    2    0    0 -0.42860433563E+01  0.30871794536E+01  0.14245248151E+04  0.14245697068E+04  0.10000000000E+02 0.  1.
</event>
<event>
 5    1  0.1106231E-008  0.3759438E+03  0.7957747E-01  0.3469012E+00
         13   -1    0    0    0    0  0.00000000000E+00  0.00000000000E+00  0.14999999963E+04  0.15000000000E+04  0.10566000000E+00 0.  1.
        994   -1    0    0    0    0 -0.00000000000E+00 -0.00000000000E+00  0.11368683772E-12  0.17120000000E+03  0.17120000000E+03 0.  0.
         13    1    1    2    0    0  0.10382002326E+02 -0.41296148057E+02  0.13090332985E+03  0.13765482464E+03  0.10566000000E+00 0.  1.
        994    1    1    2    0    0 -0.11211509293E+02  0.43638279995E+02  0.13104484671E+02  0.17751384436E+03  0.17120000000E+03 0.  0.
        998    1    1    2    0    0  0.82950696735E+00 -0.23421319377E+01  0.13559921818E+04  0.13560313310E+04  0.10000000000E+02 0.  1.
</event>
<event>
 5    1  0.1106231E-008  0.3739608E+03  0.7957747E-01  0.3477883E+00
         13   -1    0    0    0    0  0.00000000000E+00  0.00000000000E+00  0.14999999963E+04  0.15000000000E+04  0.10566000000E+00 0. -1.
        994   -1    0    0    0    0 -0.00000000000E+00 -0.00000000000E+00  0.11368683772E-12  0.17120000000E+03  0.17120000000E+03 0.  0.
         13    1    1    2    0    0 -0.23834838233E+02 -0.13801143829E+02  0.53073724615E+02  0.59794669438E+02  0.10566000000E+00 0. -1.
        994    1    1    2    0    0  0.44118430550E+01 -0.12065012653E+02  0.77764775287E+01  0.17185733180E+03  0.17120000000E+03 0.  0.
        998    1    1    2    0    0  0.19422995178E+02  0.25866156482E+02  0.14391497941E+04  0.14395479988E+04  0.10000000000E+02 0. -1.
</event>
<event>
 5    1  0.1106231E-008  0.3800188E+03  0.7957747E-01  0.3451076E+00
         13   -1    0    0    0    0  0.00000000000E+00  0.00000000000E+00  0.14999999963E+04  0.15000000000E+04  0.10566000000E+00 0.  1.
        994   -1    0    0    0    0 -0.00000000000E+00 -0.00000000000E+00  0.11368683772E-12  0.17120000000E+03  0.17120000000E+03 0.  0.
         13    1    1    2    0    0  0.68391542735E+02  0.90941172951E+02  0.57774320681E+03  0.58884201976E+03  0.10566000000E+00 0.  1.
        994    1    1    2    0    0 -0.58676770209E+02 -0.14541758780E+03  0.91248509333E+02  0.24944933085E+03  0.17120000000E+03 0.  0.
        998    1    1    2    0    0 -0.97147725263E+01  0.54476414852E+02  0.83100828014E+03  0.83290864940E+03  0.10000000000E+02 0.  1.
</event>
<event>
 5    1  0.1106231E-008  0.3830636E+03  0.7957747E-01  0.3437927E+00
         13   -1    0    0    0    0  0.00000000000E+00  0.00000000000E+00  0.14999999963E+04  0.15000000000E+04  0.10566000000E+00 0. -1.
        994   -1    0    0    0    0 -0.00000000000E+00 -0.00000000000E+00  0.11368683772E-12  0.17120000000E+03  0.17120000000E+03 0.  0.
         13    1    1    2    0    0 -0.11579527560E+03 -0.25223814983E+03  0.93832814591E+03  0.97851538090E+03  0.10566000000E+00 0. -1.
        994    1    1    2    0    0  0.13142645006E+03  0.26359919798E+03  0.38261066483E+03  0.51230636322E+03  0.17120000000E+03 0.  0.
        998    1    1    2    0    0 -0.15631174459E+02 -0.11361048156E+02  0.17906118553E+03  0.18037825588E+03  0.10000000000E+02 0. -1.
</event>
<event>
 5    1  0.1106231E-008  0.3713729E+03  0.7957747E-01  0.3489605E+00
         13   -1    0    0    0    0  0.00000000000E+00  0.00000000000E+00  0.14999999963E+04  0.15000000000E+04  0.10566000000E+00 0.  1.
        994   -1    0    0    0    0 -0.00000000000E+00 -0.00000000000E+00  0.11368683772E-12  0.17120000000E+03  0.17120000000E+03 0.  0.
         13    1    1    2    0    0 -0.60768657720E+02 -0.61309169271E+01  0.22006605930E+03  0.22838454309E+03  0.10566000000E+00 0.  1.
        994    1    1    2    0    0  0.31519586109E+02  0.41386445766E+01  0.12039030324E+02  0.17454223254E+03  0.17120000000E+03 0.  0.
        998    1    1    2    0    0  0.29249071612E+02  0.19922723504E+01  0.12678949067E+04  0.12682732244E+04  0.10000000000E+02 0.  1.
</event>
<event>
 5    1  0.1106231E-008  0.3794206E+03  0.7957747E-01  0.3453685E+00
         13   -1    0    0    0    0  0.00000000000E+00  0.00000000000E+00  0.14999999963E+04  0.15000000000E+04  0.10566000000E+00 0. -1.
        994   -1    0    0    0    0 -0.00000000000E+00 -0.00000000000E+00  0.11368683772E-12  0.17120000000E+03  0.17120000000E+03 0.  0.
         13    1    1    2    0    0  0.31936393661E+02 -0.31329543743E+02  0.24867024565E+03  0.25266257299E+03  0.10566000000E+00 0. -1.
        994    1    1    2    0    0  0.12751158949E+02  0.34773309128E+02  0.90341612011E+01  0.17539336119E+03  0.17120000000E+03 0.  0.
        998    1    1    2    0    0 -0.44687552610E+02 -0.34437653848E+01  0.12422955894E+04  0.12431440658E+04  0.10000000000E+02 0. -1.
</event>
<event>
 5    1  0.1106231E-008  0.3850761E+03  0.7957747E-01  0.3429350E+00
         13   -1    0    0    0    0  0.00000000000E+00  0.00000000000E+00  0.14999999963E+04  0.15000000000E+04  0.10566000000E+00 0. -1.
        994   -1    0    0    0    0 -0.00000000000E+00 -0.00000000000E+00  0.11368683772E-12  0.17120000000E+03  0.17120000000E+03 0.  0.
         13    1    1    2    0    0  0.10598878657E+02  0.10687816918E+00  0.34736674203E+02  0.36317975583E+02  0.10566000000E+00 0. -1.
        994    1    1    2    0    0 -0.95380237410E+01 -0.48074191436E+01  0.19675538547E+01  0.17154415304E+03  0.17120000000E+03 0.  0.
        998    1    1    2    0    0 -0.10608549160E+01  0.47005409745E+01  0.14632957682E+04  0.14633378714E+04  0.10000000000E+02 0. -1.
</event>
<event>
 5    1  0.1106231E-008  0.3800070E+03  0.7957747E-01  0.3451128E+00
         13   -1    0    0    0    0  0.00000000000E+00  0.00000000000E+00  0.14999999963E+04  0.15000000000E+04  0.10566000000E+00 0.  1.
        994   -1    0    0    0    0 -0.00000000000E+00 -0.00000000000E+00  0.11368683772E-12  0.17120000000E+03  0.17120000000E+03 0.  0.
         13    1    1    2    0    0  0.26157658514E+02  0.88201120851E+01  0.10535713523E+03  0.10891351883E+03  0.10566000000E+00 0.  1.
        994    1    1    2    0    0  0.13290611078E+02 -0.63710569920E+01  0.48561126145E+01  0.17190186892E+03  0.17120000000E+03 0.  0.
        998    1    1    2    0    0 -0.39448269592E+02 -0.24490550931E+01  0.13897867484E+04  0.13903846122E+04  0.10000000000E+02 0.  1.
</event>
<event>
 5    1  0.1106231E-008  0.4025943E+03  0.7957747E-01  0.3358316E+00
         13   -1    0    0    0    0  0.00000000000E+00  0.00000000000E+00  0.14999999963E+04  0.15000000000E+04  0.10566000000E+00 0.  1.
        994   -1    0    0    0    0 -0.00000000000E+00 -0.00000000000E+00  0.11368683772E-12  0.17120000000E+03  0.17120000000E+03 0.  0.
         13    1    1    2    0    0  0.56075818974E+02 -0.63772505128E+02  0.12897548700E+03  0.15442188088E+03  0.10566000000E+00 0.  1.
        994    1    1    2    0    0 -0.15166505076E+02  0.14276217280E+02  0.31058047079E+02  0.17523662729E+03  0.17120000000E+03 0.  0.
        998    1    1    2    0    0 -0.40909313898E+02  0.49496287848E+02  0.13399664622E+04  0.13415414918E+04  0.10000000000E+02 0.  0.
</event>
<event>
 5    1  0.1106231E-008  0.3816889E+03  0.7957747E-01  0.3443838E+00
         13   -1    0    0    0    0  0.00000000000E+00  0.00000000000E+00  0.14999999963E+04  0.15000000000E+04  0.10566000000E+00 0. -1.
        994   -1    0    0    0    0 -0.00000000000E+00 -0.00000000000E+00  0.11368683772E-12  0.17120000000E+03  0.17120000000E+03 0.  0.
         13    1    1    2    0    0 -0.19001177652E+02 -0.15632592708E+02  0.14704189210E+03  0.14908639074E+03  0.10566000000E+00 0. -1.
        994    1    1    2    0    0 -0.43362800637E+02 -0.22273063593E+02  0.11223745991E+02  0.17835872369E+03  0.17120000000E+03 0.  0.
        998    1    1    2    0    0  0.62363978289E+02  0.37905656302E+02  0.13417343582E+04  0.13437548856E+04  0.10000000000E+02 0. -1.
</event>
<event>
 5    1  0.1106231E-008  0.3792285E+03  0.7957747E-01  0.3454525E+00
         13   -1    0    0    0    0  0.00000000000E+00  0.00000000000E+00  0.14999999963E+04  0.15000000000E+04  0.10566000000E+00 0. -1.
        994   -1    0    0    0    0 -0.00000000000E+00 -0.00000000000E+00  0.11368683772E-12  0.17120000000E+03  0.17120000000E+03 0.  0.
         13    1    1    2    0    0 -0.31846954364E+02 -0.20190745755E+02  0.17844875040E+03  0.18238931547E+03  0.10566000000E+00 0. -1.
        994    1    1    2    0    0  0.81603187471E+01 -0.89328262626E+01  0.50138394409E+01  0.17170021774E+03  0.17120000000E+03 0.  0.
        998    1    1    2    0    0  0.23686635617E+02  0.29123572018E+02  0.13165374064E+04  0.13171104668E+04  0.10000000000E+02 0. -1.
</event>
<event>
 5    1  0.1106231E-008  0.4188461E+03  0.7957747E-01  0.3297696E+00
         13   -1    0    0    0    0  0.00000000000E+00  0.00000000000E+00  0.14999999963E+04  0.15000000000E+04  0.10566000000E+00 0. -1.
        994   -1    0    0    0    0 -0.00000000000E+00 -0.00000000000E+00  0.11368683772E-12  0.17120000000E+03  0.17120000000E+03 0.  0.
         13    1    1    2    0    0 -0.52053506319E+02  0.79654362886E+02  0.10071018884E+03  0.13855301638E+03  0.10566000000E+00 0. -1.
        994    1    1    2    0    0  0.43948312764E+02 -0.67812533207E+02  0.67868557001E+02  0.20111085223E+03  0.17120000000E+03 0.  0.
        998    1    1    2    0    0  0.81051935549E+01 -0.11841829680E+02  0.13314212504E+04  0.13315361314E+04  0.10000000000E+02 0. -1.
</event>
<event>
 5    1  0.1106231E-008  0.3827509E+03  0.7957747E-01  0.3439267E+00
         13   -1    0    0    0    0  0.00000000000E+00  0.00000000000E+00  0.14999999963E+04  0.15000000000E+04  0.10566000000E+00 0.  1.
        994   -1    0    0    0    0 -0.00000000000E+00 -0.00000000000E+00  0.11368683772E-12  0.17120000000E+03  0.17120000000E+03 0.  0.
         13    1    1    2    0    0 -0.15554830094E+02  0.11325422709E+02  0.70721742721E+02  0.73292523468E+02  0.10566000000E+00 0.  1.
        994    1    1    2    0    0 -0.64019559651E+01 -0.98453879808E+01  0.32079259889E+01  0.17163230318E+03  0.17120000000E+03 0.  0.
        998    1    1    2    0    0  0.21956786059E+02 -0.14800347277E+01  0.14260703276E+04  0.14262751734E+04  0.10000000000E+02 0.  1.
</event>
<event>
 5    1  0.1106231E-008  0.3806142E+03  0.7957747E-01  0.3448489E+00
         13   -1    0    0    0    0  0.00000000000E+00  0.00000000000E+00  0.14999999963E+04  0.15000000000E+04  0.10566000000E+00 0.  1.
        994   -1    0    0    0    0 -0.00000000000E+00 -0.00000000000E+00  0.11368683772E-12  0.17120000000E+03  0.17120000000E+03 0.  0.
         13    1    1    2    0    0  0.42779828170E+00 -0.18745973768E+02  0.46145435712E+02  0.49809707337E+02  0.10566000000E+00 0.  1.
        994    1    1    2    0    0 -0.60732732534E+01  0.29082069097E+01  0.39747124741E+01  0.17137847197E+03  0.17120000000E+03 0.  0.
        998    1    1    2    0    0  0.56454749717E+01  0.15837766858E+02  0.14498798481E+04  0.14500118207E+04  0.10000000000E+02 0.  1.
</event>
<event>
 5    1  0.1106231E-008  0.3742349E+03  0.7957747E-01  0.3476652E+00
         13   -1    0    0    0    0  0.00000000000E+00  0.00000000000E+00  0.14999999963E+04  0.15000000000E+04  0.10566000000E+00 0.  1.
        994   -1    0    0    0    0 -0.00000000000E+00 -0.00000000000E+00  0.11368683772E-12  0.17120000000E+03  0.17120000000E+03 0.  0.
         13    1    1    2    0    0 -0.35697131803E+01 -0.24787732374E+02  0.43450874253E+02  0.50151412401E+02  0.10566000000E+00 0.  1.
        994    1    1    2    0    0  0.81849211896E+01  0.28196681279E+00  0.73007474179E+01  0.17155119747E+03  0.17120000000E+03 0.  0.
        998    1    1    2    0    0 -0.46152080093E+01  0.24505765561E+02  0.14492483746E+04  0.14494973901E+04  0.10000000000E+02 0.  1.
</event>
<event>
 5    1  0.1423876E-008  0.3861924E+03  0.7957747E-01  0.3424631E+00
         13   -1    0    0    0    0  0.00000000000E+00  0.00000000000E+00  0.14999999963E+04  0.15000000000E+04  0.10566000000E+00 0.  1.
        994   -1    0    0    0    0 -0.00000000000E+00 -0.00000000000E+00  0.11368683772E-12  0.17120000000E+03  0.17120000000E+03 0.  0.
         13    1    1    2    0    0  0.10295599319E+01  0.10644253297E+02  0.55138388007E+02  0.56165942687E+02  0.10566000000E+00 0.  1.
        994    1    1    2    0    0 -0.15163579234E+01 -0.88783173012E+01  0.13050803261E+01  0.17144173090E+03  0.17120000000E+03 0.  0.
        998    1    1    2    0    0  0.48679799156E+00 -0.17659359962E+01  0.14435565279E+04  0.14435923264E+04  0.10000000000E+02 0.  1.
</event>
<event>
 5    1  0.1106231E-008  0.3766927E+03  0.7957747E-01  0.3465687E+00
         13   -1    0    0    0    0  0.00000000000E+00  0.00000000000E+00  0.14999999963E+04  0.15000000000E+04  0.10566000000E+00 0.  1.
        994   -1    0    0    0    0 -0.00000000000E+00 -0.00000000000E+00  0.11368683772E-12  0.17120000000E+03  0.17120000000E+03 0.  0.
         13    1    1    2    0    0 -0.11608661842E+02  0.17542328355E+03  0.78456650073E+03  0.80402281975E+03  0.10566000000E+00 0.  1.
        994    1    1    2    0    0  0.24322278104E+02 -0.19153159098E+03  0.14441847174E+03  0.29570603399E+03  0.17120000000E+03 0.  0.
        998    1    1    2    0    0 -0.12713616263E+02  0.16108307427E+02  0.57101502380E+03  0.57147114627E+03  0.10000000000E+02 0. -1.
</event>
<event>
 5    1  0.1106231E-008  0.3855767E+03  0.7957747E-01  0.3427230E+00
         13   -1    0    0    0    0  0.00000000000E+00  0.00000000000E+00  0.14999999963E+04  0.15000000000E+04  0.10566000000E+00 0. -1.
        994   -1    0    0    0    0 -0.00000000000E+00 -0.00000000000E+00  0.11368683772E-12  0.17120000000E+03  0.17120000000E+03 0.  0.
         13    1    1    2    0    0 -0.33316542821E+01  0.12212468199E+02  0.59552242682E+02  0.60882879960E+02  0.10566000000E+00 0. -1.
        994    1    1    2    0    0  0.78207575164E+00 -0.96031203098E+01  0.16488425044E+01  0.17147883322E+03  0.17120000000E+03 0.  0.
        998    1    1    2    0    0  0.25495785305E+01 -0.26093478897E+01  0.14387989111E+04  0.14388382868E+04  0.10000000000E+02 0. -1.
</event>
<event>
 5    1  0.1106231E-008  0.3849375E+03  0.7957747E-01  0.3429937E+00
         13   -1    0    0    0    0  0.00000000000E+00  0.00000000000E+00  0.14999999963E+04  0.15000000000E+04  0.10566000000E+00 0.  1.
        994   -1    0    0    0    0 -0.00000000000E+00 -0.00000000000E+00  0.11368683772E-12  0.17120000000E+03  0.17120000000E+03 0.  0.
         13    1    1    2    0    0  0.13508139826E+02  0.97521039755E+01  0.85855850613E+02  0.87457484654E+02  0.10566000000E+00 0.  1.
        994    1    1    2    0    0 -0.36838088594E+01 -0.69498140304E+01  0.18647285398E+01  0.17139074530E+03  0.17120000000E+03 0.  0.
        998    1    1    2    0    0 -0.98243309661E+01 -0.28022899451E+01  0.14122794171E+04  0.14123517700E+04  0.10000000000E+02 0.  1.
</event>
<event>
 5    1  0.1106231E-008  0.3803805E+03  0.7957747E-01  0.3449503E+00
         13   -1    0    0    0    0  0.00000000000E+00  0.00000000000E+00  0.14999999963E+04  0.15000000000E+04  0.10566000000E+00 0. -1.
        994   -1    0    0    0    0 -0.00000000000E+00 -0.00000000000E+00  0.11368683772E-12  0.17120000000E+03  0.17120000000E+03 0.  0.
         13    1    1    2    0    0 -0.39280921848E+02  0.33900690078E+02  0.29450353379E+03  0.29903944587E+03  0.10566000000E+00 0. -1.
        994    1    1    2    0    0  0.15661607171E+02 -0.53856563853E+02  0.14516542163E+02  0.18073733816E+03  0.17120000000E+03 0.  0.
        998    1    1    2    0    0  0.23619314677E+02  0.19955873776E+02  0.11909799203E+04  0.11914232160E+04  0.10000000000E+02 0. -1.
</event>
<event>
 5    1  0.1106231E-008  0.3056802E+03  0.7957747E-01  0.3856284E+00
         13   -1    0    0    0    0  0.00000000000E+00  0.00000000000E+00  0.14999999963E+04  0.15000000000E+04  0.10566000000E+00 0.  1.
        994   -1    0    0    0    0 -0.00000000000E+00 -0.00000000000E+00  0.11368683772E-12  0.17120000000E+03  0.17120000000E+03 0.  0.
         13    1    1    2    0    0  0.54402526736E+02 -0.16721035681E+03  0.74163218863E+03  0.76219239875E+03  0.10566000000E+00 0.  1.
        994    1    1    2    0    0 -0.23942226319E+02  0.14541412138E+03  0.95901429962E+02  0.24540786696E+03  0.17120000000E+03 0.  0.
        998    1    1    2    0    0 -0.30460300417E+02  0.21796235428E+02  0.66246637769E+03  0.66359973429E+03  0.10000000000E+02 0. -1.
</event>
<event>
 5    1  0.1106231E-008  0.3847382E+03  0.7957747E-01  0.3430783E+00
         13   -1    0    0    0    0  0.00000000000E+00  0.00000000000E+00  0.14999999963E+04  0.15000000000E+04  0.10566000000E+00 0. -1.
        994   -1    0    0    0    0 -0.00000000000E+00 -0.00000000000E+00  0.11368683772E-12  0.17120000000E+03  0.17120000000E+03 0.  0.
         13    1    1    2    0    0 -0.14993251050E+02 -0.79535792481E+01  0.81852169944E+02  0.83593336388E+02  0.10566000000E+00 0. -1.
        994    1    1    2    0    0  0.10269312281E+02  0.35971741982E+01  0.21499673054E+01  0.17155891349E+03  0.17120000000E+03 0.  0.
        998    1    1    2    0    0  0.47239387695E+01  0.43564050498E+01  0.14159978590E+04  0.14160477501E+04  0.10000000000E+02 0. -1.
</event>
<event>
 5    1  0.1106231E-008  0.3844545E+03  0.7957747E-01  0.3431989E+00
         13   -1    0    0    0    0  0.00000000000E+00  0.00000000000E+00  0.14999999963E+04  0.15000000000E+04  0.10566000000E+00 0. -1.
        994   -1    0    0    0    0 -0.00000000000E+00 -0.00000000000E+00  0.11368683772E-12  0.17120000000E+03  0.17120000000E+03 0.  0.
         13    1    1    2    0    0 -0.12153104214E+02 -0.36573868989E+01  0.42118370939E+02  0.43989120878E+02  0.10566000000E+00 0. -1.
        994    1    1    2    0    0  0.53526641701E+01  0.10298982060E+02  0.23451673102E+01  0.17160903197E+03  0.17120000000E+03 0.  0.
        998    1    1    2    0    0  0.68004400440E+01 -0.66415951609E+01  0.14555364580E+04  0.14556018471E+04  0.10000000000E+02 0. -1.
</event>
<event>
 5    1  0.1106231E-008  0.3705875E+03  0.7957747E-01  0.3493195E+00
         13   -1    0    0    0    0  0.00000000000E+00  0.00000000000E+00  0.14999999963E+04  0.15000000000E+04  0.10566000000E+00 0.  1.
        994   -1    0    0    0    0 -0.00000000000E+00 -0.00000000000E+00  0.11368683772E-12  0.17120000000E+03  0.17120000000E+03 0.  0.
         13    1    1    2    0    0 -0.21839372160E+02  0.13186930338E+01  0.23326912209E+02  0.31982075057E+02  0.10566000000E+00 0.  1.
        994    1    1    2    0    0  0.90519659986E+01  0.16431826050E+02  0.10177687059E+02  0.17252526861E+03  0.17120000000E+03 0.  0.
        998    1    1    2    0    0  0.12787406162E+02 -0.17750519084E+02  0.14664953970E+04  0.14666926563E+04  0.10000000000E+02 0.  1.
</event>
<event>
 5    1  0.1106231E-008  0.3797697E+03  0.7957747E-01  0.3452162E+00
         13   -1    0    0    0    0  0.00000000000E+00  0.00000000000E+00  0.14999999963E+04  0.15000000000E+04  0.10566000000E+00 0. -1.
        994   -1    0    0    0    0 -0.00000000000E+00 -0.00000000000E+00  0.11368683772E-12  0.17120000000E+03  0.17120000000E+03 0.  0.
         13    1    1    2    0    0 -0.12553594536E+01  0.37777267408E+02  0.15249089884E+03  0.15710564360E+03  0.10566000000E+00 0. -1.
        994    1    1    2    0    0  0.95452125895E+00 -0.36415859969E+02  0.87017396777E+01  0.17524892651E+03  0.17120000000E+03 0.  0.
        998    1    1    2    0    0  0.30083819466E+00 -0.13614074392E+01  0.13388073578E+04  0.13388454299E+04  0.10000000000E+02 0.  0.
</event>
<event>
 5    1  0.1106231E-008  0.3821215E+03  0.7957747E-01  0.3441973E+00
         13   -1    0    0    0    0  0.00000000000E+00  0.00000000000E+00  0.14999999963E+04  0.15000000000E+04  0.10566000000E+00 0.  1.
        994   -1    0    0    0    0 -0.00000000000E+00 -0.00000000000E+00  0.11368683772E-12  0.17120000000E+03  0.17120000000E+03 0.  0.
         13    1    1    2    0    0  0.89210724366E+01  0.71775168057E+01  0.19842347260E+02  0.22909216262E+02  0.10566000000E+00 0.  1.
        994    1    1    2    0    0 -0.77581137071E+01 -0.12208700698E+02  0.37609334323E+01  0.17185117201E+03  0.17120000000E+03 0.  0.
        998    1    1    2    0    0 -0.11629587296E+01  0.50311838925E+01  0.14763967156E+04  0.14764396117E+04  0.10000000000E+02 0.  1.
</event>
<event>
 5    1  0.1106231E-008  0.3782208E+03  0.7957747E-01  0.3458942E+00
         13   -1    0    0    0    0  0.00000000000E+00  0.00000000000E+00  0.14999999963E+04  0.15000000000E+04  0.10566000000E+00 0. -1.
        994   -1    0    0    0    0 -0.00000000000E+00 -0.00000000000E+00  0.11368683772E-12  0.17120000000E+03  0.17120000000E+03 0.  0.
         13    1    1    2    0    0  0.25123254185E+02  0.93014905212E+01  0.66929436942E+02  0.72091999002E+02  0.10566000000E+00 0. -1.
        994    1    1    2    0    0 -0.25551801398E+02 -0.65952141120E+01  0.73792833873E+01  0.17337902188E+03  0.17120000000E+03 0.  0.
        998    1    1    2    0    0  0.42854721287E+00 -0.27062764092E+01  0.14256912759E+04  0.14257289791E+04  0.10000000000E+02 0. -1.
</event>
<event>
 5    1  0.1106231E-008  0.3807950E+03  0.7957747E-01  0.3447704E+00
         13   -1    0    0    0    0  0.00000000000E+00  0.00000000000E+00  0.14999999963E+04  0.15000000000E+04  0.10566000000E+00 0. -1.
        994   -1    0    0    0    0 -0.00000000000E+00 -0.00000000000E+00  0.11368683772E-12  0.17120000000E+03  0.17120000000E+03 0.  0.
         13    1    1    2    0    0 -0.51215547350E+01 -0.17381337003E+02  0.42564089822E+02  0.46260718815E+02  0.10566000000E+00 0. -1.
        994    1    1    2    0    0  0.37111038204E+01  0.11669753202E+02  0.42325133525E+01  0.17168957336E+03  0.17120000000E+03 0.  0.
        998    1    1    2    0    0  0.14104509146E+01  0.57115838012E+01  0.14532033931E+04  0.14532497078E+04  0.10000000000E+02 0. -1.
</event>
<event>
 5    1  0.1106231E-008  0.3748155E+03  0.7957747E-01  0.3474048E+00
         13   -1    0    0    0    0  0.00000000000E+00  0.00000000000E+00  0.14999999963E+04  0.15000000000E+04  0.10566000000E+00 0. -1.
        994   -1    0    0    0    0 -0.00000000000E+00 -0.00000000000E+00  0.11368683772E-12  0.17120000000E+03  0.17120000000E+03 0.  0.
         13    1    1    2    0    0  0.41663701974E+02  0.78191716498E+01  0.12333108958E+03  0.13041308342E+03  0.10566000000E+00 0. -1.
        994    1    1    2    0    0 -0.38332609236E+02  0.14182075733E+01  0.11794652029E+02  0.17584070649E+03  0.17120000000E+03 0.  0.
        998    1    1    2    0    0 -0.33310927380E+01 -0.92373792230E+01  0.13648742547E+04  0.13649462101E+04  0.10000000000E+02 0. -1.
</event>
<event>
 5    1  0.1106231E-008  0.3725999E+03  0.7957747E-01  0.3484027E+00
         13   -1    0    0    0    0  0.00000000000E+00  0.00000000000E+00  0.14999999963E+04  0.15000000000E+04  0.10566000000E+00 0. -1.
        994   -1    0    0    0    0 -0.00000000000E+00 -0.00000000000E+00  0.11368683772E-12  0.17120000000E+03  0.17120000000E+03 0.  0.
         13    1    1    2    0    0 -0.67828788183E+01 -0.11370073076E+02  0.74257737067E+01  0.15180226810E+02  0.10566000000E+00 0. -1.
        994    1    1    2    0    0  0.68743895246E+01  0.10447117061E+02  0.84525772892E+01  0.17186414853E+03  0.17120000000E+03 0.  0.
        998    1    1    2    0    0 -0.91510706297E-01  0.92295601483E+00  0.14841216453E+04  0.14841556247E+04  0.10000000000E+02 0. -1.
</event>
<event>
 5    1  0.1106231E-008  0.3829567E+03  0.7957747E-01  0.3438385E+00
         13   -1    0    0    0    0  0.00000000000E+00  0.00000000000E+00  0.14999999963E+04  0.15000000000E+04  0.10566000000E+00 0. -1.
        994   -1    0    0    0    0 -0.00000000000E+00 -0.00000000000E+00  0.11368683772E-12  0.17120000000E+03  0.17120000000E+03 0.  0.
         13    1    1    2    0    0 -0.19358663912E+02  0.12160270334E+02  0.97132222128E+02  0.99786320619E+02  0.10566000000E+00 0. -1.
        994    1    1    2    0    0  0.15198783094E+02 -0.49915466028E+01  0.34957005351E+01  0.17198133174E+03  0.17120000000E+03 0.  0.
        998    1    1    2    0    0  0.41598808180E+01 -0.71687237310E+01  0.13993720736E+04  0.13994323476E+04  0.10000000000E+02 0. -1.
</event>
<event>
 5    1  0.1106231E-008  0.3551345E+03  0.7957747E-01  0.3567130E+00
         13   -1    0    0    0    0  0.00000000000E+00  0.00000000000E+00  0.14999999963E+04  0.15000000000E+04  0.10566000000E+00 0. -1.
        994   -1    0    0    0    0 -0.00000000000E+00 -0.00000000000E+00  0.11368683772E-12  0.17120000000E+03  0.17120000000E+03 0.  0.
         13    1    1    2    0    0  0.25147156215E+03 -0.64982681906E+02  0.92955432941E+03  0.96515903250E+03  0.10566000000E+00 0. -1.
        994    1    1    2    0    0 -0.24600489428E+03  0.73713878145E+02  0.28459008168E+03  0.41982508075E+03  0.17120000000E+03 0.  0.
        998    1    1    2    0    0 -0.54666678746E+01 -0.87311962396E+01  0.28585558519E+03  0.28621588675E+03  0.10000000000E+02 0.  0.
</event>
<event>
 5    1  0.1106231E-008  0.3747999E+03  0.7957747E-01  0.3474118E+00
         13   -1    0    0    0    0  0.00000000000E+00  0.00000000000E+00  0.14999999963E+04  0.15000000000E+04  0.10566000000E+00 0.  1.
        994   -1    0    0    0    0 -0.00000000000E+00 -0.00000000000E+00  0.11368683772E-12  0.17120000000E+03  0.17120000000E+03 0.  0.
         13    1    1    2    0    0 -0.48152818541E+02  0.19286828483E+02  0.18036972708E+03  0.18768038070E+03  0.10566000000E+00 0.  1.
        994    1    1    2    0    0  0.53759673721E+02  0.10386196145E+02  0.17048356672E+02  0.18054933413E+03  0.17120000000E+03 0.  0.
        998    1    1    2    0    0 -0.56068551798E+01 -0.29673024627E+02  0.13025819125E+04  0.13029702852E+04  0.10000000000E+02 0.  1.
</event>
<event>
 5    1  0.1106231E-008  0.3750568E+03  0.7957747E-01  0.3472969E+00
         13   -1    0    0    0    0  0.00000000000E+00  0.00000000000E+00  0.14999999963E+04  0.15000000000E+04  0.10566000000E+00 0. -1.
        994   -1    0    0    0    0 -0.00000000000E+00 -0.00000000000E+00  0.11368683772E-12  0.17120000000E+03  0.17120000000E+03 0.  0.
         13    1    1    2    0    0 -0.29484815190E+02 -0.68281836794E+02  0.44297383496E+03  0.44917434609E+03  0.10566000000E+00 0. -1.
        994    1    1    2    0    0  0.31898610578E+02  0.25900487268E+02  0.12409175615E+02  0.17649868055E+03  0.17120000000E+03 0.  0.
        998    1    1    2    0    0 -0.24137953875E+01  0.42381349527E+02  0.10446169857E+04  0.10455269734E+04  0.10000000000E+02 0. -1.
</event>
<event>
 5    1  0.1106231E-008  0.4534803E+03  0.7957747E-01  0.3182721E+00
         13   -1    0    0    0    0  0.00000000000E+00  0.00000000000E+00  0.14999999963E+04  0.15000000000E+04  0.10566000000E+00 0. -1.
        994   -1    0    0    0    0 -0.00000000000E+00 -0.00000000000E+00  0.11368683772E-12  0.17120000000E+03  0.17120000000E+03 0.  0.
         13    1    1    2    0    0  0.63032801182E+01  0.99966559229E+01 -0.25806810210E+02  0.28384275350E+02  0.10566000000E+00 0. -1.
        994    1    1    2    0    0 -0.69027775679E+02 -0.19712666575E+02  0.91313557485E+02  0.20688409513E+03  0.17120000000E+03 0.  0.
        998    1    1    2    0    0  0.62724495560E+02  0.97160106517E+01  0.14344932490E+04  0.14359316295E+04  0.10000000000E+02 0. -1.
</event>
<event>
 5    1  0.1106231E-008  0.3821138E+03  0.7957747E-01  0.3442006E+00
         13   -1    0    0    0    0  0.00000000000E+00  0.00000000000E+00  0.14999999963E+04  0.15000000000E+04  0.10566000000E+00 0. -1.
        994   -1    0    0    0    0 -0.00000000000E+00 -0.00000000000E+00  0.11368683772E-12  0.17120000000E+03  0.17120000000E+03 0.  0.
         13    1    1    2    0    0  0.23153692011E+01  0.24675813014E+02  0.10574115747E+03  0.10860690691E+03  0.10566000000E+00 0. -1.
        994    1    1    2    0    0  0.37437855040E+01 -0.49074975457E+01  0.31963887223E+01  0.17134105277E+03  0.17120000000E+03 0.  0.
        998    1    1    2    0    0 -0.60591547050E+01 -0.19768315469E+02  0.13910624501E+04  0.13912520403E+04  0.10000000000E+02 0. -1.
</event>
<event>
 5    1  0.1106231E-008  0.3848409E+03  0.7957747E-01  0.3430347E+00
         13   -1    0    0    0    0  0.00000000000E+00  0.00000000000E+00  0.14999999963E+04  0.15000000000E+04  0.10566000000E+00 0.  1.
        994   -1    0    0    0    0 -0.00000000000E+00 -0.00000000000E+00  0.11368683772E-12  0.17120000000E+03  0.17120000000E+03 0.  0.
         13    1    1    2    0    0  0.11856488746E+02  0.99804629633E+01  0.73589498967E+02  0.75203799695E+02  0.10566000000E+00 0.  1.
        994    1    1    2    0    0  0.42224590374E+01 -0.99704050260E+01  0.20950046538E+01  0.17155485181E+03  0.17120000000E+03 0.  0.
        998    1    1    2    0    0 -0.16078947783E+02 -0.10057937243E-01  0.14243154927E+04  0.14244413485E+04  0.10000000000E+02 0.  1.
</event>
<event>
 5    1  0.1106231E-008  0.3845477E+03  0.7957747E-01  0.3431593E+00
         13   -1    0    0    0    0  0.00000000000E+00  0.00000000000E+00  0.14999999963E+04  0.15000000000E+04  0.10566000000E+00 0.  1.
        994   -1    0    0    0    0 -0.00000000000E+00 -0.00000000000E+00  0.11368683772E-12  0.17120000000E+03  0.17120000000E+03 0.  0.
         13    1    1    2    0    0  0.72234099200E+01  0.10655954015E+02  0.44647840693E+02  0.46466846777E+02  0.10566000000E+00 0.  1.
        994    1    1    2    0    0 -0.24041870328E+01 -0.73712749180E+01  0.20528855819E+01  0.17138777713E+03  0.17120000000E+03 0.  0.
        998    1    1    2    0    0 -0.48192228872E+01 -0.32846790974E+01  0.14532992700E+04  0.14533453761E+04  0.10000000000E+02 0.  1.
</event>
<event>
 5    1  0.1106231E-008  0.3708193E+03  0.7957747E-01  0.3492134E+00
         13   -1    0    0    0    0  0.00000000000E+00  0.00000000000E+00  0.14999999963E+04  0.15000000000E+04  0.10566000000E+00 0. -1.
        994   -1    0    0    0    0 -0.00000000000E+00 -0.00000000000E+00  0.11368683772E-12  0.17120000000E+03  0.17120000000E+03 0.  0.
         13    1    1    2    0    0 -0.97828038525E+01  0.13182419031E+03  0.36719762390E+03  0.39026584089E+03  0.10566000000E+00 0. -1.
        994    1    1    2    0    0  0.85734581403E+02 -0.18308747531E+03  0.17230073641E+03  0.31601966051E+03  0.17120000000E+03 0.  0.
        998    1    1    2    0    0 -0.75951777550E+02  0.51263285005E+02  0.96050163597E+03  0.96491449860E+03  0.10000000000E+02 0. -1.
</event>
<event>
 5    1  0.1106231E-008  0.3822842E+03  0.7957747E-01  0.3441273E+00
         13   -1    0    0    0    0  0.00000000000E+00  0.00000000000E+00  0.14999999963E+04  0.15000000000E+04  0.10566000000E+00 0.  1.
        994   -1    0    0    0    0 -0.00000000000E+00 -0.00000000000E+00  0.11368683772E-12  0.17120000000E+03  0.17120000000E+03 0.  0.
         13    1    1    2    0    0 -0.13743390552E+02 -0.16473898979E+01  0.30664368940E+02  0.33643860716E+02  0.10566000000E+00 0.  1.
        994    1    1    2    0    0  0.12977946852E+02 -0.94176362648E+00  0.35464893618E+01  0.17173040386E+03  0.17120000000E+03 0.  0.
        998    1    1    2    0    0  0.76544370062E+00  0.25891535244E+01  0.14657891380E+04  0.14658257354E+04  0.10000000000E+02 0.  1.
</event>
<event>
 5    1  0.1106231E-008  0.3829200E+03  0.7957747E-01  0.3438542E+00
         13   -1    0    0    0    0  0.00000000000E+00  0.00000000000E+00  0.14999999963E+04  0.15000000000E+04  0.10566000000E+00 0.  1.
        994   -1    0    0    0    0 -0.00000000000E+00 -0.00000000000E+00  0.11368683772E-12  0.17120000000E+03  0.17120000000E+03 0.  0.
         13    1    1    2    0    0  0.23319812581E+02 -0.78726807628E+01  0.90867762171E+02  0.94142201628E+02  0.10566000000E+00 0.  1.
        994    1    1    2    0    0 -0.41633484121E+02  0.43644649996E+02  0.14807100734E+02  0.18211779898E+03  0.17120000000E+03 0.  0.
        998    1    1    2    0    0  0.18313671540E+02 -0.35771969234E+02  0.13943251334E+04  0.13949399994E+04  0.10000000000E+02 0.  1.
</event>
<event>
 5    1  0.1106231E-008  0.3852469E+03  0.7957747E-01  0.3428626E+00
         13   -1    0    0    0    0  0.00000000000E+00  0.00000000000E+00  0.14999999963E+04  0.15000000000E+04  0.10566000000E+00 0.  1.
        994   -1    0    0    0    0 -0.00000000000E+00 -0.00000000000E+00  0.11368683772E-12  0.17120000000E+03  0.17120000000E+03 0.  0.
         13    1    1    2    0    0  0.10769066586E+02 -0.44177579670E+01  0.45023079822E+02  0.46503529557E+02  0.10566000000E+00 0.  1.
        994    1    1    2    0    0 -0.93338710756E+01 -0.26210136250E+01  0.18165163358E+01  0.17148390768E+03  0.17120000000E+03 0.  0.
        998    1    1    2    0    0 -0.14351955099E+01  0.70387715921E+01  0.14531604001E+04  0.14532125628E+04  0.10000000000E+02 0.  1.
</event>
<event>
 5    1  0.1106231E-008  0.4159244E+03  0.7957747E-01  0.3308250E+00
         13   -1    0    0    0    0  0.00000000000E+00  0.00000000000E+00  0.14999999963E+04  0.15000000000E+04  0.10566000000E+00 0. -1.
        994   -1    0    0    0    0 -0.00000000000E+00 -0.00000000000E+00  0.11368683772E-12  0.17120000000E+03  0.17120000000E+03 0.  0.
         13    1    1    2    0    0 -0.94075213784E+02  0.94169303556E+02  0.18781185812E+03  0.23019841180E+03  0.10566000000E+00 0. -1.
        994    1    1    2    0    0  0.90111301847E+02 -0.10603075927E+03  0.12473013106E+03  0.25343562147E+03  0.17120000000E+03 0.  0.
        998    1    1    2    0    0  0.39639119367E+01  0.11861455717E+02  0.11874580071E+04  0.11875659667E+04  0.10000000000E+02 0. -1.
</event>
<event>
 5    1  0.1106231E-008  0.3720129E+03  0.7957747E-01  0.3486691E+00
         13   -1    0    0    0    0  0.00000000000E+00  0.00000000000E+00  0.14999999963E+04  0.15000000000E+04  0.10566000000E+00 0. -1.
        994   -1    0    0    0    0 -0.00000000000E+00 -0.00000000000E+00  0.11368683772E-12  0.17120000000E+03  0.17120000000E+03 0.  0.
         13    1    1    2    0    0 -0.29202708834E+02  0.10809227108E+02  0.54659237248E+02  0.62906923105E+02  0.10566000000E+00 0. -1.
        994    1    1    2    0    0  0.25755960484E+02 -0.92708542162E+01  0.10798054458E+02  0.17371055299E+03  0.17120000000E+03 0.  0.
        998    1    1    2    0    0  0.34467483503E+01 -0.15383728918E+01  0.14345427046E+04  0.14345825239E+04  0.10000000000E+02 0. -1.
</event>
<event>
 5    1  0.1106231E-008  0.3813394E+03  0.7957747E-01  0.3445347E+00
         13   -1    0    0    0    0  0.00000000000E+00  0.00000000000E+00  0.14999999963E+04  0.15000000000E+04  0.10566000000E+00 0.  1.
        994   -1    0    0    0    0 -0.00000000000E+00 -0.00000000000E+00  0.11368683772E-12  0.17120000000E+03  0.17120000000E+03 0.  0.
         13    1    1    2    0    0  0.93749660727E+01  0.29973839317E+02  0.13719879272E+03  0.14074743664E+03  0.10566000000E+00 0.  1.
        994    1    1    2    0    0 -0.16919237041E+02 -0.19293341033E+02  0.56532454500E+01  0.17320477122E+03  0.17120000000E+03 0.  0.
        998    1    1    2    0    0  0.75442709687E+01 -0.10680498285E+02  0.13571479581E+04  0.13572477921E+04  0.10000000000E+02 0.  1.
</event>
<event>
 5    1  0.1106231E-008  0.3848198E+03  0.7957747E-01  0.3430437E+00
         13   -1    0    0    0    0  0.00000000000E+00  0.00000000000E+00  0.14999999963E+04  0.15000000000E+04  0.10566000000E+00 0. -1.
        994   -1    0    0    0    0 -0.00000000000E+00 -0.00000000000E+00  0.11368683772E-12  0.17120000000E+03  0.17120000000E+03 0.  0.
         13    1    1    2    0    0 -0.12794231242E+02  0.10389216695E+01  0.44502521775E+02  0.46316922606E+02  0.10566000000E+00 0. -1.
        994    1    1    2    0    0  0.22380441183E+02 -0.11655404795E+01  0.33740383898E+01  0.17269356319E+03  0.17120000000E+03 0.  0.
        998    1    1    2    0    0 -0.95862099410E+01  0.12661880999E+00  0.14521234361E+04  0.14521895142E+04  0.10000000000E+02 0. -1.
</event>
<event>
 5    1  0.1106231E-008  0.3814957E+03  0.7957747E-01  0.3444672E+00
         13   -1    0    0    0    0  0.00000000000E+00  0.00000000000E+00  0.14999999963E+04  0.15000000000E+04  0.10566000000E+00 0. -1.
        994   -1    0    0    0    0 -0.00000000000E+00 -0.00000000000E+00  0.11368683772E-12  0.17120000000E+03  0.17120000000E+03 0.  0.
         13    1    1    2    0    0 -0.31329236277E+02  0.14301604079E+02  0.17148865106E+03  0.17491262256E+03  0.10566000000E+00 0. -1.
        994    1    1    2    0    0  0.18885457229E+02 -0.12480850162E+02  0.50864981855E+01  0.17276499813E+03  0.17120000000E+03 0.  0.
        998    1    1    2    0    0  0.12443779048E+02 -0.18207539173E+01  0.13234248470E+04  0.13235223793E+04  0.10000000000E+02 0. -1.
</event>
<event>
 5    1  0.1106231E-008  0.3808560E+03  0.7957747E-01  0.3447440E+00
         13   -1    0    0    0    0  0.00000000000E+00  0.00000000000E+00  0.14999999963E+04  0.15000000000E+04  0.10566000000E+00 0.  1.
        994   -1    0    0    0    0 -0.00000000000E+00 -0.00000000000E+00  0.11368683772E-12  0.17120000000E+03  0.17120000000E+03 0.  0.
         13    1    1    2    0    0  0.91399062393E+01 -0.11421761255E+02  0.27177965638E+02  0.30864988198E+02  0.10566000000E+00 0.  1.
        994    1    1    2    0    0 -0.67914054832E+01  0.11542826725E+02  0.42998054268E+01  0.17177685631E+03  0.17120000000E+03 0.  0.
        998    1    1    2    0    0 -0.23485007561E+01 -0.12106547087E+00  0.14685222252E+04  0.14685581555E+04  0.10000000000E+02 0.  1.
</event>
<event>
 5    1  0.1106231E-008  0.3830809E+03  0.7957747E-01  0.3437852E+00
         13   -1    0    0    0    0  0.00000000000E+00  0.00000000000E+00  0.14999999963E+04  0.15000000000E+04  0.10566000000E+00 0. -1.
        994   -1    0    0    0    0 -0.00000000000E+00 -0.00000000000E+00  0.11368683772E-12  0.17120000000E+03  0.17120000000E+03 0.  0.
         13    1    1    2    0    0  0.24946608414E+02  0.30903528868E+01  0.12328103647E+03  0.12581775975E+03  0.10566000000E+00 0. -1.
        994    1    1    2    0    0 -0.12873169439E+02 -0.32566405095E+01  0.31696359393E+01  0.17174344468E+03  0.17120000000E+03 0.  0.
        998    1    1    2    0    0 -0.12073438976E+02  0.16628762273E+00  0.13735493239E+04  0.13736387956E+04  0.10000000000E+02 0. -1.
</event>
<event>
 5    1  0.1106231E-008  0.3841243E+03  0.7957747E-01  0.3433394E+00
         13   -1    0    0    0    0  0.00000000000E+00  0.00000000000E+00  0.14999999963E+04  0.15000000000E+04  0.10566000000E+00 0.  1.
        994   -1    0    0    0    0 -0.00000000000E+00 -0.00000000000E+00  0.11368683772E-12  0.17120000000E+03  0.17120000000E+03 0.  0.
         13    1    1    2    0    0  0.16147001959E+02  0.28480280978E+01  0.73260318341E+02  0.75072780312E+02  0.10566000000E+00 0.  1.
        994    1    1    2    0    0  0.93055988646E+01  0.22275685911E+01  0.23675203501E+01  0.17148353094E+03  0.17120000000E+03 0.  0.
        998    1    1    2    0    0 -0.25452600824E+02 -0.50755966890E+01  0.14243721576E+04  0.14246436887E+04  0.10000000000E+02 0.  1.
</event>
<event>
 5    1  0.1106231E-008  0.3759970E+03  0.7957747E-01  0.3468776E+00
         13   -1    0    0    0    0  0.00000000000E+00  0.00000000000E+00  0.14999999963E+04  0.15000000000E+04  0.10566000000E+00 0.  1.
        994   -1    0    0    0    0 -0.00000000000E+00 -0.00000000000E+00  0.11368683772E-12  0.17120000000E+03  0.17120000000E+03 0.  0.
         13    1    1    2    0    0 -0.68835657927E+02 -0.13916677074E+02  0.33771041715E+03  0.34493529642E+03  0.10566000000E+00 0.  1.
        994    1    1    2    0    0  0.63587737636E+02 -0.83198542043E+01  0.20230072032E+02  0.18393291213E+03  0.17120000000E+03 0.  0.
        998    1    1    2    0    0  0.52479202912E+01  0.22236531278E+02  0.11420595071E+04  0.11423317914E+04  0.10000000000E+02 0.  1.
</event>
<event>
 5    1  0.1106231E-008  0.2870716E+03  0.7957747E-01  0.3992870E+00
         13   -1    0    0    0    0  0.00000000000E+00  0.00000000000E+00  0.14999999963E+04  0.15000000000E+04  0.10566000000E+00 0. -1.
        994   -1    0    0    0    0 -0.00000000000E+00 -0.00000000000E+00  0.11368683772E-12  0.17120000000E+03  0.17120000000E+03 0.  0.
         13    1    1    2    0    0 -0.20991947381E+03  0.92356223968E+02  0.44397037020E+03  0.49970547162E+03  0.10566000000E+00 0. -1.
        994    1    1    2    0    0  0.20443924777E+03 -0.48933825750E+02  0.26472639168E+03  0.37891876146E+03  0.17120000000E+03 0.  0.
        998    1    1    2    0    0  0.54802260469E+01 -0.43422398219E+02  0.79130323440E+03  0.79257576692E+03  0.10000000000E+02 0. -1.
</event>
<event>
 5    1  0.1360588E-008  0.3852491E+03  0.7957747E-01  0.3428616E+00
         13   -1    0    0    0    0  0.00000000000E+00  0.00000000000E+00  0.14999999963E+04  0.15000000000E+04  0.10566000000E+00 0. -1.
        994   -1    0    0    0    0 -0.00000000000E+00 -0.00000000000E+00  0.11368683772E-12  0.17120000000E+03  0.17120000000E+03 0.  0.
         13    1    1    2    0    0 -0.37030566747E+01 -0.13513325647E+02  0.62512738800E+02  0.64063845304E+02  0.10566000000E+00 0. -1.
        994    1    1    2    0    0  0.57089290742E+01  0.15161157151E+02  0.23694135189E+01  0.17198112303E+03  0.17120000000E+03 0.  0.
        998    1    1    2    0    0 -0.20058723995E+01 -0.16478315036E+01  0.14351178440E+04  0.14351550317E+04  0.10000000000E+02 0. -1.
</event>
<event>
 5    1  0.1106231E-008  0.3836624E+03  0.7957747E-01  0.3435365E+00
         13   -1    0    0    0    0  0.00000000000E+00  0.00000000000E+00  0.14999999963E+04  0.15000000000E+04  0.10566000000E+00 0. -1.
        994   -1    0    0    0    0 -0.00000000000E+00 -0.00000000000E+00  0.11368683772E-12  0.17120000000E+03  0.17120000000E+03 0.  0.
         13    1    1    2    0    0  0.31553569706E+02  0.96247309991E+01  0.16951474063E+03  0.17269488024E+03  0.10566000000E+00 0. -1.
        994    1    1    2    0    0 -0.71002933007E+02  0.19580673901E+02  0.20424581816E+02  0.18748712710E+03  0.17120000000E+03 0.  0.
        998    1    1    2    0    0  0.39449363301E+02 -0.29205404900E+02  0.13100606738E+04  0.13110179927E+04  0.10000000000E+02 0. -1.
</event>
<event>
 5    1  0.1106231E-008  0.3824812E+03  0.7957747E-01  0.3440425E+00
         13   -1    0    0    0    0  0.00000000000E+00  0.00000000000E+00  0.14999999963E+04  0.15000000000E+04  0.10566000000E+00 0.  1.
        994   -1    0    0    0    0 -0.00000000000E+00 -0.00000000000E+00  0.11368683772E-12  0.17120000000E+03  0.17120000000E+03 0.  0.
         13    1    1    2    0    0 -0.26472129957E+01 -0.28885837824E+02  0.15346989789E+03  0.15618713162E+03  0.10566000000E+00 0.  1.
        994    1    1    2    0    0 -0.95575318160E+00  0.98189242804E+01  0.32086103334E+01  0.17151402251E+03  0.17120000000E+03 0.  0.
        998    1    1    2    0    0  0.36029661773E+01  0.19066913544E+02  0.13433214881E+04  0.13434988459E+04  0.10000000000E+02 0.  1.
</event>
<event>
 5    1  0.1106231E-008  0.3836939E+03  0.7957747E-01  0.3435231E+00
         13   -1    0    0    0    0  0.00000000000E+00  0.00000000000E+00  0.14999999963E+04  0.15000000000E+04  0.10566000000E+00 0. -1.
        994   -1    0    0    0    0 -0.00000000000E+00 -0.00000000000E+00  0.11368683772E-12  0.17120000000E+03  0.17120000000E+03 0.  0.
         13    1    1    2    0    0 -0.45449743207E+01 -0.96165288269E+01  0.24756419713E+02  0.26944867773E+02  0.10566000000E+00 0. -1.
        994    1    1    2    0    0 -0.85305254649E+01  0.34330958720E+01  0.25592943253E+01  0.17146587415E+03  0.17120000000E+03 0.  0.
        998    1    1    2    0    0  0.13075499786E+02  0.61834329549E+01  0.14726842822E+04  0.14727892581E+04  0.10000000000E+02 0. -1.
</event>
<event>
 5    1  0.1106231E-008  0.3831237E+03  0.7957747E-01  0.3437669E+00
         13   -1    0    0    0    0  0.00000000000E+00  0.00000000000E+00  0.14999999963E+04  0.15000000000E+04  0.10566000000E+00 0. -1.
        994   -1    0    0    0    0 -0.00000000000E+00 -0.00000000000E+00  0.11368683772E-12  0.17120000000E+03  0.17120000000E+03 0.  0.
         13    1    1    2    0    0  0.12931631680E+02  0.21783317446E+02  0.12864606362E+03  0.13111659264E+03  0.10566000000E+00 0. -1.
        994    1    1    2    0    0 -0.73350387230E+01 -0.81711273990E+01  0.29635758232E+01  0.17157736709E+03  0.17120000000E+03 0.  0.
        998    1    1    2    0    0 -0.55965929570E+01 -0.13612190047E+02  0.13683903568E+04  0.13685060403E+04  0.10000000000E+02 0. -1.
</event>
<event>
 5    1  0.1106231E-008  0.3804474E+03  0.7957747E-01  0.3449213E+00
         13   -1    0    0    0    0  0.00000000000E+00  0.00000000000E+00  0.14999999963E+04  0.15000000000E+04  0.10566000000E+00 0. -1.
        994   -1    0    0    0    0 -0.00000000000E+00 -0.00000000000E+00  0.11368683772E-12  0.17120000000E+03  0.17120000000E+03 0.  0.
         13    1    1    2    0    0  0.17295671344E+01  0.11363736962E+02  0.15175664284E+02  0.19037801100E+02  0.10566000000E+00 0. -1.
        994    1    1    2    0    0 -0.74862663889E+01 -0.88975932461E+01  0.43589457726E+01  0.17164979394E+03  0.17120000000E+03 0.  0.
        998    1    1    2    0    0  0.57566992545E+01 -0.24661437163E+01  0.14804653862E+04  0.14805124050E+04  0.10000000000E+02 0. -1.
</event>
<event>
 5    1  0.1106231E-008  0.3798915E+03  0.7957747E-01  0.3451631E+00
         13   -1    0    0    0    0  0.00000000000E+00  0.00000000000E+00  0.14999999963E+04  0.15000000000E+04  0.10566000000E+00 0. -1.
        994   -1    0    0    0    0 -0.00000000000E+00 -0.00000000000E+00  0.11368683772E-12  0.17120000000E+03  0.17120000000E+03 0.  0.
         13    1    1    2    0    0  0.86859254542E+00  0.25234698154E+02  0.74398981900E+02  0.78566940348E+02  0.10566000000E+00 0. -1.
        994    1    1    2    0    0 -0.83271690513E+01 -0.16258993775E+02  0.53046231537E+01  0.17225352144E+03  0.17120000000E+03 0.  0.
        998    1    1    2    0    0  0.74585765058E+01 -0.89757043785E+01  0.14202963912E+04  0.14203795382E+04  0.10000000000E+02 0. -1.
</event>
<event>
 5    1  0.1106231E-008  0.3843824E+03  0.7957747E-01  0.3432296E+00
         13   -1    0    0    0    0  0.00000000000E+00  0.00000000000E+00  0.14999999963E+04  0.15000000000E+04  0.10566000000E+00 0.  1.
        994   -1    0    0    0    0 -0.00000000000E+00 -0.00000000000E+00  0.11368683772E-12  0.17120000000E+03  0.17120000000E+03 0.  0.
         13    1    1    2    0    0 -0.17781425890E+02 -0.15925263626E+02  0.13358802167E+03  0.13570395656E+03  0.10566000000E+00 0.  1.
        994    1    1    2    0    0  0.19933724774E+02  0.16685161074E+02  0.41669940405E+01  0.17321244708E+03  0.17120000000E+03 0.  0.
        998    1    1    2    0    0 -0.21522988846E+01 -0.75989744856E+00  0.13622449806E+04  0.13622835964E+04  0.10000000000E+02 0.  0.
</event>
<event>
 5    1  0.1106231E-008  0.3851323E+03  0.7957747E-01  0.3429111E+00
         13   -1    0    0    0    0  0.00000000000E+00  0.00000000000E+00  0.14999999963E+04  0.15000000000E+04  0.10566000000E+00 0.  1.
        994   -1    0    0    0    0 -0.00000000000E+00 -0.00000000000E+00  0.11368683772E-12  0.17120000000E+03  0.17120000000E+03 0.  0.
         13    1    1    2    0    0 -0.93227097763E+01  0.53617387122E+01  0.36741977298E+02  0.38283746151E+02  0.10566000000E+00 0.  1.
        994    1    1    2    0    0  0.48065307322E+01 -0.76286913700E+01  0.18317759782E+01  0.17144706201E+03  0.17120000000E+03 0.  0.
        998    1    1    2    0    0  0.45161790441E+01  0.22669526577E+01  0.14614262430E+04  0.14614691918E+04  0.10000000000E+02 0.  1.
</event>
<event>
 5    1  0.1106231E-008  0.3847968E+03  0.7957747E-01  0.3430534E+00
         13   -1    0    0    0    0  0.00000000000E+00  0.00000000000E+00  0.14999999963E+04  0.15000000000E+04  0.10566000000E+00 0.  1.
        994   -1    0    0    0    0 -0.00000000000E+00 -0.00000000000E+00  0.11368683772E-12  0.17120000000E+03  0.17120000000E+03 0.  0.
         13    1    1    2    0    0 -0.16422187641E+02 -0.11139537538E+02  0.11469834571E+03  0.11640231620E+03  0.10566000000E+00 0.  1.
        994    1    1    2    0    0  0.67323635289E+01  0.10425179566E+02  0.22380380456E+01  0.17166379322E+03  0.17120000000E+03 0.  0.
        998    1    1    2    0    0  0.96898241124E+01  0.71435797203E+00  0.13830636125E+04  0.13831338906E+04  0.10000000000E+02 0.  1.
</event>
<event>
 5    1  0.1106231E-008  0.3813738E+03  0.7957747E-01  0.3445198E+00
         13   -1    0    0    0    0  0.00000000000E+00  0.00000000000E+00  0.14999999963E+04  0.15000000000E+04  0.10566000000E+00 0. -1.
        994   -1    0    0    0    0 -0.00000000000E+00 -0.00000000000E+00  0.11368683772E-12  0.17120000000E+03  0.17120000000E+03 0.  0.
         13    1    1    2    0    0  0.97915539367E+01 -0.74879483548E+01  0.21139156870E+02  0.24470778825E+02  0.10566000000E+00 0. -1.
        994    1    1    2    0    0  0.90854586445E+01  0.13811589937E+02  0.43512979037E+01  0.17205138584E+03  0.17120000000E+03 0.  0.
        998    1    1    2    0    0 -0.18877012581E+02 -0.63236415823E+01  0.14745095415E+04  0.14746778353E+04  0.10000000000E+02 0. -1.
</event>
<event>
 5    1  0.1106231E-008  0.3849733E+03  0.7957747E-01  0.3429785E+00
         13   -1    0    0    0    0  0.00000000000E+00  0.00000000000E+00  0.14999999963E+04  0.15000000000E+04  0.10566000000E+00 0. -1.
        994   -1    0    0    0    0 -0.00000000000E+00 -0.00000000000E+00  0.11368683772E-12  0.17120000000E+03  0.17120000000E+03 0.  0.
         13    1    1    2    0    0  0.12352350100E+02 -0.42421216950E+01  0.51713090314E+02  0.53336957387E+02  0.10566000000E+00 0. -1.
        994    1    1    2    0    0 -0.10045468155E+02 -0.10241360737E+01  0.19787991753E+01  0.17150893834E+03  0.17120000000E+03 0.  0.
        998    1    1    2    0    0 -0.23068819456E+01  0.52662577688E+01  0.14463081068E+04  0.14463541043E+04  0.10000000000E+02 0. -1.
</event>
<event>
 5    1  0.1106231E-008  0.3838701E+03  0.7957747E-01  0.3434478E+00
         13   -1    0    0    0    0  0.00000000000E+00  0.00000000000E+00  0.14999999963E+04  0.15000000000E+04  0.10566000000E+00 0.  1.
        994   -1    0    0    0    0 -0.00000000000E+00 -0.00000000000E+00  0.11368683772E-12  0.17120000000E+03  0.17120000000E+03 0.  0.
         13    1    1    2    0    0 -0.89451242276E+00 -0.19300142495E+02  0.89787380393E+02  0.91842694291E+02  0.10566000000E+00 0.  1.
        994    1    1    2    0    0 -0.85581227168E+01  0.38088566574E+01  0.24818385924E+01  0.17147404578E+03  0.17120000000E+03 0.  0.
        998    1    1    2    0    0  0.94526351396E+01  0.15491285838E+02  0.14077307773E+04  0.14078832599E+04  0.10000000000E+02 0.  1.
</event>
<event>
 5    1  0.1106231E-008  0.3809382E+03  0.7957747E-01  0.3447083E+00
         13   -1    0    0    0    0  0.00000000000E+00  0.00000000000E+00  0.14999999963E+04  0.15000000000E+04  0.10566000000E+00 0.  1.
        994   -1    0    0    0    0 -0.00000000000E+00 -0.00000000000E+00  0.11368683772E-12  0.17120000000E+03  0.17120000000E+03 0.  0.
         13    1    1    2    0    0  0.12655978923E+02  0.20207249426E+02  0.74449094658E+02  0.78174072373E+02  0.10566000000E+00 0.  1.
        994    1    1    2    0    0 -0.22800540308E+02 -0.10003044707E+02  0.57289844249E+01  0.17309588905E+03  0.17120000000E+03 0.  0.
        998    1    1    2    0    0  0.10144561385E+02 -0.10204204719E+02  0.14198219172E+04  0.14199300386E+04  0.10000000000E+02 0.  1.
</event>
<event>
 5    1  0.1106231E-008  0.3742359E+03  0.7957747E-01  0.3476647E+00
         13   -1    0    0    0    0  0.00000000000E+00  0.00000000000E+00  0.14999999963E+04  0.15000000000E+04  0.10566000000E+00 0. -1.
        994   -1    0    0    0    0 -0.00000000000E+00 -0.00000000000E+00  0.11368683772E-12  0.17120000000E+03  0.17120000000E+03 0.  0.
         13    1    1    2    0    0  0.29463355843E+02 -0.27749735506E+02  0.11190801782E+03  0.11900232256E+03  0.10566000000E+00 0. -1.
        994    1    1    2    0    0 -0.72176337832E+01  0.32754025068E+02  0.10914933917E+02  0.17479558398E+03  0.17120000000E+03 0.  0.
        998    1    1    2    0    0 -0.22245722060E+02 -0.50042895620E+01  0.13771770445E+04  0.13774020935E+04  0.10000000000E+02 0. -1.
</event>
<event>
 5    1  0.1106231E-008  0.3835894E+03  0.7957747E-01  0.3435677E+00
         13   -1    0    0    0    0  0.00000000000E+00  0.00000000000E+00  0.14999999963E+04  0.15000000000E+04  0.10566000000E+00 0. -1.
        994   -1    0    0    0    0 -0.00000000000E+00 -0.00000000000E+00  0.11368683772E-12  0.17120000000E+03  0.17120000000E+03 0.  0.
         13    1    1    2    0    0 -0.92485689609E+01  0.46442402545E+01  0.21828420901E+02  0.24157734133E+02  0.10566000000E+00 0. -1.
        994    1    1    2    0    0  0.10632512710E+02 -0.53045644314E+01  0.27986695904E+01  0.17163467389E+03  0.17120000000E+03 0.  0.
        998    1    1    2    0    0 -0.13839437495E+01  0.66032417687E+00  0.14753729058E+04  0.14754075920E+04  0.10000000000E+02 0. -1.
</event>
<event>
 5    1  0.1106231E-008  0.3790372E+03  0.7957747E-01  0.3455361E+00
         13   -1    0    0    0    0  0.00000000000E+00  0.00000000000E+00  0.14999999963E+04  0.15000000000E+04  0.10566000000E+00 0. -1.
        994   -1    0    0    0    0 -0.00000000000E+00 -0.00000000000E+00  0.11368683772E-12  0.17120000000E+03  0.17120000000E+03 0.  0.
         13    1    1    2    0    0 -0.35123441298E+02 -0.15332289993E+02  0.18027209399E+03  0.18430077125E+03  0.10566000000E+00 0. -1.
        994    1    1    2    0    0 -0.15735210401E+01  0.96972885521E+01  0.49436702299E+01  0.17155288762E+03  0.17120000000E+03 0.  0.
        998    1    1    2    0    0  0.36696962338E+02  0.56350014410E+01  0.13147842321E+04  0.13153463411E+04  0.10000000000E+02 0. -1.
</event>
<event>
 5    1  0.1106231E-008  0.3828547E+03  0.7957747E-01  0.3438822E+00
         13   -1    0    0    0    0  0.00000000000E+00  0.00000000000E+00  0.14999999963E+04  0.15000000000E+04  0.10566000000E+00 0. -1.
        994   -1    0    0    0    0 -0.00000000000E+00 -0.00000000000E+00  0.11368683772E-12  0.17120000000E+03  0.17120000000E+03 0.  0.
         13    1    1    2    0    0 -0.24200743400E+01 -0.14852790033E+02  0.41451678990E+02  0.44098922738E+02  0.10566000000E+00 0. -1.
        994    1    1    2    0    0  0.12556658054E+01  0.78241982149E+01  0.29069726203E+01  0.17140794983E+03  0.17120000000E+03 0.  0.
        998    1    1    2    0    0  0.11644085346E+01  0.70285918177E+01  0.14556413447E+04  0.14556931274E+04  0.10000000000E+02 0. -1.
</event>
<event>
 5    1  0.1106231E-008  0.3801360E+03  0.7957747E-01  0.3450567E+00
         13   -1    0    0    0    0  0.00000000000E+00  0.00000000000E+00  0.14999999963E+04  0.15000000000E+04  0.10566000000E+00 0.  1.
        994   -1    0    0    0    0 -0.00000000000E+00 -0.00000000000E+00  0.11368683772E-12  0.17120000000E+03  0.17120000000E+03 0.  0.
         13    1    1    2    0    0  0.94312152439E+01  0.82831650429E+01  0.17564847397E+02  0.21589202677E+02  0.10566000000E+00 0.  1.
        994    1    1    2    0    0 -0.11411062257E+02 -0.38898013919E+01  0.45503083584E+01  0.17168426894E+03  0.17120000000E+03 0.  0.
        998    1    1    2    0    0  0.19798470132E+01 -0.43933636511E+01  0.14778848405E+04  0.14779265284E+04  0.10000000000E+02 0.  1.
</event>
<event>
 5    1  0.1106231E-008  0.3712939E+03  0.7957747E-01  0.3489965E+00
         13   -1    0    0    0    0  0.00000000000E+00  0.00000000000E+00  0.14999999963E+04  0.15000000000E+04  0.10566000000E+00 0.  1.
        994   -1    0    0    0    0 -0.00000000000E+00 -0.00000000000E+00  0.11368683772E-12  0.17120000000E+03  0.17120000000E+03 0.  0.
         13    1    1    2    0    0 -0.29038030084E+02  0.19414729627E+02  0.67937145222E+02  0.76391136806E+02  0.10566000000E+00 0.  1.
        994    1    1    2    0    0  0.22860530332E+02 -0.52605838675E+01  0.10490849905E+02  0.17311780822E+03  0.17120000000E+03 0.  0.
        998    1    1    2    0    0  0.61774997522E+01 -0.14154145759E+02  0.14215720012E+04  0.14216910550E+04  0.10000000000E+02 0.  1.
</event>
<event>
 5    1  0.1106231E-008  0.3713412E+03  0.7957747E-01  0.3489750E+00
         13   -1    0    0    0    0  0.00000000000E+00  0.00000000000E+00  0.14999999963E+04  0.15000000000E+04  0.10566000000E+00 0. -1.
        994   -1    0    0    0    0 -0.00000000000E+00 -0.00000000000E+00  0.11368683772E-12  0.17120000000E+03  0.17120000000E+03 0.  0.
         13    1    1    2    0    0  0.12211207791E+01  0.15963232460E+02  0.11079803734E+02  0.19470211641E+02  0.10566000000E+00 0. -1.
        994    1    1    2    0    0 -0.20035492130E+01 -0.13979512871E+02  0.92564342244E+01  0.17203070239E+03  0.17120000000E+03 0.  0.
        998    1    1    2    0    0  0.78242843391E+00 -0.19837195884E+01  0.14796637583E+04  0.14796990860E+04  0.10000000000E+02 0. -1.
</event>
<event>
 5    1  0.1106231E-008  0.3859480E+03  0.7957747E-01  0.3425661E+00
         13   -1    0    0    0    0  0.00000000000E+00  0.00000000000E+00  0.14999999963E+04  0.15000000000E+04  0.10566000000E+00 0. -1.
        994   -1    0    0    0    0 -0.00000000000E+00 -0.00000000000E+00  0.11368683772E-12  0.17120000000E+03  0.17120000000E+03 0.  0.
         13    1    1    2    0    0 -0.11029094503E+02  0.37018946848E+01  0.58226102223E+02  0.59377058650E+02  0.10566000000E+00 0. -1.
        994    1    1    2    0    0  0.10172487798E+02  0.13442022727E+00  0.14995922812E+01  0.17150856058E+03  0.17120000000E+03 0.  0.
        998    1    1    2    0    0  0.85660670508E+00 -0.38363149121E+01  0.14402743018E+04  0.14403143808E+04  0.10000000000E+02 0. -1.
</event>
<event>
 5    1  0.1106231E-008  0.3725500E+03  0.7957747E-01  0.3484253E+00
         13   -1    0    0    0    0  0.00000000000E+00  0.00000000000E+00  0.14999999963E+04  0.15000000000E+04  0.10566000000E+00 0. -1.
        994   -1    0    0    0    0 -0.00000000000E+00 -0.00000000000E+00  0.11368683772E-12  0.17120000000E+03  0.17120000000E+03 0.  0.
         13    1    1    2    0    0 -0.35395948810E+02  0.11474755669E+03  0.66075733617E+03  0.67158033281E+03  0.10566000000E+00 0. -1.
        994    1    1    2    0    0  0.24247657714E+02 -0.94969992621E+02  0.41625610140E+02  0.20161691353E+03  0.17120000000E+03 0.  0.
        998    1    1    2    0    0  0.11148291096E+02 -0.19777564064E+02  0.79761704997E+03  0.79800275366E+03  0.10000000000E+02 0. -1.
</event>
<event>
 5    1  0.1106231E-008  0.3849752E+03  0.7957747E-01  0.3429777E+00
         13   -1    0    0    0    0  0.00000000000E+00  0.00000000000E+00  0.14999999963E+04  0.15000000000E+04  0.10566000000E+00 0.  1.
        994   -1    0    0    0    0 -0.00000000000E+00 -0.00000000000E+00  0.11368683772E-12  0.17120000000E+03  0.17120000000E+03 0.  0.
         13    1    1    2    0    0  0.20775700380E+02  0.42155798000E+01  0.12126955396E+03  0.12310855665E+03  0.10566000000E+00 0.  1.
        994    1    1    2    0    0 -0.26302752655E+02 -0.87772289228E+01  0.41753152381E+01  0.17348126067E+03  0.17120000000E+03 0.  0.
        998    1    1    2    0    0  0.55270522750E+01  0.45616491228E+01  0.13745551271E+04  0.13746101827E+04  0.10000000000E+02 0.  1.
</event>
<event>
 5    1  0.1106231E-008  0.3778373E+03  0.7957747E-01  0.3460630E+00
         13   -1    0    0    0    0  0.00000000000E+00  0.00000000000E+00  0.14999999963E+04  0.15000000000E+04  0.10566000000E+00 0.  1.
        994   -1    0    0    0    0 -0.00000000000E+00 -0.00000000000E+00  0.11368683772E-12  0.17120000000E+03  0.17120000000E+03 0.  0.
         13    1    1    2    0    0 -0.21745082960E+02 -0.39762822075E+02  0.23807892286E+03  0.24235411143E+03  0.10566000000E+00 0.  1.
        994    1    1    2    0    0 -0.59964234186E+01  0.28128350533E+01  0.53765888590E+01  0.17141241741E+03  0.17120000000E+03 0.  0.
        998    1    1    2    0    0  0.27741506379E+02  0.36949987021E+02  0.12565444846E+04  0.12574334712E+04  0.10000000000E+02 0.  1.
</event>
<event>
 5    1  0.1106231E-008  0.3815326E+03  0.7957747E-01  0.3444512E+00
         13   -1    0    0    0    0  0.00000000000E+00  0.00000000000E+00  0.14999999963E+04  0.15000000000E+04  0.10566000000E+00 0. -1.
        994   -1    0    0    0    0 -0.00000000000E+00 -0.00000000000E+00  0.11368683772E-12  0.17120000000E+03  0.17120000000E+03 0.  0.
         13    1    1    2    0    0  0.15103630459E+02  0.12748666144E+02  0.53409183409E+02  0.56949101643E+02  0.10566000000E+00 0. -1.
        994    1    1    2    0    0 -0.23657821219E+02 -0.15629663565E+02  0.60401740124E+01  0.17363727304E+03  0.17120000000E+03 0.  0.
        998    1    1    2    0    0  0.85541907599E+01  0.28809974204E+01  0.14405506389E+04  0.14406136253E+04  0.10000000000E+02 0. -1.
</event>
<event>
 5    1  0.1106231E-008  0.3845992E+03  0.7957747E-01  0.3431374E+00
         13   -1    0    0    0    0  0.00000000000E+00  0.00000000000E+00  0.14999999963E+04  0.15000000000E+04  0.10566000000E+00 0. -1.
        994   -1    0    0    0    0 -0.00000000000E+00 -0.00000000000E+00  0.11368683772E-12  0.17120000000E+03  0.17120000000E+03 0.  0.
         13    1    1    2    0    0 -0.10190790503E+02  0.39733544590E+01  0.33061789032E+02  0.34824313558E+02  0.10566000000E+00 0. -1.
        994    1    1    2    0    0  0.79243524011E+01  0.13326140986E+02  0.26212005218E+01  0.17192059820E+03  0.17120000000E+03 0.  0.
        998    1    1    2    0    0  0.22664381019E+01 -0.17299495445E+02  0.14643170067E+04  0.14644550882E+04  0.10000000000E+02 0. -1.
</event>
<event>
 5    1  0.1106231E-008  0.3846866E+03  0.7957747E-01  0.3431002E+00
         13   -1    0    0    0    0  0.00000000000E+00  0.00000000000E+00  0.14999999963E+04  0.15000000000E+04  0.10566000000E+00 0.  1.
        994   -1    0    0    0    0 -0.00000000000E+00 -0.00000000000E+00  0.11368683772E-12  0.17120000000E+03  0.17120000000E+03 0.  0.
         13    1    1    2    0    0  0.13854465833E+02 -0.80216011401E+00  0.53206765587E+02  0.54986914376E+02  0.10566000000E+00 0.  1.
        994    1    1    2    0    0 -0.11097443712E+02 -0.74194864626E+00  0.21931335328E+01  0.17157492118E+03  0.17120000000E+03 0.  0.
        998    1    1    2    0    0 -0.27570221209E+01  0.15441087603E+01  0.14446000972E+04  0.14446381644E+04  0.10000000000E+02 0.  1.
</event>
<event>
 5    1  0.1106231E-008  0.3832624E+03  0.7957747E-01  0.3437075E+00
         13   -1    0    0    0    0  0.00000000000E+00  0.00000000000E+00  0.14999999963E+04  0.15000000000E+04  0.10566000000E+00 0. -1.
        994   -1    0    0    0    0 -0.00000000000E+00 -0.00000000000E+00  0.11368683772E-12  0.17120000000E+03  0.17120000000E+03 0.  0.
         13    1    1    2    0    0  0.12491889497E+02  0.28155450204E+02  0.18165473623E+03  0.18424774364E+03  0.10566000000E+00 0. -1.
        994    1    1    2    0    0 -0.11183217828E+02 -0.20092390399E+02  0.42460141322E+01  0.17278957477E+03  0.17120000000E+03 0.  0.
        998    1    1    2    0    0 -0.13086716687E+01 -0.80630598051E+01  0.13140992459E+04  0.13141626816E+04  0.10000000000E+02 0.  0.
</event>
<event>
 5    1  0.1106231E-008  0.3794354E+03  0.7957747E-01  0.3453621E+00
         13   -1    0    0    0    0  0.00000000000E+00  0.00000000000E+00  0.14999999963E+04  0.15000000000E+04  0.10566000000E+00 0.  1.
        994   -1    0    0    0    0 -0.00000000000E+00 -0.00000000000E+00  0.11368683772E-12  0.17120000000E+03  0.17120000000E+03 0.  0.
         13    1    1    2    0    0  0.18152210817E+02 -0.15655209917E+02  0.65682375421E+02  0.69919768021E+02  0.10566000000E+00 0.  1.
        994    1    1    2    0    0 -0.51535526988E+00  0.96755535216E+01  0.47329287830E+01  0.17153927405E+03  0.17120000000E+03 0.  0.
        998    1    1    2    0    0 -0.17636855547E+02  0.59796563958E+01  0.14295846921E+04  0.14297409579E+04  0.10000000000E+02 0.  1.
</event>
<event>
 5    1  0.1106231E-008  0.3773997E+03  0.7957747E-01  0.3462559E+00
         13   -1    0    0    0    0  0.00000000000E+00  0.00000000000E+00  0.14999999963E+04  0.15000000000E+04  0.10566000000E+00 0.  1.
        994   -1    0    0    0    0 -0.00000000000E+00 -0.00000000000E+00  0.11368683772E-12  0.17120000000E+03  0.17120000000E+03 0.  0.
         13    1    1    2    0    0  0.33654706807E+02  0.33852000409E+02  0.78562810033E+02  0.91927816825E+02  0.10566000000E+00 0.  1.
        994    1    1    2    0    0  0.26999006012E+02 -0.24276964532E+02  0.19652797479E+02  0.17610789244E+03  0.17120000000E+03 0.  0.
        998    1    1    2    0    0 -0.60653712819E+02 -0.95750358773E+01  0.14017843888E+04  0.14031642907E+04  0.10000000000E+02 0.  1.
</event>
<event>
 5    1  0.1106231E-008  0.3797009E+03  0.7957747E-01  0.3452462E+00
         13   -1    0    0    0    0  0.00000000000E+00  0.00000000000E+00  0.14999999963E+04  0.15000000000E+04  0.10566000000E+00 0. -1.
        994   -1    0    0    0    0 -0.00000000000E+00 -0.00000000000E+00  0.11368683772E-12  0.17120000000E+03  0.17120000000E+03 0.  0.
         13    1    1    2    0    0  0.21588968782E+02  0.11106517766E+02  0.74485110658E+02  0.78342077990E+02  0.10566000000E+00 0. -1.
        994    1    1    2    0    0  0.12380268991E+02 -0.75495994363E+01  0.49880941810E+01  0.17188539378E+03  0.17120000000E+03 0.  0.
        998    1    1    2    0    0 -0.33969237773E+02 -0.35569183299E+01  0.14205267914E+04  0.14209725282E+04  0.10000000000E+02 0. -1.
</event>
<event>
 5    1  0.1106231E-008  0.3804521E+03  0.7957747E-01  0.3449192E+00
         13   -1    0    0    0    0  0.00000000000E+00  0.00000000000E+00  0.14999999963E+04  0.15000000000E+04  0.10566000000E+00 0. -1.
        994   -1    0    0    0    0 -0.00000000000E+00 -0.00000000000E+00  0.11368683772E-12  0.17120000000E+03  0.17120000000E+03 0.  0.
         13    1    1    2    0    0 -0.11569686833E+02  0.19669368518E+00  0.15398183630E+02  0.19261660493E+02  0.10566000000E+00 0. -1.
        994    1    1    2    0    0  0.10447070015E+02  0.16532235582E+01  0.42786107687E+01  0.17157978007E+03  0.17120000000E+03 0.  0.
        998    1    1    2    0    0  0.11226168180E+01 -0.18499172434E+01  0.14803232019E+04  0.14803585594E+04  0.10000000000E+02 0. -1.
</event>
<event>
 5    1  0.1106231E-008  0.3836443E+03  0.7957747E-01  0.3435442E+00
         13   -1    0    0    0    0  0.00000000000E+00  0.00000000000E+00  0.14999999963E+04  0.15000000000E+04  0.10566000000E+00 0.  1.
        994   -1    0    0    0    0 -0.00000000000E+00 -0.00000000000E+00  0.11368683772E-12  0.17120000000E+03  0.17120000000E+03 0.  0.
         13    1    1    2    0    0 -0.17542653430E+02  0.10924215589E+02  0.10705259370E+03  0.10902913445E+03  0.10566000000E+00 0.  1.
        994    1    1    2    0    0 -0.64579135232E+01  0.51250706453E+01  0.25292847670E+01  0.17141705947E+03  0.17120000000E+03 0.  0.
        998    1    1    2    0    0  0.24000566953E+02 -0.16049286234E+02  0.13904181178E+04  0.13907538061E+04  0.10000000000E+02 0.  1.
</event>
<event>
 5    1  0.1106231E-008  0.3724178E+03  0.7957747E-01  0.3484853E+00
         13   -1    0    0    0    0  0.00000000000E+00  0.00000000000E+00  0.14999999963E+04  0.15000000000E+04  0.10566000000E+00 0.  1.
        994   -1    0    0    0    0 -0.00000000000E+00 -0.00000000000E+00  0.11368683772E-12  0.17120000000E+03  0.17120000000E+03 0.  0.
         13    1    1    2    0    0  0.20782368436E+02  0.31379857740E+02  0.51808864357E+02  0.64037269614E+02  0.10566000000E+00 0.  1.
        994    1    1    2    0    0 -0.30820560869E+02 -0.22992129206E+02  0.17454180036E+02  0.17633103351E+03  0.17120000000E+03 0.  0.
        998    1    1    2    0    0  0.10038192433E+02 -0.83877285338E+01  0.14307369519E+04  0.14308316969E+04  0.10000000000E+02 0.  1.
</event>
<event>
 5    1  0.1106231E-008  0.3856260E+03  0.7957747E-01  0.3427021E+00
         13   -1    0    0    0    0  0.00000000000E+00  0.00000000000E+00  0.14999999963E+04  0.15000000000E+04  0.10566000000E+00 0.  1.
        994   -1    0    0    0    0 -0.00000000000E+00 -0.00000000000E+00  0.11368683772E-12  0.17120000000E+03  0.17120000000E+03 0.  0.
         13    1    1    2    0    0  0.10547743409E+02 -0.11703114550E+02  0.91024511944E+02  0.92377977461E+02  0.10566000000E+00 0.  1.
        994    1    1    2    0    0 -0.13726151389E+02  0.77512134807E+01  0.21356003322E+01  0.17193745762E+03  0.17120000000E+03 0.  0.
        998    1    1    2    0    0  0.31784079799E+01  0.39519010693E+01  0.14068398840E+04  0.14068845649E+04  0.10000000000E+02 0.  1.
</event>
<event>
 5    1  0.1106231E-008  0.3812035E+03  0.7957747E-01  0.3445935E+00
         13   -1    0    0    0    0  0.00000000000E+00  0.00000000000E+00  0.14999999963E+04  0.15000000000E+04  0.10566000000E+00 0.  1.
        994   -1    0    0    0    0 -0.00000000000E+00 -0.00000000000E+00  0.11368683772E-12  0.17120000000E+03  0.17120000000E+03 0.  0.
         13    1    1    2    0    0  0.55191316101E+01  0.86061681620E+01  0.13208764952E+02  0.16703579849E+02  0.10566000000E+00 0.  1.
        994    1    1    2    0    0 -0.82565785051E+01 -0.72408757137E+01  0.39285220864E+01  0.17159683755E+03  0.17120000000E+03 0.  0.
        998    1    1    2    0    0  0.27374468950E+01 -0.13652924482E+01  0.14828627092E+04  0.14828995826E+04  0.10000000000E+02 0.  1.
</event>
<event>
 5    1  0.1106231E-008  0.3848643E+03  0.7957747E-01  0.3430248E+00
         13   -1    0    0    0    0  0.00000000000E+00  0.00000000000E+00  0.14999999963E+04  0.15000000000E+04  0.10566000000E+00 0. -1.
        994   -1    0    0    0    0 -0.00000000000E+00 -0.00000000000E+00  0.11368683772E-12  0.17120000000E+03  0.17120000000E+03 0.  0.
         13    1    1    2    0    0 -0.67660283857E+01  0.20461699859E+02  0.12617365809E+03  0.12800102914E+03  0.10566000000E+00 0. -1.
        994    1    1    2    0    0  0.12011122781E+02 -0.20086556700E+02  0.35017159344E+01  0.17282777220E+03  0.17120000000E+03 0.  0.
        998    1    1    2    0    0 -0.52450943956E+01 -0.37514315899E+00  0.13703246223E+04  0.13703711987E+04  0.10000000000E+02 0. -1.
</event>
<event>
 5    1  0.1106231E-008  0.3846408E+03  0.7957747E-01  0.3431197E+00
         13   -1    0    0    0    0  0.00000000000E+00  0.00000000000E+00  0.14999999963E+04  0.15000000000E+04  0.10566000000E+00 0. -1.
        994   -1    0    0    0    0 -0.00000000000E+00 -0.00000000000E+00  0.11368683772E-12  0.17120000000E+03  0.17120000000E+03 0.  0.
         13    1    1    2    0    0 -0.39334660775E+01 -0.12183533267E+02  0.43780699727E+02  0.45614377896E+02  0.10566000000E+00 0. -1.
        994    1    1    2    0    0 -0.55319786353E+00  0.15324500331E+02  0.25831846332E+01  0.17190479685E+03  0.17120000000E+03 0.  0.
        998    1    1    2    0    0  0.44866639410E+01 -0.31409670636E+01  0.14536361119E+04  0.14536808253E+04  0.10000000000E+02 0. -1.
</event>
<event>
 5    1  0.1106231E-008  0.3830301E+03  0.7957747E-01  0.3438070E+00
         13   -1    0    0    0    0  0.00000000000E+00  0.00000000000E+00  0.14999999963E+04  0.15000000000E+04  0.10566000000E+00 0. -1.
        994   -1    0    0    0    0 -0.00000000000E+00 -0.00000000000E+00  0.11368683772E-12  0.17120000000E+03  0.17120000000E+03 0.  0.
         13    1    1    2    0    0  0.88983382425E+01  0.63838590513E+01  0.23636446122E+02  0.26050466967E+02  0.10566000000E+00 0. -1.
        994    1    1    2    0    0  0.14489487962E+02  0.35018076742E+01  0.33471213585E+01  0.17188033960E+03  0.17120000000E+03 0.  0.
        998    1    1    2    0    0 -0.23387826204E+02 -0.98856667255E+01  0.14730164288E+04  0.14732691934E+04  0.10000000000E+02 0. -1.
</event>
<event>
 5    1  0.1106231E-008  0.3836287E+03  0.7957747E-01  0.3435509E+00
         13   -1    0    0    0    0  0.00000000000E+00  0.00000000000E+00  0.14999999963E+04  0.15000000000E+04  0.10566000000E+00 0. -1.
        994   -1    0    0    0    0 -0.00000000000E+00 -0.00000000000E+00  0.11368683772E-12  0.17120000000E+03  0.17120000000E+03 0.  0.
         13    1    1    2    0    0  0.12029998791E+02 -0.15025629116E+02  0.70079677317E+02  0.72675048938E+02  0.10566000000E+00 0. -1.
        994    1    1    2    0    0 -0.18745090457E+02  0.30366824430E+02  0.65307539991E+01  0.17500175196E+03  0.17120000000E+03 0.  0.
        998    1    1    2    0    0  0.67150916659E+01 -0.15341195314E+02  0.14233895650E+04  0.14235231991E+04  0.10000000000E+02 0.  1.
</event>
<event>
 5    1  0.1106231E-008  0.3831104E+03  0.7957747E-01  0.3437726E+00
         13   -1    0    0    0    0  0.00000000000E+00  0.00000000000E+00  0.14999999963E+04  0.15000000000E+04  0.10566000000E+00 0.  1.
        994   -1    0    0    0    0 -0.00000000000E+00 -0.00000000000E+00  0.11368683772E-12  0.17120000000E+03  0.17120000000E+03 0.  0.
         13    1    1    2    0    0  0.12786972530E+02  0.10682567778E+02  0.53454511785E+02  0.55991248557E+02  0.10566000000E+00 0.  1.
        994    1    1    2    0    0 -0.90919350539E+01 -0.48462599071E+01  0.29225277030E+01  0.17153463407E+03  0.17120000000E+03 0.  0.
        998    1    1    2    0    0 -0.36950374766E+01 -0.58363078711E+01  0.14436229568E+04  0.14436741174E+04  0.10000000000E+02 0.  1.
</event>
<event>
 5    1  0.1106231E-008  0.3847222E+03  0.7957747E-01  0.3430851E+00
         13   -1    0    0    0    0  0.00000000000E+00  0.00000000000E+00  0.14999999963E+04  0.15000000000E+04  0.10566000000E+00 0. -1.
        994   -1    0    0    0    0 -0.00000000000E+00 -0.00000000000E+00  0.11368683772E-12  0.17120000000E+03  0.17120000000E+03 0.  0.
         13    1    1    2    0    0 -0.61903485948E+01  0.86539768800E+01  0.31717532583E+02  0.33454816824E+02  0.10566000000E+00 0. -1.
        994    1    1    2    0    0  0.55108781537E+01 -0.47280677072E+01  0.19417079920E+01  0.17136491657E+03  0.17120000000E+03 0.  0.
        998    1    1    2    0    0  0.67947044118E+00 -0.39259091728E+01  0.14663407557E+04  0.14663802666E+04  0.10000000000E+02 0. -1.
</event>
<event>
 5    1  0.1106231E-008  0.3699498E+03  0.7957747E-01  0.3496122E+00
         13   -1    0    0    0    0  0.00000000000E+00  0.00000000000E+00  0.14999999963E+04  0.15000000000E+04  0.10566000000E+00 0. -1.
        994   -1    0    0    0    0 -0.00000000000E+00 -0.00000000000E+00  0.11368683772E-12  0.17120000000E+03  0.17120000000E+03 0.  0.
         13    1    1    2    0    0 -0.94182716259E+02  0.16374827224E+02  0.55179645168E+03  0.56001594108E+03  0.10566000000E+00 0. -1.
        994    1    1    2    0    0  0.23576035940E+02 -0.69860027572E+02  0.30163779090E+02  0.18882676318E+03  0.17120000000E+03 0.  0.
        998    1    1    2    0    0  0.70606680319E+02  0.53485200349E+02  0.91803976551E+03  0.92235729575E+03  0.10000000000E+02 0. -1.
</event>
<event>
 5    1  0.1106231E-008  0.3698144E+03  0.7957747E-01  0.3496744E+00
         13   -1    0    0    0    0  0.00000000000E+00  0.00000000000E+00  0.14999999963E+04  0.15000000000E+04  0.10566000000E+00 0.  1.
        994   -1    0    0    0    0 -0.00000000000E+00 -0.00000000000E+00  0.11368683772E-12  0.17120000000E+03  0.17120000000E+03 0.  0.
         13    1    1    2    0    0 -0.37278194499E+02  0.32246233624E+02  0.11889003566E+03  0.12870250624E+03  0.10566000000E+00 0.  1.
        994    1    1    2    0    0 -0.59220905482E+01 -0.17054744124E+02  0.11980226568E+02  0.17256564340E+03  0.17120000000E+03 0.  0.
        998    1    1    2    0    0  0.43200285047E+02 -0.15191489499E+02  0.13691297340E+04  0.13699318504E+04  0.10000000000E+02 0.  1.
</event>
<event>
 5    1  0.1106231E-008  0.3860079E+03  0.7957747E-01  0.3425409E+00
         13   -1    0    0    0    0  0.00000000000E+00  0.00000000000E+00  0.14999999963E+04  0.15000000000E+04  0.10566000000E+00 0.  1.
        994   -1    0    0    0    0 -0.00000000000E+00 -0.00000000000E+00  0.11368683772E-12  0.17120000000E+03  0.17120000000E+03 0.  0.
         13    1    1    2    0    0  0.55485338762E+01 -0.10707246841E+02  0.61657813312E+02  0.62826176627E+02  0.10566000000E+00 0.  1.
        994    1    1    2    0    0 -0.11938682595E+02  0.11287297914E+02  0.20158707401E+01  0.17199836909E+03  0.17120000000E+03 0.  0.
        998    1    1    2    0    0  0.63901487191E+01 -0.58005107286E+00  0.14363263122E+04  0.14363754543E+04  0.10000000000E+02 0.  1.
</event>
<event>
 5    1  0.1106231E-008  0.3819956E+03  0.7957747E-01  0.3442515E+00
         13   -1    0    0    0    0  0.00000000000E+00  0.00000000000E+00  0.14999999963E+04  0.15000000000E+04  0.10566000000E+00 0.  1.
        994   -1    0    0    0    0 -0.00000000000E+00 -0.00000000000E+00  0.11368683772E-12  0.17120000000E+03  0.17120000000E+03 0.  0.
         13    1    1    2    0    0  0.16971142739E+02 -0.45713882866E+01  0.50319620266E+02  0.53300962698E+02  0.10566000000E+00 0.  1.
        994    1    1    2    0    0  0.20030971473E+01  0.14833222840E+02  0.38735480962E+01  0.17189671688E+03  0.17120000000E+03 0.  0.
        998    1    1    2    0    0 -0.18974239887E+02 -0.10261834554E+02  0.14458068279E+04  0.14460023204E+04  0.10000000000E+02 0.  1.
</event>
<event>
 5    1  0.1106231E-008  0.3825763E+03  0.7957747E-01  0.3440017E+00
         13   -1    0    0    0    0  0.00000000000E+00  0.00000000000E+00  0.14999999963E+04  0.15000000000E+04  0.10566000000E+00 0. -1.
        994   -1    0    0    0    0 -0.00000000000E+00 -0.00000000000E+00  0.11368683772E-12  0.17120000000E+03  0.17120000000E+03 0.  0.
         13    1    1    2    0    0 -0.75128972195E+01 -0.28552021545E+02  0.14659596827E+03  0.14953946180E+03  0.10566000000E+00 0. -1.
        994    1    1    2    0    0  0.51325833779E+01  0.22523686515E+02  0.46091635097E+01  0.17281303265E+03  0.17120000000E+03 0.  0.
        998    1    1    2    0    0  0.23803138417E+01  0.60283350306E+01  0.13487948645E+04  0.13488475055E+04  0.10000000000E+02 0. -1.
</event>
<event>
 5    1  0.1106231E-008  0.3800491E+03  0.7957747E-01  0.3450945E+00
         13   -1    0    0    0    0  0.00000000000E+00  0.00000000000E+00  0.14999999963E+04  0.15000000000E+04  0.10566000000E+00 0.  1.
        994   -1    0    0    0    0 -0.00000000000E+00 -0.00000000000E+00  0.11368683772E-12  0.17120000000E+03  0.17120000000E+03 0.  0.
         13    1    1    2    0    0  0.20041579540E+02 -0.73751761832E+01  0.51499644493E+02  0.55751974684E+02  0.10566000000E+00 0.  1.
        994    1    1    2    0    0 -0.24834478962E+02  0.85161656483E+01  0.64155685085E+01  0.17332015446E+03  0.17120000000E+03 0.  0.
        998    1    1    2    0    0  0.47928994225E+01 -0.11409894651E+01  0.14420847833E+04  0.14421278709E+04  0.10000000000E+02 0.  1.
</event>
<event>
 5    1  0.1106231E-008  0.3825039E+03  0.7957747E-01  0.3440328E+00
         13   -1    0    0    0    0  0.00000000000E+00  0.00000000000E+00  0.14999999963E+04  0.15000000000E+04  0.10566000000E+00 0. -1.
        994   -1    0    0    0    0 -0.00000000000E+00 -0.00000000000E+00  0.11368683772E-12  0.17120000000E+03  0.17120000000E+03 0.  0.
         13    1    1    2    0    0 -0.10686371323E+02  0.13764054395E+02  0.48405193021E+02  0.51446298223E+02  0.10566000000E+00 0. -1.
        994    1    1    2    0    0  0.91700819446E+01 -0.28088209680E+02  0.57744201355E+01  0.17382698828E+03  0.17120000000E+03 0.  0.
        998    1    1    2    0    0  0.15162893785E+01  0.14324155285E+02  0.14458203831E+04  0.14459267135E+04  0.10000000000E+02 0. -1.
</event>
<event>
 5    1  0.1106231E-008  0.3765323E+03  0.7957747E-01  0.3466398E+00
         13   -1    0    0    0    0  0.00000000000E+00  0.00000000000E+00  0.14999999963E+04  0.15000000000E+04  0.10566000000E+00 0. -1.
        994   -1    0    0    0    0 -0.00000000000E+00 -0.00000000000E+00  0.11368683772E-12  0.17120000000E+03  0.17120000000E+03 0.  0.
         13    1    1    2    0    0 -0.13407315325E+02  0.68309717724E+01  0.16210306247E+02  0.22117944575E+02  0.10566000000E+00 0. -1.
        994    1    1    2    0    0  0.96824570245E+01 -0.28187158000E+02  0.89036632298E+01  0.17400281914E+03  0.17120000000E+03 0.  0.
        998    1    1    2    0    0  0.37248583005E+01  0.21356186228E+02  0.14748860268E+04  0.14750792363E+04  0.10000000000E+02 0. -1.
</event>
<event>
 5    1  0.1106231E-008  0.3853458E+03  0.7957747E-01  0.3428207E+00
         13   -1    0    0    0    0  0.00000000000E+00  0.00000000000E+00  0.14999999963E+04  0.15000000000E+04  0.10566000000E+00 0. -1.
        994   -1    0    0    0    0 -0.00000000000E+00 -0.00000000000E+00  0.11368683772E-12  0.17120000000E+03  0.17120000000E+03 0.  0.
         13    1    1    2    0    0 -0.45738624060E+01  0.12910956037E+02  0.66616746000E+02  0.68010403725E+02  0.10566000000E+00 0. -1.
        994    1    1    2    0    0  0.13268037795E+02 -0.17956451460E+00  0.20371527384E+01  0.17172554575E+03  0.17120000000E+03 0.  0.
        998    1    1    2    0    0 -0.86941753891E+01 -0.12731391523E+02  0.14313460975E+04  0.14314640505E+04  0.10000000000E+02 0. -1.
</event>
<event>
 5    1  0.1106231E-008  0.3833338E+03  0.7957747E-01  0.3436770E+00
         13   -1    0    0    0    0  0.00000000000E+00  0.00000000000E+00  0.14999999963E+04  0.15000000000E+04  0.10566000000E+00 0. -1.
        994   -1    0    0    0    0 -0.00000000000E+00 -0.00000000000E+00  0.11368683772E-12  0.17120000000E+03  0.17120000000E+03 0.  0.
         13    1    1    2    0    0  0.17554309153E+02  0.10544648310E+01  0.62789943363E+02  0.65206240633E+02  0.10566000000E+00 0. -1.
        994    1    1    2    0    0 -0.93969578762E+01 -0.40928063699E+01  0.28070751832E+01  0.17152951219E+03  0.17120000000E+03 0.  0.
        998    1    1    2    0    0 -0.81573512771E+01  0.30383415389E+01  0.14344029777E+04  0.14344642472E+04  0.10000000000E+02 0. -1.
</event>
<event>
 5    1  0.1106231E-008  0.3794116E+03  0.7957747E-01  0.3453725E+00
         13   -1    0    0    0    0  0.00000000000E+00  0.00000000000E+00  0.14999999963E+04  0.15000000000E+04  0.10566000000E+00 0.  1.
        994   -1    0    0    0    0 -0.00000000000E+00 -0.00000000000E+00  0.11368683772E-12  0.17120000000E+03  0.17120000000E+03 0.  0.
         13    1    1    2    0    0 -0.10907712965E+01 -0.21286437989E+02  0.48411434208E+02  0.52895938884E+02  0.10566000000E+00 0.  1.
        994    1    1    2    0    0 -0.83993258644E+00  0.20695469441E+02  0.58687199393E+01  0.17254822461E+03  0.17120000000E+03 0.  0.
        998    1    1    2    0    0  0.19307038829E+01  0.59096854870E+00  0.14457198421E+04  0.14457558365E+04  0.10000000000E+02 0.  1.
</event>
<event>
 5    1  0.1106231E-008  0.3692802E+03  0.7957747E-01  0.3499205E+00
         13   -1    0    0    0    0  0.00000000000E+00  0.00000000000E+00  0.14999999963E+04  0.15000000000E+04  0.10566000000E+00 0.  1.
        994   -1    0    0    0    0 -0.00000000000E+00 -0.00000000000E+00  0.11368683772E-12  0.17120000000E+03  0.17120000000E+03 0.  0.
         13    1    1    2    0    0 -0.29757933516E+01  0.18658333901E+02  0.12213044153E+02  0.22497963943E+02  0.10566000000E+00 0.  1.
        994    1    1    2    0    0  0.58395841507E+00 -0.15852109636E+02  0.11436671379E+02  0.17231328399E+03  0.17120000000E+03 0.  0.
        998    1    1    2    0    0  0.23918349365E+01 -0.28062242654E+01  0.14763502807E+04  0.14763887521E+04  0.10000000000E+02 0.  1.
</event>
<event>
 5    1  0.1106231E-008  0.3768828E+03  0.7957747E-01  0.3464845E+00
         13   -1    0    0    0    0  0.00000000000E+00  0.00000000000E+00  0.14999999963E+04  0.15000000000E+04  0.10566000000E+00 0. -1.
        994   -1    0    0    0    0 -0.00000000000E+00 -0.00000000000E+00  0.11368683772E-12  0.17120000000E+03  0.17120000000E+03 0.  0.
         13    1    1    2    0    0 -0.57648506125E+00  0.26489842685E+02  0.60968061123E+02  0.66476760915E+02  0.10566000000E+00 0. -1.
        994    1    1    2    0    0  0.16003740728E+01 -0.91131116072E+01  0.60042507077E+01  0.17155495046E+03  0.17120000000E+03 0.  0.
        998    1    1    2    0    0 -0.10238890116E+01 -0.17376731078E+02  0.14330276844E+04  0.14331682886E+04  0.10000000000E+02 0. -1.
</event>
<event>
 5    1  0.1106231E-008  0.4202640E+03  0.7957747E-01  0.3292627E+00
         13   -1    0    0    0    0  0.00000000000E+00  0.00000000000E+00  0.14999999963E+04  0.15000000000E+04  0.10566000000E+00 0.  1.
        994   -1    0    0    0    0 -0.00000000000E+00 -0.00000000000E+00  0.11368683772E-12  0.17120000000E+03  0.17120000000E+03 0.  0.
         13    1    1    2    0    0 -0.15622183978E+02 -0.34960354901E+02  0.15296157459E+01  0.38322707830E+02  0.10566000000E+00 0.  1.
        994    1    1    2    0    0  0.42630717513E+02  0.33654815875E+02  0.53204286530E+02  0.18732367926E+03  0.17120000000E+03 0.  0.
        998    1    1    2    0    0 -0.27008533535E+02  0.13055390266E+01  0.14452660940E+04  0.14455536129E+04  0.10000000000E+02 0.  1.
</event>
<event>
 5    1  0.1106231E-008  0.3762307E+03  0.7957747E-01  0.3467737E+00
         13   -1    0    0    0    0  0.00000000000E+00  0.00000000000E+00  0.14999999963E+04  0.15000000000E+04  0.10566000000E+00 0. -1.
        994   -1    0    0    0    0 -0.00000000000E+00 -0.00000000000E+00  0.11368683772E-12  0.17120000000E+03  0.17120000000E+03 0.  0.
         13    1    1    2    0    0  0.11565923423E+02 -0.92157203193E+02  0.52542925534E+03  0.53357533134E+03  0.10566000000E+00 0. -1.
        994    1    1    2    0    0 -0.81476007607E+01  0.80949912953E+02  0.28794899766E+02  0.19172338944E+03  0.17120000000E+03 0.  0.
        998    1    1    2    0    0 -0.34183226624E+01  0.11207290240E+02  0.94577584117E+03  0.94590127922E+03  0.10000000000E+02 0. -1.
</event>
<event>
 5    1  0.1106231E-008  0.3691347E+03  0.7957747E-01  0.3499877E+00
         13   -1    0    0    0    0  0.00000000000E+00  0.00000000000E+00  0.14999999963E+04  0.15000000000E+04  0.10566000000E+00 0.  1.
        994   -1    0    0    0    0 -0.00000000000E+00 -0.00000000000E+00  0.11368683772E-12  0.17120000000E+03  0.17120000000E+03 0.  0.
         13    1    1    2    0    0 -0.21769538760E+02  0.27910962919E+02  0.52972738143E+02  0.63710727662E+02  0.10566000000E+00 0.  1.
        994    1    1    2    0    0  0.20590312818E+02 -0.36903728767E+02  0.16732319044E+02  0.17713062039E+03  0.17120000000E+03 0.  0.
        998    1    1    2    0    0  0.11792259423E+01  0.89927658484E+01  0.14302949391E+04  0.14303586519E+04  0.10000000000E+02 0.  1.
</event>
<event>
 5    1  0.1106231E-008  0.3743208E+03  0.7957747E-01  0.3476266E+00
         13   -1    0    0    0    0  0.00000000000E+00  0.00000000000E+00  0.14999999963E+04  0.15000000000E+04  0.10566000000E+00 0.  1.
        994   -1    0    0    0    0 -0.00000000000E+00 -0.00000000000E+00  0.11368683772E-12  0.17120000000E+03  0.17120000000E+03 0.  0.
         13    1    1    2    0    0  0.32429921534E+02 -0.34788469169E+02  0.80670032911E+02  0.93646157272E+02  0.10566000000E+00 0.  1.
        994    1    1    2    0    0 -0.30568585809E+02  0.14967950875E+02  0.17365419614E+02  0.17541230228E+03  0.17120000000E+03 0.  0.
        998    1    1    2    0    0 -0.18613357251E+01  0.19820518293E+02  0.14019645438E+04  0.14021415405E+04  0.10000000000E+02 0.  1.
</event>
<event>
 5    1  0.1106231E-008  0.3848774E+03  0.7957747E-01  0.3430192E+00
         13   -1    0    0    0    0  0.00000000000E+00  0.00000000000E+00  0.14999999963E+04  0.15000000000E+04  0.10566000000E+00 0. -1.
        994   -1    0    0    0    0 -0.00000000000E+00 -0.00000000000E+00  0.11368683772E-12  0.17120000000E+03  0.17120000000E+03 0.  0.
         13    1    1    2    0    0  0.10778554182E+02 -0.17291943908E+00  0.32228898579E+02  0.33984116864E+02  0.10566000000E+00 0. -1.
        994    1    1    2    0    0 -0.20245539663E+02 -0.67104634113E+01  0.31890798396E+01  0.17255295542E+03  0.17120000000E+03 0.  0.
        998    1    1    2    0    0  0.94669854811E+01  0.68833828504E+01  0.14645820179E+04  0.14646629277E+04  0.10000000000E+02 0. -1.
</event>
<event>
 5    1  0.1106231E-008  0.3817614E+03  0.7957747E-01  0.3443525E+00
         13   -1    0    0    0    0  0.00000000000E+00  0.00000000000E+00  0.14999999963E+04  0.15000000000E+04  0.10566000000E+00 0. -1.
        994   -1    0    0    0    0 -0.00000000000E+00 -0.00000000000E+00  0.11368683772E-12  0.17120000000E+03  0.17120000000E+03 0.  0.
         13    1    1    2    0    0 -0.12351187267E+01 -0.11936211645E+02  0.21126423523E+02  0.24296822871E+02  0.10566000000E+00 0. -1.
        994    1    1    2    0    0 -0.11544843876E+02  0.57605783481E+01  0.38001205876E+01  0.17172754176E+03  0.17120000000E+03 0.  0.
        998    1    1    2    0    0  0.12779962603E+02  0.61756332971E+01  0.14750734522E+04  0.14751756354E+04  0.10000000000E+02 0. -1.
</event>
<event>
 5    1  0.1106231E-008  0.3927373E+03  0.7957747E-01  0.3397506E+00
         13   -1    0    0    0    0  0.00000000000E+00  0.00000000000E+00  0.14999999963E+04  0.15000000000E+04  0.10566000000E+00 0. -1.
        994   -1    0    0    0    0 -0.00000000000E+00 -0.00000000000E+00  0.11368683772E-12  0.17120000000E+03  0.17120000000E+03 0.  0.
         13    1    1    2    0    0 -0.11652541508E+03 -0.25513849157E+02  0.27378901061E+03  0.29864621604E+03  0.10566000000E+00 0. -1.
        994    1    1    2    0    0  0.92686105028E+02  0.41681674503E+01  0.57046077936E+02  0.20290831105E+03  0.17120000000E+03 0.  0.
        998    1    1    2    0    0  0.23839310056E+02  0.21345681707E+02  0.11691649077E+04  0.11696454729E+04  0.10000000000E+02 0. -1.
</event>
<event>
 5    1  0.1106231E-008  0.3771768E+03  0.7957747E-01  0.3463544E+00
         13   -1    0    0    0    0  0.00000000000E+00  0.00000000000E+00  0.14999999963E+04  0.15000000000E+04  0.10566000000E+00 0. -1.
        994   -1    0    0    0    0 -0.00000000000E+00 -0.00000000000E+00  0.11368683772E-12  0.17120000000E+03  0.17120000000E+03 0.  0.
         13    1    1    2    0    0  0.27424081205E+02  0.19533461158E+02  0.10811539754E+03  0.11323686098E+03  0.10566000000E+00 0. -1.
        994    1    1    2    0    0  0.55988944036E+00 -0.73531830318E+01  0.57486264862E+01  0.17145515298E+03  0.17120000000E+03 0.  0.
        998    1    1    2    0    0 -0.27983970645E+02 -0.12180278126E+02  0.13861359723E+04  0.13865079860E+04  0.10000000000E+02 0. -1.
</event>
<event>
 5    1  0.1106231E-008  0.3689606E+03  0.7957747E-01  0.3500681E+00
         13   -1    0    0    0    0  0.00000000000E+00  0.00000000000E+00  0.14999999963E+04  0.15000000000E+04  0.10566000000E+00 0. -1.
        994   -1    0    0    0    0 -0.00000000000E+00 -0.00000000000E+00  0.11368683772E-12  0.17120000000E+03  0.17120000000E+03 0.  0.
         13    1    1    2    0    0 -0.62289850058E+02 -0.20209695380E+02  0.19044159278E+03  0.20138636655E+03  0.10566000000E+00 0. -1.
        994    1    1    2    0    0  0.45857712035E+02  0.27955699469E+02  0.20506103690E+02  0.18059454913E+03  0.17120000000E+03 0.  0.
        998    1    1    2    0    0  0.16432138023E+02 -0.77460040888E+01  0.12890522998E+04  0.12892190843E+04  0.10000000000E+02 0. -1.
</event>
<event>
 5    1  0.1106231E-008  0.3775162E+03  0.7957747E-01  0.3462046E+00
         13   -1    0    0    0    0  0.00000000000E+00  0.00000000000E+00  0.14999999963E+04  0.15000000000E+04  0.10566000000E+00 0.  1.
        994   -1    0    0    0    0 -0.00000000000E+00 -0.00000000000E+00  0.11368683772E-12  0.17120000000E+03  0.17120000000E+03 0.  0.
         13    1    1    2    0    0 -0.29887930114E+02 -0.54859232949E+02  0.29792993319E+03  0.30440939549E+03  0.10566000000E+00 0.  1.
        994    1    1    2    0    0  0.21826648791E+02  0.55605922991E+02  0.17515928557E+02  0.18216659689E+03  0.17120000000E+03 0.  0.
        998    1    1    2    0    0  0.80612813232E+01 -0.74669004168E+00  0.11845541345E+04  0.11846240076E+04  0.10000000000E+02 0.  1.
</event>
<event>
 5    1  0.1106231E-008  0.3768263E+03  0.7957747E-01  0.3465095E+00
         13   -1    0    0    0    0  0.00000000000E+00  0.00000000000E+00  0.14999999963E+04  0.15000000000E+04  0.10566000000E+00 0. -1.
        994   -1    0    0    0    0 -0.00000000000E+00 -0.00000000000E+00  0.11368683772E-12  0.17120000000E+03  0.17120000000E+03 0.  0.
         13    1    1    2    0    0  0.73227542532E+01 -0.23567215237E+02  0.49348511371E+02  0.55175384933E+02  0.10566000000E+00 0. -1.
        994    1    1    2    0    0 -0.45975556939E+01  0.24591429152E+02  0.78612127315E+01  0.17319675104E+03  0.17120000000E+03 0.  0.
        998    1    1    2    0    0 -0.27251985593E+01 -0.10242139149E+01  0.14427902722E+04  0.14428278640E+04  0.10000000000E+02 0. -1.
</event>
<event>
 5    1  0.1106231E-008  0.3808593E+03  0.7957747E-01  0.3447425E+00
         13   -1    0    0    0    0  0.00000000000E+00  0.00000000000E+00  0.14999999963E+04  0.15000000000E+04  0.10566000000E+00 0.  1.
        994   -1    0    0    0    0 -0.00000000000E+00 -0.00000000000E+00  0.11368683772E-12  0.17120000000E+03  0.17120000000E+03 0.  0.
         13    1    1    2    0    0 -0.12846314829E+02 -0.35354914425E+01  0.22583412384E+02  0.26221159078E+02  0.10566000000E+00 0.  1.
        994    1    1    2    0    0  0.67775323777E+01  0.52662841202E+01  0.39456126589E+01  0.17146042270E+03  0.17120000000E+03 0.  0.
        998    1    1    2    0    0  0.60687824512E+01 -0.17307926776E+01  0.14734709712E+04  0.14735184182E+04  0.10000000000E+02 0.  1.
</event>
<event>
 5    1  0.1106231E-008  0.3718756E+03  0.7957747E-01  0.3487315E+00
         13   -1    0    0    0    0  0.00000000000E+00  0.00000000000E+00  0.14999999963E+04  0.15000000000E+04  0.10566000000E+00 0. -1.
        994   -1    0    0    0    0 -0.00000000000E+00 -0.00000000000E+00  0.11368683772E-12  0.17120000000E+03  0.17120000000E+03 0.  0.
         13    1    1    2    0    0 -0.51967324014E+02 -0.54294319499E+02  0.27208696360E+03  0.28227611096E+03  0.10566000000E+00 0. -1.
        994    1    1    2    0    0  0.50710943794E+02  0.58717810301E+02  0.29263719334E+02  0.19022404248E+03  0.17120000000E+03 0.  0.
        998    1    1    2    0    0  0.12563802204E+01 -0.44234908019E+01  0.11986493133E+04  0.11986998466E+04  0.10000000000E+02 0.  1.
</event>
<event>
 5    1  0.1106231E-008  0.3703981E+03  0.7957747E-01  0.3494063E+00
         13   -1    0    0    0    0  0.00000000000E+00  0.00000000000E+00  0.14999999963E+04  0.15000000000E+04  0.10566000000E+00 0.  1.
        994   -1    0    0    0    0 -0.00000000000E+00 -0.00000000000E+00  0.11368683772E-12  0.17120000000E+03  0.17120000000E+03 0.  0.
         13    1    1    2    0    0 -0.17108696498E+02 -0.51498634545E+02  0.12466230403E+03  0.13596145801E+03  0.10566000000E+00 0.  1.
        994    1    1    2    0    0  0.10693733941E+01  0.43109589341E+02  0.17687985572E+02  0.17743135317E+03  0.17120000000E+03 0.  0.
        998    1    1    2    0    0  0.16039323104E+02  0.83890452045E+01  0.13576497067E+04  0.13578071888E+04  0.10000000000E+02 0.  1.
</event>
<event>
 5    1  0.1106231E-008  0.3993955E+03  0.7957747E-01  0.3370823E+00
         13   -1    0    0    0    0  0.00000000000E+00  0.00000000000E+00  0.14999999963E+04  0.15000000000E+04  0.10566000000E+00 0. -1.
        994   -1    0    0    0    0 -0.00000000000E+00 -0.00000000000E+00  0.11368683772E-12  0.17120000000E+03  0.17120000000E+03 0.  0.
         13    1    1    2    0    0  0.10001403722E+03  0.46131475367E+01  0.15299603170E+03  0.18284388328E+03  0.10566000000E+00 0. -1.
        994    1    1    2    0    0 -0.10659894466E+03  0.90595021391E+01  0.73681861047E+02  0.21490431878E+03  0.17120000000E+03 0.  0.
        998    1    1    2    0    0  0.65849074403E+01 -0.13672649676E+02  0.12733221035E+04  0.12734517979E+04  0.10000000000E+02 0. -1.
</event>
<event>
 5    1  0.1106231E-008  0.3025633E+03  0.7957747E-01  0.3877888E+00
         13   -1    0    0    0    0  0.00000000000E+00  0.00000000000E+00  0.14999999963E+04  0.15000000000E+04  0.10566000000E+00 0. -1.
        994   -1    0    0    0    0 -0.00000000000E+00 -0.00000000000E+00  0.11368683772E-12  0.17120000000E+03  0.17120000000E+03 0.  0.
         13    1    1    2    0    0 -0.22322963561E+03  0.82601229334E+02  0.42569517031E+03  0.48772002470E+03  0.10566000000E+00 0. -1.
        994    1    1    2    0    0  0.20774560746E+03 -0.16843514348E+03  0.43719196560E+03  0.54034700866E+03  0.17120000000E+03 0.  0.
        998    1    1    2    0    0  0.15484028148E+02  0.85833914142E+02  0.63711286037E+03  0.64313296665E+03  0.10000000000E+02 0. -1.
</event>
<event>
 5    1  0.1106231E-008  0.3688358E+03  0.7957747E-01  0.3501258E+00
         13   -1    0    0    0    0  0.00000000000E+00  0.00000000000E+00  0.14999999963E+04  0.15000000000E+04  0.10566000000E+00 0.  1.
        994   -1    0    0    0    0 -0.00000000000E+00 -0.00000000000E+00  0.11368683772E-12  0.17120000000E+03  0.17120000000E+03 0.  0.
         13    1    1    2    0    0  0.46399413396E+02 -0.19381551749E+03  0.79660841536E+03  0.82115914351E+03  0.10566000000E+00 0.  1.
        994    1    1    2    0    0 -0.21714620215E+02  0.19733648803E+03  0.16238819912E+03  0.30837085052E+03  0.17120000000E+03 0.  0.
        998    1    1    2    0    0 -0.24684793181E+02 -0.35209705383E+01  0.54100338180E+03  0.54167000597E+03  0.10000000000E+02 0.  1.
</event>
<event>
 5    1  0.1106231E-008  0.3815173E+03  0.7957747E-01  0.3444578E+00
         13   -1    0    0    0    0  0.00000000000E+00  0.00000000000E+00  0.14999999963E+04  0.15000000000E+04  0.10566000000E+00 0.  1.
        994   -1    0    0    0    0 -0.00000000000E+00 -0.00000000000E+00  0.11368683772E-12  0.17120000000E+03  0.17120000000E+03 0.  0.
         13    1    1    2    0    0 -0.24783114262E+02 -0.11732578718E+02  0.11790813116E+03  0.12105451133E+03  0.10566000000E+00 0.  1.
        994    1    1    2    0    0 -0.18064593252E+01  0.18761994720E+02  0.45518078962E+01  0.17229461598E+03  0.17120000000E+03 0.  0.
        998    1    1    2    0    0  0.26589573587E+02 -0.70294160022E+01  0.13775400572E+04  0.13778508727E+04  0.10000000000E+02 0.  1.
</event>
<event>
 5    1  0.1106231E-008  0.3690102E+03  0.7957747E-01  0.3500452E+00
         13   -1    0    0    0    0  0.00000000000E+00  0.00000000000E+00  0.14999999963E+04  0.15000000000E+04  0.10566000000E+00 0. -1.
        994   -1    0    0    0    0 -0.00000000000E+00 -0.00000000000E+00  0.11368683772E-12  0.17120000000E+03  0.17120000000E+03 0.  0.
         13    1    1    2    0    0  0.13929446833E+02  0.21068786273E+02  0.26001157197E+02  0.36249063212E+02  0.10566000000E+00 0. -1.
        994    1    1    2    0    0 -0.88036253769E+01 -0.21400219476E+02  0.12284126476E+02  0.17319299344E+03  0.17120000000E+03 0.  0.
        998    1    1    2    0    0 -0.51258214562E+01  0.33143320260E+00  0.14617147126E+04  0.14617579433E+04  0.10000000000E+02 0. -1.
</event>
<event>
 5    1  0.1106231E-008  0.3837801E+03  0.7957747E-01  0.3434862E+00
         13   -1    0    0    0    0  0.00000000000E+00  0.00000000000E+00  0.14999999963E+04  0.15000000000E+04  0.10566000000E+00 0. -1.
        994   -1    0    0    0    0 -0.00000000000E+00 -0.00000000000E+00  0.11368683772E-12  0.17120000000E+03  0.17120000000E+03 0.  0.
         13    1    1    2    0    0 -0.81140579788E+01 -0.52632672031E+02  0.68330931671E+02  0.86632346668E+02  0.10566000000E+00 0. -1.
        994    1    1    2    0    0 -0.54842133030E+02  0.55613474327E+02  0.41197240307E+02  0.19263221613E+03  0.17120000000E+03 0.  0.
        998    1    1    2    0    0  0.62956191009E+02 -0.29808022957E+01  0.13904718243E+04  0.13919354372E+04  0.10000000000E+02 0. -1.
</event>
<event>
 5    1  0.1106231E-008  0.3841677E+03  0.7957747E-01  0.3433210E+00
         13   -1    0    0    0    0  0.00000000000E+00  0.00000000000E+00  0.14999999963E+04  0.15000000000E+04  0.10566000000E+00 0.  1.
        994   -1    0    0    0    0 -0.00000000000E+00 -0.00000000000E+00  0.11368683772E-12  0.17120000000E+03  0.17120000000E+03 0.  0.
         13    1    1    2    0    0 -0.11899539836E+02 -0.19450832513E+02  0.12435678118E+03  0.12643003648E+03  0.10566000000E+00 0.  1.
        994    1    1    2    0    0  0.20338436006E+02  0.72861092664E+01  0.35845501563E+01  0.17259498361E+03  0.17120000000E+03 0.  0.
        998    1    1    2    0    0 -0.84388961706E+01  0.12164723247E+02  0.13720586649E+04  0.13721749799E+04  0.10000000000E+02 0.  1.
</event>
<event>
 5    1  0.1106231E-008  0.3806250E+03  0.7957747E-01  0.3448441E+00
         13   -1    0    0    0    0  0.00000000000E+00  0.00000000000E+00  0.14999999963E+04  0.15000000000E+04  0.10566000000E+00 0.  1.
        994   -1    0    0    0    0 -0.00000000000E+00 -0.00000000000E+00  0.11368683772E-12  0.17120000000E+03  0.17120000000E+03 0.  0.
         13    1    1    2    0    0  0.11887420173E+02  0.51355651929E+01  0.20314495395E+02  0.24090966676E+02  0.10566000000E+00 0.  1.
        994    1    1    2    0    0 -0.13308876108E+02  0.46076241516E+01  0.44799631602E+01  0.17183674361E+03  0.17120000000E+03 0.  0.
        998    1    1    2    0    0  0.14214559349E+01 -0.97431893445E+01  0.14752055377E+04  0.14752722897E+04  0.10000000000E+02 0.  1.
</event>
<event>
 5    1  0.1106231E-008  0.3812268E+03  0.7957747E-01  0.3445834E+00
         13   -1    0    0    0    0  0.00000000000E+00  0.00000000000E+00  0.14999999963E+04  0.15000000000E+04  0.10566000000E+00 0.  1.
        994   -1    0    0    0    0 -0.00000000000E+00 -0.00000000000E+00  0.11368683772E-12  0.17120000000E+03  0.17120000000E+03 0.  0.
         13    1    1    2    0    0  0.35589450567E+01 -0.19992300495E+02  0.58480186941E+02  0.61905586159E+02  0.10566000000E+00 0.  1.
        994    1    1    2    0    0 -0.31510550773E+01  0.84303931692E+01  0.37848966966E+01  0.17147817972E+03  0.17120000000E+03 0.  0.
        998    1    1    2    0    0 -0.40788997944E+00  0.11561907325E+02  0.14377349126E+04  0.14378162341E+04  0.10000000000E+02 0.  1.
</event>
<event>
 5    1  0.1106231E-008  0.3806524E+03  0.7957747E-01  0.3448323E+00
         13   -1    0    0    0    0  0.00000000000E+00  0.00000000000E+00  0.14999999963E+04  0.15000000000E+04  0.10566000000E+00 0. -1.
        994   -1    0    0    0    0 -0.00000000000E+00 -0.00000000000E+00  0.11368683772E-12  0.17120000000E+03  0.17120000000E+03 0.  0.
         13    1    1    2    0    0  0.12267249784E+02 -0.27650487430E+02  0.14515656247E+03  0.14827499339E+03  0.10566000000E+00 0. -1.
        994    1    1    2    0    0  0.86366778411E+01 -0.90354502041E+01  0.43254922008E+01  0.17171016699E+03  0.17120000000E+03 0.  0.
        998    1    1    2    0    0 -0.20903927625E+02  0.36685937634E+02  0.13505179416E+04  0.13512148396E+04  0.10000000000E+02 0. -1.
</event>
<event>
 5    1  0.1106231E-008  0.3811160E+03  0.7957747E-01  0.3446313E+00
         13   -1    0    0    0    0  0.00000000000E+00  0.00000000000E+00  0.14999999963E+04  0.15000000000E+04  0.10566000000E+00 0.  1.
        994   -1    0    0    0    0 -0.00000000000E+00 -0.00000000000E+00  0.11368683772E-12  0.17120000000E+03  0.17120000000E+03 0.  0.
         13    1    1    2    0    0  0.25683771025E+02 -0.51570317356E+01  0.93783750009E+02  0.97373784974E+02  0.10566000000E+00 0.  1.
        994    1    1    2    0    0 -0.19359553688E+02 -0.32515949087E+01  0.48554037379E+01  0.17239019733E+03  0.17120000000E+03 0.  0.
        998    1    1    2    0    0 -0.63242173374E+01  0.84086266443E+01  0.14013608425E+04  0.14014360177E+04  0.10000000000E+02 0.  1.
</event>
<event>
 5    1  0.1106231E-008  0.3706186E+03  0.7957747E-01  0.3493053E+00
         13   -1    0    0    0    0  0.00000000000E+00  0.00000000000E+00  0.14999999963E+04  0.15000000000E+04  0.10566000000E+00 0. -1.
        994   -1    0    0    0    0 -0.00000000000E+00 -0.00000000000E+00  0.11368683772E-12  0.17120000000E+03  0.17120000000E+03 0.  0.
         13    1    1    2    0    0 -0.20185244636E+01  0.20694458158E+02  0.20173992331E+02  0.28971299075E+02  0.10566000000E+00 0. -1.
        994    1    1    2    0    0  0.50499835094E+01 -0.18053141934E+02  0.10159499707E+02  0.17252267591E+03  0.17120000000E+03 0.  0.
        998    1    1    2    0    0 -0.30314590458E+01 -0.26413162246E+01  0.14696665042E+04  0.14697060250E+04  0.10000000000E+02 0. -1.
</event>
<event>
 5    1  0.1106231E-008  0.3910478E+03  0.7957747E-01  0.3404421E+00
         13   -1    0    0    0    0  0.00000000000E+00  0.00000000000E+00  0.14999999963E+04  0.15000000000E+04  0.10566000000E+00 0.  1.
        994   -1    0    0    0    0 -0.00000000000E+00 -0.00000000000E+00  0.11368683772E-12  0.17120000000E+03  0.17120000000E+03 0.  0.
         13    1    1    2    0    0 -0.34070360169E+02  0.23551290993E+02  0.28907066893E+02  0.50508241208E+02  0.10566000000E+00 0.  1.
        994    1    1    2    0    0  0.29989193941E+02 -0.24617034753E+02  0.28240518397E+02  0.17779852933E+03  0.17120000000E+03 0.  0.
        998    1    1    2    0    0  0.40811662277E+01  0.10657437594E+01  0.14428524110E+04  0.14428932295E+04  0.10000000000E+02 0.  1.
</event>
<event>
 5    1  0.1106231E-008  0.3833670E+03  0.7957747E-01  0.3436628E+00
         13   -1    0    0    0    0  0.00000000000E+00  0.00000000000E+00  0.14999999963E+04  0.15000000000E+04  0.10566000000E+00 0.  1.
        994   -1    0    0    0    0 -0.00000000000E+00 -0.00000000000E+00  0.11368683772E-12  0.17120000000E+03  0.17120000000E+03 0.  0.
         13    1    1    2    0    0 -0.18063982643E+02 -0.44774604335E+01  0.70937412731E+02  0.73338140213E+02  0.10566000000E+00 0.  1.
        994    1    1    2    0    0  0.72424953457E+01  0.13574355774E+02  0.32260989199E+01  0.17192022740E+03  0.17120000000E+03 0.  0.
        998    1    1    2    0    0  0.10821487297E+02 -0.90968953406E+01  0.14258364846E+04  0.14259416324E+04  0.10000000000E+02 0.  1.
</event>
<event>
 5    1  0.1106231E-008  0.3844755E+03  0.7957747E-01  0.3431900E+00
         13   -1    0    0    0    0  0.00000000000E+00  0.00000000000E+00  0.14999999963E+04  0.15000000000E+04  0.10566000000E+00 0.  1.
        994   -1    0    0    0    0 -0.00000000000E+00 -0.00000000000E+00  0.11368683772E-12  0.17120000000E+03  0.17120000000E+03 0.  0.
         13    1    1    2    0    0 -0.80028280859E+01  0.17796832794E+02  0.96550183304E+02  0.98502393752E+02  0.10566000000E+00 0.  1.
        994    1    1    2    0    0  0.21939257125E+01 -0.18717868225E+02  0.30616484353E+01  0.17226138741E+03  0.17120000000E+03 0.  0.
        998    1    1    2    0    0  0.58089023733E+01  0.92103543069E+00  0.14003881645E+04  0.14004362188E+04  0.10000000000E+02 0.  1.
</event>
<event>
 5    1  0.1106231E-008  0.3713085E+03  0.7957747E-01  0.3489899E+00
         13   -1    0    0    0    0  0.00000000000E+00  0.00000000000E+00  0.14999999963E+04  0.15000000000E+04  0.10566000000E+00 0. -1.
        994   -1    0    0    0    0 -0.00000000000E+00 -0.00000000000E+00  0.11368683772E-12  0.17120000000E+03  0.17120000000E+03 0.  0.
         13    1    1    2    0    0  0.90859727475E+01  0.68782783090E+01  0.36290237772E+01  0.11960208647E+02  0.10566000000E+00 0. -1.
        994    1    1    2    0    0 -0.52545779362E+01 -0.93540921277E+00  0.86848043028E+01  0.17150321106E+03  0.17120000000E+03 0.  0.
        998    1    1    2    0    0 -0.38313948112E+01 -0.59428690962E+01  0.14876861682E+04  0.14877365803E+04  0.10000000000E+02 0. -1.
</event>
<event>
 5    1  0.1106231E-008  0.3830208E+03  0.7957747E-01  0.3438110E+00
         13   -1    0    0    0    0  0.00000000000E+00  0.00000000000E+00  0.14999999963E+04  0.15000000000E+04  0.10566000000E+00 0.  1.
        994   -1    0    0    0    0 -0.00000000000E+00 -0.00000000000E+00  0.11368683772E-12  0.17120000000E+03  0.17120000000E+03 0.  0.
         13    1    1    2    0    0  0.69698829076E+01 -0.93453218950E+01  0.25076698692E+02  0.27654408154E+02  0.10566000000E+00 0.  1.
        994    1    1    2    0    0 -0.68192667720E+01  0.46622964762E+01  0.28418667504E+01  0.17142273949E+03  0.17120000000E+03 0.  0.
        998    1    1    2    0    0 -0.15061613562E+00  0.46830254188E+01  0.14720814308E+04  0.14721228524E+04  0.10000000000E+02 0.  1.
</event>
<event>
 5    1  0.1106231E-008  0.3823925E+03  0.7957747E-01  0.3440807E+00
         13   -1    0    0    0    0  0.00000000000E+00  0.00000000000E+00  0.14999999963E+04  0.15000000000E+04  0.10566000000E+00 0. -1.
        994   -1    0    0    0    0 -0.00000000000E+00 -0.00000000000E+00  0.11368683772E-12  0.17120000000E+03  0.17120000000E+03 0.  0.
         13    1    1    2    0    0 -0.20659842406E+02  0.25829972828E+02  0.19790451311E+03  0.20064950551E+03  0.10566000000E+00 0. -1.
        994    1    1    2    0    0  0.22007511010E+02  0.14338253850E+01  0.45451162420E+01  0.17267450442E+03  0.17120000000E+03 0.  0.
        998    1    1    2    0    0 -0.13476686039E+01 -0.27263798213E+02  0.12975503669E+04  0.12978759901E+04  0.10000000000E+02 0. -1.
</event>
<event>
 5    1  0.1106231E-008  0.3827809E+03  0.7957747E-01  0.3439139E+00
         13   -1    0    0    0    0  0.00000000000E+00  0.00000000000E+00  0.14999999963E+04  0.15000000000E+04  0.10566000000E+00 0.  1.
        994   -1    0    0    0    0 -0.00000000000E+00 -0.00000000000E+00  0.11368683772E-12  0.17120000000E+03  0.17120000000E+03 0.  0.
         13    1    1    2    0    0  0.57079173918E+01  0.24592853733E+02  0.12158394267E+03  0.12417751428E+03  0.10566000000E+00 0.  1.
        994    1    1    2    0    0  0.65820264143E+01 -0.99735086156E+01  0.32090710071E+01  0.17164653239E+03  0.17120000000E+03 0.  0.
        998    1    1    2    0    0 -0.12289943806E+02 -0.14619345117E+02  0.13752069826E+04  0.13753759533E+04  0.10000000000E+02 0.  1.
</event>
<event>
 5    1  0.4808419E-008  0.3863603E+03  0.7957747E-01  0.3423923E+00
         13   -1    0    0    0    0  0.00000000000E+00  0.00000000000E+00  0.14999999963E+04  0.15000000000E+04  0.10566000000E+00 0.  1.
        994   -1    0    0    0    0 -0.00000000000E+00 -0.00000000000E+00  0.11368683772E-12  0.17120000000E+03  0.17120000000E+03 0.  0.
         13    1    1    2    0    0 -0.19935322249E+01  0.11066179563E+02  0.67820275644E+02  0.68746166826E+02  0.10566000000E+00 0.  1.
        994    1    1    2    0    0  0.26953567244E+01 -0.62445522583E+01  0.11077514209E+01  0.17133863106E+03  0.17120000000E+03 0.  0.
        998    1    1    2    0    0 -0.70182449951E+00 -0.48216273049E+01  0.14310719692E+04  0.14311152021E+04  0.10000000000E+02 0.  1.
</event>
<event>
 5    1  0.1106231E-008  0.3839377E+03  0.7957747E-01  0.3434190E+00
         13   -1    0    0    0    0  0.00000000000E+00  0.00000000000E+00  0.14999999963E+04  0.15000000000E+04  0.10566000000E+00 0. -1.
        994   -1    0    0    0    0 -0.00000000000E+00 -0.00000000000E+00  0.11368683772E-12  0.17120000000E+03  0.17120000000E+03 0.  0.
         13    1    1    2    0    0  0.17597814461E+03  0.83434486469E+02  0.11782392669E+04  0.11942266963E+04  0.10566000000E+00 0. -1.
        994    1    1    2    0    0 -0.18785151606E+03 -0.70469565669E+02  0.14878871774E+03  0.30282284309E+03  0.17120000000E+03 0.  0.
        998    1    1    2    0    0  0.11873371450E+02 -0.12964920800E+02  0.17297201162E+03  0.17415046060E+03  0.10000000000E+02 0. -1.
</event>
<event>
 5    1  0.1106231E-008  0.3822658E+03  0.7957747E-01  0.3441351E+00
         13   -1    0    0    0    0  0.00000000000E+00  0.00000000000E+00  0.14999999963E+04  0.15000000000E+04  0.10566000000E+00 0. -1.
        994   -1    0    0    0    0 -0.00000000000E+00 -0.00000000000E+00  0.11368683772E-12  0.17120000000E+03  0.17120000000E+03 0.  0.
         13    1    1    2    0    0  0.50563011340E+00 -0.11280135729E+03  0.53036572698E+03  0.54222893448E+03  0.10566000000E+00 0. -1.
        994    1    1    2    0    0 -0.35431437799E+02  0.18201488941E+02  0.23397232874E+02  0.17732329652E+03  0.17120000000E+03 0.  0.
        998    1    1    2    0    0  0.34925807685E+02  0.94599868345E+02  0.94623703642E+03  0.95164776899E+03  0.10000000000E+02 0. -1.
</event>
<event>
 5    1  0.1106231E-008  0.3789364E+03  0.7957747E-01  0.3455803E+00
         13   -1    0    0    0    0  0.00000000000E+00  0.00000000000E+00  0.14999999963E+04  0.15000000000E+04  0.10566000000E+00 0. -1.
        994   -1    0    0    0    0 -0.00000000000E+00 -0.00000000000E+00  0.11368683772E-12  0.17120000000E+03  0.17120000000E+03 0.  0.
         13    1    1    2    0    0  0.17826175545E+02 -0.58186429359E+02  0.32578845659E+03  0.33142353976E+03  0.10566000000E+00 0. -1.
        994    1    1    2    0    0  0.43436814922E+02  0.80580106869E+02  0.33317577323E+02  0.19697566213E+03  0.17120000000E+03 0.  0.
        998    1    1    2    0    0 -0.61262990466E+02 -0.22393677510E+02  0.11408939624E+04  0.11428007981E+04  0.10000000000E+02 0. -1.
</event>
<event>
 5    1  0.1106231E-008  0.3850365E+03  0.7957747E-01  0.3429517E+00
         13   -1    0    0    0    0  0.00000000000E+00  0.00000000000E+00  0.14999999963E+04  0.15000000000E+04  0.10566000000E+00 0. -1.
        994   -1    0    0    0    0 -0.00000000000E+00 -0.00000000000E+00  0.11368683772E-12  0.17120000000E+03  0.17120000000E+03 0.  0.
         13    1    1    2    0    0  0.56351306478E+01 -0.93496969117E+01  0.36481826190E+02  0.38080261763E+02  0.10566000000E+00 0. -1.
        994    1    1    2    0    0 -0.30788216744E+01  0.90026721785E+01  0.19097382631E+01  0.17147482133E+03  0.17120000000E+03 0.  0.
        998    1    1    2    0    0 -0.25563089734E+01  0.34702473313E+00  0.14616084318E+04  0.14616449169E+04  0.10000000000E+02 0. -1.
</event>
<event>
 5    1  0.1106231E-008  0.3826795E+03  0.7957747E-01  0.3439574E+00
         13   -1    0    0    0    0  0.00000000000E+00  0.00000000000E+00  0.14999999963E+04  0.15000000000E+04  0.10566000000E+00 0. -1.
        994   -1    0    0    0    0 -0.00000000000E+00 -0.00000000000E+00  0.11368683772E-12  0.17120000000E+03  0.17120000000E+03 0.  0.
         13    1    1    2    0    0  0.21755990138E+02  0.52887556198E+01  0.84251904509E+02  0.87176192967E+02  0.10566000000E+00 0. -1.
        994    1    1    2    0    0 -0.22179620882E+02 -0.10726093550E+02  0.48005180642E+01  0.17303025643E+03  0.17120000000E+03 0.  0.
        998    1    1    2    0    0  0.42363074405E+00  0.54373379303E+01  0.14109475737E+04  0.14109935506E+04  0.10000000000E+02 0. -1.
</event>
<event>
 5    1  0.1106231E-008  0.3789833E+03  0.7957747E-01  0.3455597E+00
         13   -1    0    0    0    0  0.00000000000E+00  0.00000000000E+00  0.14999999963E+04  0.15000000000E+04  0.10566000000E+00 0.  1.
        994   -1    0    0    0    0 -0.00000000000E+00 -0.00000000000E+00  0.11368683772E-12  0.17120000000E+03  0.17120000000E+03 0.  0.
         13    1    1    2    0    0 -0.18293581309E+02 -0.18663847525E+02  0.67117096961E+02  0.72025760601E+02  0.10566000000E+00 0.  1.
        994    1    1    2    0    0  0.23927320439E+02  0.22837053389E+02  0.83256218687E+01  0.17456461168E+03  0.17120000000E+03 0.  0.
        998    1    1    2    0    0 -0.56337391301E+01 -0.41732058643E+01  0.14245572774E+04  0.14246096277E+04  0.10000000000E+02 0.  1.
</event>
<event>
 5    1  0.1106231E-008  0.3814412E+03  0.7957747E-01  0.3444907E+00
         13   -1    0    0    0    0  0.00000000000E+00  0.00000000000E+00  0.14999999963E+04  0.15000000000E+04  0.10566000000E+00 0.  1.
        994   -1    0    0    0    0 -0.00000000000E+00 -0.00000000000E+00  0.11368683772E-12  0.17120000000E+03  0.17120000000E+03 0.  0.
         13    1    1    2    0    0 -0.44361199110E+02  0.61616892749E+02  0.44721347379E+03  0.45361267593E+03  0.10566000000E+00 0.  1.
        994    1    1    2    0    0  0.54164499501E+02 -0.81046014481E+02  0.35695704751E+02  0.20021456692E+03  0.17120000000E+03 0.  0.
        998    1    1    2    0    0 -0.98033003917E+01  0.19429121732E+02  0.10170908177E+04  0.10173727572E+04  0.10000000000E+02 0.  1.
</event>
<event>
 5    1  0.1106231E-008  0.3817192E+03  0.7957747E-01  0.3443707E+00
         13   -1    0    0    0    0  0.00000000000E+00  0.00000000000E+00  0.14999999963E+04  0.15000000000E+04  0.10566000000E+00 0.  1.
        994   -1    0    0    0    0 -0.00000000000E+00 -0.00000000000E+00  0.11368683772E-12  0.17120000000E+03  0.17120000000E+03 0.  0.
         13    1    1    2    0    0  0.14146059543E+02 -0.23411796536E+01  0.29890750245E+02  0.33152077416E+02  0.10566000000E+00 0.  1.
        994    1    1    2    0    0 -0.13268679690E+02  0.60818998237E+00  0.38544599386E+01  0.17175774980E+03  0.17120000000E+03 0.  0.
        998    1    1    2    0    0 -0.87737985311E+00  0.17329896713E+01  0.14662547861E+04  0.14662901728E+04  0.10000000000E+02 0.  1.
</event>
<event>
 5    1  0.1106231E-008  0.3828230E+03  0.7957747E-01  0.3438958E+00
         13   -1    0    0    0    0  0.00000000000E+00  0.00000000000E+00  0.14999999963E+04  0.15000000000E+04  0.10566000000E+00 0. -1.
        994   -1    0    0    0    0 -0.00000000000E+00 -0.00000000000E+00  0.11368683772E-12  0.17120000000E+03  0.17120000000E+03 0.  0.
         13    1    1    2    0    0 -0.12386818211E+02 -0.29951380843E+01  0.28764116354E+02  0.31460922923E+02  0.10566000000E+00 0. -1.
        994    1    1    2    0    0  0.10985641380E+02  0.13593489509E+00  0.31147436843E+01  0.17158043135E+03  0.17120000000E+03 0.  0.
        998    1    1    2    0    0  0.14011768301E+01  0.28592031893E+01  0.14681211362E+04  0.14681586457E+04  0.10000000000E+02 0. -1.
</event>
<event>
 5    1  0.1106231E-008  0.3817533E+03  0.7957747E-01  0.3443560E+00
         13   -1    0    0    0    0  0.00000000000E+00  0.00000000000E+00  0.14999999963E+04  0.15000000000E+04  0.10566000000E+00 0.  1.
        994   -1    0    0    0    0 -0.00000000000E+00 -0.00000000000E+00  0.11368683772E-12  0.17120000000E+03  0.17120000000E+03 0.  0.
         13    1    1    2    0    0 -0.30266034952E+01  0.15441847280E+02  0.36185393124E+02  0.39458900336E+02  0.10566000000E+00 0.  1.
        994    1    1    2    0    0  0.46390534781E+01 -0.15462683225E+02  0.41173923527E+01  0.17200874486E+03  0.17120000000E+03 0.  0.
        998    1    1    2    0    0 -0.16124499830E+01  0.20835945125E-01  0.14596972108E+04  0.14597323548E+04  0.10000000000E+02 0.  1.
</event>
<event>
 5    1  0.1106231E-008  0.3812650E+03  0.7957747E-01  0.3445669E+00
         13   -1    0    0    0    0  0.00000000000E+00  0.00000000000E+00  0.14999999963E+04  0.15000000000E+04  0.10566000000E+00 0. -1.
        994   -1    0    0    0    0 -0.00000000000E+00 -0.00000000000E+00  0.11368683772E-12  0.17120000000E+03  0.17120000000E+03 0.  0.
         13    1    1    2    0    0  0.30432277709E+02  0.11831173469E+02  0.13892940906E+03  0.14271472264E+03  0.10566000000E+00 0. -1.
        994    1    1    2    0    0 -0.34364163727E+02 -0.18002312872E+01  0.74479854098E+01  0.17478286263E+03  0.17120000000E+03 0.  0.
        998    1    1    2    0    0  0.39318860180E+01 -0.10030942182E+02  0.13536226018E+04  0.13537024147E+04  0.10000000000E+02 0. -1.
</event>
<event>
 5    1  0.1106231E-008  0.3757635E+03  0.7957747E-01  0.3469815E+00
         13   -1    0    0    0    0  0.00000000000E+00  0.00000000000E+00  0.14999999963E+04  0.15000000000E+04  0.10566000000E+00 0.  1.
        994   -1    0    0    0    0 -0.00000000000E+00 -0.00000000000E+00  0.11368683772E-12  0.17120000000E+03  0.17120000000E+03 0.  0.
         13    1    1    2    0    0  0.16283767151E+01 -0.25684318888E+02  0.55402673172E+02  0.61088486690E+02  0.10566000000E+00 0.  1.
        994    1    1    2    0    0  0.14640170387E+02 -0.11423925367E+02  0.74572108297E+01  0.17236557270E+03  0.17120000000E+03 0.  0.
        998    1    1    2    0    0 -0.16268547102E+02  0.37108244255E+02  0.14371401123E+04  0.14377459406E+04  0.10000000000E+02 0.  1.
</event>
<event>
 5    1  0.1106231E-008  0.3847294E+03  0.7957747E-01  0.3430821E+00
         13   -1    0    0    0    0  0.00000000000E+00  0.00000000000E+00  0.14999999963E+04  0.15000000000E+04  0.10566000000E+00 0.  1.
        994   -1    0    0    0    0 -0.00000000000E+00 -0.00000000000E+00  0.11368683772E-12  0.17120000000E+03  0.17120000000E+03 0.  0.
         13    1    1    2    0    0  0.10582771088E+02 -0.19984242790E+02  0.13666432806E+03  0.13852261452E+03  0.10566000000E+00 0.  1.
        994    1    1    2    0    0 -0.18171794086E+02  0.13734234353E+02  0.34741938479E+01  0.17274360572E+03  0.17120000000E+03 0.  0.
        998    1    1    2    0    0  0.75890229973E+01  0.62500084367E+01  0.13598614744E+04  0.13599337798E+04  0.10000000000E+02 0.  1.
</event>
<event>
 5    1  0.1106231E-008  0.3706384E+03  0.7957747E-01  0.3492962E+00
         13   -1    0    0    0    0  0.00000000000E+00  0.00000000000E+00  0.14999999963E+04  0.15000000000E+04  0.10566000000E+00 0. -1.
        994   -1    0    0    0    0 -0.00000000000E+00 -0.00000000000E+00  0.11368683772E-12  0.17120000000E+03  0.17120000000E+03 0.  0.
         13    1    1    2    0    0 -0.14227230391E+02  0.27736440977E+02  0.49733069721E+02  0.58695090345E+02  0.10566000000E+00 0. -1.
        994    1    1    2    0    0  0.15207826351E+02 -0.24683357983E+02  0.11841147685E+02  0.17404079672E+03  0.17120000000E+03 0.  0.
        998    1    1    2    0    0 -0.98059596080E+00 -0.30530829944E+01  0.14384257789E+04  0.14384641129E+04  0.10000000000E+02 0. -1.
</event>
<event>
 5    1  0.1106231E-008  0.3855131E+03  0.7957747E-01  0.3427499E+00
         13   -1    0    0    0    0  0.00000000000E+00  0.00000000000E+00  0.14999999963E+04  0.15000000000E+04  0.10566000000E+00 0. -1.
        994   -1    0    0    0    0 -0.00000000000E+00 -0.00000000000E+00  0.11368683772E-12  0.17120000000E+03  0.17120000000E+03 0.  0.
         13    1    1    2    0    0  0.72848234465E+01  0.71916082583E+01  0.38203465287E+02  0.39551280712E+02  0.10566000000E+00 0. -1.
        994    1    1    2    0    0 -0.74980010423E+01 -0.21938452150E+01  0.15760251054E+01  0.17138540437E+03  0.17120000000E+03 0.  0.
        998    1    1    2    0    0  0.21317759583E+00 -0.49977630433E+01  0.14602205059E+04  0.14602633149E+04  0.10000000000E+02 0. -1.
</event>
<event>
 5    1  0.1106231E-008  0.3791799E+03  0.7957747E-01  0.3454737E+00
         13   -1    0    0    0    0  0.00000000000E+00  0.00000000000E+00  0.14999999963E+04  0.15000000000E+04  0.10566000000E+00 0. -1.
        994   -1    0    0    0    0 -0.00000000000E+00 -0.00000000000E+00  0.11368683772E-12  0.17120000000E+03  0.17120000000E+03 0.  0.
         13    1    1    2    0    0 -0.79036639431E+01 -0.81477212141E+01  0.11940395637E+02  0.16475359684E+02  0.10566000000E+00 0. -1.
        994    1    1    2    0    0  0.12835045194E+02  0.99613759634E+01  0.54329994812E+01  0.17205500539E+03  0.17120000000E+03 0.  0.
        998    1    1    2    0    0 -0.49313812509E+01 -0.18136547493E+01  0.14826266012E+04  0.14826696349E+04  0.10000000000E+02 0. -1.
</event>
<event>
 5    1  0.1492525E-008  0.3865570E+03  0.7957747E-01  0.3423095E+00
         13   -1    0    0    0    0  0.00000000000E+00  0.00000000000E+00  0.14999999963E+04  0.15000000000E+04  0.10566000000E+00 0. -1.
        994   -1    0    0    0    0 -0.00000000000E+00 -0.00000000000E+00  0.11368683772E-12  0.17120000000E+03  0.17120000000E+03 0.  0.
         13    1    1    2    0    0 -0.61150963092E+01 -0.82595891450E+01  0.55362638913E+02  0.56308508834E+02  0.10566000000E+00 0. -1.
        994    1    1    2    0    0 -0.47202183010E+00  0.30077163122E+02  0.38254945313E+01  0.17386469726E+03  0.17120000000E+03 0.  0.
        998    1    1    2    0    0  0.65871181393E+01 -0.21817573977E+02  0.14408118628E+04  0.14410267939E+04  0.10000000000E+02 0. -1.
</event>
<event>
 5    1  0.1106231E-008  0.3855837E+03  0.7957747E-01  0.3427200E+00
         13   -1    0    0    0    0  0.00000000000E+00  0.00000000000E+00  0.14999999963E+04  0.15000000000E+04  0.10566000000E+00 0.  1.
        994   -1    0    0    0    0 -0.00000000000E+00 -0.00000000000E+00  0.11368683772E-12  0.17120000000E+03  0.17120000000E+03 0.  0.
         13    1    1    2    0    0 -0.13415703476E+02 -0.74002114741E+02  0.15268142616E+03  0.17019965671E+03  0.10566000000E+00 0.  1.
        994    1    1    2    0    0 -0.19286247541E+01  0.24663933793E+02  0.21696049446E+02  0.17433355324E+03  0.17120000000E+03 0.  0.
        998    1    1    2    0    0  0.15344328230E+02  0.49338180947E+02  0.13256225207E+04  0.13266667901E+04  0.10000000000E+02 0.  1.
</event>
<event>
 5    1  0.1106231E-008  0.3728670E+03  0.7957747E-01  0.3482818E+00
         13   -1    0    0    0    0  0.00000000000E+00  0.00000000000E+00  0.14999999963E+04  0.15000000000E+04  0.10566000000E+00 0.  1.
        994   -1    0    0    0    0 -0.00000000000E+00 -0.00000000000E+00  0.11368683772E-12  0.17120000000E+03  0.17120000000E+03 0.  0.
         13    1    1    2    0    0  0.31165380209E+02  0.23159414621E+02  0.54414447126E+02  0.66847457911E+02  0.10566000000E+00 0.  1.
        994    1    1    2    0    0 -0.28593181211E+02 -0.21321673138E+02  0.16968874894E+02  0.17569737184E+03  0.17120000000E+03 0.  0.
        998    1    1    2    0    0 -0.25721989980E+01 -0.18377414828E+01  0.14286166743E+04  0.14286551702E+04  0.10000000000E+02 0.  1.
</event>
<event>
 5    1  0.1106231E-008  0.3848165E+03  0.7957747E-01  0.3430451E+00
         13   -1    0    0    0    0  0.00000000000E+00  0.00000000000E+00  0.14999999963E+04  0.15000000000E+04  0.10566000000E+00 0.  1.
        994   -1    0    0    0    0 -0.00000000000E+00 -0.00000000000E+00  0.11368683772E-12  0.17120000000E+03  0.17120000000E+03 0.  0.
         13    1    1    2    0    0  0.94445467714E+01 -0.33394677208E+01  0.29545563028E+02  0.31197803882E+02  0.10566000000E+00 0.  1.
        994    1    1    2    0    0 -0.40299283682E+01 -0.78314109458E+01  0.19765515168E+01  0.17143779652E+03  0.17120000000E+03 0.  0.
        998    1    1    2    0    0 -0.54146184033E+01  0.11170878667E+02  0.14684778817E+04  0.14685643996E+04  0.10000000000E+02 0.  1.
</event>
<event>
 5    1  0.1106231E-008  0.3824742E+03  0.7957747E-01  0.3440455E+00
         13   -1    0    0    0    0  0.00000000000E+00  0.00000000000E+00  0.14999999963E+04  0.15000000000E+04  0.10566000000E+00 0.  1.
        994   -1    0    0    0    0 -0.00000000000E+00 -0.00000000000E+00  0.11368683772E-12  0.17120000000E+03  0.17120000000E+03 0.  0.
         13    1    1    2    0    0  0.14073765596E+01  0.26933568938E+02  0.12241564308E+03  0.12535150051E+03  0.10566000000E+00 0.  1.
        994    1    1    2    0    0 -0.88656802908E+01 -0.19053564561E+02  0.43551072148E+01  0.17253998252E+03  0.17120000000E+03 0.  0.
        998    1    1    2    0    0  0.74583037312E+01 -0.78800043777E+01  0.13732292460E+04  0.13733085170E+04  0.10000000000E+02 0.  1.
</event>
<event>
 5    1  0.1106231E-008  0.3847409E+03  0.7957747E-01  0.3430772E+00
         13   -1    0    0    0    0  0.00000000000E+00  0.00000000000E+00  0.14999999963E+04  0.15000000000E+04  0.10566000000E+00 0.  1.
        994   -1    0    0    0    0 -0.00000000000E+00 -0.00000000000E+00  0.11368683772E-12  0.17120000000E+03  0.17120000000E+03 0.  0.
         13    1    1    2    0    0 -0.93791656452E+01  0.36700218179E+01  0.28520048756E+02  0.30246357688E+02  0.10566000000E+00 0.  1.
        994    1    1    2    0    0  0.88446769007E+01  0.44397967133E+01  0.20812389621E+01  0.17149843049E+03  0.17120000000E+03 0.  0.
        998    1    1    2    0    0  0.53448874449E+00 -0.81098185312E+01  0.14693987086E+04  0.14694552118E+04  0.10000000000E+02 0.  1.
</event>
<event>
 5    1  0.1106231E-008  0.3735758E+03  0.7957747E-01  0.3479617E+00
         13   -1    0    0    0    0  0.00000000000E+00  0.00000000000E+00  0.14999999963E+04  0.15000000000E+04  0.10566000000E+00 0. -1.
        994   -1    0    0    0    0 -0.00000000000E+00 -0.00000000000E+00  0.11368683772E-12  0.17120000000E+03  0.17120000000E+03 0.  0.
         13    1    1    2    0    0  0.22168630385E+02  0.21504647501E+02  0.60011654747E+02  0.67493021171E+02  0.10566000000E+00 0. -1.
        994    1    1    2    0    0 -0.19993060362E+02 -0.19132394586E+02  0.10031926825E+02  0.17371197581E+03  0.17120000000E+03 0.  0.
        998    1    1    2    0    0 -0.21755700235E+01 -0.23722529155E+01  0.14299564147E+04  0.14299950030E+04  0.10000000000E+02 0. -1.
</event>
<event>
 5    1  0.1106231E-008  0.3783380E+03  0.7957747E-01  0.3458427E+00
         13   -1    0    0    0    0  0.00000000000E+00  0.00000000000E+00  0.14999999963E+04  0.15000000000E+04  0.10566000000E+00 0. -1.
        994   -1    0    0    0    0 -0.00000000000E+00 -0.00000000000E+00  0.11368683772E-12  0.17120000000E+03  0.17120000000E+03 0.  0.
         13    1    1    2    0    0 -0.20191658118E+02 -0.19531315132E+01  0.38672021840E+02  0.43669831892E+02  0.10566000000E+00 0. -1.
        994    1    1    2    0    0  0.19950817374E+02 -0.44269154490E+01  0.63795722226E+01  0.17253339281E+03  0.17120000000E+03 0.  0.
        998    1    1    2    0    0  0.24084074431E+00  0.63800469622E+01  0.14549484022E+04  0.14549967753E+04  0.10000000000E+02 0. -1.
</event>
<event>
 5    1  0.1106231E-008  0.3845667E+03  0.7957747E-01  0.3431512E+00
         13   -1    0    0    0    0  0.00000000000E+00  0.00000000000E+00  0.14999999963E+04  0.15000000000E+04  0.10566000000E+00 0.  1.
        994   -1    0    0    0    0 -0.00000000000E+00 -0.00000000000E+00  0.11368683772E-12  0.17120000000E+03  0.17120000000E+03 0.  0.
         13    1    1    2    0    0  0.62814277275E+01 -0.15661121196E+02  0.80130933192E+02  0.81888367120E+02  0.10566000000E+00 0.  1.
        994    1    1    2    0    0 -0.69995948947E+01  0.24851863801E+01  0.20271380254E+01  0.17137304271E+03  0.17120000000E+03 0.  0.
        998    1    1    2    0    0  0.71816716721E+00  0.13175934816E+02  0.14178419251E+04  0.14179385902E+04  0.10000000000E+02 0.  1.
</event>
<event>
 5    1  0.1106231E-008  0.3751799E+03  0.7957747E-01  0.3472419E+00
         13   -1    0    0    0    0  0.00000000000E+00  0.00000000000E+00  0.14999999963E+04  0.15000000000E+04  0.10566000000E+00 0. -1.
        994   -1    0    0    0    0 -0.00000000000E+00 -0.00000000000E+00  0.11368683772E-12  0.17120000000E+03  0.17120000000E+03 0.  0.
         13    1    1    2    0    0  0.42092780364E+00  0.26666751209E+02  0.52506281010E+02  0.58891540222E+02  0.10566000000E+00 0. -1.
        994    1    1    2    0    0  0.43151227752E+01 -0.11248632064E+02  0.70796259268E+01  0.17176936022E+03  0.17120000000E+03 0.  0.
        998    1    1    2    0    0 -0.47360505788E+01 -0.15418119144E+02  0.14404140893E+04  0.14405390996E+04  0.10000000000E+02 0. -1.
</event>
<event>
 5    1  0.1106231E-008  0.3836288E+03  0.7957747E-01  0.3435508E+00
         13   -1    0    0    0    0  0.00000000000E+00  0.00000000000E+00  0.14999999963E+04  0.15000000000E+04  0.10566000000E+00 0. -1.
        994   -1    0    0    0    0 -0.00000000000E+00 -0.00000000000E+00  0.11368683772E-12  0.17120000000E+03  0.17120000000E+03 0.  0.
         13    1    1    2    0    0 -0.63532929314E+01 -0.94098593980E+01  0.27089400316E+02  0.29372717928E+02  0.10566000000E+00 0. -1.
        994    1    1    2    0    0 -0.93660203933E+01  0.16467782727E+02  0.34989294566E+01  0.17228056395E+03  0.17120000000E+03 0.  0.
        998    1    1    2    0    0  0.15719313325E+02 -0.70579233287E+01  0.14694116665E+04  0.14695467181E+04  0.10000000000E+02 0. -1.
</event>
<event>
 5    1  0.1106231E-008  0.3799029E+03  0.7957747E-01  0.3451582E+00
         13   -1    0    0    0    0  0.00000000000E+00  0.00000000000E+00  0.14999999963E+04  0.15000000000E+04  0.10566000000E+00 0.  1.
        994   -1    0    0    0    0 -0.00000000000E+00 -0.00000000000E+00  0.11368683772E-12  0.17120000000E+03  0.17120000000E+03 0.  0.
         13    1    1    2    0    0  0.98833963294E+00  0.14369460412E+02  0.22966070787E+02  0.27109219450E+02  0.10566000000E+00 0.  1.
        994    1    1    2    0    0  0.74402520934E+00 -0.11937352325E+02  0.46606950367E+01  0.17168056393E+03  0.17120000000E+03 0.  0.
        998    1    1    2    0    0 -0.17323648423E+01 -0.24321080870E+01  0.14723732305E+04  0.14724102166E+04  0.10000000000E+02 0.  1.
</event>
<event>
 5    1  0.1106231E-008  0.3818474E+03  0.7957747E-01  0.3443154E+00
         13   -1    0    0    0    0  0.00000000000E+00  0.00000000000E+00  0.14999999963E+04  0.15000000000E+04  0.10566000000E+00 0. -1.
        994   -1    0    0    0    0 -0.00000000000E+00 -0.00000000000E+00  0.11368683772E-12  0.17120000000E+03  0.17120000000E+03 0.  0.
         13    1    1    2    0    0 -0.18833862886E+02 -0.12613609435E+02  0.88540564627E+02  0.91396172144E+02  0.10566000000E+00 0. -1.
        994    1    1    2    0    0 -0.91587355455E+01  0.26625682341E+01  0.35058292113E+01  0.17150131937E+03  0.17120000000E+03 0.  0.
        998    1    1    2    0    0  0.27992598432E+02  0.99510412005E+01  0.14079536024E+04  0.14083025085E+04  0.10000000000E+02 0. -1.
</event>
<event>
 5    1  0.1106231E-008  0.3823259E+03  0.7957747E-01  0.3441093E+00
         13   -1    0    0    0    0  0.00000000000E+00  0.00000000000E+00  0.14999999963E+04  0.15000000000E+04  0.10566000000E+00 0. -1.
        994   -1    0    0    0    0 -0.00000000000E+00 -0.00000000000E+00  0.11368683772E-12  0.17120000000E+03  0.17120000000E+03 0.  0.
         13    1    1    2    0    0 -0.16009639697E+01  0.17502206843E+02  0.49066713348E+02  0.52119515086E+02  0.10566000000E+00 0. -1.
        994    1    1    2    0    0  0.19492195604E+01 -0.21196342911E+02  0.44681616321E+01  0.17257603796E+03  0.17120000000E+03 0.  0.
        998    1    1    2    0    0 -0.34825559074E+00  0.36941360682E+01  0.14464651213E+04  0.14465044470E+04  0.10000000000E+02 0. -1.
</event>
<event>
 5    1  0.1106231E-008  0.3702534E+03  0.7957747E-01  0.3494727E+00
         13   -1    0    0    0    0  0.00000000000E+00  0.00000000000E+00  0.14999999963E+04  0.15000000000E+04  0.10566000000E+00 0. -1.
        994   -1    0    0    0    0 -0.00000000000E+00 -0.00000000000E+00  0.11368683772E-12  0.17120000000E+03  0.17120000000E+03 0.  0.
         13    1    1    2    0    0  0.17490271502E+02  0.15225754818E+02  0.20575239140E+02  0.31001368304E+02  0.10566000000E+00 0. -1.
        994    1    1    2    0    0 -0.21295500081E+01  0.95405186337E+01  0.11407279406E+02  0.17185785552E+03  0.17120000000E+03 0.  0.
        998    1    1    2    0    0 -0.15360721494E+02 -0.24766273452E+02  0.14680174777E+04  0.14683407762E+04  0.10000000000E+02 0. -1.
</event>
<event>
 5    1  0.1106231E-008  0.3686965E+03  0.7957747E-01  0.3501903E+00
         13   -1    0    0    0    0  0.00000000000E+00  0.00000000000E+00  0.14999999963E+04  0.15000000000E+04  0.10566000000E+00 0.  1.
        994   -1    0    0    0    0 -0.00000000000E+00 -0.00000000000E+00  0.11368683772E-12  0.17120000000E+03  0.17120000000E+03 0.  0.
         13    1    1    2    0    0 -0.68971059791E+02  0.40130300540E+02  0.27506686362E+03  0.28640746976E+03  0.10566000000E+00 0.  1.
        994    1    1    2    0    0  0.67466818811E+02 -0.14368849505E+02  0.26998727333E+02  0.18653848599E+03  0.17120000000E+03 0.  0.
        998    1    1    2    0    0  0.15042409794E+01 -0.25761451035E+02  0.11979344053E+04  0.11982540443E+04  0.10000000000E+02 0.  1.
</event>
<event>
 5    1  0.1106231E-008  0.3743663E+03  0.7957747E-01  0.3476062E+00
         13   -1    0    0    0    0  0.00000000000E+00  0.00000000000E+00  0.14999999963E+04  0.15000000000E+04  0.10566000000E+00 0.  1.
        994   -1    0    0    0    0 -0.00000000000E+00 -0.00000000000E+00  0.11368683772E-12  0.17120000000E+03  0.17120000000E+03 0.  0.
         13    1    1    2    0    0  0.20256159449E+02  0.84131597384E+01  0.30684961370E+02  0.37718314792E+02  0.10566000000E+00 0.  1.
        994    1    1    2    0    0 -0.22505492964E+02 -0.94907235038E+01  0.90393497021E+01  0.17316963039E+03  0.17120000000E+03 0.  0.
        998    1    1    2    0    0  0.22493335155E+01  0.10775637654E+01  0.14602756852E+04  0.14603120548E+04  0.10000000000E+02 0.  1.
</event>
<event>
 5    1  0.1106231E-008  0.3820072E+03  0.7957747E-01  0.3442465E+00
         13   -1    0    0    0    0  0.00000000000E+00  0.00000000000E+00  0.14999999963E+04  0.15000000000E+04  0.10566000000E+00 0. -1.
        994   -1    0    0    0    0 -0.00000000000E+00 -0.00000000000E+00  0.11368683772E-12  0.17120000000E+03  0.17120000000E+03 0.  0.
         13    1    1    2    0    0  0.44324680560E+01 -0.13266374849E+02  0.29966058207E+02  0.33069915077E+02  0.10566000000E+00 0. -1.
        994    1    1    2    0    0 -0.47956266688E+01  0.10547237947E+02  0.35692465884E+01  0.17162873240E+03  0.17120000000E+03 0.  0.
        998    1    1    2    0    0  0.36315861280E+00  0.27191369017E+01  0.14664646915E+04  0.14665013525E+04  0.10000000000E+02 0. -1.
</event>
<event>
 5    1  0.1106231E-008  0.3831246E+03  0.7957747E-01  0.3437665E+00
         13   -1    0    0    0    0  0.00000000000E+00  0.00000000000E+00  0.14999999963E+04  0.15000000000E+04  0.10566000000E+00 0. -1.
        994   -1    0    0    0    0 -0.00000000000E+00 -0.00000000000E+00  0.11368683772E-12  0.17120000000E+03  0.17120000000E+03 0.  0.
         13    1    1    2    0    0 -0.85409187273E+01 -0.25533135507E+02  0.11901690539E+03  0.12202427314E+03  0.10566000000E+00 0. -1.
        994    1    1    2    0    0  0.22193472600E+01  0.42622476198E+02  0.86148464109E+01  0.17665009640E+03  0.17120000000E+03 0.  0.
        998    1    1    2    0    0  0.63215714672E+01 -0.17089340691E+02  0.13723682445E+04  0.13725256305E+04  0.10000000000E+02 0. -1.
</event>
<event>
 5    1  0.1106231E-008  0.3802734E+03  0.7957747E-01  0.3449969E+00
         13   -1    0    0    0    0  0.00000000000E+00  0.00000000000E+00  0.14999999963E+04  0.15000000000E+04  0.10566000000E+00 0. -1.
        994   -1    0    0    0    0 -0.00000000000E+00 -0.00000000000E+00  0.11368683772E-12  0.17120000000E+03  0.17120000000E+03 0.  0.
         13    1    1    2    0    0  0.16741844845E+02  0.25221290588E+02  0.11017775815E+03  0.11426089630E+03  0.10566000000E+00 0. -1.
        994    1    1    2    0    0 -0.16900551778E+02 -0.16899211651E+02  0.59053444171E+01  0.17296105081E+03  0.17120000000E+03 0.  0.
        998    1    1    2    0    0  0.15870693363E+00 -0.83220789369E+01  0.13839168937E+04  0.13839780529E+04  0.10000000000E+02 0. -1.
</event>
<event>
 5    1  0.1106231E-008  0.3800827E+03  0.7957747E-01  0.3450799E+00
         13   -1    0    0    0    0  0.00000000000E+00  0.00000000000E+00  0.14999999963E+04  0.15000000000E+04  0.10566000000E+00 0. -1.
        994   -1    0    0    0    0 -0.00000000000E+00 -0.00000000000E+00  0.11368683772E-12  0.17120000000E+03  0.17120000000E+03 0.  0.
         13    1    1    2    0    0  0.21872132915E+01  0.27578007780E+02  0.89296003306E+02  0.93483248689E+02  0.10566000000E+00 0. -1.
        994    1    1    2    0    0 -0.16037767457E+01 -0.23297816980E+02  0.59161467765E+01  0.17288667146E+03  0.17120000000E+03 0.  0.
        998    1    1    2    0    0 -0.58343654576E+00 -0.42801908002E+01  0.14047878462E+04  0.14048300799E+04  0.10000000000E+02 0.  0.
</event>
<event>
 5    1  0.1106231E-008  0.3843819E+03  0.7957747E-01  0.3432298E+00
         13   -1    0    0    0    0  0.00000000000E+00  0.00000000000E+00  0.14999999963E+04  0.15000000000E+04  0.10566000000E+00 0.  1.
        994   -1    0    0    0    0 -0.00000000000E+00 -0.00000000000E+00  0.11368683772E-12  0.17120000000E+03  0.17120000000E+03 0.  0.
         13    1    1    2    0    0  0.10672653889E+02  0.81438962211E+00  0.29344322726E+02  0.31235704119E+02  0.10566000000E+00 0.  1.
        994    1    1    2    0    0 -0.35291888969E+01 -0.26003352949E+02  0.42098453647E+01  0.17325066331E+03  0.17120000000E+03 0.  0.
        998    1    1    2    0    0 -0.71434649921E+01  0.25188963327E+02  0.14664458282E+04  0.14667136326E+04  0.10000000000E+02 0.  1.
</event>
<event>
 5    1  0.1106231E-008  0.3844074E+03  0.7957747E-01  0.3432189E+00
         13   -1    0    0    0    0  0.00000000000E+00  0.00000000000E+00  0.14999999963E+04  0.15000000000E+04  0.10566000000E+00 0. -1.
        994   -1    0    0    0    0 -0.00000000000E+00 -0.00000000000E+00  0.11368683772E-12  0.17120000000E+03  0.17120000000E+03 0.  0.
         13    1    1    2    0    0  0.11849734978E+02 -0.12763414187E+02  0.73722065822E+02  0.75751403379E+02  0.10566000000E+00 0. -1.
        994    1    1    2    0    0 -0.13743358517E+02  0.16617745292E+02  0.34584114071E+01  0.17258745601E+03  0.17120000000E+03 0.  0.
        998    1    1    2    0    0  0.18936235388E+01 -0.38543311059E+01  0.14228195190E+04  0.14228611406E+04  0.10000000000E+02 0. -1.
</event>
<event>
 5    1  0.1106231E-008  0.3719882E+03  0.7957747E-01  0.3486803E+00
         13   -1    0    0    0    0  0.00000000000E+00  0.00000000000E+00  0.14999999963E+04  0.15000000000E+04  0.10566000000E+00 0. -1.
        994   -1    0    0    0    0 -0.00000000000E+00 -0.00000000000E+00  0.11368683772E-12  0.17120000000E+03  0.17120000000E+03 0.  0.
         13    1    1    2    0    0 -0.93197540354E+02 -0.12868769290E+03  0.64517273945E+03  0.66445028311E+03  0.10566000000E+00 0. -1.
        994    1    1    2    0    0  0.98425304526E+02  0.10734057432E+03  0.90913778092E+02  0.24245472673E+03  0.17120000000E+03 0.  0.
        998    1    1    2    0    0 -0.52277641719E+01  0.21347118584E+02  0.76391347873E+03  0.76429499016E+03  0.10000000000E+02 0. -1.
</event>
<event>
 5    1  0.1106231E-008  0.3794424E+03  0.7957747E-01  0.3453590E+00
         13   -1    0    0    0    0  0.00000000000E+00  0.00000000000E+00  0.14999999963E+04  0.15000000000E+04  0.10566000000E+00 0.  1.
        994   -1    0    0    0    0 -0.00000000000E+00 -0.00000000000E+00  0.11368683772E-12  0.17120000000E+03  0.17120000000E+03 0.  0.
         13    1    1    2    0    0 -0.24051819474E+02  0.10874583570E+02  0.75679436194E+02  0.80150700649E+02  0.10566000000E+00 0.  1.
        994    1    1    2    0    0  0.19127174650E+02 -0.96477220936E+01  0.59533924710E+01  0.17263780071E+03  0.17120000000E+03 0.  0.
        998    1    1    2    0    0  0.49246448242E+01 -0.12268614763E+01  0.14183671676E+04  0.14184114986E+04  0.10000000000E+02 0.  1.
</event>
<event>
 5    1  0.1106231E-008  0.3814665E+03  0.7957747E-01  0.3444798E+00
         13   -1    0    0    0    0  0.00000000000E+00  0.00000000000E+00  0.14999999963E+04  0.15000000000E+04  0.10566000000E+00 0.  1.
        994   -1    0    0    0    0 -0.00000000000E+00 -0.00000000000E+00  0.11368683772E-12  0.17120000000E+03  0.17120000000E+03 0.  0.
         13    1    1    2    0    0  0.38558243210E+01  0.18272053186E+02  0.50339263907E+02  0.53691600493E+02  0.10566000000E+00 0.  1.
        994    1    1    2    0    0 -0.43282307686E+01 -0.10727974234E+02  0.38400292418E+01  0.17163335584E+03  0.17120000000E+03 0.  0.
        998    1    1    2    0    0  0.47240644756E+00 -0.75440789523E+01  0.14458207031E+04  0.14458750437E+04  0.10000000000E+02 0.  1.
</event>
<event>
 5    1  0.1106231E-008  0.3811628E+03  0.7957747E-01  0.3446111E+00
         13   -1    0    0    0    0  0.00000000000E+00  0.00000000000E+00  0.14999999963E+04  0.15000000000E+04  0.10566000000E+00 0.  1.
        994   -1    0    0    0    0 -0.00000000000E+00 -0.00000000000E+00  0.11368683772E-12  0.17120000000E+03  0.17120000000E+03 0.  0.
         13    1    1    2    0    0  0.23922329573E+02 -0.18250125928E+02  0.12691054862E+03  0.13042869110E+03  0.10566000000E+00 0.  1.
        994    1    1    2    0    0 -0.12997828948E+02  0.11618521156E+02  0.45601181206E+01  0.17214577621E+03  0.17120000000E+03 0.  0.
        998    1    1    2    0    0 -0.10924500625E+02  0.66316047727E+01  0.13685293295E+04  0.13686255327E+04  0.10000000000E+02 0.  1.
</event>
<event>
 5    1  0.1106231E-008  0.3848944E+03  0.7957747E-01  0.3430120E+00
         13   -1    0    0    0    0  0.00000000000E+00  0.00000000000E+00  0.14999999963E+04  0.15000000000E+04  0.10566000000E+00 0.  1.
        994   -1    0    0    0    0 -0.00000000000E+00 -0.00000000000E+00  0.11368683772E-12  0.17120000000E+03  0.17120000000E+03 0.  0.
         13    1    1    2    0    0 -0.11902750233E+02  0.42495372915E+01  0.44347932262E+02  0.46113818864E+02  0.10566000000E+00 0.  1.
        994    1    1    2    0    0  0.12477313097E+02 -0.29260798964E+02  0.50185382773E+01  0.17420247824E+03  0.17120000000E+03 0.  0.
        998    1    1    2    0    0 -0.57456286425E+00  0.25011261672E+02  0.14506335257E+04  0.14508837029E+04  0.10000000000E+02 0.  1.
</event>
<event>
 5    1  0.1106231E-008  0.3809327E+03  0.7957747E-01  0.3447107E+00
         13   -1    0    0    0    0  0.00000000000E+00  0.00000000000E+00  0.14999999963E+04  0.15000000000E+04  0.10566000000E+00 0.  1.
        994   -1    0    0    0    0 -0.00000000000E+00 -0.00000000000E+00  0.11368683772E-12  0.17120000000E+03  0.17120000000E+03 0.  0.
         13    1    1    2    0    0 -0.16385353628E+02  0.11060529617E+02  0.49685343344E+02  0.53473915474E+02  0.10566000000E+00 0.  1.
        994    1    1    2    0    0  0.14242034125E+02 -0.23003292606E+02  0.61063171792E+01  0.17343215998E+03  0.17120000000E+03 0.  0.
        998    1    1    2    0    0  0.21433195024E+01  0.11942762989E+02  0.14442083358E+04  0.14442939245E+04  0.10000000000E+02 0.  1.
</event>
<event>
 5    1  0.1106231E-008  0.3817328E+03  0.7957747E-01  0.3443648E+00
         13   -1    0    0    0    0  0.00000000000E+00  0.00000000000E+00  0.14999999963E+04  0.15000000000E+04  0.10566000000E+00 0.  1.
        994   -1    0    0    0    0 -0.00000000000E+00 -0.00000000000E+00  0.11368683772E-12  0.17120000000E+03  0.17120000000E+03 0.  0.
         13    1    1    2    0    0  0.25690422399E+02 -0.24931356058E+01  0.11854820159E+03  0.12132559826E+03  0.10566000000E+00 0.  1.
        994    1    1    2    0    0  0.76238411318E+01 -0.14515364062E+02  0.41550076411E+01  0.17203349336E+03  0.17120000000E+03 0.  0.
        998    1    1    2    0    0 -0.33314263530E+02  0.17008499668E+02  0.13772967870E+04  0.13778409084E+04  0.10000000000E+02 0.  1.
</event>
<event>
 5    1  0.1106231E-008  0.3785742E+03  0.7957747E-01  0.3457390E+00
         13   -1    0    0    0    0  0.00000000000E+00  0.00000000000E+00  0.14999999963E+04  0.15000000000E+04  0.10566000000E+00 0.  1.
        994   -1    0    0    0    0 -0.00000000000E+00 -0.00000000000E+00  0.11368683772E-12  0.17120000000E+03  0.17120000000E+03 0.  0.
         13    1    1    2    0    0 -0.32085114240E+02 -0.79431830447E+01  0.11023844980E+03  0.11508725251E+03  0.10566000000E+00 0.  1.
        994    1    1    2    0    0  0.19953104940E+02  0.67560051171E+01  0.63465488661E+01  0.17260790447E+03  0.17120000000E+03 0.  0.
        998    1    1    2    0    0  0.12132009299E+02  0.11871779276E+01  0.13834149976E+04  0.13835048430E+04  0.10000000000E+02 0.  1.
</event>
<event>
 5    1  0.1106231E-008  0.3807919E+03  0.7957747E-01  0.3447718E+00
         13   -1    0    0    0    0  0.00000000000E+00  0.00000000000E+00  0.14999999963E+04  0.15000000000E+04  0.10566000000E+00 0.  1.
        994   -1    0    0    0    0 -0.00000000000E+00 -0.00000000000E+00  0.11368683772E-12  0.17120000000E+03  0.17120000000E+03 0.  0.
         13    1    1    2    0    0  0.31288482250E+01 -0.15737382742E+02  0.32541584095E+02  0.36282513229E+02  0.10566000000E+00 0.  1.
        994    1    1    2    0    0 -0.63201853287E+01  0.14535609584E+02  0.45720204477E+01  0.17199294189E+03  0.17120000000E+03 0.  0.
        998    1    1    2    0    0  0.31913371037E+01  0.12017731580E+01  0.14628863917E+04  0.14629245449E+04  0.10000000000E+02 0.  1.
</event>
<event>
 5    1  0.1106231E-008  0.3856589E+03  0.7957747E-01  0.3426882E+00
         13   -1    0    0    0    0  0.00000000000E+00  0.00000000000E+00  0.14999999963E+04  0.15000000000E+04  0.10566000000E+00 0. -1.
        994   -1    0    0    0    0 -0.00000000000E+00 -0.00000000000E+00  0.11368683772E-12  0.17120000000E+03  0.17120000000E+03 0.  0.
         13    1    1    2    0    0  0.11999511037E+02 -0.26517839538E+01  0.58806743432E+02  0.60077154230E+02  0.10566000000E+00 0. -1.
        994    1    1    2    0    0 -0.52877248155E+01  0.88549842928E+01  0.16524925346E+01  0.17151834162E+03  0.17120000000E+03 0.  0.
        998    1    1    2    0    0 -0.67117862215E+01 -0.62032003391E+01  0.14395407603E+04  0.14396045041E+04  0.10000000000E+02 0. -1.
</event>
<event>
 5    1  0.1106231E-008  0.3832671E+03  0.7957747E-01  0.3437055E+00
         13   -1    0    0    0    0  0.00000000000E+00  0.00000000000E+00  0.14999999963E+04  0.15000000000E+04  0.10566000000E+00 0. -1.
        994   -1    0    0    0    0 -0.00000000000E+00 -0.00000000000E+00  0.11368683772E-12  0.17120000000E+03  0.17120000000E+03 0.  0.
         13    1    1    2    0    0  0.24821962659E+02 -0.13595823474E+02  0.15921733062E+03  0.16171315895E+03  0.10566000000E+00 0. -1.
        994    1    1    2    0    0 -0.20405707987E+02 -0.62377167842E+00  0.38725596112E+01  0.17245642559E+03  0.17120000000E+03 0.  0.
        998    1    1    2    0    0 -0.44162546722E+01  0.14219595152E+02  0.13369101061E+04  0.13370304155E+04  0.10000000000E+02 0. -1.
</event>
<event>
 5    1  0.1106231E-008  0.3705670E+03  0.7957747E-01  0.3493289E+00
         13   -1    0    0    0    0  0.00000000000E+00  0.00000000000E+00  0.14999999963E+04  0.15000000000E+04  0.10566000000E+00 0.  1.
        994   -1    0    0    0    0 -0.00000000000E+00 -0.00000000000E+00  0.11368683772E-12  0.17120000000E+03  0.17120000000E+03 0.  0.
         13    1    1    2    0    0 -0.10359242379E+02 -0.59527377953E+01  0.38212710635E+01  0.12544411764E+02  0.10566000000E+00 0.  1.
        994    1    1    2    0    0  0.73834609450E+01  0.35355905107E+01  0.92042823847E+01  0.17164257837E+03  0.17120000000E+03 0.  0.
        998    1    1    2    0    0  0.29757814338E+01  0.24171472846E+01  0.14869744428E+04  0.14870130099E+04  0.10000000000E+02 0.  1.
</event>
<event>
 5    1  0.1106231E-008  0.3856660E+03  0.7957747E-01  0.3426852E+00
         13   -1    0    0    0    0  0.00000000000E+00  0.00000000000E+00  0.14999999963E+04  0.15000000000E+04  0.10566000000E+00 0. -1.
        994   -1    0    0    0    0 -0.00000000000E+00 -0.00000000000E+00  0.11368683772E-12  0.17120000000E+03  0.17120000000E+03 0.  0.
         13    1    1    2    0    0  0.96106081978E+01 -0.12444091662E+02  0.85357183360E+02  0.86793312659E+02  0.10566000000E+00 0. -1.
        994    1    1    2    0    0 -0.74483151644E+01  0.25641743704E+02  0.36430086000E+01  0.17330807232E+03  0.17120000000E+03 0.  0.
        998    1    1    2    0    0 -0.21622930334E+01 -0.13197652042E+02  0.14109998043E+04  0.14110986150E+04  0.10000000000E+02 0. -1.
</event>
<event>
 5    1  0.1106231E-008  0.3804109E+03  0.7957747E-01  0.3449371E+00
         13   -1    0    0    0    0  0.00000000000E+00  0.00000000000E+00  0.14999999963E+04  0.15000000000E+04  0.10566000000E+00 0. -1.
        994   -1    0    0    0    0 -0.00000000000E+00 -0.00000000000E+00  0.11368683772E-12  0.17120000000E+03  0.17120000000E+03 0.  0.
         13    1    1    2    0    0 -0.95557271280E+01 -0.11055475627E+02  0.25882461928E+02  0.29722860928E+02  0.10566000000E+00 0. -1.
        994    1    1    2    0    0  0.95588863278E+00  0.79553884299E+01  0.41402369311E+01  0.17143740400E+03  0.17120000000E+03 0.  0.
        998    1    1    2    0    0  0.85998384952E+01  0.31000871967E+01  0.14699772974E+04  0.14700397351E+04  0.10000000000E+02 0. -1.
</event>
<event>
 5    1  0.1106231E-008  0.3803195E+03  0.7957747E-01  0.3449769E+00
         13   -1    0    0    0    0  0.00000000000E+00  0.00000000000E+00  0.14999999963E+04  0.15000000000E+04  0.10566000000E+00 0.  1.
        994   -1    0    0    0    0 -0.00000000000E+00 -0.00000000000E+00  0.11368683772E-12  0.17120000000E+03  0.17120000000E+03 0.  0.
         13    1    1    2    0    0  0.59351335682E+02 -0.10316320324E+03  0.63038478035E+03  0.64152179231E+03  0.10566000000E+00 0.  1.
        994    1    1    2    0    0 -0.27007185940E+02  0.17027989399E+03  0.11061395867E+03  0.26696351482E+03  0.17120000000E+03 0.  0.
        998    1    1    2    0    0 -0.32344149742E+02 -0.67116690750E+02  0.75900125726E+03  0.76271469287E+03  0.10000000000E+02 0.  1.
</event>
<event>
 5    1  0.1106231E-008  0.3825057E+03  0.7957747E-01  0.3440320E+00
         13   -1    0    0    0    0  0.00000000000E+00  0.00000000000E+00  0.14999999963E+04  0.15000000000E+04  0.10566000000E+00 0.  1.
        994   -1    0    0    0    0 -0.00000000000E+00 -0.00000000000E+00  0.11368683772E-12  0.17120000000E+03  0.17120000000E+03 0.  0.
         13    1    1    2    0    0  0.15769037691E+02 -0.93228737459E+00  0.41168901064E+02  0.44095592618E+02  0.10566000000E+00 0.  1.
        994    1    1    2    0    0 -0.18229957364E+02  0.15818958836E+01  0.39845057358E+01  0.17222122409E+03  0.17120000000E+03 0.  0.
        998    1    1    2    0    0  0.24609196727E+01 -0.64960850902E+00  0.14548465895E+04  0.14548831833E+04  0.10000000000E+02 0.  1.
</event>
<event>
 5    1  0.1106231E-008  0.3704519E+03  0.7957747E-01  0.3493817E+00
         13   -1    0    0    0    0  0.00000000000E+00  0.00000000000E+00  0.14999999963E+04  0.15000000000E+04  0.10566000000E+00 0.  1.
        994   -1    0    0    0    0 -0.00000000000E+00 -0.00000000000E+00  0.11368683772E-12  0.17120000000E+03  0.17120000000E+03 0.  0.
         13    1    1    2    0    0  0.33721002821E+02 -0.21166969581E+02  0.60887399818E+02  0.72749111700E+02  0.10566000000E+00 0.  1.
        994    1    1    2    0    0 -0.42181336586E+02  0.40764460793E+02  0.23325843048E+02  0.18246791875E+03  0.17120000000E+03 0.  0.
        998    1    1    2    0    0  0.84603337647E+01 -0.19597491212E+02  0.14157867534E+04  0.14159829695E+04  0.10000000000E+02 0.  1.
</event>
<event>
 5    1  0.1106231E-008  0.3804136E+03  0.7957747E-01  0.3449360E+00
         13   -1    0    0    0    0  0.00000000000E+00  0.00000000000E+00  0.14999999963E+04  0.15000000000E+04  0.10566000000E+00 0. -1.
        994   -1    0    0    0    0 -0.00000000000E+00 -0.00000000000E+00  0.11368683772E-12  0.17120000000E+03  0.17120000000E+03 0.  0.
         13    1    1    2    0    0  0.19780085606E+02 -0.26651883760E+02  0.26633815322E+02  0.42555210929E+02  0.10566000000E+00 0. -1.
        994    1    1    2    0    0 -0.11765732166E+02  0.21858973942E+02  0.18794087152E+02  0.17400834723E+03  0.17120000000E+03 0.  0.
        998    1    1    2    0    0 -0.80143534396E+01  0.47929098179E+01  0.14545720938E+04  0.14546364418E+04  0.10000000000E+02 0. -1.
</event>
<event>
 5    1  0.1106231E-008  0.3804328E+03  0.7957747E-01  0.3449276E+00
         13   -1    0    0    0    0  0.00000000000E+00  0.00000000000E+00  0.14999999963E+04  0.15000000000E+04  0.10566000000E+00 0. -1.
        994   -1    0    0    0    0 -0.00000000000E+00 -0.00000000000E+00  0.11368683772E-12  0.17120000000E+03  0.17120000000E+03 0.  0.
         13    1    1    2    0    0 -0.19104034680E+02 -0.18308406661E+02  0.84527981177E+02  0.88572866395E+02  0.10566000000E+00 0. -1.
        994    1    1    2    0    0  0.19937071534E+02  0.15098816883E+02  0.60055058990E+01  0.17312124998E+03  0.17120000000E+03 0.  0.
        998    1    1    2    0    0 -0.83303685406E+00  0.32095897785E+01  0.14094665092E+04  0.14095058836E+04  0.10000000000E+02 0. -1.
</event>
<event>
 5    1  0.1106231E-008  0.3796527E+03  0.7957747E-01  0.3452672E+00
         13   -1    0    0    0    0  0.00000000000E+00  0.00000000000E+00  0.14999999963E+04  0.15000000000E+04  0.10566000000E+00 0.  1.
        994   -1    0    0    0    0 -0.00000000000E+00 -0.00000000000E+00  0.11368683772E-12  0.17120000000E+03  0.17120000000E+03 0.  0.
         13    1    1    2    0    0  0.28819886309E+02  0.44268935247E+01  0.11443333269E+03  0.11808972025E+03  0.10566000000E+00 0.  1.
        994    1    1    2    0    0  0.13337229875E+02 -0.92040680232E+01  0.51879015386E+01  0.17204345640E+03  0.17120000000E+03 0.  0.
        998    1    1    2    0    0 -0.42157116185E+02  0.47771744985E+01  0.13803787620E+04  0.13810668233E+04  0.10000000000E+02 0.  1.
</event>
<event>
 5    1  0.1106231E-008  0.3797915E+03  0.7957747E-01  0.3452067E+00
         13   -1    0    0    0    0  0.00000000000E+00  0.00000000000E+00  0.14999999963E+04  0.15000000000E+04  0.10566000000E+00 0. -1.
        994   -1    0    0    0    0 -0.00000000000E+00 -0.00000000000E+00  0.11368683772E-12  0.17120000000E+03  0.17120000000E+03 0.  0.
         13    1    1    2    0    0  0.70143095893E+01 -0.77626374002E+01  0.11045201948E+02  0.15214030647E+02  0.10566000000E+00 0. -1.
        994    1    1    2    0    0 -0.15002636334E+02 -0.36143883085E+01  0.50354736118E+01  0.17196784262E+03  0.17120000000E+03 0.  0.
        998    1    1    2    0    0  0.79883267446E+01  0.11377025709E+02  0.14839193207E+04  0.14840181267E+04  0.10000000000E+02 0. -1.
</event>
<event>
 5    1  0.1106231E-008  0.4264871E+03  0.7957747E-01  0.3270767E+00
         13   -1    0    0    0    0  0.00000000000E+00  0.00000000000E+00  0.14999999963E+04  0.15000000000E+04  0.10566000000E+00 0. -1.
        994   -1    0    0    0    0 -0.00000000000E+00 -0.00000000000E+00  0.11368683772E-12  0.17120000000E+03  0.17120000000E+03 0.  0.
         13    1    1    2    0    0  0.97660580629E+02  0.43247553226E+01  0.13192519797E+03  0.16419671599E+03  0.10566000000E+00 0. -1.
        994    1    1    2    0    0  0.45469290356E+02 -0.38031360174E+02  0.60290765590E+02  0.19094045443E+03  0.17120000000E+03 0.  0.
        998    1    1    2    0    0 -0.14312987098E+03  0.33706604852E+02  0.13077840327E+04  0.13160628296E+04  0.10000000000E+02 0. -1.
</event>
<event>
 5    1  0.1106231E-008  0.3829949E+03  0.7957747E-01  0.3438221E+00
         13   -1    0    0    0    0  0.00000000000E+00  0.00000000000E+00  0.14999999963E+04  0.15000000000E+04  0.10566000000E+00 0.  1.
        994   -1    0    0    0    0 -0.00000000000E+00 -0.00000000000E+00  0.11368683772E-12  0.17120000000E+03  0.17120000000E+03 0.  0.
         13    1    1    2    0    0 -0.23460336439E+02  0.13949848030E+02  0.15238639614E+03  0.15481153232E+03  0.10566000000E+00 0.  1.
        994    1    1    2    0    0  0.47104389000E+01 -0.48049279257E+01  0.27788089714E+01  0.17135471206E+03  0.17120000000E+03 0.  0.
        998    1    1    2    0    0  0.18749897539E+02 -0.91449201048E+01  0.13448347912E+04  0.13450337556E+04  0.10000000000E+02 0.  1.
</event>
<event>
 5    1  0.1106231E-008  0.3817009E+03  0.7957747E-01  0.3443786E+00
         13   -1    0    0    0    0  0.00000000000E+00  0.00000000000E+00  0.14999999963E+04  0.15000000000E+04  0.10566000000E+00 0.  1.
        994   -1    0    0    0    0 -0.00000000000E+00 -0.00000000000E+00  0.11368683772E-12  0.17120000000E+03  0.17120000000E+03 0.  0.
         13    1    1    2    0    0 -0.63135565948E+01 -0.11282741195E+02  0.24164315935E+02  0.27405958739E+02  0.10566000000E+00 0.  1.
        994    1    1    2    0    0  0.23648946657E+01  0.99812730453E+01  0.36268374885E+01  0.17154536569E+03  0.17120000000E+03 0.  0.
        998    1    1    2    0    0  0.39486619291E+01  0.13014681496E+01  0.14722088429E+04  0.14722486756E+04  0.10000000000E+02 0.  1.
</event>
<event>
 5    1  0.1106231E-008  0.3785160E+03  0.7957747E-01  0.3457646E+00
         13   -1    0    0    0    0  0.00000000000E+00  0.00000000000E+00  0.14999999963E+04  0.15000000000E+04  0.10566000000E+00 0. -1.
        994   -1    0    0    0    0 -0.00000000000E+00 -0.00000000000E+00  0.11368683772E-12  0.17120000000E+03  0.17120000000E+03 0.  0.
         13    1    1    2    0    0 -0.31786355471E+02 -0.12918557913E+02  0.12611386746E+03  0.13069804996E+03  0.10566000000E+00 0. -1.
        994    1    1    2    0    0  0.10908643086E+02 -0.15356940326E+01  0.52919216971E+01  0.17163566437E+03  0.17120000000E+03 0.  0.
        998    1    1    2    0    0  0.20877712385E+02  0.14454251946E+02  0.13685942071E+04  0.13688662857E+04  0.10000000000E+02 0. -1.
</event>
<event>
 5    1  0.1106231E-008  0.3817985E+03  0.7957747E-01  0.3443365E+00
         13   -1    0    0    0    0  0.00000000000E+00  0.00000000000E+00  0.14999999963E+04  0.15000000000E+04  0.10566000000E+00 0. -1.
        994   -1    0    0    0    0 -0.00000000000E+00 -0.00000000000E+00  0.11368683772E-12  0.17120000000E+03  0.17120000000E+03 0.  0.
         13    1    1    2    0    0 -0.32753311076E+02 -0.31515561758E+01  0.19143662440E+03  0.19424392917E+03  0.10566000000E+00 0. -1.
        994    1    1    2    0    0  0.13057045885E+01  0.18773385735E+02  0.44057947876E+01  0.17228753845E+03  0.17120000000E+03 0.  0.
        998    1    1    2    0    0  0.31447606488E+02 -0.15621829559E+02  0.13041575771E+04  0.13046685324E+04  0.10000000000E+02 0. -1.
</event>
<event>
 5    1  0.1106231E-008  0.3841315E+03  0.7957747E-01  0.3433364E+00
         13   -1    0    0    0    0  0.00000000000E+00  0.00000000000E+00  0.14999999963E+04  0.15000000000E+04  0.10566000000E+00 0.  1.
        994   -1    0    0    0    0 -0.00000000000E+00 -0.00000000000E+00  0.11368683772E-12  0.17120000000E+03  0.17120000000E+03 0.  0.
         13    1    1    2    0    0  0.21632677428E+02  0.86283303786E+01  0.12625976749E+03  0.12838987838E+03  0.10566000000E+00 0.  1.
        994    1    1    2    0    0 -0.19181661709E+02 -0.35466176098E+01  0.33178782960E+01  0.17233967320E+03  0.17120000000E+03 0.  0.
        998    1    1    2    0    0 -0.24510157183E+01 -0.50817127687E+01  0.13704223505E+04  0.13704704484E+04  0.10000000000E+02 0.  1.
</event>
<event>
 5    1  0.1106231E-008  0.3813579E+03  0.7957747E-01  0.3445267E+00
         13   -1    0    0    0    0  0.00000000000E+00  0.00000000000E+00  0.14999999963E+04  0.15000000000E+04  0.10566000000E+00 0.  1.
        994   -1    0    0    0    0 -0.00000000000E+00 -0.00000000000E+00  0.11368683772E-12  0.17120000000E+03  0.17120000000E+03 0.  0.
         13    1    1    2    0    0 -0.11997463122E+02  0.16344040864E+02  0.60052756960E+02  0.63383054326E+02  0.10566000000E+00 0.  1.
        994    1    1    2    0    0  0.34701382556E+01 -0.57120806192E+01  0.35979478285E+01  0.17136818536E+03  0.17120000000E+03 0.  0.
        998    1    1    2    0    0  0.85273248667E+01 -0.10631960245E+02  0.14363492915E+04  0.14364487603E+04  0.10000000000E+02 0.  1.
</event>
<event>
 5    1  0.1106231E-008  0.3819560E+03  0.7957747E-01  0.3442686E+00
         13   -1    0    0    0    0  0.00000000000E+00  0.00000000000E+00  0.14999999963E+04  0.15000000000E+04  0.10566000000E+00 0.  1.
        994   -1    0    0    0    0 -0.00000000000E+00 -0.00000000000E+00  0.11368683772E-12  0.17120000000E+03  0.17120000000E+03 0.  0.
         13    1    1    2    0    0  0.12087752539E+02  0.28293246061E+02  0.15460035171E+03  0.15763217136E+03  0.10566000000E+00 0.  1.
        994    1    1    2    0    0  0.12369645036E+01 -0.15196052008E+02  0.39214626944E+01  0.17192227298E+03  0.17120000000E+03 0.  0.
        998    1    1    2    0    0 -0.13324717043E+02 -0.13097194052E+02  0.13414781819E+04  0.13416455557E+04  0.10000000000E+02 0.  1.
</event>
<event>
 5    1  0.1106231E-008  0.3740781E+03  0.7957747E-01  0.3477356E+00
         13   -1    0    0    0    0  0.00000000000E+00  0.00000000000E+00  0.14999999963E+04  0.15000000000E+04  0.10566000000E+00 0.  1.
        994   -1    0    0    0    0 -0.00000000000E+00 -0.00000000000E+00  0.11368683772E-12  0.17120000000E+03  0.17120000000E+03 0.  0.
         13    1    1    2    0    0 -0.74156854674E+02  0.43091514939E+01  0.31108780373E+03  0.31983345772E+03  0.10566000000E+00 0.  1.
        994    1    1    2    0    0  0.71497025252E+02  0.27051404723E+01  0.24814052035E+02  0.18720128093E+03  0.17120000000E+03 0.  0.
        998    1    1    2    0    0  0.26598294228E+01 -0.70142919661E+01  0.11640981405E+04  0.11641652613E+04  0.10000000000E+02 0.  1.
</event>
<event>
 5    1  0.1106231E-008  0.3846767E+03  0.7957747E-01  0.3431045E+00
         13   -1    0    0    0    0  0.00000000000E+00  0.00000000000E+00  0.14999999963E+04  0.15000000000E+04  0.10566000000E+00 0. -1.
        994   -1    0    0    0    0 -0.00000000000E+00 -0.00000000000E+00  0.11368683772E-12  0.17120000000E+03  0.17120000000E+03 0.  0.
         13    1    1    2    0    0  0.70197751359E+01 -0.16904470263E+02  0.90821175112E+02  0.92647371094E+02  0.10566000000E+00 0. -1.
        994    1    1    2    0    0 -0.56325161411E+01  0.14625259365E+02  0.25997876816E+01  0.17193551799E+03  0.17120000000E+03 0.  0.
        998    1    1    2    0    0 -0.13872589948E+01  0.22792108979E+01  0.14065790335E+04  0.14066171109E+04  0.10000000000E+02 0. -1.
</event>
<event>
 5    1  0.1106231E-008  0.3826614E+03  0.7957747E-01  0.3439651E+00
         13   -1    0    0    0    0  0.00000000000E+00  0.00000000000E+00  0.14999999963E+04  0.15000000000E+04  0.10566000000E+00 0. -1.
        994   -1    0    0    0    0 -0.00000000000E+00 -0.00000000000E+00  0.11368683772E-12  0.17120000000E+03  0.17120000000E+03 0.  0.
         13    1    1    2    0    0 -0.10100096281E+02  0.20992918705E+02  0.10053838728E+03  0.10320219505E+03  0.10566000000E+00 0. -1.
        994    1    1    2    0    0 -0.21129876188E+02 -0.19241174080E+02  0.55067057165E+01  0.17365614949E+03  0.17120000000E+03 0.  0.
        998    1    1    2    0    0  0.31229972469E+02 -0.17517446251E+01  0.13939549033E+04  0.13943416555E+04  0.10000000000E+02 0. -1.
</event>
<event>
 5    1  0.1106231E-008  0.3692287E+03  0.7957747E-01  0.3499443E+00
         13   -1    0    0    0    0  0.00000000000E+00  0.00000000000E+00  0.14999999963E+04  0.15000000000E+04  0.10566000000E+00 0.  1.
        994   -1    0    0    0    0 -0.00000000000E+00 -0.00000000000E+00  0.11368683772E-12  0.17120000000E+03  0.17120000000E+03 0.  0.
         13    1    1    2    0    0 -0.91874891972E+01  0.55016287718E+02  0.14026094181E+03  0.15094484037E+03  0.10566000000E+00 0.  1.
        994    1    1    2    0    0  0.28219924409E+02 -0.36796474565E+02  0.18066649565E+02  0.17828681527E+03  0.17120000000E+03 0.  0.
        998    1    1    2    0    0 -0.19032435211E+02 -0.18219813153E+02  0.13416724049E+04  0.13419683444E+04  0.10000000000E+02 0.  1.
</event>
<event>
 5    1  0.1106231E-008  0.3812354E+03  0.7957747E-01  0.3445797E+00
         13   -1    0    0    0    0  0.00000000000E+00  0.00000000000E+00  0.14999999963E+04  0.15000000000E+04  0.10566000000E+00 0.  1.
        994   -1    0    0    0    0 -0.00000000000E+00 -0.00000000000E+00  0.11368683772E-12  0.17120000000E+03  0.17120000000E+03 0.  0.
         13    1    1    2    0    0  0.71051113702E+01  0.77625848489E+01  0.14156318101E+02  0.17639524861E+02  0.10566000000E+00 0.  1.
        994    1    1    2    0    0 -0.77969823759E+01 -0.79492969687E+01  0.39236999515E+01  0.17160658402E+03  0.17120000000E+03 0.  0.
        998    1    1    2    0    0  0.69187100576E+00  0.18671211979E+00  0.14819199782E+04  0.14819538911E+04  0.10000000000E+02 0.  1.
</event>
<event>
 5    1  0.1106231E-008  0.3759899E+03  0.7957747E-01  0.3468807E+00
         13   -1    0    0    0    0  0.00000000000E+00  0.00000000000E+00  0.14999999963E+04  0.15000000000E+04  0.10566000000E+00 0. -1.
        994   -1    0    0    0    0 -0.00000000000E+00 -0.00000000000E+00  0.11368683772E-12  0.17120000000E+03  0.17120000000E+03 0.  0.
         13    1    1    2    0    0  0.36971085374E+02 -0.17728064051E+02  0.14554765770E+03  0.15121268873E+03  0.10566000000E+00 0. -1.
        994    1    1    2    0    0 -0.24004765704E+02 -0.27379300396E+02  0.10676315603E+02  0.17535472215E+03  0.17120000000E+03 0.  0.
        998    1    1    2    0    0 -0.12966319670E+02  0.45107364447E+02  0.13437760230E+04  0.13446325891E+04  0.10000000000E+02 0. -1.
</event>
<event>
 5    1  0.1106231E-008  0.3851393E+03  0.7957747E-01  0.3429082E+00
         13   -1    0    0    0    0  0.00000000000E+00  0.00000000000E+00  0.14999999963E+04  0.15000000000E+04  0.10566000000E+00 0. -1.
        994   -1    0    0    0    0 -0.00000000000E+00 -0.00000000000E+00  0.11368683772E-12  0.17120000000E+03  0.17120000000E+03 0.  0.
         13    1    1    2    0    0 -0.12555030004E+02  0.10736947573E+02  0.83237498833E+02  0.84861081761E+02  0.10566000000E+00 0. -1.
        994    1    1    2    0    0  0.79669827134E+01 -0.18082713015E+02  0.28455383465E+01  0.17236007198E+03  0.17120000000E+03 0.  0.
        998    1    1    2    0    0  0.45880472910E+01  0.73457654419E+01  0.14139169591E+04  0.14139788463E+04  0.10000000000E+02 0. -1.
</event>
<event>
 5    1  0.1106231E-008  0.3863676E+03  0.7957747E-01  0.3423893E+00
         13   -1    0    0    0    0  0.00000000000E+00  0.00000000000E+00  0.14999999963E+04  0.15000000000E+04  0.10566000000E+00 0.  1.
        994   -1    0    0    0    0 -0.00000000000E+00 -0.00000000000E+00  0.11368683772E-12  0.17120000000E+03  0.17120000000E+03 0.  0.
         13    1    1    2    0    0 -0.83770470498E+01 -0.71783462209E+01  0.58082262403E+02  0.59120757282E+02  0.10566000000E+00 0.  1.
        994    1    1    2    0    0  0.20786880383E+02  0.10167953984E+02  0.27078869380E+01  0.17277804935E+03  0.17120000000E+03 0.  0.
        998    1    1    2    0    0 -0.12409833333E+02 -0.29896077626E+01  0.14392098469E+04  0.14393011934E+04  0.10000000000E+02 0.  1.
</event>
<event>
 5    1  0.1106231E-008  0.3815118E+03  0.7957747E-01  0.3444602E+00
         13   -1    0    0    0    0  0.00000000000E+00  0.00000000000E+00  0.14999999963E+04  0.15000000000E+04  0.10566000000E+00 0.  1.
        994   -1    0    0    0    0 -0.00000000000E+00 -0.00000000000E+00  0.11368683772E-12  0.17120000000E+03  0.17120000000E+03 0.  0.
         13    1    1    2    0    0  0.31366280117E+02 -0.72367522541E+01  0.16210870448E+03  0.16527388584E+03  0.10566000000E+00 0.  1.
        994    1    1    2    0    0 -0.91427054475E+01  0.77776185093E+01  0.38513469755E+01  0.17166348851E+03  0.17120000000E+03 0.  0.
        998    1    1    2    0    0 -0.22223574669E+02 -0.54086625516E+00  0.13340399448E+04  0.13342626256E+04  0.10000000000E+02 0.  1.
</event>
<event>
 5    1  0.1106231E-008  0.3740783E+03  0.7957747E-01  0.3477355E+00
         13   -1    0    0    0    0  0.00000000000E+00  0.00000000000E+00  0.14999999963E+04  0.15000000000E+04  0.10566000000E+00 0. -1.
        994   -1    0    0    0    0 -0.00000000000E+00 -0.00000000000E+00  0.11368683772E-12  0.17120000000E+03  0.17120000000E+03 0.  0.
         13    1    1    2    0    0 -0.11671524480E+03  0.49216520185E+02  0.41814394653E+03  0.43690855498E+03  0.10566000000E+00 0. -1.
        994    1    1    2    0    0  0.11822779156E+03 -0.48887918344E+02  0.73682664557E+02  0.22606727829E+03  0.17120000000E+03 0.  0.
        998    1    1    2    0    0 -0.15125467605E+01 -0.32860184052E+00  0.10081733852E+04  0.10082241667E+04  0.10000000000E+02 0.  0.
</event>
<event>
 5    1  0.1106231E-008  0.3798415E+03  0.7957747E-01  0.3451849E+00
         13   -1    0    0    0    0  0.00000000000E+00  0.00000000000E+00  0.14999999963E+04  0.15000000000E+04  0.10566000000E+00 0. -1.
        994   -1    0    0    0    0 -0.00000000000E+00 -0.00000000000E+00  0.11368683772E-12  0.17120000000E+03  0.17120000000E+03 0.  0.
         13    1    1    2    0    0 -0.17779568575E+02  0.32606350885E+02  0.22444470508E+03  0.22749664608E+03  0.10566000000E+00 0. -1.
        994    1    1    2    0    0 -0.22734201264E+01  0.18619466922E+02  0.53908648645E+01  0.17230889243E+03  0.17120000000E+03 0.  0.
        998    1    1    2    0    0  0.20052988701E+02 -0.51225817807E+02  0.12701644263E+04  0.12713944615E+04  0.10000000000E+02 0. -1.
</event>
<event>
 5    1  0.1106231E-008  0.3840730E+03  0.7957747E-01  0.3433613E+00
         13   -1    0    0    0    0  0.00000000000E+00  0.00000000000E+00  0.14999999963E+04  0.15000000000E+04  0.10566000000E+00 0.  1.
        994   -1    0    0    0    0 -0.00000000000E+00 -0.00000000000E+00  0.11368683772E-12  0.17120000000E+03  0.17120000000E+03 0.  0.
         13    1    1    2    0    0 -0.10273656493E+02 -0.90872236228E+01  0.43406807993E+02  0.45522387845E+02  0.10566000000E+00 0.  1.
        994    1    1    2    0    0  0.57937428327E+01  0.15521097623E+02  0.29969666307E+01  0.17202585194E+03  0.17120000000E+03 0.  0.
        998    1    1    2    0    0  0.44799136607E+01 -0.64338739997E+01  0.14535962217E+04  0.14536517602E+04  0.10000000000E+02 0.  1.
</event>
<event>
 5    1  0.1106231E-008  0.3917900E+03  0.7957747E-01  0.3401376E+00
         13   -1    0    0    0    0  0.00000000000E+00  0.00000000000E+00  0.14999999963E+04  0.15000000000E+04  0.10566000000E+00 0. -1.
        994   -1    0    0    0    0 -0.00000000000E+00 -0.00000000000E+00  0.11368683772E-12  0.17120000000E+03  0.17120000000E+03 0.  0.
         13    1    1    2    0    0  0.20373304783E+02 -0.12350559223E+02  0.22868642194E+01  0.23934259397E+02  0.10566000000E+00 0. -1.
        994    1    1    2    0    0 -0.17395302014E+02  0.20268102014E+02  0.25667444518E+02  0.17516178293E+03  0.17120000000E+03 0.  0.
        998    1    1    2    0    0 -0.29780027688E+01 -0.79175427912E+01  0.14720456875E+04  0.14721039577E+04  0.10000000000E+02 0. -1.
</event>
<event>
 5    1  0.1106231E-008  0.3775996E+03  0.7957747E-01  0.3461678E+00
         13   -1    0    0    0    0  0.00000000000E+00  0.00000000000E+00  0.14999999963E+04  0.15000000000E+04  0.10566000000E+00 0. -1.
        994   -1    0    0    0    0 -0.00000000000E+00 -0.00000000000E+00  0.11368683772E-12  0.17120000000E+03  0.17120000000E+03 0.  0.
         13    1    1    2    0    0 -0.20436502006E+02  0.23377609022E+02  0.96888097043E+02  0.10174221214E+03  0.10566000000E+00 0. -1.
        994    1    1    2    0    0  0.41222355169E+01  0.54507070253E+01  0.55071891678E+01  0.17142482949E+03  0.17120000000E+03 0.  0.
        998    1    1    2    0    0  0.16314266490E+02 -0.28828316047E+02  0.13976047101E+04  0.13980329584E+04  0.10000000000E+02 0. -1.
</event>
<event>
 5    1  0.1106231E-008  0.3828734E+03  0.7957747E-01  0.3438742E+00
         13   -1    0    0    0    0  0.00000000000E+00  0.00000000000E+00  0.14999999963E+04  0.15000000000E+04  0.10566000000E+00 0. -1.
        994   -1    0    0    0    0 -0.00000000000E+00 -0.00000000000E+00  0.11368683772E-12  0.17120000000E+03  0.17120000000E+03 0.  0.
         13    1    1    2    0    0 -0.17944695214E+01  0.11753711496E+02  0.25237698218E+02  0.27898430604E+02  0.10566000000E+00 0. -1.
        994    1    1    2    0    0  0.21097754068E+01 -0.89763316745E+01  0.29712418693E+01  0.17147388711E+03  0.17120000000E+03 0.  0.
        998    1    1    2    0    0 -0.31530588542E+00 -0.27773798212E+01  0.14717910562E+04  0.14718276823E+04  0.10000000000E+02 0. -1.
</event>
<event>
 5    1  0.1106231E-008  0.3746859E+03  0.7957747E-01  0.3474629E+00
         13   -1    0    0    0    0  0.00000000000E+00  0.00000000000E+00  0.14999999963E+04  0.15000000000E+04  0.10566000000E+00 0. -1.
        994   -1    0    0    0    0 -0.00000000000E+00 -0.00000000000E+00  0.11368683772E-12  0.17120000000E+03  0.17120000000E+03 0.  0.
         13    1    1    2    0    0 -0.31936884180E+01  0.29828522188E+02  0.61774597062E+02  0.68673520282E+02  0.10566000000E+00 0. -1.
        994    1    1    2    0    0 -0.54033338821E+01 -0.26727047084E+02  0.93743419460E+01  0.17361120168E+03  0.17120000000E+03 0.  0.
        998    1    1    2    0    0  0.85970223001E+01 -0.31014751040E+01  0.14288510573E+04  0.14289152780E+04  0.10000000000E+02 0. -1.
</event>
<event>
 5    1  0.1106231E-008  0.3807710E+03  0.7957747E-01  0.3447808E+00
         13   -1    0    0    0    0  0.00000000000E+00  0.00000000000E+00  0.14999999963E+04  0.15000000000E+04  0.10566000000E+00 0.  1.
        994   -1    0    0    0    0 -0.00000000000E+00 -0.00000000000E+00  0.11368683772E-12  0.17120000000E+03  0.17120000000E+03 0.  0.
         13    1    1    2    0    0  0.15250698351E+03 -0.18249408854E+02  0.89919993299E+03  0.91222363025E+03  0.10566000000E+00 0.  1.
        994    1    1    2    0    0 -0.18263309711E+03 -0.28593615621E+02  0.12763595558E+03  0.28244082596E+03  0.17120000000E+03 0.  0.
        998    1    1    2    0    0  0.30126113601E+02  0.46843024475E+02  0.47316410771E+03  0.47653554378E+03  0.10000000000E+02 0.  1.
</event>
<event>
 5    1  0.1106231E-008  0.3712774E+03  0.7957747E-01  0.3490041E+00
         13   -1    0    0    0    0  0.00000000000E+00  0.00000000000E+00  0.14999999963E+04  0.15000000000E+04  0.10566000000E+00 0.  1.
        994   -1    0    0    0    0 -0.00000000000E+00 -0.00000000000E+00  0.11368683772E-12  0.17120000000E+03  0.17120000000E+03 0.  0.
         13    1    1    2    0    0  0.37000768275E+02 -0.12929133378E+02  0.80508832408E+02  0.89542741763E+02  0.10566000000E+00 0.  1.
        994    1    1    2    0    0 -0.42429402320E+02  0.12511728417E+02  0.15369381175E+02  0.17748931068E+03  0.17120000000E+03 0.  0.
        998    1    1    2    0    0  0.54286340452E+01  0.41740496104E+00  0.14041217827E+04  0.14041679476E+04  0.10000000000E+02 0.  1.
</event>
<event>
 5    1  0.1106231E-008  0.3823099E+03  0.7957747E-01  0.3441162E+00
         13   -1    0    0    0    0  0.00000000000E+00  0.00000000000E+00  0.14999999963E+04  0.15000000000E+04  0.10566000000E+00 0. -1.
        994   -1    0    0    0    0 -0.00000000000E+00 -0.00000000000E+00  0.11368683772E-12  0.17120000000E+03  0.17120000000E+03 0.  0.
         13    1    1    2    0    0  0.74232710973E+01  0.26985559546E+02  0.12208111908E+03  0.12524829810E+03  0.10566000000E+00 0. -1.
        994    1    1    2    0    0 -0.46125585006E+01 -0.27283316288E+02  0.55159429972E+01  0.17350942531E+03  0.17120000000E+03 0.  0.
        998    1    1    2    0    0 -0.28107125967E+01  0.29775674264E+00  0.13724029342E+04  0.13724422766E+04  0.10000000000E+02 0. -1.
</event>
<event>
 5    1  0.1106231E-008  0.3844360E+03  0.7957747E-01  0.3432068E+00
         13   -1    0    0    0    0  0.00000000000E+00  0.00000000000E+00  0.14999999963E+04  0.15000000000E+04  0.10566000000E+00 0. -1.
        994   -1    0    0    0    0 -0.00000000000E+00 -0.00000000000E+00  0.11368683772E-12  0.17120000000E+03  0.17120000000E+03 0.  0.
         13    1    1    2    0    0 -0.92886448987E+01  0.82634493774E+01  0.41681397737E+02  0.43496133173E+02  0.10566000000E+00 0. -1.
        994    1    1    2    0    0  0.48831362845E+01  0.50206458924E+01  0.20720439112E+01  0.17135572728E+03  0.17120000000E+03 0.  0.
        998    1    1    2    0    0  0.44055086142E+01 -0.13284095270E+02  0.14562465546E+04  0.14563481395E+04  0.10000000000E+02 0. -1.
</event>
<event>
 5    1  0.1106231E-008  0.3846292E+03  0.7957747E-01  0.3431246E+00
         13   -1    0    0    0    0  0.00000000000E+00  0.00000000000E+00  0.14999999963E+04  0.15000000000E+04  0.10566000000E+00 0.  1.
        994   -1    0    0    0    0 -0.00000000000E+00 -0.00000000000E+00  0.11368683772E-12  0.17120000000E+03  0.17120000000E+03 0.  0.
         13    1    1    2    0    0 -0.14327792120E+02 -0.68549657286E+01  0.69656760581E+02  0.71444745369E+02  0.10566000000E+00 0.  1.
        994    1    1    2    0    0  0.92625833583E+01  0.31017720351E+01  0.21285558394E+01  0.17149165341E+03  0.17120000000E+03 0.  0.
        998    1    1    2    0    0  0.50652087613E+01  0.37531936935E+01  0.14282146799E+04  0.14282636012E+04  0.10000000000E+02 0.  1.
</event>
<event>
 5    1  0.1106231E-008  0.3760677E+03  0.7957747E-01  0.3468461E+00
         13   -1    0    0    0    0  0.00000000000E+00  0.00000000000E+00  0.14999999963E+04  0.15000000000E+04  0.10566000000E+00 0. -1.
        994   -1    0    0    0    0 -0.00000000000E+00 -0.00000000000E+00  0.11368683772E-12  0.17120000000E+03  0.17120000000E+03 0.  0.
         13    1    1    2    0    0  0.47826818174E+02  0.79871849378E+01  0.73359329593E+02  0.87936352337E+02  0.10566000000E+00 0. -1.
        994    1    1    2    0    0 -0.50130948302E+02 -0.19215481746E+02  0.24552335131E+02  0.18109280460E+03  0.17120000000E+03 0.  0.
        998    1    1    2    0    0  0.23041301283E+01  0.11228296808E+02  0.14020883316E+04  0.14021708431E+04  0.10000000000E+02 0. -1.
</event>
<event>
 5    1  0.1106231E-008  0.3781173E+03  0.7957747E-01  0.3459398E+00
         13   -1    0    0    0    0  0.00000000000E+00  0.00000000000E+00  0.14999999963E+04  0.15000000000E+04  0.10566000000E+00 0.  1.
        994   -1    0    0    0    0 -0.00000000000E+00 -0.00000000000E+00  0.11368683772E-12  0.17120000000E+03  0.17120000000E+03 0.  0.
         13    1    1    2    0    0 -0.31568080161E+02 -0.25167882572E+01  0.10052930091E+03  0.10539938052E+03  0.10566000000E+00 0.  1.
        994    1    1    2    0    0  0.11185051691E+02  0.17305769325E+01  0.55175927796E+01  0.17166241321E+03  0.17120000000E+03 0.  0.
        998    1    1    2    0    0  0.20383028470E+02  0.78621132476E+00  0.13939531026E+04  0.13941382063E+04  0.10000000000E+02 0.  1.
</event>
<event>
 5    1  0.1106231E-008  0.3789921E+03  0.7957747E-01  0.3455559E+00
         13   -1    0    0    0    0  0.00000000000E+00  0.00000000000E+00  0.14999999963E+04  0.15000000000E+04  0.10566000000E+00 0. -1.
        994   -1    0    0    0    0 -0.00000000000E+00 -0.00000000000E+00  0.11368683772E-12  0.17120000000E+03  0.17120000000E+03 0.  0.
         13    1    1    2    0    0  0.10224631704E+02  0.18373777056E+02  0.45877665219E+02  0.50466920916E+02  0.10566000000E+00 0. -1.
        994    1    1    2    0    0 -0.15452972212E+02 -0.69261178004E+01  0.56052051335E+01  0.17212676661E+03  0.17120000000E+03 0.  0.
        998    1    1    2    0    0  0.52283405086E+01 -0.11447659255E+02  0.14485171259E+04  0.14486063125E+04  0.10000000000E+02 0. -1.
</event>
<event>
 5    1  0.1106231E-008  0.3806043E+03  0.7957747E-01  0.3448531E+00
         13   -1    0    0    0    0  0.00000000000E+00  0.00000000000E+00  0.14999999963E+04  0.15000000000E+04  0.10566000000E+00 0.  1.
        994   -1    0    0    0    0 -0.00000000000E+00 -0.00000000000E+00  0.11368683772E-12  0.17120000000E+03  0.17120000000E+03 0.  0.
         13    1    1    2    0    0  0.12573451415E+02 -0.29438482252E+02  0.13329732977E+03  0.13708721752E+03  0.10566000000E+00 0.  1.
        994    1    1    2    0    0  0.79259220947E+01  0.23395867896E+02  0.58667985589E+01  0.17307237273E+03  0.17120000000E+03 0.  0.
        998    1    1    2    0    0 -0.20499373510E+02  0.60426143551E+01  0.13608358679E+04  0.13610404098E+04  0.10000000000E+02 0.  1.
</event>
<event>
 5    1  0.1106231E-008  0.3827529E+03  0.7957747E-01  0.3439258E+00
         13   -1    0    0    0    0  0.00000000000E+00  0.00000000000E+00  0.14999999963E+04  0.15000000000E+04  0.10566000000E+00 0. -1.
        994   -1    0    0    0    0 -0.00000000000E+00 -0.00000000000E+00  0.11368683772E-12  0.17120000000E+03  0.17120000000E+03 0.  0.
         13    1    1    2    0    0 -0.21929700320E+02 -0.99050666858E+01  0.97965895251E+02  0.10087789599E+03  0.10566000000E+00 0. -1.
        994    1    1    2    0    0  0.23012875693E+02  0.10960407353E+02  0.49052498347E+01  0.17315664715E+03  0.17120000000E+03 0.  0.
        998    1    1    2    0    0 -0.10831753736E+01 -0.10553406676E+01  0.13971288512E+04  0.13971654569E+04  0.10000000000E+02 0.  0.
</event>
<event>
 5    1  0.1106231E-008  0.3773615E+03  0.7957747E-01  0.3462728E+00
         13   -1    0    0    0    0  0.00000000000E+00  0.00000000000E+00  0.14999999963E+04  0.15000000000E+04  0.10566000000E+00 0. -1.
        994   -1    0    0    0    0 -0.00000000000E+00 -0.00000000000E+00  0.11368683772E-12  0.17120000000E+03  0.17120000000E+03 0.  0.
         13    1    1    2    0    0  0.45855985820E+02 -0.94584739019E+02  0.49284257643E+03  0.50392743584E+03  0.10566000000E+00 0. -1.
        994    1    1    2    0    0 -0.56875237623E+02  0.11703195185E+03  0.64880978584E+02  0.22461133496E+03  0.17120000000E+03 0.  0.
        998    1    1    2    0    0  0.11019251804E+02 -0.22447212830E+02  0.94227644127E+03  0.94266122920E+03  0.10000000000E+02 0. -1.
</event>
<event>
 5    1  0.1106231E-008  0.3846112E+03  0.7957747E-01  0.3431323E+00
         13   -1    0    0    0    0  0.00000000000E+00  0.00000000000E+00  0.14999999963E+04  0.15000000000E+04  0.10566000000E+00 0.  1.
        994   -1    0    0    0    0 -0.00000000000E+00 -0.00000000000E+00  0.11368683772E-12  0.17120000000E+03  0.17120000000E+03 0.  0.
         13    1    1    2    0    0 -0.13161881273E+02 -0.24264298171E+01  0.48170799523E+02  0.49995597517E+02  0.10566000000E+00 0.  1.
        994    1    1    2    0    0  0.11192544100E+02  0.41439760111E+01  0.22924705620E+01  0.17163082766E+03  0.17120000000E+03 0.  0.
        998    1    1    2    0    0  0.19693371733E+01 -0.17175461941E+01  0.14495367262E+04  0.14495735748E+04  0.10000000000E+02 0.  1.
</event>
<event>
 5    1  0.1106231E-008  0.3834564E+03  0.7957747E-01  0.3436245E+00
         13   -1    0    0    0    0  0.00000000000E+00  0.00000000000E+00  0.14999999963E+04  0.15000000000E+04  0.10566000000E+00 0. -1.
        994   -1    0    0    0    0 -0.00000000000E+00 -0.00000000000E+00  0.11368683772E-12  0.17120000000E+03  0.17120000000E+03 0.  0.
         13    1    1    2    0    0 -0.17255691625E+02 -0.11253748001E+02  0.86246334843E+02  0.88672696899E+02  0.10566000000E+00 0. -1.
        994    1    1    2    0    0  0.10019554830E+02  0.14128530950E+02  0.33906623828E+01  0.17210736026E+03  0.17120000000E+03 0.  0.
        998    1    1    2    0    0  0.72361367952E+01 -0.28747829497E+01  0.14103629991E+04  0.14104199428E+04  0.10000000000E+02 0. -1.
</event>
<event>
 5    1  0.1106231E-008  0.3759293E+03  0.7957747E-01  0.3469077E+00
         13   -1    0    0    0    0  0.00000000000E+00  0.00000000000E+00  0.14999999963E+04  0.15000000000E+04  0.10566000000E+00 0.  1.
        994   -1    0    0    0    0 -0.00000000000E+00 -0.00000000000E+00  0.11368683772E-12  0.17120000000E+03  0.17120000000E+03 0.  0.
         13    1    1    2    0    0  0.12918621389E+02  0.67985307551E+01  0.14350428664E+02  0.20470876041E+02  0.10566000000E+00 0.  1.
        994    1    1    2    0    0 -0.12950673660E+02 -0.46634247653E+01  0.68445851204E+01  0.17188878912E+03  0.17120000000E+03 0.  0.
        998    1    1    2    0    0  0.32052271073E-01 -0.21351059899E+01  0.14788049825E+04  0.14788403348E+04  0.10000000000E+02 0.  1.
</event>
<event>
 5    1  0.1106231E-008  0.3831279E+03  0.7957747E-01  0.3437651E+00
         13   -1    0    0    0    0  0.00000000000E+00  0.00000000000E+00  0.14999999963E+04  0.15000000000E+04  0.10566000000E+00 0.  1.
        994   -1    0    0    0    0 -0.00000000000E+00 -0.00000000000E+00  0.11368683772E-12  0.17120000000E+03  0.17120000000E+03 0.  0.
         13    1    1    2    0    0  0.13333142673E+02 -0.79546506203E+01  0.45901921907E+02  0.48456648242E+02  0.10566000000E+00 0.  1.
        994    1    1    2    0    0 -0.41933219048E+01  0.16794859867E+02  0.35545564852E+01  0.17210963407E+03  0.17120000000E+03 0.  0.
        998    1    1    2    0    0 -0.91398207681E+01 -0.88402092471E+01  0.14505435179E+04  0.14506337177E+04  0.10000000000E+02 0.  1.
</event>
<event>
 5    1  0.1106231E-008  0.3838698E+03  0.7957747E-01  0.3434480E+00
         13   -1    0    0    0    0  0.00000000000E+00  0.00000000000E+00  0.14999999963E+04  0.15000000000E+04  0.10566000000E+00 0.  1.
        994   -1    0    0    0    0 -0.00000000000E+00 -0.00000000000E+00  0.11368683772E-12  0.17120000000E+03  0.17120000000E+03 0.  0.
         13    1    1    2    0    0  0.17420343895E+02  0.66456687825E+01  0.82125972241E+02  0.84215911653E+02  0.10566000000E+00 0.  1.
        994    1    1    2    0    0 -0.26606163951E+01 -0.81256361880E+01  0.24336332726E+01  0.17143064899E+03  0.17120000000E+03 0.  0.
        998    1    1    2    0    0 -0.14759727500E+02  0.14799674055E+01  0.14154403908E+04  0.14155534394E+04  0.10000000000E+02 0.  1.
</event>
<event>
 5    1  0.1106231E-008  0.3736974E+03  0.7957747E-01  0.3479069E+00
         13   -1    0    0    0    0  0.00000000000E+00  0.00000000000E+00  0.14999999963E+04  0.15000000000E+04  0.10566000000E+00 0. -1.
        994   -1    0    0    0    0 -0.00000000000E+00 -0.00000000000E+00  0.11368683772E-12  0.17120000000E+03  0.17120000000E+03 0.  0.
         13    1    1    2    0    0 -0.91886919329E+02 -0.82380895195E+02  0.51552232848E+03  0.53008782306E+03  0.10566000000E+00 0. -1.
        994    1    1    2    0    0  0.11013141149E+03  0.93510904593E+02  0.82343440874E+02  0.23866943526E+03  0.17120000000E+03 0.  0.
        998    1    1    2    0    0 -0.18244492162E+02 -0.11130009399E+02  0.90213422693E+03  0.90244274167E+03  0.10000000000E+02 0. -1.
</event>
<event>
 5    1  0.1106231E-008  0.3777381E+03  0.7957747E-01  0.3461067E+00
         13   -1    0    0    0    0  0.00000000000E+00  0.00000000000E+00  0.14999999963E+04  0.15000000000E+04  0.10566000000E+00 0. -1.
        994   -1    0    0    0    0 -0.00000000000E+00 -0.00000000000E+00  0.11368683772E-12  0.17120000000E+03  0.17120000000E+03 0.  0.
         13    1    1    2    0    0 -0.43659480561E+02 -0.41878134851E+02  0.15149308911E+03  0.16312601152E+03  0.10566000000E+00 0. -1.
        994    1    1    2    0    0  0.18585085593E+01 -0.45199872705E+02  0.22481290642E+02  0.17849742568E+03  0.17120000000E+03 0.  0.
        998    1    1    2    0    0  0.41800972002E+02  0.87078007556E+02  0.13260256165E+04  0.13295765628E+04  0.10000000000E+02 0. -1.
</event>
<event>
 5    1  0.1106231E-008  0.3843616E+03  0.7957747E-01  0.3432384E+00
         13   -1    0    0    0    0  0.00000000000E+00  0.00000000000E+00  0.14999999963E+04  0.15000000000E+04  0.10566000000E+00 0. -1.
        994   -1    0    0    0    0 -0.00000000000E+00 -0.00000000000E+00  0.11368683772E-12  0.17120000000E+03  0.17120000000E+03 0.  0.
         13    1    1    2    0    0 -0.12148927987E+01 -0.15269463654E+02  0.67233646314E+02  0.68956557669E+02  0.10566000000E+00 0. -1.
        994    1    1    2    0    0 -0.82151492153E+01 -0.82343005209E+01  0.23933961567E+01  0.17161136538E+03  0.17120000000E+03 0.  0.
        998    1    1    2    0    0  0.94300420140E+01  0.23503764175E+02  0.14303729538E+04  0.14306320770E+04  0.10000000000E+02 0. -1.
</event>
<event>
 5    1  0.1106231E-008  0.3778922E+03  0.7957747E-01  0.3460388E+00
         13   -1    0    0    0    0  0.00000000000E+00  0.00000000000E+00  0.14999999963E+04  0.15000000000E+04  0.10566000000E+00 0. -1.
        994   -1    0    0    0    0 -0.00000000000E+00 -0.00000000000E+00  0.11368683772E-12  0.17120000000E+03  0.17120000000E+03 0.  0.
         13    1    1    2    0    0 -0.55039917969E+02 -0.17466858581E+03  0.66649411088E+03  0.69119672919E+03  0.10566000000E+00 0. -1.
        994    1    1    2    0    0  0.48178018329E+02  0.23008493620E+03  0.22197010107E+03  0.36584199470E+03  0.17120000000E+03 0.  0.
        998    1    1    2    0    0  0.68618996406E+01 -0.55416350389E+02  0.61153578434E+03  0.61416127612E+03  0.10000000000E+02 0. -1.
</event>
<event>
 5    1  0.1106231E-008  0.3880672E+03  0.7957747E-01  0.3416767E+00
         13   -1    0    0    0    0  0.00000000000E+00  0.00000000000E+00  0.14999999963E+04  0.15000000000E+04  0.10566000000E+00 0. -1.
        994   -1    0    0    0    0 -0.00000000000E+00 -0.00000000000E+00  0.11368683772E-12  0.17120000000E+03  0.17120000000E+03 0.  0.
         13    1    1    2    0    0 -0.37207758059E+02 -0.38710660822E+02  0.59429781725E+02  0.80092712783E+02  0.10566000000E+00 0. -1.
        994    1    1    2    0    0  0.40850210304E+02  0.35800266541E+02  0.31932984172E+02  0.18242684628E+03  0.17120000000E+03 0.  0.
        998    1    1    2    0    0 -0.36424522444E+01  0.29103942808E+01  0.14086372304E+04  0.14086804409E+04  0.10000000000E+02 0. -1.
</event>
<event>
 5    1  0.1106231E-008  0.3824124E+03  0.7957747E-01  0.3440721E+00
         13   -1    0    0    0    0  0.00000000000E+00  0.00000000000E+00  0.14999999963E+04  0.15000000000E+04  0.10566000000E+00 0.  1.
        994   -1    0    0    0    0 -0.00000000000E+00 -0.00000000000E+00  0.11368683772E-12  0.17120000000E+03  0.17120000000E+03 0.  0.
         13    1    1    2    0    0 -0.14736223380E+02 -0.67744196344E+00  0.36298685211E+02  0.39181895298E+02  0.10566000000E+00 0.  1.
        994    1    1    2    0    0  0.97188434248E+01 -0.27125759567E+01  0.32580357524E+01  0.17152804081E+03  0.17120000000E+03 0.  0.
        998    1    1    2    0    0  0.50173799547E+01  0.33900179201E+01  0.14604432753E+04  0.14604900639E+04  0.10000000000E+02 0.  1.
</event>
<event>
 5    1  0.1106231E-008  0.3830559E+03  0.7957747E-01  0.3437959E+00
         13   -1    0    0    0    0  0.00000000000E+00  0.00000000000E+00  0.14999999963E+04  0.15000000000E+04  0.10566000000E+00 0. -1.
        994   -1    0    0    0    0 -0.00000000000E+00 -0.00000000000E+00  0.11368683772E-12  0.17120000000E+03  0.17120000000E+03 0.  0.
         13    1    1    2    0    0  0.91830771276E+02 -0.59858302839E+02  0.42289065708E+03  0.43686659975E+03  0.10566000000E+00 0. -1.
        994    1    1    2    0    0 -0.38362301281E+02 -0.95357233213E+01  0.23763994191E+02  0.17730415562E+03  0.17120000000E+03 0.  0.
        998    1    1    2    0    0 -0.53468469995E+02  0.69394026160E+02  0.10533453450E+04  0.10570292446E+04  0.10000000000E+02 0. -1.
</event>
<event>
 5    1  0.1106231E-008  0.3724548E+03  0.7957747E-01  0.3484684E+00
         13   -1    0    0    0    0  0.00000000000E+00  0.00000000000E+00  0.14999999963E+04  0.15000000000E+04  0.10566000000E+00 0. -1.
        994   -1    0    0    0    0 -0.00000000000E+00 -0.00000000000E+00  0.11368683772E-12  0.17120000000E+03  0.17120000000E+03 0.  0.
         13    1    1    2    0    0 -0.24964188582E+02  0.60075451626E+02  0.29343884838E+03  0.30056386925E+03  0.10566000000E+00 0. -1.
        994    1    1    2    0    0  0.13146101377E+02 -0.17676944828E+02  0.96572383323E+01  0.17288145248E+03  0.17120000000E+03 0.  0.
        998    1    1    2    0    0  0.11818087205E+02 -0.42398506798E+02  0.11969039096E+04  0.11977546783E+04  0.10000000000E+02 0. -1.
</event>
<event>
 5    1  0.1106231E-008  0.3835739E+03  0.7957747E-01  0.3435743E+00
         13   -1    0    0    0    0  0.00000000000E+00  0.00000000000E+00  0.14999999963E+04  0.15000000000E+04  0.10566000000E+00 0. -1.
        994   -1    0    0    0    0 -0.00000000000E+00 -0.00000000000E+00  0.11368683772E-12  0.17120000000E+03  0.17120000000E+03 0.  0.
         13    1    1    2    0    0 -0.81650555098E+01  0.69435881095E+01  0.23712722586E+02  0.26022796233E+02  0.10566000000E+00 0. -1.
        994    1    1    2    0    0  0.55072155680E+01 -0.60901387616E+01  0.25625855039E+01  0.17141594458E+03  0.17120000000E+03 0.  0.
        998    1    1    2    0    0  0.26578399418E+01 -0.85344934787E+00  0.14737246882E+04  0.14737612592E+04  0.10000000000E+02 0. -1.
</event>
<event>
 5    1  0.1106231E-008  0.3818824E+03  0.7957747E-01  0.3443003E+00
         13   -1    0    0    0    0  0.00000000000E+00  0.00000000000E+00  0.14999999963E+04  0.15000000000E+04  0.10566000000E+00 0.  1.
        994   -1    0    0    0    0 -0.00000000000E+00 -0.00000000000E+00  0.11368683772E-12  0.17120000000E+03  0.17120000000E+03 0.  0.
         13    1    1    2    0    0  0.20879925726E+02 -0.13377887512E+02  0.10954708123E+03  0.11231880227E+03  0.10566000000E+00 0.  1.
        994    1    1    2    0    0  0.68416433322E+01 -0.23726583249E+01  0.33601641616E+01  0.17138602129E+03  0.17120000000E+03 0.  0.
        998    1    1    2    0    0 -0.27721569058E+02  0.15750545837E+02  0.13870927509E+04  0.13874951764E+04  0.10000000000E+02 0.  1.
</event>
<event>
 5    1  0.1106231E-008  0.3845898E+03  0.7957747E-01  0.3431414E+00
         13   -1    0    0    0    0  0.00000000000E+00  0.00000000000E+00  0.14999999963E+04  0.15000000000E+04  0.10566000000E+00 0. -1.
        994   -1    0    0    0    0 -0.00000000000E+00 -0.00000000000E+00  0.11368683772E-12  0.17120000000E+03  0.17120000000E+03 0.  0.
         13    1    1    2    0    0 -0.18321478570E+02  0.22752188603E+01  0.89322549149E+02  0.91210647122E+02  0.10566000000E+00 0. -1.
        994    1    1    2    0    0  0.17409618711E+02  0.42992655884E+00  0.28332934094E+01  0.17210679014E+03  0.17120000000E+03 0.  0.
        998    1    1    2    0    0  0.91185985988E+00 -0.27051454192E+01  0.14078441537E+04  0.14078825627E+04  0.10000000000E+02 0. -1.
</event>
<event>
 5    1  0.3660805E-008  0.3861371E+03  0.7957747E-01  0.3424864E+00
         13   -1    0    0    0    0  0.00000000000E+00  0.00000000000E+00  0.14999999963E+04  0.15000000000E+04  0.10566000000E+00 0.  1.
        994   -1    0    0    0    0 -0.00000000000E+00 -0.00000000000E+00  0.11368683772E-12  0.17120000000E+03  0.17120000000E+03 0.  0.
         13    1    1    2    0    0 -0.87661788224E+01  0.72850489503E+01  0.62407686284E+02  0.63440115863E+02  0.10566000000E+00 0.  1.
        994    1    1    2    0    0  0.66149513540E+01 -0.18490826452E+01  0.12212112424E+01  0.17134207903E+03  0.17120000000E+03 0.  0.
        998    1    1    2    0    0  0.21512274684E+01 -0.54359663051E+01  0.14363710988E+04  0.14364178051E+04  0.10000000000E+02 0.  1.
</event>
<event>
 5    1  0.1106231E-008  0.3849820E+03  0.7957747E-01  0.3429749E+00
         13   -1    0    0    0    0  0.00000000000E+00  0.00000000000E+00  0.14999999963E+04  0.15000000000E+04  0.10566000000E+00 0.  1.
        994   -1    0    0    0    0 -0.00000000000E+00 -0.00000000000E+00  0.11368683772E-12  0.17120000000E+03  0.17120000000E+03 0.  0.
         13    1    1    2    0    0 -0.12599991426E+02 -0.12445732294E+02  0.95870910497E+02  0.97493069907E+02  0.10566000000E+00 0.  1.
        994    1    1    2    0    0  0.72672992306E+01  0.85155926994E+01  0.20513694044E+01  0.17157790380E+03  0.17120000000E+03 0.  0.
        998    1    1    2    0    0  0.53326921954E+01  0.39301395942E+01  0.14020777164E+04  0.14021290263E+04  0.10000000000E+02 0.  1.
</event>
<event>
 5    1  0.1106231E-008  0.3761067E+03  0.7957747E-01  0.3468288E+00
         13   -1    0    0    0    0  0.00000000000E+00  0.00000000000E+00  0.14999999963E+04  0.15000000000E+04  0.10566000000E+00 0.  1.
        994   -1    0    0    0    0 -0.00000000000E+00 -0.00000000000E+00  0.11368683772E-12  0.17120000000E+03  0.17120000000E+03 0.  0.
         13    1    1    2    0    0 -0.35207953588E+01 -0.25897849800E+02  0.58554772855E+02  0.64123063030E+02  0.10566000000E+00 0.  1.
        994    1    1    2    0    0 -0.12350648656E+02 -0.72437270398E+01  0.68061111491E+01  0.17193246713E+03  0.17120000000E+03 0.  0.
        998    1    1    2    0    0  0.15871444015E+02  0.33141576840E+02  0.14346391123E+04  0.14351444698E+04  0.10000000000E+02 0.  1.
</event>
<event>
 5    1  0.1106231E-008  0.3836372E+03  0.7957747E-01  0.3435473E+00
         13   -1    0    0    0    0  0.00000000000E+00  0.00000000000E+00  0.14999999963E+04  0.15000000000E+04  0.10566000000E+00 0. -1.
        994   -1    0    0    0    0 -0.00000000000E+00 -0.00000000000E+00  0.11368683772E-12  0.17120000000E+03  0.17120000000E+03 0.  0.
         13    1    1    2    0    0 -0.32450449728E+02 -0.27782650589E+01  0.15877371281E+03  0.16207977507E+03  0.10566000000E+00 0. -1.
        994    1    1    2    0    0  0.67924099664E+02 -0.17614840441E+02  0.18746706918E+02  0.18597001086E+03  0.17120000000E+03 0.  0.
        998    1    1    2    0    0 -0.35473649936E+02  0.20393105500E+02  0.13224795766E+04  0.13231502141E+04  0.10000000000E+02 0. -1.
</event>
<event>
 5    1  0.1139439E-008  0.3859025E+03  0.7957747E-01  0.3425854E+00
         13   -1    0    0    0    0  0.00000000000E+00  0.00000000000E+00  0.14999999963E+04  0.15000000000E+04  0.10566000000E+00 0. -1.
        994   -1    0    0    0    0 -0.00000000000E+00 -0.00000000000E+00  0.11368683772E-12  0.17120000000E+03  0.17120000000E+03 0.  0.
         13    1    1    2    0    0 -0.37627681362E+01  0.10945021942E+02  0.56913474970E+02  0.58078453204E+02  0.10566000000E+00 0. -1.
        994    1    1    2    0    0  0.54778366043E+01 -0.71176909370E+01  0.14473010212E+01  0.17144154368E+03  0.17120000000E+03 0.  0.
        998    1    1    2    0    0 -0.17150684681E+01 -0.38273310045E+01  0.14416392203E+04  0.14416800031E+04  0.10000000000E+02 0. -1.
</event>
<event>
 5    1  0.1106231E-008  0.3829365E+03  0.7957747E-01  0.3438471E+00
         13   -1    0    0    0    0  0.00000000000E+00  0.00000000000E+00  0.14999999963E+04  0.15000000000E+04  0.10566000000E+00 0.  1.
        994   -1    0    0    0    0 -0.00000000000E+00 -0.00000000000E+00  0.11368683772E-12  0.17120000000E+03  0.17120000000E+03 0.  0.
         13    1    1    2    0    0 -0.25594460286E+02  0.63189569815E+00  0.11544368900E+03  0.11824860330E+03  0.10566000000E+00 0.  1.
        994    1    1    2    0    0  0.24963997787E+02  0.10953760409E+02  0.51225514301E+01  0.17343259955E+03  0.17120000000E+03 0.  0.
        998    1    1    2    0    0  0.63046249937E+00 -0.11585656107E+02  0.13794337559E+04  0.13795187972E+04  0.10000000000E+02 0.  1.
</event>
<event>
 5    1  0.1106231E-008  0.3840119E+03  0.7957747E-01  0.3433874E+00
         13   -1    0    0    0    0  0.00000000000E+00  0.00000000000E+00  0.14999999963E+04  0.15000000000E+04  0.10566000000E+00 0. -1.
        994   -1    0    0    0    0 -0.00000000000E+00 -0.00000000000E+00  0.11368683772E-12  0.17120000000E+03  0.17120000000E+03 0.  0.
         13    1    1    2    0    0 -0.10862222537E+02 -0.31872677339E+01  0.29593022618E+02  0.31684455271E+02  0.10566000000E+00 0. -1.
        994    1    1    2    0    0  0.10568111626E+02 -0.78246482130E+01  0.26921891917E+01  0.17172535627E+03  0.17120000000E+03 0.  0.
        998    1    1    2    0    0  0.29411091149E+00  0.11011915947E+02  0.14677147845E+04  0.14677901885E+04  0.10000000000E+02 0. -1.
</event>
<event>
 5    1  0.1106231E-008  0.3786375E+03  0.7957747E-01  0.3457113E+00
         13   -1    0    0    0    0  0.00000000000E+00  0.00000000000E+00  0.14999999963E+04  0.15000000000E+04  0.10566000000E+00 0.  1.
        994   -1    0    0    0    0 -0.00000000000E+00 -0.00000000000E+00  0.11368683772E-12  0.17120000000E+03  0.17120000000E+03 0.  0.
         13    1    1    2    0    0  0.67084645024E+01  0.14857025213E+02  0.25361185326E+02  0.30148558495E+02  0.10566000000E+00 0.  1.
        994    1    1    2    0    0  0.65092221832E+00 -0.15748568248E+02  0.56572183155E+01  0.17201710735E+03  0.17120000000E+03 0.  0.
        998    1    1    2    0    0 -0.73593867207E+01  0.89154303479E+00  0.14689815926E+04  0.14690343342E+04  0.10000000000E+02 0.  1.
</event>
<event>
 5    1  0.1106231E-008  0.3712711E+03  0.7957747E-01  0.3490070E+00
         13   -1    0    0    0    0  0.00000000000E+00  0.00000000000E+00  0.14999999963E+04  0.15000000000E+04  0.10566000000E+00 0.  1.
        994   -1    0    0    0    0 -0.00000000000E+00 -0.00000000000E+00  0.11368683772E-12  0.17120000000E+03  0.17120000000E+03 0.  0.
         13    1    1    2    0    0 -0.13821516521E+02 -0.30856937068E+02  0.42989899604E+02  0.54693029868E+02  0.10566000000E+00 0.  1.
        994    1    1    2    0    0  0.53028112383E+01  0.39337492089E+02  0.17165649861E+02  0.17657762493E+03  0.17120000000E+03 0.  0.
        998    1    1    2    0    0  0.85187052829E+01 -0.84805550213E+01  0.14398444468E+04  0.14399293452E+04  0.10000000000E+02 0.  1.
</event>
<event>
 5    1  0.1106231E-008  0.3817658E+03  0.7957747E-01  0.3443506E+00
         13   -1    0    0    0    0  0.00000000000E+00  0.00000000000E+00  0.14999999963E+04  0.15000000000E+04  0.10566000000E+00 0.  1.
        994   -1    0    0    0    0 -0.00000000000E+00 -0.00000000000E+00  0.11368683772E-12  0.17120000000E+03  0.17120000000E+03 0.  0.
         13    1    1    2    0    0  0.82510141262E+02  0.27123965091E+02  0.52180652985E+03  0.52898553728E+03  0.10566000000E+00 0.  1.
        994    1    1    2    0    0 -0.10278147610E+03 -0.45164691296E+02  0.46332454238E+02  0.20990478195E+03  0.17120000000E+03 0.  0.
        998    1    1    2    0    0  0.20271334838E+02  0.18040726205E+02  0.93186101219E+03  0.93230968077E+03  0.10000000000E+02 0.  1.
</event>
<event>
 5    1  0.1106231E-008  0.3708588E+03  0.7957747E-01  0.3491953E+00
         13   -1    0    0    0    0  0.00000000000E+00  0.00000000000E+00  0.14999999963E+04  0.15000000000E+04  0.10566000000E+00 0. -1.
        994   -1    0    0    0    0 -0.00000000000E+00 -0.00000000000E+00  0.11368683772E-12  0.17120000000E+03  0.17120000000E+03 0.  0.
         13    1    1    2    0    0  0.15112026042E+02 -0.26118994386E+02  0.46184807483E+02  0.55169038464E+02  0.10566000000E+00 0. -1.
        994    1    1    2    0    0 -0.21385688939E+02  0.28021814015E+02  0.13116636398E+02  0.17528278838E+03  0.17120000000E+03 0.  0.
        998    1    1    2    0    0  0.62736628978E+01 -0.19028196286E+01  0.14406985524E+04  0.14407481732E+04  0.10000000000E+02 0. -1.
</event>
<event>
 5    1  0.1106231E-008  0.3812600E+03  0.7957747E-01  0.3445691E+00
         13   -1    0    0    0    0  0.00000000000E+00  0.00000000000E+00  0.14999999963E+04  0.15000000000E+04  0.10566000000E+00 0. -1.
        994   -1    0    0    0    0 -0.00000000000E+00 -0.00000000000E+00  0.11368683772E-12  0.17120000000E+03  0.17120000000E+03 0.  0.
         13    1    1    2    0    0 -0.18103784439E+02 -0.96025930451E+01  0.56186004208E+02  0.59806647098E+02  0.10566000000E+00 0. -1.
        994    1    1    2    0    0  0.23553118210E+02  0.68750410443E+01  0.55051931473E+01  0.17303688254E+03  0.17120000000E+03 0.  0.
        998    1    1    2    0    0 -0.54493337703E+01  0.27275520008E+01  0.14383087989E+04  0.14383564704E+04  0.10000000000E+02 0. -1.
</event>
<event>
 5    1  0.1106231E-008  0.3835447E+03  0.7957747E-01  0.3435868E+00
         13   -1    0    0    0    0  0.00000000000E+00  0.00000000000E+00  0.14999999963E+04  0.15000000000E+04  0.10566000000E+00 0. -1.
        994   -1    0    0    0    0 -0.00000000000E+00 -0.00000000000E+00  0.11368683772E-12  0.17120000000E+03  0.17120000000E+03 0.  0.
         13    1    1    2    0    0 -0.12204993717E+01  0.10437466478E+02  0.22320553166E+02  0.24670804261E+02  0.10566000000E+00 0. -1.
        994    1    1    2    0    0 -0.12090659867E+01 -0.11929410455E+02  0.28296129489E+01  0.17164270851E+03  0.17120000000E+03 0.  0.
        998    1    1    2    0    0  0.24295653584E+01  0.14919439765E+01  0.14748498302E+04  0.14748864872E+04  0.10000000000E+02 0. -1.
</event>
<event>
 5    1  0.1106231E-008  0.3732560E+03  0.7957747E-01  0.3481059E+00
         13   -1    0    0    0    0  0.00000000000E+00  0.00000000000E+00  0.14999999963E+04  0.15000000000E+04  0.10566000000E+00 0. -1.
        994   -1    0    0    0    0 -0.00000000000E+00 -0.00000000000E+00  0.11368683772E-12  0.17120000000E+03  0.17120000000E+03 0.  0.
         13    1    1    2    0    0  0.50721853052E+02  0.37143062536E+02  0.20054374215E+03  0.21016687929E+03  0.10566000000E+00 0. -1.
        994    1    1    2    0    0  0.11816727597E+02  0.18235116000E+02  0.14342369064E+02  0.17316840952E+03  0.17120000000E+03 0.  0.
        998    1    1    2    0    0 -0.62538580650E+02 -0.55378178536E+02  0.12851138851E+04  0.12878647112E+04  0.10000000000E+02 0. -1.
</event>
<event>
 5    1  0.1106231E-008  0.3844239E+03  0.7957747E-01  0.3432119E+00
         13   -1    0    0    0    0  0.00000000000E+00  0.00000000000E+00  0.14999999963E+04  0.15000000000E+04  0.10566000000E+00 0.  1.
        994   -1    0    0    0    0 -0.00000000000E+00 -0.00000000000E+00  0.11368683772E-12  0.17120000000E+03  0.17120000000E+03 0.  0.
         13    1    1    2    0    0 -0.18119998751E+02  0.14731308700E+01  0.74823339477E+02  0.77000310154E+02  0.10566000000E+00 0.  1.
        994    1    1    2    0    0  0.35056690354E+02  0.67343062977E+01  0.61264143527E+01  0.17498941503E+03  0.17120000000E+03 0.  0.
        998    1    1    2    0    0 -0.16936691603E+02 -0.82074371676E+01  0.14190502424E+04  0.14192102748E+04  0.10000000000E+02 0.  1.
</event>
<event>
 5    1  0.1106231E-008  0.3831366E+03  0.7957747E-01  0.3437614E+00
         13   -1    0    0    0    0  0.00000000000E+00  0.00000000000E+00  0.14999999963E+04  0.15000000000E+04  0.10566000000E+00 0.  1.
        994   -1    0    0    0    0 -0.00000000000E+00 -0.00000000000E+00  0.11368683772E-12  0.17120000000E+03  0.17120000000E+03 0.  0.
         13    1    1    2    0    0  0.77090315677E+01  0.14257058393E+02  0.53732940726E+02  0.56124263602E+02  0.10566000000E+00 0.  1.
        994    1    1    2    0    0 -0.75700490061E+01  0.62552054930E+01  0.28772514849E+01  0.17150554456E+03  0.17120000000E+03 0.  0.
        998    1    1    2    0    0 -0.13898256158E+00 -0.20512263886E+02  0.14433898041E+04  0.14435701918E+04  0.10000000000E+02 0.  1.
</event>
<event>
 5    1  0.1106231E-008  0.3730634E+03  0.7957747E-01  0.3481930E+00
         13   -1    0    0    0    0  0.00000000000E+00  0.00000000000E+00  0.14999999963E+04  0.15000000000E+04  0.10566000000E+00 0.  1.
        994   -1    0    0    0    0 -0.00000000000E+00 -0.00000000000E+00  0.11368683772E-12  0.17120000000E+03  0.17120000000E+03 0.  0.
         13    1    1    2    0    0 -0.42392194913E+02  0.25241401538E+02  0.14851577708E+03  0.15649656145E+03  0.10566000000E+00 0.  1.
        994    1    1    2    0    0  0.24362876247E+02 -0.36762045412E+02  0.14360908383E+02  0.17737156878E+03  0.17120000000E+03 0.  0.
        998    1    1    2    0    0  0.18029318666E+02  0.11520643875E+02  0.13371233108E+04  0.13373318698E+04  0.10000000000E+02 0.  1.
</event>
<event>
 5    1  0.1292449E-008  0.3861747E+03  0.7957747E-01  0.3424705E+00
         13   -1    0    0    0    0  0.00000000000E+00  0.00000000000E+00  0.14999999963E+04  0.15000000000E+04  0.10566000000E+00 0. -1.
        994   -1    0    0    0    0 -0.00000000000E+00 -0.00000000000E+00  0.11368683772E-12  0.17120000000E+03  0.17120000000E+03 0.  0.
         13    1    1    2    0    0  0.11628207725E+02 -0.38267225040E+01  0.67482069766E+02  0.68583525165E+02  0.10566000000E+00 0. -1.
        994    1    1    2    0    0 -0.17567923945E+02  0.20330534258E+01  0.20733757119E+01  0.17212351421E+03  0.17120000000E+03 0.  0.
        998    1    1    2    0    0  0.59397162201E+01  0.17936690782E+01  0.14304445508E+04  0.14304929606E+04  0.10000000000E+02 0. -1.
</event>
<event>
 5    1  0.1106231E-008  0.3799930E+03  0.7957747E-01  0.3451189E+00
         13   -1    0    0    0    0  0.00000000000E+00  0.00000000000E+00  0.14999999963E+04  0.15000000000E+04  0.10566000000E+00 0. -1.
        994   -1    0    0    0    0 -0.00000000000E+00 -0.00000000000E+00  0.11368683772E-12  0.17120000000E+03  0.17120000000E+03 0.  0.
         13    1    1    2    0    0 -0.15564027893E+02 -0.14898187174E+02  0.52876107625E+02  0.57097187908E+02  0.10566000000E+00 0. -1.
        994    1    1    2    0    0  0.16094806818E+02  0.15315696432E+02  0.57885521745E+01  0.17273262778E+03  0.17120000000E+03 0.  0.
        998    1    1    2    0    0 -0.53077892496E+00 -0.41750925715E+00  0.14413353365E+04  0.14413701843E+04  0.10000000000E+02 0. -1.
</event>
<event>
 5    1  0.1106231E-008  0.3833236E+03  0.7957747E-01  0.3436813E+00
         13   -1    0    0    0    0  0.00000000000E+00  0.00000000000E+00  0.14999999963E+04  0.15000000000E+04  0.10566000000E+00 0.  1.
        994   -1    0    0    0    0 -0.00000000000E+00 -0.00000000000E+00  0.11368683772E-12  0.17120000000E+03  0.17120000000E+03 0.  0.
         13    1    1    2    0    0 -0.93964305122E+01  0.53594396008E+01  0.22429540596E+02  0.24902047197E+02  0.10566000000E+00 0.  1.
        994    1    1    2    0    0  0.11229685969E+02 -0.75888836415E+01  0.30723780958E+01  0.17176314072E+03  0.17120000000E+03 0.  0.
        998    1    1    2    0    0 -0.18332554568E+01  0.22294440408E+01  0.14744980776E+04  0.14745348121E+04  0.10000000000E+02 0.  1.
</event>
<event>
 5    1  0.1106231E-008  0.3848721E+03  0.7957747E-01  0.3430215E+00
         13   -1    0    0    0    0  0.00000000000E+00  0.00000000000E+00  0.14999999963E+04  0.15000000000E+04  0.10566000000E+00 0. -1.
        994   -1    0    0    0    0 -0.00000000000E+00 -0.00000000000E+00  0.11368683772E-12  0.17120000000E+03  0.17120000000E+03 0.  0.
         13    1    1    2    0    0 -0.22323159412E+02 -0.53969549715E+01  0.13440103807E+03  0.13634918690E+03  0.10566000000E+00 0. -1.
        994    1    1    2    0    0  0.37570090036E+02 -0.18065820428E+02  0.74323606068E+01  0.17635919459E+03  0.17120000000E+03 0.  0.
        998    1    1    2    0    0 -0.15246930623E+02  0.23462775400E+02  0.13581665976E+04  0.13584916185E+04  0.10000000000E+02 0. -1.
</event>
<event>
 5    1  0.1106231E-008  0.3807158E+03  0.7957747E-01  0.3448048E+00
         13   -1    0    0    0    0  0.00000000000E+00  0.00000000000E+00  0.14999999963E+04  0.15000000000E+04  0.10566000000E+00 0. -1.
        994   -1    0    0    0    0 -0.00000000000E+00 -0.00000000000E+00  0.11368683772E-12  0.17120000000E+03  0.17120000000E+03 0.  0.
         13    1    1    2    0    0 -0.72800170110E+02 -0.70759460831E+02  0.29365503588E+03  0.31070895920E+03  0.10566000000E+00 0. -1.
        994    1    1    2    0    0  0.38216312077E+02  0.57123857372E+02  0.34089588138E+02  0.18760373560E+03  0.17120000000E+03 0.  0.
        998    1    1    2    0    0  0.34583858033E+02  0.13635603458E+02  0.11722553723E+04  0.11728873052E+04  0.10000000000E+02 0. -1.
</event>
<event>
 5    1  0.1106231E-008  0.3800656E+03  0.7957747E-01  0.3450873E+00
         13   -1    0    0    0    0  0.00000000000E+00  0.00000000000E+00  0.14999999963E+04  0.15000000000E+04  0.10566000000E+00 0. -1.
        994   -1    0    0    0    0 -0.00000000000E+00 -0.00000000000E+00  0.11368683772E-12  0.17120000000E+03  0.17120000000E+03 0.  0.
         13    1    1    2    0    0  0.13346346236E+02 -0.32626608204E+02  0.15574894222E+03  0.15968833611E+03  0.10566000000E+00 0. -1.
        994    1    1    2    0    0 -0.26950282164E+02  0.59393710106E+01  0.66495856061E+01  0.17353746231E+03  0.17120000000E+03 0.  0.
        998    1    1    2    0    0  0.13603935928E+02  0.26687237194E+02  0.13376014684E+04  0.13379742016E+04  0.10000000000E+02 0. -1.
</event>
<event>
 5    1  0.1106231E-008  0.2510978E+03  0.7957747E-01  0.4321772E+00
         13   -1    0    0    0    0  0.00000000000E+00  0.00000000000E+00  0.14999999963E+04  0.15000000000E+04  0.10566000000E+00 0.  1.
        994   -1    0    0    0    0 -0.00000000000E+00 -0.00000000000E+00  0.11368683772E-12  0.17120000000E+03  0.17120000000E+03 0.  0.
         13    1    1    2    0    0  0.16557216217E+03  0.43613644208E+02  0.30398454005E+03  0.34888809467E+03  0.10566000000E+00 0.  1.
        994    1    1    2    0    0 -0.16097216289E+03 -0.42615505325E+02  0.16279531304E+03  0.28903264949E+03  0.17120000000E+03 0.  0.
        998    1    1    2    0    0 -0.45999992769E+01 -0.99813888261E+00  0.10332201432E+04  0.10332792558E+04  0.10000000000E+02 0.  0.
</event>
<event>
 5    1  0.1106231E-008  0.3858552E+03  0.7957747E-01  0.3426053E+00
         13   -1    0    0    0    0  0.00000000000E+00  0.00000000000E+00  0.14999999963E+04  0.15000000000E+04  0.10566000000E+00 0. -1.
        994   -1    0    0    0    0 -0.00000000000E+00 -0.00000000000E+00  0.11368683772E-12  0.17120000000E+03  0.17120000000E+03 0.  0.
         13    1    1    2    0    0 -0.35872051793E+01 -0.13488273307E+02  0.79821062335E+02  0.81032183199E+02  0.10566000000E+00 0. -1.
        994    1    1    2    0    0  0.21936374184E+00  0.12092105090E+02  0.16859817388E+01  0.17163493135E+03  0.17120000000E+03 0.  0.
        998    1    1    2    0    0  0.33678414375E+01  0.13961682168E+01  0.14184929522E+04  0.14185328854E+04  0.10000000000E+02 0.  0.
</event>
<event>
 5    1  0.1106231E-008  0.3861537E+03  0.7957747E-01  0.3424794E+00
         13   -1    0    0    0    0  0.00000000000E+00  0.00000000000E+00  0.14999999963E+04  0.15000000000E+04  0.10566000000E+00 0. -1.
        994   -1    0    0    0    0 -0.00000000000E+00 -0.00000000000E+00  0.11368683772E-12  0.17120000000E+03  0.17120000000E+03 0.  0.
         13    1    1    2    0    0 -0.10430385333E+02 -0.50183898455E+01  0.63342007941E+02  0.64390980027E+02  0.10566000000E+00 0. -1.
        994    1    1    2    0    0  0.74659117348E+01  0.63703015728E+01  0.13740868956E+01  0.17148658459E+03  0.17120000000E+03 0.  0.
        998    1    1    2    0    0  0.29644735987E+01 -0.13519117273E+01  0.14352839014E+04  0.14353224354E+04  0.10000000000E+02 0. -1.
</event>
<event>
 5    1  0.1106231E-008  0.3778095E+03  0.7957747E-01  0.3460752E+00
         13   -1    0    0    0    0  0.00000000000E+00  0.00000000000E+00  0.14999999963E+04  0.15000000000E+04  0.10566000000E+00 0.  1.
        994   -1    0    0    0    0 -0.00000000000E+00 -0.00000000000E+00  0.11368683772E-12  0.17120000000E+03  0.17120000000E+03 0.  0.
         13    1    1    2    0    0  0.74399979476E+01 -0.14051525661E+02  0.22265051871E+02  0.27359507337E+02  0.10566000000E+00 0.  1.
        994    1    1    2    0    0 -0.42180443467E+01  0.31478625982E+01  0.53362956958E+01  0.17136398977E+03  0.17120000000E+03 0.  0.
        998    1    1    2    0    0 -0.32219536008E+01  0.10903663063E+02  0.14723986487E+04  0.14724765029E+04  0.10000000000E+02 0.  1.
</event>
<event>
 5    1  0.1106231E-008  0.3813053E+03  0.7957747E-01  0.3445494E+00
         13   -1    0    0    0    0  0.00000000000E+00  0.00000000000E+00  0.14999999963E+04  0.15000000000E+04  0.10566000000E+00 0. -1.
        994   -1    0    0    0    0 -0.00000000000E+00 -0.00000000000E+00  0.11368683772E-12  0.17120000000E+03  0.17120000000E+03 0.  0.
         13    1    1    2    0    0 -0.11674435483E+02 -0.14428154766E+01  0.18266805917E+02  0.21726976844E+02  0.10566000000E+00 0. -1.
        994    1    1    2    0    0  0.12590935410E+02  0.53076030344E+00  0.40044663033E+01  0.17170989812E+03  0.17120000000E+03 0.  0.
        998    1    1    2    0    0 -0.91649992726E+00  0.91205517311E+00  0.14777287241E+04  0.14777631250E+04  0.10000000000E+02 0. -1.
</event>
<event>
 5    1  0.1106231E-008  0.3728994E+03  0.7957747E-01  0.3482671E+00
         13   -1    0    0    0    0  0.00000000000E+00  0.00000000000E+00  0.14999999963E+04  0.15000000000E+04  0.10566000000E+00 0. -1.
        994   -1    0    0    0    0 -0.00000000000E+00 -0.00000000000E+00  0.11368683772E-12  0.17120000000E+03  0.17120000000E+03 0.  0.
         13    1    1    2    0    0 -0.14718675496E+01 -0.33215440396E+02  0.69337713324E+02  0.76897084000E+02  0.10566000000E+00 0. -1.
        994    1    1    2    0    0 -0.29344701260E+02  0.18362592106E+02  0.11874791354E+02  0.17506783528E+03  0.17120000000E+03 0.  0.
        998    1    1    2    0    0  0.30816568809E+02  0.14852848290E+02  0.14187874916E+04  0.14192350807E+04  0.10000000000E+02 0. -1.
</event>
<event>
 5    1  0.1106231E-008  0.3686980E+03  0.7957747E-01  0.3501896E+00
         13   -1    0    0    0    0  0.00000000000E+00  0.00000000000E+00  0.14999999963E+04  0.15000000000E+04  0.10566000000E+00 0.  1.
        994   -1    0    0    0    0 -0.00000000000E+00 -0.00000000000E+00  0.11368683772E-12  0.17120000000E+03  0.17120000000E+03 0.  0.
         13    1    1    2    0    0 -0.16742381343E+02  0.32009016017E+02  0.58548742935E+02  0.68795718637E+02  0.10566000000E+00 0.  1.
        994    1    1    2    0    0  0.26625180224E+02 -0.33522208672E+02  0.16343503436E+02  0.17722637727E+03  0.17120000000E+03 0.  0.
        998    1    1    2    0    0 -0.98827988818E+01  0.15131926550E+01  0.14251077499E+04  0.14251779041E+04  0.10000000000E+02 0.  1.
</event>
<event>
 5    1  0.1106231E-008  0.3800879E+03  0.7957747E-01  0.3450776E+00
         13   -1    0    0    0    0  0.00000000000E+00  0.00000000000E+00  0.14999999963E+04  0.15000000000E+04  0.10566000000E+00 0.  1.
        994   -1    0    0    0    0 -0.00000000000E+00 -0.00000000000E+00  0.11368683772E-12  0.17120000000E+03  0.17120000000E+03 0.  0.
         13    1    1    2    0    0 -0.23214316181E+02  0.91996174223E+01  0.83752096659E+02  0.87395436352E+02  0.10566000000E+00 0.  1.
        994    1    1    2    0    0 -0.15361828560E+02 -0.18298753923E+02  0.59987921308E+01  0.17296316278E+03  0.17120000000E+03 0.  0.
        998    1    1    2    0    0  0.38576144741E+02  0.90991365005E+01  0.14102491075E+04  0.14108414009E+04  0.10000000000E+02 0.  1.
</event>
<event>
 5    1  0.1106231E-008  0.3846435E+03  0.7957747E-01  0.3431186E+00
         13   -1    0    0    0    0  0.00000000000E+00  0.00000000000E+00  0.14999999963E+04  0.15000000000E+04  0.10566000000E+00 0. -1.
        994   -1    0    0    0    0 -0.00000000000E+00 -0.00000000000E+00  0.11368683772E-12  0.17120000000E+03  0.17120000000E+03 0.  0.
         13    1    1    2    0    0  0.94763491038E+01  0.11093048873E+02  0.55107266870E+02  0.57005955405E+02  0.10566000000E+00 0. -1.
        994    1    1    2    0    0 -0.14585128410E+02 -0.15301758411E+02  0.32799157013E+01  0.17253135259E+03  0.17120000000E+03 0.  0.
        998    1    1    2    0    0  0.51087793060E+01  0.42087095381E+01  0.14416128137E+04  0.14416626920E+04  0.10000000000E+02 0. -1.
</event>
<event>
 5    1  0.1106231E-008  0.3786920E+03  0.7957747E-01  0.3456874E+00
         13   -1    0    0    0    0  0.00000000000E+00  0.00000000000E+00  0.14999999963E+04  0.15000000000E+04  0.10566000000E+00 0.  1.
        994   -1    0    0    0    0 -0.00000000000E+00 -0.00000000000E+00  0.11368683772E-12  0.17120000000E+03  0.17120000000E+03 0.  0.
         13    1    1    2    0    0 -0.20868095529E+02 -0.50806461242E+02  0.29193688778E+03  0.29705880147E+03  0.10566000000E+00 0.  1.
        994    1    1    2    0    0  0.26791231354E+02  0.31917304936E+02  0.10647222118E+02  0.17651993590E+03  0.17120000000E+03 0.  0.
        998    1    1    2    0    0 -0.59231358255E+01  0.18889156306E+02  0.11974158864E+04  0.11976212626E+04  0.10000000000E+02 0.  1.
</event>
<event>
 5    1  0.1106231E-008  0.3688249E+03  0.7957747E-01  0.3501309E+00
         13   -1    0    0    0    0  0.00000000000E+00  0.00000000000E+00  0.14999999963E+04  0.15000000000E+04  0.10566000000E+00 0.  1.
        994   -1    0    0    0    0 -0.00000000000E+00 -0.00000000000E+00  0.11368683772E-12  0.17120000000E+03  0.17120000000E+03 0.  0.
         13    1    1    2    0    0  0.18245267382E+02  0.11917463833E+02  0.17951086788E+02  0.28234170910E+02  0.10566000000E+00 0.  1.
        994    1    1    2    0    0 -0.30548543098E+02 -0.91082249152E+01  0.13864961357E+02  0.17469359004E+03  0.17120000000E+03 0.  0.
        998    1    1    2    0    0  0.12303275716E+02 -0.28092389178E+01  0.14681839481E+04  0.14682722391E+04  0.10000000000E+02 0.  1.
</event>
<event>
 5    1  0.1106231E-008  0.3721739E+03  0.7957747E-01  0.3485960E+00
         13   -1    0    0    0    0  0.00000000000E+00  0.00000000000E+00  0.14999999963E+04  0.15000000000E+04  0.10566000000E+00 0.  1.
        994   -1    0    0    0    0 -0.00000000000E+00 -0.00000000000E+00  0.11368683772E-12  0.17120000000E+03  0.17120000000E+03 0.  0.
         13    1    1    2    0    0 -0.24730289622E+02 -0.14502283266E+02  0.45493575784E+02  0.53773413936E+02  0.10566000000E+00 0.  1.
        994    1    1    2    0    0  0.27895575970E+02  0.17007837132E+02  0.11809380909E+02  0.17468924168E+03  0.17120000000E+03 0.  0.
        998    1    1    2    0    0 -0.31652863486E+01 -0.25055538667E+01  0.14426970396E+04  0.14427373444E+04  0.10000000000E+02 0.  1.
</event>
<event>
 5    1  0.1106231E-008  0.4213159E+03  0.7957747E-01  0.3288887E+00
         13   -1    0    0    0    0  0.00000000000E+00  0.00000000000E+00  0.14999999963E+04  0.15000000000E+04  0.10566000000E+00 0.  1.
        994   -1    0    0    0    0 -0.00000000000E+00 -0.00000000000E+00  0.11368683772E-12  0.17120000000E+03  0.17120000000E+03 0.  0.
         13    1    1    2    0    0  0.94439766258E+02 -0.24232576908E+02  0.13234866922E+03  0.16438451461E+03  0.10566000000E+00 0.  1.
        994    1    1    2    0    0  0.30805058168E+02  0.68277487787E+02  0.65712435785E+02  0.19808667589E+03  0.17120000000E+03 0.  0.
        998    1    1    2    0    0 -0.12524482443E+03 -0.44044910879E+02  0.13019388913E+04  0.13087288095E+04  0.10000000000E+02 0.  1.
</event>
<event>
 5    1  0.1106231E-008  0.3856206E+03  0.7957747E-01  0.3427045E+00
         13   -1    0    0    0    0  0.00000000000E+00  0.00000000000E+00  0.14999999963E+04  0.15000000000E+04  0.10566000000E+00 0.  1.
        994   -1    0    0    0    0 -0.00000000000E+00 -0.00000000000E+00  0.11368683772E-12  0.17120000000E+03  0.17120000000E+03 0.  0.
         13    1    1    2    0    0 -0.51113464750E+00 -0.10822397183E+02  0.44058463781E+02  0.45371190575E+02  0.10566000000E+00 0.  1.
        994    1    1    2    0    0  0.85176969564E+01  0.91915839312E+01  0.18379252394E+01  0.17166786055E+03  0.17120000000E+03 0.  0.
        998    1    1    2    0    0 -0.80065623089E+01  0.16308132519E+01  0.14541036073E+04  0.14541609489E+04  0.10000000000E+02 0.  1.
</event>
<event>
 5    1  0.1106231E-008  0.3829069E+03  0.7957747E-01  0.3438598E+00
         13   -1    0    0    0    0  0.00000000000E+00  0.00000000000E+00  0.14999999963E+04  0.15000000000E+04  0.10566000000E+00 0.  1.
        994   -1    0    0    0    0 -0.00000000000E+00 -0.00000000000E+00  0.11368683772E-12  0.17120000000E+03  0.17120000000E+03 0.  0.
         13    1    1    2    0    0  0.22411331665E+02  0.26280837843E+02  0.18153581032E+03  0.18479234783E+03  0.10566000000E+00 0.  1.
        994    1    1    2    0    0 -0.29623425742E+02 -0.33571195052E+02  0.93388003790E+01  0.17720390990E+03  0.17120000000E+03 0.  0.
        998    1    1    2    0    0  0.72120940766E+01  0.72903572089E+01  0.13091253856E+04  0.13092037423E+04  0.10000000000E+02 0.  1.
</event>
<event>
 5    1  0.1106231E-008  0.3818440E+03  0.7957747E-01  0.3443169E+00
         13   -1    0    0    0    0  0.00000000000E+00  0.00000000000E+00  0.14999999963E+04  0.15000000000E+04  0.10566000000E+00 0.  1.
        994   -1    0    0    0    0 -0.00000000000E+00 -0.00000000000E+00  0.11368683772E-12  0.17120000000E+03  0.17120000000E+03 0.  0.
         13    1    1    2    0    0  0.18356546139E+02  0.13431599254E+02  0.89675539483E+02  0.92515318679E+02  0.10566000000E+00 0.  1.
        994    1    1    2    0    0  0.88556307241E+01 -0.68480965827E-01  0.34658390053E+01  0.17146392893E+03  0.17120000000E+03 0.  0.
        998    1    1    2    0    0 -0.27212176863E+02 -0.13363118288E+02  0.14068586178E+04  0.14072207524E+04  0.10000000000E+02 0.  1.
</event>
<event>
 5    1  0.1106231E-008  0.3777775E+03  0.7957747E-01  0.3460893E+00
         13   -1    0    0    0    0  0.00000000000E+00  0.00000000000E+00  0.14999999963E+04  0.15000000000E+04  0.10566000000E+00 0. -1.
        994   -1    0    0    0    0 -0.00000000000E+00 -0.00000000000E+00  0.11368683772E-12  0.17120000000E+03  0.17120000000E+03 0.  0.
         13    1    1    2    0    0  0.14160578923E+02  0.90141049808E+01  0.24455160683E+02  0.29662132966E+02  0.10566000000E+00 0. -1.
        994    1    1    2    0    0 -0.10898579591E+02 -0.85370245510E+01  0.59050056477E+01  0.17186031804E+03  0.17120000000E+03 0.  0.
        998    1    1    2    0    0 -0.32619993323E+01 -0.47708042984E+00  0.14696398299E+04  0.14696775490E+04  0.10000000000E+02 0. -1.
</event>
<event>
 5    1  0.1106231E-008  0.3826187E+03  0.7957747E-01  0.3439835E+00
         13   -1    0    0    0    0  0.00000000000E+00  0.00000000000E+00  0.14999999963E+04  0.15000000000E+04  0.10566000000E+00 0. -1.
        994   -1    0    0    0    0 -0.00000000000E+00 -0.00000000000E+00  0.11368683772E-12  0.17120000000E+03  0.17120000000E+03 0.  0.
         13    1    1    2    0    0 -0.13190441129E+02 -0.22022717967E+01  0.30978592350E+02  0.33741992921E+02  0.10566000000E+00 0. -1.
        994    1    1    2    0    0  0.68376138872E+01  0.21011424217E+01  0.29866703340E+01  0.17137540069E+03  0.17120000000E+03 0.  0.
        998    1    1    2    0    0  0.63528272416E+01  0.10112937499E+00  0.14660347336E+04  0.14660826064E+04  0.10000000000E+02 0. -1.
</event>
<event>
 5    1  0.1106231E-008  0.3816919E+03  0.7957747E-01  0.3443825E+00
         13   -1    0    0    0    0  0.00000000000E+00  0.00000000000E+00  0.14999999963E+04  0.15000000000E+04  0.10566000000E+00 0.  1.
        994   -1    0    0    0    0 -0.00000000000E+00 -0.00000000000E+00  0.11368683772E-12  0.17120000000E+03  0.17120000000E+03 0.  0.
         13    1    1    2    0    0 -0.14386998304E+01 -0.12590231460E+02  0.23015165073E+02  0.26273423317E+02  0.10566000000E+00 0.  1.
        994    1    1    2    0    0  0.10996423885E+01  0.11160734848E+02  0.36997403886E+01  0.17160681599E+03  0.17120000000E+03 0.  0.
        998    1    1    2    0    0  0.33905744189E+00  0.14294966123E+01  0.14732850908E+04  0.14733197607E+04  0.10000000000E+02 0.  1.
</event>
<event>
 5    1  0.1106231E-008  0.3710967E+03  0.7957747E-01  0.3490866E+00
         13   -1    0    0    0    0  0.00000000000E+00  0.00000000000E+00  0.14999999963E+04  0.15000000000E+04  0.10566000000E+00 0.  1.
        994   -1    0    0    0    0 -0.00000000000E+00 -0.00000000000E+00  0.11368683772E-12  0.17120000000E+03  0.17120000000E+03 0.  0.
         13    1    1    2    0    0 -0.39182840321E+01 -0.28257573540E+02  0.29221944629E+02  0.40838420930E+02  0.10566000000E+00 0.  1.
        994    1    1    2    0    0  0.29033127496E+02  0.35186900997E+02  0.18859118913E+02  0.17817448431E+03  0.17120000000E+03 0.  0.
        998    1    1    2    0    0 -0.25114843464E+02 -0.69293274567E+01  0.14519189327E+04  0.14521870948E+04  0.10000000000E+02 0.  1.
</event>
<event>
 5    1  0.1106231E-008  0.3854067E+03  0.7957747E-01  0.3427949E+00
         13   -1    0    0    0    0  0.00000000000E+00  0.00000000000E+00  0.14999999963E+04  0.15000000000E+04  0.10566000000E+00 0.  1.
        994   -1    0    0    0    0 -0.00000000000E+00 -0.00000000000E+00  0.11368683772E-12  0.17120000000E+03  0.17120000000E+03 0.  0.
         13    1    1    2    0    0  0.12688850144E+02  0.42671254749E+01  0.60878810880E+02  0.62333426474E+02  0.10566000000E+00 0.  1.
        994    1    1    2    0    0 -0.13736584920E+02 -0.34857514928E+01  0.20882683315E+01  0.17179826860E+03  0.17120000000E+03 0.  0.
        998    1    1    2    0    0  0.10477347760E+01 -0.78137398215E+00  0.14370329171E+04  0.14370683049E+04  0.10000000000E+02 0.  1.
</event>
<event>
 5    1  0.1106231E-008  0.3041413E+03  0.7957747E-01  0.3866890E+00
         13   -1    0    0    0    0  0.00000000000E+00  0.00000000000E+00  0.14999999963E+04  0.15000000000E+04  0.10566000000E+00 0. -1.
        994   -1    0    0    0    0 -0.00000000000E+00 -0.00000000000E+00  0.11368683772E-12  0.17120000000E+03  0.17120000000E+03 0.  0.
         13    1    1    2    0    0 -0.18767889430E+03  0.75712632829E+02  0.24515464116E+03  0.31789397506E+03  0.10566000000E+00 0. -1.
        994    1    1    2    0    0  0.25949315855E+03 -0.17266971907E+03  0.69703466140E+03  0.78250769351E+03  0.17120000000E+03 0.  0.
        998    1    1    2    0    0 -0.71814264250E+02  0.96957086241E+02  0.55781069373E+03  0.57079833142E+03  0.10000000000E+02 0. -1.
</event>
<event>
 5    1  0.1106231E-008  0.3710040E+03  0.7957747E-01  0.3491289E+00
         13   -1    0    0    0    0  0.00000000000E+00  0.00000000000E+00  0.14999999963E+04  0.15000000000E+04  0.10566000000E+00 0. -1.
        994   -1    0    0    0    0 -0.00000000000E+00 -0.00000000000E+00  0.11368683772E-12  0.17120000000E+03  0.17120000000E+03 0.  0.
         13    1    1    2    0    0 -0.57914283316E-01  0.14924123191E+02  0.86599950820E+01  0.17255129265E+02  0.10566000000E+00 0. -1.
        994    1    1    2    0    0  0.25605296481E+02 -0.16508720413E+02  0.11950125523E+02  0.17429978358E+03  0.17120000000E+03 0.  0.
        998    1    1    2    0    0 -0.25547382198E+02  0.15845972225E+01  0.14793898757E+04  0.14796450872E+04  0.10000000000E+02 0. -1.
</event>
<event>
 5    1  0.1395384E-008  0.3859067E+03  0.7957747E-01  0.3425836E+00
         13   -1    0    0    0    0  0.00000000000E+00  0.00000000000E+00  0.14999999963E+04  0.15000000000E+04  0.10566000000E+00 0. -1.
        994   -1    0    0    0    0 -0.00000000000E+00 -0.00000000000E+00  0.11368683772E-12  0.17120000000E+03  0.17120000000E+03 0.  0.
         13    1    1    2    0    0 -0.39893450954E+01  0.12256744898E+02  0.67347363793E+02  0.68569827502E+02  0.10566000000E+00 0. -1.
        994    1    1    2    0    0  0.71573135124E+01 -0.14280289778E+02  0.20177638501E+01  0.17195541627E+03  0.17120000000E+03 0.  0.
        998    1    1    2    0    0 -0.31679684170E+01  0.20235448792E+01  0.14306348686E+04  0.14306747562E+04  0.10000000000E+02 0. -1.
</event>
<event>
 5    1  0.1106231E-008  0.3686388E+03  0.7957747E-01  0.3502170E+00
         13   -1    0    0    0    0  0.00000000000E+00  0.00000000000E+00  0.14999999963E+04  0.15000000000E+04  0.10566000000E+00 0.  1.
        994   -1    0    0    0    0 -0.00000000000E+00 -0.00000000000E+00  0.11368683772E-12  0.17120000000E+03  0.17120000000E+03 0.  0.
         13    1    1    2    0    0 -0.47492747387E+02  0.23733239352E+02  0.14037139777E+03  0.15007654107E+03  0.10566000000E+00 0.  1.
        994    1    1    2    0    0  0.13127435589E+02 -0.37295802664E+02  0.15432807430E+02  0.17638287334E+03  0.17120000000E+03 0.  0.
        998    1    1    2    0    0  0.34365311798E+02  0.13562563311E+02  0.13441957911E+04  0.13447405856E+04  0.10000000000E+02 0.  1.
</event>
<event>
 5    1  0.1106231E-008  0.3841532E+03  0.7957747E-01  0.3433271E+00
         13   -1    0    0    0    0  0.00000000000E+00  0.00000000000E+00  0.14999999963E+04  0.15000000000E+04  0.10566000000E+00 0. -1.
        994   -1    0    0    0    0 -0.00000000000E+00 -0.00000000000E+00  0.11368683772E-12  0.17120000000E+03  0.17120000000E+03 0.  0.
         13    1    1    2    0    0  0.22402734012E+02 -0.25730715795E+01  0.10371284982E+03  0.10613608986E+03  0.10566000000E+00 0. -1.
        994    1    1    2    0    0 -0.38075934002E+02  0.12411203776E+02  0.73580545267E+01  0.17597555426E+03  0.17120000000E+03 0.  0.
        998    1    1    2    0    0  0.15673199990E+02 -0.98381321961E+01  0.13889290919E+04  0.13890883559E+04  0.10000000000E+02 0. -1.
</event>
<event>
 5    1  0.1106231E-008  0.3777790E+03  0.7957747E-01  0.3460887E+00
         13   -1    0    0    0    0  0.00000000000E+00  0.00000000000E+00  0.14999999963E+04  0.15000000000E+04  0.10566000000E+00 0. -1.
        994   -1    0    0    0    0 -0.00000000000E+00 -0.00000000000E+00  0.11368683772E-12  0.17120000000E+03  0.17120000000E+03 0.  0.
         13    1    1    2    0    0 -0.11242575641E+02 -0.66181399943E+01  0.13842421665E+02  0.19021542671E+02  0.10566000000E+00 0. -1.
        994    1    1    2    0    0  0.87629059427E+01  0.56451016419E+01  0.56245239030E+01  0.17160923915E+03  0.17120000000E+03 0.  0.
        998    1    1    2    0    0  0.24796696979E+01  0.97303835242E+00  0.14805330507E+04  0.14805692182E+04  0.10000000000E+02 0. -1.
</event>
<event>
 5    1  0.1106231E-008  0.3684487E+03  0.7957747E-01  0.3503051E+00
         13   -1    0    0    0    0  0.00000000000E+00  0.00000000000E+00  0.14999999963E+04  0.15000000000E+04  0.10566000000E+00 0. -1.
        994   -1    0    0    0    0 -0.00000000000E+00 -0.00000000000E+00  0.11368683772E-12  0.17120000000E+03  0.17120000000E+03 0.  0.
         13    1    1    2    0    0  0.51844220837E+02 -0.21975210991E+02  0.14046177683E+03  0.15132830220E+03  0.10566000000E+00 0. -1.
        994    1    1    2    0    0 -0.53584075004E+02  0.14393559315E+02  0.20902591228E+02  0.18117611864E+03  0.17120000000E+03 0.  0.
        998    1    1    2    0    0  0.17398541667E+01  0.75816516758E+01  0.13386356282E+04  0.13386955792E+04  0.10000000000E+02 0. -1.
</event>
<event>
 5    1  0.1106231E-008  0.3767416E+03  0.7957747E-01  0.3465470E+00
         13   -1    0    0    0    0  0.00000000000E+00  0.00000000000E+00  0.14999999963E+04  0.15000000000E+04  0.10566000000E+00 0. -1.
        994   -1    0    0    0    0 -0.00000000000E+00 -0.00000000000E+00  0.11368683772E-12  0.17120000000E+03  0.17120000000E+03 0.  0.
         13    1    1    2    0    0 -0.15384147124E+02  0.71472326466E+02  0.41496848480E+03  0.42135949019E+03  0.10566000000E+00 0. -1.
        994    1    1    2    0    0 -0.42837350228E+01 -0.54916916813E+02  0.16110439856E+02  0.18056357443E+03  0.17120000000E+03 0.  0.
        998    1    1    2    0    0  0.19667882147E+02 -0.16555409654E+02  0.10689210716E+04  0.10692769354E+04  0.10000000000E+02 0. -1.
</event>
<event>
 5    1  0.1106231E-008  0.3817423E+03  0.7957747E-01  0.3443607E+00
         13   -1    0    0    0    0  0.00000000000E+00  0.00000000000E+00  0.14999999963E+04  0.15000000000E+04  0.10566000000E+00 0.  1.
        994   -1    0    0    0    0 -0.00000000000E+00 -0.00000000000E+00  0.11368683772E-12  0.17120000000E+03  0.17120000000E+03 0.  0.
         13    1    1    2    0    0 -0.32935441748E+02 -0.47272765400E+01  0.13745831164E+03  0.14142803494E+03  0.10566000000E+00 0.  1.
        994    1    1    2    0    0  0.50134112788E+02  0.12182096006E+02  0.12154599097E+02  0.17921776421E+03  0.17120000000E+03 0.  0.
        998    1    1    2    0    0 -0.17198671039E+02 -0.74548194664E+01  0.13503870855E+04  0.13505542008E+04  0.10000000000E+02 0.  1.
</event>
<event>
 5    1  0.1106231E-008  0.3832340E+03  0.7957747E-01  0.3437197E+00
         13   -1    0    0    0    0  0.00000000000E+00  0.00000000000E+00  0.14999999963E+04  0.15000000000E+04  0.10566000000E+00 0.  1.
        994   -1    0    0    0    0 -0.00000000000E+00 -0.00000000000E+00  0.11368683772E-12  0.17120000000E+03  0.17120000000E+03 0.  0.
         13    1    1    2    0    0 -0.14456135281E+02 -0.13914428626E+02  0.80512018257E+02  0.82974619126E+02  0.10566000000E+00 0.  1.
        994    1    1    2    0    0  0.91797196395E+01  0.57903455594E+01  0.28991946908E+01  0.17156818086E+03  0.17120000000E+03 0.  0.
        998    1    1    2    0    0  0.52764156420E+01  0.81240830663E+01  0.14165887833E+04  0.14166572000E+04  0.10000000000E+02 0.  1.
</event>
<event>
 5    1  0.1106231E-008  0.3758374E+03  0.7957747E-01  0.3469486E+00
         13   -1    0    0    0    0  0.00000000000E+00  0.00000000000E+00  0.14999999963E+04  0.15000000000E+04  0.10566000000E+00 0.  1.
        994   -1    0    0    0    0 -0.00000000000E+00 -0.00000000000E+00  0.11368683772E-12  0.17120000000E+03  0.17120000000E+03 0.  0.
         13    1    1    2    0    0 -0.20876254412E+02 -0.80470771277E+02  0.40312841765E+03  0.41161134011E+03  0.10566000000E+00 0.  1.
        994    1    1    2    0    0  0.18899780137E+02  0.80235616737E+02  0.29641272491E+02  0.19230964853E+03  0.17120000000E+03 0.  0.
        998    1    1    2    0    0  0.19764742752E+01  0.23515453951E+00  0.10672303061E+04  0.10672790114E+04  0.10000000000E+02 0.  0.
</event>
<event>
 5    1  0.1106231E-008  0.3800164E+03  0.7957747E-01  0.3451087E+00
         13   -1    0    0    0    0  0.00000000000E+00  0.00000000000E+00  0.14999999963E+04  0.15000000000E+04  0.10566000000E+00 0.  1.
        994   -1    0    0    0    0 -0.00000000000E+00 -0.00000000000E+00  0.11368683772E-12  0.17120000000E+03  0.17120000000E+03 0.  0.
         13    1    1    2    0    0  0.97185200683E+01  0.14945079001E+02  0.38698091492E+02  0.42607023691E+02  0.10566000000E+00 0.  1.
        994    1    1    2    0    0 -0.89182425050E+01  0.80171256359E+01  0.46057158119E+01  0.17168128020E+03  0.17120000000E+03 0.  0.
        998    1    1    2    0    0 -0.80027756326E+00 -0.22962204637E+02  0.14566961890E+04  0.14569116961E+04  0.10000000000E+02 0.  1.
</event>
<event>
 5    1  0.1106231E-008  0.3848649E+03  0.7957747E-01  0.3430246E+00
         13   -1    0    0    0    0  0.00000000000E+00  0.00000000000E+00  0.14999999963E+04  0.15000000000E+04  0.10566000000E+00 0. -1.
        994   -1    0    0    0    0 -0.00000000000E+00 -0.00000000000E+00  0.11368683772E-12  0.17120000000E+03  0.17120000000E+03 0.  0.
         13    1    1    2    0    0 -0.11026983345E+02  0.98222669651E+01  0.61406367277E+02  0.63157140500E+02  0.10566000000E+00 0. -1.
        994    1    1    2    0    0  0.12115339062E+02 -0.12114388145E+02  0.26636133170E+01  0.17207578178E+03  0.17120000000E+03 0.  0.
        998    1    1    2    0    0 -0.10883557169E+01  0.22921211803E+01  0.14359300157E+04  0.14359670777E+04  0.10000000000E+02 0. -1.
</event>
<event>
 5    1  0.1106231E-008  0.3838487E+03  0.7957747E-01  0.3434570E+00
         13   -1    0    0    0    0  0.00000000000E+00  0.00000000000E+00  0.14999999963E+04  0.15000000000E+04  0.10566000000E+00 0. -1.
        994   -1    0    0    0    0 -0.00000000000E+00 -0.00000000000E+00  0.11368683772E-12  0.17120000000E+03  0.17120000000E+03 0.  0.
         13    1    1    2    0    0  0.44648451500E+01 -0.14217694862E+02  0.50282167209E+02  0.52444114948E+02  0.10566000000E+00 0. -1.
        994    1    1    2    0    0 -0.52569295449E+01  0.70140626261E+01  0.24564819540E+01  0.17144184637E+03  0.17120000000E+03 0.  0.
        998    1    1    2    0    0  0.79208439492E+00  0.72036322355E+01  0.14472613471E+04  0.14473140387E+04  0.10000000000E+02 0. -1.
</event>
<event>
 5    1  0.1106231E-008  0.3715733E+03  0.7957747E-01  0.3488691E+00
         13   -1    0    0    0    0  0.00000000000E+00  0.00000000000E+00  0.14999999963E+04  0.15000000000E+04  0.10566000000E+00 0. -1.
        994   -1    0    0    0    0 -0.00000000000E+00 -0.00000000000E+00  0.11368683772E-12  0.17120000000E+03  0.17120000000E+03 0.  0.
         13    1    1    2    0    0 -0.31500107937E+00  0.23964505103E+02  0.29968541129E+02  0.38373445922E+02  0.10566000000E+00 0. -1.
        994    1    1    2    0    0 -0.72075303529E+01 -0.23783019988E+02  0.10575804771E+02  0.17331724721E+03  0.17120000000E+03 0.  0.
        998    1    1    2    0    0  0.75225314322E+01 -0.18148511472E+00  0.14594556504E+04  0.14595093069E+04  0.10000000000E+02 0. -1.
</event>
<event>
 5    1  0.1106231E-008  0.3744239E+03  0.7957747E-01  0.3475803E+00
         13   -1    0    0    0    0  0.00000000000E+00  0.00000000000E+00  0.14999999963E+04  0.15000000000E+04  0.10566000000E+00 0.  1.
        994   -1    0    0    0    0 -0.00000000000E+00 -0.00000000000E+00  0.11368683772E-12  0.17120000000E+03  0.17120000000E+03 0.  0.
         13    1    1    2    0    0 -0.24862371145E+02 -0.45135406097E+02  0.22114915099E+03  0.22707333734E+03  0.10566000000E+00 0.  1.
        994    1    1    2    0    0 -0.76711611586E+01  0.93244096282E+01  0.74715673783E+01  0.17178782159E+03  0.17120000000E+03 0.  0.
        998    1    1    2    0    0  0.32533532304E+02  0.35810996469E+02  0.12713792779E+04  0.12723388411E+04  0.10000000000E+02 0.  1.
</event>
<event>
 5    1  0.1106231E-008  0.3841959E+03  0.7957747E-01  0.3433089E+00
         13   -1    0    0    0    0  0.00000000000E+00  0.00000000000E+00  0.14999999963E+04  0.15000000000E+04  0.10566000000E+00 0.  1.
        994   -1    0    0    0    0 -0.00000000000E+00 -0.00000000000E+00  0.11368683772E-12  0.17120000000E+03  0.17120000000E+03 0.  0.
         13    1    1    2    0    0  0.17192805036E+02  0.59066159412E+01  0.79542401530E+02  0.81593415555E+02  0.10566000000E+00 0.  1.
        994    1    1    2    0    0 -0.93762561404E+01 -0.18651673483E+02  0.34681160946E+01  0.17250294760E+03  0.17120000000E+03 0.  0.
        998    1    1    2    0    0 -0.78165488953E+01  0.12745057542E+02  0.14169894787E+04  0.14171036368E+04  0.10000000000E+02 0.  1.
</event>
<event>
 5    1  0.1106231E-008  0.3756229E+03  0.7957747E-01  0.3470442E+00
         13   -1    0    0    0    0  0.00000000000E+00  0.00000000000E+00  0.14999999963E+04  0.15000000000E+04  0.10566000000E+00 0. -1.
        994   -1    0    0    0    0 -0.00000000000E+00 -0.00000000000E+00  0.11368683772E-12  0.17120000000E+03  0.17120000000E+03 0.  0.
         13    1    1    2    0    0  0.56851722652E+01 -0.21793933069E+02  0.36906847363E+02  0.43236827458E+02  0.10566000000E+00 0. -1.
        994    1    1    2    0    0 -0.67358167213E+01  0.18002614273E+02  0.76134633344E+01  0.17244381743E+03  0.17120000000E+03 0.  0.
        998    1    1    2    0    0  0.10506444560E+01  0.37913187958E+01  0.14554796856E+04  0.14555193551E+04  0.10000000000E+02 0. -1.
</event>
<event>
 5    1  0.1106231E-008  0.3793471E+03  0.7957747E-01  0.3454006E+00
         13   -1    0    0    0    0  0.00000000000E+00  0.00000000000E+00  0.14999999963E+04  0.15000000000E+04  0.10566000000E+00 0.  1.
        994   -1    0    0    0    0 -0.00000000000E+00 -0.00000000000E+00  0.11368683772E-12  0.17120000000E+03  0.17120000000E+03 0.  0.
         13    1    1    2    0    0 -0.13787012608E+02 -0.11224732674E+02  0.33352143670E+02  0.37794880496E+02  0.10566000000E+00 0.  1.
        994    1    1    2    0    0  0.14449560918E+02  0.56720275092E+01  0.52707334038E+01  0.17198308736E+03  0.17120000000E+03 0.  0.
        998    1    1    2    0    0 -0.66254830914E+00  0.55527051650E+01  0.14613771192E+04  0.14614220321E+04  0.10000000000E+02 0.  1.
</event>
<event>
 5    1  0.1106231E-008  0.3716104E+03  0.7957747E-01  0.3488523E+00
         13   -1    0    0    0    0  0.00000000000E+00  0.00000000000E+00  0.14999999963E+04  0.15000000000E+04  0.10566000000E+00 0. -1.
        994   -1    0    0    0    0 -0.00000000000E+00 -0.00000000000E+00  0.11368683772E-12  0.17120000000E+03  0.17120000000E+03 0.  0.
         13    1    1    2    0    0 -0.25019780704E+02 -0.65598074922E+02  0.24177180467E+03  0.25175923729E+03  0.10566000000E+00 0. -1.
        994    1    1    2    0    0  0.68348507240E+01  0.92249278143E+01  0.12256431472E+02  0.17202172709E+03  0.17120000000E+03 0.  0.
        998    1    1    2    0    0  0.18184929980E+02  0.56373147108E+02  0.12459717601E+04  0.12474190356E+04  0.10000000000E+02 0. -1.
</event>
<event>
 5    1  0.1106231E-008  0.3835343E+03  0.7957747E-01  0.3435912E+00
         13   -1    0    0    0    0  0.00000000000E+00  0.00000000000E+00  0.14999999963E+04  0.15000000000E+04  0.10566000000E+00 0.  1.
        994   -1    0    0    0    0 -0.00000000000E+00 -0.00000000000E+00  0.11368683772E-12  0.17120000000E+03  0.17120000000E+03 0.  0.
         13    1    1    2    0    0 -0.68992793699E+01 -0.27790154848E+02  0.10518505492E+03  0.10901284193E+03  0.10566000000E+00 0.  1.
        994    1    1    2    0    0  0.30815791186E+02  0.91551361988E+02  0.33829212884E+02  0.19946207788E+03  0.17120000000E+03 0.  0.
        998    1    1    2    0    0 -0.23916511816E+02 -0.63761207140E+02  0.13609857285E+04  0.13627250802E+04  0.10000000000E+02 0.  1.
</event>
<event>
 5    1  0.1240012E-008  0.3852034E+03  0.7957747E-01  0.3428810E+00
         13   -1    0    0    0    0  0.00000000000E+00  0.00000000000E+00  0.14999999963E+04  0.15000000000E+04  0.10566000000E+00 0.  1.
        994   -1    0    0    0    0 -0.00000000000E+00 -0.00000000000E+00  0.11368683772E-12  0.17120000000E+03  0.17120000000E+03 0.  0.
         13    1    1    2    0    0 -0.10976890575E+02  0.25221839801E+01  0.40165983093E+02  0.41715355693E+02  0.10566000000E+00 0.  1.
        994    1    1    2    0    0  0.13267781192E+02 -0.35223446602E+01  0.21487247010E+01  0.17176291203E+03  0.17120000000E+03 0.  0.
        998    1    1    2    0    0 -0.22908906170E+01  0.10001606802E+01  0.14576852885E+04  0.14577217323E+04  0.10000000000E+02 0.  1.
</event>
<event>
 5    1  0.1106231E-008  0.3986294E+03  0.7957747E-01  0.3373848E+00
         13   -1    0    0    0    0  0.00000000000E+00  0.00000000000E+00  0.14999999963E+04  0.15000000000E+04  0.10566000000E+00 0.  1.
        994   -1    0    0    0    0 -0.00000000000E+00 -0.00000000000E+00  0.11368683772E-12  0.17120000000E+03  0.17120000000E+03 0.  0.
         13    1    1    2    0    0  0.97806499183E+02 -0.72343363872E+02  0.30262723207E+03  0.32616395621E+03  0.10566000000E+00 0.  1.
        994    1    1    2    0    0 -0.50064014153E+02  0.15439188544E+02  0.37724384809E+02  0.18296814823E+03  0.17120000000E+03 0.  0.
        998    1    1    2    0    0 -0.47742485030E+02  0.56904175328E+02  0.11596483794E+04  0.11620678956E+04  0.10000000000E+02 0. -1.
</event>
<event>
 5    1  0.1106231E-008  0.3764409E+03  0.7957747E-01  0.3466803E+00
         13   -1    0    0    0    0  0.00000000000E+00  0.00000000000E+00  0.14999999963E+04  0.15000000000E+04  0.10566000000E+00 0. -1.
        994   -1    0    0    0    0 -0.00000000000E+00 -0.00000000000E+00  0.11368683772E-12  0.17120000000E+03  0.17120000000E+03 0.  0.
         13    1    1    2    0    0  0.16444741990E+02  0.25510900413E+02  0.83336133112E+02  0.88691362743E+02  0.10566000000E+00 0. -1.
        994    1    1    2    0    0  0.13152243664E+02 -0.19011895933E+01  0.65382470278E+01  0.17183941547E+03  0.17120000000E+03 0.  0.
        998    1    1    2    0    0 -0.29596985654E+02 -0.23609710820E+02  0.14101256161E+04  0.14106692218E+04  0.10000000000E+02 0. -1.
</event>
<event>
 5    1  0.1106231E-008  0.3825267E+03  0.7957747E-01  0.3440230E+00
         13   -1    0    0    0    0  0.00000000000E+00  0.00000000000E+00  0.14999999963E+04  0.15000000000E+04  0.10566000000E+00 0. -1.
        994   -1    0    0    0    0 -0.00000000000E+00 -0.00000000000E+00  0.11368683772E-12  0.17120000000E+03  0.17120000000E+03 0.  0.
         13    1    1    2    0    0 -0.87212984089E+01  0.14439613636E+02  0.49735870148E+02  0.52518867384E+02  0.10566000000E+00 0. -1.
        994    1    1    2    0    0  0.92956077777E+01 -0.21259265656E+01  0.31646022488E+01  0.17149455558E+03  0.17120000000E+03 0.  0.
        998    1    1    2    0    0 -0.57430936880E+00 -0.12313687071E+02  0.14470995239E+04  0.14471865770E+04  0.10000000000E+02 0. -1.
</event>
<event>
 5    1  0.1106231E-008  0.3784943E+03  0.7957747E-01  0.3457741E+00
         13   -1    0    0    0    0  0.00000000000E+00  0.00000000000E+00  0.14999999963E+04  0.15000000000E+04  0.10566000000E+00 0.  1.
        994   -1    0    0    0    0 -0.00000000000E+00 -0.00000000000E+00  0.11368683772E-12  0.17120000000E+03  0.17120000000E+03 0.  0.
         13    1    1    2    0    0  0.81071463282E+01 -0.84452479060E+01  0.11772129132E+02  0.16602476385E+02  0.10566000000E+00 0.  1.
        994    1    1    2    0    0 -0.74769833372E+01  0.76201701827E+01  0.52781496839E+01  0.17161372654E+03  0.17120000000E+03 0.  0.
        998    1    1    2    0    0 -0.63016299098E+00  0.82507772331E+00  0.14829497175E+04  0.14829837971E+04  0.10000000000E+02 0.  0.
</event>
<event>
 5    1  0.1106231E-008  0.3864434E+03  0.7957747E-01  0.3423574E+00
         13   -1    0    0    0    0  0.00000000000E+00  0.00000000000E+00  0.14999999963E+04  0.15000000000E+04  0.10566000000E+00 0.  1.
        994   -1    0    0    0    0 -0.00000000000E+00 -0.00000000000E+00  0.11368683772E-12  0.17120000000E+03  0.17120000000E+03 0.  0.
         13    1    1    2    0    0 -0.99901690773E+01 -0.49882589290E+01  0.67425997515E+02  0.68344440229E+02  0.10566000000E+00 0.  1.
        994    1    1    2    0    0  0.71489311610E+01  0.10478573129E+02  0.14420817000E+01  0.17167535441E+03  0.17120000000E+03 0.  0.
        998    1    1    2    0    0  0.28412379164E+01 -0.54903141997E+01  0.14311319171E+04  0.14311802054E+04  0.10000000000E+02 0.  1.
</event>
<event>
 5    1  0.1106231E-008  0.3702716E+03  0.7957747E-01  0.3494643E+00
         13   -1    0    0    0    0  0.00000000000E+00  0.00000000000E+00  0.14999999963E+04  0.15000000000E+04  0.10566000000E+00 0. -1.
        994   -1    0    0    0    0 -0.00000000000E+00 -0.00000000000E+00  0.11368683772E-12  0.17120000000E+03  0.17120000000E+03 0.  0.
         13    1    1    2    0    0  0.17703945383E+02  0.21702199456E+02  0.31028386357E+02  0.41799366830E+02  0.10566000000E+00 0. -1.
        994    1    1    2    0    0 -0.76695610504E+01 -0.16900181333E+02  0.12288704901E+02  0.17264092957E+03  0.17120000000E+03 0.  0.
        998    1    1    2    0    0 -0.10034384333E+02 -0.48020181236E+01  0.14566829050E+04  0.14567597036E+04  0.10000000000E+02 0. -1.
</event>
<event>
 5    1  0.1106231E-008  0.3689382E+03  0.7957747E-01  0.3500785E+00
         13   -1    0    0    0    0  0.00000000000E+00  0.00000000000E+00  0.14999999963E+04  0.15000000000E+04  0.10566000000E+00 0.  1.
        994   -1    0    0    0    0 -0.00000000000E+00 -0.00000000000E+00  0.11368683772E-12  0.17120000000E+03  0.17120000000E+03 0.  0.
         13    1    1    2    0    0  0.53418265283E+01  0.10462927640E+02  0.18670541226E+01  0.11895588282E+02  0.10566000000E+00 0.  1.
        994    1    1    2    0    0 -0.69522460666E+01 -0.25963406600E+01  0.10570288374E+02  0.17168647502E+03  0.17120000000E+03 0.  0.
        998    1    1    2    0    0  0.16104195384E+01 -0.78665869798E+01  0.14875626538E+04  0.14876179367E+04  0.10000000000E+02 0.  1.
</event>
<event>
 5    1  0.1106231E-008  0.3835342E+03  0.7957747E-01  0.3435913E+00
         13   -1    0    0    0    0  0.00000000000E+00  0.00000000000E+00  0.14999999963E+04  0.15000000000E+04  0.10566000000E+00 0. -1.
        994   -1    0    0    0    0 -0.00000000000E+00 -0.00000000000E+00  0.11368683772E-12  0.17120000000E+03  0.17120000000E+03 0.  0.
         13    1    1    2    0    0 -0.69591766533E+01 -0.11782130027E+02  0.38820380559E+02  0.41161654953E+02  0.10566000000E+00 0. -1.
        994    1    1    2    0    0  0.89664830190E+01  0.66986573555E+01  0.27736824842E+01  0.17158788752E+03  0.17120000000E+03 0.  0.
        998    1    1    2    0    0 -0.20073063657E+01  0.50834726715E+01  0.14584059332E+04  0.14584504575E+04  0.10000000000E+02 0. -1.
</event>
<event>
 5    1  0.1106231E-008  0.3856829E+03  0.7957747E-01  0.3426781E+00
         13   -1    0    0    0    0  0.00000000000E+00  0.00000000000E+00  0.14999999963E+04  0.15000000000E+04  0.10566000000E+00 0. -1.
        994   -1    0    0    0    0 -0.00000000000E+00 -0.00000000000E+00  0.11368683772E-12  0.17120000000E+03  0.17120000000E+03 0.  0.
         13    1    1    2    0    0  0.65338809878E+01  0.11845251891E+02  0.78792037545E+02  0.79944968182E+02  0.10566000000E+00 0. -1.
        994    1    1    2    0    0  0.13105073886E+02 -0.35088531650E+01  0.18956600924E+01  0.17174716457E+03  0.17120000000E+03 0.  0.
        998    1    1    2    0    0 -0.19638954874E+02 -0.83363987257E+01  0.14193122986E+04  0.14195078672E+04  0.10000000000E+02 0. -1.
</event>
<event>
 5    1  0.1106231E-008  0.3843431E+03  0.7957747E-01  0.3432463E+00
         13   -1    0    0    0    0  0.00000000000E+00  0.00000000000E+00  0.14999999963E+04  0.15000000000E+04  0.10566000000E+00 0. -1.
        994   -1    0    0    0    0 -0.00000000000E+00 -0.00000000000E+00  0.11368683772E-12  0.17120000000E+03  0.17120000000E+03 0.  0.
         13    1    1    2    0    0  0.33993355829E+01 -0.23618721060E+02  0.13478102545E+03  0.13687708155E+03  0.10566000000E+00 0. -1.
        994    1    1    2    0    0 -0.28383345971E+01  0.23380164021E+02  0.37868067937E+01  0.17285389240E+03  0.17120000000E+03 0.  0.
        998    1    1    2    0    0 -0.56100098588E+00  0.23855703957E+00  0.13614321640E+04  0.13614690261E+04  0.10000000000E+02 0.  0.
</event>
<event>
 5    1  0.1106231E-008  0.3804961E+03  0.7957747E-01  0.3449001E+00
         13   -1    0    0    0    0  0.00000000000E+00  0.00000000000E+00  0.14999999963E+04  0.15000000000E+04  0.10566000000E+00 0. -1.
        994   -1    0    0    0    0 -0.00000000000E+00 -0.00000000000E+00  0.11368683772E-12  0.17120000000E+03  0.17120000000E+03 0.  0.
         13    1    1    2    0    0 -0.14793537100E+02  0.42416838607E+01  0.28993965143E+02  0.32825322552E+02  0.10566000000E+00 0. -1.
        994    1    1    2    0    0  0.10374762926E+02 -0.86754941733E+00  0.42447588170E+01  0.17156878016E+03  0.17120000000E+03 0.  0.
        998    1    1    2    0    0  0.44187741740E+01 -0.33741344433E+01  0.14667612723E+04  0.14668058973E+04  0.10000000000E+02 0. -1.
</event>
<event>
 5    1  0.1106231E-008  0.3684433E+03  0.7957747E-01  0.3503076E+00
         13   -1    0    0    0    0  0.00000000000E+00  0.00000000000E+00  0.14999999963E+04  0.15000000000E+04  0.10566000000E+00 0. -1.
        994   -1    0    0    0    0 -0.00000000000E+00 -0.00000000000E+00  0.11368683772E-12  0.17120000000E+03  0.17120000000E+03 0.  0.
         13    1    1    2    0    0 -0.76503868744E+02  0.12735605888E+02  0.27725958273E+03  0.28790263105E+03  0.10566000000E+00 0. -1.
        994    1    1    2    0    0  0.54706561848E+02 -0.87126875847E+01  0.20829962103E+02  0.18114095659E+03  0.17120000000E+03 0.  0.
        998    1    1    2    0    0  0.21797306897E+02 -0.40229183029E+01  0.12019104514E+04  0.12021564124E+04  0.10000000000E+02 0. -1.
</event>
<event>
 5    1  0.1331087E-008  0.3863164E+03  0.7957747E-01  0.3424108E+00
         13   -1    0    0    0    0  0.00000000000E+00  0.00000000000E+00  0.14999999963E+04  0.15000000000E+04  0.10566000000E+00 0. -1.
        994   -1    0    0    0    0 -0.00000000000E+00 -0.00000000000E+00  0.11368683772E-12  0.17120000000E+03  0.17120000000E+03 0.  0.
         13    1    1    2    0    0 -0.81524143108E+01 -0.72585241551E+01  0.56125859099E+02  0.57177541532E+02  0.10566000000E+00 0. -1.
        994    1    1    2    0    0  0.15867188862E+02  0.13418686132E+02  0.23933484465E+01  0.17247317744E+03  0.17120000000E+03 0.  0.
        998    1    1    2    0    0 -0.77147745515E+01 -0.61601619768E+01  0.14414807887E+04  0.14415492810E+04  0.10000000000E+02 0. -1.
</event>
<event>
 5    1  0.1106231E-008  0.3758962E+03  0.7957747E-01  0.3469224E+00
         13   -1    0    0    0    0  0.00000000000E+00  0.00000000000E+00  0.14999999963E+04  0.15000000000E+04  0.10566000000E+00 0.  1.
        994   -1    0    0    0    0 -0.00000000000E+00 -0.00000000000E+00  0.11368683772E-12  0.17120000000E+03  0.17120000000E+03 0.  0.
         13    1    1    2    0    0 -0.20306374359E+02 -0.30723139468E+02  0.11142337001E+03  0.11735177326E+03  0.10566000000E+00 0.  1.
        994    1    1    2    0    0  0.13926984189E+02  0.66500973836E+01  0.70268160896E+01  0.17203778895E+03  0.17120000000E+03 0.  0.
        998    1    1    2    0    0  0.63793901697E+01  0.24073042085E+02  0.13815498102E+04  0.13818104378E+04  0.10000000000E+02 0.  1.
</event>
<event>
 5    1  0.1106231E-008  0.3708473E+03  0.7957747E-01  0.3492006E+00
         13   -1    0    0    0    0  0.00000000000E+00  0.00000000000E+00  0.14999999963E+04  0.15000000000E+04  0.10566000000E+00 0.  1.
        994   -1    0    0    0    0 -0.00000000000E+00 -0.00000000000E+00  0.11368683772E-12  0.17120000000E+03  0.17120000000E+03 0.  0.
         13    1    1    2    0    0 -0.13064774798E+03  0.56373967448E+02  0.66980549419E+03  0.68475270679E+03  0.10566000000E+00 0.  1.
        994    1    1    2    0    0  0.12034687714E+03 -0.55662195092E+02  0.72121514430E+02  0.22823804162E+03  0.17120000000E+03 0.  0.
        998    1    1    2    0    0  0.10300870836E+02 -0.71177235635E+00  0.75807298766E+03  0.75820925158E+03  0.10000000000E+02 0.  1.
</event>
<event>
 5    1  0.1106231E-008  0.3847591E+03  0.7957747E-01  0.3430695E+00
         13   -1    0    0    0    0  0.00000000000E+00  0.00000000000E+00  0.14999999963E+04  0.15000000000E+04  0.10566000000E+00 0. -1.
        994   -1    0    0    0    0 -0.00000000000E+00 -0.00000000000E+00  0.11368683772E-12  0.17120000000E+03  0.17120000000E+03 0.  0.
         13    1    1    2    0    0 -0.19186508362E+02  0.44828898322E+01  0.11478745837E+03  0.11646626192E+03  0.10566000000E+00 0. -1.
        994    1    1    2    0    0  0.15651197904E+02  0.25088645833E+02  0.46329352929E+01  0.17379673252E+03  0.17120000000E+03 0.  0.
        998    1    1    2    0    0  0.35353104574E+01 -0.29571535665E+02  0.13805796026E+04  0.13809370056E+04  0.10000000000E+02 0. -1.
</event>
<event>
 5    1  0.1106231E-008  0.3821029E+03  0.7957747E-01  0.3442053E+00
         13   -1    0    0    0    0  0.00000000000E+00  0.00000000000E+00  0.14999999963E+04  0.15000000000E+04  0.10566000000E+00 0. -1.
        994   -1    0    0    0    0 -0.00000000000E+00 -0.00000000000E+00  0.11368683772E-12  0.17120000000E+03  0.17120000000E+03 0.  0.
         13    1    1    2    0    0 -0.16759281392E+02 -0.17923528373E+02  0.99226253629E+02  0.10221539490E+03  0.10566000000E+00 0. -1.
        994    1    1    2    0    0  0.38980578175E+01  0.11577096248E+02  0.35709339684E+01  0.17167240775E+03  0.17120000000E+03 0.  0.
        998    1    1    2    0    0  0.12861223575E+02  0.63464321258E+01  0.13972028087E+04  0.13973121973E+04  0.10000000000E+02 0. -1.
</event>
<event>
 5    1  0.1106231E-008  0.3837147E+03  0.7957747E-01  0.3435142E+00
         13   -1    0    0    0    0  0.00000000000E+00  0.00000000000E+00  0.14999999963E+04  0.15000000000E+04  0.10566000000E+00 0.  1.
        994   -1    0    0    0    0 -0.00000000000E+00 -0.00000000000E+00  0.11368683772E-12  0.17120000000E+03  0.17120000000E+03 0.  0.
         13    1    1    2    0    0 -0.18292100673E+02 -0.16405117041E+01  0.72066488387E+02  0.74369900754E+02  0.10566000000E+00 0.  1.
        994    1    1    2    0    0  0.16129726278E+02 -0.13155068220E+01  0.31349714606E+01  0.17199176339E+03  0.17120000000E+03 0.  0.
        998    1    1    2    0    0  0.21623743946E+01  0.29560185261E+01  0.14247985364E+04  0.14248383359E+04  0.10000000000E+02 0.  1.
</event>
<event>
 5    1  0.1106231E-008  0.3694688E+03  0.7957747E-01  0.3498336E+00
         13   -1    0    0    0    0  0.00000000000E+00  0.00000000000E+00  0.14999999963E+04  0.15000000000E+04  0.10566000000E+00 0. -1.
        994   -1    0    0    0    0 -0.00000000000E+00 -0.00000000000E+00  0.11368683772E-12  0.17120000000E+03  0.17120000000E+03 0.  0.
         13    1    1    2    0    0 -0.28226195580E+02  0.18032410316E+01  0.32721722914E+02  0.43251498351E+02  0.10566000000E+00 0. -1.
        994    1    1    2    0    0  0.25864076599E+02 -0.74919838591E+00  0.12997955148E+02  0.17363150231E+03  0.17120000000E+03 0.  0.
        998    1    1    2    0    0  0.23621189809E+01 -0.10540426457E+01  0.14542803182E+04  0.14543169993E+04  0.10000000000E+02 0. -1.
</event>
<event>
 5    1  0.1106231E-008  0.3828024E+03  0.7957747E-01  0.3439046E+00
         13   -1    0    0    0    0  0.00000000000E+00  0.00000000000E+00  0.14999999963E+04  0.15000000000E+04  0.10566000000E+00 0.  1.
        994   -1    0    0    0    0 -0.00000000000E+00 -0.00000000000E+00  0.11368683772E-12  0.17120000000E+03  0.17120000000E+03 0.  0.
         13    1    1    2    0    0 -0.10695782498E+02  0.93385303296E+01  0.36137928759E+02  0.38827425501E+02  0.10566000000E+00 0.  1.
        994    1    1    2    0    0  0.67468674260E+01 -0.62717671082E+01  0.30062760634E+01  0.17147400088E+03  0.17120000000E+03 0.  0.
        998    1    1    2    0    0  0.39489150717E+01 -0.30667632214E+01  0.14608557915E+04  0.14608985736E+04  0.10000000000E+02 0.  1.
</event>
<event>
 5    1  0.1106231E-008  0.3827263E+03  0.7957747E-01  0.3439373E+00
         13   -1    0    0    0    0  0.00000000000E+00  0.00000000000E+00  0.14999999963E+04  0.15000000000E+04  0.10566000000E+00 0.  1.
        994   -1    0    0    0    0 -0.00000000000E+00 -0.00000000000E+00  0.11368683772E-12  0.17120000000E+03  0.17120000000E+03 0.  0.
         13    1    1    2    0    0 -0.31495971622E+00  0.25667216842E+02  0.10797668394E+03  0.11098594803E+03  0.10566000000E+00 0.  1.
        994    1    1    2    0    0 -0.12968441679E+01 -0.30318982374E+02  0.58202695209E+01  0.17396619796E+03  0.17120000000E+03 0.  0.
        998    1    1    2    0    0  0.16118038842E+01  0.46517655318E+01  0.13862030428E+04  0.13862478540E+04  0.10000000000E+02 0.  1.
</event>
<event>
 5    1  0.1106231E-008  0.3760931E+03  0.7957747E-01  0.3468348E+00
         13   -1    0    0    0    0  0.00000000000E+00  0.00000000000E+00  0.14999999963E+04  0.15000000000E+04  0.10566000000E+00 0.  1.
        994   -1    0    0    0    0 -0.00000000000E+00 -0.00000000000E+00  0.11368683772E-12  0.17120000000E+03  0.17120000000E+03 0.  0.
         13    1    1    2    0    0 -0.10542784766E+03 -0.66830897071E+01  0.45684351239E+03  0.46889839062E+03  0.10566000000E+00 0.  1.
        994    1    1    2    0    0  0.39863573915E+02  0.51110035799E+01  0.19989995046E+02  0.17698662883E+03  0.17120000000E+03 0.  0.
        998    1    1    2    0    0  0.65564273743E+02  0.15720861272E+01  0.10231664888E+04  0.10253149806E+04  0.10000000000E+02 0.  1.
</event>
<event>
 5    1  0.1106231E-008  0.3778707E+03  0.7957747E-01  0.3460483E+00
         13   -1    0    0    0    0  0.00000000000E+00  0.00000000000E+00  0.14999999963E+04  0.15000000000E+04  0.10566000000E+00 0.  1.
        994   -1    0    0    0    0 -0.00000000000E+00 -0.00000000000E+00  0.11368683772E-12  0.17120000000E+03  0.17120000000E+03 0.  0.
         13    1    1    2    0    0  0.18781391469E+02  0.31877361839E+02  0.11825764755E+03  0.12391040808E+03  0.10566000000E+00 0.  1.
        994    1    1    2    0    0 -0.20304515804E+02 -0.34744104061E+02  0.10683302953E+02  0.17619023552E+03  0.17120000000E+03 0.  0.
        998    1    1    2    0    0  0.15231243358E+01  0.28667422227E+01  0.13710590458E+04  0.13710993564E+04  0.10000000000E+02 0.  1.
</event>
<event>
 5    1  0.1106231E-008  0.3795355E+03  0.7957747E-01  0.3453184E+00
         13   -1    0    0    0    0  0.00000000000E+00  0.00000000000E+00  0.14999999963E+04  0.15000000000E+04  0.10566000000E+00 0.  1.
        994   -1    0    0    0    0 -0.00000000000E+00 -0.00000000000E+00  0.11368683772E-12  0.17120000000E+03  0.17120000000E+03 0.  0.
         13    1    1    2    0    0  0.18112833468E+02  0.38615935389E+00  0.33126447260E+02  0.37757072548E+02  0.10566000000E+00 0.  1.
        994    1    1    2    0    0 -0.37365696636E+02  0.12703488710E+01  0.90619809742E+01  0.17546899604E+03  0.17120000000E+03 0.  0.
        998    1    1    2    0    0  0.19252863168E+02 -0.16565082249E+01  0.14578115680E+04  0.14579739314E+04  0.10000000000E+02 0.  1.
</event>
<event>
 5    1  0.1106231E-008  0.3737612E+03  0.7957747E-01  0.3478782E+00
         13   -1    0    0    0    0  0.00000000000E+00  0.00000000000E+00  0.14999999963E+04  0.15000000000E+04  0.10566000000E+00 0.  1.
        994   -1    0    0    0    0 -0.00000000000E+00 -0.00000000000E+00  0.11368683772E-12  0.17120000000E+03  0.17120000000E+03 0.  0.
         13    1    1    2    0    0 -0.33356876273E+02  0.16465917588E+02  0.46709883207E+02  0.59712913093E+02  0.10566000000E+00 0.  1.
        994    1    1    2    0    0  0.37174341179E+02 -0.15426036679E+02  0.18702352890E+02  0.17685901802E+03  0.17120000000E+03 0.  0.
        998    1    1    2    0    0 -0.38174649055E+01 -0.10398809085E+01  0.14345877602E+04  0.14346280689E+04  0.10000000000E+02 0.  1.
</event>
<event>
 5    1  0.1106231E-008  0.3848287E+03  0.7957747E-01  0.3430399E+00
         13   -1    0    0    0    0  0.00000000000E+00  0.00000000000E+00  0.14999999963E+04  0.15000000000E+04  0.10566000000E+00 0. -1.
        994   -1    0    0    0    0 -0.00000000000E+00 -0.00000000000E+00  0.11368683772E-12  0.17120000000E+03  0.17120000000E+03 0.  0.
         13    1    1    2    0    0 -0.76521825795E+01 -0.10877285677E+02  0.49810628200E+02  0.51555611602E+02  0.10566000000E+00 0. -1.
        994    1    1    2    0    0  0.53280857755E+01  0.14337364677E+02  0.24853880296E+01  0.17189987108E+03  0.17120000000E+03 0.  0.
        998    1    1    2    0    0  0.23240968040E+01 -0.34600790002E+01  0.14477039800E+04  0.14477445173E+04  0.10000000000E+02 0. -1.
</event>
<event>
 5    1  0.1106231E-008  0.3838874E+03  0.7957747E-01  0.3434405E+00
         13   -1    0    0    0    0  0.00000000000E+00  0.00000000000E+00  0.14999999963E+04  0.15000000000E+04  0.10566000000E+00 0.  1.
        994   -1    0    0    0    0 -0.00000000000E+00 -0.00000000000E+00  0.11368683772E-12  0.17120000000E+03  0.17120000000E+03 0.  0.
         13    1    1    2    0    0  0.43648241205E+01  0.20447959183E+02  0.94393886189E+02  0.96681888884E+02  0.10566000000E+00 0.  1.
        994    1    1    2    0    0 -0.71654015121E+01 -0.20299405786E+02  0.37145538636E+01  0.17258808407E+03  0.17120000000E+03 0.  0.
        998    1    1    2    0    0  0.28005773916E+01 -0.14855339673E+00  0.14018915562E+04  0.14019300270E+04  0.10000000000E+02 0.  0.
</event>
<event>
 5    1  0.1106231E-008  0.3700902E+03  0.7957747E-01  0.3495476E+00
         13   -1    0    0    0    0  0.00000000000E+00  0.00000000000E+00  0.14999999963E+04  0.15000000000E+04  0.10566000000E+00 0.  1.
        994   -1    0    0    0    0 -0.00000000000E+00 -0.00000000000E+00  0.11368683772E-12  0.17120000000E+03  0.17120000000E+03 0.  0.
         13    1    1    2    0    0 -0.28876276649E+02 -0.24526238856E+02  0.71032427425E+02  0.80504612635E+02  0.10566000000E+00 0.  1.
        994    1    1    2    0    0  0.31999587342E+02  0.22211439443E+02  0.14484870524E+02  0.17617199864E+03  0.17120000000E+03 0.  0.
        998    1    1    2    0    0 -0.31233106931E+01  0.23147994126E+01  0.14144826983E+04  0.14145233887E+04  0.10000000000E+02 0.  1.
</event>
<event>
 5    1  0.1106231E-008  0.3794742E+03  0.7957747E-01  0.3453451E+00
         13   -1    0    0    0    0  0.00000000000E+00  0.00000000000E+00  0.14999999963E+04  0.15000000000E+04  0.10566000000E+00 0. -1.
        994   -1    0    0    0    0 -0.00000000000E+00 -0.00000000000E+00  0.11368683772E-12  0.17120000000E+03  0.17120000000E+03 0.  0.
         13    1    1    2    0    0 -0.88559863451E+01 -0.62413177366E+01  0.11205625554E+02  0.15587166174E+02  0.10566000000E+00 0. -1.
        994    1    1    2    0    0  0.12766741722E+02  0.82813989697E+01  0.51746613763E+01  0.17195286675E+03  0.17120000000E+03 0.  0.
        998    1    1    2    0    0 -0.39107553772E+01 -0.20400812331E+01  0.14836197093E+04  0.14836599671E+04  0.10000000000E+02 0. -1.
</event>
<event>
 5    1  0.1106231E-008  0.3736948E+03  0.7957747E-01  0.3479081E+00
         13   -1    0    0    0    0  0.00000000000E+00  0.00000000000E+00  0.14999999963E+04  0.15000000000E+04  0.10566000000E+00 0. -1.
        994   -1    0    0    0    0 -0.00000000000E+00 -0.00000000000E+00  0.11368683772E-12  0.17120000000E+03  0.17120000000E+03 0.  0.
         13    1    1    2    0    0  0.25516679948E+02  0.35741445481E+02  0.13465579152E+03  0.14163596024E+03  0.10566000000E+00 0. -1.
        994    1    1    2    0    0 -0.12239048694E+02 -0.11768417105E+02  0.83354031479E+01  0.17224171649E+03  0.17120000000E+03 0.  0.
        998    1    1    2    0    0 -0.13277631254E+02 -0.23973028376E+02  0.13570088016E+04  0.13573223233E+04  0.10000000000E+02 0. -1.
</event>
<event>
 5    1  0.1106231E-008  0.3791266E+03  0.7957747E-01  0.3454970E+00
         13   -1    0    0    0    0  0.00000000000E+00  0.00000000000E+00  0.14999999963E+04  0.15000000000E+04  0.10566000000E+00 0. -1.
        994   -1    0    0    0    0 -0.00000000000E+00 -0.00000000000E+00  0.11368683772E-12  0.17120000000E+03  0.17120000000E+03 0.  0.
         13    1    1    2    0    0 -0.14606080260E+02  0.27745548654E+02  0.11361639550E+03  0.11786369051E+03  0.10566000000E+00 0. -1.
        994    1    1    2    0    0 -0.71007465530E+00 -0.66739711423E+01  0.47256934387E+01  0.17139666938E+03  0.17120000000E+03 0.  0.
        998    1    1    2    0    0  0.15316154915E+02 -0.21071577512E+02  0.13816579073E+04  0.13819396401E+04  0.10000000000E+02 0. -1.
</event>
<event>
 5    1  0.1106231E-008  0.3835950E+03  0.7957747E-01  0.3435653E+00
         13   -1    0    0    0    0  0.00000000000E+00  0.00000000000E+00  0.14999999963E+04  0.15000000000E+04  0.10566000000E+00 0.  1.
        994   -1    0    0    0    0 -0.00000000000E+00 -0.00000000000E+00  0.11368683772E-12  0.17120000000E+03  0.17120000000E+03 0.  0.
         13    1    1    2    0    0 -0.12773214232E+02  0.46001655134E+01  0.38463615001E+02  0.40789427154E+02  0.10566000000E+00 0.  1.
        994    1    1    2    0    0  0.11568431612E+02 -0.28852072168E+01  0.27990795426E+01  0.17163748972E+03  0.17120000000E+03 0.  0.
        998    1    1    2    0    0  0.12047826204E+01 -0.17149582966E+01  0.14587373017E+04  0.14587730831E+04  0.10000000000E+02 0.  1.
</event>
<event>
 5    1  0.1106231E-008  0.3836588E+03  0.7957747E-01  0.3435380E+00
         13   -1    0    0    0    0  0.00000000000E+00  0.00000000000E+00  0.14999999963E+04  0.15000000000E+04  0.10566000000E+00 0. -1.
        994   -1    0    0    0    0 -0.00000000000E+00 -0.00000000000E+00  0.11368683772E-12  0.17120000000E+03  0.17120000000E+03 0.  0.
         13    1    1    2    0    0 -0.10786550655E+01  0.26297140855E+02  0.13784695835E+03  0.14033708777E+03  0.10566000000E+00 0. -1.
        994    1    1    2    0    0 -0.30275449557E-02 -0.26914073815E+02  0.46937274157E+01  0.17336619756E+03  0.17120000000E+03 0.  0.
        998    1    1    2    0    0  0.10816826105E+01  0.61693295974E+00  0.13574593105E+04  0.13574967147E+04  0.10000000000E+02 0.  0.
</event>
<event>
 5    1  0.1106231E-008  0.3774005E+03  0.7957747E-01  0.3462556E+00
         13   -1    0    0    0    0  0.00000000000E+00  0.00000000000E+00  0.14999999963E+04  0.15000000000E+04  0.10566000000E+00 0.  1.
        994   -1    0    0    0    0 -0.00000000000E+00 -0.00000000000E+00  0.11368683772E-12  0.17120000000E+03  0.17120000000E+03 0.  0.
         13    1    1    2    0    0  0.20603134949E+02 -0.45720554687E+01  0.38258340691E+02  0.43693302203E+02  0.10566000000E+00 0.  1.
        994    1    1    2    0    0 -0.17025071160E+02  0.51780319552E+01  0.65196267064E+01  0.17224578542E+03  0.17120000000E+03 0.  0.
        998    1    1    2    0    0 -0.35780637890E+01 -0.60597648656E+00  0.14552220289E+04  0.14552609124E+04  0.10000000000E+02 0.  1.
</event>
<event>
 5    1  0.1106231E-008  0.3805738E+03  0.7957747E-01  0.3448664E+00
         13   -1    0    0    0    0  0.00000000000E+00  0.00000000000E+00  0.14999999963E+04  0.15000000000E+04  0.10566000000E+00 0.  1.
        994   -1    0    0    0    0 -0.00000000000E+00 -0.00000000000E+00  0.11368683772E-12  0.17120000000E+03  0.17120000000E+03 0.  0.
         13    1    1    2    0    0 -0.41030101995E+02  0.34170249204E+02  0.26402641908E+03  0.26937155815E+03  0.10566000000E+00 0.  1.
        994    1    1    2    0    0  0.93958915467E+02 -0.56503269708E+01  0.33995645754E+02  0.19830619738E+03  0.17120000000E+03 0.  0.
        998    1    1    2    0    0 -0.52928813473E+02 -0.28519922233E+02  0.12019779314E+04  0.12035222445E+04  0.10000000000E+02 0. -1.
</event>
<event>
 5    1  0.1106231E-008  0.3753948E+03  0.7957747E-01  0.3471459E+00
         13   -1    0    0    0    0  0.00000000000E+00  0.00000000000E+00  0.14999999963E+04  0.15000000000E+04  0.10566000000E+00 0. -1.
        994   -1    0    0    0    0 -0.00000000000E+00 -0.00000000000E+00  0.11368683772E-12  0.17120000000E+03  0.17120000000E+03 0.  0.
         13    1    1    2    0    0  0.17420191784E+02 -0.13333841538E+02  0.33591967509E+02  0.40120890533E+02  0.10566000000E+00 0. -1.
        994    1    1    2    0    0 -0.16778930259E+02  0.18671465715E+02  0.86182461261E+01  0.17324511623E+03  0.17120000000E+03 0.  0.
        998    1    1    2    0    0 -0.64126152564E+00 -0.53376241770E+01  0.14577897826E+04  0.14578339932E+04  0.10000000000E+02 0. -1.
</event>
<event>
 5    1  0.1106231E-008  0.3758750E+03  0.7957747E-01  0.3469319E+00
         13   -1    0    0    0    0  0.00000000000E+00  0.00000000000E+00  0.14999999963E+04  0.15000000000E+04  0.10566000000E+00 0. -1.
        994   -1    0    0    0    0 -0.00000000000E+00 -0.00000000000E+00  0.11368683772E-12  0.17120000000E+03  0.17120000000E+03 0.  0.
         13    1    1    2    0    0 -0.11978138109E+03 -0.28939369247E+02  0.50559176071E+03  0.52039226168E+03  0.10566000000E+00 0. -1.
        994    1    1    2    0    0  0.90745022854E+02 -0.24601895430E+02  0.46350564822E+02  0.20074293833E+03  0.17120000000E+03 0.  0.
        998    1    1    2    0    0  0.29036358239E+02  0.53541264677E+02  0.94805767074E+03  0.95006479999E+03  0.10000000000E+02 0. -1.
</event>
<event>
 5    1  0.1106231E-008  0.3786635E+03  0.7957747E-01  0.3456999E+00
         13   -1    0    0    0    0  0.00000000000E+00  0.00000000000E+00  0.14999999963E+04  0.15000000000E+04  0.10566000000E+00 0.  1.
        994   -1    0    0    0    0 -0.00000000000E+00 -0.00000000000E+00  0.11368683772E-12  0.17120000000E+03  0.17120000000E+03 0.  0.
         13    1    1    2    0    0 -0.42385248364E+02  0.21663509299E+02  0.23356292667E+03  0.23836415165E+03  0.10566000000E+00 0.  1.
        994    1    1    2    0    0  0.20033729988E+02 -0.21497242830E+02  0.77141366852E+01  0.17387475289E+03  0.17120000000E+03 0.  0.
        998    1    1    2    0    0  0.22351518376E+02 -0.16626646874E+00  0.12587229329E+04  0.12589610955E+04  0.10000000000E+02 0.  1.
</event>
<event>
 5    1  0.1106231E-008  0.3835639E+03  0.7957747E-01  0.3435786E+00
         13   -1    0    0    0    0  0.00000000000E+00  0.00000000000E+00  0.14999999963E+04  0.15000000000E+04  0.10566000000E+00 0. -1.
        994   -1    0    0    0    0 -0.00000000000E+00 -0.00000000000E+00  0.11368683772E-12  0.17120000000E+03  0.17120000000E+03 0.  0.
         13    1    1    2    0    0 -0.22319519867E+02  0.10573814199E+02  0.13529636216E+03  0.13753211731E+03  0.10566000000E+00 0. -1.
        994    1    1    2    0    0  0.70929866229E+01 -0.69808965027E+01  0.26721407786E+01  0.17150983561E+03  0.17120000000E+03 0.  0.
        998    1    1    2    0    0  0.15226533244E+02 -0.35929176962E+01  0.13620314933E+04  0.13621580471E+04  0.10000000000E+02 0. -1.
</event>
<event>
 5    1  0.1106231E-008  0.3859498E+03  0.7957747E-01  0.3425654E+00
         13   -1    0    0    0    0  0.00000000000E+00  0.00000000000E+00  0.14999999963E+04  0.15000000000E+04  0.10566000000E+00 0.  1.
        994   -1    0    0    0    0 -0.00000000000E+00 -0.00000000000E+00  0.11368683772E-12  0.17120000000E+03  0.17120000000E+03 0.  0.
         13    1    1    2    0    0 -0.94319902393E+00 -0.13825324566E+02  0.82747282105E+02  0.83899660807E+02  0.10566000000E+00 0.  1.
        994    1    1    2    0    0 -0.25272023915E+01  0.10638112102E+02  0.15513641581E+01  0.17155583031E+03  0.17120000000E+03 0.  0.
        998    1    1    2    0    0  0.34704014154E+01  0.31872124633E+01  0.14157013500E+04  0.14157445089E+04  0.10000000000E+02 0.  1.
</event>
<event>
 5    1  0.1106231E-008  0.3850839E+03  0.7957747E-01  0.3429316E+00
         13   -1    0    0    0    0  0.00000000000E+00  0.00000000000E+00  0.14999999963E+04  0.15000000000E+04  0.10566000000E+00 0.  1.
        994   -1    0    0    0    0 -0.00000000000E+00 -0.00000000000E+00  0.11368683772E-12  0.17120000000E+03  0.17120000000E+03 0.  0.
         13    1    1    2    0    0 -0.12983128671E+02  0.10541580714E+02  0.90509510756E+02  0.92041671299E+02  0.10566000000E+00 0.  1.
        994    1    1    2    0    0  0.79100678062E+01 -0.18930120132E+01  0.18059919410E+01  0.17140260871E+03  0.17120000000E+03 0.  0.
        998    1    1    2    0    0  0.50730608652E+01 -0.86485687008E+01  0.14076844936E+04  0.14077557200E+04  0.10000000000E+02 0.  1.
</event>
<event>
 5    1  0.1106231E-008  0.3819464E+03  0.7957747E-01  0.3442727E+00
         13   -1    0    0    0    0  0.00000000000E+00  0.00000000000E+00  0.14999999963E+04  0.15000000000E+04  0.10566000000E+00 0.  1.
        994   -1    0    0    0    0 -0.00000000000E+00 -0.00000000000E+00  0.11368683772E-12  0.17120000000E+03  0.17120000000E+03 0.  0.
         13    1    1    2    0    0 -0.59182187975E+01 -0.23483058550E+02  0.10104255823E+03  0.10390423038E+03  0.10566000000E+00 0.  1.
        994    1    1    2    0    0 -0.84315182972E+01  0.11791270845E+01  0.33946369744E+01  0.17144516442E+03  0.17120000000E+03 0.  0.
        998    1    1    2    0    0  0.14349737095E+02  0.22303931465E+02  0.13955628011E+04  0.13958506052E+04  0.10000000000E+02 0.  1.
</event>
<event>
 5    1  0.1106231E-008  0.3818391E+03  0.7957747E-01  0.3443190E+00
         13   -1    0    0    0    0  0.00000000000E+00  0.00000000000E+00  0.14999999963E+04  0.15000000000E+04  0.10566000000E+00 0.  1.
        994   -1    0    0    0    0 -0.00000000000E+00 -0.00000000000E+00  0.11368683772E-12  0.17120000000E+03  0.17120000000E+03 0.  0.
         13    1    1    2    0    0 -0.58357198033E+01  0.31250760991E+02  0.19004968508E+03  0.19269032060E+03  0.10566000000E+00 0.  1.
        994    1    1    2    0    0 -0.75918808511E+01  0.31474855540E+01  0.34321137301E+01  0.17143151030E+03  0.17120000000E+03 0.  0.
        998    1    1    2    0    0  0.13427600654E+02 -0.34398246545E+02  0.13065181975E+04  0.13070781691E+04  0.10000000000E+02 0.  1.
</event>
<event>
 5    1  0.1106231E-008  0.3838316E+03  0.7957747E-01  0.3434643E+00
         13   -1    0    0    0    0  0.00000000000E+00  0.00000000000E+00  0.14999999963E+04  0.15000000000E+04  0.10566000000E+00 0.  1.
        994   -1    0    0    0    0 -0.00000000000E+00 -0.00000000000E+00  0.11368683772E-12  0.17120000000E+03  0.17120000000E+03 0.  0.
         13    1    1    2    0    0  0.50490241515E+01 -0.23997555545E+02  0.12845437140E+03  0.13077427886E+03  0.10566000000E+00 0.  1.
        994    1    1    2    0    0 -0.65819553100E+01  0.20975854699E+02  0.38084275073E+01  0.17264777072E+03  0.17120000000E+03 0.  0.
        998    1    1    2    0    0  0.15329311585E+01  0.30217008458E+01  0.13677371974E+04  0.13677779504E+04  0.10000000000E+02 0.  1.
</event>
<event>
 5    1  0.1106231E-008  0.3695191E+03  0.7957747E-01  0.3498104E+00
         13   -1    0    0    0    0  0.00000000000E+00  0.00000000000E+00  0.14999999963E+04  0.15000000000E+04  0.10566000000E+00 0.  1.
        994   -1    0    0    0    0 -0.00000000000E+00 -0.00000000000E+00  0.11368683772E-12  0.17120000000E+03  0.17120000000E+03 0.  0.
         13    1    1    2    0    0  0.10304530506E+02 -0.76206771532E+01  0.27909257308E+01  0.13117107139E+02  0.10566000000E+00 0.  1.
        994    1    1    2    0    0 -0.19165297041E+02 -0.16136567319E+02  0.12878556698E+02  0.17350214592E+03  0.17120000000E+03 0.  0.
        998    1    1    2    0    0  0.88607665357E+01  0.23757244473E+02  0.14843305139E+04  0.14845807469E+04  0.10000000000E+02 0.  1.
</event>
<event>
 5    1  0.1106231E-008  0.3838752E+03  0.7957747E-01  0.3434457E+00
         13   -1    0    0    0    0  0.00000000000E+00  0.00000000000E+00  0.14999999963E+04  0.15000000000E+04  0.10566000000E+00 0. -1.
        994   -1    0    0    0    0 -0.00000000000E+00 -0.00000000000E+00  0.11368683772E-12  0.17120000000E+03  0.17120000000E+03 0.  0.
         13    1    1    2    0    0 -0.11136705386E+01  0.14750940815E+02  0.47845261757E+02  0.50080043467E+02  0.10566000000E+00 0. -1.
        994    1    1    2    0    0 -0.12366271810E+02 -0.17860620864E+02  0.37488606696E+01  0.17261350009E+03  0.17120000000E+03 0.  0.
        998    1    1    2    0    0  0.13479942349E+02  0.31096800493E+01  0.14484058739E+04  0.14485064564E+04  0.10000000000E+02 0. -1.
</event>
<event>
 5    1  0.1106231E-008  0.3838082E+03  0.7957747E-01  0.3434743E+00
         13   -1    0    0    0    0  0.00000000000E+00  0.00000000000E+00  0.14999999963E+04  0.15000000000E+04  0.10566000000E+00 0.  1.
        994   -1    0    0    0    0 -0.00000000000E+00 -0.00000000000E+00  0.11368683772E-12  0.17120000000E+03  0.17120000000E+03 0.  0.
         13    1    1    2    0    0 -0.10898230307E+01 -0.15444212049E+02  0.53401114481E+02  0.55600374027E+02  0.10566000000E+00 0.  1.
        994    1    1    2    0    0 -0.78826950448E+00  0.10261327870E+02  0.25727542788E+01  0.17152835125E+03  0.17120000000E+03 0.  0.
        998    1    1    2    0    0  0.18780925352E+01  0.51828841791E+01  0.14440261275E+04  0.14440712747E+04  0.10000000000E+02 0.  1.
</event>
<event>
 5    1  0.1106231E-008  0.3826917E+03  0.7957747E-01  0.3439521E+00
         13   -1    0    0    0    0  0.00000000000E+00  0.00000000000E+00  0.14999999963E+04  0.15000000000E+04  0.10566000000E+00 0.  1.
        994   -1    0    0    0    0 -0.00000000000E+00 -0.00000000000E+00  0.11368683772E-12  0.17120000000E+03  0.17120000000E+03 0.  0.
         13    1    1    2    0    0  0.52322833173E+01  0.16524557789E+02  0.54614606552E+02  0.57299251406E+02  0.10566000000E+00 0.  1.
        994    1    1    2    0    0  0.91309079608E+01 -0.87088904176E+01  0.33082681476E+01  0.17169625182E+03  0.17120000000E+03 0.  0.
        998    1    1    2    0    0 -0.14363191278E+02 -0.78156673710E+01  0.14420771216E+04  0.14422044968E+04  0.10000000000E+02 0.  1.
</event>
<event>
 5    1  0.1106231E-008  0.3829652E+03  0.7957747E-01  0.3438348E+00
         13   -1    0    0    0    0  0.00000000000E+00  0.00000000000E+00  0.14999999963E+04  0.15000000000E+04  0.10566000000E+00 0.  1.
        994   -1    0    0    0    0 -0.00000000000E+00 -0.00000000000E+00  0.11368683772E-12  0.17120000000E+03  0.17120000000E+03 0.  0.
         13    1    1    2    0    0 -0.59027803157E+01 -0.11292146574E+02  0.29632348126E+02  0.32255892628E+02  0.10566000000E+00 0.  1.
        994    1    1    2    0    0  0.19744552475E+01  0.10630394039E+02  0.30308815049E+01  0.17156785828E+03  0.17120000000E+03 0.  0.
        998    1    1    2    0    0  0.39283250682E+01  0.66175253473E+00  0.14673367666E+04  0.14673762491E+04  0.10000000000E+02 0.  1.
</event>
<event>
 5    1  0.1106231E-008  0.3843288E+03  0.7957747E-01  0.3432524E+00
         13   -1    0    0    0    0  0.00000000000E+00  0.00000000000E+00  0.14999999963E+04  0.15000000000E+04  0.10566000000E+00 0. -1.
        994   -1    0    0    0    0 -0.00000000000E+00 -0.00000000000E+00  0.11368683772E-12  0.17120000000E+03  0.17120000000E+03 0.  0.
         13    1    1    2    0    0 -0.54347996085E+01 -0.25382218239E+02  0.12622957552E+03  0.12887090808E+03  0.10566000000E+00 0. -1.
        994    1    1    2    0    0  0.18856659942E+02  0.52757695327E+02  0.12378584990E+02  0.18055917979E+03  0.17120000000E+03 0.  0.
        998    1    1    2    0    0 -0.13421860334E+02 -0.27375477089E+02  0.13613918358E+04  0.13617699121E+04  0.10000000000E+02 0. -1.
</event>
<event>
 5    1  0.3049240E-008  0.3864651E+03  0.7957747E-01  0.3423482E+00
         13   -1    0    0    0    0  0.00000000000E+00  0.00000000000E+00  0.14999999963E+04  0.15000000000E+04  0.10566000000E+00 0.  1.
        994   -1    0    0    0    0 -0.00000000000E+00 -0.00000000000E+00  0.11368683772E-12  0.17120000000E+03  0.17120000000E+03 0.  0.
         13    1    1    2    0    0 -0.95475714392E+01  0.33764652895E+01  0.57599258184E+02  0.58482838043E+02  0.10566000000E+00 0.  1.
        994    1    1    2    0    0  0.68799867196E+01 -0.29123586454E+01  0.10871949353E+01  0.17136638539E+03  0.17120000000E+03 0.  0.
        998    1    1    2    0    0  0.26675847196E+01 -0.46410664410E+00  0.14413135432E+04  0.14413507766E+04  0.10000000000E+02 0.  1.
</event>
<event>
 5    1  0.1106231E-008  0.2987658E+03  0.7957747E-01  0.3904870E+00
         13   -1    0    0    0    0  0.00000000000E+00  0.00000000000E+00  0.14999999963E+04  0.15000000000E+04  0.10566000000E+00 0.  1.
        994   -1    0    0    0    0 -0.00000000000E+00 -0.00000000000E+00  0.11368683772E-12  0.17120000000E+03  0.17120000000E+03 0.  0.
         13    1    1    2    0    0 -0.16168552373E+03  0.72799736442E+02  0.65137086020E+03  0.67507482466E+03  0.10566000000E+00 0.  1.
        994    1    1    2    0    0  0.15918822504E+03 -0.66713895040E+02  0.12678448802E+03  0.27418129255E+03  0.17120000000E+03 0.  0.
        998    1    1    2    0    0  0.24972986958E+01 -0.60858414023E+01  0.72184464805E+03  0.72194388278E+03  0.10000000000E+02 0.  1.
</event>
<event>
 5    1  0.1106231E-008  0.3830613E+03  0.7957747E-01  0.3437936E+00
         13   -1    0    0    0    0  0.00000000000E+00  0.00000000000E+00  0.14999999963E+04  0.15000000000E+04  0.10566000000E+00 0. -1.
        994   -1    0    0    0    0 -0.00000000000E+00 -0.00000000000E+00  0.11368683772E-12  0.17120000000E+03  0.17120000000E+03 0.  0.
         13    1    1    2    0    0  0.58137053356E+01 -0.22544802413E+02  0.10452069659E+03  0.10708246572E+03  0.10566000000E+00 0. -1.
        994    1    1    2    0    0  0.25482244913E+01  0.14274465836E+02  0.32918487454E+01  0.17184449392E+03  0.17120000000E+03 0.  0.
        998    1    1    2    0    0 -0.83619298268E+01  0.82703365769E+01  0.13921874509E+04  0.13922730404E+04  0.10000000000E+02 0. -1.
</event>
<event>
 5    1  0.1106231E-008  0.3808664E+03  0.7957747E-01  0.3447395E+00
         13   -1    0    0    0    0  0.00000000000E+00  0.00000000000E+00  0.14999999963E+04  0.15000000000E+04  0.10566000000E+00 0.  1.
        994   -1    0    0    0    0 -0.00000000000E+00 -0.00000000000E+00  0.11368683772E-12  0.17120000000E+03  0.17120000000E+03 0.  0.
         13    1    1    2    0    0  0.15293604158E+02  0.51491982142E+02  0.93485941936E+02  0.10781906629E+03  0.10566000000E+00 0.  1.
        994    1    1    2    0    0  0.11336186972E+02  0.12224854802E+02  0.17815051897E+02  0.17292996352E+03  0.17120000000E+03 0.  0.
        998    1    1    2    0    0 -0.26629791130E+02 -0.63716836944E+02  0.13886990024E+04  0.13904509702E+04  0.10000000000E+02 0.  1.
</event>
<event>
 5    1  0.1106231E-008  0.3849821E+03  0.7957747E-01  0.3429748E+00
         13   -1    0    0    0    0  0.00000000000E+00  0.00000000000E+00  0.14999999963E+04  0.15000000000E+04  0.10566000000E+00 0. -1.
        994   -1    0    0    0    0 -0.00000000000E+00 -0.00000000000E+00  0.11368683772E-12  0.17120000000E+03  0.17120000000E+03 0.  0.
         13    1    1    2    0    0  0.16209147769E+02 -0.19851633849E+01  0.79953352046E+02  0.81604086984E+02  0.10566000000E+00 0. -1.
        994    1    1    2    0    0 -0.12740298303E+02  0.43108150639E+01  0.22341918476E+01  0.17174204477E+03  0.17120000000E+03 0.  0.
        998    1    1    2    0    0 -0.34688494661E+01 -0.23256516790E+01  0.14178124524E+04  0.14178538682E+04  0.10000000000E+02 0. -1.
</event>
<event>
 5    1  0.1106231E-008  0.3729105E+03  0.7957747E-01  0.3482621E+00
         13   -1    0    0    0    0  0.00000000000E+00  0.00000000000E+00  0.14999999963E+04  0.15000000000E+04  0.10566000000E+00 0. -1.
        994   -1    0    0    0    0 -0.00000000000E+00 -0.00000000000E+00  0.11368683772E-12  0.17120000000E+03  0.17120000000E+03 0.  0.
         13    1    1    2    0    0  0.14669098438E+03 -0.15750284853E+03  0.91582841777E+03  0.94078004557E+03  0.10566000000E+00 0. -1.
        994    1    1    2    0    0 -0.14378974702E+03  0.15364793824E+03  0.17881514776E+03  0.32491149155E+03  0.17120000000E+03 0.  0.
        998    1    1    2    0    0 -0.29012373555E+01  0.38549102924E+01  0.40535643076E+03  0.40550846288E+03  0.10000000000E+02 0.  0.
</event>
<event>
 5    1  0.1106231E-008  0.3827934E+03  0.7957747E-01  0.3439085E+00
         13   -1    0    0    0    0  0.00000000000E+00  0.00000000000E+00  0.14999999963E+04  0.15000000000E+04  0.10566000000E+00 0. -1.
        994   -1    0    0    0    0 -0.00000000000E+00 -0.00000000000E+00  0.11368683772E-12  0.17120000000E+03  0.17120000000E+03 0.  0.
         13    1    1    2    0    0  0.95453405375E+01 -0.36571048043E+01  0.18109997342E+02  0.20795939730E+02  0.10566000000E+00 0. -1.
        994    1    1    2    0    0 -0.46908121648E+01  0.68039182141E+01  0.29558971760E+01  0.17142483586E+03  0.17120000000E+03 0.  0.
        998    1    1    2    0    0 -0.48545283727E+01 -0.31468134098E+01  0.14789341018E+04  0.14789792244E+04  0.10000000000E+02 0. -1.
</event>
<event>
 5    1  0.1106231E-008  0.3801969E+03  0.7957747E-01  0.3450302E+00
         13   -1    0    0    0    0  0.00000000000E+00  0.00000000000E+00  0.14999999963E+04  0.15000000000E+04  0.10566000000E+00 0. -1.
        994   -1    0    0    0    0 -0.00000000000E+00 -0.00000000000E+00  0.11368683772E-12  0.17120000000E+03  0.17120000000E+03 0.  0.
         13    1    1    2    0    0  0.88720981394E+02  0.24042921499E+01  0.52248622155E+03  0.52997080677E+03  0.10566000000E+00 0. -1.
        994    1    1    2    0    0 -0.10198782034E+03 -0.12513134136E+02  0.40151993051E+02  0.20366569807E+03  0.17120000000E+03 0.  0.
        998    1    1    2    0    0  0.13266838944E+02  0.10108841986E+02  0.93736178168E+03  0.93756349516E+03  0.10000000000E+02 0. -1.
</event>
<event>
 5    1  0.1106231E-008  0.3845516E+03  0.7957747E-01  0.3431576E+00
         13   -1    0    0    0    0  0.00000000000E+00  0.00000000000E+00  0.14999999963E+04  0.15000000000E+04  0.10566000000E+00 0. -1.
        994   -1    0    0    0    0 -0.00000000000E+00 -0.00000000000E+00  0.11368683772E-12  0.17120000000E+03  0.17120000000E+03 0.  0.
         13    1    1    2    0    0 -0.20692341871E+02  0.73555688307E+01  0.12490821935E+03  0.12682409798E+03  0.10566000000E+00 0. -1.
        994    1    1    2    0    0  0.17602769481E+02 -0.53665079337E+01  0.29690578819E+01  0.17221182365E+03  0.17120000000E+03 0.  0.
        998    1    1    2    0    0  0.30895723906E+01 -0.19890608970E+01  0.13721227190E+04  0.13721640784E+04  0.10000000000E+02 0. -1.
</event>
<event>
 5    1  0.1106231E-008  0.3824611E+03  0.7957747E-01  0.3440512E+00
         13   -1    0    0    0    0  0.00000000000E+00  0.00000000000E+00  0.14999999963E+04  0.15000000000E+04  0.10566000000E+00 0. -1.
        994   -1    0    0    0    0 -0.00000000000E+00 -0.00000000000E+00  0.11368683772E-12  0.17120000000E+03  0.17120000000E+03 0.  0.
         13    1    1    2    0    0 -0.13688262112E+02 -0.10648786023E+02  0.52224873064E+02  0.55029207645E+02  0.10566000000E+00 0. -1.
        994    1    1    2    0    0  0.12727679732E+02 -0.64679096748E+01  0.35720913124E+01  0.17183139272E+03  0.17120000000E+03 0.  0.
        998    1    1    2    0    0  0.96058237992E+00  0.17116695698E+02  0.14442030319E+04  0.14443393996E+04  0.10000000000E+02 0. -1.
</event>
<event>
 5    1  0.1106231E-008  0.3815675E+03  0.7957747E-01  0.3444361E+00
         13   -1    0    0    0    0  0.00000000000E+00  0.00000000000E+00  0.14999999963E+04  0.15000000000E+04  0.10566000000E+00 0.  1.
        994   -1    0    0    0    0 -0.00000000000E+00 -0.00000000000E+00  0.11368683772E-12  0.17120000000E+03  0.17120000000E+03 0.  0.
         13    1    1    2    0    0  0.42455546434E+01 -0.10608570298E+03  0.47844922921E+03  0.49008762197E+03  0.10566000000E+00 0.  1.
        994    1    1    2    0    0 -0.17578214089E+02  0.88858661644E+01  0.18606066248E+02  0.17333083375E+03  0.17120000000E+03 0.  0.
        998    1    1    2    0    0  0.13332659446E+02  0.97199836818E+02  0.10029447008E+04  0.10077815443E+04  0.10000000000E+02 0.  1.
</event>
<event>
 5    1  0.1106231E-008  0.3699002E+03  0.7957747E-01  0.3496350E+00
         13   -1    0    0    0    0  0.00000000000E+00  0.00000000000E+00  0.14999999963E+04  0.15000000000E+04  0.10566000000E+00 0. -1.
        994   -1    0    0    0    0 -0.00000000000E+00 -0.00000000000E+00  0.11368683772E-12  0.17120000000E+03  0.17120000000E+03 0.  0.
         13    1    1    2    0    0  0.87377068664E+01 -0.49828665168E+02  0.12987429617E+03  0.13937929316E+03  0.10566000000E+00 0. -1.
        994    1    1    2    0    0 -0.95913571798E+01  0.37438796000E+02  0.14505264339E+02  0.17610650264E+03  0.17120000000E+03 0.  0.
        998    1    1    2    0    0  0.85365031334E+00  0.12389869168E+02  0.13556204358E+04  0.13557142042E+04  0.10000000000E+02 0. -1.
</event>
<event>
 5    1  0.1106231E-008  0.3801108E+03  0.7957747E-01  0.3450676E+00
         13   -1    0    0    0    0  0.00000000000E+00  0.00000000000E+00  0.14999999963E+04  0.15000000000E+04  0.10566000000E+00 0. -1.
        994   -1    0    0    0    0 -0.00000000000E+00 -0.00000000000E+00  0.11368683772E-12  0.17120000000E+03  0.17120000000E+03 0.  0.
         13    1    1    2    0    0 -0.37655238488E+01 -0.27194940187E+02  0.16318664681E+02  0.31938283025E+02  0.10566000000E+00 0. -1.
        994    1    1    2    0    0  0.47439107951E+02  0.60873970619E+01  0.24726968538E+02  0.17946695612E+03  0.17120000000E+03 0.  0.
        998    1    1    2    0    0 -0.43673584102E+02  0.21107543125E+02  0.14589543631E+04  0.14597947609E+04  0.10000000000E+02 0. -1.
</event>
<event>
 5    1  0.1106231E-008  0.3754256E+03  0.7957747E-01  0.3471321E+00
         13   -1    0    0    0    0  0.00000000000E+00  0.00000000000E+00  0.14999999963E+04  0.15000000000E+04  0.10566000000E+00 0. -1.
        994   -1    0    0    0    0 -0.00000000000E+00 -0.00000000000E+00  0.11368683772E-12  0.17120000000E+03  0.17120000000E+03 0.  0.
         13    1    1    2    0    0  0.96796309484E+01 -0.23872515471E+02  0.18334032529E+02  0.31618667952E+02  0.10566000000E+00 0. -1.
        994    1    1    2    0    0 -0.31296900496E+01  0.14744577977E+02  0.14647014099E+02  0.17248528216E+03  0.17120000000E+03 0.  0.
        998    1    1    2    0    0 -0.65499408989E+01  0.91279374940E+01  0.14670189496E+04  0.14670960499E+04  0.10000000000E+02 0. -1.
</event>
<event>
 5    1  0.1106231E-008  0.3684991E+03  0.7957747E-01  0.3502817E+00
         13   -1    0    0    0    0  0.00000000000E+00  0.00000000000E+00  0.14999999963E+04  0.15000000000E+04  0.10566000000E+00 0.  1.
        994   -1    0    0    0    0 -0.00000000000E+00 -0.00000000000E+00  0.11368683772E-12  0.17120000000E+03  0.17120000000E+03 0.  0.
         13    1    1    2    0    0  0.85409959828E+02  0.26368386249E+02  0.33215911683E+03  0.34397651532E+03  0.10566000000E+00 0.  1.
        994    1    1    2    0    0 -0.74970866503E+02 -0.19598249378E+02  0.31226946224E+02  0.19049746553E+03  0.17120000000E+03 0.  0.
        998    1    1    2    0    0 -0.10439093325E+02 -0.67701368708E+01  0.11366139332E+04  0.11367260192E+04  0.10000000000E+02 0.  1.
</event>
<event>
 5    1  0.1141136E-008  0.3859961E+03  0.7957747E-01  0.3425459E+00
         13   -1    0    0    0    0  0.00000000000E+00  0.00000000000E+00  0.14999999963E+04  0.15000000000E+04  0.10566000000E+00 0. -1.
        994   -1    0    0    0    0 -0.00000000000E+00 -0.00000000000E+00  0.11368683772E-12  0.17120000000E+03  0.17120000000E+03 0.  0.
         13    1    1    2    0    0  0.21423345005E+01 -0.10881839924E+02  0.52756104788E+02  0.53909385024E+02  0.10566000000E+00 0. -1.
        994    1    1    2    0    0  0.44247304743E+01  0.14148612586E+02  0.18571418812E+01  0.17185066323E+03  0.17120000000E+03 0.  0.
        998    1    1    2    0    0 -0.65670649748E+01 -0.32667726617E+01  0.14453867496E+04  0.14454399517E+04  0.10000000000E+02 0. -1.
</event>
<event>
 5    1  0.1106231E-008  0.3827738E+03  0.7957747E-01  0.3439169E+00
         13   -1    0    0    0    0  0.00000000000E+00  0.00000000000E+00  0.14999999963E+04  0.15000000000E+04  0.10566000000E+00 0.  1.
        994   -1    0    0    0    0 -0.00000000000E+00 -0.00000000000E+00  0.11368683772E-12  0.17120000000E+03  0.17120000000E+03 0.  0.
         13    1    1    2    0    0  0.13263650162E+02 -0.62754911547E+00  0.30553175311E+02  0.33314049876E+02  0.10566000000E+00 0.  1.
        994    1    1    2    0    0 -0.14287372957E+02  0.21766788166E+02  0.49883576474E+01  0.17324042774E+03  0.17120000000E+03 0.  0.
        998    1    1    2    0    0  0.10237227944E+01 -0.21139239051E+02  0.14644584633E+04  0.14646455224E+04  0.10000000000E+02 0.  1.
</event>
<event>
 5    1  0.1106231E-008  0.3846841E+03  0.7957747E-01  0.3431013E+00
         13   -1    0    0    0    0  0.00000000000E+00  0.00000000000E+00  0.14999999963E+04  0.15000000000E+04  0.10566000000E+00 0.  1.
        994   -1    0    0    0    0 -0.00000000000E+00 -0.00000000000E+00  0.11368683772E-12  0.17120000000E+03  0.17120000000E+03 0.  0.
         13    1    1    2    0    0  0.10158561218E+02  0.49769629139E+01  0.35184957827E+02  0.36958881845E+02  0.10566000000E+00 0.  1.
        994    1    1    2    0    0 -0.78436729323E+01 -0.58965352045E+01  0.21041294831E+01  0.17149390570E+03  0.17120000000E+03 0.  0.
        998    1    1    2    0    0 -0.23148882862E+01  0.91957229059E+00  0.14627109090E+04  0.14627472125E+04  0.10000000000E+02 0.  1.
</event>
<event>
 5    1  0.1106231E-008  0.3825361E+03  0.7957747E-01  0.3440189E+00
         13   -1    0    0    0    0  0.00000000000E+00  0.00000000000E+00  0.14999999963E+04  0.15000000000E+04  0.10566000000E+00 0.  1.
        994   -1    0    0    0    0 -0.00000000000E+00 -0.00000000000E+00  0.11368683772E-12  0.17120000000E+03  0.17120000000E+03 0.  0.
         13    1    1    2    0    0  0.18197843855E+02 -0.10541526946E+02  0.78300337297E+02  0.81075516009E+02  0.10566000000E+00 0.  1.
        994    1    1    2    0    0 -0.84751257371E+01  0.32474491407E+01  0.31314967317E+01  0.17146900581E+03  0.17120000000E+03 0.  0.
        998    1    1    2    0    0 -0.97227181182E+01  0.72940778051E+01  0.14185681623E+04  0.14186554782E+04  0.10000000000E+02 0.  1.
</event>
<event>
 5    1  0.1106231E-008  0.3823619E+03  0.7957747E-01  0.3440938E+00
         13   -1    0    0    0    0  0.00000000000E+00  0.00000000000E+00  0.14999999963E+04  0.15000000000E+04  0.10566000000E+00 0.  1.
        994   -1    0    0    0    0 -0.00000000000E+00 -0.00000000000E+00  0.11368683772E-12  0.17120000000E+03  0.17120000000E+03 0.  0.
         13    1    1    2    0    0  0.24366725932E+01 -0.41078541701E+02  0.23528560523E+03  0.23885709358E+03  0.10566000000E+00 0.  1.
        994    1    1    2    0    0 -0.66784835010E+01  0.44927553209E+02  0.98192853313E+01  0.17739488590E+03  0.17120000000E+03 0.  0.
        998    1    1    2    0    0  0.42418109078E+01 -0.38490115081E+01  0.12548951057E+04  0.12549480205E+04  0.10000000000E+02 0.  1.
</event>
<event>
 5    1  0.1106231E-008  0.3783435E+03  0.7957747E-01  0.3458403E+00
         13   -1    0    0    0    0  0.00000000000E+00  0.00000000000E+00  0.14999999963E+04  0.15000000000E+04  0.10566000000E+00 0. -1.
        994   -1    0    0    0    0 -0.00000000000E+00 -0.00000000000E+00  0.11368683772E-12  0.17120000000E+03  0.17120000000E+03 0.  0.
         13    1    1    2    0    0 -0.38824671194E+01 -0.23834237892E+02  0.54085411739E+02  0.59231641661E+02  0.10566000000E+00 0. -1.
        994    1    1    2    0    0  0.57430722009E+01  0.28418855233E+02  0.78024273682E+01  0.17381292266E+03  0.17120000000E+03 0.  0.
        998    1    1    2    0    0 -0.18606050815E+01 -0.45846173414E+01  0.14381121572E+04  0.14381554357E+04  0.10000000000E+02 0. -1.
</event>
<event>
 5    1  0.1106231E-008  0.3783928E+03  0.7957747E-01  0.3458187E+00
         13   -1    0    0    0    0  0.00000000000E+00  0.00000000000E+00  0.14999999963E+04  0.15000000000E+04  0.10566000000E+00 0. -1.
        994   -1    0    0    0    0 -0.00000000000E+00 -0.00000000000E+00  0.11368683772E-12  0.17120000000E+03  0.17120000000E+03 0.  0.
         13    1    1    2    0    0 -0.12529836781E+02  0.16504521526E+02  0.40600187938E+02  0.45582699187E+02  0.10566000000E+00 0. -1.
        994    1    1    2    0    0  0.11484632404E+02 -0.16745931528E+02  0.63336247859E+01  0.17251631171E+03  0.17120000000E+03 0.  0.
        998    1    1    2    0    0  0.10452043775E+01  0.24141000179E+00  0.14530661836E+04  0.14531009891E+04  0.10000000000E+02 0. -1.
</event>
<event>
 5    1  0.1106231E-008  0.3816739E+03  0.7957747E-01  0.3443902E+00
         13   -1    0    0    0    0  0.00000000000E+00  0.00000000000E+00  0.14999999963E+04  0.15000000000E+04  0.10566000000E+00 0.  1.
        994   -1    0    0    0    0 -0.00000000000E+00 -0.00000000000E+00  0.11368683772E-12  0.17120000000E+03  0.17120000000E+03 0.  0.
         13    1    1    2    0    0 -0.13652910160E+02  0.36935236874E+01  0.28514803163E+02  0.31830005286E+02  0.10566000000E+00 0.  1.
        994    1    1    2    0    0  0.16431650626E+02 -0.22234287466E+01  0.42051518939E+01  0.17205250966E+03  0.17120000000E+03 0.  0.
        998    1    1    2    0    0 -0.27787404658E+01 -0.14700949408E+01  0.14672800412E+04  0.14673174851E+04  0.10000000000E+02 0.  1.
</event>
<event>
 5    1  0.1106231E-008  0.3852606E+03  0.7957747E-01  0.3428568E+00
         13   -1    0    0    0    0  0.00000000000E+00  0.00000000000E+00  0.14999999963E+04  0.15000000000E+04  0.10566000000E+00 0. -1.
        994   -1    0    0    0    0 -0.00000000000E+00 -0.00000000000E+00  0.11368683772E-12  0.17120000000E+03  0.17120000000E+03 0.  0.
         13    1    1    2    0    0 -0.13011221419E+02 -0.11831545291E+01  0.62557862469E+02  0.63907660403E+02  0.10566000000E+00 0. -1.
        994    1    1    2    0    0 -0.46808884727E+01 -0.81601812408E+01  0.17916617028E+01  0.17146763347E+03  0.17120000000E+03 0.  0.
        998    1    1    2    0    0  0.17692109891E+02  0.93433357700E+01  0.14356504721E+04  0.14358247061E+04  0.10000000000E+02 0. -1.
</event>
<event>
 5    1  0.1106231E-008  0.3821120E+03  0.7957747E-01  0.3442014E+00
         13   -1    0    0    0    0  0.00000000000E+00  0.00000000000E+00  0.14999999963E+04  0.15000000000E+04  0.10566000000E+00 0.  1.
        994   -1    0    0    0    0 -0.00000000000E+00 -0.00000000000E+00  0.11368683772E-12  0.17120000000E+03  0.17120000000E+03 0.  0.
         13    1    1    2    0    0 -0.12278289136E+02 -0.25155204325E+02  0.11137046188E+03  0.11483436608E+03  0.10566000000E+00 0.  1.
        994    1    1    2    0    0  0.11289761248E+01  0.42129195042E+02  0.89896715076E+01  0.17654007436E+03  0.17120000000E+03 0.  0.
        998    1    1    2    0    0  0.11149313011E+02 -0.16973990717E+02  0.13796398629E+04  0.13798255596E+04  0.10000000000E+02 0.  1.
</event>
<event>
 5    1  0.1106231E-008  0.3327305E+03  0.7957747E-01  0.3686922E+00
         13   -1    0    0    0    0  0.00000000000E+00  0.00000000000E+00  0.14999999963E+04  0.15000000000E+04  0.10566000000E+00 0. -1.
        994   -1    0    0    0    0 -0.00000000000E+00 -0.00000000000E+00  0.11368683772E-12  0.17120000000E+03  0.17120000000E+03 0.  0.
         13    1    1    2    0    0  0.18248261612E+03  0.22125210960E+03  0.47554576356E+03  0.55533430075E+03  0.10566000000E+00 0. -1.
        994    1    1    2    0    0 -0.18162323440E+03 -0.21777594903E+03  0.55530361659E+03  0.64659485758E+03  0.17120000000E+03 0.  0.
        998    1    1    2    0    0 -0.85938172163E+00 -0.34761605725E+01  0.46915061613E+03  0.46927084167E+03  0.10000000000E+02 0. -1.
</event>
<event>
 5    1  0.1106231E-008  0.3752339E+03  0.7957747E-01  0.3472177E+00
         13   -1    0    0    0    0  0.00000000000E+00  0.00000000000E+00  0.14999999963E+04  0.15000000000E+04  0.10566000000E+00 0.  1.
        994   -1    0    0    0    0 -0.00000000000E+00 -0.00000000000E+00  0.11368683772E-12  0.17120000000E+03  0.17120000000E+03 0.  0.
         13    1    1    2    0    0  0.28753918230E+02  0.44637080305E+02  0.17130624806E+03  0.17934630897E+03  0.10566000000E+00 0.  1.
        994    1    1    2    0    0 -0.27484149264E+02 -0.66704647485E+02  0.24447692604E+02  0.18738201122E+03  0.17120000000E+03 0.  0.
        998    1    1    2    0    0 -0.12697689657E+01  0.22067567180E+02  0.13042460556E+04  0.13044716798E+04  0.10000000000E+02 0.  1.
</event>
<event>
 5    1  0.1106231E-008  0.3836170E+03  0.7957747E-01  0.3435559E+00
         13   -1    0    0    0    0  0.00000000000E+00  0.00000000000E+00  0.14999999963E+04  0.15000000000E+04  0.10566000000E+00 0.  1.
        994   -1    0    0    0    0 -0.00000000000E+00 -0.00000000000E+00  0.11368683772E-12  0.17120000000E+03  0.17120000000E+03 0.  0.
         13    1    1    2    0    0 -0.23496859680E+03 -0.11504006450E+03  0.10606491436E+04  0.10924381332E+04  0.10566000000E+00 0.  1.
        994    1    1    2    0    0  0.24140123018E+03  0.11697604895E+03  0.29505530110E+03  0.43396430805E+03  0.17120000000E+03 0.  0.
        998    1    1    2    0    0 -0.64326333762E+01 -0.19359844554E+01  0.14429555160E+03  0.14479755875E+03  0.10000000000E+02 0.  1.
</event>
<event>
 5    1  0.1106231E-008  0.3857145E+03  0.7957747E-01  0.3426648E+00
         13   -1    0    0    0    0  0.00000000000E+00  0.00000000000E+00  0.14999999963E+04  0.15000000000E+04  0.10566000000E+00 0. -1.
        994   -1    0    0    0    0 -0.00000000000E+00 -0.00000000000E+00  0.11368683772E-12  0.17120000000E+03  0.17120000000E+03 0.  0.
         13    1    1    2    0    0  0.18544710134E+01 -0.10089848004E+02  0.40646093831E+02  0.41920880277E+02  0.10566000000E+00 0. -1.
        994    1    1    2    0    0 -0.17021851968E+01  0.10506514738E+02  0.16475974748E+01  0.17153844719E+03  0.17120000000E+03 0.  0.
        998    1    1    2    0    0 -0.15228581653E+00 -0.41666673408E+00  0.14577063050E+04  0.14577406725E+04  0.10000000000E+02 0. -1.
</event>
<event>
 5    1  0.1106231E-008  0.3716654E+03  0.7957747E-01  0.3488272E+00
         13   -1    0    0    0    0  0.00000000000E+00  0.00000000000E+00  0.14999999963E+04  0.15000000000E+04  0.10566000000E+00 0. -1.
        994   -1    0    0    0    0 -0.00000000000E+00 -0.00000000000E+00  0.11368683772E-12  0.17120000000E+03  0.17120000000E+03 0.  0.
         13    1    1    2    0    0 -0.18413371132E+02  0.37299084154E+01  0.17655485507E+02  0.25781617205E+02  0.10566000000E+00 0. -1.
        994    1    1    2    0    0  0.72142328333E+01  0.24818596768E+01  0.86013228132E+01  0.17158562742E+03  0.17120000000E+03 0.  0.
        998    1    1    2    0    0  0.11199138298E+02 -0.62117680923E+01  0.14737431880E+04  0.14738327554E+04  0.10000000000E+02 0. -1.
</event>
<event>
 5    1  0.1106231E-008  0.3860907E+03  0.7957747E-01  0.3425060E+00
         13   -1    0    0    0    0  0.00000000000E+00  0.00000000000E+00  0.14999999963E+04  0.15000000000E+04  0.10566000000E+00 0. -1.
        994   -1    0    0    0    0 -0.00000000000E+00 -0.00000000000E+00  0.11368683772E-12  0.17120000000E+03  0.17120000000E+03 0.  0.
         13    1    1    2    0    0  0.14466164597E+00  0.12087507618E+02  0.66070030727E+02  0.67166873470E+02  0.10566000000E+00 0. -1.
        994    1    1    2    0    0  0.19172915227E+01 -0.11693811950E+02  0.15499013268E+01  0.17161661761E+03  0.17120000000E+03 0.  0.
        998    1    1    2    0    0 -0.20619531686E+01 -0.39369566878E+00  0.14323800642E+04  0.14324165089E+04  0.10000000000E+02 0. -1.
</event>
<event>
 5    1  0.1106231E-008  0.3842435E+03  0.7957747E-01  0.3432887E+00
         13   -1    0    0    0    0  0.00000000000E+00  0.00000000000E+00  0.14999999963E+04  0.15000000000E+04  0.10566000000E+00 0.  1.
        994   -1    0    0    0    0 -0.00000000000E+00 -0.00000000000E+00  0.11368683772E-12  0.17120000000E+03  0.17120000000E+03 0.  0.
         13    1    1    2    0    0 -0.13736458711E+02  0.17456039674E+02  0.11900995415E+03  0.12106520545E+03  0.10566000000E+00 0.  1.
        994    1    1    2    0    0  0.14091001593E+02 -0.11352643014E+02  0.30864103462E+01  0.17218131361E+03  0.17120000000E+03 0.  0.
        998    1    1    2    0    0 -0.35454288227E+00 -0.61033966599E+01  0.13779036318E+04  0.13779534809E+04  0.10000000000E+02 0.  1.
</event>
<event>
 5    1  0.1106231E-008  0.3790991E+03  0.7957747E-01  0.3455091E+00
         13   -1    0    0    0    0  0.00000000000E+00  0.00000000000E+00  0.14999999963E+04  0.15000000000E+04  0.10566000000E+00 0.  1.
        994   -1    0    0    0    0 -0.00000000000E+00 -0.00000000000E+00  0.11368683772E-12  0.17120000000E+03  0.17120000000E+03 0.  0.
         13    1    1    2    0    0 -0.89810108691E+01 -0.32770439080E+02  0.11930612087E+03  0.12405048115E+03  0.10566000000E+00 0.  1.
        994    1    1    2    0    0  0.77050647172E+00  0.28725056534E+02  0.73621305364E+01  0.17375086624E+03  0.17120000000E+03 0.  0.
        998    1    1    2    0    0  0.82105043974E+01  0.40453825463E+01  0.13733317449E+04  0.13733986526E+04  0.10000000000E+02 0.  1.
</event>
<event>
 5    1  0.1106231E-008  0.3939139E+03  0.7957747E-01  0.3392725E+00
         13   -1    0    0    0    0  0.00000000000E+00  0.00000000000E+00  0.14999999963E+04  0.15000000000E+04  0.10566000000E+00 0.  1.
        994   -1    0    0    0    0 -0.00000000000E+00 -0.00000000000E+00  0.11368683772E-12  0.17120000000E+03  0.17120000000E+03 0.  0.
         13    1    1    2    0    0  0.50760070293E+02  0.17532155229E+02  0.53049574025E+02  0.75486619154E+02  0.10566000000E+00 0.  1.
        994    1    1    2    0    0 -0.30669183408E+02  0.11509876043E+02  0.28299972671E+02  0.17658823435E+03  0.17120000000E+03 0.  0.
        998    1    1    2    0    0 -0.20090886884E+02 -0.29042031272E+02  0.14186504496E+04  0.14191251465E+04  0.10000000000E+02 0.  1.
</event>
<event>
 5    1  0.1106231E-008  0.3842397E+03  0.7957747E-01  0.3432903E+00
         13   -1    0    0    0    0  0.00000000000E+00  0.00000000000E+00  0.14999999963E+04  0.15000000000E+04  0.10566000000E+00 0.  1.
        994   -1    0    0    0    0 -0.00000000000E+00 -0.00000000000E+00  0.11368683772E-12  0.17120000000E+03  0.17120000000E+03 0.  0.
         13    1    1    2    0    0  0.14495616345E+02 -0.16202599972E+02  0.11265174509E+03  0.11473044049E+03  0.10566000000E+00 0.  1.
        994    1    1    2    0    0  0.86493958254E+00  0.26918904767E+02  0.44031438573E+01  0.17336148139E+03  0.17120000000E+03 0.  0.
        998    1    1    2    0    0 -0.15360555928E+02 -0.10716304795E+02  0.13829451073E+04  0.13831080781E+04  0.10000000000E+02 0.  1.
</event>
<event>
 5    1  0.1106231E-008  0.3842333E+03  0.7957747E-01  0.3432930E+00
         13   -1    0    0    0    0  0.00000000000E+00  0.00000000000E+00  0.14999999963E+04  0.15000000000E+04  0.10566000000E+00 0. -1.
        994   -1    0    0    0    0 -0.00000000000E+00 -0.00000000000E+00  0.11368683772E-12  0.17120000000E+03  0.17120000000E+03 0.  0.
         13    1    1    2    0    0  0.11484540455E+02 -0.60647697417E+01  0.41715632326E+02  0.43690745540E+02  0.10566000000E+00 0. -1.
        994    1    1    2    0    0 -0.39327552482E+01  0.89922575070E+01  0.23288906119E+01  0.17149691248E+03  0.17120000000E+03 0.  0.
        998    1    1    2    0    0 -0.75517852065E+01 -0.29274877653E+01  0.14559554733E+04  0.14560123420E+04  0.10000000000E+02 0. -1.
</event>
<event>
 5    1  0.1106231E-008  0.3694481E+03  0.7957747E-01  0.3498431E+00
         13   -1    0    0    0    0  0.00000000000E+00  0.00000000000E+00  0.14999999963E+04  0.15000000000E+04  0.10566000000E+00 0.  1.
        994   -1    0    0    0    0 -0.00000000000E+00 -0.00000000000E+00  0.11368683772E-12  0.17120000000E+03  0.17120000000E+03 0.  0.
         13    1    1    2    0    0 -0.23657733259E+02  0.17953505846E+03  0.70955310177E+03  0.73229648433E+03  0.10566000000E+00 0.  1.
        994    1    1    2    0    0  0.56082146792E+02 -0.17562986062E+03  0.14071168482E+03  0.28827118027E+03  0.17120000000E+03 0.  0.
        998    1    1    2    0    0 -0.32424413533E+02 -0.39051978420E+01  0.64973520969E+03  0.65063233540E+03  0.10000000000E+02 0.  1.
</event>
<event>
 5    1  0.1106231E-008  0.3782742E+03  0.7957747E-01  0.3458707E+00
         13   -1    0    0    0    0  0.00000000000E+00  0.00000000000E+00  0.14999999963E+04  0.15000000000E+04  0.10566000000E+00 0. -1.
        994   -1    0    0    0    0 -0.00000000000E+00 -0.00000000000E+00  0.11368683772E-12  0.17120000000E+03  0.17120000000E+03 0.  0.
         13    1    1    2    0    0  0.11089428088E+02  0.25366819818E+03  0.98076031657E+03  0.10130949313E+04  0.10566000000E+00 0. -1.
        994    1    1    2    0    0 -0.12149297107E+02 -0.25677001228E+03  0.27469564941E+03  0.41333471235E+03  0.17120000000E+03 0.  0.
        998    1    1    2    0    0  0.10598690184E+01  0.31018140995E+01  0.24454403030E+03  0.24477035631E+03  0.10000000000E+02 0.  0.
</event>
<event>
 5    1  0.1106231E-008  0.3833833E+03  0.7957747E-01  0.3436558E+00
         13   -1    0    0    0    0  0.00000000000E+00  0.00000000000E+00  0.14999999963E+04  0.15000000000E+04  0.10566000000E+00 0. -1.
        994   -1    0    0    0    0 -0.00000000000E+00 -0.00000000000E+00  0.11368683772E-12  0.17120000000E+03  0.17120000000E+03 0.  0.
         13    1    1    2    0    0  0.94646849786E+01 -0.10785120590E+02  0.41217826386E+02  0.43644237465E+02  0.10566000000E+00 0. -1.
        994    1    1    2    0    0 -0.25689588247E+01  0.13230708657E+02  0.30356721094E+01  0.17175653264E+03  0.17120000000E+03 0.  0.
        998    1    1    2    0    0 -0.68957261539E+01 -0.24455880665E+01  0.14557464978E+04  0.14557992299E+04  0.10000000000E+02 0. -1.
</event>
<event>
 5    1  0.1106231E-008  0.3804997E+03  0.7957747E-01  0.3448986E+00
         13   -1    0    0    0    0  0.00000000000E+00  0.00000000000E+00  0.14999999963E+04  0.15000000000E+04  0.10566000000E+00 0.  1.
        994   -1    0    0    0    0 -0.00000000000E+00 -0.00000000000E+00  0.11368683772E-12  0.17120000000E+03  0.17120000000E+03 0.  0.
         13    1    1    2    0    0 -0.37253746711E+02  0.77418719411E+01  0.16710973273E+03  0.17138684945E+03  0.10566000000E+00 0.  1.
        994    1    1    2    0    0  0.35927097942E+02 -0.10657705928E+02  0.85822367646E+01  0.17546349435E+03  0.17120000000E+03 0.  0.
        998    1    1    2    0    0  0.13266487694E+01  0.29158339869E+01  0.13243080268E+04  0.13243496562E+04  0.10000000000E+02 0.  1.
</event>
<event>
 5    1  0.1106231E-008  0.3842954E+03  0.7957747E-01  0.3432666E+00
         13   -1    0    0    0    0  0.00000000000E+00  0.00000000000E+00  0.14999999963E+04  0.15000000000E+04  0.10566000000E+00 0.  1.
        994   -1    0    0    0    0 -0.00000000000E+00 -0.00000000000E+00  0.11368683772E-12  0.17120000000E+03  0.17120000000E+03 0.  0.
         13    1    1    2    0    0  0.59465608513E+01  0.13601245521E+02  0.54449183375E+02  0.56436514775E+02  0.10566000000E+00 0.  1.
        994    1    1    2    0    0 -0.45488877227E-01 -0.13890699232E+02  0.26166118594E+01  0.17178253768E+03  0.17120000000E+03 0.  0.
        998    1    1    2    0    0 -0.59010719741E+01  0.28945371118E+00  0.14429342010E+04  0.14429809475E+04  0.10000000000E+02 0.  1.
</event>
<event>
 5    1  0.1106231E-008  0.3750855E+03  0.7957747E-01  0.3472841E+00
         13   -1    0    0    0    0  0.00000000000E+00  0.00000000000E+00  0.14999999963E+04  0.15000000000E+04  0.10566000000E+00 0.  1.
        994   -1    0    0    0    0 -0.00000000000E+00 -0.00000000000E+00  0.11368683772E-12  0.17120000000E+03  0.17120000000E+03 0.  0.
         13    1    1    2    0    0 -0.85356845594E+01  0.27059475027E+02  0.57973795849E+02  0.64544908930E+02  0.10566000000E+00 0.  1.
        994    1    1    2    0    0  0.18468838567E+01 -0.19579430777E+02  0.79502433334E+01  0.17250916340E+03  0.17120000000E+03 0.  0.
        998    1    1    2    0    0  0.66888007027E+01 -0.74800442499E+01  0.14340759571E+04  0.14341459277E+04  0.10000000000E+02 0.  1.
</event>
<event>
 5    1  0.1106231E-008  0.3735971E+03  0.7957747E-01  0.3479521E+00
         13   -1    0    0    0    0  0.00000000000E+00  0.00000000000E+00  0.14999999963E+04  0.15000000000E+04  0.10566000000E+00 0. -1.
        994   -1    0    0    0    0 -0.00000000000E+00 -0.00000000000E+00  0.11368683772E-12  0.17120000000E+03  0.17120000000E+03 0.  0.
         13    1    1    2    0    0  0.86667943267E+02 -0.66375201196E+02  0.58479058850E+03  0.59489246364E+03  0.10566000000E+00 0. -1.
        994    1    1    2    0    0 -0.94780410987E+02 -0.35606056764E+02  0.50097749421E+02  0.20511056063E+03  0.17120000000E+03 0.  0.
        998    1    1    2    0    0  0.81124677201E+01  0.10198125796E+03  0.86511165835E+03  0.87119697573E+03  0.10000000000E+02 0. -1.
</event>
<event>
 5    1  0.1106231E-008  0.3764502E+03  0.7957747E-01  0.3466762E+00
         13   -1    0    0    0    0  0.00000000000E+00  0.00000000000E+00  0.14999999963E+04  0.15000000000E+04  0.10566000000E+00 0.  1.
        994   -1    0    0    0    0 -0.00000000000E+00 -0.00000000000E+00  0.11368683772E-12  0.17120000000E+03  0.17120000000E+03 0.  0.
         13    1    1    2    0    0 -0.48510383933E+02  0.19126823456E+02  0.26894211176E+03  0.27395065864E+03  0.10566000000E+00 0.  1.
        994    1    1    2    0    0  0.96302719980E+01  0.31389649692E+01  0.62830005360E+01  0.17161442636E+03  0.17120000000E+03 0.  0.
        998    1    1    2    0    0  0.38880111935E+02 -0.22265788426E+02  0.12247748840E+04  0.12256349150E+04  0.10000000000E+02 0.  1.
</event>
<event>
 5    1  0.1106231E-008  0.3811411E+03  0.7957747E-01  0.3446205E+00
         13   -1    0    0    0    0  0.00000000000E+00  0.00000000000E+00  0.14999999963E+04  0.15000000000E+04  0.10566000000E+00 0.  1.
        994   -1    0    0    0    0 -0.00000000000E+00 -0.00000000000E+00  0.11368683772E-12  0.17120000000E+03  0.17120000000E+03 0.  0.
         13    1    1    2    0    0 -0.60702440040E+02  0.99355104174E+02  0.29597448633E+03  0.31805208799E+03  0.10566000000E+00 0.  1.
        994    1    1    2    0    0  0.60211191130E+02 -0.10920061837E+03  0.75982714247E+02  0.22501772253E+03  0.17120000000E+03 0.  0.
        998    1    1    2    0    0  0.49124891028E+00  0.98455141975E+01  0.11280427957E+04  0.11281301895E+04  0.10000000000E+02 0.  1.
</event>
<event>
 5    1  0.1106231E-008  0.4094961E+03  0.7957747E-01  0.3331992E+00
         13   -1    0    0    0    0  0.00000000000E+00  0.00000000000E+00  0.14999999963E+04  0.15000000000E+04  0.10566000000E+00 0. -1.
        994   -1    0    0    0    0 -0.00000000000E+00 -0.00000000000E+00  0.11368683772E-12  0.17120000000E+03  0.17120000000E+03 0.  0.
         13    1    1    2    0    0  0.56928075824E+01  0.12041987892E+03  0.25526617922E+03  0.28230159176E+03  0.10566000000E+00 0. -1.
        994    1    1    2    0    0 -0.36502412448E+02 -0.26047606014E+02  0.41814621420E+02  0.18184830617E+03  0.17120000000E+03 0.  0.
        998    1    1    2    0    0  0.30809604866E+02 -0.94372272904E+02  0.12029191956E+04  0.12070501021E+04  0.10000000000E+02 0. -1.
</event>
<event>
 5    1  0.1106231E-008  0.3797963E+03  0.7957747E-01  0.3452046E+00
         13   -1    0    0    0    0  0.00000000000E+00  0.00000000000E+00  0.14999999963E+04  0.15000000000E+04  0.10566000000E+00 0. -1.
        994   -1    0    0    0    0 -0.00000000000E+00 -0.00000000000E+00  0.11368683772E-12  0.17120000000E+03  0.17120000000E+03 0.  0.
         13    1    1    2    0    0  0.19084177866E+02 -0.30263133405E+02  0.17269297767E+03  0.17636025286E+03  0.10566000000E+00 0. -1.
        994    1    1    2    0    0 -0.68577811435E+01 -0.40022877244E+01  0.44469588108E+01  0.17144171870E+03  0.17120000000E+03 0.  0.
        998    1    1    2    0    0 -0.12226396722E+02  0.34265421129E+02  0.13228600598E+04  0.13233980284E+04  0.10000000000E+02 0. -1.
</event>
<event>
 5    1  0.1106231E-008  0.3809193E+03  0.7957747E-01  0.3447165E+00
         13   -1    0    0    0    0  0.00000000000E+00  0.00000000000E+00  0.14999999963E+04  0.15000000000E+04  0.10566000000E+00 0. -1.
        994   -1    0    0    0    0 -0.00000000000E+00 -0.00000000000E+00  0.11368683772E-12  0.17120000000E+03  0.17120000000E+03 0.  0.
         13    1    1    2    0    0  0.65692751720E+01  0.12936347847E+02  0.27604986366E+02  0.31185748480E+02  0.10566000000E+00 0. -1.
        994    1    1    2    0    0 -0.10607527528E+02 -0.95918097878E+00  0.40479535265E+01  0.17157874459E+03  0.17120000000E+03 0.  0.
        998    1    1    2    0    0  0.40382523562E+01 -0.11977166868E+02  0.14683470564E+04  0.14684355069E+04  0.10000000000E+02 0. -1.
</event>
<event>
 5    1  0.1106231E-008  0.3806467E+03  0.7957747E-01  0.3448347E+00
         13   -1    0    0    0    0  0.00000000000E+00  0.00000000000E+00  0.14999999963E+04  0.15000000000E+04  0.10566000000E+00 0.  1.
        994   -1    0    0    0    0 -0.00000000000E+00 -0.00000000000E+00  0.11368683772E-12  0.17120000000E+03  0.17120000000E+03 0.  0.
         13    1    1    2    0    0  0.23097387763E+02  0.25683710018E+02  0.17085273420E+03  0.17430952421E+03  0.10566000000E+00 0.  1.
        994    1    1    2    0    0 -0.29544900422E+01 -0.67267379546E+01  0.39871136075E+01  0.17140395296E+03  0.17120000000E+03 0.  0.
        998    1    1    2    0    0 -0.20142897721E+02 -0.18956972063E+02  0.13251601485E+04  0.13254865228E+04  0.10000000000E+02 0.  1.
</event>
<event>
 5    1  0.1106231E-008  0.3797844E+03  0.7957747E-01  0.3452098E+00
         13   -1    0    0    0    0  0.00000000000E+00  0.00000000000E+00  0.14999999963E+04  0.15000000000E+04  0.10566000000E+00 0.  1.
        994   -1    0    0    0    0 -0.00000000000E+00 -0.00000000000E+00  0.11368683772E-12  0.17120000000E+03  0.17120000000E+03 0.  0.
         13    1    1    2    0    0 -0.68601097547E+01 -0.11954733794E+02  0.20445578823E+02  0.24657851151E+02  0.10566000000E+00 0.  1.
        994    1    1    2    0    0  0.96653434385E+01  0.93092698784E+01  0.48446720124E+01  0.17179345801E+03  0.17120000000E+03 0.  0.
        998    1    1    2    0    0 -0.28052336837E+01  0.26454639155E+01  0.14747097454E+04  0.14747486908E+04  0.10000000000E+02 0.  1.
</event>
<event>
 5    1  0.1106231E-008  0.3852398E+03  0.7957747E-01  0.3428656E+00
         13   -1    0    0    0    0  0.00000000000E+00  0.00000000000E+00  0.14999999963E+04  0.15000000000E+04  0.10566000000E+00 0.  1.
        994   -1    0    0    0    0 -0.00000000000E+00 -0.00000000000E+00  0.11368683772E-12  0.17120000000E+03  0.17120000000E+03 0.  0.
         13    1    1    2    0    0  0.10582646256E+02  0.10890835766E+02  0.71458084809E+02  0.73053896228E+02  0.10566000000E+00 0.  1.
        994    1    1    2    0    0 -0.14947813245E+02 -0.13338775063E+02  0.28311207540E+01  0.17239145943E+03  0.17120000000E+03 0.  0.
        998    1    1    2    0    0  0.43651669895E+01  0.24479392967E+01  0.14257107907E+04  0.14257546443E+04  0.10000000000E+02 0.  1.
</event>
<event>
 5    1  0.1106231E-008  0.3839692E+03  0.7957747E-01  0.3434056E+00
         13   -1    0    0    0    0  0.00000000000E+00  0.00000000000E+00  0.14999999963E+04  0.15000000000E+04  0.10566000000E+00 0. -1.
        994   -1    0    0    0    0 -0.00000000000E+00 -0.00000000000E+00  0.11368683772E-12  0.17120000000E+03  0.17120000000E+03 0.  0.
         13    1    1    2    0    0 -0.80834941701E+01  0.13504573645E+02  0.53714803760E+02  0.55973276609E+02  0.10566000000E+00 0. -1.
        994    1    1    2    0    0  0.11987736427E+02 -0.19963147154E+02  0.39340272543E+01  0.17282114928E+03  0.17120000000E+03 0.  0.
        998    1    1    2    0    0 -0.39042422570E+01  0.64585735089E+01  0.14423511653E+04  0.14424055741E+04  0.10000000000E+02 0. -1.
</event>
<event>
 5    1  0.1735075E-008  0.3861383E+03  0.7957747E-01  0.3424859E+00
         13   -1    0    0    0    0  0.00000000000E+00  0.00000000000E+00  0.14999999963E+04  0.15000000000E+04  0.10566000000E+00 0.  1.
        994   -1    0    0    0    0 -0.00000000000E+00 -0.00000000000E+00  0.11368683772E-12  0.17120000000E+03  0.17120000000E+03 0.  0.
         13    1    1    2    0    0  0.92129026461E+01 -0.69042616017E+01  0.59790096345E+02  0.60888530844E+02  0.10566000000E+00 0.  1.
        994    1    1    2    0    0 -0.10432803167E+02  0.10920512930E+02  0.18137777201E+01  0.17187446225E+03  0.17120000000E+03 0.  0.
        998    1    1    2    0    0  0.12199005207E+01 -0.40162513286E+01  0.14383961222E+04  0.14384370069E+04  0.10000000000E+02 0.  1.
</event>
<event>
 5    1  0.1106231E-008  0.3779930E+03  0.7957747E-01  0.3459944E+00
         13   -1    0    0    0    0  0.00000000000E+00  0.00000000000E+00  0.14999999963E+04  0.15000000000E+04  0.10566000000E+00 0.  1.
        994   -1    0    0    0    0 -0.00000000000E+00 -0.00000000000E+00  0.11368683772E-12  0.17120000000E+03  0.17120000000E+03 0.  0.
         13    1    1    2    0    0  0.41773890501E+02 -0.46801987070E+01  0.15768815020E+03  0.16319474889E+03  0.10566000000E+00 0.  1.
        994    1    1    2    0    0 -0.36885871273E+02  0.55379986053E+01  0.98458612920E+01  0.17549250102E+03  0.17120000000E+03 0.  0.
        998    1    1    2    0    0 -0.48880192281E+01 -0.85779989832E+00  0.13324659848E+04  0.13325127501E+04  0.10000000000E+02 0.  1.
</event>
<event>
 5    1  0.1106231E-008  0.4287184E+03  0.7957747E-01  0.3263081E+00
         13   -1    0    0    0    0  0.00000000000E+00  0.00000000000E+00  0.14999999963E+04  0.15000000000E+04  0.10566000000E+00 0. -1.
        994   -1    0    0    0    0 -0.00000000000E+00 -0.00000000000E+00  0.11368683772E-12  0.17120000000E+03  0.17120000000E+03 0.  0.
         13    1    1    2    0    0  0.13544121896E+02 -0.29804821385E+02 -0.71132439279E+01  0.33501940525E+02  0.10566000000E+00 0. -1.
        994    1    1    2    0    0 -0.26084489638E+02  0.25895778374E+02  0.52235300789E+02  0.18272645836E+03  0.17120000000E+03 0.  0.
        998    1    1    2    0    0  0.12540367741E+02  0.39090430101E+01  0.14548779394E+04  0.14549716011E+04  0.10000000000E+02 0. -1.
</event>
<event>
 5    1  0.1106231E-008  0.3814456E+03  0.7957747E-01  0.3444888E+00
         13   -1    0    0    0    0  0.00000000000E+00  0.00000000000E+00  0.14999999963E+04  0.15000000000E+04  0.10566000000E+00 0. -1.
        994   -1    0    0    0    0 -0.00000000000E+00 -0.00000000000E+00  0.11368683772E-12  0.17120000000E+03  0.17120000000E+03 0.  0.
         13    1    1    2    0    0  0.82956107622E+00  0.19115128497E+02  0.29932607131E+01  0.19366132365E+02  0.10566000000E+00 0. -1.
        994    1    1    2    0    0 -0.72240368650E+01 -0.18758474699E+02  0.18596887706E+02  0.17337632859E+03  0.17120000000E+03 0.  0.
        998    1    1    2    0    0  0.63944757887E+01 -0.35665379859E+00  0.14784098479E+04  0.14784575390E+04  0.10000000000E+02 0. -1.
</event>
<event>
 5    1  0.1106231E-008  0.3720624E+03  0.7957747E-01  0.3486466E+00
         13   -1    0    0    0    0  0.00000000000E+00  0.00000000000E+00  0.14999999963E+04  0.15000000000E+04  0.10566000000E+00 0. -1.
        994   -1    0    0    0    0 -0.00000000000E+00 -0.00000000000E+00  0.11368683772E-12  0.17120000000E+03  0.17120000000E+03 0.  0.
         13    1    1    2    0    0 -0.92365929195E+01 -0.31303909011E+02  0.70954636733E+02  0.78101350860E+02  0.10566000000E+00 0. -1.
        994    1    1    2    0    0  0.42007590785E+02 -0.32215779137E+02  0.17878741703E+02  0.18008771061E+03  0.17120000000E+03 0.  0.
        998    1    1    2    0    0 -0.32770997866E+02  0.63519688148E+02  0.14111666178E+04  0.14130109385E+04  0.10000000000E+02 0. -1.
</event>
<event>
 5    1  0.1106231E-008  0.3849928E+03  0.7957747E-01  0.3429703E+00
         13   -1    0    0    0    0  0.00000000000E+00  0.00000000000E+00  0.14999999963E+04  0.15000000000E+04  0.10566000000E+00 0.  1.
        994   -1    0    0    0    0 -0.00000000000E+00 -0.00000000000E+00  0.11368683772E-12  0.17120000000E+03  0.17120000000E+03 0.  0.
         13    1    1    2    0    0 -0.16919671448E+02  0.43583463405E+01  0.99292342313E+02  0.10081790947E+03  0.10566000000E+00 0.  1.
        994    1    1    2    0    0  0.55557356423E+01  0.67875550231E+01  0.18868033029E+01  0.17143493555E+03  0.17120000000E+03 0.  0.
        998    1    1    2    0    0  0.11363935806E+02 -0.11145901364E+02  0.13988208507E+04  0.13989471550E+04  0.10000000000E+02 0.  1.
</event>
<event>
 5    1  0.1106231E-008  0.3762399E+03  0.7957747E-01  0.3467696E+00
         13   -1    0    0    0    0  0.00000000000E+00  0.00000000000E+00  0.14999999963E+04  0.15000000000E+04  0.10566000000E+00 0. -1.
        994   -1    0    0    0    0 -0.00000000000E+00 -0.00000000000E+00  0.11368683772E-12  0.17120000000E+03  0.17120000000E+03 0.  0.
         13    1    1    2    0    0  0.45469748442E+01 -0.44161398058E+02  0.71569018192E+02  0.84220185155E+02  0.10566000000E+00 0. -1.
        994    1    1    2    0    0  0.16081240523E+00 -0.96156164919E+01  0.14607708502E+02  0.17209099654E+03  0.17120000000E+03 0.  0.
        998    1    1    2    0    0 -0.47077872495E+01  0.53777014549E+02  0.14138232696E+04  0.14148888183E+04  0.10000000000E+02 0. -1.
</event>
<event>
 5    1  0.1106231E-008  0.3705920E+03  0.7957747E-01  0.3493174E+00
         13   -1    0    0    0    0  0.00000000000E+00  0.00000000000E+00  0.14999999963E+04  0.15000000000E+04  0.10566000000E+00 0.  1.
        994   -1    0    0    0    0 -0.00000000000E+00 -0.00000000000E+00  0.11368683772E-12  0.17120000000E+03  0.17120000000E+03 0.  0.
         13    1    1    2    0    0 -0.16278193249E+02 -0.17740613117E+02  0.28303935963E+02  0.37159559796E+02  0.10566000000E+00 0.  1.
        994    1    1    2    0    0  0.13894438515E+02  0.16660220029E+02  0.10585538499E+02  0.17289335435E+03  0.17120000000E+03 0.  0.
        998    1    1    2    0    0  0.23837547341E+01  0.10803930885E+01  0.14611105218E+04  0.14611470859E+04  0.10000000000E+02 0.  1.
</event>
<event>
 5    1  0.1106231E-008  0.3791560E+03  0.7957747E-01  0.3454842E+00
         13   -1    0    0    0    0  0.00000000000E+00  0.00000000000E+00  0.14999999963E+04  0.15000000000E+04  0.10566000000E+00 0.  1.
        994   -1    0    0    0    0 -0.00000000000E+00 -0.00000000000E+00  0.11368683772E-12  0.17120000000E+03  0.17120000000E+03 0.  0.
         13    1    1    2    0    0 -0.26227750423E+02  0.18830685854E+02  0.10154517703E+03  0.10655479231E+03  0.10566000000E+00 0.  1.
        994    1    1    2    0    0  0.41170186923E+02 -0.12736364818E+02  0.10810938605E+02  0.17687146653E+03  0.17120000000E+03 0.  0.
        998    1    1    2    0    0 -0.14942436500E+02 -0.60943210361E+01  0.13876438806E+04  0.13877737412E+04  0.10000000000E+02 0.  1.
</event>
<event>
 5    1  0.1106231E-008  0.3835214E+03  0.7957747E-01  0.3435967E+00
         13   -1    0    0    0    0  0.00000000000E+00  0.00000000000E+00  0.14999999963E+04  0.15000000000E+04  0.10566000000E+00 0. -1.
        994   -1    0    0    0    0 -0.00000000000E+00 -0.00000000000E+00  0.11368683772E-12  0.17120000000E+03  0.17120000000E+03 0.  0.
         13    1    1    2    0    0 -0.12446127401E+02  0.33761724925E+01  0.34105847835E+02  0.36462647306E+02  0.10566000000E+00 0. -1.
        994    1    1    2    0    0  0.11009674551E+02 -0.21125497152E+01  0.27814155179E+01  0.17158919567E+03  0.17120000000E+03 0.  0.
        998    1    1    2    0    0  0.14364528505E+01 -0.12636227773E+01  0.14631127329E+04  0.14631481570E+04  0.10000000000E+02 0. -1.
</event>
<event>
 5    1  0.1106231E-008  0.3784787E+03  0.7957747E-01  0.3457809E+00
         13   -1    0    0    0    0  0.00000000000E+00  0.00000000000E+00  0.14999999963E+04  0.15000000000E+04  0.10566000000E+00 0. -1.
        994   -1    0    0    0    0 -0.00000000000E+00 -0.00000000000E+00  0.11368683772E-12  0.17120000000E+03  0.17120000000E+03 0.  0.
         13    1    1    2    0    0 -0.15039806606E+02 -0.48682161248E+01  0.22966151753E+02  0.27881007897E+02  0.10566000000E+00 0. -1.
        994    1    1    2    0    0  0.15148434454E+02  0.13345744171E+02  0.62736688706E+01  0.17250038514E+03  0.17120000000E+03 0.  0.
        998    1    1    2    0    0 -0.10862784760E+00 -0.84775280458E+01  0.14707601757E+04  0.14708186070E+04  0.10000000000E+02 0. -1.
</event>
<event>
 5    1  0.1106231E-008  0.3827834E+03  0.7957747E-01  0.3439128E+00
         13   -1    0    0    0    0  0.00000000000E+00  0.00000000000E+00  0.14999999963E+04  0.15000000000E+04  0.10566000000E+00 0.  1.
        994   -1    0    0    0    0 -0.00000000000E+00 -0.00000000000E+00  0.11368683772E-12  0.17120000000E+03  0.17120000000E+03 0.  0.
         13    1    1    2    0    0 -0.17383516939E+02 -0.12125899458E+02  0.82025611543E+02  0.84719751014E+02  0.10566000000E+00 0.  1.
        994    1    1    2    0    0  0.14984092959E+02 -0.64516960227E+00  0.34800948747E+01  0.17189092572E+03  0.17120000000E+03 0.  0.
        998    1    1    2    0    0  0.23994239798E+01  0.12771069060E+02  0.14144942899E+04  0.14145893233E+04  0.10000000000E+02 0.  1.
</event>
<event>
 5    1  0.1106231E-008  0.3740045E+03  0.7957747E-01  0.3477687E+00
         13   -1    0    0    0    0  0.00000000000E+00  0.00000000000E+00  0.14999999963E+04  0.15000000000E+04  0.10566000000E+00 0. -1.
        994   -1    0    0    0    0 -0.00000000000E+00 -0.00000000000E+00  0.11368683772E-12  0.17120000000E+03  0.17120000000E+03 0.  0.
         13    1    1    2    0    0 -0.67038990970E+02 -0.54329650020E+00  0.27749820701E+03  0.28548167636E+03  0.10566000000E+00 0. -1.
        994    1    1    2    0    0  0.54602721710E+02  0.16998661784E+01  0.17438534356E+02  0.18054885556E+03  0.17120000000E+03 0.  0.
        998    1    1    2    0    0  0.12436269260E+02 -0.11565696782E+01  0.12050632549E+04  0.12051694681E+04  0.10000000000E+02 0. -1.
</event>
<event>
 5    1  0.1106231E-008  0.3812005E+03  0.7957747E-01  0.3445948E+00
         13   -1    0    0    0    0  0.00000000000E+00  0.00000000000E+00  0.14999999963E+04  0.15000000000E+04  0.10566000000E+00 0.  1.
        994   -1    0    0    0    0 -0.00000000000E+00 -0.00000000000E+00  0.11368683772E-12  0.17120000000E+03  0.17120000000E+03 0.  0.
         13    1    1    2    0    0 -0.19564636216E+02 -0.17193860312E+02  0.94834716260E+02  0.98346522027E+02  0.10566000000E+00 0.  1.
        994    1    1    2    0    0  0.12190187082E+02  0.10714669875E+02  0.44058920550E+01  0.17202400035E+03  0.17120000000E+03 0.  0.
        998    1    1    2    0    0  0.73744491336E+01  0.64791904372E+01  0.14007593880E+04  0.14008294776E+04  0.10000000000E+02 0.  1.
</event>
<event>
 5    1  0.1106231E-008  0.3834407E+03  0.7957747E-01  0.3436312E+00
         13   -1    0    0    0    0  0.00000000000E+00  0.00000000000E+00  0.14999999963E+04  0.15000000000E+04  0.10566000000E+00 0.  1.
        994   -1    0    0    0    0 -0.00000000000E+00 -0.00000000000E+00  0.11368683772E-12  0.17120000000E+03  0.17120000000E+03 0.  0.
         13    1    1    2    0    0 -0.22403610146E+02  0.99780252818E+01  0.11302304278E+03  0.11565337047E+03  0.10566000000E+00 0.  1.
        994    1    1    2    0    0  0.33507608136E+02  0.31843606957E+01  0.61599466695E+01  0.17458603867E+03  0.17120000000E+03 0.  0.
        998    1    1    2    0    0 -0.11103997989E+02 -0.13162385977E+02  0.13808170068E+04  0.13809605909E+04  0.10000000000E+02 0.  1.
</event>
