<event>
 4    1  0.2516086E+000  0.5461089E+02  0.7957747E-01  0.1421948E+00
         13   -1    0    0    0    0  0.00000000000E+00  0.00000000000E+00  0.99999944173E+02  0.99999999993E+02  0.10566000000E+00 0. -1.
         22   -1    0    0    0    0 -0.00000000000E+00 -0.00000000000E+00 -0.23654722739E+02  0.23654722739E+02  0.00000000000E+00 0.  1.
         13    1    1    2    0    0 -0.20734666982E+02  0.72403421323E+01 -0.78295742482E+01  0.23316568487E+02  0.10566000000E+00 0.  1.
        996    1    1    2    0    0  0.20734666982E+02 -0.72403421323E+01  0.84174795683E+02  0.10033815424E+03  0.50000000000E+02 0.  0.
<mgrwt>
<rscale>  0 0.54610887E+02</rscale>
<asrwt>0</asrwt>
<pdfrwt beam="1">  1       13 0.10000000E+01 0.54610887E+02</pdfrwt>
<pdfrwt beam="2">  1       22 0.23654744E+00 0.54610887E+02</pdfrwt>
<totfact> 0.32994824E-01</totfact>
</mgrwt>
</event>
<event>
 4    1  0.2516086E+000  0.5636236E+02  0.7957747E-01  0.1413764E+00
         13   -1    0    0    0    0  0.00000000000E+00  0.00000000000E+00  0.99999944175E+02  0.99999999995E+02  0.10566000000E+00 0.  1.
         22   -1    0    0    0    0 -0.00000000000E+00 -0.00000000000E+00 -0.22952095458E+02  0.22952095458E+02  0.00000000000E+00 0. -1.
         13    1    1    2    0    0 -0.24633070468E+02 -0.83622473254E+01 -0.17487609505E+01  0.26072680528E+02  0.10566000000E+00 0. -1.
        996    1    1    2    0    0  0.24633070468E+02  0.83622473254E+01  0.78796609667E+02  0.96879414924E+02  0.50000000000E+02 0.  0.
<mgrwt>
<rscale>  0 0.56362357E+02</rscale>
<asrwt>0</asrwt>
<pdfrwt beam="1">  1       13 0.10000000E+01 0.56362357E+02</pdfrwt>
<pdfrwt beam="2">  1       22 0.22952117E+00 0.56362357E+02</pdfrwt>
<totfact> 0.35089960E-01</totfact>
</mgrwt>
</event>
<event>
 4    1  0.2516086E+000  0.5153717E+02  0.7957747E-01  0.1437223E+00
         13   -1    0    0    0    0  0.00000000000E+00  0.00000000000E+00  0.99999944187E+02  0.10000000001E+03  0.10566000000E+00 0.  1.
         22   -1    0    0    0    0 -0.00000000000E+00 -0.00000000000E+00 -0.17095289501E+02  0.17095289501E+02  0.00000000000E+00 0.  1.
         13    1    1    2    0    0  0.46428230085E+01  0.11598459786E+02 -0.63614719938E+01  0.14019970216E+02  0.10566000000E+00 0. -1.
        996    1    1    2    0    0 -0.46428230085E+01 -0.11598459786E+02  0.89266126679E+02  0.10307531929E+03  0.50000000000E+02 0.  0.
<mgrwt>
<rscale>  0 0.51537172E+02</rscale>
<asrwt>0</asrwt>
<pdfrwt beam="1">  1       13 0.10000000E+01 0.51537172E+02</pdfrwt>
<pdfrwt beam="2">  1       22 0.17095313E+00 0.51537172E+02</pdfrwt>
<totfact> 0.60151148E-01</totfact>
</mgrwt>
</event>
<event>
 4    1  0.2516086E+000  0.5137233E+02  0.7957747E-01  0.1438077E+00
         13   -1    0    0    0    0  0.00000000000E+00  0.00000000000E+00  0.99999944181E+02  0.10000000000E+03  0.10566000000E+00 0.  1.
         22   -1    0    0    0    0 -0.00000000000E+00 -0.00000000000E+00 -0.15927207046E+02  0.15927207046E+02  0.00000000000E+00 0. -1.
         13    1    1    2    0    0 -0.10018619371E+02  0.62244504234E+01 -0.52297954321E+01  0.12902652497E+02  0.10566000000E+00 0. -1.
        996    1    1    2    0    0  0.10018619371E+02 -0.62244504234E+01  0.89302532567E+02  0.10302455455E+03  0.50000000000E+02 0.  0.
<mgrwt>
<rscale>  0 0.51372332E+02</rscale>
<asrwt>0</asrwt>
<pdfrwt beam="1">  1       13 0.10000000E+01 0.51372332E+02</pdfrwt>
<pdfrwt beam="2">  1       22 0.15927231E+00 0.51372332E+02</pdfrwt>
<totfact> 0.67967110E-01</totfact>
</mgrwt>
</event>
<event>
 4    1  0.2516086E+000  0.5174373E+02  0.7957747E-01  0.1436157E+00
         13   -1    0    0    0    0  0.00000000000E+00  0.00000000000E+00  0.99999944178E+02  0.99999999998E+02  0.10566000000E+00 0.  1.
         22   -1    0    0    0    0 -0.00000000000E+00 -0.00000000000E+00 -0.11204448331E+02  0.11204448331E+02  0.00000000000E+00 0.  1.
         13    1    1    2    0    0  0.12425942324E+02  0.47968571037E+01  0.89109883900E+01  0.16025940186E+02  0.10566000000E+00 0. -1.
        996    1    1    2    0    0 -0.12425942324E+02 -0.47968571037E+01  0.79884507457E+02  0.95178508143E+02  0.50000000000E+02 0.  0.
<mgrwt>
<rscale>  0 0.51743733E+02</rscale>
<asrwt>0</asrwt>
<pdfrwt beam="1">  1       13 0.10000000E+01 0.51743733E+02</pdfrwt>
<pdfrwt beam="2">  1       22 0.11204473E+00 0.51743733E+02</pdfrwt>
<totfact> 0.11917996E+00</totfact>
</mgrwt>
</event>
<event>
 4    1  0.2516086E+000  0.5313726E+02  0.7957747E-01  0.1429119E+00
         13   -1    0    0    0    0  0.00000000000E+00  0.00000000000E+00  0.99999944180E+02  0.10000000000E+03  0.10566000000E+00 0. -1.
         22   -1    0    0    0    0 -0.00000000000E+00 -0.00000000000E+00 -0.70856245921E+02  0.70856245921E+02  0.00000000000E+00 0.  1.
         13    1    1    2    0    0  0.16824868565E+02 -0.63633465336E+01 -0.62436758950E+02  0.64976368116E+02  0.10566000000E+00 0.  1.
        996    1    1    2    0    0 -0.16824868565E+02  0.63633465336E+01  0.91580457209E+02  0.10587987780E+03  0.50000000000E+02 0.  0.
<mgrwt>
<rscale>  0 0.53137260E+02</rscale>
<asrwt>0</asrwt>
<pdfrwt beam="1">  1       13 0.10000000E+01 0.53137260E+02</pdfrwt>
<pdfrwt beam="2">  1       22 0.70856254E+00 0.53137260E+02</pdfrwt>
<totfact> 0.70173657E-02</totfact>
</mgrwt>
</event>
<event>
 4    1  0.2516086E+000  0.6117298E+02  0.7957747E-01  0.1392974E+00
         13   -1    0    0    0    0  0.00000000000E+00  0.00000000000E+00  0.99999944180E+02  0.10000000000E+03  0.10566000000E+00 0.  1.
         22   -1    0    0    0    0 -0.00000000000E+00 -0.00000000000E+00 -0.25426066184E+02  0.25426066184E+02  0.00000000000E+00 0. -1.
         13    1    1    2    0    0  0.30766332561E+02  0.17192023726E+02  0.45889517123E+02  0.57861834095E+02  0.10566000000E+00 0. -1.
        996    1    1    2    0    0 -0.30766332561E+02 -0.17192023726E+02  0.28684360872E+02  0.67564232088E+02  0.50000000000E+02 0.  0.
<mgrwt>
<rscale>  0 0.61172975E+02</rscale>
<asrwt>0</asrwt>
<pdfrwt beam="1">  1       13 0.10000000E+01 0.61172975E+02</pdfrwt>
<pdfrwt beam="2">  1       22 0.25426087E+00 0.61172975E+02</pdfrwt>
<totfact> 0.28888724E-01</totfact>
</mgrwt>
</event>
<event>
 4    1  0.2516086E+000  0.5213949E+02  0.7957747E-01  0.1434132E+00
         13   -1    0    0    0    0  0.00000000000E+00  0.00000000000E+00  0.99999944179E+02  0.99999999999E+02  0.10566000000E+00 0. -1.
         22   -1    0    0    0    0 -0.00000000000E+00 -0.00000000000E+00 -0.11264105625E+02  0.11264105625E+02  0.00000000000E+00 0. -1.
         13    1    1    2    0    0  0.26326225102E+01  0.14546337767E+02  0.23330018449E+02  0.27619333239E+02  0.10566000000E+00 0.  1.
        996    1    1    2    0    0 -0.26326225102E+01 -0.14546337767E+02  0.65405820105E+02  0.83644772385E+02  0.50000000000E+02 0.  0.
<mgrwt>
<rscale>  0 0.52139492E+02</rscale>
<asrwt>0</asrwt>
<pdfrwt beam="1">  1       13 0.10000000E+01 0.52139492E+02</pdfrwt>
<pdfrwt beam="2">  1       22 0.11264130E+00 0.52139492E+02</pdfrwt>
<totfact> 0.11834350E+00</totfact>
</mgrwt>
</event>
<event>
 4    1  0.2516086E+000  0.5146484E+02  0.7957747E-01  0.1437597E+00
         13   -1    0    0    0    0  0.00000000000E+00  0.00000000000E+00  0.99999944175E+02  0.99999999995E+02  0.10566000000E+00 0.  1.
         22   -1    0    0    0    0 -0.00000000000E+00 -0.00000000000E+00 -0.21813521347E+02  0.21813521347E+02  0.00000000000E+00 0. -1.
         13    1    1    2    0    0  0.15345476750E+01 -0.12094416392E+02 -0.12550658356E+02  0.17497426486E+02  0.10566000000E+00 0. -1.
        996    1    1    2    0    0 -0.15345476750E+01  0.12094416392E+02  0.90737081184E+02  0.10431609486E+03  0.50000000000E+02 0.  0.
<mgrwt>
<rscale>  0 0.51464840E+02</rscale>
<asrwt>0</asrwt>
<pdfrwt beam="1">  1       13 0.10000000E+01 0.51464840E+02</pdfrwt>
<pdfrwt beam="2">  1       22 0.21813543E+00 0.51464840E+02</pdfrwt>
<totfact> 0.38408903E-01</totfact>
</mgrwt>
</event>
<event>
 4    1  0.2516086E+000  0.5128939E+02  0.7957747E-01  0.1438508E+00
         13   -1    0    0    0    0  0.00000000000E+00  0.00000000000E+00  0.99999944183E+02  0.10000000000E+03  0.10566000000E+00 0.  1.
         22   -1    0    0    0    0 -0.00000000000E+00 -0.00000000000E+00 -0.15082215351E+02  0.15082215351E+02  0.00000000000E+00 0. -1.
         13    1    1    2    0    0 -0.39300838631E+01  0.10731089363E+02 -0.42685927455E+01  0.12199749430E+02  0.10566000000E+00 0. -1.
        996    1    1    2    0    0  0.39300838631E+01 -0.10731089363E+02  0.89186321578E+02  0.10288246592E+03  0.50000000000E+02 0.  0.
<mgrwt>
<rscale>  0 0.51289393E+02</rscale>
<asrwt>0</asrwt>
<pdfrwt beam="1">  1       13 0.10000000E+01 0.51289393E+02</pdfrwt>
<pdfrwt beam="2">  1       22 0.15082239E+00 0.51289393E+02</pdfrwt>
<totfact> 0.74500752E-01</totfact>
</mgrwt>
</event>
<event>
 4    1  0.2516086E+000  0.5337571E+02  0.7957747E-01  0.1427940E+00
         13   -1    0    0    0    0  0.00000000000E+00  0.00000000000E+00  0.99999944182E+02  0.10000000000E+03  0.10566000000E+00 0.  1.
         22   -1    0    0    0    0 -0.00000000000E+00 -0.00000000000E+00 -0.13881810556E+02  0.13881810556E+02  0.00000000000E+00 0.  1.
         13    1    1    2    0    0  0.18353154383E+02  0.34825165692E+01  0.36514047984E+02  0.41015278393E+02  0.10566000000E+00 0. -1.
        996    1    1    2    0    0 -0.18353154383E+02 -0.34825165692E+01  0.49604085642E+02  0.72866532166E+02  0.50000000000E+02 0.  0.
<mgrwt>
<rscale>  0 0.53375708E+02</rscale>
<asrwt>0</asrwt>
<pdfrwt beam="1">  1       13 0.10000000E+01 0.53375708E+02</pdfrwt>
<pdfrwt beam="2">  1       22 0.13881835E+00 0.53375708E+02</pdfrwt>
<totfact> 0.85737266E-01</totfact>
</mgrwt>
</event>
<event>
 4    1  0.2516086E+000  0.5489947E+02  0.7957747E-01  0.1420575E+00
         13   -1    0    0    0    0  0.00000000000E+00  0.00000000000E+00  0.99999944175E+02  0.99999999995E+02  0.10566000000E+00 0.  1.
         22   -1    0    0    0    0 -0.00000000000E+00 -0.00000000000E+00 -0.30310968055E+02  0.30310968055E+02  0.00000000000E+00 0. -1.
         13    1    1    2    0    0  0.47509656597E+01 -0.22167106454E+02 -0.16557905951E+02  0.28073612108E+02  0.10566000000E+00 0. -1.
        996    1    1    2    0    0 -0.47509656597E+01  0.22167106454E+02  0.86246882071E+02  0.10223735594E+03  0.50000000000E+02 0.  0.
<mgrwt>
<rscale>  0 0.54899474E+02</rscale>
<asrwt>0</asrwt>
<pdfrwt beam="1">  1       13 0.10000000E+01 0.54899474E+02</pdfrwt>
<pdfrwt beam="2">  1       22 0.30310988E+00 0.54899474E+02</pdfrwt>
<totfact> 0.20383822E-01</totfact>
</mgrwt>
</event>
<event>
 4    1  0.2516086E+000  0.5408404E+02  0.7957747E-01  0.1424481E+00
         13   -1    0    0    0    0  0.00000000000E+00  0.00000000000E+00  0.99999944175E+02  0.99999999995E+02  0.10566000000E+00 0. -1.
         22   -1    0    0    0    0 -0.00000000000E+00 -0.00000000000E+00 -0.13970020332E+02  0.13970020332E+02  0.00000000000E+00 0.  1.
         13    1    1    2    0    0 -0.99080707207E+01  0.18080740448E+02  0.21885242509E+02  0.30067558003E+02  0.10566000000E+00 0.  1.
        996    1    1    2    0    0  0.99080707207E+01 -0.18080740448E+02  0.64144681334E+02  0.83902462324E+02  0.50000000000E+02 0.  0.
<mgrwt>
<rscale>  0 0.54084037E+02</rscale>
<asrwt>0</asrwt>
<pdfrwt beam="1">  1       13 0.10000000E+01 0.54084037E+02</pdfrwt>
<pdfrwt beam="2">  1       22 0.13970044E+00 0.54084037E+02</pdfrwt>
<totfact> 0.84984910E-01</totfact>
</mgrwt>
</event>
<event>
 4    1  0.2516086E+000  0.5428693E+02  0.7957747E-01  0.1423501E+00
         13   -1    0    0    0    0  0.00000000000E+00  0.00000000000E+00  0.99999944178E+02  0.99999999998E+02  0.10566000000E+00 0. -1.
         22   -1    0    0    0    0 -0.00000000000E+00 -0.00000000000E+00 -0.14231359340E+02  0.14231359340E+02  0.00000000000E+00 0. -1.
         13    1    1    2    0    0  0.17380049938E+02  0.12041777422E+02  0.25164633664E+02  0.32868533445E+02  0.10566000000E+00 0.  1.
        996    1    1    2    0    0 -0.17380049938E+02 -0.12041777422E+02  0.60603951174E+02  0.81362825893E+02  0.50000000000E+02 0.  0.
<mgrwt>
<rscale>  0 0.54286928E+02</rscale>
<asrwt>0</asrwt>
<pdfrwt beam="1">  1       13 0.10000000E+01 0.54286928E+02</pdfrwt>
<pdfrwt beam="2">  1       22 0.14231383E+00 0.54286928E+02</pdfrwt>
<totfact> 0.82494076E-01</totfact>
</mgrwt>
</event>
<event>
 4    1  0.2516086E+000  0.5160663E+02  0.7957747E-01  0.1436864E+00
         13   -1    0    0    0    0  0.00000000000E+00  0.00000000000E+00  0.99999944181E+02  0.10000000000E+03  0.10566000000E+00 0. -1.
         22   -1    0    0    0    0 -0.00000000000E+00 -0.00000000000E+00 -0.11664552571E+02  0.11664552571E+02  0.00000000000E+00 0.  1.
         13    1    1    2    0    0  0.19238696262E+01 -0.12631014908E+02  0.51594451313E+01  0.13779508338E+02  0.10566000000E+00 0.  1.
        996    1    1    2    0    0 -0.19238696262E+01  0.12631014908E+02  0.83175946479E+02  0.97885044234E+02  0.50000000000E+02 0.  0.
<mgrwt>
<rscale>  0 0.51606626E+02</rscale>
<asrwt>0</asrwt>
<pdfrwt beam="1">  1       13 0.10000000E+01 0.51606626E+02</pdfrwt>
<pdfrwt beam="2">  1       22 0.11664577E+00 0.51606626E+02</pdfrwt>
<totfact> 0.11213873E+00</totfact>
</mgrwt>
</event>
<event>
 4    1  0.2516086E+000  0.5282689E+02  0.7957747E-01  0.1430664E+00
         13   -1    0    0    0    0  0.00000000000E+00  0.00000000000E+00  0.99999944181E+02  0.10000000000E+03  0.10566000000E+00 0.  1.
         22   -1    0    0    0    0 -0.00000000000E+00 -0.00000000000E+00 -0.12490416989E+02  0.12490416989E+02  0.00000000000E+00 0. -1.
         13    1    1    2    0    0 -0.99909597978E+01 -0.13815244272E+02  0.14551317365E+02  0.22415000626E+02  0.10566000000E+00 0. -1.
        996    1    1    2    0    0  0.99909597978E+01  0.13815244272E+02  0.72958209827E+02  0.90075416364E+02  0.50000000000E+02 0.  0.
<mgrwt>
<rscale>  0 0.52826889E+02</rscale>
<asrwt>0</asrwt>
<pdfrwt beam="1">  1       13 0.10000000E+01 0.52826889E+02</pdfrwt>
<pdfrwt beam="2">  1       22 0.12490441E+00 0.52826889E+02</pdfrwt>
<totfact> 0.10123625E+00</totfact>
</mgrwt>
</event>
<event>
 4    1  0.2516086E+000  0.5145524E+02  0.7957747E-01  0.1437647E+00
         13   -1    0    0    0    0  0.00000000000E+00  0.00000000000E+00  0.99999944179E+02  0.99999999999E+02  0.10566000000E+00 0. -1.
         22   -1    0    0    0    0 -0.00000000000E+00 -0.00000000000E+00 -0.13004054607E+02  0.13004054607E+02  0.00000000000E+00 0. -1.
         13    1    1    2    0    0 -0.11390150293E+02  0.42316198345E+01  0.26019468563E+00  0.12154052634E+02  0.10566000000E+00 0.  1.
        996    1    1    2    0    0  0.11390150293E+02 -0.42316198345E+01  0.86735694887E+02  0.10085000197E+03  0.50000000000E+02 0.  0.
<mgrwt>
<rscale>  0 0.51455244E+02</rscale>
<asrwt>0</asrwt>
<pdfrwt beam="1">  1       13 0.10000000E+01 0.51455244E+02</pdfrwt>
<pdfrwt beam="2">  1       22 0.13004079E+00 0.51455244E+02</pdfrwt>
<totfact> 0.94767371E-01</totfact>
</mgrwt>
</event>
<event>
 4    1  0.2516086E+000  0.5128864E+02  0.7957747E-01  0.1438512E+00
         13   -1    0    0    0    0  0.00000000000E+00  0.00000000000E+00  0.99999944182E+02  0.10000000000E+03  0.10566000000E+00 0. -1.
         22   -1    0    0    0    0 -0.00000000000E+00 -0.00000000000E+00 -0.23143754822E+02  0.23143754822E+02  0.00000000000E+00 0.  1.
         13    1    1    2    0    0  0.53792322185E+01 -0.10079098612E+02 -0.14448511275E+02  0.18419962275E+02  0.10566000000E+00 0.  1.
        996    1    1    2    0    0 -0.53792322185E+01  0.10079098612E+02  0.91304700635E+02  0.10472379255E+03  0.50000000000E+02 0.  0.
<mgrwt>
<rscale>  0 0.51288638E+02</rscale>
<asrwt>0</asrwt>
<pdfrwt beam="1">  1       13 0.10000000E+01 0.51288638E+02</pdfrwt>
<pdfrwt beam="2">  1       22 0.23143776E+00 0.51288638E+02</pdfrwt>
<totfact> 0.34247419E-01</totfact>
</mgrwt>
</event>
<event>
 4    1  0.2516086E+000  0.5245662E+02  0.7957747E-01  0.1432524E+00
         13   -1    0    0    0    0  0.00000000000E+00  0.00000000000E+00  0.99999944180E+02  0.10000000000E+03  0.10566000000E+00 0. -1.
         22   -1    0    0    0    0 -0.00000000000E+00 -0.00000000000E+00 -0.12552737466E+02  0.12552737466E+02  0.00000000000E+00 0. -1.
         13    1    1    2    0    0 -0.15350605685E+02 -0.40070362243E+01  0.34735806171E+02  0.38187495710E+02  0.10566000000E+00 0.  1.
        996    1    1    2    0    0  0.15350605685E+02  0.40070362243E+01  0.52711400543E+02  0.74365241756E+02  0.50000000000E+02 0.  0.
<mgrwt>
<rscale>  0 0.52456624E+02</rscale>
<asrwt>0</asrwt>
<pdfrwt beam="1">  1       13 0.10000000E+01 0.52456624E+02</pdfrwt>
<pdfrwt beam="2">  1       22 0.12552762E+00 0.52456624E+02</pdfrwt>
<totfact> 0.10037508E+00</totfact>
</mgrwt>
</event>
<event>
 4    1  0.2516086E+000  0.5598795E+02  0.7957747E-01  0.1415484E+00
         13   -1    0    0    0    0  0.00000000000E+00  0.00000000000E+00  0.99999944176E+02  0.99999999996E+02  0.10566000000E+00 0. -1.
         22   -1    0    0    0    0 -0.00000000000E+00 -0.00000000000E+00 -0.16745051172E+02  0.16745051172E+02  0.00000000000E+00 0. -1.
         13    1    1    2    0    0 -0.16539605358E+02 -0.19002407405E+02  0.32950369200E+02  0.41477560524E+02  0.10566000000E+00 0.  1.
        996    1    1    2    0    0  0.16539605358E+02  0.19002407405E+02  0.50304523804E+02  0.75267490643E+02  0.50000000000E+02 0.  0.
<mgrwt>
<rscale>  0 0.55987945E+02</rscale>
<asrwt>0</asrwt>
<pdfrwt beam="1">  1       13 0.10000000E+01 0.55987945E+02</pdfrwt>
<pdfrwt beam="2">  1       22 0.16745074E+00 0.55987945E+02</pdfrwt>
<totfact> 0.62892704E-01</totfact>
</mgrwt>
</event>
<event>
 4    1  0.2516086E+000  0.5166349E+02  0.7957747E-01  0.1436570E+00
         13   -1    0    0    0    0  0.00000000000E+00  0.00000000000E+00  0.99999944187E+02  0.10000000001E+03  0.10566000000E+00 0.  1.
         22   -1    0    0    0    0 -0.00000000000E+00 -0.00000000000E+00 -0.25922600560E+02  0.25922600560E+02  0.00000000000E+00 0. -1.
         13    1    1    2    0    0  0.75822542682E+01  0.10565318252E+02 -0.16884908244E+02  0.21312621143E+02  0.10566000000E+00 0. -1.
        996    1    1    2    0    0 -0.75822542682E+01 -0.10565318252E+02  0.90962251871E+02  0.10460997942E+03  0.50000000000E+02 0.  0.
<mgrwt>
<rscale>  0 0.51663493E+02</rscale>
<asrwt>0</asrwt>
<pdfrwt beam="1">  1       13 0.10000000E+01 0.51663493E+02</pdfrwt>
<pdfrwt beam="2">  1       22 0.25922621E+00 0.51663493E+02</pdfrwt>
<totfact> 0.27436221E-01</totfact>
</mgrwt>
</event>
<event>
 4    1  0.2516086E+000  0.5101079E+02  0.7957747E-01  0.1439965E+00
         13   -1    0    0    0    0  0.00000000000E+00  0.00000000000E+00  0.99999944180E+02  0.10000000000E+03  0.10566000000E+00 0.  1.
         22   -1    0    0    0    0 -0.00000000000E+00 -0.00000000000E+00 -0.99431088870E+01  0.99431088870E+01  0.00000000000E+00 0.  1.
         13    1    1    2    0    0  0.69786401079E+01 -0.73075071383E+01  0.64020587871E+01  0.11962382667E+02  0.10566000000E+00 0. -1.
        996    1    1    2    0    0 -0.69786401079E+01  0.73075071383E+01  0.83654776506E+02  0.97980726220E+02  0.50000000000E+02 0.  0.
<mgrwt>
<rscale>  0 0.51010794E+02</rscale>
<asrwt>0</asrwt>
<pdfrwt beam="1">  1       13 0.10000000E+01 0.51010794E+02</pdfrwt>
<pdfrwt beam="2">  1       22 0.99431340E-01 0.51010794E+02</pdfrwt>
<totfact> 0.14180684E+00</totfact>
</mgrwt>
</event>
<event>
 4    1  0.2516086E+000  0.5314777E+02  0.7957747E-01  0.1429067E+00
         13   -1    0    0    0    0  0.00000000000E+00  0.00000000000E+00  0.99999944178E+02  0.99999999999E+02  0.10566000000E+00 0. -1.
         22   -1    0    0    0    0 -0.00000000000E+00 -0.00000000000E+00 -0.13708362065E+02  0.13708362065E+02  0.00000000000E+00 0.  1.
         13    1    1    2    0    0  0.10679439050E+02  0.14513283643E+02  0.96461475192E+01  0.20438814704E+02  0.10566000000E+00 0.  1.
        996    1    1    2    0    0 -0.10679439050E+02 -0.14513283643E+02  0.76645434594E+02  0.93269547359E+02  0.50000000000E+02 0.  0.
<mgrwt>
<rscale>  0 0.53147773E+02</rscale>
<asrwt>0</asrwt>
<pdfrwt beam="1">  1       13 0.10000000E+01 0.53147773E+02</pdfrwt>
<pdfrwt beam="2">  1       22 0.13708386E+00 0.53147773E+02</pdfrwt>
<totfact> 0.87452252E-01</totfact>
</mgrwt>
</event>
<event>
 4    1  0.2516086E+000  0.5390187E+02  0.7957747E-01  0.1425365E+00
         13   -1    0    0    0    0  0.00000000000E+00  0.00000000000E+00  0.99999944175E+02  0.99999999995E+02  0.10566000000E+00 0.  1.
         22   -1    0    0    0    0 -0.00000000000E+00 -0.00000000000E+00 -0.28509148905E+02  0.28509148905E+02  0.00000000000E+00 0. -1.
         13    1    1    2    0    0 -0.14302431911E+02 -0.14172241924E+02 -0.16019602889E+02  0.25730348627E+02  0.10566000000E+00 0. -1.
        996    1    1    2    0    0  0.14302431911E+02  0.14172241924E+02  0.87510398159E+02  0.10277880027E+03  0.50000000000E+02 0.  0.
<mgrwt>
<rscale>  0 0.53901874E+02</rscale>
<asrwt>0</asrwt>
<pdfrwt beam="1">  1       13 0.10000000E+01 0.53901874E+02</pdfrwt>
<pdfrwt beam="2">  1       22 0.28509169E+00 0.53901874E+02</pdfrwt>
<totfact> 0.22863963E-01</totfact>
</mgrwt>
</event>
<event>
 4    1  0.2516086E+000  0.5245146E+02  0.7957747E-01  0.1432550E+00
         13   -1    0    0    0    0  0.00000000000E+00  0.00000000000E+00  0.99999944177E+02  0.99999999997E+02  0.10566000000E+00 0.  1.
         22   -1    0    0    0    0 -0.00000000000E+00 -0.00000000000E+00 -0.15682162715E+02  0.15682162715E+02  0.00000000000E+00 0.  1.
         13    1    1    2    0    0  0.84815124504E+01  0.13387306313E+02  0.51327085399E+02  0.53718124347E+02  0.10566000000E+00 0. -1.
        996    1    1    2    0    0 -0.84815124504E+01 -0.13387306313E+02  0.32990696064E+02  0.61964038365E+02  0.50000000000E+02 0.  0.
<mgrwt>
<rscale>  0 0.52451464E+02</rscale>
<asrwt>0</asrwt>
<pdfrwt beam="1">  1       13 0.10000000E+01 0.52451464E+02</pdfrwt>
<pdfrwt beam="2">  1       22 0.15682186E+00 0.52451464E+02</pdfrwt>
<totfact> 0.69934471E-01</totfact>
</mgrwt>
</event>
<event>
 4    1  0.2516086E+000  0.5281947E+02  0.7957747E-01  0.1430701E+00
         13   -1    0    0    0    0  0.00000000000E+00  0.00000000000E+00  0.99999944181E+02  0.10000000000E+03  0.10566000000E+00 0.  1.
         22   -1    0    0    0    0 -0.00000000000E+00 -0.00000000000E+00 -0.43734125086E+02  0.43734125086E+02  0.00000000000E+00 0. -1.
         13    1    1    2    0    0  0.96079114149E+01  0.14056460876E+02 -0.34639340859E+02  0.38597812804E+02  0.10566000000E+00 0. -1.
        996    1    1    2    0    0 -0.96079114149E+01 -0.14056460876E+02  0.90905159954E+02  0.10513631228E+03  0.50000000000E+02 0.  0.
<mgrwt>
<rscale>  0 0.52819467E+02</rscale>
<asrwt>0</asrwt>
<pdfrwt beam="1">  1       13 0.10000000E+01 0.52819467E+02</pdfrwt>
<pdfrwt beam="2">  1       22 0.43734141E+00 0.52819467E+02</pdfrwt>
<totfact> 0.10314842E-01</totfact>
</mgrwt>
</event>
<event>
 4    1  0.2516086E+000  0.5437343E+02  0.7957747E-01  0.1423085E+00
         13   -1    0    0    0    0  0.00000000000E+00  0.00000000000E+00  0.99999944174E+02  0.99999999995E+02  0.10566000000E+00 0. -1.
         22   -1    0    0    0    0 -0.00000000000E+00 -0.00000000000E+00 -0.40545682380E+02  0.40545682380E+02  0.00000000000E+00 0.  1.
         13    1    1    2    0    0  0.21362926777E+02  0.30946976307E+00 -0.29418966958E+02  0.36358729253E+02  0.10566000000E+00 0.  1.
        996    1    1    2    0    0 -0.21362926777E+02 -0.30946976307E+00  0.88873228752E+02  0.10418695312E+03  0.50000000000E+02 0.  0.
<mgrwt>
<rscale>  0 0.54373435E+02</rscale>
<asrwt>0</asrwt>
<pdfrwt beam="1">  1       13 0.10000000E+01 0.54373435E+02</pdfrwt>
<pdfrwt beam="2">  1       22 0.40545699E+00 0.54373435E+02</pdfrwt>
<totfact> 0.12072144E-01</totfact>
</mgrwt>
</event>
<event>
 4    1  0.2516086E+000  0.5130011E+02  0.7957747E-01  0.1438453E+00
         13   -1    0    0    0    0  0.00000000000E+00  0.00000000000E+00  0.99999944181E+02  0.10000000000E+03  0.10566000000E+00 0.  1.
         22   -1    0    0    0    0 -0.00000000000E+00 -0.00000000000E+00 -0.10588486600E+02  0.10588486600E+02  0.00000000000E+00 0.  1.
         13    1    1    2    0    0  0.10496609980E+02  0.46392762872E+01  0.67858924659E+01  0.13332711883E+02  0.10566000000E+00 0. -1.
        996    1    1    2    0    0 -0.10496609980E+02 -0.46392762872E+01  0.82625565115E+02  0.97255774718E+02  0.50000000000E+02 0.  0.
<mgrwt>
<rscale>  0 0.51300114E+02</rscale>
<asrwt>0</asrwt>
<pdfrwt beam="1">  1       13 0.10000000E+01 0.51300114E+02</pdfrwt>
<pdfrwt beam="2">  1       22 0.10588512E+00 0.51300114E+02</pdfrwt>
<totfact> 0.12947240E+00</totfact>
</mgrwt>
</event>
<event>
 4    1  0.2516086E+000  0.5434397E+02  0.7957747E-01  0.1423227E+00
         13   -1    0    0    0    0  0.00000000000E+00  0.00000000000E+00  0.99999944184E+02  0.10000000000E+03  0.10566000000E+00 0.  1.
         22   -1    0    0    0    0 -0.00000000000E+00 -0.00000000000E+00 -0.28833064895E+02  0.28833064895E+02  0.00000000000E+00 0. -1.
         13    1    1    2    0    0  0.15968780888E+02 -0.14080655071E+02 -0.15640794086E+02  0.26418031984E+02  0.10566000000E+00 0. -1.
        996    1    1    2    0    0 -0.15968780888E+02  0.14080655071E+02  0.86807673375E+02  0.10241503291E+03  0.50000000000E+02 0.  0.
<mgrwt>
<rscale>  0 0.54343968E+02</rscale>
<asrwt>0</asrwt>
<pdfrwt beam="1">  1       13 0.10000000E+01 0.54343968E+02</pdfrwt>
<pdfrwt beam="2">  1       22 0.28833085E+00 0.54343968E+02</pdfrwt>
<totfact> 0.22386909E-01</totfact>
</mgrwt>
</event>
<event>
 4    1  0.2516086E+000  0.5127899E+02  0.7957747E-01  0.1438563E+00
         13   -1    0    0    0    0  0.00000000000E+00  0.00000000000E+00  0.99999944173E+02  0.99999999993E+02  0.10566000000E+00 0.  1.
         22   -1    0    0    0    0 -0.00000000000E+00 -0.00000000000E+00 -0.13183152129E+02  0.13183152129E+02  0.00000000000E+00 0.  1.
         13    1    1    2    0    0 -0.81515066264E+01 -0.79427877324E+01 -0.10683082867E+01  0.11431858286E+02  0.10566000000E+00 0. -1.
        996    1    1    2    0    0  0.81515066264E+01  0.79427877324E+01  0.87885100330E+02  0.10175129384E+03  0.50000000000E+02 0.  0.
<mgrwt>
<rscale>  0 0.51278991E+02</rscale>
<asrwt>0</asrwt>
<pdfrwt beam="1">  1       13 0.10000000E+01 0.51278991E+02</pdfrwt>
<pdfrwt beam="2">  1       22 0.13183176E+00 0.51278991E+02</pdfrwt>
<totfact> 0.92706694E-01</totfact>
</mgrwt>
</event>
<event>
 4    1  0.2516086E+000  0.5135070E+02  0.7957747E-01  0.1438189E+00
         13   -1    0    0    0    0  0.00000000000E+00  0.00000000000E+00  0.99999944179E+02  0.99999999999E+02  0.10566000000E+00 0. -1.
         22   -1    0    0    0    0 -0.00000000000E+00 -0.00000000000E+00 -0.10028468469E+02  0.10028468469E+02  0.00000000000E+00 0.  1.
         13    1    1    2    0    0  0.20220935855E+01  0.11524124180E+02  0.12889920216E+02  0.17408489533E+02  0.10566000000E+00 0.  1.
        996    1    1    2    0    0 -0.20220935855E+01 -0.11524124180E+02  0.77081555494E+02  0.92619978935E+02  0.50000000000E+02 0.  0.
<mgrwt>
<rscale>  0 0.51350699E+02</rscale>
<asrwt>0</asrwt>
<pdfrwt beam="1">  1       13 0.10000000E+01 0.51350699E+02</pdfrwt>
<pdfrwt beam="2">  1       22 0.10028494E+00 0.51350699E+02</pdfrwt>
<totfact> 0.14017914E+00</totfact>
</mgrwt>
</event>
<event>
 4    1  0.2516086E+000  0.5171941E+02  0.7957747E-01  0.1436282E+00
         13   -1    0    0    0    0  0.00000000000E+00  0.00000000000E+00  0.99999944175E+02  0.99999999995E+02  0.10566000000E+00 0. -1.
         22   -1    0    0    0    0 -0.00000000000E+00 -0.00000000000E+00 -0.17098670477E+02  0.17098670477E+02  0.00000000000E+00 0.  1.
         13    1    1    2    0    0 -0.13099057988E+02 -0.18199347976E+01 -0.57835998356E+01  0.14434634527E+02  0.10566000000E+00 0.  1.
        996    1    1    2    0    0  0.13099057988E+02  0.18199347976E+01  0.88684873534E+02  0.10266403594E+03  0.50000000000E+02 0.  0.
<mgrwt>
<rscale>  0 0.51719411E+02</rscale>
<asrwt>0</asrwt>
<pdfrwt beam="1">  1       13 0.10000000E+01 0.51719411E+02</pdfrwt>
<pdfrwt beam="2">  1       22 0.17098694E+00 0.51719411E+02</pdfrwt>
<totfact> 0.60151596E-01</totfact>
</mgrwt>
</event>
<event>
 4    1  0.2516086E+000  0.5154265E+02  0.7957747E-01  0.1437194E+00
         13   -1    0    0    0    0  0.00000000000E+00  0.00000000000E+00  0.99999944184E+02  0.10000000000E+03  0.10566000000E+00 0. -1.
         22   -1    0    0    0    0 -0.00000000000E+00 -0.00000000000E+00 -0.40758354112E+02  0.40758354112E+02  0.00000000000E+00 0.  1.
         13    1    1    2    0    0 -0.25192823070E+01 -0.12259621350E+02 -0.32888914078E+02  0.35190011825E+02  0.10566000000E+00 0.  1.
        996    1    1    2    0    0  0.25192823070E+01  0.12259621350E+02  0.92130504150E+02  0.10556834229E+03  0.50000000000E+02 0.  0.
<mgrwt>
<rscale>  0 0.51542653E+02</rscale>
<asrwt>0</asrwt>
<pdfrwt beam="1">  1       13 0.10000000E+01 0.51542653E+02</pdfrwt>
<pdfrwt beam="2">  1       22 0.40758371E+00 0.51542653E+02</pdfrwt>
<totfact> 0.11924928E-01</totfact>
</mgrwt>
</event>
<event>
 4    1  0.2516086E+000  0.5270687E+02  0.7957747E-01  0.1431265E+00
         13   -1    0    0    0    0  0.00000000000E+00  0.00000000000E+00  0.99999944171E+02  0.99999999991E+02  0.10566000000E+00 0. -1.
         22   -1    0    0    0    0 -0.00000000000E+00 -0.00000000000E+00 -0.39140297464E+02  0.39140297464E+02  0.00000000000E+00 0.  1.
         13    1    1    2    0    0  0.33254557530E+01  0.16338781170E+02 -0.29872013753E+02  0.34210565558E+02  0.10566000000E+00 0.  1.
        996    1    1    2    0    0 -0.33254557530E+01 -0.16338781170E+02  0.90731660460E+02  0.10492973190E+03  0.50000000000E+02 0.  0.
<mgrwt>
<rscale>  0 0.52706873E+02</rscale>
<asrwt>0</asrwt>
<pdfrwt beam="1">  1       13 0.10000000E+01 0.52706873E+02</pdfrwt>
<pdfrwt beam="2">  1       22 0.39140314E+00 0.52706873E+02</pdfrwt>
<totfact> 0.12888834E-01</totfact>
</mgrwt>
</event>
<event>
 4    1  0.2516086E+000  0.5281981E+02  0.7957747E-01  0.1430700E+00
         13   -1    0    0    0    0  0.00000000000E+00  0.00000000000E+00  0.99999944182E+02  0.10000000000E+03  0.10566000000E+00 0.  1.
         22   -1    0    0    0    0 -0.00000000000E+00 -0.00000000000E+00 -0.36156253719E+02  0.36156253719E+02  0.00000000000E+00 0. -1.
         13    1    1    2    0    0 -0.11472531380E+02  0.12582282601E+02 -0.26503369984E+02  0.31501945912E+02  0.10566000000E+00 0. -1.
        996    1    1    2    0    0  0.11472531380E+02 -0.12582282601E+02  0.90347060446E+02  0.10465430781E+03  0.50000000000E+02 0.  0.
<mgrwt>
<rscale>  0 0.52819815E+02</rscale>
<asrwt>0</asrwt>
<pdfrwt beam="1">  1       13 0.10000000E+01 0.52819815E+02</pdfrwt>
<pdfrwt beam="2">  1       22 0.36156272E+00 0.52819815E+02</pdfrwt>
<totfact> 0.14859095E-01</totfact>
</mgrwt>
</event>
<event>
 4    1  0.2516086E+000  0.5136622E+02  0.7957747E-01  0.1438109E+00
         13   -1    0    0    0    0  0.00000000000E+00  0.00000000000E+00  0.99999944183E+02  0.10000000000E+03  0.10566000000E+00 0.  1.
         22   -1    0    0    0    0 -0.00000000000E+00 -0.00000000000E+00 -0.10464632289E+02  0.10464632289E+02  0.00000000000E+00 0.  1.
         13    1    1    2    0    0 -0.58386387240E+01  0.10217565639E+02  0.84860019653E+01  0.14509022818E+02  0.10566000000E+00 0. -1.
        996    1    1    2    0    0  0.58386387240E+01 -0.10217565639E+02  0.81049309928E+02  0.95955609474E+02  0.50000000000E+02 0.  0.
<mgrwt>
<rscale>  0 0.51366218E+02</rscale>
<asrwt>0</asrwt>
<pdfrwt beam="1">  1       13 0.10000000E+01 0.51366218E+02</pdfrwt>
<pdfrwt beam="2">  1       22 0.10464657E+00 0.51366218E+02</pdfrwt>
<totfact> 0.13174973E+00</totfact>
</mgrwt>
</event>
<event>
 4    1  0.2516086E+000  0.5429475E+02  0.7957747E-01  0.1423464E+00
         13   -1    0    0    0    0  0.00000000000E+00  0.00000000000E+00  0.99999944185E+02  0.10000000000E+03  0.10566000000E+00 0. -1.
         22   -1    0    0    0    0 -0.00000000000E+00 -0.00000000000E+00 -0.84335959040E+02  0.84335959040E+02  0.00000000000E+00 0.  1.
         13    1    1    2    0    0 -0.79655017413E+01 -0.19607910826E+02 -0.75400197414E+02  0.78314240845E+02  0.10566000000E+00 0.  1.
        996    1    1    2    0    0  0.79655017413E+01  0.19607910826E+02  0.91064182559E+02  0.10602171820E+03  0.50000000000E+02 0.  0.
<mgrwt>
<rscale>  0 0.54294745E+02</rscale>
<asrwt>0</asrwt>
<pdfrwt beam="1">  1       13 0.10000000E+01 0.54294745E+02</pdfrwt>
<pdfrwt beam="2">  1       22 0.84335963E+00 0.54294745E+02</pdfrwt>
<totfact> 0.20351285E-02</totfact>
</mgrwt>
</event>
<event>
 4    1  0.2516086E+000  0.5231940E+02  0.7957747E-01  0.1433218E+00
         13   -1    0    0    0    0  0.00000000000E+00  0.00000000000E+00  0.99999944182E+02  0.10000000000E+03  0.10566000000E+00 0.  1.
         22   -1    0    0    0    0 -0.00000000000E+00 -0.00000000000E+00 -0.41342480148E+02  0.41342480148E+02  0.00000000000E+00 0. -1.
         13    1    1    2    0    0  0.25893839836E+01  0.15185988707E+02 -0.32653193560E+02  0.36104866378E+02  0.10566000000E+00 0. -1.
        996    1    1    2    0    0 -0.25893839836E+01 -0.15185988707E+02  0.91310657594E+02  0.10523761377E+03  0.50000000000E+02 0.  0.
<mgrwt>
<rscale>  0 0.52319396E+02</rscale>
<asrwt>0</asrwt>
<pdfrwt beam="1">  1       13 0.10000000E+01 0.52319396E+02</pdfrwt>
<pdfrwt beam="2">  1       22 0.41342497E+00 0.52319396E+02</pdfrwt>
<totfact> 0.11602025E-01</totfact>
</mgrwt>
</event>
<event>
 4    1  0.2516086E+000  0.5410062E+02  0.7957747E-01  0.1424401E+00
         13   -1    0    0    0    0  0.00000000000E+00  0.00000000000E+00  0.99999944186E+02  0.10000000001E+03  0.10566000000E+00 0. -1.
         22   -1    0    0    0    0 -0.00000000000E+00 -0.00000000000E+00 -0.14297038400E+02  0.14297038400E+02  0.00000000000E+00 0.  1.
         13    1    1    2    0    0  0.20489343150E+02 -0.26578268088E+01  0.16406069662E+02  0.26382712368E+02  0.10566000000E+00 0.  1.
        996    1    1    2    0    0 -0.20489343150E+02  0.26578268088E+01  0.69296836123E+02  0.87914326038E+02  0.50000000000E+02 0.  0.
<mgrwt>
<rscale>  0 0.54100621E+02</rscale>
<asrwt>0</asrwt>
<pdfrwt beam="1">  1       13 0.10000000E+01 0.54100621E+02</pdfrwt>
<pdfrwt beam="2">  1       22 0.14297062E+00 0.54100621E+02</pdfrwt>
<totfact> 0.81845252E-01</totfact>
</mgrwt>
</event>
<event>
 4    1  0.2516086E+000  0.5283497E+02  0.7957747E-01  0.1430624E+00
         13   -1    0    0    0    0  0.00000000000E+00  0.00000000000E+00  0.99999944179E+02  0.99999999999E+02  0.10566000000E+00 0. -1.
         22   -1    0    0    0    0 -0.00000000000E+00 -0.00000000000E+00 -0.12271463651E+02  0.12271463651E+02  0.00000000000E+00 0. -1.
         13    1    1    2    0    0 -0.17028918357E+02  0.12449919477E+01  0.18348853867E+02  0.25064430327E+02  0.10566000000E+00 0.  1.
        996    1    1    2    0    0  0.17028918357E+02 -0.12449919477E+01  0.69379626660E+02  0.87207033322E+02  0.50000000000E+02 0.  0.
<mgrwt>
<rscale>  0 0.52834970E+02</rscale>
<asrwt>0</asrwt>
<pdfrwt beam="1">  1       13 0.10000000E+01 0.52834970E+02</pdfrwt>
<pdfrwt beam="2">  1       22 0.12271488E+00 0.52834970E+02</pdfrwt>
<totfact> 0.10404988E+00</totfact>
</mgrwt>
</event>
<event>
 4    1  0.2516086E+000  0.5517371E+02  0.7957747E-01  0.1419279E+00
         13   -1    0    0    0    0  0.00000000000E+00  0.00000000000E+00  0.99999944182E+02  0.10000000000E+03  0.10566000000E+00 0.  1.
         22   -1    0    0    0    0 -0.00000000000E+00 -0.00000000000E+00 -0.17226031283E+02  0.17226031283E+02  0.00000000000E+00 0.  1.
         13    1    1    2    0    0  0.14729833822E+01  0.23280222344E+02  0.43965522501E+02  0.49770641600E+02  0.10566000000E+00 0. -1.
        996    1    1    2    0    0 -0.14729833822E+01 -0.23280222344E+02  0.38808390397E+02  0.67455389685E+02  0.50000000000E+02 0.  0.
<mgrwt>
<rscale>  0 0.55173711E+02</rscale>
<asrwt>0</asrwt>
<pdfrwt beam="1">  1       13 0.10000000E+01 0.55173711E+02</pdfrwt>
<pdfrwt beam="2">  1       22 0.17226054E+00 0.55173711E+02</pdfrwt>
<totfact> 0.59756538E-01</totfact>
</mgrwt>
</event>
<event>
 4    1  0.2516086E+000  0.5151815E+02  0.7957747E-01  0.1437321E+00
         13   -1    0    0    0    0  0.00000000000E+00  0.00000000000E+00  0.99999944176E+02  0.99999999996E+02  0.10566000000E+00 0. -1.
         22   -1    0    0    0    0 -0.00000000000E+00 -0.00000000000E+00 -0.59962316702E+02  0.59962316702E+02  0.00000000000E+00 0.  1.
         13    1    1    2    0    0 -0.84938268390E+01 -0.90539735983E+01 -0.52555477526E+02  0.54001934357E+02  0.10566000000E+00 0.  1.
        996    1    1    2    0    0  0.84938268390E+01  0.90539735983E+01  0.92593105000E+02  0.10596038234E+03  0.50000000000E+02 0.  0.
<mgrwt>
<rscale>  0 0.51518148E+02</rscale>
<asrwt>0</asrwt>
<pdfrwt beam="1">  1       13 0.10000000E+01 0.51518148E+02</pdfrwt>
<pdfrwt beam="2">  1       22 0.59962328E+00 0.51518148E+02</pdfrwt>
<totfact> 0.63434025E-02</totfact>
</mgrwt>
</event>
<event>
 4    1  0.2516086E+000  0.5172394E+02  0.7957747E-01  0.1436259E+00
         13   -1    0    0    0    0  0.00000000000E+00  0.00000000000E+00  0.99999944178E+02  0.99999999998E+02  0.10566000000E+00 0.  1.
         22   -1    0    0    0    0 -0.00000000000E+00 -0.00000000000E+00 -0.35416285336E+02  0.35416285336E+02  0.00000000000E+00 0. -1.
         13    1    1    2    0    0  0.12699499123E+02 -0.37535571354E+01 -0.27092108262E+02  0.30155595886E+02  0.10566000000E+00 0. -1.
        996    1    1    2    0    0 -0.12699499123E+02  0.37535571354E+01  0.91675767103E+02  0.10526068945E+03  0.50000000000E+02 0.  0.
<mgrwt>
<rscale>  0 0.51723945E+02</rscale>
<asrwt>0</asrwt>
<pdfrwt beam="1">  1       13 0.10000000E+01 0.51723945E+02</pdfrwt>
<pdfrwt beam="2">  1       22 0.35416303E+00 0.51723945E+02</pdfrwt>
<totfact> 0.15389457E-01</totfact>
</mgrwt>
</event>
<event>
 4    1  0.2516086E+000  0.6023294E+02  0.7957747E-01  0.1396857E+00
         13   -1    0    0    0    0  0.00000000000E+00  0.00000000000E+00  0.99999944173E+02  0.99999999993E+02  0.10566000000E+00 0. -1.
         22   -1    0    0    0    0 -0.00000000000E+00 -0.00000000000E+00 -0.67205988855E+02  0.67205988855E+02  0.00000000000E+00 0.  1.
         13    1    1    2    0    0 -0.27389783906E+02 -0.19437261953E+02 -0.52779668741E+02  0.62559667607E+02  0.10566000000E+00 0.  1.
        996    1    1    2    0    0  0.27389783906E+02  0.19437261953E+02  0.85573624059E+02  0.10464632124E+03  0.50000000000E+02 0.  0.
<mgrwt>
<rscale>  0 0.60232943E+02</rscale>
<asrwt>0</asrwt>
<pdfrwt beam="1">  1       13 0.10000000E+01 0.60232943E+02</pdfrwt>
<pdfrwt beam="2">  1       22 0.67205998E+00 0.60232943E+02</pdfrwt>
<totfact> 0.85816202E-02</totfact>
</mgrwt>
</event>
<event>
 4    1  0.2516086E+000  0.5399372E+02  0.7957747E-01  0.1424918E+00
         13   -1    0    0    0    0  0.00000000000E+00  0.00000000000E+00  0.99999944179E+02  0.99999999999E+02  0.10566000000E+00 0.  1.
         22   -1    0    0    0    0 -0.00000000000E+00 -0.00000000000E+00 -0.15338036386E+02  0.15338036386E+02  0.00000000000E+00 0. -1.
         13    1    1    2    0    0 -0.19956852912E+02 -0.41286827776E+01  0.87408329443E+01  0.22175105957E+02  0.10566000000E+00 0. -1.
        996    1    1    2    0    0  0.19956852912E+02  0.41286827776E+01  0.75921074849E+02  0.93162930428E+02  0.50000000000E+02 0.  0.
<mgrwt>
<rscale>  0 0.53993722E+02</rscale>
<asrwt>0</asrwt>
<pdfrwt beam="1">  1       13 0.10000000E+01 0.53993722E+02</pdfrwt>
<pdfrwt beam="2">  1       22 0.15338060E+00 0.53993722E+02</pdfrwt>
<totfact> 0.72825203E-01</totfact>
</mgrwt>
</event>
<event>
 4    1  0.2516086E+000  0.5119049E+02  0.7957747E-01  0.1439024E+00
         13   -1    0    0    0    0  0.00000000000E+00  0.00000000000E+00  0.99999944178E+02  0.99999999998E+02  0.10566000000E+00 0.  1.
         22   -1    0    0    0    0 -0.00000000000E+00 -0.00000000000E+00 -0.31171419166E+02  0.31171419166E+02  0.00000000000E+00 0. -1.
         13    1    1    2    0    0  0.99360768128E+01 -0.46626654588E+01 -0.23311458829E+02  0.25766283170E+02  0.10566000000E+00 0. -1.
        996    1    1    2    0    0 -0.99360768128E+01  0.46626654588E+01  0.92139983841E+02  0.10540513599E+03  0.50000000000E+02 0.  0.
<mgrwt>
<rscale>  0 0.51190488E+02</rscale>
<asrwt>0</asrwt>
<pdfrwt beam="1">  1       13 0.10000000E+01 0.51190488E+02</pdfrwt>
<pdfrwt beam="2">  1       22 0.31171438E+00 0.51190488E+02</pdfrwt>
<totfact> 0.19271431E-01</totfact>
</mgrwt>
</event>
<event>
 4    1  0.2516086E+000  0.6130096E+02  0.7957747E-01  0.1392452E+00
         13   -1    0    0    0    0  0.00000000000E+00  0.00000000000E+00  0.99999944183E+02  0.10000000000E+03  0.10566000000E+00 0. -1.
         22   -1    0    0    0    0 -0.00000000000E+00 -0.00000000000E+00 -0.25167659539E+02  0.25167659539E+02  0.00000000000E+00 0.  1.
         13    1    1    2    0    0  0.21279810632E+02  0.28372113111E+02  0.12140742417E+02  0.37486209910E+02  0.10566000000E+00 0.  1.
        996    1    1    2    0    0 -0.21279810632E+02 -0.28372113111E+02  0.62691542226E+02  0.87681449632E+02  0.50000000000E+02 0.  0.
<mgrwt>
<rscale>  0 0.61300955E+02</rscale>
<asrwt>0</asrwt>
<pdfrwt beam="1">  1       13 0.10000000E+01 0.61300955E+02</pdfrwt>
<pdfrwt beam="2">  1       22 0.25167680E+00 0.61300955E+02</pdfrwt>
<totfact> 0.29483259E-01</totfact>
</mgrwt>
</event>
<event>
 4    1  0.2516086E+000  0.5123737E+02  0.7957747E-01  0.1438780E+00
         13   -1    0    0    0    0  0.00000000000E+00  0.00000000000E+00  0.99999944179E+02  0.99999999999E+02  0.10566000000E+00 0. -1.
         22   -1    0    0    0    0 -0.00000000000E+00 -0.00000000000E+00 -0.21299277541E+02  0.21299277541E+02  0.00000000000E+00 0. -1.
         13    1    1    2    0    0  0.88128414162E+01  0.68993864293E+01 -0.12445840546E+02  0.16738513012E+02  0.10566000000E+00 0.  1.
        996    1    1    2    0    0 -0.88128414162E+01 -0.68993864293E+01  0.91146507183E+02  0.10456076453E+03  0.50000000000E+02 0.  0.
<mgrwt>
<rscale>  0 0.51237366E+02</rscale>
<asrwt>0</asrwt>
<pdfrwt beam="1">  1       13 0.10000000E+01 0.51237366E+02</pdfrwt>
<pdfrwt beam="2">  1       22 0.21299300E+00 0.51237366E+02</pdfrwt>
<totfact> 0.40184286E-01</totfact>
</mgrwt>
</event>
<event>
 4    1  0.2516086E+000  0.8089697E+02  0.7957747E-01  0.1326525E+00
         13   -1    0    0    0    0  0.00000000000E+00  0.00000000000E+00  0.99999944185E+02  0.10000000001E+03  0.10566000000E+00 0.  1.
         22   -1    0    0    0    0 -0.00000000000E+00 -0.00000000000E+00 -0.59537101567E+02  0.59537101567E+02  0.00000000000E+00 0. -1.
         13    1    1    2    0    0  0.22104201198E+02  0.59629894835E+02 -0.97283047016E+01  0.64334836170E+02  0.10566000000E+00 0. -1.
        996    1    1    2    0    0 -0.22104201198E+02 -0.59629894835E+02  0.50191147319E+02  0.95202265403E+02  0.50000000000E+02 0.  0.
<mgrwt>
<rscale>  0 0.80896972E+02</rscale>
<asrwt>0</asrwt>
<pdfrwt beam="1">  1       13 0.10000000E+01 0.80896972E+02</pdfrwt>
<pdfrwt beam="2">  1       22 0.59537113E+00 0.80896972E+02</pdfrwt>
<totfact> 0.62224763E-02</totfact>
</mgrwt>
</event>
<event>
 4    1  0.2516086E+000  0.5540879E+02  0.7957747E-01  0.1418176E+00
         13   -1    0    0    0    0  0.00000000000E+00  0.00000000000E+00  0.99999944181E+02  0.10000000000E+03  0.10566000000E+00 0.  1.
         22   -1    0    0    0    0 -0.00000000000E+00 -0.00000000000E+00 -0.16581695310E+02  0.16581695310E+02  0.00000000000E+00 0. -1.
         13    1    1    2    0    0 -0.40784459881E+01 -0.23526581105E+02  0.13706893578E+02  0.27532232669E+02  0.10566000000E+00 0. -1.
        996    1    1    2    0    0  0.40784459881E+01  0.23526581105E+02  0.69711355293E+02  0.89049462643E+02  0.50000000000E+02 0.  0.
<mgrwt>
<rscale>  0 0.55408788E+02</rscale>
<asrwt>0</asrwt>
<pdfrwt beam="1">  1       13 0.10000000E+01 0.55408788E+02</pdfrwt>
<pdfrwt beam="2">  1       22 0.16581719E+00 0.55408788E+02</pdfrwt>
<totfact> 0.63908236E-01</totfact>
</mgrwt>
</event>
<event>
 4    1  0.2516086E+000  0.5210697E+02  0.7957747E-01  0.1434297E+00
         13   -1    0    0    0    0  0.00000000000E+00  0.00000000000E+00  0.99999944181E+02  0.10000000000E+03  0.10566000000E+00 0.  1.
         22   -1    0    0    0    0 -0.00000000000E+00 -0.00000000000E+00 -0.25593356714E+02  0.25593356714E+02  0.00000000000E+00 0. -1.
         13    1    1    2    0    0 -0.14119082972E+02 -0.39733818178E+01 -0.15712216000E+02  0.21494677544E+02  0.10566000000E+00 0. -1.
        996    1    1    2    0    0  0.14119082972E+02  0.39733818178E+01  0.90118803467E+02  0.10409867917E+03  0.50000000000E+02 0.  0.
<mgrwt>
<rscale>  0 0.52106969E+02</rscale>
<asrwt>0</asrwt>
<pdfrwt beam="1">  1       13 0.10000000E+01 0.52106969E+02</pdfrwt>
<pdfrwt beam="2">  1       22 0.25593377E+00 0.52106969E+02</pdfrwt>
<totfact> 0.28154131E-01</totfact>
</mgrwt>
</event>
<event>
 4    1  0.2516086E+000  0.6690577E+02  0.7957747E-01  0.1370943E+00
         13   -1    0    0    0    0  0.00000000000E+00  0.00000000000E+00  0.99999944178E+02  0.99999999998E+02  0.10566000000E+00 0. -1.
         22   -1    0    0    0    0 -0.00000000000E+00 -0.00000000000E+00 -0.60123126291E+02  0.60123126291E+02  0.00000000000E+00 0.  1.
         13    1    1    2    0    0  0.17953073295E+02 -0.40670250500E+02 -0.37265002831E+02  0.58009255438E+02  0.10566000000E+00 0.  1.
        996    1    1    2    0    0 -0.17953073295E+02  0.40670250500E+02  0.77141820717E+02  0.10211387085E+03  0.50000000000E+02 0.  0.
<mgrwt>
<rscale>  0 0.66905770E+02</rscale>
<asrwt>0</asrwt>
<pdfrwt beam="1">  1       13 0.10000000E+01 0.66905770E+02</pdfrwt>
<pdfrwt beam="2">  1       22 0.60123137E+00 0.66905770E+02</pdfrwt>
<totfact> 0.64123608E-02</totfact>
</mgrwt>
</event>
<event>
 4    1  0.2516086E+000  0.5836807E+02  0.7957747E-01  0.1404811E+00
         13   -1    0    0    0    0  0.00000000000E+00  0.00000000000E+00  0.99999944177E+02  0.99999999997E+02  0.10566000000E+00 0. -1.
         22   -1    0    0    0    0 -0.00000000000E+00 -0.00000000000E+00 -0.19654729631E+02  0.19654729631E+02  0.00000000000E+00 0. -1.
         13    1    1    2    0    0  0.30104800373E+02  0.72989842711E+00  0.31064067269E+02  0.43264525844E+02  0.10566000000E+00 0.  1.
        996    1    1    2    0    0 -0.30104800373E+02 -0.72989842711E+00  0.49281147277E+02  0.76390203784E+02  0.50000000000E+02 0.  0.
<mgrwt>
<rscale>  0 0.58368071E+02</rscale>
<asrwt>0</asrwt>
<pdfrwt beam="1">  1       13 0.10000000E+01 0.58368071E+02</pdfrwt>
<pdfrwt beam="2">  1       22 0.19654752E+00 0.58368071E+02</pdfrwt>
<totfact> 0.47308668E-01</totfact>
</mgrwt>
</event>
<event>
 4    1  0.2516086E+000  0.6941856E+02  0.7957747E-01  0.1362081E+00
         13   -1    0    0    0    0  0.00000000000E+00  0.00000000000E+00  0.99999944177E+02  0.99999999998E+02  0.10566000000E+00 0. -1.
         22   -1    0    0    0    0 -0.00000000000E+00 -0.00000000000E+00 -0.53685620498E+02  0.53685620498E+02  0.00000000000E+00 0.  1.
         13    1    1    2    0    0 -0.14098544490E+02  0.46045274667E+02 -0.24919477170E+02  0.54221100896E+02  0.10566000000E+00 0.  1.
        996    1    1    2    0    0  0.14098544490E+02 -0.46045274667E+02  0.71233800849E+02  0.99464519600E+02  0.50000000000E+02 0.  0.
<mgrwt>
<rscale>  0 0.69418559E+02</rscale>
<asrwt>0</asrwt>
<pdfrwt beam="1">  1       13 0.10000000E+01 0.69418559E+02</pdfrwt>
<pdfrwt beam="2">  1       22 0.53685633E+00 0.69418559E+02</pdfrwt>
<totfact> 0.61640185E-02</totfact>
</mgrwt>
</event>
<event>
 4    1  0.2516086E+000  0.5106753E+02  0.7957747E-01  0.1439667E+00
         13   -1    0    0    0    0  0.00000000000E+00  0.00000000000E+00  0.99999944181E+02  0.10000000000E+03  0.10566000000E+00 0.  1.
         22   -1    0    0    0    0 -0.00000000000E+00 -0.00000000000E+00 -0.14143934775E+02  0.14143934775E+02  0.00000000000E+00 0.  1.
         13    1    1    2    0    0 -0.40603692019E+01  0.95606277911E+01 -0.37198956352E+01  0.11033629928E+02  0.10566000000E+00 0. -1.
        996    1    1    2    0    0  0.40603692019E+01 -0.95606277911E+01  0.89575905041E+02  0.10311030485E+03  0.50000000000E+02 0.  0.
<mgrwt>
<rscale>  0 0.51067526E+02</rscale>
<asrwt>0</asrwt>
<pdfrwt beam="1">  1       13 0.10000000E+01 0.51067526E+02</pdfrwt>
<pdfrwt beam="2">  1       22 0.14143959E+00 0.51067526E+02</pdfrwt>
<totfact> 0.82775235E-01</totfact>
</mgrwt>
</event>
<event>
 4    1  0.2516086E+000  0.5260954E+02  0.7957747E-01  0.1431754E+00
         13   -1    0    0    0    0  0.00000000000E+00  0.00000000000E+00  0.99999944176E+02  0.99999999996E+02  0.10566000000E+00 0.  1.
         22   -1    0    0    0    0 -0.00000000000E+00 -0.00000000000E+00 -0.13551934519E+02  0.13551934519E+02  0.00000000000E+00 0.  1.
         13    1    1    2    0    0 -0.12782310120E+02 -0.10216460331E+02  0.60005575163E+01  0.17429324951E+02  0.10566000000E+00 0. -1.
        996    1    1    2    0    0  0.12782310120E+02  0.10216460331E+02  0.80447452140E+02  0.96122609565E+02  0.50000000000E+02 0.  0.
<mgrwt>
<rscale>  0 0.52609538E+02</rscale>
<asrwt>0</asrwt>
<pdfrwt beam="1">  1       13 0.10000000E+01 0.52609538E+02</pdfrwt>
<pdfrwt beam="2">  1       22 0.13551959E+00 0.52609538E+02</pdfrwt>
<totfact> 0.88977313E-01</totfact>
</mgrwt>
</event>
<event>
 4    1  0.2516086E+000  0.5240398E+02  0.7957747E-01  0.1432790E+00
         13   -1    0    0    0    0  0.00000000000E+00  0.00000000000E+00  0.99999944176E+02  0.99999999997E+02  0.10566000000E+00 0.  1.
         22   -1    0    0    0    0 -0.00000000000E+00 -0.00000000000E+00 -0.12763451265E+02  0.12763451265E+02  0.00000000000E+00 0.  1.
         13    1    1    2    0    0  0.74126640420E+01 -0.13828577451E+02  0.76061143227E+01  0.17436779566E+02  0.10566000000E+00 0. -1.
        996    1    1    2    0    0 -0.74126640420E+01  0.13828577451E+02  0.79630378588E+02  0.95326671696E+02  0.50000000000E+02 0.  0.
<mgrwt>
<rscale>  0 0.52403980E+02</rscale>
<asrwt>0</asrwt>
<pdfrwt beam="1">  1       13 0.10000000E+01 0.52403980E+02</pdfrwt>
<pdfrwt beam="2">  1       22 0.12763476E+00 0.52403980E+02</pdfrwt>
<totfact> 0.97789416E-01</totfact>
</mgrwt>
</event>
<event>
 4    1  0.2516086E+000  0.5487340E+02  0.7957747E-01  0.1420699E+00
         13   -1    0    0    0    0  0.00000000000E+00  0.00000000000E+00  0.99999944185E+02  0.10000000000E+03  0.10566000000E+00 0. -1.
         22   -1    0    0    0    0 -0.00000000000E+00 -0.00000000000E+00 -0.70145190322E+02  0.70145190322E+02  0.00000000000E+00 0.  1.
         13    1    1    2    0    0  0.17472837116E+02  0.14345368315E+02 -0.60414577782E+02  0.64505984231E+02  0.10566000000E+00 0.  1.
        996    1    1    2    0    0 -0.17472837116E+02 -0.14345368315E+02  0.90269331645E+02  0.10563920610E+03  0.50000000000E+02 0.  0.
<mgrwt>
<rscale>  0 0.54873396E+02</rscale>
<asrwt>0</asrwt>
<pdfrwt beam="1">  1       13 0.10000000E+01 0.54873396E+02</pdfrwt>
<pdfrwt beam="2">  1       22 0.70145199E+00 0.54873396E+02</pdfrwt>
<totfact> 0.73902374E-02</totfact>
</mgrwt>
</event>
<event>
 4    1  0.2516086E+000  0.5140973E+02  0.7957747E-01  0.1437883E+00
         13   -1    0    0    0    0  0.00000000000E+00  0.00000000000E+00  0.99999944182E+02  0.10000000000E+03  0.10566000000E+00 0. -1.
         22   -1    0    0    0    0 -0.00000000000E+00 -0.00000000000E+00 -0.10177004325E+02  0.10177004325E+02  0.00000000000E+00 0. -1.
         13    1    1    2    0    0 -0.28599534377E+01 -0.11609540344E+02  0.12276958663E+02  0.17137550546E+02  0.10566000000E+00 0.  1.
        996    1    1    2    0    0  0.28599534377E+01  0.11609540344E+02  0.77545981194E+02  0.93039453781E+02  0.50000000000E+02 0.  0.
<mgrwt>
<rscale>  0 0.51409734E+02</rscale>
<asrwt>0</asrwt>
<pdfrwt beam="1">  1       13 0.10000000E+01 0.51409734E+02</pdfrwt>
<pdfrwt beam="2">  1       22 0.10177029E+00 0.51409734E+02</pdfrwt>
<totfact> 0.13723767E+00</totfact>
</mgrwt>
</event>
<event>
 4    1  0.2516086E+000  0.5440526E+02  0.7957747E-01  0.1422933E+00
         13   -1    0    0    0    0  0.00000000000E+00  0.00000000000E+00  0.99999944174E+02  0.99999999994E+02  0.10566000000E+00 0.  1.
         22   -1    0    0    0    0 -0.00000000000E+00 -0.00000000000E+00 -0.16235903883E+02  0.16235903883E+02  0.00000000000E+00 0.  1.
         13    1    1    2    0    0 -0.15302205756E+02  0.15025812959E+02  0.78462665194E+01  0.22836541297E+02  0.10566000000E+00 0. -1.
        996    1    1    2    0    0  0.15302205756E+02 -0.15025812959E+02  0.75917773771E+02  0.93399362581E+02  0.50000000000E+02 0.  0.
<mgrwt>
<rscale>  0 0.54405262E+02</rscale>
<asrwt>0</asrwt>
<pdfrwt beam="1">  1       13 0.10000000E+01 0.54405262E+02</pdfrwt>
<pdfrwt beam="2">  1       22 0.16235927E+00 0.54405262E+02</pdfrwt>
<totfact> 0.66157400E-01</totfact>
</mgrwt>
</event>
<event>
 4    1  0.2516086E+000  0.5106569E+02  0.7957747E-01  0.1439677E+00
         13   -1    0    0    0    0  0.00000000000E+00  0.00000000000E+00  0.99999944183E+02  0.10000000000E+03  0.10566000000E+00 0.  1.
         22   -1    0    0    0    0 -0.00000000000E+00 -0.00000000000E+00 -0.22436390140E+02  0.22436390140E+02  0.00000000000E+00 0. -1.
         13    1    1    2    0    0  0.16245520809E+01 -0.10250150412E+02 -0.14100227110E+02  0.17508064471E+02  0.10566000000E+00 0. -1.
        996    1    1    2    0    0 -0.16245520809E+01  0.10250150412E+02  0.91663781153E+02  0.10492832567E+03  0.50000000000E+02 0.  0.
<mgrwt>
<rscale>  0 0.51065691E+02</rscale>
<asrwt>0</asrwt>
<pdfrwt beam="1">  1       13 0.10000000E+01 0.51065691E+02</pdfrwt>
<pdfrwt beam="2">  1       22 0.22436412E+00 0.51065691E+02</pdfrwt>
<totfact> 0.36357986E-01</totfact>
</mgrwt>
</event>
<event>
 4    1  0.2516086E+000  0.5112421E+02  0.7957747E-01  0.1439371E+00
         13   -1    0    0    0    0  0.00000000000E+00  0.00000000000E+00  0.99999944179E+02  0.99999999999E+02  0.10566000000E+00 0.  1.
         22   -1    0    0    0    0 -0.00000000000E+00 -0.00000000000E+00 -0.11270520716E+02  0.11270520716E+02  0.00000000000E+00 0. -1.
         13    1    1    2    0    0  0.10212392915E+02 -0.30645943810E+01  0.23856373403E+01  0.10926442117E+02  0.10566000000E+00 0. -1.
        996    1    1    2    0    0 -0.10212392915E+02  0.30645943810E+01  0.86343786123E+02  0.10034407860E+03  0.50000000000E+02 0.  0.
<mgrwt>
<rscale>  0 0.51124209E+02</rscale>
<asrwt>0</asrwt>
<pdfrwt beam="1">  1       13 0.10000000E+01 0.51124209E+02</pdfrwt>
<pdfrwt beam="2">  1       22 0.11270545E+00 0.51124209E+02</pdfrwt>
<totfact> 0.11796594E+00</totfact>
</mgrwt>
</event>
<event>
 4    1  0.2516086E+000  0.5135494E+02  0.7957747E-01  0.1438167E+00
         13   -1    0    0    0    0  0.00000000000E+00  0.00000000000E+00  0.99999944174E+02  0.99999999994E+02  0.10566000000E+00 0.  1.
         22   -1    0    0    0    0 -0.00000000000E+00 -0.00000000000E+00 -0.11358877922E+02  0.11358877922E+02  0.00000000000E+00 0.  1.
         13    1    1    2    0    0  0.11322745157E+02 -0.30207644858E+01  0.40498544902E+01  0.12399276648E+02  0.10566000000E+00 0. -1.
        996    1    1    2    0    0 -0.11322745157E+02  0.30207644858E+01  0.84591211762E+02  0.98959601269E+02  0.50000000000E+02 0.  0.
<mgrwt>
<rscale>  0 0.51354937E+02</rscale>
<asrwt>0</asrwt>
<pdfrwt beam="1">  1       13 0.10000000E+01 0.51354937E+02</pdfrwt>
<pdfrwt beam="2">  1       22 0.11358903E+00 0.51354937E+02</pdfrwt>
<totfact> 0.11665456E+00</totfact>
</mgrwt>
</event>
<event>
 4    1  0.2516086E+000  0.6513571E+02  0.7957747E-01  0.1377462E+00
         13   -1    0    0    0    0  0.00000000000E+00  0.00000000000E+00  0.99999944179E+02  0.99999999999E+02  0.10566000000E+00 0. -1.
         22   -1    0    0    0    0 -0.00000000000E+00 -0.00000000000E+00 -0.29283223560E+02  0.29283223560E+02  0.00000000000E+00 0.  1.
         13    1    1    2    0    0 -0.41684201403E+02  0.22555922385E+01  0.17885345583E+02  0.45415383887E+02  0.10566000000E+00 0.  1.
        996    1    1    2    0    0  0.41684201403E+02 -0.22555922385E+01  0.52831375036E+02  0.83867839672E+02  0.50000000000E+02 0.  0.
<mgrwt>
<rscale>  0 0.65135707E+02</rscale>
<asrwt>0</asrwt>
<pdfrwt beam="1">  1       13 0.10000000E+01 0.65135707E+02</pdfrwt>
<pdfrwt beam="2">  1       22 0.29283243E+00 0.65135707E+02</pdfrwt>
<totfact> 0.22012443E-01</totfact>
</mgrwt>
</event>
<event>
 4    1  0.2516086E+000  0.5420998E+02  0.7957747E-01  0.1423872E+00
         13   -1    0    0    0    0  0.00000000000E+00  0.00000000000E+00  0.99999944188E+02  0.10000000001E+03  0.10566000000E+00 0.  1.
         22   -1    0    0    0    0 -0.00000000000E+00 -0.00000000000E+00 -0.21806172197E+02  0.21806172197E+02  0.00000000000E+00 0. -1.
         13    1    1    2    0    0 -0.84716673345E+01  0.19156023752E+02 -0.58934371432E+01  0.21759277534E+02  0.10566000000E+00 0. -1.
        996    1    1    2    0    0  0.84716673345E+01 -0.19156023752E+02  0.84087209134E+02  0.10004689467E+03  0.50000000000E+02 0.  0.
<mgrwt>
<rscale>  0 0.54209984E+02</rscale>
<asrwt>0</asrwt>
<pdfrwt beam="1">  1       13 0.10000000E+01 0.54209984E+02</pdfrwt>
<pdfrwt beam="2">  1       22 0.21806194E+00 0.54209984E+02</pdfrwt>
<totfact> 0.38612023E-01</totfact>
</mgrwt>
</event>
<event>
 4    1  0.2516086E+000  0.5298741E+02  0.7957747E-01  0.1429864E+00
         13   -1    0    0    0    0  0.00000000000E+00  0.00000000000E+00  0.99999944182E+02  0.10000000000E+03  0.10566000000E+00 0. -1.
         22   -1    0    0    0    0 -0.00000000000E+00 -0.00000000000E+00 -0.22284384330E+02  0.22284384330E+02  0.00000000000E+00 0.  1.
         13    1    1    2    0    0  0.10753142273E+02  0.13857675790E+02 -0.97143435052E+01  0.20051056851E+02  0.10566000000E+00 0.  1.
        996    1    1    2    0    0 -0.10753142273E+02 -0.13857675790E+02  0.87429903357E+02  0.10223332748E+03  0.50000000000E+02 0.  0.
<mgrwt>
<rscale>  0 0.52987406E+02</rscale>
<asrwt>0</asrwt>
<pdfrwt beam="1">  1       13 0.10000000E+01 0.52987406E+02</pdfrwt>
<pdfrwt beam="2">  1       22 0.22284406E+00 0.52987406E+02</pdfrwt>
<totfact> 0.36958128E-01</totfact>
</mgrwt>
</event>
<event>
 4    1  0.2516086E+000  0.5229246E+02  0.7957747E-01  0.1433355E+00
         13   -1    0    0    0    0  0.00000000000E+00  0.00000000000E+00  0.99999944172E+02  0.99999999992E+02  0.10566000000E+00 0.  1.
         22   -1    0    0    0    0 -0.00000000000E+00 -0.00000000000E+00 -0.13578304640E+02  0.13578304640E+02  0.00000000000E+00 0. -1.
         13    1    1    2    0    0 -0.15095114835E+02  0.25765494082E+01  0.37660382082E+01  0.15770076302E+02  0.10566000000E+00 0. -1.
        996    1    1    2    0    0  0.15095114835E+02 -0.25765494082E+01  0.82655601324E+02  0.97808228330E+02  0.50000000000E+02 0.  0.
<mgrwt>
<rscale>  0 0.52292457E+02</rscale>
<asrwt>0</asrwt>
<pdfrwt beam="1">  1       13 0.10000000E+01 0.52292457E+02</pdfrwt>
<pdfrwt beam="2">  1       22 0.13578329E+00 0.52292457E+02</pdfrwt>
<totfact> 0.88641525E-01</totfact>
</mgrwt>
</event>
<event>
 4    1  0.2516086E+000  0.5140100E+02  0.7957747E-01  0.1437928E+00
         13   -1    0    0    0    0  0.00000000000E+00  0.00000000000E+00  0.99999944180E+02  0.10000000000E+03  0.10566000000E+00 0.  1.
         22   -1    0    0    0    0 -0.00000000000E+00 -0.00000000000E+00 -0.10029328447E+02  0.10029328447E+02  0.00000000000E+00 0.  1.
         13    1    1    2    0    0  0.11858987952E+02  0.11947982547E+01  0.17972096380E+02  0.21565494440E+02  0.10566000000E+00 0. -1.
        996    1    1    2    0    0 -0.11858987952E+02 -0.11947982547E+01  0.71998519353E+02  0.88463834007E+02  0.50000000000E+02 0.  0.
<mgrwt>
<rscale>  0 0.51401003E+02</rscale>
<asrwt>0</asrwt>
<pdfrwt beam="1">  1       13 0.10000000E+01 0.51401003E+02</pdfrwt>
<pdfrwt beam="2">  1       22 0.10029354E+00 0.51401003E+02</pdfrwt>
<totfact> 0.14017881E+00</totfact>
</mgrwt>
</event>
<event>
 4    1  0.2516086E+000  0.5182003E+02  0.7957747E-01  0.1435765E+00
         13   -1    0    0    0    0  0.00000000000E+00  0.00000000000E+00  0.99999944170E+02  0.99999999990E+02  0.10566000000E+00 0. -1.
         22   -1    0    0    0    0 -0.00000000000E+00 -0.00000000000E+00 -0.20007298645E+02  0.20007298645E+02  0.00000000000E+00 0.  1.
         13    1    1    2    0    0 -0.11956097675E+02  0.65090145861E+01 -0.94956820502E+01  0.16598032538E+02  0.10566000000E+00 0.  1.
        996    1    1    2    0    0  0.11956097675E+02 -0.65090145861E+01  0.89488327576E+02  0.10340926610E+03  0.50000000000E+02 0.  0.
<mgrwt>
<rscale>  0 0.51820030E+02</rscale>
<asrwt>0</asrwt>
<pdfrwt beam="1">  1       13 0.10000000E+01 0.51820030E+02</pdfrwt>
<pdfrwt beam="2">  1       22 0.20007321E+00 0.51820030E+02</pdfrwt>
<totfact> 0.45262382E-01</totfact>
</mgrwt>
</event>
<event>
 4    1  0.2516086E+000  0.5534476E+02  0.7957747E-01  0.1418475E+00
         13   -1    0    0    0    0  0.00000000000E+00  0.00000000000E+00  0.99999944174E+02  0.99999999994E+02  0.10566000000E+00 0.  1.
         22   -1    0    0    0    0 -0.00000000000E+00 -0.00000000000E+00 -0.39424869252E+02  0.39424869252E+02  0.00000000000E+00 0. -1.
         13    1    1    2    0    0 -0.12589222238E+02  0.20113539898E+02 -0.26926212268E+02  0.35889762815E+02  0.10566000000E+00 0. -1.
        996    1    1    2    0    0  0.12589222238E+02 -0.20113539898E+02  0.87501287189E+02  0.10353510643E+03  0.50000000000E+02 0.  0.
<mgrwt>
<rscale>  0 0.55344765E+02</rscale>
<asrwt>0</asrwt>
<pdfrwt beam="1">  1       13 0.10000000E+01 0.55344765E+02</pdfrwt>
<pdfrwt beam="2">  1       22 0.39424886E+00 0.55344765E+02</pdfrwt>
<totfact> 0.12742834E-01</totfact>
</mgrwt>
</event>
<event>
 4    1  0.2516086E+000  0.5131205E+02  0.7957747E-01  0.1438390E+00
         13   -1    0    0    0    0  0.00000000000E+00  0.00000000000E+00  0.99999944177E+02  0.99999999997E+02  0.10566000000E+00 0. -1.
         22   -1    0    0    0    0 -0.00000000000E+00 -0.00000000000E+00 -0.19486648571E+02  0.19486648571E+02  0.00000000000E+00 0.  1.
         13    1    1    2    0    0 -0.66011671218E+01 -0.94525846185E+01 -0.10116717543E+02  0.15339031952E+02  0.10566000000E+00 0.  1.
        996    1    1    2    0    0  0.66011671218E+01  0.94525846185E+01  0.90630013149E+02  0.10414761662E+03  0.50000000000E+02 0.  0.
<mgrwt>
<rscale>  0 0.51312053E+02</rscale>
<asrwt>0</asrwt>
<pdfrwt beam="1">  1       13 0.10000000E+01 0.51312053E+02</pdfrwt>
<pdfrwt beam="2">  1       22 0.19486671E+00 0.51312053E+02</pdfrwt>
<totfact> 0.47489188E-01</totfact>
</mgrwt>
</event>
<event>
 4    1  0.2516086E+000  0.5457318E+02  0.7957747E-01  0.1422128E+00
         13   -1    0    0    0    0  0.00000000000E+00  0.00000000000E+00  0.99999944182E+02  0.10000000000E+03  0.10566000000E+00 0.  1.
         22   -1    0    0    0    0 -0.00000000000E+00 -0.00000000000E+00 -0.26544332096E+02  0.26544332096E+02  0.00000000000E+00 0. -1.
         13    1    1    2    0    0  0.93459858690E+01 -0.19770791374E+02 -0.12154394200E+02  0.25019434563E+02  0.10566000000E+00 0. -1.
        996    1    1    2    0    0 -0.93459858690E+01  0.19770791374E+02  0.85610006286E+02  0.10152489754E+03  0.50000000000E+02 0.  0.
<mgrwt>
<rscale>  0 0.54573177E+02</rscale>
<asrwt>0</asrwt>
<pdfrwt beam="1">  1       13 0.10000000E+01 0.54573177E+02</pdfrwt>
<pdfrwt beam="2">  1       22 0.26544353E+00 0.54573177E+02</pdfrwt>
<totfact> 0.26299884E-01</totfact>
</mgrwt>
</event>
<event>
 4    1  0.2516086E+000  0.5129017E+02  0.7957747E-01  0.1438504E+00
         13   -1    0    0    0    0  0.00000000000E+00  0.00000000000E+00  0.99999944179E+02  0.99999999999E+02  0.10566000000E+00 0.  1.
         22   -1    0    0    0    0 -0.00000000000E+00 -0.00000000000E+00 -0.13220529357E+02  0.13220529357E+02  0.00000000000E+00 0. -1.
         13    1    1    2    0    0 -0.25907771852E+01  0.11134168228E+02 -0.10829010034E+01  0.11483277719E+02  0.10566000000E+00 0. -1.
        996    1    1    2    0    0  0.25907771852E+01 -0.11134168228E+02  0.87862315825E+02  0.10173725164E+03  0.50000000000E+02 0.  0.
<mgrwt>
<rscale>  0 0.51290173E+02</rscale>
<asrwt>0</asrwt>
<pdfrwt beam="1">  1       13 0.10000000E+01 0.51290173E+02</pdfrwt>
<pdfrwt beam="2">  1       22 0.13220554E+00 0.51290173E+02</pdfrwt>
<totfact> 0.92294183E-01</totfact>
</mgrwt>
</event>
<event>
 4    1  0.2516086E+000  0.5137923E+02  0.7957747E-01  0.1438041E+00
         13   -1    0    0    0    0  0.00000000000E+00  0.00000000000E+00  0.99999944179E+02  0.99999999999E+02  0.10566000000E+00 0.  1.
         22   -1    0    0    0    0 -0.00000000000E+00 -0.00000000000E+00 -0.20460181277E+02  0.20460181277E+02  0.00000000000E+00 0.  1.
         13    1    1    2    0    0  0.11738511386E+02 -0.14258430630E+01 -0.11133601672E+02  0.16241734151E+02  0.10566000000E+00 0. -1.
        996    1    1    2    0    0 -0.11738511386E+02  0.14258430630E+01  0.90673364574E+02  0.10421844713E+03  0.50000000000E+02 0.  0.
<mgrwt>
<rscale>  0 0.51379234E+02</rscale>
<asrwt>0</asrwt>
<pdfrwt beam="1">  1       13 0.10000000E+01 0.51379234E+02</pdfrwt>
<pdfrwt beam="2">  1       22 0.20460203E+00 0.51379234E+02</pdfrwt>
<totfact> 0.43370033E-01</totfact>
</mgrwt>
</event>
<event>
 4    1  0.2516086E+000  0.5700904E+02  0.7957747E-01  0.1410830E+00
         13   -1    0    0    0    0  0.00000000000E+00  0.00000000000E+00  0.99999944184E+02  0.10000000000E+03  0.10566000000E+00 0.  1.
         22   -1    0    0    0    0 -0.00000000000E+00 -0.00000000000E+00 -0.32845108812E+02  0.32845108812E+02  0.00000000000E+00 0. -1.
         13    1    1    2    0    0  0.26712206917E+02  0.60405692047E+01 -0.16230078183E+02  0.31834840609E+02  0.10566000000E+00 0. -1.
        996    1    1    2    0    0 -0.26712206917E+02 -0.60405692047E+01  0.83384913555E+02  0.10101026821E+03  0.50000000000E+02 0.  0.
<mgrwt>
<rscale>  0 0.57009039E+02</rscale>
<asrwt>0</asrwt>
<pdfrwt beam="1">  1       13 0.10000000E+01 0.57009039E+02</pdfrwt>
<pdfrwt beam="2">  1       22 0.32845128E+00 0.57009039E+02</pdfrwt>
<totfact> 0.17661529E-01</totfact>
</mgrwt>
</event>
<event>
 4    1  0.2516086E+000  0.5366450E+02  0.7957747E-01  0.1426522E+00
         13   -1    0    0    0    0  0.00000000000E+00  0.00000000000E+00  0.99999944180E+02  0.10000000000E+03  0.10566000000E+00 0. -1.
         22   -1    0    0    0    0 -0.00000000000E+00 -0.00000000000E+00 -0.16647308299E+02  0.16647308299E+02  0.00000000000E+00 0. -1.
         13    1    1    2    0    0 -0.18823284913E+02 -0.50559102413E+01  0.25631721728E+01  0.19658568079E+02  0.10566000000E+00 0.  1.
        996    1    1    2    0    0  0.18823284913E+02  0.50559102413E+01  0.80789463708E+02  0.96988740220E+02  0.50000000000E+02 0.  0.
<mgrwt>
<rscale>  0 0.53664497E+02</rscale>
<asrwt>0</asrwt>
<pdfrwt beam="1">  1       13 0.10000000E+01 0.53664497E+02</pdfrwt>
<pdfrwt beam="2">  1       22 0.16647332E+00 0.53664497E+02</pdfrwt>
<totfact> 0.63265702E-01</totfact>
</mgrwt>
</event>
<event>
 4    1  0.2516086E+000  0.5713547E+02  0.7957747E-01  0.1410262E+00
         13   -1    0    0    0    0  0.00000000000E+00  0.00000000000E+00  0.99999944180E+02  0.10000000000E+03  0.10566000000E+00 0.  1.
         22   -1    0    0    0    0 -0.00000000000E+00 -0.00000000000E+00 -0.59821763530E+02  0.59821763530E+02  0.00000000000E+00 0. -1.
         13    1    1    2    0    0 -0.66767719294E+00 -0.27640841365E+02 -0.47622883956E+02  0.55067341905E+02  0.10566000000E+00 0. -1.
        996    1    1    2    0    0  0.66767719294E+00  0.27640841365E+02  0.87801064605E+02  0.10475442163E+03  0.50000000000E+02 0.  0.
<mgrwt>
<rscale>  0 0.57135470E+02</rscale>
<asrwt>0</asrwt>
<pdfrwt beam="1">  1       13 0.10000000E+01 0.57135470E+02</pdfrwt>
<pdfrwt beam="2">  1       22 0.59821775E+00 0.57135470E+02</pdfrwt>
<totfact> 0.62993426E-02</totfact>
</mgrwt>
</event>
<event>
 4    1  0.2516086E+000  0.5510592E+02  0.7957747E-01  0.1419599E+00
         13   -1    0    0    0    0  0.00000000000E+00  0.00000000000E+00  0.99999944174E+02  0.99999999994E+02  0.10566000000E+00 0.  1.
         22   -1    0    0    0    0 -0.00000000000E+00 -0.00000000000E+00 -0.48860540512E+02  0.48860540512E+02  0.00000000000E+00 0. -1.
         13    1    1    2    0    0 -0.25316035111E+01 -0.23027231968E+02 -0.37740724682E+02  0.44283584905E+02  0.10566000000E+00 0. -1.
        996    1    1    2    0    0  0.25316035111E+01  0.23027231968E+02  0.88880128344E+02  0.10457695560E+03  0.50000000000E+02 0.  0.
<mgrwt>
<rscale>  0 0.55105920E+02</rscale>
<asrwt>0</asrwt>
<pdfrwt beam="1">  1       13 0.10000000E+01 0.55105920E+02</pdfrwt>
<pdfrwt beam="2">  1       22 0.48860555E+00 0.55105920E+02</pdfrwt>
<totfact> 0.78539389E-02</totfact>
</mgrwt>
</event>
<event>
 4    1  0.2516086E+000  0.5415151E+02  0.7957747E-01  0.1424155E+00
         13   -1    0    0    0    0  0.00000000000E+00  0.00000000000E+00  0.99999944181E+02  0.10000000000E+03  0.10566000000E+00 0. -1.
         22   -1    0    0    0    0 -0.00000000000E+00 -0.00000000000E+00 -0.14077759960E+02  0.14077759960E+02  0.00000000000E+00 0. -1.
         13    1    1    2    0    0 -0.76194157900E+01 -0.19347632077E+02  0.21317101791E+02  0.29779461996E+02  0.10566000000E+00 0.  1.
        996    1    1    2    0    0  0.76194157900E+01  0.19347632077E+02  0.64605082431E+02  0.84298297965E+02  0.50000000000E+02 0.  0.
<mgrwt>
<rscale>  0 0.54151513E+02</rscale>
<asrwt>0</asrwt>
<pdfrwt beam="1">  1       13 0.10000000E+01 0.54151513E+02</pdfrwt>
<pdfrwt beam="2">  1       22 0.14077784E+00 0.54151513E+02</pdfrwt>
<totfact> 0.83942919E-01</totfact>
</mgrwt>
</event>
<event>
 4    1  0.2516086E+000  0.5195392E+02  0.7957747E-01  0.1435079E+00
         13   -1    0    0    0    0  0.00000000000E+00  0.00000000000E+00  0.99999944182E+02  0.10000000000E+03  0.10566000000E+00 0. -1.
         22   -1    0    0    0    0 -0.00000000000E+00 -0.00000000000E+00 -0.11415984330E+02  0.11415984330E+02  0.00000000000E+00 0. -1.
         13    1    1    2    0    0  0.13556820884E+02 -0.39271792512E+01  0.29735329215E+02  0.32915210723E+02  0.10566000000E+00 0.  1.
        996    1    1    2    0    0 -0.13556820884E+02  0.39271792512E+01  0.58848630637E+02  0.78500773609E+02  0.50000000000E+02 0.  0.
<mgrwt>
<rscale>  0 0.51953923E+02</rscale>
<asrwt>0</asrwt>
<pdfrwt beam="1">  1       13 0.10000000E+01 0.51953923E+02</pdfrwt>
<pdfrwt beam="2">  1       22 0.11416009E+00 0.51953923E+02</pdfrwt>
<totfact> 0.11593767E+00</totfact>
</mgrwt>
</event>
<event>
 4    1  0.2516086E+000  0.5266066E+02  0.7957747E-01  0.1431497E+00
         13   -1    0    0    0    0  0.00000000000E+00  0.00000000000E+00  0.99999944168E+02  0.99999999989E+02  0.10566000000E+00 0. -1.
         22   -1    0    0    0    0 -0.00000000000E+00 -0.00000000000E+00 -0.17022320006E+02  0.17022320006E+02  0.00000000000E+00 0. -1.
         13    1    1    2    0    0  0.59096162561E+01  0.15434434021E+02 -0.24096405463E+01  0.16702180979E+02  0.10566000000E+00 0.  1.
        996    1    1    2    0    0 -0.59096162561E+01 -0.15434434021E+02  0.85387264708E+02  0.10032013902E+03  0.50000000000E+02 0.  0.
<mgrwt>
<rscale>  0 0.52660662E+02</rscale>
<asrwt>0</asrwt>
<pdfrwt beam="1">  1       13 0.10000000E+01 0.52660662E+02</pdfrwt>
<pdfrwt beam="2">  1       22 0.17022343E+00 0.52660662E+02</pdfrwt>
<totfact> 0.60735956E-01</totfact>
</mgrwt>
</event>
<event>
 4    1  0.2516086E+000  0.5144213E+02  0.7957747E-01  0.1437715E+00
         13   -1    0    0    0    0  0.00000000000E+00  0.00000000000E+00  0.99999944169E+02  0.99999999989E+02  0.10566000000E+00 0.  1.
         22   -1    0    0    0    0 -0.00000000000E+00 -0.00000000000E+00 -0.59970610301E+02  0.59970610301E+02  0.00000000000E+00 0. -1.
         13    1    1    2    0    0  0.10303153532E+02 -0.63354480836E+01 -0.52623088664E+02  0.53995309979E+02  0.10566000000E+00 0. -1.
        996    1    1    2    0    0 -0.10303153532E+02  0.63354480836E+01  0.92652422532E+02  0.10597530031E+03  0.50000000000E+02 0.  0.
<mgrwt>
<rscale>  0 0.51442131E+02</rscale>
<asrwt>0</asrwt>
<pdfrwt beam="1">  1       13 0.10000000E+01 0.51442131E+02</pdfrwt>
<pdfrwt beam="2">  1       22 0.59970621E+00 0.51442131E+02</pdfrwt>
<totfact> 0.63462692E-02</totfact>
</mgrwt>
</event>
<event>
 4    1  0.2516086E+000  0.5312562E+02  0.7957747E-01  0.1429177E+00
         13   -1    0    0    0    0  0.00000000000E+00  0.00000000000E+00  0.99999944177E+02  0.99999999997E+02  0.10566000000E+00 0. -1.
         22   -1    0    0    0    0 -0.00000000000E+00 -0.00000000000E+00 -0.22766545175E+02  0.22766545175E+02  0.00000000000E+00 0.  1.
         13    1    1    2    0    0  0.17831336521E+02 -0.20915444359E+01 -0.10058449044E+02  0.20579472332E+02  0.10566000000E+00 0.  1.
        996    1    1    2    0    0 -0.17831336521E+02  0.20915444359E+01  0.87291848046E+02  0.10218707284E+03  0.50000000000E+02 0.  0.
<mgrwt>
<rscale>  0 0.53125616E+02</rscale>
<asrwt>0</asrwt>
<pdfrwt beam="1">  1       13 0.10000000E+01 0.53125616E+02</pdfrwt>
<pdfrwt beam="2">  1       22 0.22766567E+00 0.53125616E+02</pdfrwt>
<totfact> 0.35466381E-01</totfact>
</mgrwt>
</event>
<event>
 4    1  0.2516086E+000  0.5660830E+02  0.7957747E-01  0.1412643E+00
         13   -1    0    0    0    0  0.00000000000E+00  0.00000000000E+00  0.99999944190E+02  0.10000000001E+03  0.10566000000E+00 0. -1.
         22   -1    0    0    0    0 -0.00000000000E+00 -0.00000000000E+00 -0.17594019033E+02  0.17594019033E+02  0.00000000000E+00 0.  1.
         13    1    1    2    0    0 -0.26528367230E+02 -0.86365592539E+00  0.33838960997E+02  0.43006820562E+02  0.10566000000E+00 0.  1.
        996    1    1    2    0    0  0.26528367230E+02  0.86365592539E+00  0.48566964160E+02  0.74587198481E+02  0.50000000000E+02 0.  0.
<mgrwt>
<rscale>  0 0.56608305E+02</rscale>
<asrwt>0</asrwt>
<pdfrwt beam="1">  1       13 0.10000000E+01 0.56608305E+02</pdfrwt>
<pdfrwt beam="2">  1       22 0.17594042E+00 0.56608305E+02</pdfrwt>
<totfact> 0.57705865E-01</totfact>
</mgrwt>
</event>
<event>
 4    1  0.2516086E+000  0.5503578E+02  0.7957747E-01  0.1419930E+00
         13   -1    0    0    0    0  0.00000000000E+00  0.00000000000E+00  0.99999944179E+02  0.10000000000E+03  0.10566000000E+00 0. -1.
         22   -1    0    0    0    0 -0.00000000000E+00 -0.00000000000E+00 -0.25658772655E+02  0.25658772655E+02  0.00000000000E+00 0.  1.
         13    1    1    2    0    0 -0.16765174746E+02  0.15743770775E+02 -0.98951535883E+01  0.25037224907E+02  0.10566000000E+00 0.  1.
        996    1    1    2    0    0  0.16765174746E+02 -0.15743770775E+02  0.84236325113E+02  0.10062154775E+03  0.50000000000E+02 0.  0.
<mgrwt>
<rscale>  0 0.55035783E+02</rscale>
<asrwt>0</asrwt>
<pdfrwt beam="1">  1       13 0.10000000E+01 0.55035783E+02</pdfrwt>
<pdfrwt beam="2">  1       22 0.25658793E+00 0.55035783E+02</pdfrwt>
<totfact> 0.28135683E-01</totfact>
</mgrwt>
</event>
<event>
 4    1  0.2516086E+000  0.5129116E+02  0.7957747E-01  0.1438499E+00
         13   -1    0    0    0    0  0.00000000000E+00  0.00000000000E+00  0.99999944184E+02  0.10000000000E+03  0.10566000000E+00 0. -1.
         22   -1    0    0    0    0 -0.00000000000E+00 -0.00000000000E+00 -0.10883075833E+02  0.10883075833E+02  0.00000000000E+00 0. -1.
         13    1    1    2    0    0 -0.10577929310E+02 -0.43462707065E+01  0.52701036837E+01  0.12592371278E+02  0.10566000000E+00 0.  1.
        996    1    1    2    0    0  0.10577929310E+02  0.43462707065E+01  0.83846764667E+02  0.98290704559E+02  0.50000000000E+02 0.  0.
<mgrwt>
<rscale>  0 0.51291156E+02</rscale>
<asrwt>0</asrwt>
<pdfrwt beam="1">  1       13 0.10000000E+01 0.51291156E+02</pdfrwt>
<pdfrwt beam="2">  1       22 0.10883101E+00 0.51291156E+02</pdfrwt>
<totfact> 0.12432781E+00</totfact>
</mgrwt>
</event>
<event>
 4    1  0.2516086E+000  0.5100697E+02  0.7957747E-01  0.1439985E+00
         13   -1    0    0    0    0  0.00000000000E+00  0.00000000000E+00  0.99999944176E+02  0.99999999996E+02  0.10566000000E+00 0. -1.
         22   -1    0    0    0    0 -0.00000000000E+00 -0.00000000000E+00 -0.16766966875E+02  0.16766966875E+02  0.00000000000E+00 0.  1.
         13    1    1    2    0    0 -0.55238737923E+01 -0.84379032709E+01 -0.75753958250E+01  0.12613848708E+02  0.10566000000E+00 0.  1.
        996    1    1    2    0    0  0.55238737923E+01  0.84379032709E+01  0.90808373126E+02  0.10415311816E+03  0.50000000000E+02 0.  0.
<mgrwt>
<rscale>  0 0.51006974E+02</rscale>
<asrwt>0</asrwt>
<pdfrwt beam="1">  1       13 0.10000000E+01 0.51006974E+02</pdfrwt>
<pdfrwt beam="2">  1       22 0.16766990E+00 0.51006974E+02</pdfrwt>
<totfact> 0.62160934E-01</totfact>
</mgrwt>
</event>
<event>
 4    1  0.2516086E+000  0.5497750E+02  0.7957747E-01  0.1420205E+00
         13   -1    0    0    0    0  0.00000000000E+00  0.00000000000E+00  0.99999944177E+02  0.99999999997E+02  0.10566000000E+00 0. -1.
         22   -1    0    0    0    0 -0.00000000000E+00 -0.00000000000E+00 -0.15571273778E+02  0.15571273778E+02  0.00000000000E+00 0.  1.
         13    1    1    2    0    0  0.12805026255E+02  0.18935595336E+02  0.16550398397E+02  0.28221486837E+02  0.10566000000E+00 0.  1.
        996    1    1    2    0    0 -0.12805026255E+02 -0.18935595336E+02  0.67878272002E+02  0.87349786938E+02  0.50000000000E+02 0.  0.
<mgrwt>
<rscale>  0 0.54977500E+02</rscale>
<asrwt>0</asrwt>
<pdfrwt beam="1">  1       13 0.10000000E+01 0.54977500E+02</pdfrwt>
<pdfrwt beam="2">  1       22 0.15571297E+00 0.54977500E+02</pdfrwt>
<totfact> 0.71128198E-01</totfact>
</mgrwt>
</event>
<event>
 4    1  0.2516086E+000  0.5113997E+02  0.7957747E-01  0.1439288E+00
         13   -1    0    0    0    0  0.00000000000E+00  0.00000000000E+00  0.99999944182E+02  0.10000000000E+03  0.10566000000E+00 0.  1.
         22   -1    0    0    0    0 -0.00000000000E+00 -0.00000000000E+00 -0.95864595111E+01  0.95864595111E+01  0.00000000000E+00 0.  1.
         13    1    1    2    0    0  0.10352747545E+02 -0.28491503262E+01  0.14134403279E+02  0.17750762220E+02  0.10566000000E+00 0. -1.
        996    1    1    2    0    0 -0.10352747545E+02  0.28491503262E+01  0.76279081392E+02  0.91835697293E+02  0.50000000000E+02 0.  0.
<mgrwt>
<rscale>  0 0.51139975E+02</rscale>
<asrwt>0</asrwt>
<pdfrwt beam="1">  1       13 0.10000000E+01 0.51139975E+02</pdfrwt>
<pdfrwt beam="2">  1       22 0.95864848E-01 0.51139975E+02</pdfrwt>
<totfact> 0.14950676E+00</totfact>
</mgrwt>
</event>
<event>
 4    1  0.2516086E+000  0.5272580E+02  0.7957747E-01  0.1431170E+00
         13   -1    0    0    0    0  0.00000000000E+00  0.00000000000E+00  0.99999944186E+02  0.10000000001E+03  0.10566000000E+00 0.  1.
         22   -1    0    0    0    0 -0.00000000000E+00 -0.00000000000E+00 -0.36225127307E+02  0.36225127307E+02  0.00000000000E+00 0. -1.
         13    1    1    2    0    0  0.11830201867E+02  0.11834531407E+02 -0.26698473762E+02  0.31509196675E+02  0.10566000000E+00 0. -1.
        996    1    1    2    0    0 -0.11830201867E+02 -0.11834531407E+02  0.90473290641E+02  0.10471593064E+03  0.50000000000E+02 0.  0.
<mgrwt>
<rscale>  0 0.52725798E+02</rscale>
<asrwt>0</asrwt>
<pdfrwt beam="1">  1       13 0.10000000E+01 0.52725798E+02</pdfrwt>
<pdfrwt beam="2">  1       22 0.36225145E+00 0.52725798E+02</pdfrwt>
<totfact> 0.14808216E-01</totfact>
</mgrwt>
</event>
<event>
 4    1  0.2516086E+000  0.6808784E+02  0.7957747E-01  0.1366719E+00
         13   -1    0    0    0    0  0.00000000000E+00  0.00000000000E+00  0.99999944176E+02  0.99999999996E+02  0.10566000000E+00 0.  1.
         22   -1    0    0    0    0 -0.00000000000E+00 -0.00000000000E+00 -0.74713134879E+02  0.74713134879E+02  0.00000000000E+00 0. -1.
         13    1    1    2    0    0 -0.25463082646E+02  0.38569223646E+02 -0.53423225076E+02  0.70639972622E+02  0.10566000000E+00 0. -1.
        996    1    1    2    0    0  0.25463082646E+02 -0.38569223646E+02  0.78710034373E+02  0.10407316225E+03  0.50000000000E+02 0.  0.
<mgrwt>
<rscale>  0 0.68087837E+02</rscale>
<asrwt>0</asrwt>
<pdfrwt beam="1">  1       13 0.10000000E+01 0.68087837E+02</pdfrwt>
<pdfrwt beam="2">  1       22 0.74713142E+00 0.68087837E+02</pdfrwt>
<totfact> 0.50320626E-02</totfact>
</mgrwt>
</event>
<event>
 4    1  0.2516086E+000  0.5991992E+02  0.7957747E-01  0.1398168E+00
         13   -1    0    0    0    0  0.00000000000E+00  0.00000000000E+00  0.99999944167E+02  0.99999999987E+02  0.10566000000E+00 0. -1.
         22   -1    0    0    0    0 -0.00000000000E+00 -0.00000000000E+00 -0.21601440014E+02  0.21601440014E+02  0.00000000000E+00 0. -1.
         13    1    1    2    0    0 -0.15392094281E+02 -0.29214391762E+02  0.28849159507E+02  0.43848402715E+02  0.10566000000E+00 0.  1.
        996    1    1    2    0    0  0.15392094281E+02  0.29214391762E+02  0.49549344645E+02  0.77753037286E+02  0.50000000000E+02 0.  0.
<mgrwt>
<rscale>  0 0.59919924E+02</rscale>
<asrwt>0</asrwt>
<pdfrwt beam="1">  1       13 0.10000000E+01 0.59919924E+02</pdfrwt>
<pdfrwt beam="2">  1       22 0.21601462E+00 0.59919924E+02</pdfrwt>
<totfact> 0.39668511E-01</totfact>
</mgrwt>
</event>
<event>
 4    1  0.2516086E+000  0.5420410E+02  0.7957747E-01  0.1423901E+00
         13   -1    0    0    0    0  0.00000000000E+00  0.00000000000E+00  0.99999944182E+02  0.10000000000E+03  0.10566000000E+00 0. -1.
         22   -1    0    0    0    0 -0.00000000000E+00 -0.00000000000E+00 -0.50738818813E+02  0.50738818813E+02  0.00000000000E+00 0.  1.
         13    1    1    2    0    0 -0.17490573844E+02 -0.11496281881E+02 -0.40667453634E+02  0.45737704573E+02  0.10566000000E+00 0.  1.
        996    1    1    2    0    0  0.17490573844E+02  0.11496281881E+02  0.89928579004E+02  0.10500111424E+03  0.50000000000E+02 0.  0.
<mgrwt>
<rscale>  0 0.54204102E+02</rscale>
<asrwt>0</asrwt>
<pdfrwt beam="1">  1       13 0.10000000E+01 0.54204102E+02</pdfrwt>
<pdfrwt beam="2">  1       22 0.50738833E+00 0.54204102E+02</pdfrwt>
<totfact> 0.70791518E-02</totfact>
</mgrwt>
</event>
<event>
 4    1  0.2516086E+000  0.5210816E+02  0.7957747E-01  0.1434291E+00
         13   -1    0    0    0    0  0.00000000000E+00  0.00000000000E+00  0.99999944181E+02  0.10000000000E+03  0.10566000000E+00 0.  1.
         22   -1    0    0    0    0 -0.00000000000E+00 -0.00000000000E+00 -0.62003853289E+02  0.62003853289E+02  0.00000000000E+00 0. -1.
         13    1    1    2    0    0 -0.13851262443E+02 -0.48376953571E+01 -0.54172963061E+02  0.56124699184E+02  0.10566000000E+00 0. -1.
        996    1    1    2    0    0  0.13851262443E+02  0.48376953571E+01  0.92169053954E+02  0.10587915411E+03  0.50000000000E+02 0.  0.
<mgrwt>
<rscale>  0 0.52108164E+02</rscale>
<asrwt>0</asrwt>
<pdfrwt beam="1">  1       13 0.10000000E+01 0.52108164E+02</pdfrwt>
<pdfrwt beam="2">  1       22 0.62003864E+00 0.52108164E+02</pdfrwt>
<totfact> 0.72934371E-02</totfact>
</mgrwt>
</event>
<event>
 4    1  0.2516086E+000  0.5107440E+02  0.7957747E-01  0.1439631E+00
         13   -1    0    0    0    0  0.00000000000E+00  0.00000000000E+00  0.99999944180E+02  0.10000000000E+03  0.10566000000E+00 0.  1.
         22   -1    0    0    0    0 -0.00000000000E+00 -0.00000000000E+00 -0.11165573113E+02  0.11165573113E+02  0.00000000000E+00 0. -1.
         13    1    1    2    0    0  0.10252652765E+02 -0.18648148165E+01  0.22836144883E+01  0.10668668248E+02  0.10566000000E+00 0. -1.
        996    1    1    2    0    0 -0.10252652765E+02  0.18648148165E+01  0.86550756579E+02  0.10049690486E+03  0.50000000000E+02 0.  0.
<mgrwt>
<rscale>  0 0.51074401E+02</rscale>
<asrwt>0</asrwt>
<pdfrwt beam="1">  1       13 0.10000000E+01 0.51074401E+02</pdfrwt>
<pdfrwt beam="2">  1       22 0.11165598E+00 0.51074401E+02</pdfrwt>
<totfact> 0.11961465E+00</totfact>
</mgrwt>
</event>
<event>
 4    1  0.2516086E+000  0.5615710E+02  0.7957747E-01  0.1414705E+00
         13   -1    0    0    0    0  0.00000000000E+00  0.00000000000E+00  0.99999944180E+02  0.10000000000E+03  0.10566000000E+00 0.  1.
         22   -1    0    0    0    0 -0.00000000000E+00 -0.00000000000E+00 -0.16704047688E+02  0.16704047688E+02  0.00000000000E+00 0.  1.
         13    1    1    2    0    0  0.10014045387E+02 -0.23523144868E+02  0.24931649052E+02  0.35710190955E+02  0.10566000000E+00 0. -1.
        996    1    1    2    0    0 -0.10014045387E+02  0.23523144868E+02  0.58364247440E+02  0.80993856734E+02  0.50000000000E+02 0.  0.
<mgrwt>
<rscale>  0 0.56157096E+02</rscale>
<asrwt>0</asrwt>
<pdfrwt beam="1">  1       13 0.10000000E+01 0.56157096E+02</pdfrwt>
<pdfrwt beam="2">  1       22 0.16704071E+00 0.56157096E+02</pdfrwt>
<totfact> 0.63181383E-01</totfact>
</mgrwt>
</event>
<event>
 4    1  0.2516086E+000  0.5154725E+02  0.7957747E-01  0.1437170E+00
         13   -1    0    0    0    0  0.00000000000E+00  0.00000000000E+00  0.99999944182E+02  0.10000000000E+03  0.10566000000E+00 0. -1.
         22   -1    0    0    0    0 -0.00000000000E+00 -0.00000000000E+00 -0.60142999716E+02  0.60142999716E+02  0.00000000000E+00 0.  1.
         13    1    1    2    0    0 -0.12495012637E+02 -0.99657607327E+00 -0.52716125360E+02  0.54185971816E+02  0.10566000000E+00 0.  1.
        996    1    1    2    0    0  0.12495012637E+02  0.99657607327E+00  0.92573069827E+02  0.10595702790E+03  0.50000000000E+02 0.  0.
<mgrwt>
<rscale>  0 0.51547245E+02</rscale>
<asrwt>0</asrwt>
<pdfrwt beam="1">  1       13 0.10000000E+01 0.51547245E+02</pdfrwt>
<pdfrwt beam="2">  1       22 0.60143011E+00 0.51547245E+02</pdfrwt>
<totfact> 0.64087399E-02</totfact>
</mgrwt>
</event>
<event>
 4    1  0.2516086E+000  0.5208375E+02  0.7957747E-01  0.1434416E+00
         13   -1    0    0    0    0  0.00000000000E+00  0.00000000000E+00  0.99999944181E+02  0.10000000000E+03  0.10566000000E+00 0. -1.
         22   -1    0    0    0    0 -0.00000000000E+00 -0.00000000000E+00 -0.25209156810E+02  0.25209156810E+02  0.00000000000E+00 0.  1.
         13    1    1    2    0    0 -0.36432045706E+01 -0.14122465227E+02 -0.15305209472E+02  0.21141843927E+02  0.10566000000E+00 0.  1.
        996    1    1    2    0    0  0.36432045706E+01  0.14122465227E+02  0.90095996843E+02  0.10406731288E+03  0.50000000000E+02 0.  0.
<mgrwt>
<rscale>  0 0.52083750E+02</rscale>
<asrwt>0</asrwt>
<pdfrwt beam="1">  1       13 0.10000000E+01 0.52083750E+02</pdfrwt>
<pdfrwt beam="2">  1       22 0.25209178E+00 0.52083750E+02</pdfrwt>
<totfact> 0.29003798E-01</totfact>
</mgrwt>
</event>
<event>
 4    1  0.2516086E+000  0.5149981E+02  0.7957747E-01  0.1437416E+00
         13   -1    0    0    0    0  0.00000000000E+00  0.00000000000E+00  0.99999944180E+02  0.10000000000E+03  0.10566000000E+00 0. -1.
         22   -1    0    0    0    0 -0.00000000000E+00 -0.00000000000E+00 -0.33643792837E+02  0.33643792837E+02  0.00000000000E+00 0.  1.
         13    1    1    2    0    0 -0.86532900837E+01  0.87949364765E+01 -0.25504216702E+02  0.28332076707E+02  0.10566000000E+00 0.  1.
        996    1    1    2    0    0  0.86532900837E+01 -0.87949364765E+01  0.91860368046E+02  0.10531171613E+03  0.50000000000E+02 0.  0.
<mgrwt>
<rscale>  0 0.51499809E+02</rscale>
<asrwt>0</asrwt>
<pdfrwt beam="1">  1       13 0.10000000E+01 0.51499809E+02</pdfrwt>
<pdfrwt beam="2">  1       22 0.33643811E+00 0.51499809E+02</pdfrwt>
<totfact> 0.16827707E-01</totfact>
</mgrwt>
</event>
<event>
 4    1  0.2516086E+000  0.5288071E+02  0.7957747E-01  0.1430395E+00
         13   -1    0    0    0    0  0.00000000000E+00  0.00000000000E+00  0.99999944173E+02  0.99999999994E+02  0.10566000000E+00 0.  1.
         22   -1    0    0    0    0 -0.00000000000E+00 -0.00000000000E+00 -0.20652019560E+02  0.20652019560E+02  0.00000000000E+00 0. -1.
         13    1    1    2    0    0 -0.87609407038E+01 -0.14819414862E+02 -0.76535472396E+01  0.18840304887E+02  0.10566000000E+00 0. -1.
        996    1    1    2    0    0  0.87609407038E+01  0.14819414862E+02  0.87001471853E+02  0.10181171467E+03  0.50000000000E+02 0.  0.
<mgrwt>
<rscale>  0 0.52880707E+02</rscale>
<asrwt>0</asrwt>
<pdfrwt beam="1">  1       13 0.10000000E+01 0.52880707E+02</pdfrwt>
<pdfrwt beam="2">  1       22 0.20652042E+00 0.52880707E+02</pdfrwt>
<totfact> 0.42727622E-01</totfact>
</mgrwt>
</event>
<event>
 4    1  0.2516086E+000  0.5693080E+02  0.7957747E-01  0.1411183E+00
         13   -1    0    0    0    0  0.00000000000E+00  0.00000000000E+00  0.99999944175E+02  0.99999999995E+02  0.10566000000E+00 0. -1.
         22   -1    0    0    0    0 -0.00000000000E+00 -0.00000000000E+00 -0.38621818462E+02  0.38621818462E+02  0.00000000000E+00 0.  1.
         13    1    1    2    0    0 -0.21558347868E+02  0.16623874126E+02 -0.23806341596E+02  0.36164466234E+02  0.10566000000E+00 0.  1.
        996    1    1    2    0    0  0.21558347868E+02 -0.16623874126E+02  0.85184467309E+02  0.10245735222E+03  0.50000000000E+02 0.  0.
<mgrwt>
<rscale>  0 0.56930796E+02</rscale>
<asrwt>0</asrwt>
<pdfrwt beam="1">  1       13 0.10000000E+01 0.56930796E+02</pdfrwt>
<pdfrwt beam="2">  1       22 0.38621836E+00 0.56930796E+02</pdfrwt>
<totfact> 0.13253592E-01</totfact>
</mgrwt>
</event>
<event>
 4    1  0.2516086E+000  0.5152874E+02  0.7957747E-01  0.1437266E+00
         13   -1    0    0    0    0  0.00000000000E+00  0.00000000000E+00  0.99999944177E+02  0.99999999997E+02  0.10566000000E+00 0. -1.
         22   -1    0    0    0    0 -0.00000000000E+00 -0.00000000000E+00 -0.10777722964E+02  0.10777722964E+02  0.00000000000E+00 0.  1.
         13    1    1    2    0    0 -0.51842452873E+01  0.11328466823E+02  0.87610300505E+01  0.15230803371E+02  0.10566000000E+00 0.  1.
        996    1    1    2    0    0  0.51842452873E+01 -0.11328466823E+02  0.80461191163E+02  0.95546919590E+02  0.50000000000E+02 0.  0.
<mgrwt>
<rscale>  0 0.51528735E+02</rscale>
<asrwt>0</asrwt>
<pdfrwt beam="1">  1       13 0.10000000E+01 0.51528735E+02</pdfrwt>
<pdfrwt beam="2">  1       22 0.10777748E+00 0.51528735E+02</pdfrwt>
<totfact> 0.12620199E+00</totfact>
</mgrwt>
</event>
<event>
 4    1  0.2516086E+000  0.5266001E+02  0.7957747E-01  0.1431500E+00
         13   -1    0    0    0    0  0.00000000000E+00  0.00000000000E+00  0.99999944175E+02  0.99999999995E+02  0.10566000000E+00 0.  1.
         22   -1    0    0    0    0 -0.00000000000E+00 -0.00000000000E+00 -0.28185528494E+02  0.28185528494E+02  0.00000000000E+00 0. -1.
         13    1    1    2    0    0 -0.16210420609E+02  0.32092613922E+01 -0.17772196429E+02  0.24268070070E+02  0.10566000000E+00 0. -1.
        996    1    1    2    0    0  0.16210420609E+02 -0.32092613922E+01  0.89586612110E+02  0.10391745842E+03  0.50000000000E+02 0.  0.
<mgrwt>
<rscale>  0 0.52660014E+02</rscale>
<asrwt>0</asrwt>
<pdfrwt beam="1">  1       13 0.10000000E+01 0.52660014E+02</pdfrwt>
<pdfrwt beam="2">  1       22 0.28185549E+00 0.52660014E+02</pdfrwt>
<totfact> 0.23332919E-01</totfact>
</mgrwt>
</event>
<event>
 4    1  0.2516086E+000  0.5131548E+02  0.7957747E-01  0.1438373E+00
         13   -1    0    0    0    0  0.00000000000E+00  0.00000000000E+00  0.99999944178E+02  0.99999999998E+02  0.10566000000E+00 0.  1.
         22   -1    0    0    0    0 -0.00000000000E+00 -0.00000000000E+00 -0.10182870303E+02  0.10182870303E+02  0.00000000000E+00 0.  1.
         13    1    1    2    0    0  0.55605035003E+01  0.10117290466E+02  0.24792789251E+02  0.27349082772E+02  0.10566000000E+00 0. -1.
        996    1    1    2    0    0 -0.55605035003E+01 -0.10117290466E+02  0.65024284624E+02  0.82833787529E+02  0.50000000000E+02 0.  0.
<mgrwt>
<rscale>  0 0.51315483E+02</rscale>
<asrwt>0</asrwt>
<pdfrwt beam="1">  1       13 0.10000000E+01 0.51315483E+02</pdfrwt>
<pdfrwt beam="2">  1       22 0.10182895E+00 0.51315483E+02</pdfrwt>
<totfact> 0.13709150E+00</totfact>
</mgrwt>
</event>
<event>
 4    1  0.2516086E+000  0.5160504E+02  0.7957747E-01  0.1436872E+00
         13   -1    0    0    0    0  0.00000000000E+00  0.00000000000E+00  0.99999944181E+02  0.10000000000E+03  0.10566000000E+00 0. -1.
         22   -1    0    0    0    0 -0.00000000000E+00 -0.00000000000E+00 -0.11658096926E+02  0.11658096926E+02  0.00000000000E+00 0. -1.
         13    1    1    2    0    0  0.11247568272E+02 -0.60475259699E+01  0.51703425916E+01  0.13777661955E+02  0.10566000000E+00 0.  1.
        996    1    1    2    0    0 -0.11247568272E+02  0.60475259699E+01  0.83171504663E+02  0.97880434972E+02  0.50000000000E+02 0.  0.
<mgrwt>
<rscale>  0 0.51605042E+02</rscale>
<asrwt>0</asrwt>
<pdfrwt beam="1">  1       13 0.10000000E+01 0.51605042E+02</pdfrwt>
<pdfrwt beam="2">  1       22 0.11658122E+00 0.51605042E+02</pdfrwt>
<totfact> 0.11223241E+00</totfact>
</mgrwt>
</event>
<event>
 4    1  0.2516086E+000  0.5144043E+02  0.7957747E-01  0.1437724E+00
         13   -1    0    0    0    0  0.00000000000E+00  0.00000000000E+00  0.99999944187E+02  0.10000000001E+03  0.10566000000E+00 0.  1.
         22   -1    0    0    0    0 -0.00000000000E+00 -0.00000000000E+00 -0.12223682681E+02  0.12223682681E+02  0.00000000000E+00 0. -1.
         13    1    1    2    0    0  0.13764798702E+00 -0.12087156546E+02  0.20686494255E+01  0.12264125522E+02  0.10566000000E+00 0. -1.
        996    1    1    2    0    0 -0.13764798702E+00  0.12087156546E+02  0.85707612080E+02  0.99959557166E+02  0.50000000000E+02 0.  0.
<mgrwt>
<rscale>  0 0.51440434E+02</rscale>
<asrwt>0</asrwt>
<pdfrwt beam="1">  1       13 0.10000000E+01 0.51440434E+02</pdfrwt>
<pdfrwt beam="2">  1       22 0.12223707E+00 0.51440434E+02</pdfrwt>
<totfact> 0.10435575E+00</totfact>
</mgrwt>
</event>
<event>
 4    1  0.2516086E+000  0.5121010E+02  0.7957747E-01  0.1438922E+00
         13   -1    0    0    0    0  0.00000000000E+00  0.00000000000E+00  0.99999944180E+02  0.10000000000E+03  0.10566000000E+00 0. -1.
         22   -1    0    0    0    0 -0.00000000000E+00 -0.00000000000E+00 -0.99931070728E+01  0.99931070728E+01  0.00000000000E+00 0. -1.
         13    1    1    2    0    0 -0.99994955813E+01 -0.47417697904E+01  0.24181224925E+02  0.26593553646E+02  0.10566000000E+00 0.  1.
        996    1    1    2    0    0  0.99994955813E+01  0.47417697904E+01  0.65825612182E+02  0.83399553427E+02  0.50000000000E+02 0.  0.
<mgrwt>
<rscale>  0 0.51210100E+02</rscale>
<asrwt>0</asrwt>
<pdfrwt beam="1">  1       13 0.10000000E+01 0.51210100E+02</pdfrwt>
<pdfrwt beam="2">  1       22 0.99931322E-01 0.51210100E+02</pdfrwt>
<totfact> 0.14085008E+00</totfact>
</mgrwt>
</event>
<event>
 4    1  0.2516086E+000  0.5642589E+02  0.7957747E-01  0.1413474E+00
         13   -1    0    0    0    0  0.00000000000E+00  0.00000000000E+00  0.99999944176E+02  0.99999999996E+02  0.10566000000E+00 0.  1.
         22   -1    0    0    0    0 -0.00000000000E+00 -0.00000000000E+00 -0.20567757890E+02  0.20567757890E+02  0.00000000000E+00 0. -1.
         13    1    1    2    0    0 -0.44685684659E+01 -0.25766499531E+02  0.41377108212E+01  0.26476639082E+02  0.10566000000E+00 0. -1.
        996    1    1    2    0    0  0.44685684659E+01  0.25766499531E+02  0.75294475465E+02  0.94091118804E+02  0.50000000000E+02 0.  0.
<mgrwt>
<rscale>  0 0.56425886E+02</rscale>
<asrwt>0</asrwt>
<pdfrwt beam="1">  1       13 0.10000000E+01 0.56425886E+02</pdfrwt>
<pdfrwt beam="2">  1       22 0.20567780E+00 0.56425886E+02</pdfrwt>
<totfact> 0.43315177E-01</totfact>
</mgrwt>
</event>
<event>
 4    1  0.2516086E+000  0.5513812E+02  0.7957747E-01  0.1419447E+00
         13   -1    0    0    0    0  0.00000000000E+00  0.00000000000E+00  0.99999944178E+02  0.99999999998E+02  0.10566000000E+00 0.  1.
         22   -1    0    0    0    0 -0.00000000000E+00 -0.00000000000E+00 -0.18659525212E+02  0.18659525212E+02  0.00000000000E+00 0. -1.
         13    1    1    2    0    0  0.19173162692E+02 -0.13137812166E+02  0.38576372562E+01  0.23560662244E+02  0.10566000000E+00 0. -1.
        996    1    1    2    0    0 -0.19173162692E+02  0.13137812166E+02  0.77482781709E+02  0.95098862967E+02  0.50000000000E+02 0.  0.
<mgrwt>
<rscale>  0 0.55138120E+02</rscale>
<asrwt>0</asrwt>
<pdfrwt beam="1">  1       13 0.10000000E+01 0.55138120E+02</pdfrwt>
<pdfrwt beam="2">  1       22 0.18659548E+00 0.55138120E+02</pdfrwt>
<totfact> 0.51775713E-01</totfact>
</mgrwt>
</event>
<event>
 4    1  0.2516086E+000  0.5294483E+02  0.7957747E-01  0.1430076E+00
         13   -1    0    0    0    0  0.00000000000E+00  0.00000000000E+00  0.99999944182E+02  0.10000000000E+03  0.10566000000E+00 0. -1.
         22   -1    0    0    0    0 -0.00000000000E+00 -0.00000000000E+00 -0.24640982532E+02  0.24640982532E+02  0.00000000000E+00 0.  1.
         13    1    1    2    0    0  0.16817711322E+02 -0.45077270147E+01 -0.12934367872E+02  0.21690183338E+02  0.10566000000E+00 0.  1.
        996    1    1    2    0    0 -0.16817711322E+02  0.45077270147E+01  0.88293329522E+02  0.10295079920E+03  0.50000000000E+02 0.  0.
<mgrwt>
<rscale>  0 0.52944830E+02</rscale>
<asrwt>0</asrwt>
<pdfrwt beam="1">  1       13 0.10000000E+01 0.52944830E+02</pdfrwt>
<pdfrwt beam="2">  1       22 0.24641004E+00 0.52944830E+02</pdfrwt>
<totfact> 0.30374860E-01</totfact>
</mgrwt>
</event>
<event>
 4    1  0.2516086E+000  0.5486022E+02  0.7957747E-01  0.1420761E+00
         13   -1    0    0    0    0  0.00000000000E+00  0.00000000000E+00  0.99999944175E+02  0.99999999995E+02  0.10566000000E+00 0.  1.
         22   -1    0    0    0    0 -0.00000000000E+00 -0.00000000000E+00 -0.20935968331E+02  0.20935968331E+02  0.00000000000E+00 0. -1.
         13    1    1    2    0    0  0.28296820793E+01 -0.22397244928E+02 -0.24203596572E+01  0.22704911053E+02  0.10566000000E+00 0. -1.
        996    1    1    2    0    0 -0.28296820793E+01  0.22397244928E+02  0.81484335501E+02  0.98231057273E+02  0.50000000000E+02 0.  0.
<mgrwt>
<rscale>  0 0.54860219E+02</rscale>
<asrwt>0</asrwt>
<pdfrwt beam="1">  1       13 0.10000000E+01 0.54860219E+02</pdfrwt>
<pdfrwt beam="2">  1       22 0.20935990E+00 0.54860219E+02</pdfrwt>
<totfact> 0.41777764E-01</totfact>
</mgrwt>
</event>
<event>
 4    1  0.2516086E+000  0.5262988E+02  0.7957747E-01  0.1431652E+00
         13   -1    0    0    0    0  0.00000000000E+00  0.00000000000E+00  0.99999944170E+02  0.99999999990E+02  0.10566000000E+00 0. -1.
         22   -1    0    0    0    0 -0.00000000000E+00 -0.00000000000E+00 -0.32427349691E+02  0.32427349691E+02  0.00000000000E+00 0.  1.
         13    1    1    2    0    0 -0.10912534293E+02  0.12280904812E+02 -0.22647180283E+02  0.27978741332E+02  0.10566000000E+00 0.  1.
        996    1    1    2    0    0  0.10912534293E+02 -0.12280904812E+02  0.90219774762E+02  0.10444860835E+03  0.50000000000E+02 0.  0.
<mgrwt>
<rscale>  0 0.52629878E+02</rscale>
<asrwt>0</asrwt>
<pdfrwt beam="1">  1       13 0.10000000E+01 0.52629878E+02</pdfrwt>
<pdfrwt beam="2">  1       22 0.32427369E+00 0.52629878E+02</pdfrwt>
<totfact> 0.17980763E-01</totfact>
</mgrwt>
</event>
<event>
 4    1  0.2516086E+000  0.5384384E+02  0.7957747E-01  0.1425647E+00
         13   -1    0    0    0    0  0.00000000000E+00  0.00000000000E+00  0.99999944178E+02  0.99999999998E+02  0.10566000000E+00 0. -1.
         22   -1    0    0    0    0 -0.00000000000E+00 -0.00000000000E+00 -0.52213017232E+02  0.52213017232E+02  0.00000000000E+00 0.  1.
         13    1    1    2    0    0  0.57812506860E+01  0.19124238523E+02 -0.42572505379E+02  0.47027531690E+02  0.10566000000E+00 0.  1.
        996    1    1    2    0    0 -0.57812506860E+01 -0.19124238523E+02  0.90359432324E+02  0.10518548554E+03  0.50000000000E+02 0.  0.
<mgrwt>
<rscale>  0 0.53843842E+02</rscale>
<asrwt>0</asrwt>
<pdfrwt beam="1">  1       13 0.10000000E+01 0.53843842E+02</pdfrwt>
<pdfrwt beam="2">  1       22 0.52213031E+00 0.53843842E+02</pdfrwt>
<totfact> 0.65655759E-02</totfact>
</mgrwt>
</event>
<event>
 4    1  0.2516086E+000  0.5250501E+02  0.7957747E-01  0.1432280E+00
         13   -1    0    0    0    0  0.00000000000E+00  0.00000000000E+00  0.99999944180E+02  0.10000000000E+03  0.10566000000E+00 0.  1.
         22   -1    0    0    0    0 -0.00000000000E+00 -0.00000000000E+00 -0.15204896393E+02  0.15204896393E+02  0.00000000000E+00 0. -1.
         13    1    1    2    0    0 -0.22846202405E+01 -0.15860532080E+02  0.66900745971E+00  0.16038538042E+02  0.10566000000E+00 0. -1.
        996    1    1    2    0    0  0.22846202405E+01  0.15860532080E+02  0.84126040327E+02  0.99166358351E+02  0.50000000000E+02 0.  0.
<mgrwt>
<rscale>  0 0.52505009E+02</rscale>
<asrwt>0</asrwt>
<pdfrwt beam="1">  1       13 0.10000000E+01 0.52505009E+02</pdfrwt>
<pdfrwt beam="2">  1       22 0.15204920E+00 0.52505009E+02</pdfrwt>
<totfact> 0.73681304E-01</totfact>
</mgrwt>
</event>
<event>
 4    1  0.2516086E+000  0.5156675E+02  0.7957747E-01  0.1437070E+00
         13   -1    0    0    0    0  0.00000000000E+00  0.00000000000E+00  0.99999944173E+02  0.99999999993E+02  0.10566000000E+00 0. -1.
         22   -1    0    0    0    0 -0.00000000000E+00 -0.00000000000E+00 -0.12428464395E+02  0.12428464395E+02  0.00000000000E+00 0. -1.
         13    1    1    2    0    0 -0.57903134633E+01  0.11207239273E+02  0.23679437433E+01  0.12835430018E+02  0.10566000000E+00 0.  1.
        996    1    1    2    0    0  0.57903134633E+01 -0.11207239273E+02  0.85203536035E+02  0.99593034370E+02  0.50000000000E+02 0.  0.
<mgrwt>
<rscale>  0 0.51566752E+02</rscale>
<asrwt>0</asrwt>
<pdfrwt beam="1">  1       13 0.10000000E+01 0.51566752E+02</pdfrwt>
<pdfrwt beam="2">  1       22 0.12428489E+00 0.51566752E+02</pdfrwt>
<totfact> 0.10173890E+00</totfact>
</mgrwt>
</event>
<event>
 4    1  0.2516086E+000  0.5275749E+02  0.7957747E-01  0.1431012E+00
         13   -1    0    0    0    0  0.00000000000E+00  0.00000000000E+00  0.99999944181E+02  0.10000000000E+03  0.10566000000E+00 0.  1.
         22   -1    0    0    0    0 -0.00000000000E+00 -0.00000000000E+00 -0.12165080777E+02  0.12165080777E+02  0.00000000000E+00 0. -1.
         13    1    1    2    0    0  0.12029079274E+02 -0.11775124975E+02  0.24670184364E+02  0.29866058945E+02  0.10566000000E+00 0. -1.
        996    1    1    2    0    0 -0.12029079274E+02  0.11775124975E+02  0.63164679040E+02  0.82299021833E+02  0.50000000000E+02 0.  0.
<mgrwt>
<rscale>  0 0.52757486E+02</rscale>
<asrwt>0</asrwt>
<pdfrwt beam="1">  1       13 0.10000000E+01 0.52757486E+02</pdfrwt>
<pdfrwt beam="2">  1       22 0.12165105E+00 0.52757486E+02</pdfrwt>
<totfact> 0.10543845E+00</totfact>
</mgrwt>
</event>
<event>
 4    1  0.2516086E+000  0.5732043E+02  0.7957747E-01  0.1409434E+00
         13   -1    0    0    0    0  0.00000000000E+00  0.00000000000E+00  0.99999944179E+02  0.99999999999E+02  0.10566000000E+00 0.  1.
         22   -1    0    0    0    0 -0.00000000000E+00 -0.00000000000E+00 -0.57911994218E+02  0.57911994218E+02  0.00000000000E+00 0. -1.
         13    1    1    2    0    0  0.21919255228E+02 -0.17469350146E+02 -0.45378178700E+02  0.53336874772E+02  0.10566000000E+00 0. -1.
        996    1    1    2    0    0 -0.21919255228E+02  0.17469350146E+02  0.87466128660E+02  0.10457511945E+03  0.50000000000E+02 0.  0.
<mgrwt>
<rscale>  0 0.57320432E+02</rscale>
<asrwt>0</asrwt>
<pdfrwt beam="1">  1       13 0.10000000E+01 0.57320432E+02</pdfrwt>
<pdfrwt beam="2">  1       22 0.57912006E+00 0.57320432E+02</pdfrwt>
<totfact> 0.58237819E-02</totfact>
</mgrwt>
</event>
<event>
 4    1  0.2516086E+000  0.5101218E+02  0.7957747E-01  0.1439957E+00
         13   -1    0    0    0    0  0.00000000000E+00  0.00000000000E+00  0.99999944171E+02  0.99999999991E+02  0.10566000000E+00 0. -1.
         22   -1    0    0    0    0 -0.00000000000E+00 -0.00000000000E+00 -0.26168249618E+02  0.26168249618E+02  0.00000000000E+00 0.  1.
         13    1    1    2    0    0 -0.18276966923E+01 -0.99449713886E+01 -0.18270771873E+02  0.20882413654E+02  0.10566000000E+00 0.  1.
        996    1    1    2    0    0  0.18276966923E+01  0.99449713886E+01  0.92102466426E+02  0.10528583596E+03  0.50000000000E+02 0.  0.
<mgrwt>
<rscale>  0 0.51012184E+02</rscale>
<asrwt>0</asrwt>
<pdfrwt beam="1">  1       13 0.10000000E+01 0.51012184E+02</pdfrwt>
<pdfrwt beam="2">  1       22 0.26168270E+00 0.51012184E+02</pdfrwt>
<totfact> 0.26905302E-01</totfact>
</mgrwt>
</event>
<event>
 4    1  0.2516086E+000  0.5342025E+02  0.7957747E-01  0.1427721E+00
         13   -1    0    0    0    0  0.00000000000E+00  0.00000000000E+00  0.99999944180E+02  0.10000000000E+03  0.10566000000E+00 0.  1.
         22   -1    0    0    0    0 -0.00000000000E+00 -0.00000000000E+00 -0.17405863080E+02  0.17405863080E+02  0.00000000000E+00 0. -1.
         13    1    1    2    0    0 -0.14875105509E+02  0.11508901438E+02 -0.27598500074E+00  0.18809861987E+02  0.10566000000E+00 0. -1.
        996    1    1    2    0    0  0.14875105509E+02 -0.11508901438E+02  0.82870066100E+02  0.98596001093E+02  0.50000000000E+02 0.  0.
<mgrwt>
<rscale>  0 0.53420254E+02</rscale>
<asrwt>0</asrwt>
<pdfrwt beam="1">  1       13 0.10000000E+01 0.53420254E+02</pdfrwt>
<pdfrwt beam="2">  1       22 0.17405886E+00 0.53420254E+02</pdfrwt>
<totfact> 0.58481485E-01</totfact>
</mgrwt>
</event>
<event>
 4    1  0.2516086E+000  0.5252304E+02  0.7957747E-01  0.1432189E+00
         13   -1    0    0    0    0  0.00000000000E+00  0.00000000000E+00  0.99999944178E+02  0.99999999998E+02  0.10566000000E+00 0. -1.
         22   -1    0    0    0    0 -0.00000000000E+00 -0.00000000000E+00 -0.74085571681E+02  0.74085571681E+02  0.00000000000E+00 0.  1.
         13    1    1    2    0    0 -0.15028858138E+02 -0.57274064841E+01 -0.66158353619E+02  0.68085304432E+02  0.10566000000E+00 0.  1.
        996    1    1    2    0    0  0.15028858138E+02  0.57274064841E+01  0.92072726116E+02  0.10600026725E+03  0.50000000000E+02 0.  0.
<mgrwt>
<rscale>  0 0.52523040E+02</rscale>
<asrwt>0</asrwt>
<pdfrwt beam="1">  1       13 0.10000000E+01 0.52523040E+02</pdfrwt>
<pdfrwt beam="2">  1       22 0.74085579E+00 0.52523040E+02</pdfrwt>
<totfact> 0.53314090E-02</totfact>
</mgrwt>
</event>
<event>
 4    1  0.2516086E+000  0.6081597E+02  0.7957747E-01  0.1394439E+00
         13   -1    0    0    0    0  0.00000000000E+00  0.00000000000E+00  0.99999944190E+02  0.10000000001E+03  0.10566000000E+00 0.  1.
         22   -1    0    0    0    0 -0.00000000000E+00 -0.00000000000E+00 -0.67835867439E+02  0.67835867439E+02  0.00000000000E+00 0. -1.
         13    1    1    2    0    0 -0.88987625411E+01  0.33457343273E+02 -0.52927845056E+02  0.63245155861E+02  0.10566000000E+00 0. -1.
        996    1    1    2    0    0  0.88987625411E+01 -0.33457343273E+02  0.85091921807E+02  0.10459071159E+03  0.50000000000E+02 0.  0.
<mgrwt>
<rscale>  0 0.60815967E+02</rscale>
<asrwt>0</asrwt>
<pdfrwt beam="1">  1       13 0.10000000E+01 0.60815967E+02</pdfrwt>
<pdfrwt beam="2">  1       22 0.67835876E+00 0.60815967E+02</pdfrwt>
<totfact> 0.84024232E-02</totfact>
</mgrwt>
</event>
<event>
 4    1  0.2516086E+000  0.5513189E+02  0.7957747E-01  0.1419476E+00
         13   -1    0    0    0    0  0.00000000000E+00  0.00000000000E+00  0.99999944177E+02  0.99999999997E+02  0.10566000000E+00 0.  1.
         22   -1    0    0    0    0 -0.00000000000E+00 -0.00000000000E+00 -0.30339544493E+02  0.30339544493E+02  0.00000000000E+00 0. -1.
         13    1    1    2    0    0  0.92093019468E+01 -0.21324025379E+02 -0.16188278342E+02  0.28312485239E+02  0.10566000000E+00 0. -1.
        996    1    1    2    0    0 -0.92093019468E+01  0.21324025379E+02  0.85848678026E+02  0.10202705925E+03  0.50000000000E+02 0.  0.
<mgrwt>
<rscale>  0 0.55131890E+02</rscale>
<asrwt>0</asrwt>
<pdfrwt beam="1">  1       13 0.10000000E+01 0.55131890E+02</pdfrwt>
<pdfrwt beam="2">  1       22 0.30339564E+00 0.55131890E+02</pdfrwt>
<totfact> 0.20353959E-01</totfact>
</mgrwt>
</event>
<event>
 4    1  0.2516086E+000  0.5110489E+02  0.7957747E-01  0.1439472E+00
         13   -1    0    0    0    0  0.00000000000E+00  0.00000000000E+00  0.99999944181E+02  0.10000000000E+03  0.10566000000E+00 0.  1.
         22   -1    0    0    0    0 -0.00000000000E+00 -0.00000000000E+00 -0.13459900708E+02  0.13459900708E+02  0.00000000000E+00 0. -1.
         13    1    1    2    0    0 -0.98671601965E+01  0.37879750671E+01 -0.24403980361E+01  0.10847871315E+02  0.10566000000E+00 0. -1.
        996    1    1    2    0    0  0.98671601965E+01 -0.37879750671E+01  0.88980441509E+02  0.10261202940E+03  0.50000000000E+02 0.  0.
<mgrwt>
<rscale>  0 0.51104888E+02</rscale>
<asrwt>0</asrwt>
<pdfrwt beam="1">  1       13 0.10000000E+01 0.51104888E+02</pdfrwt>
<pdfrwt beam="2">  1       22 0.13459925E+00 0.51104888E+02</pdfrwt>
<totfact> 0.89662274E-01</totfact>
</mgrwt>
</event>
<event>
 4    1  0.2516086E+000  0.5240525E+02  0.7957747E-01  0.1432784E+00
         13   -1    0    0    0    0  0.00000000000E+00  0.00000000000E+00  0.99999944178E+02  0.99999999998E+02  0.10566000000E+00 0.  1.
         22   -1    0    0    0    0 -0.00000000000E+00 -0.00000000000E+00 -0.20619955828E+02  0.20619955828E+02  0.00000000000E+00 0.  1.
         13    1    1    2    0    0 -0.85328857255E+01 -0.13171934944E+02 -0.88368209701E+01  0.18011401330E+02  0.10566000000E+00 0. -1.
        996    1    1    2    0    0  0.85328857255E+01  0.13171934944E+02  0.88216809321E+02  0.10260855450E+03  0.50000000000E+02 0.  0.
<mgrwt>
<rscale>  0 0.52405248E+02</rscale>
<asrwt>0</asrwt>
<pdfrwt beam="1">  1       13 0.10000000E+01 0.52405248E+02</pdfrwt>
<pdfrwt beam="2">  1       22 0.20619978E+00 0.52405248E+02</pdfrwt>
<totfact> 0.42817498E-01</totfact>
</mgrwt>
</event>
<event>
 4    1  0.2516086E+000  0.5127591E+02  0.7957747E-01  0.1438579E+00
         13   -1    0    0    0    0  0.00000000000E+00  0.00000000000E+00  0.99999944175E+02  0.99999999996E+02  0.10566000000E+00 0.  1.
         22   -1    0    0    0    0 -0.00000000000E+00 -0.00000000000E+00 -0.10451023946E+02  0.10451023946E+02  0.00000000000E+00 0. -1.
         13    1    1    2    0    0 -0.11357234847E+02 -0.48182200457E+00  0.72424282426E+01  0.13478978697E+02  0.10566000000E+00 0. -1.
        996    1    1    2    0    0  0.11357234847E+02  0.48182200457E+00  0.82306491987E+02  0.96972045245E+02  0.50000000000E+02 0.  0.
<mgrwt>
<rscale>  0 0.51275910E+02</rscale>
<asrwt>0</asrwt>
<pdfrwt beam="1">  1       13 0.10000000E+01 0.51275910E+02</pdfrwt>
<pdfrwt beam="2">  1       22 0.10451049E+00 0.51275910E+02</pdfrwt>
<totfact> 0.13197281E+00</totfact>
</mgrwt>
</event>
<event>
 4    1  0.2516086E+000  0.5106099E+02  0.7957747E-01  0.1439701E+00
         13   -1    0    0    0    0  0.00000000000E+00  0.00000000000E+00  0.99999944174E+02  0.99999999995E+02  0.10566000000E+00 0.  1.
         22   -1    0    0    0    0 -0.00000000000E+00 -0.00000000000E+00 -0.13797917389E+02  0.13797917389E+02  0.00000000000E+00 0. -1.
         13    1    1    2    0    0  0.97249839864E+01 -0.35566377901E+01 -0.32027756070E+01  0.10839461312E+02  0.10566000000E+00 0. -1.
        996    1    1    2    0    0 -0.97249839864E+01  0.35566377901E+01  0.89404802392E+02  0.10295845607E+03  0.50000000000E+02 0.  0.
<mgrwt>
<rscale>  0 0.51060993E+02</rscale>
<asrwt>0</asrwt>
<pdfrwt beam="1">  1       13 0.10000000E+01 0.51060993E+02</pdfrwt>
<pdfrwt beam="2">  1       22 0.13797941E+00 0.51060993E+02</pdfrwt>
<totfact> 0.86159651E-01</totfact>
</mgrwt>
</event>
<event>
 4    1  0.2516086E+000  0.5214297E+02  0.7957747E-01  0.1434114E+00
         13   -1    0    0    0    0  0.00000000000E+00  0.00000000000E+00  0.99999944178E+02  0.99999999998E+02  0.10566000000E+00 0.  1.
         22   -1    0    0    0    0 -0.00000000000E+00 -0.00000000000E+00 -0.11501041578E+02  0.11501041578E+02  0.00000000000E+00 0.  1.
         13    1    1    2    0    0  0.54920478526E+01 -0.13737772492E+02  0.27709855421E+02  0.31412357984E+02  0.10566000000E+00 0. -1.
        996    1    1    2    0    0 -0.54920478526E+01  0.13737772492E+02  0.60789047179E+02  0.80088683593E+02  0.50000000000E+02 0.  0.
<mgrwt>
<rscale>  0 0.52142967E+02</rscale>
<asrwt>0</asrwt>
<pdfrwt beam="1">  1       13 0.10000000E+01 0.52142967E+02</pdfrwt>
<pdfrwt beam="2">  1       22 0.11501066E+00 0.52142967E+02</pdfrwt>
<totfact> 0.11469743E+00</totfact>
</mgrwt>
</event>
<event>
 4    1  0.2516086E+000  0.5255709E+02  0.7957747E-01  0.1432018E+00
         13   -1    0    0    0    0  0.00000000000E+00  0.00000000000E+00  0.99999944181E+02  0.10000000000E+03  0.10566000000E+00 0. -1.
         22   -1    0    0    0    0 -0.00000000000E+00 -0.00000000000E+00 -0.13226164185E+02  0.13226164185E+02  0.00000000000E+00 0. -1.
         13    1    1    2    0    0 -0.10783552361E+02  0.12081515862E+02  0.68799592693E+01  0.17595255912E+02  0.10566000000E+00 0.  1.
        996    1    1    2    0    0  0.10783552361E+02 -0.12081515862E+02  0.79893820727E+02  0.95630908274E+02  0.50000000000E+02 0.  0.
<mgrwt>
<rscale>  0 0.52557093E+02</rscale>
<asrwt>0</asrwt>
<pdfrwt beam="1">  1       13 0.10000000E+01 0.52557093E+02</pdfrwt>
<pdfrwt beam="2">  1       22 0.13226188E+00 0.52557093E+02</pdfrwt>
<totfact> 0.92483940E-01</totfact>
</mgrwt>
</event>
<event>
 4    1  0.2516086E+000  0.5123603E+02  0.7957747E-01  0.1438787E+00
         13   -1    0    0    0    0  0.00000000000E+00  0.00000000000E+00  0.99999944183E+02  0.10000000000E+03  0.10566000000E+00 0.  1.
         22   -1    0    0    0    0 -0.00000000000E+00 -0.00000000000E+00 -0.19052798063E+02  0.19052798063E+02  0.00000000000E+00 0.  1.
         13    1    1    2    0    0  0.10477287877E+02 -0.39187776537E+01 -0.97793775885E+01  0.14858592451E+02  0.10566000000E+00 0. -1.
        996    1    1    2    0    0 -0.10477287877E+02  0.39187776537E+01  0.90726523708E+02  0.10419420561E+03  0.50000000000E+02 0.  0.
<mgrwt>
<rscale>  0 0.51236026E+02</rscale>
<asrwt>0</asrwt>
<pdfrwt beam="1">  1       13 0.10000000E+01 0.51236026E+02</pdfrwt>
<pdfrwt beam="2">  1       22 0.19052821E+00 0.51236026E+02</pdfrwt>
<totfact> 0.49490664E-01</totfact>
</mgrwt>
</event>
<event>
 4    1  0.2516086E+000  0.5146658E+02  0.7957747E-01  0.1437588E+00
         13   -1    0    0    0    0  0.00000000000E+00  0.00000000000E+00  0.99999944182E+02  0.10000000000E+03  0.10566000000E+00 0. -1.
         22   -1    0    0    0    0 -0.00000000000E+00 -0.00000000000E+00 -0.13540623201E+02  0.13540623201E+02  0.00000000000E+00 0.  1.
         13    1    1    2    0    0  0.10797987316E+02  0.56756030384E+01 -0.80946608307E+00  0.12226013222E+02  0.10566000000E+00 0.  1.
        996    1    1    2    0    0 -0.10797987316E+02 -0.56756030384E+01  0.87268787065E+02  0.10131460998E+03  0.50000000000E+02 0.  0.
<mgrwt>
<rscale>  0 0.51466581E+02</rscale>
<asrwt>0</asrwt>
<pdfrwt beam="1">  1       13 0.10000000E+01 0.51466581E+02</pdfrwt>
<pdfrwt beam="2">  1       22 0.13540647E+00 0.51466581E+02</pdfrwt>
<totfact> 0.88879720E-01</totfact>
</mgrwt>
</event>
<event>
 4    1  0.2516086E+000  0.5134270E+02  0.7957747E-01  0.1438231E+00
         13   -1    0    0    0    0  0.00000000000E+00  0.00000000000E+00  0.99999944179E+02  0.10000000000E+03  0.10566000000E+00 0.  1.
         22   -1    0    0    0    0 -0.00000000000E+00 -0.00000000000E+00 -0.11177757327E+02  0.11177757327E+02  0.00000000000E+00 0.  1.
         13    1    1    2    0    0 -0.61099963148E+01 -0.99368387739E+01  0.45998178458E+01  0.12539629502E+02  0.10566000000E+00 0. -1.
        996    1    1    2    0    0  0.61099963148E+01  0.99368387739E+01  0.84222369007E+02  0.98638127825E+02  0.50000000000E+02 0.  0.
<mgrwt>
<rscale>  0 0.51342700E+02</rscale>
<asrwt>0</asrwt>
<pdfrwt beam="1">  1       13 0.10000000E+01 0.51342700E+02</pdfrwt>
<pdfrwt beam="2">  1       22 0.11177782E+00 0.51342700E+02</pdfrwt>
<totfact> 0.11949471E+00</totfact>
</mgrwt>
</event>
<event>
 4    1  0.2516086E+000  0.5230874E+02  0.7957747E-01  0.1433272E+00
         13   -1    0    0    0    0  0.00000000000E+00  0.00000000000E+00  0.99999944181E+02  0.10000000000E+03  0.10566000000E+00 0.  1.
         22   -1    0    0    0    0 -0.00000000000E+00 -0.00000000000E+00 -0.11755645360E+02  0.11755645360E+02  0.00000000000E+00 0. -1.
         13    1    1    2    0    0  0.13176794517E+02 -0.79105547995E+01  0.13083011492E+02  0.20183685112E+02  0.10566000000E+00 0. -1.
        996    1    1    2    0    0 -0.13176794517E+02  0.79105547995E+01  0.75161287328E+02  0.91571960249E+02  0.50000000000E+02 0.  0.
<mgrwt>
<rscale>  0 0.52308745E+02</rscale>
<asrwt>0</asrwt>
<pdfrwt beam="1">  1       13 0.10000000E+01 0.52308745E+02</pdfrwt>
<pdfrwt beam="2">  1       22 0.11755670E+00 0.52308745E+02</pdfrwt>
<totfact> 0.11099881E+00</totfact>
</mgrwt>
</event>
<event>
 4    1  0.2516086E+000  0.5129032E+02  0.7957747E-01  0.1438504E+00
         13   -1    0    0    0    0  0.00000000000E+00  0.00000000000E+00  0.99999944179E+02  0.99999999999E+02  0.10566000000E+00 0.  1.
         22   -1    0    0    0    0 -0.00000000000E+00 -0.00000000000E+00 -0.11226434964E+02  0.11226434964E+02  0.00000000000E+00 0. -1.
         13    1    1    2    0    0 -0.46855682960E+01  0.10427941600E+02  0.39391060893E+01  0.12092321410E+02  0.10566000000E+00 0. -1.
        996    1    1    2    0    0  0.46855682960E+01 -0.10427941600E+02  0.84834403126E+02  0.99134113553E+02  0.50000000000E+02 0.  0.
<mgrwt>
<rscale>  0 0.51290316E+02</rscale>
<asrwt>0</asrwt>
<pdfrwt beam="1">  1       13 0.10000000E+01 0.51290316E+02</pdfrwt>
<pdfrwt beam="2">  1       22 0.11226460E+00 0.51290316E+02</pdfrwt>
<totfact> 0.11870618E+00</totfact>
</mgrwt>
</event>
<event>
 4    1  0.2516086E+000  0.5261595E+02  0.7957747E-01  0.1431722E+00
         13   -1    0    0    0    0  0.00000000000E+00  0.00000000000E+00  0.99999944187E+02  0.10000000001E+03  0.10566000000E+00 0. -1.
         22   -1    0    0    0    0 -0.00000000000E+00 -0.00000000000E+00 -0.43073664593E+02  0.43073664593E+02  0.00000000000E+00 0.  1.
         13    1    1    2    0    0 -0.15252255536E+02  0.59838816719E+01 -0.34158063539E+02  0.37884331953E+02  0.10566000000E+00 0.  1.
        996    1    1    2    0    0  0.15252255536E+02 -0.59838816719E+01  0.91084343133E+02  0.10518933265E+03  0.50000000000E+02 0.  0.
<mgrwt>
<rscale>  0 0.52615949E+02</rscale>
<asrwt>0</asrwt>
<pdfrwt beam="1">  1       13 0.10000000E+01 0.52615949E+02</pdfrwt>
<pdfrwt beam="2">  1       22 0.43073681E+00 0.52615949E+02</pdfrwt>
<totfact> 0.10661222E-01</totfact>
</mgrwt>
</event>
<event>
 4    1  0.2516086E+000  0.5259389E+02  0.7957747E-01  0.1431833E+00
         13   -1    0    0    0    0  0.00000000000E+00  0.00000000000E+00  0.99999944174E+02  0.99999999994E+02  0.10566000000E+00 0. -1.
         22   -1    0    0    0    0 -0.00000000000E+00 -0.00000000000E+00 -0.12690927054E+02  0.12690927054E+02  0.00000000000E+00 0. -1.
         13    1    1    2    0    0 -0.56817108827E+01 -0.15291693521E+02  0.34485289985E+02  0.38149234837E+02  0.10566000000E+00 0.  1.
        996    1    1    2    0    0  0.56817108827E+01  0.15291693521E+02  0.52823727135E+02  0.74541692212E+02  0.50000000000E+02 0.  0.
<mgrwt>
<rscale>  0 0.52593894E+02</rscale>
<asrwt>0</asrwt>
<pdfrwt beam="1">  1       13 0.10000000E+01 0.52593894E+02</pdfrwt>
<pdfrwt beam="2">  1       22 0.12690951E+00 0.52593894E+02</pdfrwt>
<totfact> 0.98705320E-01</totfact>
</mgrwt>
</event>
<event>
 4    1  0.2516086E+000  0.6860624E+02  0.7957747E-01  0.1364898E+00
         13   -1    0    0    0    0  0.00000000000E+00  0.00000000000E+00  0.99999944179E+02  0.99999999999E+02  0.10566000000E+00 0. -1.
         22   -1    0    0    0    0 -0.00000000000E+00 -0.00000000000E+00 -0.73829995449E+02  0.73829995449E+02  0.00000000000E+00 0.  1.
         13    1    1    2    0    0  0.23672585921E+02  0.40576168073E+02 -0.51829954394E+02  0.69951212114E+02  0.10566000000E+00 0.  1.
        996    1    1    2    0    0 -0.23672585921E+02 -0.40576168073E+02  0.77999903124E+02  0.10387878333E+03  0.50000000000E+02 0.  0.
<mgrwt>
<rscale>  0 0.68606244E+02</rscale>
<asrwt>0</asrwt>
<pdfrwt beam="1">  1       13 0.10000000E+01 0.68606244E+02</pdfrwt>
<pdfrwt beam="2">  1       22 0.73830003E+00 0.68606244E+02</pdfrwt>
<totfact> 0.54549247E-02</totfact>
</mgrwt>
</event>
<event>
 4    1  0.2516086E+000  0.5140333E+02  0.7957747E-01  0.1437916E+00
         13   -1    0    0    0    0  0.00000000000E+00  0.00000000000E+00  0.99999944182E+02  0.10000000000E+03  0.10566000000E+00 0. -1.
         22   -1    0    0    0    0 -0.00000000000E+00 -0.00000000000E+00 -0.49141472822E+02  0.49141472822E+02  0.00000000000E+00 0.  1.
         13    1    1    2    0    0  0.13675391513E+01 -0.11850408765E+02 -0.41642416844E+02  0.43317483721E+02  0.10566000000E+00 0.  1.
        996    1    1    2    0    0 -0.13675391513E+01  0.11850408765E+02  0.92500888204E+02  0.10582398910E+03  0.50000000000E+02 0.  0.
<mgrwt>
<rscale>  0 0.51403330E+02</rscale>
<asrwt>0</asrwt>
<pdfrwt beam="1">  1       13 0.10000000E+01 0.51403330E+02</pdfrwt>
<pdfrwt beam="2">  1       22 0.49141487E+00 0.51403330E+02</pdfrwt>
<totfact> 0.77183529E-02</totfact>
</mgrwt>
</event>
<event>
 4    1  0.2516086E+000  0.5166000E+02  0.7957747E-01  0.1436588E+00
         13   -1    0    0    0    0  0.00000000000E+00  0.00000000000E+00  0.99999944174E+02  0.99999999994E+02  0.10566000000E+00 0.  1.
         22   -1    0    0    0    0 -0.00000000000E+00 -0.00000000000E+00 -0.11678180532E+02  0.11678180532E+02  0.00000000000E+00 0.  1.
         13    1    1    2    0    0  0.85961510393E+01 -0.97397228049E+01  0.55914265224E+01  0.14143239643E+02  0.10566000000E+00 0. -1.
        996    1    1    2    0    0 -0.85961510393E+01  0.97397228049E+01  0.82730337120E+02  0.97534940882E+02  0.50000000000E+02 0.  0.
<mgrwt>
<rscale>  0 0.51660004E+02</rscale>
<asrwt>0</asrwt>
<pdfrwt beam="1">  1       13 0.10000000E+01 0.51660004E+02</pdfrwt>
<pdfrwt beam="2">  1       22 0.11678205E+00 0.51660004E+02</pdfrwt>
<totfact> 0.11195408E+00</totfact>
</mgrwt>
</event>
<event>
 4    1  0.2516086E+000  0.5119831E+02  0.7957747E-01  0.1438983E+00
         13   -1    0    0    0    0  0.00000000000E+00  0.00000000000E+00  0.99999944176E+02  0.99999999996E+02  0.10566000000E+00 0. -1.
         22   -1    0    0    0    0 -0.00000000000E+00 -0.00000000000E+00 -0.96768161012E+01  0.96768161012E+01  0.00000000000E+00 0.  1.
         13    1    1    2    0    0  0.59684345740E+01  0.92544669312E+01  0.16483929510E+02  0.19824188900E+02  0.10566000000E+00 0.  1.
        996    1    1    2    0    0 -0.59684345740E+01 -0.92544669312E+01  0.73839198565E+02  0.89852627197E+02  0.50000000000E+02 0.  0.
<mgrwt>
<rscale>  0 0.51198314E+02</rscale>
<asrwt>0</asrwt>
<pdfrwt beam="1">  1       13 0.10000000E+01 0.51198314E+02</pdfrwt>
<pdfrwt beam="2">  1       22 0.96768413E-01 0.51198314E+02</pdfrwt>
<totfact> 0.14753047E+00</totfact>
</mgrwt>
</event>
<event>
 4    1  0.2516086E+000  0.5239351E+02  0.7957747E-01  0.1432843E+00
         13   -1    0    0    0    0  0.00000000000E+00  0.00000000000E+00  0.99999944175E+02  0.99999999995E+02  0.10566000000E+00 0. -1.
         22   -1    0    0    0    0 -0.00000000000E+00 -0.00000000000E+00 -0.13716930573E+02  0.13716930573E+02  0.00000000000E+00 0. -1.
         13    1    1    2    0    0 -0.12830191390E+02 -0.89702697519E+01  0.39818516772E+01  0.16153818662E+02  0.10566000000E+00 0.  1.
        996    1    1    2    0    0  0.12830191390E+02  0.89702697519E+01  0.82301161925E+02  0.97563111906E+02  0.50000000000E+02 0.  0.
<mgrwt>
<rscale>  0 0.52393507E+02</rscale>
<asrwt>0</asrwt>
<pdfrwt beam="1">  1       13 0.10000000E+01 0.52393507E+02</pdfrwt>
<pdfrwt beam="2">  1       22 0.13716955E+00 0.52393507E+02</pdfrwt>
<totfact> 0.87227009E-01</totfact>
</mgrwt>
</event>
<event>
 4    1  0.2516086E+000  0.5168141E+02  0.7957747E-01  0.1436478E+00
         13   -1    0    0    0    0  0.00000000000E+00  0.00000000000E+00  0.99999944175E+02  0.99999999995E+02  0.10566000000E+00 0. -1.
         22   -1    0    0    0    0 -0.00000000000E+00 -0.00000000000E+00 -0.15891562243E+02  0.15891562243E+02  0.00000000000E+00 0. -1.
         13    1    1    2    0    0 -0.11524020854E+02  0.61778017681E+01 -0.40607467451E+01  0.13691936295E+02  0.10566000000E+00 0.  1.
        996    1    1    2    0    0  0.11524020854E+02 -0.61778017681E+01  0.88169128677E+02  0.10219962594E+03  0.50000000000E+02 0.  0.
<mgrwt>
<rscale>  0 0.51681411E+02</rscale>
<asrwt>0</asrwt>
<pdfrwt beam="1">  1       13 0.10000000E+01 0.51681411E+02</pdfrwt>
<pdfrwt beam="2">  1       22 0.15891586E+00 0.51681411E+02</pdfrwt>
<totfact> 0.68269722E-01</totfact>
</mgrwt>
</event>
<event>
 4    1  0.2516086E+000  0.6488592E+02  0.7957747E-01  0.1378401E+00
         13   -1    0    0    0    0  0.00000000000E+00  0.00000000000E+00  0.99999944181E+02  0.10000000000E+03  0.10566000000E+00 0.  1.
         22   -1    0    0    0    0 -0.00000000000E+00 -0.00000000000E+00 -0.43046602124E+02  0.43046602124E+02  0.00000000000E+00 0. -1.
         13    1    1    2    0    0 -0.19002051838E+02 -0.36730165122E+02 -0.16956621248E+02  0.44695874218E+02  0.10566000000E+00 0. -1.
        996    1    1    2    0    0  0.19002051838E+02  0.36730165122E+02  0.73909963306E+02  0.98350727907E+02  0.50000000000E+02 0.  0.
<mgrwt>
<rscale>  0 0.64885923E+02</rscale>
<asrwt>0</asrwt>
<pdfrwt beam="1">  1       13 0.10000000E+01 0.64885923E+02</pdfrwt>
<pdfrwt beam="2">  1       22 0.43046618E+00 0.64885923E+02</pdfrwt>
<totfact> 0.10752727E-01</totfact>
</mgrwt>
</event>
<event>
 4    1  0.2516086E+000  0.5289844E+02  0.7957747E-01  0.1430307E+00
         13   -1    0    0    0    0  0.00000000000E+00  0.00000000000E+00  0.99999944177E+02  0.99999999997E+02  0.10566000000E+00 0.  1.
         22   -1    0    0    0    0 -0.00000000000E+00 -0.00000000000E+00 -0.27743201410E+02  0.27743201410E+02  0.00000000000E+00 0. -1.
         13    1    1    2    0    0  0.14822410495E+02 -0.88623369424E+01 -0.16843111303E+02  0.24123565892E+02  0.10566000000E+00 0. -1.
        996    1    1    2    0    0 -0.14822410495E+02  0.88623369424E+01  0.89099854070E+02  0.10361963552E+03  0.50000000000E+02 0.  0.
<mgrwt>
<rscale>  0 0.52898439E+02</rscale>
<asrwt>0</asrwt>
<pdfrwt beam="1">  1       13 0.10000000E+01 0.52898439E+02</pdfrwt>
<pdfrwt beam="2">  1       22 0.27743222E+00 0.52898439E+02</pdfrwt>
<totfact> 0.24067091E-01</totfact>
</mgrwt>
</event>
<event>
 4    1  0.2516086E+000  0.5404707E+02  0.7957747E-01  0.1424660E+00
         13   -1    0    0    0    0  0.00000000000E+00  0.00000000000E+00  0.99999944177E+02  0.99999999997E+02  0.10566000000E+00 0.  1.
         22   -1    0    0    0    0 -0.00000000000E+00 -0.00000000000E+00 -0.15816846642E+02  0.15816846642E+02  0.00000000000E+00 0.  1.
         13    1    1    2    0    0 -0.13167548345E+02  0.15738521860E+02  0.43736291003E+02  0.48311072380E+02  0.10566000000E+00 0. -1.
        996    1    1    2    0    0  0.13167548345E+02 -0.15738521860E+02  0.40446806531E+02  0.67505774259E+02  0.50000000000E+02 0.  0.
<mgrwt>
<rscale>  0 0.54047067E+02</rscale>
<asrwt>0</asrwt>
<pdfrwt beam="1">  1       13 0.10000000E+01 0.54047067E+02</pdfrwt>
<pdfrwt beam="2">  1       22 0.15816870E+00 0.54047067E+02</pdfrwt>
<totfact> 0.69140297E-01</totfact>
</mgrwt>
</event>
<event>
 4    1  0.2516086E+000  0.5325295E+02  0.7957747E-01  0.1428546E+00
         13   -1    0    0    0    0  0.00000000000E+00  0.00000000000E+00  0.99999944180E+02  0.10000000000E+03  0.10566000000E+00 0. -1.
         22   -1    0    0    0    0 -0.00000000000E+00 -0.00000000000E+00 -0.13021178997E+02  0.13021178997E+02  0.00000000000E+00 0. -1.
         13    1    1    2    0    0  0.17015163098E+02  0.68088890038E+01  0.28923586604E+02  0.34241229108E+02  0.10566000000E+00 0.  1.
        996    1    1    2    0    0 -0.17015163098E+02 -0.68088890038E+01  0.58055178579E+02  0.78779949889E+02  0.50000000000E+02 0.  0.
<mgrwt>
<rscale>  0 0.53252951E+02</rscale>
<asrwt>0</asrwt>
<pdfrwt beam="1">  1       13 0.10000000E+01 0.53252951E+02</pdfrwt>
<pdfrwt beam="2">  1       22 0.13021203E+00 0.53252951E+02</pdfrwt>
<totfact> 0.94937064E-01</totfact>
</mgrwt>
</event>
<event>
 4    1  0.2516086E+000  0.5181407E+02  0.7957747E-01  0.1435796E+00
         13   -1    0    0    0    0  0.00000000000E+00  0.00000000000E+00  0.99999944180E+02  0.10000000000E+03  0.10566000000E+00 0.  1.
         22   -1    0    0    0    0 -0.00000000000E+00 -0.00000000000E+00 -0.45294889986E+02  0.45294889986E+02  0.00000000000E+00 0. -1.
         13    1    1    2    0    0 -0.11422625342E+02  0.73634944961E+01 -0.37302344215E+02  0.39701051232E+02  0.10566000000E+00 0. -1.
        996    1    1    2    0    0  0.11422625342E+02 -0.73634944961E+01  0.92007398409E+02  0.10559383875E+03  0.50000000000E+02 0.  0.
<mgrwt>
<rscale>  0 0.51814066E+02</rscale>
<asrwt>0</asrwt>
<pdfrwt beam="1">  1       13 0.10000000E+01 0.51814066E+02</pdfrwt>
<pdfrwt beam="2">  1       22 0.45294905E+00 0.51814066E+02</pdfrwt>
<totfact> 0.95134291E-02</totfact>
</mgrwt>
</event>
<event>
 4    1  0.2516086E+000  0.5635633E+02  0.7957747E-01  0.1413791E+00
         13   -1    0    0    0    0  0.00000000000E+00  0.00000000000E+00  0.99999944179E+02  0.99999999999E+02  0.10566000000E+00 0.  1.
         22   -1    0    0    0    0 -0.00000000000E+00 -0.00000000000E+00 -0.24073731292E+02  0.24073731292E+02  0.00000000000E+00 0.  1.
         13    1    1    2    0    0  0.72709545694E+01  0.24963367009E+02 -0.39690521641E+01  0.26302110407E+02  0.10566000000E+00 0. -1.
        996    1    1    2    0    0 -0.72709545694E+01 -0.24963367009E+02  0.79895265050E+02  0.97771620884E+02  0.50000000000E+02 0.  0.
<mgrwt>
<rscale>  0 0.56356335E+02</rscale>
<asrwt>0</asrwt>
<pdfrwt beam="1">  1       13 0.10000000E+01 0.56356335E+02</pdfrwt>
<pdfrwt beam="2">  1       22 0.24073752E+00 0.56356335E+02</pdfrwt>
<totfact> 0.31962473E-01</totfact>
</mgrwt>
</event>
<event>
 4    1  0.2516086E+000  0.5295956E+02  0.7957747E-01  0.1430002E+00
         13   -1    0    0    0    0  0.00000000000E+00  0.00000000000E+00  0.99999944175E+02  0.99999999995E+02  0.10566000000E+00 0.  1.
         22   -1    0    0    0    0 -0.00000000000E+00 -0.00000000000E+00 -0.24250587538E+02  0.24250587538E+02  0.00000000000E+00 0. -1.
         13    1    1    2    0    0  0.16534599709E+01 -0.17377596146E+02 -0.12402344653E+02  0.21413642722E+02  0.10566000000E+00 0. -1.
        996    1    1    2    0    0 -0.16534599709E+01  0.17377596146E+02  0.88151701290E+02  0.10283694481E+03  0.50000000000E+02 0.  0.
<mgrwt>
<rscale>  0 0.52959558E+02</rscale>
<asrwt>0</asrwt>
<pdfrwt beam="1">  1       13 0.10000000E+01 0.52959558E+02</pdfrwt>
<pdfrwt beam="2">  1       22 0.24250609E+00 0.52959558E+02</pdfrwt>
<totfact> 0.31343585E-01</totfact>
</mgrwt>
</event>
<event>
 4    1  0.2516086E+000  0.5190846E+02  0.7957747E-01  0.1435312E+00
         13   -1    0    0    0    0  0.00000000000E+00  0.00000000000E+00  0.99999944174E+02  0.99999999995E+02  0.10566000000E+00 0. -1.
         22   -1    0    0    0    0 -0.00000000000E+00 -0.00000000000E+00 -0.28412734059E+02  0.28412734059E+02  0.00000000000E+00 0.  1.
         13    1    1    2    0    0  0.11291651629E+02  0.81845344850E+01 -0.19261391387E+02  0.23780251543E+02  0.10566000000E+00 0.  1.
        996    1    1    2    0    0 -0.11291651629E+02 -0.81845344850E+01  0.90848601503E+02  0.10463248251E+03  0.50000000000E+02 0.  0.
<mgrwt>
<rscale>  0 0.51908458E+02</rscale>
<asrwt>0</asrwt>
<pdfrwt beam="1">  1       13 0.10000000E+01 0.51908458E+02</pdfrwt>
<pdfrwt beam="2">  1       22 0.28412754E+00 0.51908458E+02</pdfrwt>
<totfact> 0.22950364E-01</totfact>
</mgrwt>
</event>
<event>
 4    1  0.2516086E+000  0.5118620E+02  0.7957747E-01  0.1439047E+00
         13   -1    0    0    0    0  0.00000000000E+00  0.00000000000E+00  0.99999944183E+02  0.10000000000E+03  0.10566000000E+00 0. -1.
         22   -1    0    0    0    0 -0.00000000000E+00 -0.00000000000E+00 -0.25763532038E+02  0.25763532038E+02  0.00000000000E+00 0.  1.
         13    1    1    2    0    0  0.10948554092E+02 -0.39519499882E+00 -0.17538542670E+02  0.20679425979E+02  0.10566000000E+00 0.  1.
        996    1    1    2    0    0 -0.10948554092E+02  0.39519499882E+00  0.91774954814E+02  0.10508410606E+03  0.50000000000E+02 0.  0.
<mgrwt>
<rscale>  0 0.51186199E+02</rscale>
<asrwt>0</asrwt>
<pdfrwt beam="1">  1       13 0.10000000E+01 0.51186199E+02</pdfrwt>
<pdfrwt beam="2">  1       22 0.25763553E+00 0.51186199E+02</pdfrwt>
<totfact> 0.27749836E-01</totfact>
</mgrwt>
</event>
<event>
 4    1  0.2516086E+000  0.5129712E+02  0.7957747E-01  0.1438468E+00
         13   -1    0    0    0    0  0.00000000000E+00  0.00000000000E+00  0.99999944179E+02  0.99999999999E+02  0.10566000000E+00 0. -1.
         22   -1    0    0    0    0 -0.00000000000E+00 -0.00000000000E+00 -0.15379309337E+02  0.15379309337E+02  0.00000000000E+00 0.  1.
         13    1    1    2    0    0  0.95232428275E+01 -0.63798780194E+01 -0.46897137272E+01  0.12385458263E+02  0.10566000000E+00 0.  1.
        996    1    1    2    0    0 -0.95232428275E+01  0.63798780194E+01  0.89310348569E+02  0.10299385107E+03  0.50000000000E+02 0.  0.
<mgrwt>
<rscale>  0 0.51297125E+02</rscale>
<asrwt>0</asrwt>
<pdfrwt beam="1">  1       13 0.10000000E+01 0.51297125E+02</pdfrwt>
<pdfrwt beam="2">  1       22 0.15379333E+00 0.51297125E+02</pdfrwt>
<totfact> 0.72107496E-01</totfact>
</mgrwt>
</event>
<event>
 4    1  0.2516086E+000  0.6021880E+02  0.7957747E-01  0.1396916E+00
         13   -1    0    0    0    0  0.00000000000E+00  0.00000000000E+00  0.99999944179E+02  0.10000000000E+03  0.10566000000E+00 0.  1.
         22   -1    0    0    0    0 -0.00000000000E+00 -0.00000000000E+00 -0.32183024732E+02  0.32183024732E+02  0.00000000000E+00 0. -1.
         13    1    1    2    0    0 -0.22498567471E+02  0.24902174911E+02 -0.88366096158E+01  0.34704476470E+02  0.10566000000E+00 0. -1.
        996    1    1    2    0    0  0.22498567471E+02 -0.24902174911E+02  0.76653529063E+02  0.97478548262E+02  0.50000000000E+02 0.  0.
<mgrwt>
<rscale>  0 0.60218800E+02</rscale>
<asrwt>0</asrwt>
<pdfrwt beam="1">  1       13 0.10000000E+01 0.60218800E+02</pdfrwt>
<pdfrwt beam="2">  1       22 0.32183044E+00 0.60218800E+02</pdfrwt>
<totfact> 0.18377685E-01</totfact>
</mgrwt>
</event>
<event>
 4    1  0.2516086E+000  0.5427937E+02  0.7957747E-01  0.1423538E+00
         13   -1    0    0    0    0  0.00000000000E+00  0.00000000000E+00  0.99999944179E+02  0.10000000000E+03  0.10566000000E+00 0.  1.
         22   -1    0    0    0    0 -0.00000000000E+00 -0.00000000000E+00 -0.15107920122E+02  0.15107920122E+02  0.00000000000E+00 0.  1.
         13    1    1    2    0    0 -0.15607754408E+02 -0.14235435354E+02  0.12227301465E+02  0.24408352721E+02  0.10566000000E+00 0. -1.
        996    1    1    2    0    0  0.15607754408E+02  0.14235435354E+02  0.72664722592E+02  0.90699567401E+02  0.50000000000E+02 0.  0.
<mgrwt>
<rscale>  0 0.54279366E+02</rscale>
<asrwt>0</asrwt>
<pdfrwt beam="1">  1       13 0.10000000E+01 0.54279366E+02</pdfrwt>
<pdfrwt beam="2">  1       22 0.15107944E+00 0.54279366E+02</pdfrwt>
<totfact> 0.74736092E-01</totfact>
</mgrwt>
</event>
<event>
 4    1  0.2516086E+000  0.5314672E+02  0.7957747E-01  0.1429072E+00
         13   -1    0    0    0    0  0.00000000000E+00  0.00000000000E+00  0.99999944184E+02  0.10000000000E+03  0.10566000000E+00 0.  1.
         22   -1    0    0    0    0 -0.00000000000E+00 -0.00000000000E+00 -0.13135816888E+02  0.13135816888E+02  0.00000000000E+00 0.  1.
         13    1    1    2    0    0  0.15064151037E+02 -0.98815335032E+01  0.32180728920E+02  0.36880670123E+02  0.10566000000E+00 0. -1.
        996    1    1    2    0    0 -0.15064151037E+02  0.98815335032E+01  0.54683398375E+02  0.76255146769E+02  0.50000000000E+02 0.  0.
<mgrwt>
<rscale>  0 0.53146715E+02</rscale>
<asrwt>0</asrwt>
<pdfrwt beam="1">  1       13 0.10000000E+01 0.53146715E+02</pdfrwt>
<pdfrwt beam="2">  1       22 0.13135841E+00 0.53146715E+02</pdfrwt>
<totfact> 0.93610386E-01</totfact>
</mgrwt>
</event>
<event>
 4    1  0.2516086E+000  0.6457226E+02  0.7957747E-01  0.1379588E+00
         13   -1    0    0    0    0  0.00000000000E+00  0.00000000000E+00  0.99999944180E+02  0.10000000000E+03  0.10566000000E+00 0. -1.
         22   -1    0    0    0    0 -0.00000000000E+00 -0.00000000000E+00 -0.60694443544E+02  0.60694443544E+02  0.00000000000E+00 0.  1.
         13    1    1    2    0    0  0.32134485972E+02 -0.25237899942E+02 -0.40841138221E+02  0.57771848831E+02  0.10566000000E+00 0.  1.
        996    1    1    2    0    0 -0.32134485972E+02  0.25237899942E+02  0.80146638858E+02  0.10292259471E+03  0.50000000000E+02 0.  0.
<mgrwt>
<rscale>  0 0.64572260E+02</rscale>
<asrwt>0</asrwt>
<pdfrwt beam="1">  1       13 0.10000000E+01 0.64572260E+02</pdfrwt>
<pdfrwt beam="2">  1       22 0.60694455E+00 0.64572260E+02</pdfrwt>
<totfact> 0.66353774E-02</totfact>
</mgrwt>
</event>
<event>
 4    1  0.2516086E+000  0.5365329E+02  0.7957747E-01  0.1426577E+00
         13   -1    0    0    0    0  0.00000000000E+00  0.00000000000E+00  0.99999944186E+02  0.10000000001E+03  0.10566000000E+00 0.  1.
         22   -1    0    0    0    0 -0.00000000000E+00 -0.00000000000E+00 -0.13417755286E+02  0.13417755286E+02  0.00000000000E+00 0.  1.
         13    1    1    2    0    0  0.57124312963E+01  0.18602258484E+02  0.26306035048E+02  0.32721469038E+02  0.10566000000E+00 0. -1.
        996    1    1    2    0    0 -0.57124312963E+01 -0.18602258484E+02  0.60276153851E+02  0.80696286254E+02  0.50000000000E+02 0.  0.
<mgrwt>
<rscale>  0 0.53653293E+02</rscale>
<asrwt>0</asrwt>
<pdfrwt beam="1">  1       13 0.10000000E+01 0.53653293E+02</pdfrwt>
<pdfrwt beam="2">  1       22 0.13417779E+00 0.53653293E+02</pdfrwt>
<totfact> 0.90600243E-01</totfact>
</mgrwt>
</event>
<event>
 4    1  0.2516086E+000  0.6416534E+02  0.7957747E-01  0.1381139E+00
         13   -1    0    0    0    0  0.00000000000E+00  0.00000000000E+00  0.99999944182E+02  0.10000000000E+03  0.10566000000E+00 0. -1.
         22   -1    0    0    0    0 -0.00000000000E+00 -0.00000000000E+00 -0.45757103408E+02  0.45757103408E+02  0.00000000000E+00 0.  1.
         13    1    1    2    0    0 -0.39301791914E+02 -0.85181988552E+01 -0.22214898651E+02  0.45942392684E+02  0.10566000000E+00 0.  1.
        996    1    1    2    0    0  0.39301791914E+02  0.85181988552E+01  0.76457739426E+02  0.99814710727E+02  0.50000000000E+02 0.  0.
<mgrwt>
<rscale>  0 0.64165338E+02</rscale>
<asrwt>0</asrwt>
<pdfrwt beam="1">  1       13 0.10000000E+01 0.64165338E+02</pdfrwt>
<pdfrwt beam="2">  1       22 0.45757119E+00 0.64165338E+02</pdfrwt>
<totfact> 0.93437370E-02</totfact>
</mgrwt>
</event>
<event>
 4    1  0.2516086E+000  0.5164052E+02  0.7957747E-01  0.1436689E+00
         13   -1    0    0    0    0  0.00000000000E+00  0.00000000000E+00  0.99999944177E+02  0.99999999997E+02  0.10566000000E+00 0.  1.
         22   -1    0    0    0    0 -0.00000000000E+00 -0.00000000000E+00 -0.54725138572E+02  0.54725138572E+02  0.00000000000E+00 0. -1.
         13    1    1    2    0    0  0.10166764287E+02 -0.79611822528E+01 -0.47131379905E+02  0.48868411624E+02  0.10566000000E+00 0. -1.
        996    1    1    2    0    0 -0.10166764287E+02  0.79611822528E+01  0.92406185510E+02  0.10585672694E+03  0.50000000000E+02 0.  0.
<mgrwt>
<rscale>  0 0.51640522E+02</rscale>
<asrwt>0</asrwt>
<pdfrwt beam="1">  1       13 0.10000000E+01 0.51640522E+02</pdfrwt>
<pdfrwt beam="2">  1       22 0.54725151E+00 0.51640522E+02</pdfrwt>
<totfact> 0.59506295E-02</totfact>
</mgrwt>
</event>
<event>
 4    1  0.2516086E+000  0.5219539E+02  0.7957747E-01  0.1433848E+00
         13   -1    0    0    0    0  0.00000000000E+00  0.00000000000E+00  0.99999944180E+02  0.10000000000E+03  0.10566000000E+00 0.  1.
         22   -1    0    0    0    0 -0.00000000000E+00 -0.00000000000E+00 -0.16655420043E+02  0.16655420043E+02  0.00000000000E+00 0. -1.
         13    1    1    2    0    0 -0.74848177648E+01  0.12974430396E+02 -0.34539127885E+01  0.15372020643E+02  0.10566000000E+00 0. -1.
        996    1    1    2    0    0  0.74848177648E+01 -0.12974430396E+02  0.86798436926E+02  0.10128339940E+03  0.50000000000E+02 0.  0.
<mgrwt>
<rscale>  0 0.52195386E+02</rscale>
<asrwt>0</asrwt>
<pdfrwt beam="1">  1       13 0.10000000E+01 0.52195386E+02</pdfrwt>
<pdfrwt beam="2">  1       22 0.16655443E+00 0.52195386E+02</pdfrwt>
<totfact> 0.63034244E-01</totfact>
</mgrwt>
</event>
<event>
 4    1  0.2516086E+000  0.5541379E+02  0.7957747E-01  0.1418152E+00
         13   -1    0    0    0    0  0.00000000000E+00  0.00000000000E+00  0.99999944181E+02  0.10000000000E+03  0.10566000000E+00 0. -1.
         22   -1    0    0    0    0 -0.00000000000E+00 -0.00000000000E+00 -0.86397816294E+02  0.86397816294E+02  0.00000000000E+00 0.  1.
         13    1    1    2    0    0 -0.28332231154E+01  0.23720464168E+02 -0.76763479804E+02  0.80394841683E+02  0.10566000000E+00 0.  1.
        996    1    1    2    0    0  0.28332231154E+01 -0.23720464168E+02  0.90365607690E+02  0.10600297461E+03  0.50000000000E+02 0.  0.
<mgrwt>
<rscale>  0 0.55413785E+02</rscale>
<asrwt>0</asrwt>
<pdfrwt beam="1">  1       13 0.10000000E+01 0.55413785E+02</pdfrwt>
<pdfrwt beam="2">  1       22 0.86397820E+00 0.55413785E+02</pdfrwt>
<totfact> 0.16312719E-02</totfact>
</mgrwt>
</event>
<event>
 4    1  0.2516086E+000  0.5287004E+02  0.7957747E-01  0.1430449E+00
         13   -1    0    0    0    0  0.00000000000E+00  0.00000000000E+00  0.99999944187E+02  0.10000000001E+03  0.10566000000E+00 0.  1.
         22   -1    0    0    0    0 -0.00000000000E+00 -0.00000000000E+00 -0.17367936828E+02  0.17367936828E+02  0.00000000000E+00 0.  1.
         13    1    1    2    0    0 -0.85547470111E+01  0.14901575898E+02 -0.22881494766E+01  0.17334573913E+02  0.10566000000E+00 0. -1.
        996    1    1    2    0    0  0.85547470111E+01 -0.14901575898E+02  0.84920156835E+02  0.10003336292E+03  0.50000000000E+02 0.  0.
<mgrwt>
<rscale>  0 0.52870036E+02</rscale>
<asrwt>0</asrwt>
<pdfrwt beam="1">  1       13 0.10000000E+01 0.52870036E+02</pdfrwt>
<pdfrwt beam="2">  1       22 0.17367960E+00 0.52870036E+02</pdfrwt>
<totfact> 0.58647113E-01</totfact>
</mgrwt>
</event>
<event>
 4    1  0.2516086E+000  0.5647769E+02  0.7957747E-01  0.1413237E+00
         13   -1    0    0    0    0  0.00000000000E+00  0.00000000000E+00  0.99999944184E+02  0.10000000000E+03  0.10566000000E+00 0. -1.
         22   -1    0    0    0    0 -0.00000000000E+00 -0.00000000000E+00 -0.26375327347E+02  0.26375327347E+02  0.00000000000E+00 0.  1.
         13    1    1    2    0    0 -0.21391773945E+02 -0.15235544540E+02 -0.76951568958E+01  0.27367068049E+02  0.10566000000E+00 0.  1.
        996    1    1    2    0    0  0.21391773945E+02  0.15235544540E+02  0.81319773733E+02  0.99008259301E+02  0.50000000000E+02 0.  0.
<mgrwt>
<rscale>  0 0.56477693E+02</rscale>
<asrwt>0</asrwt>
<pdfrwt beam="1">  1       13 0.10000000E+01 0.56477693E+02</pdfrwt>
<pdfrwt beam="2">  1       22 0.26375348E+00 0.56477693E+02</pdfrwt>
<totfact> 0.26703494E-01</totfact>
</mgrwt>
</event>
<event>
 4    1  0.2516086E+000  0.6112500E+02  0.7957747E-01  0.1393170E+00
         13   -1    0    0    0    0  0.00000000000E+00  0.00000000000E+00  0.99999944175E+02  0.99999999995E+02  0.10566000000E+00 0. -1.
         22   -1    0    0    0    0 -0.00000000000E+00 -0.00000000000E+00 -0.72253394023E+02  0.72253394023E+02  0.00000000000E+00 0.  1.
         13    1    1    2    0    0 -0.21666014578E+01 -0.35093750425E+02 -0.57475263802E+02  0.67377166711E+02  0.10566000000E+00 0.  1.
        996    1    1    2    0    0  0.21666014578E+01  0.35093750425E+02  0.85221813954E+02  0.10487622731E+03  0.50000000000E+02 0.  0.
<mgrwt>
<rscale>  0 0.61124999E+02</rscale>
<asrwt>0</asrwt>
<pdfrwt beam="1">  1       13 0.10000000E+01 0.61124999E+02</pdfrwt>
<pdfrwt beam="2">  1       22 0.72253402E+00 0.61124999E+02</pdfrwt>
<totfact> 0.62679926E-02</totfact>
</mgrwt>
</event>
<event>
 4    1  0.2516086E+000  0.5123471E+02  0.7957747E-01  0.1438793E+00
         13   -1    0    0    0    0  0.00000000000E+00  0.00000000000E+00  0.99999944182E+02  0.10000000000E+03  0.10566000000E+00 0.  1.
         22   -1    0    0    0    0 -0.00000000000E+00 -0.00000000000E+00 -0.17214812957E+02  0.17214812957E+02  0.00000000000E+00 0. -1.
         13    1    1    2    0    0  0.24169184029E+01  0.10915752125E+02 -0.74594768368E+01  0.13440613741E+02  0.10566000000E+00 0. -1.
        996    1    1    2    0    0 -0.24169184029E+01 -0.10915752125E+02  0.90244608062E+02  0.10377419922E+03  0.50000000000E+02 0.  0.
<mgrwt>
<rscale>  0 0.51234706E+02</rscale>
<asrwt>0</asrwt>
<pdfrwt beam="1">  1       13 0.10000000E+01 0.51234706E+02</pdfrwt>
<pdfrwt beam="2">  1       22 0.17214836E+00 0.51234706E+02</pdfrwt>
<totfact> 0.59383740E-01</totfact>
</mgrwt>
</event>
<event>
 4    1  0.2516086E+000  0.5376480E+02  0.7957747E-01  0.1426032E+00
         13   -1    0    0    0    0  0.00000000000E+00  0.00000000000E+00  0.99999944183E+02  0.10000000000E+03  0.10566000000E+00 0. -1.
         22   -1    0    0    0    0 -0.00000000000E+00 -0.00000000000E+00 -0.22372093063E+02  0.22372093063E+02  0.00000000000E+00 0.  1.
         13    1    1    2    0    0  0.38438517602E+01  0.19387593325E+02 -0.79520382052E+01  0.21304930109E+02  0.10566000000E+00 0.  1.
        996    1    1    2    0    0 -0.38438517602E+01 -0.19387593325E+02  0.85579889325E+02  0.10106716296E+03  0.50000000000E+02 0.  0.
<mgrwt>
<rscale>  0 0.53764802E+02</rscale>
<asrwt>0</asrwt>
<pdfrwt beam="1">  1       13 0.10000000E+01 0.53764802E+02</pdfrwt>
<pdfrwt beam="2">  1       22 0.22372115E+00 0.53764802E+02</pdfrwt>
<totfact> 0.36725713E-01</totfact>
</mgrwt>
</event>
<event>
 4    1  0.2516086E+000  0.5402019E+02  0.7957747E-01  0.1424790E+00
         13   -1    0    0    0    0  0.00000000000E+00  0.00000000000E+00  0.99999944180E+02  0.10000000000E+03  0.10566000000E+00 0. -1.
         22   -1    0    0    0    0 -0.00000000000E+00 -0.00000000000E+00 -0.14970330931E+02  0.14970330931E+02  0.00000000000E+00 0. -1.
         13    1    1    2    0    0  0.75611275557E+01 -0.19000257445E+02  0.10687714344E+02  0.23074202799E+02  0.10566000000E+00 0.  1.
        996    1    1    2    0    0 -0.75611275557E+01  0.19000257445E+02  0.74341898905E+02  0.91896128132E+02  0.50000000000E+02 0.  0.
<mgrwt>
<rscale>  0 0.54020185E+02</rscale>
<asrwt>0</asrwt>
<pdfrwt beam="1">  1       13 0.10000000E+01 0.54020185E+02</pdfrwt>
<pdfrwt beam="2">  1       22 0.14970355E+00 0.54020185E+02</pdfrwt>
<totfact> 0.75847325E-01</totfact>
</mgrwt>
</event>
<event>
 4    1  0.2516086E+000  0.5582138E+02  0.7957747E-01  0.1416254E+00
         13   -1    0    0    0    0  0.00000000000E+00  0.00000000000E+00  0.99999944174E+02  0.99999999994E+02  0.10566000000E+00 0. -1.
         22   -1    0    0    0    0 -0.00000000000E+00 -0.00000000000E+00 -0.21258331510E+02  0.21258331510E+02  0.00000000000E+00 0. -1.
         13    1    1    2    0    0 -0.96001261024E+01 -0.22888081676E+02  0.10152246385E+00  0.24820317783E+02  0.10566000000E+00 0.  1.
        996    1    1    2    0    0  0.96001261024E+01  0.22888081676E+02  0.78640090200E+02  0.96438013722E+02  0.50000000000E+02 0.  0.
<mgrwt>
<rscale>  0 0.55821382E+02</rscale>
<asrwt>0</asrwt>
<pdfrwt beam="1">  1       13 0.10000000E+01 0.55821382E+02</pdfrwt>
<pdfrwt beam="2">  1       22 0.21258353E+00 0.55821382E+02</pdfrwt>
<totfact> 0.40644781E-01</totfact>
</mgrwt>
</event>
<event>
 4    1  0.2516086E+000  0.5272378E+02  0.7957747E-01  0.1431180E+00
         13   -1    0    0    0    0  0.00000000000E+00  0.00000000000E+00  0.99999944177E+02  0.99999999997E+02  0.10566000000E+00 0. -1.
         22   -1    0    0    0    0 -0.00000000000E+00 -0.00000000000E+00 -0.15945073290E+02  0.15945073290E+02  0.00000000000E+00 0. -1.
         13    1    1    2    0    0 -0.15165886985E+02  0.70564192176E+01  0.52729507404E-02  0.16727473570E+02  0.10566000000E+00 0.  1.
        996    1    1    2    0    0  0.15165886985E+02 -0.70564192176E+01  0.84049597936E+02  0.99217599716E+02  0.50000000000E+02 0.  0.
<mgrwt>
<rscale>  0 0.52723782E+02</rscale>
<asrwt>0</asrwt>
<pdfrwt beam="1">  1       13 0.10000000E+01 0.52723782E+02</pdfrwt>
<pdfrwt beam="2">  1       22 0.15945097E+00 0.52723782E+02</pdfrwt>
<totfact> 0.68019913E-01</totfact>
</mgrwt>
</event>
<event>
 4    1  0.2516086E+000  0.5792617E+02  0.7957747E-01  0.1406747E+00
         13   -1    0    0    0    0  0.00000000000E+00  0.00000000000E+00  0.99999944185E+02  0.10000000000E+03  0.10566000000E+00 0. -1.
         22   -1    0    0    0    0 -0.00000000000E+00 -0.00000000000E+00 -0.19106669352E+02  0.19106669352E+02  0.00000000000E+00 0. -1.
         13    1    1    2    0    0 -0.15507799143E+02  0.24798170653E+02  0.22980634873E+02  0.37196261172E+02  0.10566000000E+00 0.  1.
        996    1    1    2    0    0  0.15507799143E+02 -0.24798170653E+02  0.57912639959E+02  0.81910408185E+02  0.50000000000E+02 0.  0.
<mgrwt>
<rscale>  0 0.57926169E+02</rscale>
<asrwt>0</asrwt>
<pdfrwt beam="1">  1       13 0.10000000E+01 0.57926169E+02</pdfrwt>
<pdfrwt beam="2">  1       22 0.19106692E+00 0.57926169E+02</pdfrwt>
<totfact> 0.49813293E-01</totfact>
</mgrwt>
</event>
<event>
 4    1  0.2516086E+000  0.5299936E+02  0.7957747E-01  0.1429804E+00
         13   -1    0    0    0    0  0.00000000000E+00  0.00000000000E+00  0.99999944183E+02  0.10000000000E+03  0.10566000000E+00 0.  1.
         22   -1    0    0    0    0 -0.00000000000E+00 -0.00000000000E+00 -0.26327602709E+02  0.26327602709E+02  0.00000000000E+00 0. -1.
         13    1    1    2    0    0 -0.22579164191E+01  0.17430843179E+02 -0.14944503583E+02  0.23071233861E+02  0.10566000000E+00 0. -1.
        996    1    1    2    0    0  0.22579164191E+01 -0.17430843179E+02  0.88616845056E+02  0.10325636885E+03  0.50000000000E+02 0.  0.
<mgrwt>
<rscale>  0 0.52999363E+02</rscale>
<asrwt>0</asrwt>
<pdfrwt beam="1">  1       13 0.10000000E+01 0.52999363E+02</pdfrwt>
<pdfrwt beam="2">  1       22 0.26327623E+00 0.52999363E+02</pdfrwt>
<totfact> 0.26666201E-01</totfact>
</mgrwt>
</event>
<event>
 4    1  0.2516086E+000  0.5191777E+02  0.7957747E-01  0.1435264E+00
         13   -1    0    0    0    0  0.00000000000E+00  0.00000000000E+00  0.99999944173E+02  0.99999999993E+02  0.10566000000E+00 0.  1.
         22   -1    0    0    0    0 -0.00000000000E+00 -0.00000000000E+00 -0.10856872866E+02  0.10856872866E+02  0.00000000000E+00 0.  1.
         13    1    1    2    0    0 -0.11587110959E+02  0.78226413983E+01  0.18672686958E+02  0.23326707035E+02  0.10566000000E+00 0. -1.
        996    1    1    2    0    0  0.11587110959E+02 -0.78226413983E+01  0.70470384349E+02  0.87530165824E+02  0.50000000000E+02 0.  0.
<mgrwt>
<rscale>  0 0.51917770E+02</rscale>
<asrwt>0</asrwt>
<pdfrwt beam="1">  1       13 0.10000000E+01 0.51917770E+02</pdfrwt>
<pdfrwt beam="2">  1       22 0.10856898E+00 0.51917770E+02</pdfrwt>
<totfact> 0.12495595E+00</totfact>
</mgrwt>
</event>
<event>
 4    1  0.2516086E+000  0.5140522E+02  0.7957747E-01  0.1437906E+00
         13   -1    0    0    0    0  0.00000000000E+00  0.00000000000E+00  0.99999944181E+02  0.10000000000E+03  0.10566000000E+00 0.  1.
         22   -1    0    0    0    0 -0.00000000000E+00 -0.00000000000E+00 -0.12655646555E+02  0.12655646555E+02  0.00000000000E+00 0.  1.
         13    1    1    2    0    0 -0.77554105470E+01  0.90747044522E+01  0.76057928864E+00  0.11961868522E+02  0.10566000000E+00 0. -1.
        996    1    1    2    0    0  0.77554105470E+01 -0.90747044522E+01  0.86583718337E+02  0.10069377803E+03  0.50000000000E+02 0.  0.
<mgrwt>
<rscale>  0 0.51405220E+02</rscale>
<asrwt>0</asrwt>
<pdfrwt beam="1">  1       13 0.10000000E+01 0.51405220E+02</pdfrwt>
<pdfrwt beam="2">  1       22 0.12655671E+00 0.51405220E+02</pdfrwt>
<totfact> 0.98877780E-01</totfact>
</mgrwt>
</event>
<event>
 4    1  0.2516086E+000  0.5298399E+02  0.7957747E-01  0.1429881E+00
         13   -1    0    0    0    0  0.00000000000E+00  0.00000000000E+00  0.99999944176E+02  0.99999999996E+02  0.10566000000E+00 0.  1.
         22   -1    0    0    0    0 -0.00000000000E+00 -0.00000000000E+00 -0.33434894600E+02  0.33434894600E+02  0.00000000000E+00 0. -1.
         13    1    1    2    0    0  0.76930524698E+01 -0.15751815998E+02 -0.23272822269E+02  0.29136543789E+02  0.10566000000E+00 0. -1.
        996    1    1    2    0    0 -0.76930524698E+01  0.15751815998E+02  0.89837871845E+02  0.10429835081E+03  0.50000000000E+02 0.  0.
<mgrwt>
<rscale>  0 0.52983986E+02</rscale>
<asrwt>0</asrwt>
<pdfrwt beam="1">  1       13 0.10000000E+01 0.52983986E+02</pdfrwt>
<pdfrwt beam="2">  1       22 0.33434913E+00 0.52983986E+02</pdfrwt>
<totfact> 0.17040729E-01</totfact>
</mgrwt>
</event>
<event>
 4    1  0.2516086E+000  0.5395253E+02  0.7957747E-01  0.1425118E+00
         13   -1    0    0    0    0  0.00000000000E+00  0.00000000000E+00  0.99999944182E+02  0.10000000000E+03  0.10566000000E+00 0. -1.
         22   -1    0    0    0    0 -0.00000000000E+00 -0.00000000000E+00 -0.27600766044E+02  0.27600766044E+02  0.00000000000E+00 0.  1.
         13    1    1    2    0    0 -0.18883143700E+02  0.73690303128E+01 -0.14773489181E+02  0.25082720554E+02  0.10566000000E+00 0.  1.
        996    1    1    2    0    0  0.18883143700E+02 -0.73690303128E+01  0.87172667320E+02  0.10251804549E+03  0.50000000000E+02 0.  0.
<mgrwt>
<rscale>  0 0.53952532E+02</rscale>
<asrwt>0</asrwt>
<pdfrwt beam="1">  1       13 0.10000000E+01 0.53952532E+02</pdfrwt>
<pdfrwt beam="2">  1       22 0.27600786E+00 0.53952532E+02</pdfrwt>
<totfact> 0.24345141E-01</totfact>
</mgrwt>
</event>
<event>
 4    1  0.2516086E+000  0.5785441E+02  0.7957747E-01  0.1407063E+00
         13   -1    0    0    0    0  0.00000000000E+00  0.00000000000E+00  0.99999944174E+02  0.99999999994E+02  0.10566000000E+00 0. -1.
         22   -1    0    0    0    0 -0.00000000000E+00 -0.00000000000E+00 -0.60108252002E+02  0.60108252002E+02  0.00000000000E+00 0.  1.
         13    1    1    2    0    0  0.37609387259E+00  0.29103112320E+02 -0.47258807992E+02  0.55502600752E+02  0.10566000000E+00 0.  1.
        996    1    1    2    0    0 -0.37609387259E+00 -0.29103112320E+02  0.87150500164E+02  0.10460565124E+03  0.50000000000E+02 0.  0.
<mgrwt>
<rscale>  0 0.57854409E+02</rscale>
<asrwt>0</asrwt>
<pdfrwt beam="1">  1       13 0.10000000E+01 0.57854409E+02</pdfrwt>
<pdfrwt beam="2">  1       22 0.60108263E+00 0.57854409E+02</pdfrwt>
<totfact> 0.64008037E-02</totfact>
</mgrwt>
</event>
<event>
 4    1  0.2516086E+000  0.5215876E+02  0.7957747E-01  0.1434034E+00
         13   -1    0    0    0    0  0.00000000000E+00  0.00000000000E+00  0.99999944181E+02  0.10000000000E+03  0.10566000000E+00 0.  1.
         22   -1    0    0    0    0 -0.00000000000E+00 -0.00000000000E+00 -0.20794554740E+02  0.20794554740E+02  0.00000000000E+00 0. -1.
         13    1    1    2    0    0 -0.12794673773E+02  0.75387661980E+01 -0.96860275127E+01  0.17730396661E+02  0.10566000000E+00 0. -1.
        996    1    1    2    0    0  0.12794673773E+02 -0.75387661980E+01  0.88891416954E+02  0.10306415808E+03  0.50000000000E+02 0.  0.
<mgrwt>
<rscale>  0 0.52158764E+02</rscale>
<asrwt>0</asrwt>
<pdfrwt beam="1">  1       13 0.10000000E+01 0.52158764E+02</pdfrwt>
<pdfrwt beam="2">  1       22 0.20794577E+00 0.52158764E+02</pdfrwt>
<totfact> 0.42123078E-01</totfact>
</mgrwt>
</event>
<event>
 4    1  0.2516086E+000  0.7903658E+02  0.7957747E-01  0.1331808E+00
         13   -1    0    0    0    0  0.00000000000E+00  0.00000000000E+00  0.99999944175E+02  0.99999999995E+02  0.10566000000E+00 0. -1.
         22   -1    0    0    0    0 -0.00000000000E+00 -0.00000000000E+00 -0.57576192088E+02  0.57576192088E+02  0.00000000000E+00 0.  1.
         13    1    1    2    0    0 -0.19946114306E+02 -0.57869971491E+02 -0.10981119277E+02  0.62188240214E+02  0.10566000000E+00 0.  1.
        996    1    1    2    0    0  0.19946114306E+02  0.57869971491E+02  0.53404871364E+02  0.95387951869E+02  0.50000000000E+02 0.  0.
<mgrwt>
<rscale>  0 0.79036581E+02</rscale>
<asrwt>0</asrwt>
<pdfrwt beam="1">  1       13 0.10000000E+01 0.79036581E+02</pdfrwt>
<pdfrwt beam="2">  1       22 0.57576204E+00 0.79036581E+02</pdfrwt>
<totfact> 0.58153037E-02</totfact>
</mgrwt>
</event>
<event>
 4    1  0.2516086E+000  0.5195674E+02  0.7957747E-01  0.1435064E+00
         13   -1    0    0    0    0  0.00000000000E+00  0.00000000000E+00  0.99999944176E+02  0.99999999996E+02  0.10566000000E+00 0.  1.
         22   -1    0    0    0    0 -0.00000000000E+00 -0.00000000000E+00 -0.16115582099E+02  0.16115582099E+02  0.00000000000E+00 0. -1.
         13    1    1    2    0    0  0.14093570621E+02  0.93490639291E+00 -0.34085341876E+01  0.14530383758E+02  0.10566000000E+00 0. -1.
        996    1    1    2    0    0 -0.14093570621E+02 -0.93490639291E+00  0.87292896265E+02  0.10158519834E+03  0.50000000000E+02 0.  0.
<mgrwt>
<rscale>  0 0.51956740E+02</rscale>
<asrwt>0</asrwt>
<pdfrwt beam="1">  1       13 0.10000000E+01 0.51956740E+02</pdfrwt>
<pdfrwt beam="2">  1       22 0.16115606E+00 0.51956740E+02</pdfrwt>
<totfact> 0.66692001E-01</totfact>
</mgrwt>
</event>
<event>
 4    1  0.2516086E+000  0.5611099E+02  0.7957747E-01  0.1414917E+00
         13   -1    0    0    0    0  0.00000000000E+00  0.00000000000E+00  0.99999944174E+02  0.99999999994E+02  0.10566000000E+00 0.  1.
         22   -1    0    0    0    0 -0.00000000000E+00 -0.00000000000E+00 -0.23670502620E+02  0.23670502620E+02  0.00000000000E+00 0. -1.
         13    1    1    2    0    0 -0.17284087143E+02  0.18700367945E+02 -0.39048870825E+01  0.25762428783E+02  0.10566000000E+00 0. -1.
        996    1    1    2    0    0  0.17284087143E+02 -0.18700367945E+02  0.80234328636E+02  0.97908073831E+02  0.50000000000E+02 0.  0.
<mgrwt>
<rscale>  0 0.56110992E+02</rscale>
<asrwt>0</asrwt>
<pdfrwt beam="1">  1       13 0.10000000E+01 0.56110992E+02</pdfrwt>
<pdfrwt beam="2">  1       22 0.23670524E+00 0.56110992E+02</pdfrwt>
<totfact> 0.33027237E-01</totfact>
</mgrwt>
</event>
<event>
 4    1  0.2516086E+000  0.5221232E+02  0.7957747E-01  0.1433762E+00
         13   -1    0    0    0    0  0.00000000000E+00  0.00000000000E+00  0.99999944171E+02  0.99999999991E+02  0.10566000000E+00 0. -1.
         22   -1    0    0    0    0 -0.00000000000E+00 -0.00000000000E+00 -0.14125798333E+02  0.14125798333E+02  0.00000000000E+00 0. -1.
         13    1    1    2    0    0  0.13552986033E+02 -0.65148154628E+01  0.17822564362E+01  0.15143112394E+02  0.10566000000E+00 0.  1.
        996    1    1    2    0    0 -0.13552986033E+02  0.65148154628E+01  0.84091889402E+02  0.98982685931E+02  0.50000000000E+02 0.  0.
<mgrwt>
<rscale>  0 0.52212319E+02</rscale>
<asrwt>0</asrwt>
<pdfrwt beam="1">  1       13 0.10000000E+01 0.52212319E+02</pdfrwt>
<pdfrwt beam="2">  1       22 0.14125822E+00 0.52212319E+02</pdfrwt>
<totfact> 0.83148694E-01</totfact>
</mgrwt>
</event>
<event>
 4    1  0.2516086E+000  0.5274726E+02  0.7957747E-01  0.1431063E+00
         13   -1    0    0    0    0  0.00000000000E+00  0.00000000000E+00  0.99999944181E+02  0.10000000000E+03  0.10566000000E+00 0. -1.
         22   -1    0    0    0    0 -0.00000000000E+00 -0.00000000000E+00 -0.19736451207E+02  0.19736451207E+02  0.00000000000E+00 0.  1.
         13    1    1    2    0    0  0.13324254835E+02  0.10234147695E+02 -0.66497507594E+01  0.18069418783E+02  0.10566000000E+00 0.  1.
        996    1    1    2    0    0 -0.13324254835E+02 -0.10234147695E+02  0.86913243733E+02  0.10166703243E+03  0.50000000000E+02 0.  0.
<mgrwt>
<rscale>  0 0.52747261E+02</rscale>
<asrwt>0</asrwt>
<pdfrwt beam="1">  1       13 0.10000000E+01 0.52747261E+02</pdfrwt>
<pdfrwt beam="2">  1       22 0.19736474E+00 0.52747261E+02</pdfrwt>
<totfact> 0.46502609E-01</totfact>
</mgrwt>
</event>
<event>
 4    1  0.2516086E+000  0.5540860E+02  0.7957747E-01  0.1418176E+00
         13   -1    0    0    0    0  0.00000000000E+00  0.00000000000E+00  0.99999944185E+02  0.10000000001E+03  0.10566000000E+00 0.  1.
         22   -1    0    0    0    0 -0.00000000000E+00 -0.00000000000E+00 -0.19153149169E+02  0.19153149169E+02  0.00000000000E+00 0. -1.
         13    1    1    2    0    0  0.21522284285E+02 -0.10339470115E+02  0.36877951062E+01  0.24160388239E+02  0.10566000000E+00 0. -1.
        996    1    1    2    0    0 -0.21522284285E+02  0.10339470115E+02  0.77158999909E+02  0.94992760935E+02  0.50000000000E+02 0.  0.
<mgrwt>
<rscale>  0 0.55408604E+02</rscale>
<asrwt>0</asrwt>
<pdfrwt beam="1">  1       13 0.10000000E+01 0.55408604E+02</pdfrwt>
<pdfrwt beam="2">  1       22 0.19153172E+00 0.55408604E+02</pdfrwt>
<totfact> 0.49382881E-01</totfact>
</mgrwt>
</event>
<event>
 4    1  0.2516086E+000  0.5303505E+02  0.7957747E-01  0.1429626E+00
         13   -1    0    0    0    0  0.00000000000E+00  0.00000000000E+00  0.99999944178E+02  0.99999999998E+02  0.10566000000E+00 0. -1.
         22   -1    0    0    0    0 -0.00000000000E+00 -0.00000000000E+00 -0.15959410798E+02  0.15959410798E+02  0.00000000000E+00 0.  1.
         13    1    1    2    0    0  0.13713136751E+02  0.11165417172E+02  0.13667471290E+01  0.17736849268E+02  0.10566000000E+00 0.  1.
        996    1    1    2    0    0 -0.13713136751E+02 -0.11165417172E+02  0.82673786251E+02  0.98222561529E+02  0.50000000000E+02 0.  0.
<mgrwt>
<rscale>  0 0.53035051E+02</rscale>
<asrwt>0</asrwt>
<pdfrwt beam="1">  1       13 0.10000000E+01 0.53035051E+02</pdfrwt>
<pdfrwt beam="2">  1       22 0.15959434E+00 0.53035051E+02</pdfrwt>
<totfact> 0.67956922E-01</totfact>
</mgrwt>
</event>
<event>
 4    1  0.2516086E+000  0.5274141E+02  0.7957747E-01  0.1431092E+00
         13   -1    0    0    0    0  0.00000000000E+00  0.00000000000E+00  0.99999944173E+02  0.99999999993E+02  0.10566000000E+00 0.  1.
         22   -1    0    0    0    0 -0.00000000000E+00 -0.00000000000E+00 -0.15561463159E+02  0.15561463159E+02  0.00000000000E+00 0. -1.
         13    1    1    2    0    0 -0.16461257434E+02 -0.32684731502E+01  0.95059418493E+00  0.16809839570E+02  0.10566000000E+00 0. -1.
        996    1    1    2    0    0  0.16461257434E+02  0.32684731502E+01  0.83487886828E+02  0.98751623582E+02  0.50000000000E+02 0.  0.
<mgrwt>
<rscale>  0 0.52741406E+02</rscale>
<asrwt>0</asrwt>
<pdfrwt beam="1">  1       13 0.10000000E+01 0.52741406E+02</pdfrwt>
<pdfrwt beam="2">  1       22 0.15561487E+00 0.52741406E+02</pdfrwt>
<totfact> 0.70896361E-01</totfact>
</mgrwt>
</event>
<event>
 4    1  0.2516086E+000  0.5710757E+02  0.7957747E-01  0.1410387E+00
         13   -1    0    0    0    0  0.00000000000E+00  0.00000000000E+00  0.99999944179E+02  0.10000000000E+03  0.10566000000E+00 0. -1.
         22   -1    0    0    0    0 -0.00000000000E+00 -0.00000000000E+00 -0.64603368216E+02  0.64603368216E+02  0.00000000000E+00 0.  1.
         13    1    1    2    0    0 -0.67536321367E+01 -0.26751874729E+02 -0.52775575564E+02  0.59552891523E+02  0.10566000000E+00 0.  1.
        996    1    1    2    0    0  0.67536321367E+01  0.26751874729E+02  0.88172151527E+02  0.10505047669E+03  0.50000000000E+02 0.  0.
<mgrwt>
<rscale>  0 0.57107568E+02</rscale>
<asrwt>0</asrwt>
<pdfrwt beam="1">  1       13 0.10000000E+01 0.57107568E+02</pdfrwt>
<pdfrwt beam="2">  1       22 0.64603378E+00 0.57107568E+02</pdfrwt>
<totfact> 0.85398158E-02</totfact>
</mgrwt>
</event>
<event>
 4    1  0.2516086E+000  0.5155784E+02  0.7957747E-01  0.1437116E+00
         13   -1    0    0    0    0  0.00000000000E+00  0.00000000000E+00  0.99999944184E+02  0.10000000000E+03  0.10566000000E+00 0.  1.
         22   -1    0    0    0    0 -0.00000000000E+00 -0.00000000000E+00 -0.10753130223E+02  0.10753130223E+02  0.00000000000E+00 0.  1.
         13    1    1    2    0    0 -0.88276583444E+01  0.89600832303E+01  0.93822205489E+01  0.15692286953E+02  0.10566000000E+00 0. -1.
        996    1    1    2    0    0  0.88276583444E+01 -0.89600832303E+01  0.79864593411E+02  0.95060843275E+02  0.50000000000E+02 0.  0.
<mgrwt>
<rscale>  0 0.51557838E+02</rscale>
<asrwt>0</asrwt>
<pdfrwt beam="1">  1       13 0.10000000E+01 0.51557838E+02</pdfrwt>
<pdfrwt beam="2">  1       22 0.10753155E+00 0.51557838E+02</pdfrwt>
<totfact> 0.12663753E+00</totfact>
</mgrwt>
</event>
<event>
 4    1  0.2516086E+000  0.5205130E+02  0.7957747E-01  0.1434581E+00
         13   -1    0    0    0    0  0.00000000000E+00  0.00000000000E+00  0.99999944178E+02  0.99999999998E+02  0.10566000000E+00 0.  1.
         22   -1    0    0    0    0 -0.00000000000E+00 -0.00000000000E+00 -0.29784671509E+02  0.29784671509E+02  0.00000000000E+00 0. -1.
         13    1    1    2    0    0 -0.13165134750E+02  0.60014273260E+01 -0.20562381520E+02  0.25142804154E+02  0.10566000000E+00 0. -1.
        996    1    1    2    0    0  0.13165134750E+02 -0.60014273260E+01  0.90777654189E+02  0.10464186735E+03  0.50000000000E+02 0.  0.
<mgrwt>
<rscale>  0 0.52051301E+02</rscale>
<asrwt>0</asrwt>
<pdfrwt beam="1">  1       13 0.10000000E+01 0.52051301E+02</pdfrwt>
<pdfrwt beam="2">  1       22 0.29784691E+00 0.52051301E+02</pdfrwt>
<totfact> 0.20985943E-01</totfact>
</mgrwt>
</event>
<event>
 4    1  0.2516086E+000  0.5147612E+02  0.7957747E-01  0.1437539E+00
         13   -1    0    0    0    0  0.00000000000E+00  0.00000000000E+00  0.99999944175E+02  0.99999999996E+02  0.10566000000E+00 0.  1.
         22   -1    0    0    0    0 -0.00000000000E+00 -0.00000000000E+00 -0.11221624063E+02  0.11221624063E+02  0.00000000000E+00 0.  1.
         13    1    1    2    0    0  0.24783442539E+01 -0.11985344085E+02  0.57309798503E+01  0.13514657123E+02  0.10566000000E+00 0. -1.
        996    1    1    2    0    0 -0.24783442539E+01  0.11985344085E+02  0.83047340262E+02  0.97706966935E+02  0.50000000000E+02 0.  0.
<mgrwt>
<rscale>  0 0.51476117E+02</rscale>
<asrwt>0</asrwt>
<pdfrwt beam="1">  1       13 0.10000000E+01 0.51476117E+02</pdfrwt>
<pdfrwt beam="2">  1       22 0.11221649E+00 0.51476117E+02</pdfrwt>
<totfact> 0.11883360E+00</totfact>
</mgrwt>
</event>
<event>
 4    1  0.2516086E+000  0.9212352E+02  0.7957747E-01  0.1297789E+00
         13   -1    0    0    0    0  0.00000000000E+00  0.00000000000E+00  0.99999944197E+02  0.10000000002E+03  0.10566000000E+00 0.  1.
         22   -1    0    0    0    0 -0.00000000000E+00 -0.00000000000E+00 -0.83144952159E+02  0.83144952159E+02  0.00000000000E+00 0. -1.
         13    1    1    2    0    0  0.38315659359E+02 -0.67220928692E+02 -0.25885890617E+02  0.81589420291E+02  0.10566000000E+00 0. -1.
        996    1    1    2    0    0 -0.38315659359E+02  0.67220928692E+02  0.42740882654E+02  0.10155553188E+03  0.50000000000E+02 0.  0.
<mgrwt>
<rscale>  0 0.92123520E+02</rscale>
<asrwt>0</asrwt>
<pdfrwt beam="1">  1       13 0.10000000E+01 0.92123520E+02</pdfrwt>
<pdfrwt beam="2">  1       22 0.83144957E+00 0.92123520E+02</pdfrwt>
<totfact> 0.22900853E-02</totfact>
</mgrwt>
</event>
<event>
 4    1  0.2516086E+000  0.5263618E+02  0.7957747E-01  0.1431620E+00
         13   -1    0    0    0    0  0.00000000000E+00  0.00000000000E+00  0.99999944175E+02  0.99999999995E+02  0.10566000000E+00 0.  1.
         22   -1    0    0    0    0 -0.00000000000E+00 -0.00000000000E+00 -0.15446286064E+02  0.15446286064E+02  0.00000000000E+00 0. -1.
         13    1    1    2    0    0 -0.16287394183E+02 -0.22995819581E+01  0.72854534379E+00  0.16465394888E+02  0.10566000000E+00 0. -1.
        996    1    1    2    0    0  0.16287394183E+02  0.22995819581E+01  0.83825112768E+02  0.98980891171E+02  0.50000000000E+02 0.  0.
<mgrwt>
<rscale>  0 0.52636178E+02</rscale>
<asrwt>0</asrwt>
<pdfrwt beam="1">  1       13 0.10000000E+01 0.52636178E+02</pdfrwt>
<pdfrwt beam="2">  1       22 0.15446310E+00 0.52636178E+02</pdfrwt>
<totfact> 0.71776060E-01</totfact>
</mgrwt>
</event>
<event>
 4    1  0.2516086E+000  0.6909774E+02  0.7957747E-01  0.1363188E+00
         13   -1    0    0    0    0  0.00000000000E+00  0.00000000000E+00  0.99999944180E+02  0.10000000000E+03  0.10566000000E+00 0. -1.
         22   -1    0    0    0    0 -0.00000000000E+00 -0.00000000000E+00 -0.34339534199E+02  0.34339534199E+02  0.00000000000E+00 0.  1.
         13    1    1    2    0    0 -0.41773108506E+02  0.23010984963E+02  0.21333395202E+02  0.52245793497E+02  0.10566000000E+00 0.  1.
        996    1    1    2    0    0  0.41773108506E+02 -0.23010984963E+02  0.44327014779E+02  0.82093740702E+02  0.50000000000E+02 0.  0.
<mgrwt>
<rscale>  0 0.69097743E+02</rscale>
<asrwt>0</asrwt>
<pdfrwt beam="1">  1       13 0.10000000E+01 0.69097743E+02</pdfrwt>
<pdfrwt beam="2">  1       22 0.34339553E+00 0.69097743E+02</pdfrwt>
<totfact> 0.16503454E-01</totfact>
</mgrwt>
</event>
<event>
 4    1  0.2516086E+000  0.5475674E+02  0.7957747E-01  0.1421253E+00
         13   -1    0    0    0    0  0.00000000000E+00  0.00000000000E+00  0.99999944176E+02  0.99999999996E+02  0.10566000000E+00 0. -1.
         22   -1    0    0    0    0 -0.00000000000E+00 -0.00000000000E+00 -0.16269623014E+02  0.16269623014E+02  0.00000000000E+00 0.  1.
         13    1    1    2    0    0  0.36448619721E+01  0.22023078630E+02  0.10076732458E+02  0.24491890744E+02  0.10566000000E+00 0.  1.
        996    1    1    2    0    0 -0.36448619721E+01 -0.22023078630E+02  0.73653588703E+02  0.91777732267E+02  0.50000000000E+02 0.  0.
<mgrwt>
<rscale>  0 0.54756744E+02</rscale>
<asrwt>0</asrwt>
<pdfrwt beam="1">  1       13 0.10000000E+01 0.54756744E+02</pdfrwt>
<pdfrwt beam="2">  1       22 0.16269646E+00 0.54756744E+02</pdfrwt>
<totfact> 0.65964814E-01</totfact>
</mgrwt>
</event>
<event>
 4    1  0.2516086E+000  0.5816294E+02  0.7957747E-01  0.1405707E+00
         13   -1    0    0    0    0  0.00000000000E+00  0.00000000000E+00  0.99999944178E+02  0.99999999999E+02  0.10566000000E+00 0. -1.
         22   -1    0    0    0    0 -0.00000000000E+00 -0.00000000000E+00 -0.26056758646E+02  0.26056758646E+02  0.00000000000E+00 0. -1.
         13    1    1    2    0    0  0.43368418053E+01 -0.29395915122E+02 -0.27069823552E+01  0.29837341373E+02  0.10566000000E+00 0.  1.
        996    1    1    2    0    0 -0.43368418053E+01  0.29395915122E+02  0.76650167888E+02  0.96219417271E+02  0.50000000000E+02 0.  0.
<mgrwt>
<rscale>  0 0.58162944E+02</rscale>
<asrwt>0</asrwt>
<pdfrwt beam="1">  1       13 0.10000000E+01 0.58162944E+02</pdfrwt>
<pdfrwt beam="2">  1       22 0.26056779E+00 0.58162944E+02</pdfrwt>
<totfact> 0.27413811E-01</totfact>
</mgrwt>
</event>
<event>
 4    1  0.2516086E+000  0.5132198E+02  0.7957747E-01  0.1438339E+00
         13   -1    0    0    0    0  0.00000000000E+00  0.00000000000E+00  0.99999944174E+02  0.99999999995E+02  0.10566000000E+00 0. -1.
         22   -1    0    0    0    0 -0.00000000000E+00 -0.00000000000E+00 -0.29986076240E+02  0.29986076240E+02  0.00000000000E+00 0.  1.
         13    1    1    2    0    0 -0.56805985675E+01  0.10083476777E+02 -0.21868252514E+02  0.24742217687E+02  0.10566000000E+00 0.  1.
        996    1    1    2    0    0  0.56805985675E+01 -0.10083476777E+02  0.91882120449E+02  0.10524385855E+03  0.50000000000E+02 0.  0.
<mgrwt>
<rscale>  0 0.51321981E+02</rscale>
<asrwt>0</asrwt>
<pdfrwt beam="1">  1       13 0.10000000E+01 0.51321981E+02</pdfrwt>
<pdfrwt beam="2">  1       22 0.29986096E+00 0.51321981E+02</pdfrwt>
<totfact> 0.20702436E-01</totfact>
</mgrwt>
</event>
<event>
 4    1  0.2516086E+000  0.5723131E+02  0.7957747E-01  0.1409832E+00
         13   -1    0    0    0    0  0.00000000000E+00  0.00000000000E+00  0.99999944187E+02  0.10000000001E+03  0.10566000000E+00 0. -1.
         22   -1    0    0    0    0 -0.00000000000E+00 -0.00000000000E+00 -0.18799962328E+02  0.18799962328E+02  0.00000000000E+00 0.  1.
         13    1    1    2    0    0  0.13037858026E+02 -0.24605621162E+02  0.16285391551E+02  0.32259068131E+02  0.10566000000E+00 0.  1.
        996    1    1    2    0    0 -0.13037858026E+02  0.24605621162E+02  0.64914590308E+02  0.86540894204E+02  0.50000000000E+02 0.  0.
<mgrwt>
<rscale>  0 0.57231306E+02</rscale>
<asrwt>0</asrwt>
<pdfrwt beam="1">  1       13 0.10000000E+01 0.57231306E+02</pdfrwt>
<pdfrwt beam="2">  1       22 0.18799985E+00 0.57231306E+02</pdfrwt>
<totfact> 0.51254816E-01</totfact>
</mgrwt>
</event>
<event>
 4    1  0.2516086E+000  0.5368050E+02  0.7957747E-01  0.1426444E+00
         13   -1    0    0    0    0  0.00000000000E+00  0.00000000000E+00  0.99999944189E+02  0.10000000001E+03  0.10566000000E+00 0.  1.
         22   -1    0    0    0    0 -0.00000000000E+00 -0.00000000000E+00 -0.19991240392E+02  0.19991240392E+02  0.00000000000E+00 0.  1.
         13    1    1    2    0    0  0.19425037902E+02  0.20649715284E+01 -0.43387465882E+01  0.20010799357E+02  0.10566000000E+00 0. -1.
        996    1    1    2    0    0 -0.19425037902E+02 -0.20649715284E+01  0.84347450385E+02  0.99980441044E+02  0.50000000000E+02 0.  0.
<mgrwt>
<rscale>  0 0.53680501E+02</rscale>
<asrwt>0</asrwt>
<pdfrwt beam="1">  1       13 0.10000000E+01 0.53680501E+02</pdfrwt>
<pdfrwt beam="2">  1       22 0.19991263E+00 0.53680501E+02</pdfrwt>
<totfact> 0.45479678E-01</totfact>
</mgrwt>
</event>
<event>
 4    1  0.2516086E+000  0.5453435E+02  0.7957747E-01  0.1422314E+00
         13   -1    0    0    0    0  0.00000000000E+00  0.00000000000E+00  0.99999944180E+02  0.10000000000E+03  0.10566000000E+00 0.  1.
         22   -1    0    0    0    0 -0.00000000000E+00 -0.00000000000E+00 -0.16983215026E+02  0.16983215026E+02  0.00000000000E+00 0. -1.
         13    1    1    2    0    0  0.20014583504E+02 -0.85680837201E+01  0.59446300808E+01  0.22568681891E+02  0.10566000000E+00 0. -1.
        996    1    1    2    0    0 -0.20014583504E+02  0.85680837201E+01  0.77072099074E+02  0.94414533135E+02  0.50000000000E+02 0.  0.
<mgrwt>
<rscale>  0 0.54534353E+02</rscale>
<asrwt>0</asrwt>
<pdfrwt beam="1">  1       13 0.10000000E+01 0.54534353E+02</pdfrwt>
<pdfrwt beam="2">  1       22 0.16983238E+00 0.54534353E+02</pdfrwt>
<totfact> 0.61196039E-01</totfact>
</mgrwt>
</event>
<event>
 4    1  0.2516086E+000  0.5332243E+02  0.7957747E-01  0.1428203E+00
         13   -1    0    0    0    0  0.00000000000E+00  0.00000000000E+00  0.99999944176E+02  0.99999999996E+02  0.10566000000E+00 0. -1.
         22   -1    0    0    0    0 -0.00000000000E+00 -0.00000000000E+00 -0.12967154062E+02  0.12967154062E+02  0.00000000000E+00 0. -1.
         13    1    1    2    0    0  0.17613184465E+02  0.57495231068E+01  0.19152659662E+02  0.26648017170E+02  0.10566000000E+00 0.  1.
        996    1    1    2    0    0 -0.17613184465E+02 -0.57495231068E+01  0.67880130452E+02  0.86319136888E+02  0.50000000000E+02 0.  0.
<mgrwt>
<rscale>  0 0.53322428E+02</rscale>
<asrwt>0</asrwt>
<pdfrwt beam="1">  1       13 0.10000000E+01 0.53322428E+02</pdfrwt>
<pdfrwt beam="2">  1       22 0.12967178E+00 0.53322428E+02</pdfrwt>
<totfact> 0.95575305E-01</totfact>
</mgrwt>
</event>
<event>
 4    1  0.2516086E+000  0.5102668E+02  0.7957747E-01  0.1439881E+00
         13   -1    0    0    0    0  0.00000000000E+00  0.00000000000E+00  0.99999944182E+02  0.10000000000E+03  0.10566000000E+00 0. -1.
         22   -1    0    0    0    0 -0.00000000000E+00 -0.00000000000E+00 -0.14392527475E+02  0.14392527475E+02  0.00000000000E+00 0.  1.
         13    1    1    2    0    0  0.45568254626E+00 -0.10174206279E+02 -0.42672312101E+01  0.11042759901E+02  0.10566000000E+00 0.  1.
        996    1    1    2    0    0 -0.45568254626E+00  0.10174206279E+02  0.89874647917E+02  0.10334976758E+03  0.50000000000E+02 0.  0.
<mgrwt>
<rscale>  0 0.51026680E+02</rscale>
<asrwt>0</asrwt>
<pdfrwt beam="1">  1       13 0.10000000E+01 0.51026680E+02</pdfrwt>
<pdfrwt beam="2">  1       22 0.14392551E+00 0.51026680E+02</pdfrwt>
<totfact> 0.80448061E-01</totfact>
</mgrwt>
</event>
<event>
 4    1  0.2516086E+000  0.5447360E+02  0.7957747E-01  0.1422605E+00
         13   -1    0    0    0    0  0.00000000000E+00  0.00000000000E+00  0.99999944182E+02  0.10000000000E+03  0.10566000000E+00 0.  1.
         22   -1    0    0    0    0 -0.00000000000E+00 -0.00000000000E+00 -0.19025541688E+02  0.19025541688E+02  0.00000000000E+00 0. -1.
         13    1    1    2    0    0  0.21370706026E+02  0.32658566191E+01  0.22528646049E+00  0.21620240829E+02  0.10566000000E+00 0. -1.
        996    1    1    2    0    0 -0.21370706026E+02 -0.32658566191E+01  0.80749116034E+02  0.97405300861E+02  0.50000000000E+02 0.  0.
<mgrwt>
<rscale>  0 0.54473598E+02</rscale>
<asrwt>0</asrwt>
<pdfrwt beam="1">  1       13 0.10000000E+01 0.54473598E+02</pdfrwt>
<pdfrwt beam="2">  1       22 0.19025564E+00 0.54473598E+02</pdfrwt>
<totfact> 0.49912051E-01</totfact>
</mgrwt>
</event>
<event>
 4    1  0.2516086E+000  0.5230513E+02  0.7957747E-01  0.1433291E+00
         13   -1    0    0    0    0  0.00000000000E+00  0.00000000000E+00  0.99999944177E+02  0.99999999997E+02  0.10566000000E+00 0.  1.
         22   -1    0    0    0    0 -0.00000000000E+00 -0.00000000000E+00 -0.37493301652E+02  0.37493301652E+02  0.00000000000E+00 0. -1.
         13    1    1    2    0    0  0.13774877836E+02 -0.67881622592E+01 -0.28587136005E+02  0.32450915476E+02  0.10566000000E+00 0. -1.
        996    1    1    2    0    0 -0.13774877836E+02  0.67881622592E+01  0.91093778529E+02  0.10504238617E+03  0.50000000000E+02 0.  0.
<mgrwt>
<rscale>  0 0.52305128E+02</rscale>
<asrwt>0</asrwt>
<pdfrwt beam="1">  1       13 0.10000000E+01 0.52305128E+02</pdfrwt>
<pdfrwt beam="2">  1       22 0.37493319E+00 0.52305128E+02</pdfrwt>
<totfact> 0.13929210E-01</totfact>
</mgrwt>
</event>
<event>
 4    1  0.2516086E+000  0.5633062E+02  0.7957747E-01  0.1413909E+00
         13   -1    0    0    0    0  0.00000000000E+00  0.00000000000E+00  0.99999944174E+02  0.99999999994E+02  0.10566000000E+00 0. -1.
         22   -1    0    0    0    0 -0.00000000000E+00 -0.00000000000E+00 -0.17302529783E+02  0.17302529783E+02  0.00000000000E+00 0.  1.
         13    1    1    2    0    0 -0.10627548160E+02  0.23668425917E+02  0.18328937880E+02  0.31766338995E+02  0.10566000000E+00 0.  1.
        996    1    1    2    0    0  0.10627548160E+02 -0.23668425917E+02  0.64368476511E+02  0.85536190783E+02  0.50000000000E+02 0.  0.
<mgrwt>
<rscale>  0 0.56330624E+02</rscale>
<asrwt>0</asrwt>
<pdfrwt beam="1">  1       13 0.10000000E+01 0.56330624E+02</pdfrwt>
<pdfrwt beam="2">  1       22 0.17302553E+00 0.56330624E+02</pdfrwt>
<totfact> 0.59413162E-01</totfact>
</mgrwt>
</event>
<event>
 4    1  0.2516086E+000  0.5132347E+02  0.7957747E-01  0.1438331E+00
         13   -1    0    0    0    0  0.00000000000E+00  0.00000000000E+00  0.99999944178E+02  0.99999999998E+02  0.10566000000E+00 0. -1.
         22   -1    0    0    0    0 -0.00000000000E+00 -0.00000000000E+00 -0.17490257032E+02  0.17490257032E+02  0.00000000000E+00 0.  1.
         13    1    1    2    0    0 -0.24124460423E+01 -0.11326034184E+02 -0.75560479972E+01  0.13827652426E+02  0.10566000000E+00 0.  1.
        996    1    1    2    0    0  0.24124460423E+01  0.11326034184E+02  0.90065735143E+02  0.10366260460E+03  0.50000000000E+02 0.  0.
<mgrwt>
<rscale>  0 0.51323474E+02</rscale>
<asrwt>0</asrwt>
<pdfrwt beam="1">  1       13 0.10000000E+01 0.51323474E+02</pdfrwt>
<pdfrwt beam="2">  1       22 0.17490280E+00 0.51323474E+02</pdfrwt>
<totfact> 0.57751986E-01</totfact>
</mgrwt>
</event>
<event>
 4    1  0.2516086E+000  0.5154341E+02  0.7957747E-01  0.1437190E+00
         13   -1    0    0    0    0  0.00000000000E+00  0.00000000000E+00  0.99999944181E+02  0.10000000000E+03  0.10566000000E+00 0.  1.
         22   -1    0    0    0    0 -0.00000000000E+00 -0.00000000000E+00 -0.10343018570E+02  0.10343018570E+02  0.00000000000E+00 0. -1.
         13    1    1    2    0    0 -0.14461339727E+01  0.12435123005E+02  0.21667425184E+02  0.25024229574E+02  0.10566000000E+00 0. -1.
        996    1    1    2    0    0  0.14461339727E+01 -0.12435123005E+02  0.67989500427E+02  0.85318788997E+02  0.50000000000E+02 0.  0.
<mgrwt>
<rscale>  0 0.51543415E+02</rscale>
<asrwt>0</asrwt>
<pdfrwt beam="1">  1       13 0.10000000E+01 0.51543415E+02</pdfrwt>
<pdfrwt beam="2">  1       22 0.10343044E+00 0.51543415E+02</pdfrwt>
<totfact> 0.13408025E+00</totfact>
</mgrwt>
</event>
<event>
 4    1  0.2516086E+000  0.5248033E+02  0.7957747E-01  0.1432405E+00
         13   -1    0    0    0    0  0.00000000000E+00  0.00000000000E+00  0.99999944173E+02  0.99999999994E+02  0.10566000000E+00 0.  1.
         22   -1    0    0    0    0 -0.00000000000E+00 -0.00000000000E+00 -0.12116828577E+02  0.12116828577E+02  0.00000000000E+00 0.  1.
         13    1    1    2    0    0 -0.13750576377E+02 -0.80688994417E+01  0.12474074241E+02  0.20243497255E+02  0.10566000000E+00 0. -1.
        996    1    1    2    0    0  0.13750576377E+02  0.80688994417E+01  0.75409041355E+02  0.91873331316E+02  0.50000000000E+02 0.  0.
<mgrwt>
<rscale>  0 0.52480334E+02</rscale>
<asrwt>0</asrwt>
<pdfrwt beam="1">  1       13 0.10000000E+01 0.52480334E+02</pdfrwt>
<pdfrwt beam="2">  1       22 0.12116853E+00 0.52480334E+02</pdfrwt>
<totfact> 0.10602056E+00</totfact>
</mgrwt>
</event>
<event>
 4    1  0.2516086E+000  0.5480288E+02  0.7957747E-01  0.1421033E+00
         13   -1    0    0    0    0  0.00000000000E+00  0.00000000000E+00  0.99999944181E+02  0.10000000000E+03  0.10566000000E+00 0.  1.
         22   -1    0    0    0    0 -0.00000000000E+00 -0.00000000000E+00 -0.19439359441E+02  0.19439359441E+02  0.00000000000E+00 0. -1.
         13    1    1    2    0    0 -0.76929159052E+01 -0.21075462675E+02  0.52860764031E+00  0.22442073704E+02  0.10566000000E+00 0. -1.
        996    1    1    2    0    0  0.76929159052E+01  0.21075462675E+02  0.80031977100E+02  0.96997285738E+02  0.50000000000E+02 0.  0.
<mgrwt>
<rscale>  0 0.54802884E+02</rscale>
<asrwt>0</asrwt>
<pdfrwt beam="1">  1       13 0.10000000E+01 0.54802884E+02</pdfrwt>
<pdfrwt beam="2">  1       22 0.19439382E+00 0.54802884E+02</pdfrwt>
<totfact> 0.48000546E-01</totfact>
</mgrwt>
</event>
<event>
 4    1  0.2516086E+000  0.5300240E+02  0.7957747E-01  0.1429789E+00
         13   -1    0    0    0    0  0.00000000000E+00  0.00000000000E+00  0.99999944178E+02  0.99999999999E+02  0.10566000000E+00 0.  1.
         22   -1    0    0    0    0 -0.00000000000E+00 -0.00000000000E+00 -0.37351681958E+02  0.37351681958E+02  0.00000000000E+00 0. -1.
         13    1    1    2    0    0  0.13516433478E+02  0.11249886314E+02 -0.27578769317E+02  0.32708616558E+02  0.10566000000E+00 0. -1.
        996    1    1    2    0    0 -0.13516433478E+02 -0.11249886314E+02  0.90227031537E+02  0.10464306540E+03  0.50000000000E+02 0.  0.
<mgrwt>
<rscale>  0 0.53002395E+02</rscale>
<asrwt>0</asrwt>
<pdfrwt beam="1">  1       13 0.10000000E+01 0.53002395E+02</pdfrwt>
<pdfrwt beam="2">  1       22 0.37351699E+00 0.53002395E+02</pdfrwt>
<totfact> 0.14032187E-01</totfact>
</mgrwt>
</event>
<event>
 4    1  0.2516086E+000  0.5245459E+02  0.7957747E-01  0.1432535E+00
         13   -1    0    0    0    0  0.00000000000E+00  0.00000000000E+00  0.99999944184E+02  0.10000000000E+03  0.10566000000E+00 0.  1.
         22   -1    0    0    0    0 -0.00000000000E+00 -0.00000000000E+00 -0.12873044978E+02  0.12873044978E+02  0.00000000000E+00 0.  1.
         13    1    1    2    0    0 -0.11656763492E+02  0.10751943073E+02  0.75522649007E+01  0.17565087079E+02  0.10566000000E+00 0. -1.
        996    1    1    2    0    0  0.11656763492E+02 -0.10751943073E+02  0.79574634305E+02  0.95307957903E+02  0.50000000000E+02 0.  0.
<mgrwt>
<rscale>  0 0.52454594E+02</rscale>
<asrwt>0</asrwt>
<pdfrwt beam="1">  1       13 0.10000000E+01 0.52454594E+02</pdfrwt>
<pdfrwt beam="2">  1       22 0.12873069E+00 0.52454594E+02</pdfrwt>
<totfact> 0.96497828E-01</totfact>
</mgrwt>
</event>
<event>
 4    1  0.2516086E+000  0.5147455E+02  0.7957747E-01  0.1437547E+00
         13   -1    0    0    0    0  0.00000000000E+00  0.00000000000E+00  0.99999944177E+02  0.99999999997E+02  0.10566000000E+00 0.  1.
         22   -1    0    0    0    0 -0.00000000000E+00 -0.00000000000E+00 -0.10170278792E+02  0.10170278792E+02  0.00000000000E+00 0.  1.
         13    1    1    2    0    0  0.51665866882E+01  0.11087624374E+02  0.15214571233E+02  0.19522381363E+02  0.10566000000E+00 0. -1.
        996    1    1    2    0    0 -0.51665866882E+01 -0.11087624374E+02  0.74615094152E+02  0.90647897425E+02  0.50000000000E+02 0.  0.
<mgrwt>
<rscale>  0 0.51474547E+02</rscale>
<asrwt>0</asrwt>
<pdfrwt beam="1">  1       13 0.10000000E+01 0.51474547E+02</pdfrwt>
<pdfrwt beam="2">  1       22 0.10170304E+00 0.51474547E+02</pdfrwt>
<totfact> 0.13739115E+00</totfact>
</mgrwt>
</event>
<event>
 4    1  0.2516086E+000  0.5462811E+02  0.7957747E-01  0.1421866E+00
         13   -1    0    0    0    0  0.00000000000E+00  0.00000000000E+00  0.99999944176E+02  0.99999999996E+02  0.10566000000E+00 0.  1.
         22   -1    0    0    0    0 -0.00000000000E+00 -0.00000000000E+00 -0.59829798719E+02  0.59829798719E+02  0.00000000000E+00 0. -1.
         13    1    1    2    0    0 -0.12208820296E+02  0.18307780432E+02 -0.49872576129E+02  0.54511605472E+02  0.10566000000E+00 0. -1.
        996    1    1    2    0    0  0.12208820296E+02 -0.18307780432E+02  0.90042721586E+02  0.10531819324E+03  0.50000000000E+02 0.  0.
<mgrwt>
<rscale>  0 0.54628107E+02</rscale>
<asrwt>0</asrwt>
<pdfrwt beam="1">  1       13 0.10000000E+01 0.54628107E+02</pdfrwt>
<pdfrwt beam="2">  1       22 0.59829810E+00 0.54628107E+02</pdfrwt>
<totfact> 0.63000682E-02</totfact>
</mgrwt>
</event>
<event>
 4    1  0.2516086E+000  0.5122461E+02  0.7957747E-01  0.1438846E+00
         13   -1    0    0    0    0  0.00000000000E+00  0.00000000000E+00  0.99999944180E+02  0.10000000000E+03  0.10566000000E+00 0.  1.
         22   -1    0    0    0    0 -0.00000000000E+00 -0.00000000000E+00 -0.13528966221E+02  0.13528966221E+02  0.00000000000E+00 0.  1.
         13    1    1    2    0    0 -0.10774112620E+02 -0.28069371148E+01  0.48510656859E+02  0.49772034232E+02  0.10566000000E+00 0. -1.
        996    1    1    2    0    0  0.10774112620E+02  0.28069371148E+01  0.37960321100E+02  0.63756931990E+02  0.50000000000E+02 0.  0.
<mgrwt>
<rscale>  0 0.51224607E+02</rscale>
<asrwt>0</asrwt>
<pdfrwt beam="1">  1       13 0.10000000E+01 0.51224607E+02</pdfrwt>
<pdfrwt beam="2">  1       22 0.13528990E+00 0.51224607E+02</pdfrwt>
<totfact> 0.88955684E-01</totfact>
</mgrwt>
</event>
<event>
 4    1  0.2516086E+000  0.5199259E+02  0.7957747E-01  0.1434881E+00
         13   -1    0    0    0    0  0.00000000000E+00  0.00000000000E+00  0.99999944174E+02  0.99999999994E+02  0.10566000000E+00 0.  1.
         22   -1    0    0    0    0 -0.00000000000E+00 -0.00000000000E+00 -0.21145670596E+02  0.21145670596E+02  0.00000000000E+00 0. -1.
         13    1    1    2    0    0  0.10525242792E+02  0.96150304000E+01 -0.10541177558E+02  0.17730119395E+02  0.10566000000E+00 0. -1.
        996    1    1    2    0    0 -0.10525242792E+02 -0.96150304000E+01  0.89395451136E+02  0.10341555120E+03  0.50000000000E+02 0.  0.
<mgrwt>
<rscale>  0 0.51992591E+02</rscale>
<asrwt>0</asrwt>
<pdfrwt beam="1">  1       13 0.10000000E+01 0.51992591E+02</pdfrwt>
<pdfrwt beam="2">  1       22 0.21145693E+00 0.51992591E+02</pdfrwt>
<totfact> 0.40795347E-01</totfact>
</mgrwt>
</event>
<event>
 4    1  0.2516086E+000  0.5456257E+02  0.7957747E-01  0.1422179E+00
         13   -1    0    0    0    0  0.00000000000E+00  0.00000000000E+00  0.99999944187E+02  0.10000000001E+03  0.10566000000E+00 0. -1.
         22   -1    0    0    0    0 -0.00000000000E+00 -0.00000000000E+00 -0.57744249922E+02  0.57744249922E+02  0.00000000000E+00 0.  1.
         13    1    1    2    0    0  0.20732634756E+02  0.68725842195E+01 -0.47740447552E+02  0.52499867183E+02  0.10566000000E+00 0.  1.
        996    1    1    2    0    0 -0.20732634756E+02 -0.68725842195E+01  0.89996141816E+02  0.10524438275E+03  0.50000000000E+02 0.  0.
<mgrwt>
<rscale>  0 0.54562575E+02</rscale>
<asrwt>0</asrwt>
<pdfrwt beam="1">  1       13 0.10000000E+01 0.54562575E+02</pdfrwt>
<pdfrwt beam="2">  1       22 0.57744262E+00 0.54562575E+02</pdfrwt>
<totfact> 0.58003402E-02</totfact>
</mgrwt>
</event>
<event>
 4    1  0.2516086E+000  0.5545707E+02  0.7957747E-01  0.1417950E+00
         13   -1    0    0    0    0  0.00000000000E+00  0.00000000000E+00  0.99999944175E+02  0.99999999995E+02  0.10566000000E+00 0.  1.
         22   -1    0    0    0    0 -0.00000000000E+00 -0.00000000000E+00 -0.15851768174E+02  0.15851768174E+02  0.00000000000E+00 0. -1.
         13    1    1    2    0    0  0.11570115690E+02  0.21014743454E+02  0.29080890764E+02  0.37698758483E+02  0.10566000000E+00 0. -1.
        996    1    1    2    0    0 -0.11570115690E+02 -0.21014743454E+02  0.55067285237E+02  0.78153009686E+02  0.50000000000E+02 0.  0.
<mgrwt>
<rscale>  0 0.55457074E+02</rscale>
<asrwt>0</asrwt>
<pdfrwt beam="1">  1       13 0.10000000E+01 0.55457074E+02</pdfrwt>
<pdfrwt beam="2">  1       22 0.15851792E+00 0.55457074E+02</pdfrwt>
<totfact> 0.69064501E-01</totfact>
</mgrwt>
</event>
<event>
 4    1  0.2516086E+000  0.5490507E+02  0.7957747E-01  0.1420548E+00
         13   -1    0    0    0    0  0.00000000000E+00  0.00000000000E+00  0.99999944180E+02  0.10000000000E+03  0.10566000000E+00 0.  1.
         22   -1    0    0    0    0 -0.00000000000E+00 -0.00000000000E+00 -0.27687113228E+02  0.27687113228E+02  0.00000000000E+00 0. -1.
         13    1    1    2    0    0 -0.67253667962E+01  0.21664169241E+02 -0.13065806356E+02  0.26178106258E+02  0.10566000000E+00 0. -1.
        996    1    1    2    0    0  0.67253667962E+01 -0.21664169241E+02  0.85378637308E+02  0.10150900697E+03  0.50000000000E+02 0.  0.
<mgrwt>
<rscale>  0 0.54905071E+02</rscale>
<asrwt>0</asrwt>
<pdfrwt beam="1">  1       13 0.10000000E+01 0.54905071E+02</pdfrwt>
<pdfrwt beam="2">  1       22 0.27687133E+00 0.54905071E+02</pdfrwt>
<totfact> 0.24229233E-01</totfact>
</mgrwt>
</event>
<event>
 4    1  0.2516086E+000  0.5208734E+02  0.7957747E-01  0.1434397E+00
         13   -1    0    0    0    0  0.00000000000E+00  0.00000000000E+00  0.99999944183E+02  0.10000000000E+03  0.10566000000E+00 0.  1.
         22   -1    0    0    0    0 -0.00000000000E+00 -0.00000000000E+00 -0.30885386956E+02  0.30885386956E+02  0.00000000000E+00 0. -1.
         13    1    1    2    0    0  0.11360150132E+02 -0.91672448374E+01 -0.21723757829E+02  0.26172967107E+02  0.10566000000E+00 0. -1.
        996    1    1    2    0    0 -0.11360150132E+02  0.91672448374E+01  0.90838315057E+02  0.10471241985E+03  0.50000000000E+02 0.  0.
<mgrwt>
<rscale>  0 0.52087344E+02</rscale>
<asrwt>0</asrwt>
<pdfrwt beam="1">  1       13 0.10000000E+01 0.52087344E+02</pdfrwt>
<pdfrwt beam="2">  1       22 0.30885406E+00 0.52087344E+02</pdfrwt>
<totfact> 0.19620859E-01</totfact>
</mgrwt>
</event>
<event>
 4    1  0.2516086E+000  0.5190600E+02  0.7957747E-01  0.1435324E+00
         13   -1    0    0    0    0  0.00000000000E+00  0.00000000000E+00  0.99999944179E+02  0.10000000000E+03  0.10566000000E+00 0.  1.
         22   -1    0    0    0    0 -0.00000000000E+00 -0.00000000000E+00 -0.13808588884E+02  0.13808588884E+02  0.00000000000E+00 0. -1.
         13    1    1    2    0    0 -0.96318864025E+01 -0.10072713362E+02  0.90215492205E+00  0.13966310811E+02  0.10566000000E+00 0. -1.
        996    1    1    2    0    0  0.96318864025E+01  0.10072713362E+02  0.85289200374E+02  0.99842278072E+02  0.50000000000E+02 0.  0.
<mgrwt>
<rscale>  0 0.51906000E+02</rscale>
<asrwt>0</asrwt>
<pdfrwt beam="1">  1       13 0.10000000E+01 0.51906000E+02</pdfrwt>
<pdfrwt beam="2">  1       22 0.13808613E+00 0.51906000E+02</pdfrwt>
<totfact> 0.86207859E-01</totfact>
</mgrwt>
</event>
<event>
 4    1  0.2516086E+000  0.5113294E+02  0.7957747E-01  0.1439325E+00
         13   -1    0    0    0    0  0.00000000000E+00  0.00000000000E+00  0.99999944180E+02  0.10000000000E+03  0.10566000000E+00 0.  1.
         22   -1    0    0    0    0 -0.00000000000E+00 -0.00000000000E+00 -0.11752258310E+02  0.11752258310E+02  0.00000000000E+00 0.  1.
         13    1    1    2    0    0 -0.34431881609E+01 -0.10135168165E+02  0.11657288693E+01  0.10767881234E+02  0.10566000000E+00 0. -1.
        996    1    1    2    0    0  0.34431881609E+01  0.10135168165E+02  0.87081957000E+02  0.10098437708E+03  0.50000000000E+02 0.  0.
<mgrwt>
<rscale>  0 0.51132936E+02</rscale>
<asrwt>0</asrwt>
<pdfrwt beam="1">  1       13 0.10000000E+01 0.51132936E+02</pdfrwt>
<pdfrwt beam="2">  1       22 0.11752283E+00 0.51132936E+02</pdfrwt>
<totfact> 0.11075195E+00</totfact>
</mgrwt>
</event>
<event>
 4    1  0.2516086E+000  0.5193313E+02  0.7957747E-01  0.1435185E+00
         13   -1    0    0    0    0  0.00000000000E+00  0.00000000000E+00  0.99999944172E+02  0.99999999992E+02  0.10566000000E+00 0.  1.
         22   -1    0    0    0    0 -0.00000000000E+00 -0.00000000000E+00 -0.11386653971E+02  0.11386653971E+02  0.00000000000E+00 0.  1.
         13    1    1    2    0    0  0.58762454533E+01 -0.12748315850E+02  0.10270178561E+02  0.17393606565E+02  0.10566000000E+00 0. -1.
        996    1    1    2    0    0 -0.58762454533E+01  0.12748315850E+02  0.78343111641E+02  0.93993047398E+02  0.50000000000E+02 0.  0.
<mgrwt>
<rscale>  0 0.51933128E+02</rscale>
<asrwt>0</asrwt>
<pdfrwt beam="1">  1       13 0.10000000E+01 0.51933128E+02</pdfrwt>
<pdfrwt beam="2">  1       22 0.11386679E+00 0.51933128E+02</pdfrwt>
<totfact> 0.11638168E+00</totfact>
</mgrwt>
</event>
<event>
 4    1  0.2516086E+000  0.5133020E+02  0.7957747E-01  0.1438296E+00
         13   -1    0    0    0    0  0.00000000000E+00  0.00000000000E+00  0.99999944178E+02  0.99999999998E+02  0.10566000000E+00 0. -1.
         22   -1    0    0    0    0 -0.00000000000E+00 -0.00000000000E+00 -0.22740058022E+02  0.22740058022E+02  0.00000000000E+00 0.  1.
         13    1    1    2    0    0 -0.26073331954E+01 -0.11313340206E+02 -0.13906734421E+02  0.18116243521E+02  0.10566000000E+00 0.  1.
        996    1    1    2    0    0  0.26073331954E+01  0.11313340206E+02  0.91166620577E+02  0.10462381450E+03  0.50000000000E+02 0.  0.
<mgrwt>
<rscale>  0 0.51330204E+02</rscale>
<asrwt>0</asrwt>
<pdfrwt beam="1">  1       13 0.10000000E+01 0.51330204E+02</pdfrwt>
<pdfrwt beam="2">  1       22 0.22740080E+00 0.51330204E+02</pdfrwt>
<totfact> 0.35440449E-01</totfact>
</mgrwt>
</event>
<event>
 4    1  0.2516086E+000  0.5423365E+02  0.7957747E-01  0.1423758E+00
         13   -1    0    0    0    0  0.00000000000E+00  0.00000000000E+00  0.99999944191E+02  0.10000000001E+03  0.10566000000E+00 0.  1.
         22   -1    0    0    0    0 -0.00000000000E+00 -0.00000000000E+00 -0.23475433351E+02  0.23475433351E+02  0.00000000000E+00 0. -1.
         13    1    1    2    0    0 -0.11876380545E+02 -0.17327450725E+02 -0.84713435260E+01  0.22650911431E+02  0.10566000000E+00 0. -1.
        996    1    1    2    0    0  0.11876380545E+02  0.17327450725E+02  0.84995854366E+02  0.10082452193E+03  0.50000000000E+02 0.  0.
<mgrwt>
<rscale>  0 0.54233652E+02</rscale>
<asrwt>0</asrwt>
<pdfrwt beam="1">  1       13 0.10000000E+01 0.54233652E+02</pdfrwt>
<pdfrwt beam="2">  1       22 0.23475455E+00 0.54233652E+02</pdfrwt>
<totfact> 0.33469762E-01</totfact>
</mgrwt>
</event>
<event>
 4    1  0.2516086E+000  0.5193561E+02  0.7957747E-01  0.1435172E+00
         13   -1    0    0    0    0  0.00000000000E+00  0.00000000000E+00  0.99999944179E+02  0.99999999999E+02  0.10566000000E+00 0.  1.
         22   -1    0    0    0    0 -0.00000000000E+00 -0.00000000000E+00 -0.42900332089E+02  0.42900332089E+02  0.00000000000E+00 0. -1.
         13    1    1    2    0    0  0.12669900223E+02 -0.60647753832E+01 -0.34695715366E+02  0.37431426648E+02  0.10566000000E+00 0. -1.
        996    1    1    2    0    0 -0.12669900223E+02  0.60647753832E+01  0.91795327456E+02  0.10546890544E+03  0.50000000000E+02 0.  0.
<mgrwt>
<rscale>  0 0.51935613E+02</rscale>
<asrwt>0</asrwt>
<pdfrwt beam="1">  1       13 0.10000000E+01 0.51935613E+02</pdfrwt>
<pdfrwt beam="2">  1       22 0.42900348E+00 0.51935613E+02</pdfrwt>
<totfact> 0.10748581E-01</totfact>
</mgrwt>
</event>
<event>
 4    1  0.2516086E+000  0.5846098E+02  0.7957747E-01  0.1404406E+00
         13   -1    0    0    0    0  0.00000000000E+00  0.00000000000E+00  0.99999944182E+02  0.10000000000E+03  0.10566000000E+00 0. -1.
         22   -1    0    0    0    0 -0.00000000000E+00 -0.00000000000E+00 -0.28391923316E+02  0.28391923316E+02  0.00000000000E+00 0.  1.
         13    1    1    2    0    0  0.28354839257E+02  0.10662502758E+02 -0.63470445138E+01  0.30951284504E+02  0.10566000000E+00 0.  1.
        996    1    1    2    0    0 -0.28354839257E+02 -0.10662502758E+02  0.77955065380E+02  0.97440638815E+02  0.50000000000E+02 0.  0.
<mgrwt>
<rscale>  0 0.58460977E+02</rscale>
<asrwt>0</asrwt>
<pdfrwt beam="1">  1       13 0.10000000E+01 0.58460977E+02</pdfrwt>
<pdfrwt beam="2">  1       22 0.28391943E+00 0.58460977E+02</pdfrwt>
<totfact> 0.23182307E-01</totfact>
</mgrwt>
</event>
<event>
 4    1  0.2516086E+000  0.5402335E+02  0.7957747E-01  0.1424775E+00
         13   -1    0    0    0    0  0.00000000000E+00  0.00000000000E+00  0.99999944185E+02  0.10000000001E+03  0.10566000000E+00 0.  1.
         22   -1    0    0    0    0 -0.00000000000E+00 -0.00000000000E+00 -0.22467807023E+02  0.22467807023E+02  0.00000000000E+00 0. -1.
         13    1    1    2    0    0 -0.18766957861E+02 -0.81439193186E+01 -0.74461762407E+01  0.21771054956E+02  0.10566000000E+00 0. -1.
        996    1    1    2    0    0  0.18766957861E+02  0.81439193186E+01  0.84978313403E+02  0.10069675207E+03  0.50000000000E+02 0.  0.
<mgrwt>
<rscale>  0 0.54023348E+02</rscale>
<asrwt>0</asrwt>
<pdfrwt beam="1">  1       13 0.10000000E+01 0.54023348E+02</pdfrwt>
<pdfrwt beam="2">  1       22 0.22467829E+00 0.54023348E+02</pdfrwt>
<totfact> 0.36439031E-01</totfact>
</mgrwt>
</event>
<event>
 4    1  0.2516086E+000  0.5223100E+02  0.7957747E-01  0.1433667E+00
         13   -1    0    0    0    0  0.00000000000E+00  0.00000000000E+00  0.99999944187E+02  0.10000000001E+03  0.10566000000E+00 0.  1.
         22   -1    0    0    0    0 -0.00000000000E+00 -0.00000000000E+00 -0.21385745062E+02  0.21385745062E+02  0.00000000000E+00 0.  1.
         13    1    1    2    0    0 -0.80960835719E+01  0.12748766486E+02 -0.10289343354E+02  0.18274555174E+02  0.10566000000E+00 0. -1.
        996    1    1    2    0    0  0.80960835719E+01 -0.12748766486E+02  0.88903542479E+02  0.10311118989E+03  0.50000000000E+02 0.  0.
<mgrwt>
<rscale>  0 0.52231002E+02</rscale>
<asrwt>0</asrwt>
<pdfrwt beam="1">  1       13 0.10000000E+01 0.52231002E+02</pdfrwt>
<pdfrwt beam="2">  1       22 0.21385767E+00 0.52231002E+02</pdfrwt>
<totfact> 0.39944444E-01</totfact>
</mgrwt>
</event>
<event>
 4    1  0.2516086E+000  0.5113722E+02  0.7957747E-01  0.1439302E+00
         13   -1    0    0    0    0  0.00000000000E+00  0.00000000000E+00  0.99999944172E+02  0.99999999992E+02  0.10566000000E+00 0. -1.
         22   -1    0    0    0    0 -0.00000000000E+00 -0.00000000000E+00 -0.10802839697E+02  0.10802839697E+02  0.00000000000E+00 0. -1.
         13    1    1    2    0    0  0.32072331317E+01  0.10233735876E+02  0.40190399021E+01  0.11453363703E+02  0.10566000000E+00 0.  1.
        996    1    1    2    0    0 -0.32072331317E+01 -0.10233735876E+02  0.85178064573E+02  0.99349475986E+02  0.50000000000E+02 0.  0.
<mgrwt>
<rscale>  0 0.51137224E+02</rscale>
<asrwt>0</asrwt>
<pdfrwt beam="1">  1       13 0.10000000E+01 0.51137224E+02</pdfrwt>
<pdfrwt beam="2">  1       22 0.10802865E+00 0.51137224E+02</pdfrwt>
<totfact> 0.12565214E+00</totfact>
</mgrwt>
</event>
<event>
 4    1  0.2516086E+000  0.5169430E+02  0.7957747E-01  0.1436411E+00
         13   -1    0    0    0    0  0.00000000000E+00  0.00000000000E+00  0.99999944180E+02  0.10000000000E+03  0.10566000000E+00 0. -1.
         22   -1    0    0    0    0 -0.00000000000E+00 -0.00000000000E+00 -0.18842032684E+02  0.18842032684E+02  0.00000000000E+00 0.  1.
         13    1    1    2    0    0 -0.12193025155E+02  0.48611708213E+01 -0.82938366681E+01  0.15527386609E+02  0.10566000000E+00 0.  1.
        996    1    1    2    0    0  0.12193025155E+02 -0.48611708213E+01  0.89451748164E+02  0.10331464608E+03  0.50000000000E+02 0.  0.
<mgrwt>
<rscale>  0 0.51694302E+02</rscale>
<asrwt>0</asrwt>
<pdfrwt beam="1">  1       13 0.10000000E+01 0.51694302E+02</pdfrwt>
<pdfrwt beam="2">  1       22 0.18842055E+00 0.51694302E+02</pdfrwt>
<totfact> 0.50550709E-01</totfact>
</mgrwt>
</event>
<event>
 4    1  0.2516086E+000  0.5540470E+02  0.7957747E-01  0.1418195E+00
         13   -1    0    0    0    0  0.00000000000E+00  0.00000000000E+00  0.99999944183E+02  0.10000000000E+03  0.10566000000E+00 0. -1.
         22   -1    0    0    0    0 -0.00000000000E+00 -0.00000000000E+00 -0.19389465350E+02  0.19389465350E+02  0.00000000000E+00 0.  1.
         13    1    1    2    0    0 -0.22580901329E+02  0.77319738267E+01  0.30350381124E+01  0.24060406158E+02  0.10566000000E+00 0.  1.
        996    1    1    2    0    0  0.22580901329E+02 -0.77319738267E+01  0.77575440720E+02  0.95329059195E+02  0.50000000000E+02 0.  0.
<mgrwt>
<rscale>  0 0.55404698E+02</rscale>
<asrwt>0</asrwt>
<pdfrwt beam="1">  1       13 0.10000000E+01 0.55404698E+02</pdfrwt>
<pdfrwt beam="2">  1       22 0.19389488E+00 0.55404698E+02</pdfrwt>
<totfact> 0.48278776E-01</totfact>
</mgrwt>
</event>
<event>
 4    1  0.2516086E+000  0.5205478E+02  0.7957747E-01  0.1434564E+00
         13   -1    0    0    0    0  0.00000000000E+00  0.00000000000E+00  0.99999944175E+02  0.99999999996E+02  0.10566000000E+00 0.  1.
         22   -1    0    0    0    0 -0.00000000000E+00 -0.00000000000E+00 -0.13369761333E+02  0.13369761333E+02  0.00000000000E+00 0.  1.
         13    1    1    2    0    0 -0.62606191659E+01 -0.13057764389E+02  0.28869835923E+01  0.14766394329E+02  0.10566000000E+00 0. -1.
        996    1    1    2    0    0  0.62606191659E+01  0.13057764389E+02  0.83743199250E+02  0.98603367000E+02  0.50000000000E+02 0.  0.
<mgrwt>
<rscale>  0 0.52054784E+02</rscale>
<asrwt>0</asrwt>
<pdfrwt beam="1">  1       13 0.10000000E+01 0.52054784E+02</pdfrwt>
<pdfrwt beam="2">  1       22 0.13369786E+00 0.52054784E+02</pdfrwt>
<totfact> 0.90813310E-01</totfact>
</mgrwt>
</event>
<event>
 4    1  0.2516086E+000  0.5243002E+02  0.7957747E-01  0.1432659E+00
         13   -1    0    0    0    0  0.00000000000E+00  0.00000000000E+00  0.99999944176E+02  0.99999999997E+02  0.10566000000E+00 0. -1.
         22   -1    0    0    0    0 -0.00000000000E+00 -0.00000000000E+00 -0.11759437928E+02  0.11759437928E+02  0.00000000000E+00 0. -1.
         13    1    1    2    0    0  0.12623237101E+02 -0.94636408562E+01  0.15725644410E+02  0.22275853953E+02  0.10566000000E+00 0.  1.
        996    1    1    2    0    0 -0.12623237101E+02  0.94636408562E+01  0.72514861838E+02  0.89483583972E+02  0.50000000000E+02 0.  0.
<mgrwt>
<rscale>  0 0.52430016E+02</rscale>
<asrwt>0</asrwt>
<pdfrwt beam="1">  1       13 0.10000000E+01 0.52430016E+02</pdfrwt>
<pdfrwt beam="2">  1       22 0.11759463E+00 0.52430016E+02</pdfrwt>
<totfact> 0.11097450E+00</totfact>
</mgrwt>
</event>
<event>
 4    1  0.2516086E+000  0.5270918E+02  0.7957747E-01  0.1431254E+00
         13   -1    0    0    0    0  0.00000000000E+00  0.00000000000E+00  0.99999944180E+02  0.10000000000E+03  0.10566000000E+00 0.  1.
         22   -1    0    0    0    0 -0.00000000000E+00 -0.00000000000E+00 -0.30695056076E+02  0.30695056076E+02  0.00000000000E+00 0. -1.
         13    1    1    2    0    0  0.16252571629E+02 -0.37565182390E+01 -0.20582367217E+02  0.26493442926E+02  0.10566000000E+00 0. -1.
        996    1    1    2    0    0 -0.16252571629E+02  0.37565182390E+01  0.89887255321E+02  0.10420161315E+03  0.50000000000E+02 0.  0.
<mgrwt>
<rscale>  0 0.52709179E+02</rscale>
<asrwt>0</asrwt>
<pdfrwt beam="1">  1       13 0.10000000E+01 0.52709179E+02</pdfrwt>
<pdfrwt beam="2">  1       22 0.30695075E+00 0.52709179E+02</pdfrwt>
<totfact> 0.19860415E-01</totfact>
</mgrwt>
</event>
<event>
 4    1  0.2516086E+000  0.5237808E+02  0.7957747E-01  0.1432921E+00
         13   -1    0    0    0    0  0.00000000000E+00  0.00000000000E+00  0.99999944174E+02  0.99999999994E+02  0.10566000000E+00 0. -1.
         22   -1    0    0    0    0 -0.00000000000E+00 -0.00000000000E+00 -0.15713392968E+02  0.15713392968E+02  0.00000000000E+00 0.  1.
         13    1    1    2    0    0  0.14495731813E+02 -0.57738054768E+01 -0.99067881167E+00  0.15635078479E+02  0.10566000000E+00 0.  1.
        996    1    1    2    0    0 -0.14495731813E+02  0.57738054768E+01  0.85277230018E+02  0.10007831448E+03  0.50000000000E+02 0.  0.
<mgrwt>
<rscale>  0 0.52378078E+02</rscale>
<asrwt>0</asrwt>
<pdfrwt beam="1">  1       13 0.10000000E+01 0.52378078E+02</pdfrwt>
<pdfrwt beam="2">  1       22 0.15713416E+00 0.52378078E+02</pdfrwt>
<totfact> 0.69688629E-01</totfact>
</mgrwt>
</event>
<event>
 4    1  0.2516086E+000  0.5099022E+02  0.7957747E-01  0.1440073E+00
         13   -1    0    0    0    0  0.00000000000E+00  0.00000000000E+00  0.99999944186E+02  0.10000000001E+03  0.10566000000E+00 0.  1.
         22   -1    0    0    0    0 -0.00000000000E+00 -0.00000000000E+00 -0.26965879488E+02  0.26965879488E+02  0.00000000000E+00 0. -1.
         13    1    1    2    0    0 -0.97173109982E+01  0.23614122532E+01 -0.19158636626E+02  0.21611731126E+02  0.10566000000E+00 0. -1.
        996    1    1    2    0    0  0.97173109982E+01 -0.23614122532E+01  0.92192701324E+02  0.10535414837E+03  0.50000000000E+02 0.  0.
<mgrwt>
<rscale>  0 0.50990219E+02</rscale>
<asrwt>0</asrwt>
<pdfrwt beam="1">  1       13 0.10000000E+01 0.50990219E+02</pdfrwt>
<pdfrwt beam="2">  1       22 0.26965900E+00 0.50990219E+02</pdfrwt>
<totfact> 0.25366966E-01</totfact>
</mgrwt>
</event>
<event>
 4    1  0.2516086E+000  0.6848443E+02  0.7957747E-01  0.1365324E+00
         13   -1    0    0    0    0  0.00000000000E+00  0.00000000000E+00  0.99999944174E+02  0.99999999994E+02  0.10566000000E+00 0.  1.
         22   -1    0    0    0    0 -0.00000000000E+00 -0.00000000000E+00 -0.40230515596E+02  0.40230515596E+02  0.00000000000E+00 0. -1.
         13    1    1    2    0    0  0.35696933357E+02 -0.30262948439E+02 -0.35848655022E+01  0.46935908684E+02  0.10566000000E+00 0. -1.
        996    1    1    2    0    0 -0.35696933357E+02  0.30262948439E+02  0.63354294080E+02  0.93294606906E+02  0.50000000000E+02 0.  0.
<mgrwt>
<rscale>  0 0.68484430E+02</rscale>
<asrwt>0</asrwt>
<pdfrwt beam="1">  1       13 0.10000000E+01 0.68484430E+02</pdfrwt>
<pdfrwt beam="2">  1       22 0.40230532E+00 0.68484430E+02</pdfrwt>
<totfact> 0.12369206E-01</totfact>
</mgrwt>
</event>
<event>
 4    1  0.2516086E+000  0.5260676E+02  0.7957747E-01  0.1431768E+00
         13   -1    0    0    0    0  0.00000000000E+00  0.00000000000E+00  0.99999944182E+02  0.10000000000E+03  0.10566000000E+00 0. -1.
         22   -1    0    0    0    0 -0.00000000000E+00 -0.00000000000E+00 -0.14026601147E+02  0.14026601147E+02  0.00000000000E+00 0.  1.
         13    1    1    2    0    0  0.16015657232E+02  0.33120527593E+01  0.43573055987E+01  0.16925372851E+02  0.10566000000E+00 0.  1.
        996    1    1    2    0    0 -0.16015657232E+02 -0.33120527593E+01  0.81616037437E+02  0.97101228298E+02  0.50000000000E+02 0.  0.
<mgrwt>
<rscale>  0 0.52606758E+02</rscale>
<asrwt>0</asrwt>
<pdfrwt beam="1">  1       13 0.10000000E+01 0.52606758E+02</pdfrwt>
<pdfrwt beam="2">  1       22 0.14026625E+00 0.52606758E+02</pdfrwt>
<totfact> 0.84175030E-01</totfact>
</mgrwt>
</event>
<event>
 4    1  0.2516086E+000  0.5171536E+02  0.7957747E-01  0.1436303E+00
         13   -1    0    0    0    0  0.00000000000E+00  0.00000000000E+00  0.99999944180E+02  0.10000000000E+03  0.10566000000E+00 0. -1.
         22   -1    0    0    0    0 -0.00000000000E+00 -0.00000000000E+00 -0.11661711502E+02  0.11661711502E+02  0.00000000000E+00 0.  1.
         13    1    1    2    0    0  0.84467505062E+01 -0.10155343219E+02  0.61836473596E+01  0.14585172221E+02  0.10566000000E+00 0.  1.
        996    1    1    2    0    0 -0.84467505062E+01  0.10155343219E+02  0.82154585318E+02  0.97076539281E+02  0.50000000000E+02 0.  0.
<mgrwt>
<rscale>  0 0.51715361E+02</rscale>
<asrwt>0</asrwt>
<pdfrwt beam="1">  1       13 0.10000000E+01 0.51715361E+02</pdfrwt>
<pdfrwt beam="2">  1       22 0.11661736E+00 0.51715361E+02</pdfrwt>
<totfact> 0.11220786E+00</totfact>
</mgrwt>
</event>
<event>
 4    1  0.2516086E+000  0.5171422E+02  0.7957747E-01  0.1436309E+00
         13   -1    0    0    0    0  0.00000000000E+00  0.00000000000E+00  0.99999944179E+02  0.99999999999E+02  0.10566000000E+00 0.  1.
         22   -1    0    0    0    0 -0.00000000000E+00 -0.00000000000E+00 -0.13847700884E+02  0.13847700884E+02  0.00000000000E+00 0.  1.
         13    1    1    2    0    0 -0.12675592043E+02 -0.36999364697E+01 -0.18624201276E+00  0.13206286899E+02  0.10566000000E+00 0. -1.
        996    1    1    2    0    0  0.12675592043E+02  0.36999364697E+01  0.86338485308E+02  0.10064141398E+03  0.50000000000E+02 0.  0.
<mgrwt>
<rscale>  0 0.51714216E+02</rscale>
<asrwt>0</asrwt>
<pdfrwt beam="1">  1       13 0.10000000E+01 0.51714216E+02</pdfrwt>
<pdfrwt beam="2">  1       22 0.13847725E+00 0.51714216E+02</pdfrwt>
<totfact> 0.85780600E-01</totfact>
</mgrwt>
</event>
<event>
 4    1  0.2516086E+000  0.5153957E+02  0.7957747E-01  0.1437210E+00
         13   -1    0    0    0    0  0.00000000000E+00  0.00000000000E+00  0.99999944183E+02  0.10000000000E+03  0.10566000000E+00 0. -1.
         22   -1    0    0    0    0 -0.00000000000E+00 -0.00000000000E+00 -0.11798549021E+02  0.11798549021E+02  0.00000000000E+00 0.  1.
         13    1    1    2    0    0  0.23984092645E+01  0.12270901631E+02  0.40956077245E+01  0.13157224651E+02  0.10566000000E+00 0.  1.
        996    1    1    2    0    0 -0.23984092645E+01 -0.12270901631E+02  0.84105787437E+02  0.98641324374E+02  0.50000000000E+02 0.  0.
<mgrwt>
<rscale>  0 0.51539571E+02</rscale>
<asrwt>0</asrwt>
<pdfrwt beam="1">  1       13 0.10000000E+01 0.51539571E+02</pdfrwt>
<pdfrwt beam="2">  1       22 0.11798574E+00 0.51539571E+02</pdfrwt>
<totfact> 0.11019454E+00</totfact>
</mgrwt>
</event>
<event>
 4    1  0.2516086E+000  0.5821473E+02  0.7957747E-01  0.1405480E+00
         13   -1    0    0    0    0  0.00000000000E+00  0.00000000000E+00  0.99999944182E+02  0.10000000000E+03  0.10566000000E+00 0.  1.
         22   -1    0    0    0    0 -0.00000000000E+00 -0.00000000000E+00 -0.22600552732E+02  0.22600552732E+02  0.00000000000E+00 0. -1.
         13    1    1    2    0    0 -0.28557818101E+02 -0.85677046689E+01  0.58907670102E+01  0.30391887700E+02  0.10566000000E+00 0. -1.
        996    1    1    2    0    0  0.28557818101E+02  0.85677046689E+01  0.71508624441E+02  0.92208665034E+02  0.50000000000E+02 0.  0.
<mgrwt>
<rscale>  0 0.58214728E+02</rscale>
<asrwt>0</asrwt>
<pdfrwt beam="1">  1       13 0.10000000E+01 0.58214728E+02</pdfrwt>
<pdfrwt beam="2">  1       22 0.22600574E+00 0.58214728E+02</pdfrwt>
<totfact> 0.36260072E-01</totfact>
</mgrwt>
</event>
<event>
 4    1  0.2516086E+000  0.5141925E+02  0.7957747E-01  0.1437833E+00
         13   -1    0    0    0    0  0.00000000000E+00  0.00000000000E+00  0.99999944175E+02  0.99999999995E+02  0.10566000000E+00 0. -1.
         22   -1    0    0    0    0 -0.00000000000E+00 -0.00000000000E+00 -0.10997445519E+02  0.10997445519E+02  0.00000000000E+00 0. -1.
         13    1    1    2    0    0  0.15201592557E+01 -0.11900762370E+02  0.61405470118E+01  0.13478000993E+02  0.10566000000E+00 0.  1.
        996    1    1    2    0    0 -0.15201592557E+01  0.11900762370E+02  0.82861951644E+02  0.97519444520E+02  0.50000000000E+02 0.  0.
<mgrwt>
<rscale>  0 0.51419248E+02</rscale>
<asrwt>0</asrwt>
<pdfrwt beam="1">  1       13 0.10000000E+01 0.51419248E+02</pdfrwt>
<pdfrwt beam="2">  1       22 0.10997470E+00 0.51419248E+02</pdfrwt>
<totfact> 0.12244940E+00</totfact>
</mgrwt>
</event>
<event>
 4    1  0.2516086E+000  0.5103383E+02  0.7957747E-01  0.1439844E+00
         13   -1    0    0    0    0  0.00000000000E+00  0.00000000000E+00  0.99999944174E+02  0.99999999994E+02  0.10566000000E+00 0.  1.
         22   -1    0    0    0    0 -0.00000000000E+00 -0.00000000000E+00 -0.17799741211E+02  0.17799741211E+02  0.00000000000E+00 0.  1.
         13    1    1    2    0    0  0.88556959463E+01 -0.51018585696E+01 -0.87862457704E+01  0.13478189431E+02  0.10566000000E+00 0. -1.
        996    1    1    2    0    0 -0.88556959463E+01  0.51018585696E+01  0.90986448733E+02  0.10432155177E+03  0.50000000000E+02 0.  0.
<mgrwt>
<rscale>  0 0.51033835E+02</rscale>
<asrwt>0</asrwt>
<pdfrwt beam="1">  1       13 0.10000000E+01 0.51033835E+02</pdfrwt>
<pdfrwt beam="2">  1       22 0.17799764E+00 0.51033835E+02</pdfrwt>
<totfact> 0.55947333E-01</totfact>
</mgrwt>
</event>
<event>
 4    1  0.2516086E+000  0.5454629E+02  0.7957747E-01  0.1422257E+00
         13   -1    0    0    0    0  0.00000000000E+00  0.00000000000E+00  0.99999944183E+02  0.10000000000E+03  0.10566000000E+00 0.  1.
         22   -1    0    0    0    0 -0.00000000000E+00 -0.00000000000E+00 -0.17070401336E+02  0.17070401336E+02  0.00000000000E+00 0. -1.
         13    1    1    2    0    0  0.16046343377E+02 -0.14758471439E+02  0.57248105849E+01  0.22540679565E+02  0.10566000000E+00 0. -1.
        996    1    1    2    0    0 -0.16046343377E+02  0.14758471439E+02  0.77204732263E+02  0.94529721774E+02  0.50000000000E+02 0.  0.
<mgrwt>
<rscale>  0 0.54546289E+02</rscale>
<asrwt>0</asrwt>
<pdfrwt beam="1">  1       13 0.10000000E+01 0.54546289E+02</pdfrwt>
<pdfrwt beam="2">  1       22 0.17070424E+00 0.54546289E+02</pdfrwt>
<totfact> 0.60649765E-01</totfact>
</mgrwt>
</event>
<event>
 4    1  0.2516086E+000  0.5201947E+02  0.7957747E-01  0.1434744E+00
         13   -1    0    0    0    0  0.00000000000E+00  0.00000000000E+00  0.99999944168E+02  0.99999999989E+02  0.10566000000E+00 0. -1.
         22   -1    0    0    0    0 -0.00000000000E+00 -0.00000000000E+00 -0.18075047165E+02  0.18075047165E+02  0.00000000000E+00 0.  1.
         13    1    1    2    0    0  0.14335684205E+02  0.71637068354E+00 -0.62844499026E+01  0.15669412982E+02  0.10566000000E+00 0.  1.
        996    1    1    2    0    0 -0.14335684205E+02 -0.71637068354E+00  0.88209346906E+02  0.10240563417E+03  0.50000000000E+02 0.  0.
<mgrwt>
<rscale>  0 0.52019468E+02</rscale>
<asrwt>0</asrwt>
<pdfrwt beam="1">  1       13 0.10000000E+01 0.52019468E+02</pdfrwt>
<pdfrwt beam="2">  1       22 0.18075070E+00 0.52019468E+02</pdfrwt>
<totfact> 0.54533752E-01</totfact>
</mgrwt>
</event>
<event>
 4    1  0.2516086E+000  0.5099411E+02  0.7957747E-01  0.1440052E+00
         13   -1    0    0    0    0  0.00000000000E+00  0.00000000000E+00  0.99999944182E+02  0.10000000000E+03  0.10566000000E+00 0.  1.
         22   -1    0    0    0    0 -0.00000000000E+00 -0.00000000000E+00 -0.11775707272E+02  0.11775707272E+02  0.00000000000E+00 0.  1.
         13    1    1    2    0    0  0.59104375630E+01 -0.80910895314E+01  0.17067361624E+00  0.10021940706E+02  0.10566000000E+00 0. -1.
        996    1    1    2    0    0 -0.59104375630E+01  0.80910895314E+01  0.88053563294E+02  0.10175376657E+03  0.50000000000E+02 0.  0.
<mgrwt>
<rscale>  0 0.50994108E+02</rscale>
<asrwt>0</asrwt>
<pdfrwt beam="1">  1       13 0.10000000E+01 0.50994108E+02</pdfrwt>
<pdfrwt beam="2">  1       22 0.11775732E+00 0.50994108E+02</pdfrwt>
<totfact> 0.11038197E+00</totfact>
</mgrwt>
</event>
<event>
 4    1  0.2516086E+000  0.7333211E+02  0.7957747E-01  0.1349115E+00
         13   -1    0    0    0    0  0.00000000000E+00  0.00000000000E+00  0.99999944179E+02  0.99999999999E+02  0.10566000000E+00 0.  1.
         22   -1    0    0    0    0 -0.00000000000E+00 -0.00000000000E+00 -0.62916555760E+02  0.62916555760E+02  0.00000000000E+00 0. -1.
         13    1    1    2    0    0  0.25807965327E+01 -0.53581130964E+02 -0.31754099159E+02  0.62337244754E+02  0.10566000000E+00 0. -1.
        996    1    1    2    0    0 -0.25807965327E+01  0.53581130964E+02  0.68837487578E+02  0.10057931100E+03  0.50000000000E+02 0.  0.
<mgrwt>
<rscale>  0 0.73332108E+02</rscale>
<asrwt>0</asrwt>
<pdfrwt beam="1">  1       13 0.10000000E+01 0.73332108E+02</pdfrwt>
<pdfrwt beam="2">  1       22 0.62916566E+00 0.73332108E+02</pdfrwt>
<totfact> 0.78313862E-02</totfact>
</mgrwt>
</event>
<event>
 4    1  0.2516086E+000  0.5116860E+02  0.7957747E-01  0.1439138E+00
         13   -1    0    0    0    0  0.00000000000E+00  0.00000000000E+00  0.99999944175E+02  0.99999999996E+02  0.10566000000E+00 0. -1.
         22   -1    0    0    0    0 -0.00000000000E+00 -0.00000000000E+00 -0.97136280821E+01  0.97136280821E+01  0.00000000000E+00 0. -1.
         13    1    1    2    0    0  0.81979225689E+01 -0.71427931088E+01  0.20138010232E+02  0.22886154067E+02  0.10566000000E+00 0.  1.
        996    1    1    2    0    0 -0.81979225689E+01  0.71427931088E+01  0.70148305861E+02  0.86827474011E+02  0.50000000000E+02 0.  0.
<mgrwt>
<rscale>  0 0.51168598E+02</rscale>
<asrwt>0</asrwt>
<pdfrwt beam="1">  1       13 0.10000000E+01 0.51168598E+02</pdfrwt>
<pdfrwt beam="2">  1       22 0.97136533E-01 0.51168598E+02</pdfrwt>
<totfact> 0.14671737E+00</totfact>
</mgrwt>
</event>
<event>
 4    1  0.2516086E+000  0.5154982E+02  0.7957747E-01  0.1437157E+00
         13   -1    0    0    0    0  0.00000000000E+00  0.00000000000E+00  0.99999944185E+02  0.10000000001E+03  0.10566000000E+00 0.  1.
         22   -1    0    0    0    0 -0.00000000000E+00 -0.00000000000E+00 -0.10315695011E+02  0.10315695011E+02  0.00000000000E+00 0.  1.
         13    1    1    2    0    0  0.64210157971E+01  0.10777487814E+02  0.20572383865E+02  0.24096012727E+02  0.10566000000E+00 0. -1.
        996    1    1    2    0    0 -0.64210157971E+01 -0.10777487814E+02  0.69111865310E+02  0.86219682289E+02  0.50000000000E+02 0.  0.
<mgrwt>
<rscale>  0 0.51549818E+02</rscale>
<asrwt>0</asrwt>
<pdfrwt beam="1">  1       13 0.10000000E+01 0.51549818E+02</pdfrwt>
<pdfrwt beam="2">  1       22 0.10315720E+00 0.51549818E+02</pdfrwt>
<totfact> 0.13460150E+00</totfact>
</mgrwt>
</event>
<event>
 4    1  0.2516086E+000  0.5160882E+02  0.7957747E-01  0.1436852E+00
         13   -1    0    0    0    0  0.00000000000E+00  0.00000000000E+00  0.99999944181E+02  0.10000000000E+03  0.10566000000E+00 0. -1.
         22   -1    0    0    0    0 -0.00000000000E+00 -0.00000000000E+00 -0.13186545821E+02  0.13186545821E+02  0.00000000000E+00 0. -1.
         13    1    1    2    0    0 -0.92099609871E+01  0.88682959905E+01  0.44951014379E+02  0.46734087269E+02  0.10566000000E+00 0.  1.
        996    1    1    2    0    0  0.92099609871E+01 -0.88682959905E+01  0.41862383982E+02  0.66452458554E+02  0.50000000000E+02 0.  0.
<mgrwt>
<rscale>  0 0.51608818E+02</rscale>
<asrwt>0</asrwt>
<pdfrwt beam="1">  1       13 0.10000000E+01 0.51608818E+02</pdfrwt>
<pdfrwt beam="2">  1       22 0.13186570E+00 0.51608818E+02</pdfrwt>
<totfact> 0.92735495E-01</totfact>
</mgrwt>
</event>
<event>
 4    1  0.2516086E+000  0.6010142E+02  0.7957747E-01  0.1397407E+00
         13   -1    0    0    0    0  0.00000000000E+00  0.00000000000E+00  0.99999944179E+02  0.99999999999E+02  0.10566000000E+00 0.  1.
         22   -1    0    0    0    0 -0.00000000000E+00 -0.00000000000E+00 -0.23685560638E+02  0.23685560638E+02  0.00000000000E+00 0. -1.
         13    1    1    2    0    0 -0.26989322799E+02 -0.19589714569E+02  0.11457685235E+02  0.35262872501E+02  0.10566000000E+00 0. -1.
        996    1    1    2    0    0  0.26989322799E+02  0.19589714569E+02  0.64856698306E+02  0.88422688136E+02  0.50000000000E+02 0.  0.
<mgrwt>
<rscale>  0 0.60101418E+02</rscale>
<asrwt>0</asrwt>
<pdfrwt beam="1">  1       13 0.10000000E+01 0.60101418E+02</pdfrwt>
<pdfrwt beam="2">  1       22 0.23685582E+00 0.60101418E+02</pdfrwt>
<totfact> 0.33177088E-01</totfact>
</mgrwt>
</event>
<event>
 4    1  0.2516086E+000  0.5270253E+02  0.7957747E-01  0.1431287E+00
         13   -1    0    0    0    0  0.00000000000E+00  0.00000000000E+00  0.99999944177E+02  0.99999999997E+02  0.10566000000E+00 0.  1.
         22   -1    0    0    0    0 -0.00000000000E+00 -0.00000000000E+00 -0.61962111333E+02  0.61962111333E+02  0.00000000000E+00 0. -1.
         13    1    1    2    0    0 -0.14174043760E+02 -0.87551561299E+01 -0.53666110886E+02  0.56192694338E+02  0.10566000000E+00 0. -1.
        996    1    1    2    0    0  0.14174043760E+02  0.87551561299E+01  0.91703943729E+02  0.10576941699E+03  0.50000000000E+02 0.  0.
<mgrwt>
<rscale>  0 0.52702526E+02</rscale>
<asrwt>0</asrwt>
<pdfrwt beam="1">  1       13 0.10000000E+01 0.52702526E+02</pdfrwt>
<pdfrwt beam="2">  1       22 0.61962122E+00 0.52702526E+02</pdfrwt>
<totfact> 0.72691766E-02</totfact>
</mgrwt>
</event>
<event>
 4    1  0.2516086E+000  0.5208559E+02  0.7957747E-01  0.1434406E+00
         13   -1    0    0    0    0  0.00000000000E+00  0.00000000000E+00  0.99999944177E+02  0.99999999997E+02  0.10566000000E+00 0. -1.
         22   -1    0    0    0    0 -0.00000000000E+00 -0.00000000000E+00 -0.11126077000E+02  0.11126077000E+02  0.00000000000E+00 0.  1.
         13    1    1    2    0    0  0.11627519607E+02  0.88153239949E+01  0.20947186616E+02  0.25528512305E+02  0.10566000000E+00 0.  1.
        996    1    1    2    0    0 -0.11627519607E+02 -0.88153239949E+01  0.67926680560E+02  0.85597564692E+02  0.50000000000E+02 0.  0.
<mgrwt>
<rscale>  0 0.52085594E+02</rscale>
<asrwt>0</asrwt>
<pdfrwt beam="1">  1       13 0.10000000E+01 0.52085594E+02</pdfrwt>
<pdfrwt beam="2">  1       22 0.11126102E+00 0.52085594E+02</pdfrwt>
<totfact> 0.12053169E+00</totfact>
</mgrwt>
</event>
<event>
 4    1  0.2516086E+000  0.5464540E+02  0.7957747E-01  0.1421783E+00
         13   -1    0    0    0    0  0.00000000000E+00  0.00000000000E+00  0.99999944187E+02  0.10000000001E+03  0.10566000000E+00 0. -1.
         22   -1    0    0    0    0 -0.00000000000E+00 -0.00000000000E+00 -0.40356258522E+02  0.40356258522E+02  0.00000000000E+00 0.  1.
         13    1    1    2    0    0 -0.14551597953E+02  0.16564136967E+02 -0.28874142216E+02  0.36329697070E+02  0.10566000000E+00 0.  1.
        996    1    1    2    0    0  0.14551597953E+02 -0.16564136967E+02  0.88517827881E+02  0.10402656146E+03  0.50000000000E+02 0.  0.
<mgrwt>
<rscale>  0 0.54645399E+02</rscale>
<asrwt>0</asrwt>
<pdfrwt beam="1">  1       13 0.10000000E+01 0.54645399E+02</pdfrwt>
<pdfrwt beam="2">  1       22 0.40356275E+00 0.54645399E+02</pdfrwt>
<totfact> 0.12184244E-01</totfact>
</mgrwt>
</event>
<event>
 4    1  0.2516086E+000  0.5295533E+02  0.7957747E-01  0.1430023E+00
         13   -1    0    0    0    0  0.00000000000E+00  0.00000000000E+00  0.99999944185E+02  0.10000000000E+03  0.10566000000E+00 0.  1.
         22   -1    0    0    0    0 -0.00000000000E+00 -0.00000000000E+00 -0.14028399677E+02  0.14028399677E+02  0.00000000000E+00 0.  1.
         13    1    1    2    0    0  0.50068517856E+01 -0.16709230471E+02  0.66787259683E+01  0.18678423176E+02  0.10566000000E+00 0. -1.
        996    1    1    2    0    0 -0.50068517856E+01  0.16709230471E+02  0.79292818540E+02  0.95349976506E+02  0.50000000000E+02 0.  0.
<mgrwt>
<rscale>  0 0.52955330E+02</rscale>
<asrwt>0</asrwt>
<pdfrwt beam="1">  1       13 0.10000000E+01 0.52955330E+02</pdfrwt>
<pdfrwt beam="2">  1       22 0.14028424E+00 0.52955330E+02</pdfrwt>
<totfact> 0.84218180E-01</totfact>
</mgrwt>
</event>
<event>
 4    1  0.2516086E+000  0.5778859E+02  0.7957747E-01  0.1407353E+00
         13   -1    0    0    0    0  0.00000000000E+00  0.00000000000E+00  0.99999944180E+02  0.10000000000E+03  0.10566000000E+00 0. -1.
         22   -1    0    0    0    0 -0.00000000000E+00 -0.00000000000E+00 -0.19326679079E+02  0.19326679079E+02  0.00000000000E+00 0. -1.
         13    1    1    2    0    0 -0.25721408432E+02 -0.13339065826E+02  0.18162240413E+02  0.34196486219E+02  0.10566000000E+00 0.  1.
        996    1    1    2    0    0  0.25721408432E+02  0.13339065826E+02  0.62511024689E+02  0.85130192860E+02  0.50000000000E+02 0.  0.
<mgrwt>
<rscale>  0 0.57788593E+02</rscale>
<asrwt>0</asrwt>
<pdfrwt beam="1">  1       13 0.10000000E+01 0.57788593E+02</pdfrwt>
<pdfrwt beam="2">  1       22 0.19326702E+00 0.57788593E+02</pdfrwt>
<totfact> 0.48762038E-01</totfact>
</mgrwt>
</event>
<event>
 4    1  0.2516086E+000  0.5166513E+02  0.7957747E-01  0.1436562E+00
         13   -1    0    0    0    0  0.00000000000E+00  0.00000000000E+00  0.99999944176E+02  0.99999999996E+02  0.10566000000E+00 0. -1.
         22   -1    0    0    0    0 -0.00000000000E+00 -0.00000000000E+00 -0.11676562731E+02  0.11676562731E+02  0.00000000000E+00 0.  1.
         13    1    1    2    0    0  0.11538983713E+02 -0.60114430644E+01  0.56454781987E+01  0.14183376924E+02  0.10566000000E+00 0.  1.
        996    1    1    2    0    0 -0.11538983713E+02  0.60114430644E+01  0.82677903246E+02  0.97493185803E+02  0.50000000000E+02 0.  0.
<mgrwt>
<rscale>  0 0.51665129E+02</rscale>
<asrwt>0</asrwt>
<pdfrwt beam="1">  1       13 0.10000000E+01 0.51665129E+02</pdfrwt>
<pdfrwt beam="2">  1       22 0.11676587E+00 0.51665129E+02</pdfrwt>
<totfact> 0.11197889E+00</totfact>
</mgrwt>
</event>
<event>
 4    1  0.2516086E+000  0.5758394E+02  0.7957747E-01  0.1408260E+00
         13   -1    0    0    0    0  0.00000000000E+00  0.00000000000E+00  0.99999944170E+02  0.99999999990E+02  0.10566000000E+00 0. -1.
         22   -1    0    0    0    0 -0.00000000000E+00 -0.00000000000E+00 -0.30325162643E+02  0.30325162643E+02  0.00000000000E+00 0.  1.
         13    1    1    2    0    0 -0.23490661925E+02  0.16251112867E+02 -0.11506415302E+02  0.30794782419E+02  0.10566000000E+00 0.  1.
        996    1    1    2    0    0  0.23490661925E+02 -0.16251112867E+02  0.81181196829E+02  0.99530380214E+02  0.50000000000E+02 0.  0.
<mgrwt>
<rscale>  0 0.57583938E+02</rscale>
<asrwt>0</asrwt>
<pdfrwt beam="1">  1       13 0.10000000E+01 0.57583938E+02</pdfrwt>
<pdfrwt beam="2">  1       22 0.30325182E+00 0.57583938E+02</pdfrwt>
<totfact> 0.20431644E-01</totfact>
</mgrwt>
</event>
<event>
 4    1  0.2516086E+000  0.5141791E+02  0.7957747E-01  0.1437840E+00
         13   -1    0    0    0    0  0.00000000000E+00  0.00000000000E+00  0.99999944190E+02  0.10000000001E+03  0.10566000000E+00 0. -1.
         22   -1    0    0    0    0 -0.00000000000E+00 -0.00000000000E+00 -0.35084287382E+02  0.35084287382E+02  0.00000000000E+00 0.  1.
         13    1    1    2    0    0 -0.66613223932E+01  0.99713882075E+01 -0.27123628625E+02  0.29656435940E+02  0.10566000000E+00 0.  1.
        996    1    1    2    0    0  0.66613223932E+01 -0.99713882075E+01  0.92039285433E+02  0.10542785145E+03  0.50000000000E+02 0.  0.
<mgrwt>
<rscale>  0 0.51417913E+02</rscale>
<asrwt>0</asrwt>
<pdfrwt beam="1">  1       13 0.10000000E+01 0.51417913E+02</pdfrwt>
<pdfrwt beam="2">  1       22 0.35084306E+00 0.51417913E+02</pdfrwt>
<totfact> 0.15639131E-01</totfact>
</mgrwt>
</event>
<event>
 4    1  0.2516086E+000  0.6360134E+02  0.7957747E-01  0.1383311E+00
         13   -1    0    0    0    0  0.00000000000E+00  0.00000000000E+00  0.99999944182E+02  0.10000000000E+03  0.10566000000E+00 0.  1.
         22   -1    0    0    0    0 -0.00000000000E+00 -0.00000000000E+00 -0.67625280900E+02  0.67625280900E+02  0.00000000000E+00 0. -1.
         13    1    1    2    0    0 -0.16416672167E+01  0.39273849919E+02 -0.49970289143E+02  0.63578072633E+02  0.10566000000E+00 0. -1.
        996    1    1    2    0    0  0.16416672167E+01 -0.39273849919E+02  0.82344952425E+02  0.10404720827E+03  0.50000000000E+02 0.  0.
<mgrwt>
<rscale>  0 0.63601339E+02</rscale>
<asrwt>0</asrwt>
<pdfrwt beam="1">  1       13 0.10000000E+01 0.63601339E+02</pdfrwt>
<pdfrwt beam="2">  1       22 0.67625290E+00 0.63601339E+02</pdfrwt>
<totfact> 0.84684573E-02</totfact>
</mgrwt>
</event>
<event>
 4    1  0.2516086E+000  0.8465201E+02  0.7957747E-01  0.1316345E+00
         13   -1    0    0    0    0  0.00000000000E+00  0.00000000000E+00  0.99999944177E+02  0.99999999997E+02  0.10566000000E+00 0. -1.
         22   -1    0    0    0    0 -0.00000000000E+00 -0.00000000000E+00 -0.73095208149E+02  0.73095208149E+02  0.00000000000E+00 0.  1.
         13    1    1    2    0    0  0.95933170899E+01 -0.67630842897E+02 -0.26205240029E+02  0.73162069495E+02  0.10566000000E+00 0.  1.
        996    1    1    2    0    0 -0.95933170899E+01  0.67630842897E+02  0.53109976057E+02  0.99933138651E+02  0.50000000000E+02 0.  0.
<mgrwt>
<rscale>  0 0.84652009E+02</rscale>
<asrwt>0</asrwt>
<pdfrwt beam="1">  1       13 0.10000000E+01 0.84652009E+02</pdfrwt>
<pdfrwt beam="2">  1       22 0.73095216E+00 0.84652009E+02</pdfrwt>
<totfact> 0.58245814E-02</totfact>
</mgrwt>
</event>
<event>
 4    1  0.2516086E+000  0.5171534E+02  0.7957747E-01  0.1436303E+00
         13   -1    0    0    0    0  0.00000000000E+00  0.00000000000E+00  0.99999944182E+02  0.10000000000E+03  0.10566000000E+00 0.  1.
         22   -1    0    0    0    0 -0.00000000000E+00 -0.00000000000E+00 -0.16178469599E+02  0.16178469599E+02  0.00000000000E+00 0. -1.
         13    1    1    2    0    0  0.29308635731E+01  0.12879685841E+02 -0.43945839428E+01  0.13921199687E+02  0.10566000000E+00 0. -1.
        996    1    1    2    0    0 -0.29308635731E+01 -0.12879685841E+02  0.88216058525E+02  0.10225726991E+03  0.50000000000E+02 0.  0.
<mgrwt>
<rscale>  0 0.51715339E+02</rscale>
<asrwt>0</asrwt>
<pdfrwt beam="1">  1       13 0.10000000E+01 0.51715339E+02</pdfrwt>
<pdfrwt beam="2">  1       22 0.16178493E+00 0.51715339E+02</pdfrwt>
<totfact> 0.66216028E-01</totfact>
</mgrwt>
</event>
<event>
 4    1  0.2516086E+000  0.5122865E+02  0.7957747E-01  0.1438825E+00
         13   -1    0    0    0    0  0.00000000000E+00  0.00000000000E+00  0.99999944185E+02  0.10000000001E+03  0.10566000000E+00 0. -1.
         22   -1    0    0    0    0 -0.00000000000E+00 -0.00000000000E+00 -0.49063800532E+02  0.49063800532E+02  0.00000000000E+00 0.  1.
         13    1    1    2    0    0  0.40747546303E+01 -0.10381274167E+02 -0.41722014469E+02  0.43186944023E+02  0.10566000000E+00 0.  1.
        996    1    1    2    0    0 -0.40747546303E+01  0.10381274167E+02  0.92658158122E+02  0.10587685651E+03  0.50000000000E+02 0.  0.
<mgrwt>
<rscale>  0 0.51228649E+02</rscale>
<asrwt>0</asrwt>
<pdfrwt beam="1">  1       13 0.10000000E+01 0.51228649E+02</pdfrwt>
<pdfrwt beam="2">  1       22 0.49063815E+00 0.51228649E+02</pdfrwt>
<totfact> 0.77512257E-02</totfact>
</mgrwt>
</event>
<event>
 4    1  0.2516086E+000  0.5315161E+02  0.7957747E-01  0.1429048E+00
         13   -1    0    0    0    0  0.00000000000E+00  0.00000000000E+00  0.99999944184E+02  0.10000000000E+03  0.10566000000E+00 0. -1.
         22   -1    0    0    0    0 -0.00000000000E+00 -0.00000000000E+00 -0.25953950498E+02  0.25953950498E+02  0.00000000000E+00 0.  1.
         13    1    1    2    0    0  0.26207416544E+01  0.17838881045E+02 -0.14190698623E+02  0.22945174987E+02  0.10566000000E+00 0.  1.
        996    1    1    2    0    0 -0.26207416544E+01 -0.17838881045E+02  0.88236692308E+02  0.10300877552E+03  0.50000000000E+02 0.  0.
<mgrwt>
<rscale>  0 0.53151613E+02</rscale>
<asrwt>0</asrwt>
<pdfrwt beam="1">  1       13 0.10000000E+01 0.53151613E+02</pdfrwt>
<pdfrwt beam="2">  1       22 0.25953971E+00 0.53151613E+02</pdfrwt>
<totfact> 0.27432783E-01</totfact>
</mgrwt>
</event>
<event>
 4    1  0.2516086E+000  0.5922299E+02  0.7957747E-01  0.1401122E+00
         13   -1    0    0    0    0  0.00000000000E+00  0.00000000000E+00  0.99999944178E+02  0.99999999998E+02  0.10566000000E+00 0.  1.
         22   -1    0    0    0    0 -0.00000000000E+00 -0.00000000000E+00 -0.23734413035E+02  0.23734413035E+02  0.00000000000E+00 0. -1.
         13    1    1    2    0    0  0.31365659630E+02 -0.48536225841E+01  0.68168587274E+01  0.32462947851E+02  0.10566000000E+00 0. -1.
        996    1    1    2    0    0 -0.31365659630E+02  0.48536225841E+01  0.69448672415E+02  0.91271465182E+02  0.50000000000E+02 0.  0.
<mgrwt>
<rscale>  0 0.59222988E+02</rscale>
<asrwt>0</asrwt>
<pdfrwt beam="1">  1       13 0.10000000E+01 0.59222988E+02</pdfrwt>
<pdfrwt beam="2">  1       22 0.23734434E+00 0.59222988E+02</pdfrwt>
<totfact> 0.33002449E-01</totfact>
</mgrwt>
</event>
<event>
 4    1  0.2516086E+000  0.5141591E+02  0.7957747E-01  0.1437851E+00
         13   -1    0    0    0    0  0.00000000000E+00  0.00000000000E+00  0.99999944181E+02  0.10000000000E+03  0.10566000000E+00 0. -1.
         22   -1    0    0    0    0 -0.00000000000E+00 -0.00000000000E+00 -0.15192405201E+02  0.15192405201E+02  0.00000000000E+00 0. -1.
         13    1    1    2    0    0 -0.11894073439E+02  0.14583172742E+01 -0.39502047642E+01  0.12617882309E+02  0.10566000000E+00 0.  1.
        996    1    1    2    0    0  0.11894073439E+02 -0.14583172742E+01  0.88757743744E+02  0.10257452289E+03  0.50000000000E+02 0.  0.
<mgrwt>
<rscale>  0 0.51415909E+02</rscale>
<asrwt>0</asrwt>
<pdfrwt beam="1">  1       13 0.10000000E+01 0.51415909E+02</pdfrwt>
<pdfrwt beam="2">  1       22 0.15192429E+00 0.51415909E+02</pdfrwt>
<totfact> 0.73619449E-01</totfact>
</mgrwt>
</event>
<event>
 4    1  0.2516086E+000  0.6146452E+02  0.7957747E-01  0.1391787E+00
         13   -1    0    0    0    0  0.00000000000E+00  0.00000000000E+00  0.99999944177E+02  0.99999999998E+02  0.10566000000E+00 0. -1.
         22   -1    0    0    0    0 -0.00000000000E+00 -0.00000000000E+00 -0.32916680890E+02  0.32916680890E+02  0.00000000000E+00 0.  1.
         13    1    1    2    0    0 -0.30906605747E+02 -0.17962974747E+02 -0.72370831958E+01  0.36472911561E+02  0.10566000000E+00 0.  1.
        996    1    1    2    0    0  0.30906605747E+02  0.17962974747E+02  0.74320346483E+02  0.96443769327E+02  0.50000000000E+02 0.  0.
<mgrwt>
<rscale>  0 0.61464516E+02</rscale>
<asrwt>0</asrwt>
<pdfrwt beam="1">  1       13 0.10000000E+01 0.61464516E+02</pdfrwt>
<pdfrwt beam="2">  1       22 0.32916700E+00 0.61464516E+02</pdfrwt>
<totfact> 0.17672480E-01</totfact>
</mgrwt>
</event>
<event>
 4    1  0.2516086E+000  0.5129595E+02  0.7957747E-01  0.1438474E+00
         13   -1    0    0    0    0  0.00000000000E+00  0.00000000000E+00  0.99999944179E+02  0.99999999999E+02  0.10566000000E+00 0. -1.
         22   -1    0    0    0    0 -0.00000000000E+00 -0.00000000000E+00 -0.10009267185E+02  0.10009267185E+02  0.00000000000E+00 0. -1.
         13    1    1    2    0    0  0.11254206235E+02  0.21486907906E+01  0.22372180798E+02  0.25135625470E+02  0.10566000000E+00 0.  1.
        996    1    1    2    0    0 -0.11254206235E+02 -0.21486907906E+01  0.67618496195E+02  0.84873641714E+02  0.50000000000E+02 0.  0.
<mgrwt>
<rscale>  0 0.51295946E+02</rscale>
<asrwt>0</asrwt>
<pdfrwt beam="1">  1       13 0.10000000E+01 0.51295946E+02</pdfrwt>
<pdfrwt beam="2">  1       22 0.10009292E+00 0.51295946E+02</pdfrwt>
<totfact> 0.14055023E+00</totfact>
</mgrwt>
</event>
<event>
 4    1  0.2516086E+000  0.5184797E+02  0.7957747E-01  0.1435622E+00
         13   -1    0    0    0    0  0.00000000000E+00  0.00000000000E+00  0.99999944178E+02  0.99999999998E+02  0.10566000000E+00 0.  1.
         22   -1    0    0    0    0 -0.00000000000E+00 -0.00000000000E+00 -0.11008851678E+02  0.11008851678E+02  0.00000000000E+00 0.  1.
         13    1    1    2    0    0 -0.13551854973E+02 -0.21351853346E+01  0.12237580334E+02  0.18384268441E+02  0.10566000000E+00 0. -1.
        996    1    1    2    0    0  0.13551854973E+02  0.21351853346E+01  0.76753512166E+02  0.92624583235E+02  0.50000000000E+02 0.  0.
<mgrwt>
<rscale>  0 0.51847968E+02</rscale>
<asrwt>0</asrwt>
<pdfrwt beam="1">  1       13 0.10000000E+01 0.51847968E+02</pdfrwt>
<pdfrwt beam="2">  1       22 0.11008877E+00 0.51847968E+02</pdfrwt>
<totfact> 0.12238274E+00</totfact>
</mgrwt>
</event>
<event>
 4    1  0.2516086E+000  0.5256538E+02  0.7957747E-01  0.1431976E+00
         13   -1    0    0    0    0  0.00000000000E+00  0.00000000000E+00  0.99999944176E+02  0.99999999996E+02  0.10566000000E+00 0.  1.
         22   -1    0    0    0    0 -0.00000000000E+00 -0.00000000000E+00 -0.12004091295E+02  0.12004091295E+02  0.00000000000E+00 0.  1.
         13    1    1    2    0    0  0.72854529384E+01 -0.14492799242E+02  0.15331585658E+02  0.22320119561E+02  0.10566000000E+00 0. -1.
        996    1    1    2    0    0 -0.72854529384E+01  0.14492799242E+02  0.72664267223E+02  0.89683971731E+02  0.50000000000E+02 0.  0.
<mgrwt>
<rscale>  0 0.52565379E+02</rscale>
<asrwt>0</asrwt>
<pdfrwt beam="1">  1       13 0.10000000E+01 0.52565379E+02</pdfrwt>
<pdfrwt beam="2">  1       22 0.12004116E+00 0.52565379E+02</pdfrwt>
<totfact> 0.10757289E+00</totfact>
</mgrwt>
</event>
<event>
 4    1  0.2516086E+000  0.5105691E+02  0.7957747E-01  0.1439723E+00
         13   -1    0    0    0    0  0.00000000000E+00  0.00000000000E+00  0.99999944186E+02  0.10000000001E+03  0.10566000000E+00 0.  1.
         22   -1    0    0    0    0 -0.00000000000E+00 -0.00000000000E+00 -0.17170423825E+02  0.17170423825E+02  0.00000000000E+00 0. -1.
         13    1    1    2    0    0  0.17011716549E+00 -0.10333396244E+02 -0.79356539739E+01  0.13030494457E+02  0.10566000000E+00 0. -1.
        996    1    1    2    0    0 -0.17011716549E+00  0.10333396244E+02  0.90765174335E+02  0.10413992937E+03  0.50000000000E+02 0.  0.
<mgrwt>
<rscale>  0 0.51056910E+02</rscale>
<asrwt>0</asrwt>
<pdfrwt beam="1">  1       13 0.10000000E+01 0.51056910E+02</pdfrwt>
<pdfrwt beam="2">  1       22 0.17170447E+00 0.51056910E+02</pdfrwt>
<totfact> 0.59633313E-01</totfact>
</mgrwt>
</event>
<event>
 4    1  0.2516086E+000  0.5133656E+02  0.7957747E-01  0.1438263E+00
         13   -1    0    0    0    0  0.00000000000E+00  0.00000000000E+00  0.99999944181E+02  0.10000000000E+03  0.10566000000E+00 0.  1.
         22   -1    0    0    0    0 -0.00000000000E+00 -0.00000000000E+00 -0.11472035838E+02  0.11472035838E+02  0.00000000000E+00 0.  1.
         13    1    1    2    0    0  0.10145833946E+02  0.57012989658E+01  0.35087484794E+01  0.12155872502E+02  0.10566000000E+00 0. -1.
        996    1    1    2    0    0 -0.10145833946E+02 -0.57012989658E+01  0.85019159863E+02  0.99316163338E+02  0.50000000000E+02 0.  0.
<mgrwt>
<rscale>  0 0.51336564E+02</rscale>
<asrwt>0</asrwt>
<pdfrwt beam="1">  1       13 0.10000000E+01 0.51336564E+02</pdfrwt>
<pdfrwt beam="2">  1       22 0.11472061E+00 0.51336564E+02</pdfrwt>
<totfact> 0.11492298E+00</totfact>
</mgrwt>
</event>
<event>
 4    1  0.2516086E+000  0.5684248E+02  0.7957747E-01  0.1411581E+00
         13   -1    0    0    0    0  0.00000000000E+00  0.00000000000E+00  0.99999944177E+02  0.99999999997E+02  0.10566000000E+00 0. -1.
         22   -1    0    0    0    0 -0.00000000000E+00 -0.00000000000E+00 -0.21509452420E+02  0.21509452420E+02  0.00000000000E+00 0.  1.
         13    1    1    2    0    0 -0.26006588644E+02  0.73975918893E+01  0.32825757581E+01  0.27236987468E+02  0.10566000000E+00 0.  1.
        996    1    1    2    0    0  0.26006588644E+02 -0.73975918893E+01  0.75207915999E+02  0.94272464949E+02  0.50000000000E+02 0.  0.
<mgrwt>
<rscale>  0 0.56842475E+02</rscale>
<asrwt>0</asrwt>
<pdfrwt beam="1">  1       13 0.10000000E+01 0.56842475E+02</pdfrwt>
<pdfrwt beam="2">  1       22 0.21509474E+00 0.56842475E+02</pdfrwt>
<totfact> 0.39807434E-01</totfact>
</mgrwt>
</event>
<event>
 4    1  0.2516086E+000  0.5101153E+02  0.7957747E-01  0.1439961E+00
         13   -1    0    0    0    0  0.00000000000E+00  0.00000000000E+00  0.99999944180E+02  0.10000000000E+03  0.10566000000E+00 0.  1.
         22   -1    0    0    0    0 -0.00000000000E+00 -0.00000000000E+00 -0.25556158474E+02  0.25556158474E+02  0.00000000000E+00 0. -1.
         13    1    1    2    0    0 -0.17405997648E+01  0.99572104137E+01 -0.17614636915E+02  0.20309168483E+02  0.10566000000E+00 0. -1.
        996    1    1    2    0    0  0.17405997648E+01 -0.99572104137E+01  0.92058422621E+02  0.10524698999E+03  0.50000000000E+02 0.  0.
<mgrwt>
<rscale>  0 0.51011525E+02</rscale>
<asrwt>0</asrwt>
<pdfrwt beam="1">  1       13 0.10000000E+01 0.51011525E+02</pdfrwt>
<pdfrwt beam="2">  1       22 0.25556179E+00 0.51011525E+02</pdfrwt>
<totfact> 0.28186707E-01</totfact>
</mgrwt>
</event>
<event>
 4    1  0.2516086E+000  0.5500766E+02  0.7957747E-01  0.1420063E+00
         13   -1    0    0    0    0  0.00000000000E+00  0.00000000000E+00  0.99999944172E+02  0.99999999992E+02  0.10566000000E+00 0.  1.
         22   -1    0    0    0    0 -0.00000000000E+00 -0.00000000000E+00 -0.36818968693E+02  0.36818968693E+02  0.00000000000E+00 0. -1.
         13    1    1    2    0    0 -0.93438748774E+01 -0.20941212276E+02 -0.24343919581E+02  0.33443683319E+02  0.10566000000E+00 0. -1.
        996    1    1    2    0    0  0.93438748774E+01  0.20941212276E+02  0.87524895060E+02  0.10337528537E+03  0.50000000000E+02 0.  0.
<mgrwt>
<rscale>  0 0.55007657E+02</rscale>
<asrwt>0</asrwt>
<pdfrwt beam="1">  1       13 0.10000000E+01 0.55007657E+02</pdfrwt>
<pdfrwt beam="2">  1       22 0.36818986E+00 0.55007657E+02</pdfrwt>
<totfact> 0.14420214E-01</totfact>
</mgrwt>
</event>
<event>
 4    1  0.2516086E+000  0.5317059E+02  0.7957747E-01  0.1428954E+00
         13   -1    0    0    0    0  0.00000000000E+00  0.00000000000E+00  0.99999944177E+02  0.99999999997E+02  0.10566000000E+00 0. -1.
         22   -1    0    0    0    0 -0.00000000000E+00 -0.00000000000E+00 -0.23044828801E+02  0.23044828801E+02  0.00000000000E+00 0.  1.
         13    1    1    2    0    0  0.10724386876E+01  0.18054408258E+02 -0.10338507551E+02  0.20832851094E+02  0.10566000000E+00 0.  1.
        996    1    1    2    0    0 -0.10724386876E+01 -0.18054408258E+02  0.87293622927E+02  0.10221197770E+03  0.50000000000E+02 0.  0.
<mgrwt>
<rscale>  0 0.53170591E+02</rscale>
<asrwt>0</asrwt>
<pdfrwt beam="1">  1       13 0.10000000E+01 0.53170591E+02</pdfrwt>
<pdfrwt beam="2">  1       22 0.23044850E+00 0.53170591E+02</pdfrwt>
<totfact> 0.34641423E-01</totfact>
</mgrwt>
</event>
<event>
 4    1  0.2516086E+000  0.5099419E+02  0.7957747E-01  0.1440052E+00
         13   -1    0    0    0    0  0.00000000000E+00  0.00000000000E+00  0.99999944185E+02  0.10000000001E+03  0.10566000000E+00 0. -1.
         22   -1    0    0    0    0 -0.00000000000E+00 -0.00000000000E+00 -0.41681914518E+02  0.41681914518E+02  0.00000000000E+00 0.  1.
         13    1    1    2    0    0 -0.18691485076E+01 -0.98444953521E+01 -0.34419594447E+02  0.35848674324E+02  0.10566000000E+00 0.  1.
        996    1    1    2    0    0  0.18691485076E+01  0.98444953521E+01  0.92737624113E+02  0.10583324020E+03  0.50000000000E+02 0.  0.
<mgrwt>
<rscale>  0 0.50994194E+02</rscale>
<asrwt>0</asrwt>
<pdfrwt beam="1">  1       13 0.10000000E+01 0.50994194E+02</pdfrwt>
<pdfrwt beam="2">  1       22 0.41681931E+00 0.50994194E+02</pdfrwt>
<totfact> 0.11402172E-01</totfact>
</mgrwt>
</event>
<event>
 4    1  0.2516086E+000  0.5154332E+02  0.7957747E-01  0.1437191E+00
         13   -1    0    0    0    0  0.00000000000E+00  0.00000000000E+00  0.99999944181E+02  0.10000000000E+03  0.10566000000E+00 0. -1.
         22   -1    0    0    0    0 -0.00000000000E+00 -0.00000000000E+00 -0.12124706121E+02  0.12124706121E+02  0.00000000000E+00 0. -1.
         13    1    1    2    0    0 -0.59563507974E+00  0.12504342402E+02  0.39498969852E+02  0.41435409295E+02  0.10566000000E+00 0.  1.
        996    1    1    2    0    0  0.59563507974E+00 -0.12504342402E+02  0.48376268208E+02  0.70689296826E+02  0.50000000000E+02 0.  0.
<mgrwt>
<rscale>  0 0.51543315E+02</rscale>
<asrwt>0</asrwt>
<pdfrwt beam="1">  1       13 0.10000000E+01 0.51543315E+02</pdfrwt>
<pdfrwt beam="2">  1       22 0.12124731E+00 0.51543315E+02</pdfrwt>
<totfact> 0.10569404E+00</totfact>
</mgrwt>
</event>
<event>
 4    1  0.2516086E+000  0.5305895E+02  0.7957747E-01  0.1429508E+00
         13   -1    0    0    0    0  0.00000000000E+00  0.00000000000E+00  0.99999944181E+02  0.10000000000E+03  0.10566000000E+00 0.  1.
         22   -1    0    0    0    0 -0.00000000000E+00 -0.00000000000E+00 -0.20003132558E+02  0.20003132558E+02  0.00000000000E+00 0. -1.
         13    1    1    2    0    0 -0.47753117850E+01 -0.17101141922E+02 -0.61812189408E+01  0.18800832144E+02  0.10566000000E+00 0. -1.
        996    1    1    2    0    0  0.47753117850E+01  0.17101141922E+02  0.86178030564E+02  0.10120230042E+03  0.50000000000E+02 0.  0.
<mgrwt>
<rscale>  0 0.53058955E+02</rscale>
<asrwt>0</asrwt>
<pdfrwt beam="1">  1       13 0.10000000E+01 0.53058955E+02</pdfrwt>
<pdfrwt beam="2">  1       22 0.20003155E+00 0.53058955E+02</pdfrwt>
<totfact> 0.45379938E-01</totfact>
</mgrwt>
</event>
<event>
 4    1  0.2516086E+000  0.5679470E+02  0.7957747E-01  0.1411797E+00
         13   -1    0    0    0    0  0.00000000000E+00  0.00000000000E+00  0.99999944178E+02  0.99999999998E+02  0.10566000000E+00 0.  1.
         22   -1    0    0    0    0 -0.00000000000E+00 -0.00000000000E+00 -0.17750054482E+02  0.17750054482E+02  0.00000000000E+00 0.  1.
         13    1    1    2    0    0  0.23697856198E+01  0.26833234802E+02  0.20484443508E+02  0.33841719278E+02  0.10566000000E+00 0. -1.
        996    1    1    2    0    0 -0.23697856198E+01 -0.26833234802E+02  0.61765446188E+02  0.83908335203E+02  0.50000000000E+02 0.  0.
<mgrwt>
<rscale>  0 0.56794704E+02</rscale>
<asrwt>0</asrwt>
<pdfrwt beam="1">  1       13 0.10000000E+01 0.56794704E+02</pdfrwt>
<pdfrwt beam="2">  1       22 0.17750077E+00 0.56794704E+02</pdfrwt>
<totfact> 0.56822533E-01</totfact>
</mgrwt>
</event>
<event>
 4    1  0.2516086E+000  0.5394586E+02  0.7957747E-01  0.1425151E+00
         13   -1    0    0    0    0  0.00000000000E+00  0.00000000000E+00  0.99999944183E+02  0.10000000000E+03  0.10566000000E+00 0.  1.
         22   -1    0    0    0    0 -0.00000000000E+00 -0.00000000000E+00 -0.42058846693E+02  0.42058846693E+02  0.00000000000E+00 0. -1.
         13    1    1    2    0    0  0.20219176244E+02 -0.11577631312E+01 -0.31594050306E+02  0.37527998645E+02  0.10566000000E+00 0. -1.
        996    1    1    2    0    0 -0.20219176244E+02  0.11577631312E+01  0.89535147796E+02  0.10453084805E+03  0.50000000000E+02 0.  0.
<mgrwt>
<rscale>  0 0.53945857E+02</rscale>
<asrwt>0</asrwt>
<pdfrwt beam="1">  1       13 0.10000000E+01 0.53945857E+02</pdfrwt>
<pdfrwt beam="2">  1       22 0.42058863E+00 0.53945857E+02</pdfrwt>
<totfact> 0.11218161E-01</totfact>
</mgrwt>
</event>
<event>
 4    1  0.2516086E+000  0.5209270E+02  0.7957747E-01  0.1434370E+00
         13   -1    0    0    0    0  0.00000000000E+00  0.00000000000E+00  0.99999944182E+02  0.10000000000E+03  0.10566000000E+00 0. -1.
         22   -1    0    0    0    0 -0.00000000000E+00 -0.00000000000E+00 -0.11613366332E+02  0.11613366332E+02  0.00000000000E+00 0. -1.
         13    1    1    2    0    0 -0.48220500687E+01 -0.13798443967E+02  0.29963984786E+02  0.33339177720E+02  0.10566000000E+00 0.  1.
        996    1    1    2    0    0  0.48220500687E+01  0.13798443967E+02  0.58422593064E+02  0.78274188614E+02  0.50000000000E+02 0.  0.
<mgrwt>
<rscale>  0 0.52092698E+02</rscale>
<asrwt>0</asrwt>
<pdfrwt beam="1">  1       13 0.10000000E+01 0.52092698E+02</pdfrwt>
<pdfrwt beam="2">  1       22 0.11613391E+00 0.52092698E+02</pdfrwt>
<totfact> 0.11301252E+00</totfact>
</mgrwt>
</event>
<event>
 4    1  0.2516086E+000  0.5154245E+02  0.7957747E-01  0.1437195E+00
         13   -1    0    0    0    0  0.00000000000E+00  0.00000000000E+00  0.99999944179E+02  0.10000000000E+03  0.10566000000E+00 0.  1.
         22   -1    0    0    0    0 -0.00000000000E+00 -0.00000000000E+00 -0.10757458638E+02  0.10757458638E+02  0.00000000000E+00 0.  1.
         13    1    1    2    0    0 -0.18259619743E+01 -0.12381044166E+02  0.91105946898E+01  0.15480261349E+02  0.10566000000E+00 0. -1.
        996    1    1    2    0    0  0.18259619743E+01  0.12381044166E+02  0.80131890852E+02  0.95277197289E+02  0.50000000000E+02 0.  0.
<mgrwt>
<rscale>  0 0.51542452E+02</rscale>
<asrwt>0</asrwt>
<pdfrwt beam="1">  1       13 0.10000000E+01 0.51542452E+02</pdfrwt>
<pdfrwt beam="2">  1       22 0.10757484E+00 0.51542452E+02</pdfrwt>
<totfact> 0.12655766E+00</totfact>
</mgrwt>
</event>
<event>
 4    1  0.2516086E+000  0.5309134E+02  0.7957747E-01  0.1429347E+00
         13   -1    0    0    0    0  0.00000000000E+00  0.00000000000E+00  0.99999944177E+02  0.99999999997E+02  0.10566000000E+00 0. -1.
         22   -1    0    0    0    0 -0.00000000000E+00 -0.00000000000E+00 -0.16213977152E+02  0.16213977152E+02  0.00000000000E+00 0. -1.
         13    1    1    2    0    0  0.17319902072E+02 -0.43256049026E+01  0.50471893971E+02  0.53536091664E+02  0.10566000000E+00 0.  1.
        996    1    1    2    0    0 -0.17319902072E+02  0.43256049026E+01  0.33314073054E+02  0.62677885486E+02  0.50000000000E+02 0.  0.
<mgrwt>
<rscale>  0 0.53091335E+02</rscale>
<asrwt>0</asrwt>
<pdfrwt beam="1">  1       13 0.10000000E+01 0.53091335E+02</pdfrwt>
<pdfrwt beam="2">  1       22 0.16214001E+00 0.53091335E+02</pdfrwt>
<totfact> 0.66145445E-01</totfact>
</mgrwt>
</event>
<event>
 4    1  0.2516086E+000  0.7158649E+02  0.7957747E-01  0.1354780E+00
         13   -1    0    0    0    0  0.00000000000E+00  0.00000000000E+00  0.99999944182E+02  0.10000000000E+03  0.10566000000E+00 0.  1.
         22   -1    0    0    0    0 -0.00000000000E+00 -0.00000000000E+00 -0.38621827541E+02  0.38621827541E+02  0.00000000000E+00 0. -1.
         13    1    1    2    0    0 -0.17846243691E+02 -0.48022259646E+02  0.15219404897E+02  0.53444057526E+02  0.10566000000E+00 0. -1.
        996    1    1    2    0    0  0.17846243691E+02  0.48022259646E+02  0.46158711744E+02  0.85177770018E+02  0.50000000000E+02 0.  0.
<mgrwt>
<rscale>  0 0.71586492E+02</rscale>
<asrwt>0</asrwt>
<pdfrwt beam="1">  1       13 0.10000000E+01 0.71586492E+02</pdfrwt>
<pdfrwt beam="2">  1       22 0.38621845E+00 0.71586492E+02</pdfrwt>
<totfact> 0.13387561E-01</totfact>
</mgrwt>
</event>
<event>
 4    1  0.2516086E+000  0.5116056E+02  0.7957747E-01  0.1439180E+00
         13   -1    0    0    0    0  0.00000000000E+00  0.00000000000E+00  0.99999944177E+02  0.99999999997E+02  0.10566000000E+00 0. -1.
         22   -1    0    0    0    0 -0.00000000000E+00 -0.00000000000E+00 -0.62777421555E+02  0.62777421555E+02  0.00000000000E+00 0.  1.
         13    1    1    2    0    0 -0.55163949881E+01 -0.93259006591E+01 -0.55677274211E+02  0.56721892285E+02  0.10566000000E+00 0.  1.
        996    1    1    2    0    0  0.55163949881E+01  0.93259006591E+01  0.92899796832E+02  0.10605552927E+03  0.50000000000E+02 0.  0.
<mgrwt>
<rscale>  0 0.51160561E+02</rscale>
<asrwt>0</asrwt>
<pdfrwt beam="1">  1       13 0.10000000E+01 0.51160561E+02</pdfrwt>
<pdfrwt beam="2">  1       22 0.62777432E+00 0.51160561E+02</pdfrwt>
<totfact> 0.77457578E-02</totfact>
</mgrwt>
</event>
<event>
 4    1  0.2516086E+000  0.5205597E+02  0.7957747E-01  0.1434557E+00
         13   -1    0    0    0    0  0.00000000000E+00  0.00000000000E+00  0.99999944165E+02  0.99999999985E+02  0.10566000000E+00 0.  1.
         22   -1    0    0    0    0 -0.00000000000E+00 -0.00000000000E+00 -0.18293105048E+02  0.18293105048E+02  0.00000000000E+00 0. -1.
         13    1    1    2    0    0  0.11132813730E+02  0.92673815400E+01 -0.64951963767E+01  0.15875221011E+02  0.10566000000E+00 0. -1.
        996    1    1    2    0    0 -0.11132813730E+02 -0.92673815400E+01  0.88202035494E+02  0.10241788402E+03  0.50000000000E+02 0.  0.
<mgrwt>
<rscale>  0 0.52055969E+02</rscale>
<asrwt>0</asrwt>
<pdfrwt beam="1">  1       13 0.10000000E+01 0.52055969E+02</pdfrwt>
<pdfrwt beam="2">  1       22 0.18293128E+00 0.52055969E+02</pdfrwt>
<totfact> 0.53372838E-01</totfact>
</mgrwt>
</event>
<event>
 4    1  0.2516086E+000  0.5115693E+02  0.7957747E-01  0.1439199E+00
         13   -1    0    0    0    0  0.00000000000E+00  0.00000000000E+00  0.99999944180E+02  0.10000000000E+03  0.10566000000E+00 0. -1.
         22   -1    0    0    0    0 -0.00000000000E+00 -0.00000000000E+00 -0.97249563620E+01  0.97249563620E+01  0.00000000000E+00 0. -1.
         13    1    1    2    0    0  0.18143094491E+01 -0.10664867738E+02  0.11431438357E+02  0.15739125439E+02  0.10566000000E+00 0.  1.
        996    1    1    2    0    0 -0.18143094491E+01  0.10664867738E+02  0.78843549461E+02  0.93985830923E+02  0.50000000000E+02 0.  0.
<mgrwt>
<rscale>  0 0.51156926E+02</rscale>
<asrwt>0</asrwt>
<pdfrwt beam="1">  1       13 0.10000000E+01 0.51156926E+02</pdfrwt>
<pdfrwt beam="2">  1       22 0.97249816E-01 0.51156926E+02</pdfrwt>
<totfact> 0.14646760E+00</totfact>
</mgrwt>
</event>
<event>
 4    1  0.2516086E+000  0.5188840E+02  0.7957747E-01  0.1435414E+00
         13   -1    0    0    0    0  0.00000000000E+00  0.00000000000E+00  0.99999944176E+02  0.99999999996E+02  0.10566000000E+00 0.  1.
         22   -1    0    0    0    0 -0.00000000000E+00 -0.00000000000E+00 -0.14285563689E+02  0.14285563689E+02  0.00000000000E+00 0.  1.
         13    1    1    2    0    0 -0.51078789798E+01 -0.12896329750E+02 -0.25149756922E+00  0.13873722059E+02  0.10566000000E+00 0. -1.
        996    1    1    2    0    0  0.51078789798E+01  0.12896329750E+02  0.85965878056E+02  0.10041184163E+03  0.50000000000E+02 0.  0.
<mgrwt>
<rscale>  0 0.51888397E+02</rscale>
<asrwt>0</asrwt>
<pdfrwt beam="1">  1       13 0.10000000E+01 0.51888397E+02</pdfrwt>
<pdfrwt beam="2">  1       22 0.14285588E+00 0.51888397E+02</pdfrwt>
<totfact> 0.81583234E-01</totfact>
</mgrwt>
</event>
<event>
 4    1  0.2516086E+000  0.5150287E+02  0.7957747E-01  0.1437400E+00
         13   -1    0    0    0    0  0.00000000000E+00  0.00000000000E+00  0.99999944184E+02  0.10000000000E+03  0.10566000000E+00 0. -1.
         22   -1    0    0    0    0 -0.00000000000E+00 -0.00000000000E+00 -0.10647373318E+02  0.10647373318E+02  0.00000000000E+00 0.  1.
         13    1    1    2    0    0  0.60476178492E+01 -0.10769017904E+02  0.93118340738E+01  0.15468252846E+02  0.10566000000E+00 0.  1.
        996    1    1    2    0    0 -0.60476178492E+01  0.10769017904E+02  0.80040736793E+02  0.95179120476E+02  0.50000000000E+02 0.  0.
<mgrwt>
<rscale>  0 0.51502868E+02</rscale>
<asrwt>0</asrwt>
<pdfrwt beam="1">  1       13 0.10000000E+01 0.51502868E+02</pdfrwt>
<pdfrwt beam="2">  1       22 0.10647398E+00 0.51502868E+02</pdfrwt>
<totfact> 0.12848131E+00</totfact>
</mgrwt>
</event>
<event>
 4    1  0.2516086E+000  0.5149812E+02  0.7957747E-01  0.1437425E+00
         13   -1    0    0    0    0  0.00000000000E+00  0.00000000000E+00  0.99999944178E+02  0.99999999999E+02  0.10566000000E+00 0.  1.
         22   -1    0    0    0    0 -0.00000000000E+00 -0.00000000000E+00 -0.13012457485E+02  0.13012457485E+02  0.00000000000E+00 0.  1.
         13    1    1    2    0    0  0.77834182765E+01  0.95642618280E+01  0.48510599547E+00  0.12341118112E+02  0.10566000000E+00 0. -1.
        996    1    1    2    0    0 -0.77834182765E+01 -0.95642618280E+01  0.86502380698E+02  0.10067133937E+03  0.50000000000E+02 0.  0.
<mgrwt>
<rscale>  0 0.51498123E+02</rscale>
<asrwt>0</asrwt>
<pdfrwt beam="1">  1       13 0.10000000E+01 0.51498123E+02</pdfrwt>
<pdfrwt beam="2">  1       22 0.13012482E+00 0.51498123E+02</pdfrwt>
<totfact> 0.94679860E-01</totfact>
</mgrwt>
</event>
<event>
 4    1  0.2516086E+000  0.5207205E+02  0.7957747E-01  0.1434475E+00
         13   -1    0    0    0    0  0.00000000000E+00  0.00000000000E+00  0.99999944183E+02  0.10000000000E+03  0.10566000000E+00 0. -1.
         22   -1    0    0    0    0 -0.00000000000E+00 -0.00000000000E+00 -0.28376048983E+02  0.28376048983E+02  0.00000000000E+00 0.  1.
         13    1    1    2    0    0  0.44666889954E+01  0.13840044999E+02 -0.18957874084E+02  0.23893729511E+02  0.10566000000E+00 0.  1.
        996    1    1    2    0    0 -0.44666889954E+01 -0.13840044999E+02  0.90581769284E+02  0.10448231947E+03  0.50000000000E+02 0.  0.
<mgrwt>
<rscale>  0 0.52072048E+02</rscale>
<asrwt>0</asrwt>
<pdfrwt beam="1">  1       13 0.10000000E+01 0.52072048E+02</pdfrwt>
<pdfrwt beam="2">  1       22 0.28376069E+00 0.52072048E+02</pdfrwt>
<totfact> 0.23012753E-01</totfact>
</mgrwt>
</event>
<event>
 4    1  0.2516086E+000  0.5110780E+02  0.7957747E-01  0.1439456E+00
         13   -1    0    0    0    0  0.00000000000E+00  0.00000000000E+00  0.99999944181E+02  0.10000000000E+03  0.10566000000E+00 0. -1.
         22   -1    0    0    0    0 -0.00000000000E+00 -0.00000000000E+00 -0.10198810720E+02  0.10198810720E+02  0.00000000000E+00 0.  1.
         13    1    1    2    0    0  0.10558165158E+02 -0.72986455828E+00  0.63541201179E+01  0.12344778665E+02  0.10566000000E+00 0.  1.
        996    1    1    2    0    0 -0.10558165158E+02  0.72986455828E+00  0.83447013343E+02  0.97854032056E+02  0.50000000000E+02 0.  0.
<mgrwt>
<rscale>  0 0.51107803E+02</rscale>
<asrwt>0</asrwt>
<pdfrwt beam="1">  1       13 0.10000000E+01 0.51107803E+02</pdfrwt>
<pdfrwt beam="2">  1       22 0.10198836E+00 0.51107803E+02</pdfrwt>
<totfact> 0.13671112E+00</totfact>
</mgrwt>
</event>
<event>
 4    1  0.2516086E+000  0.5114240E+02  0.7957747E-01  0.1439275E+00
         13   -1    0    0    0    0  0.00000000000E+00  0.00000000000E+00  0.99999944177E+02  0.99999999997E+02  0.10566000000E+00 0. -1.
         22   -1    0    0    0    0 -0.00000000000E+00 -0.00000000000E+00 -0.18201243315E+02  0.18201243315E+02  0.00000000000E+00 0. -1.
         13    1    1    2    0    0 -0.68691276184E+01 -0.82680251031E+01 -0.89803734123E+01  0.14007263259E+02  0.10566000000E+00 0.  1.
        996    1    1    2    0    0  0.68691276184E+01  0.82680251031E+01  0.90779074274E+02  0.10419398005E+03  0.50000000000E+02 0.  0.
<mgrwt>
<rscale>  0 0.51142401E+02</rscale>
<asrwt>0</asrwt>
<pdfrwt beam="1">  1       13 0.10000000E+01 0.51142401E+02</pdfrwt>
<pdfrwt beam="2">  1       22 0.18201266E+00 0.51142401E+02</pdfrwt>
<totfact> 0.53766265E-01</totfact>
</mgrwt>
</event>
<event>
 4    1  0.2516086E+000  0.5240950E+02  0.7957747E-01  0.1432762E+00
         13   -1    0    0    0    0  0.00000000000E+00  0.00000000000E+00  0.99999944176E+02  0.99999999996E+02  0.10566000000E+00 0. -1.
         22   -1    0    0    0    0 -0.00000000000E+00 -0.00000000000E+00 -0.17933650275E+02  0.17933650275E+02  0.00000000000E+00 0.  1.
         13    1    1    2    0    0 -0.14971496627E+02  0.47549456240E+01 -0.48485850991E+01  0.16440047464E+02  0.10566000000E+00 0.  1.
        996    1    1    2    0    0  0.14971496627E+02 -0.47549456240E+01  0.86914879000E+02  0.10149360281E+03  0.50000000000E+02 0.  0.
<mgrwt>
<rscale>  0 0.52409496E+02</rscale>
<asrwt>0</asrwt>
<pdfrwt beam="1">  1       13 0.10000000E+01 0.52409496E+02</pdfrwt>
<pdfrwt beam="2">  1       22 0.17933673E+00 0.52409496E+02</pdfrwt>
<totfact> 0.55347777E-01</totfact>
</mgrwt>
</event>
<event>
 4    1  0.2516086E+000  0.5256261E+02  0.7957747E-01  0.1431990E+00
         13   -1    0    0    0    0  0.00000000000E+00  0.00000000000E+00  0.99999944177E+02  0.99999999997E+02  0.10566000000E+00 0. -1.
         22   -1    0    0    0    0 -0.00000000000E+00 -0.00000000000E+00 -0.11828154480E+02  0.11828154480E+02  0.00000000000E+00 0. -1.
         13    1    1    2    0    0  0.12195990247E+02 -0.10681105125E+02  0.20010211161E+02  0.25753599740E+02  0.10566000000E+00 0.  1.
        996    1    1    2    0    0 -0.12195990247E+02  0.10681105125E+02  0.68161578536E+02  0.86074554738E+02  0.50000000000E+02 0.  0.
<mgrwt>
<rscale>  0 0.52562612E+02</rscale>
<asrwt>0</asrwt>
<pdfrwt beam="1">  1       13 0.10000000E+01 0.52562612E+02</pdfrwt>
<pdfrwt beam="2">  1       22 0.11828179E+00 0.52562612E+02</pdfrwt>
<totfact> 0.11002766E+00</totfact>
</mgrwt>
</event>
<event>
 4    1  0.2516086E+000  0.5317589E+02  0.7957747E-01  0.1428928E+00
         13   -1    0    0    0    0  0.00000000000E+00  0.00000000000E+00  0.99999944173E+02  0.99999999993E+02  0.10566000000E+00 0. -1.
         22   -1    0    0    0    0 -0.00000000000E+00 -0.00000000000E+00 -0.64039549673E+02  0.64039549673E+02  0.00000000000E+00 0.  1.
         13    1    1    2    0    0 -0.16852517452E+02 -0.66081783829E+01 -0.55426479794E+02  0.58307642659E+02  0.10566000000E+00 0.  1.
        996    1    1    2    0    0  0.16852517452E+02  0.66081783829E+01  0.91386874295E+02  0.10573190701E+03  0.50000000000E+02 0.  0.
<mgrwt>
<rscale>  0 0.53175891E+02</rscale>
<asrwt>0</asrwt>
<pdfrwt beam="1">  1       13 0.10000000E+01 0.53175891E+02</pdfrwt>
<pdfrwt beam="2">  1       22 0.64039560E+00 0.53175891E+02</pdfrwt>
<totfact> 0.83510658E-02</totfact>
</mgrwt>
</event>
<event>
 4    1  0.2516086E+000  0.5146086E+02  0.7957747E-01  0.1437618E+00
         13   -1    0    0    0    0  0.00000000000E+00  0.00000000000E+00  0.99999944180E+02  0.10000000000E+03  0.10566000000E+00 0.  1.
         22   -1    0    0    0    0 -0.00000000000E+00 -0.00000000000E+00 -0.20545030922E+02  0.20545030922E+02  0.00000000000E+00 0. -1.
         13    1    1    2    0    0  0.91801487011E+01 -0.79965699328E+01 -0.11044128971E+02  0.16437889451E+02  0.10566000000E+00 0. -1.
        996    1    1    2    0    0 -0.91801487011E+01  0.79965699328E+01  0.90499042228E+02  0.10410714147E+03  0.50000000000E+02 0.  0.
<mgrwt>
<rscale>  0 0.51460861E+02</rscale>
<asrwt>0</asrwt>
<pdfrwt beam="1">  1       13 0.10000000E+01 0.51460861E+02</pdfrwt>
<pdfrwt beam="2">  1       22 0.20545053E+00 0.51460861E+02</pdfrwt>
<totfact> 0.43040047E-01</totfact>
</mgrwt>
</event>
<event>
 4    1  0.2516086E+000  0.5107941E+02  0.7957747E-01  0.1439605E+00
         13   -1    0    0    0    0  0.00000000000E+00  0.00000000000E+00  0.99999944175E+02  0.99999999995E+02  0.10566000000E+00 0. -1.
         22   -1    0    0    0    0 -0.00000000000E+00 -0.00000000000E+00 -0.12376877304E+02  0.12376877304E+02  0.00000000000E+00 0. -1.
         13    1    1    2    0    0 -0.10316148987E+02 -0.16380002156E+01  0.43944018076E+02  0.45168505215E+02  0.10566000000E+00 0.  1.
        996    1    1    2    0    0  0.10316148987E+02  0.16380002156E+01  0.43679048795E+02  0.67208372085E+02  0.50000000000E+02 0.  0.
<mgrwt>
<rscale>  0 0.51079409E+02</rscale>
<asrwt>0</asrwt>
<pdfrwt beam="1">  1       13 0.10000000E+01 0.51079409E+02</pdfrwt>
<pdfrwt beam="2">  1       22 0.12376902E+00 0.51079409E+02</pdfrwt>
<totfact> 0.10228486E+00</totfact>
</mgrwt>
</event>
<event>
 4    1  0.2516086E+000  0.5318355E+02  0.7957747E-01  0.1428890E+00
         13   -1    0    0    0    0  0.00000000000E+00  0.00000000000E+00  0.99999944176E+02  0.99999999996E+02  0.10566000000E+00 0. -1.
         22   -1    0    0    0    0 -0.00000000000E+00 -0.00000000000E+00 -0.13085169714E+02  0.13085169714E+02  0.00000000000E+00 0.  1.
         13    1    1    2    0    0  0.17627349052E+02 -0.42150611094E+01  0.14349242193E+02  0.23117138454E+02  0.10566000000E+00 0.  1.
        996    1    1    2    0    0 -0.17627349052E+02  0.42150611094E+01  0.72565532268E+02  0.89968031256E+02  0.50000000000E+02 0.  0.
<mgrwt>
<rscale>  0 0.53183552E+02</rscale>
<asrwt>0</asrwt>
<pdfrwt beam="1">  1       13 0.10000000E+01 0.53183552E+02</pdfrwt>
<pdfrwt beam="2">  1       22 0.13085194E+00 0.53183552E+02</pdfrwt>
<totfact> 0.94191300E-01</totfact>
</mgrwt>
</event>
<event>
 4    1  0.2516086E+000  0.5185326E+02  0.7957747E-01  0.1435594E+00
         13   -1    0    0    0    0  0.00000000000E+00  0.00000000000E+00  0.99999944180E+02  0.10000000000E+03  0.10566000000E+00 0. -1.
         22   -1    0    0    0    0 -0.00000000000E+00 -0.00000000000E+00 -0.29057372522E+02  0.29057372522E+02  0.00000000000E+00 0.  1.
         13    1    1    2    0    0  0.62596271930E+01  0.12230206395E+02 -0.20062602293E+02  0.24316250860E+02  0.10566000000E+00 0.  1.
        996    1    1    2    0    0 -0.62596271930E+01 -0.12230206395E+02  0.91005173952E+02  0.10474112166E+03  0.50000000000E+02 0.  0.
<mgrwt>
<rscale>  0 0.51853263E+02</rscale>
<asrwt>0</asrwt>
<pdfrwt beam="1">  1       13 0.10000000E+01 0.51853263E+02</pdfrwt>
<pdfrwt beam="2">  1       22 0.29057392E+00 0.51853263E+02</pdfrwt>
<totfact> 0.21984441E-01</totfact>
</mgrwt>
</event>
<event>
 4    1  0.2516086E+000  0.5193148E+02  0.7957747E-01  0.1435194E+00
         13   -1    0    0    0    0  0.00000000000E+00  0.00000000000E+00  0.99999944182E+02  0.10000000000E+03  0.10566000000E+00 0. -1.
         22   -1    0    0    0    0 -0.00000000000E+00 -0.00000000000E+00 -0.15560370597E+02  0.15560370597E+02  0.00000000000E+00 0.  1.
         13    1    1    2    0    0  0.10220309176E+02  0.96137465194E+01 -0.25375365283E+01  0.14259351228E+02  0.10566000000E+00 0.  1.
        996    1    1    2    0    0 -0.10220309176E+02 -0.96137465194E+01  0.86977110114E+02  0.10130101937E+03  0.50000000000E+02 0.  0.
<mgrwt>
<rscale>  0 0.51931482E+02</rscale>
<asrwt>0</asrwt>
<pdfrwt beam="1">  1       13 0.10000000E+01 0.51931482E+02</pdfrwt>
<pdfrwt beam="2">  1       22 0.15560394E+00 0.51931482E+02</pdfrwt>
<totfact> 0.70790055E-01</totfact>
</mgrwt>
</event>
<event>
 4    1  0.2516086E+000  0.5540657E+02  0.7957747E-01  0.1418186E+00
         13   -1    0    0    0    0  0.00000000000E+00  0.00000000000E+00  0.99999944185E+02  0.10000000001E+03  0.10566000000E+00 0.  1.
         22   -1    0    0    0    0 -0.00000000000E+00 -0.00000000000E+00 -0.20380163480E+02  0.20380163480E+02  0.00000000000E+00 0. -1.
         13    1    1    2    0    0 -0.23442569139E+02 -0.45093386850E+01  0.61144344249E+00  0.23880393848E+02  0.10566000000E+00 0. -1.
        996    1    1    2    0    0  0.23442569139E+02  0.45093386850E+01  0.79008337263E+02  0.96499769638E+02  0.50000000000E+02 0.  0.
<mgrwt>
<rscale>  0 0.55406572E+02</rscale>
<asrwt>0</asrwt>
<pdfrwt beam="1">  1       13 0.10000000E+01 0.55406572E+02</pdfrwt>
<pdfrwt beam="2">  1       22 0.20380186E+00 0.55406572E+02</pdfrwt>
<totfact> 0.43995792E-01</totfact>
</mgrwt>
</event>
<event>
 4    1  0.2516086E+000  0.7984082E+02  0.7957747E-01  0.1329504E+00
         13   -1    0    0    0    0  0.00000000000E+00  0.00000000000E+00  0.99999944176E+02  0.99999999996E+02  0.10566000000E+00 0. -1.
         22   -1    0    0    0    0 -0.00000000000E+00 -0.00000000000E+00 -0.69241788509E+02  0.69241788509E+02  0.00000000000E+00 0.  1.
         13    1    1    2    0    0 -0.51732946725E+02 -0.34615876341E+02 -0.29820382328E+02  0.69020453765E+02  0.10566000000E+00 0.  1.
        996    1    1    2    0    0  0.51732946725E+02  0.34615876341E+02  0.60578537994E+02  0.10022133474E+03  0.50000000000E+02 0.  0.
<mgrwt>
<rscale>  0 0.79840821E+02</rscale>
<asrwt>0</asrwt>
<pdfrwt beam="1">  1       13 0.10000000E+01 0.79840821E+02</pdfrwt>
<pdfrwt beam="2">  1       22 0.69241797E+00 0.79840821E+02</pdfrwt>
<totfact> 0.78330763E-02</totfact>
</mgrwt>
</event>
<event>
 4    1  0.2516086E+000  0.5236520E+02  0.7957747E-01  0.1432986E+00
         13   -1    0    0    0    0  0.00000000000E+00  0.00000000000E+00  0.99999944177E+02  0.99999999997E+02  0.10566000000E+00 0.  1.
         22   -1    0    0    0    0 -0.00000000000E+00 -0.00000000000E+00 -0.15295715094E+02  0.15295715094E+02  0.00000000000E+00 0. -1.
         13    1    1    2    0    0  0.15310402154E+02  0.27758532109E+01 -0.17701488394E+00  0.15561371195E+02  0.10566000000E+00 0. -1.
        996    1    1    2    0    0 -0.15310402154E+02 -0.27758532109E+01  0.84881243967E+02  0.99734343897E+02  0.50000000000E+02 0.  0.
<mgrwt>
<rscale>  0 0.52365196E+02</rscale>
<asrwt>0</asrwt>
<pdfrwt beam="1">  1       13 0.10000000E+01 0.52365196E+02</pdfrwt>
<pdfrwt beam="2">  1       22 0.15295739E+00 0.52365196E+02</pdfrwt>
<totfact> 0.72928815E-01</totfact>
</mgrwt>
</event>
<event>
 4    1  0.2516086E+000  0.5103223E+02  0.7957747E-01  0.1439852E+00
         13   -1    0    0    0    0  0.00000000000E+00  0.00000000000E+00  0.99999944174E+02  0.99999999994E+02  0.10566000000E+00 0.  1.
         22   -1    0    0    0    0 -0.00000000000E+00 -0.00000000000E+00 -0.95525623416E+01  0.95525623416E+01  0.00000000000E+00 0.  1.
         13    1    1    2    0    0  0.10040048547E+02  0.18670648545E+01  0.21206353886E+02  0.23537398224E+02  0.10566000000E+00 0. -1.
        996    1    1    2    0    0 -0.10040048547E+02 -0.18670648545E+01  0.69241027947E+02  0.86015164111E+02  0.50000000000E+02 0.  0.
<mgrwt>
<rscale>  0 0.51032230E+02</rscale>
<asrwt>0</asrwt>
<pdfrwt beam="1">  1       13 0.10000000E+01 0.51032230E+02</pdfrwt>
<pdfrwt beam="2">  1       22 0.95525876E-01 0.51032230E+02</pdfrwt>
<totfact> 0.15022654E+00</totfact>
</mgrwt>
</event>
<event>
 4    1  0.2516086E+000  0.6318469E+02  0.7957747E-01  0.1384933E+00
         13   -1    0    0    0    0  0.00000000000E+00  0.00000000000E+00  0.99999944176E+02  0.99999999996E+02  0.10566000000E+00 0. -1.
         22   -1    0    0    0    0 -0.00000000000E+00 -0.00000000000E+00 -0.41634675386E+02  0.41634675386E+02  0.00000000000E+00 0.  1.
         13    1    1    2    0    0  0.25536006826E+02 -0.28986502758E+02 -0.17916538085E+02  0.42583077481E+02  0.10566000000E+00 0.  1.
        996    1    1    2    0    0 -0.25536006826E+02  0.28986502758E+02  0.76281806874E+02  0.99051597901E+02  0.50000000000E+02 0.  0.
<mgrwt>
<rscale>  0 0.63184689E+02</rscale>
<asrwt>0</asrwt>
<pdfrwt beam="1">  1       13 0.10000000E+01 0.63184689E+02</pdfrwt>
<pdfrwt beam="2">  1       22 0.41634692E+00 0.63184689E+02</pdfrwt>
<totfact> 0.11519807E-01</totfact>
</mgrwt>
</event>
<event>
 4    1  0.2516086E+000  0.5117971E+02  0.7957747E-01  0.1439080E+00
         13   -1    0    0    0    0  0.00000000000E+00  0.00000000000E+00  0.99999944175E+02  0.99999999996E+02  0.10566000000E+00 0. -1.
         22   -1    0    0    0    0 -0.00000000000E+00 -0.00000000000E+00 -0.13182201614E+02  0.13182201614E+02  0.00000000000E+00 0.  1.
         13    1    1    2    0    0  0.28608152870E+01  0.10544123928E+02 -0.15781044001E+01  0.11039220581E+02  0.10566000000E+00 0.  1.
        996    1    1    2    0    0 -0.28608152870E+01 -0.10544123928E+02  0.88395846961E+02  0.10214298103E+03  0.50000000000E+02 0.  0.
<mgrwt>
<rscale>  0 0.51179711E+02</rscale>
<asrwt>0</asrwt>
<pdfrwt beam="1">  1       13 0.10000000E+01 0.51179711E+02</pdfrwt>
<pdfrwt beam="2">  1       22 0.13182226E+00 0.51179711E+02</pdfrwt>
<totfact> 0.92697141E-01</totfact>
</mgrwt>
</event>
<event>
 4    1  0.2516086E+000  0.5633821E+02  0.7957747E-01  0.1413874E+00
         13   -1    0    0    0    0  0.00000000000E+00  0.00000000000E+00  0.99999944184E+02  0.10000000000E+03  0.10566000000E+00 0. -1.
         22   -1    0    0    0    0 -0.00000000000E+00 -0.00000000000E+00 -0.18461225023E+02  0.18461225023E+02  0.00000000000E+00 0.  1.
         13    1    1    2    0    0 -0.25465196592E+02 -0.50514606669E+01  0.11026395677E+02  0.28206135112E+02  0.10566000000E+00 0.  1.
        996    1    1    2    0    0  0.25465196592E+02  0.50514606669E+01  0.70512323484E+02  0.90255089915E+02  0.50000000000E+02 0.  0.
<mgrwt>
<rscale>  0 0.56338206E+02</rscale>
<asrwt>0</asrwt>
<pdfrwt beam="1">  1       13 0.10000000E+01 0.56338206E+02</pdfrwt>
<pdfrwt beam="2">  1       22 0.18461248E+00 0.56338206E+02</pdfrwt>
<totfact> 0.52900503E-01</totfact>
</mgrwt>
</event>
<event>
 4    1  0.2516086E+000  0.5805067E+02  0.7957747E-01  0.1406199E+00
         13   -1    0    0    0    0  0.00000000000E+00  0.00000000000E+00  0.99999944178E+02  0.99999999998E+02  0.10566000000E+00 0. -1.
         22   -1    0    0    0    0 -0.00000000000E+00 -0.00000000000E+00 -0.19816501716E+02  0.19816501716E+02  0.00000000000E+00 0.  1.
         13    1    1    2    0    0 -0.27380846862E+02 -0.10962211737E+02  0.17120085424E+02  0.34102629664E+02  0.10566000000E+00 0.  1.
        996    1    1    2    0    0  0.27380846862E+02  0.10962211737E+02  0.63063357037E+02  0.85713872050E+02  0.50000000000E+02 0.  0.
<mgrwt>
<rscale>  0 0.58050675E+02</rscale>
<asrwt>0</asrwt>
<pdfrwt beam="1">  1       13 0.10000000E+01 0.58050675E+02</pdfrwt>
<pdfrwt beam="2">  1       22 0.19816524E+00 0.58050675E+02</pdfrwt>
<totfact> 0.46568521E-01</totfact>
</mgrwt>
</event>
<event>
 4    1  0.2516086E+000  0.5232182E+02  0.7957747E-01  0.1433206E+00
         13   -1    0    0    0    0  0.00000000000E+00  0.00000000000E+00  0.99999944179E+02  0.99999999999E+02  0.10566000000E+00 0. -1.
         22   -1    0    0    0    0 -0.00000000000E+00 -0.00000000000E+00 -0.12657434208E+02  0.12657434208E+02  0.00000000000E+00 0. -1.
         13    1    1    2    0    0  0.12399242929E+02 -0.91559557270E+01  0.73584595030E+01  0.17080129999E+02  0.10566000000E+00 0.  1.
        996    1    1    2    0    0 -0.12399242929E+02  0.91559557270E+01  0.79984050468E+02  0.95577304209E+02  0.50000000000E+02 0.  0.
<mgrwt>
<rscale>  0 0.52321819E+02</rscale>
<asrwt>0</asrwt>
<pdfrwt beam="1">  1       13 0.10000000E+01 0.52321819E+02</pdfrwt>
<pdfrwt beam="2">  1       22 0.12657459E+00 0.52321819E+02</pdfrwt>
<totfact> 0.99055063E-01</totfact>
</mgrwt>
</event>
<event>
 4    1  0.2516086E+000  0.6111566E+02  0.7957747E-01  0.1393209E+00
         13   -1    0    0    0    0  0.00000000000E+00  0.00000000000E+00  0.99999944179E+02  0.99999999999E+02  0.10566000000E+00 0. -1.
         22   -1    0    0    0    0 -0.00000000000E+00 -0.00000000000E+00 -0.57937339002E+02  0.57937339002E+02  0.00000000000E+00 0.  1.
         13    1    1    2    0    0 -0.35107810410E+02 -0.16018824596E+01 -0.41518161431E+02  0.54395710050E+02  0.10566000000E+00 0.  1.
        996    1    1    2    0    0  0.35107810410E+02  0.16018824596E+01  0.83580766607E+02  0.10354162895E+03  0.50000000000E+02 0.  0.
<mgrwt>
<rscale>  0 0.61115664E+02</rscale>
<asrwt>0</asrwt>
<pdfrwt beam="1">  1       13 0.10000000E+01 0.61115664E+02</pdfrwt>
<pdfrwt beam="2">  1       22 0.57937351E+00 0.61115664E+02</pdfrwt>
<totfact> 0.58312477E-02</totfact>
</mgrwt>
</event>
<event>
 4    1  0.2516086E+000  0.5271805E+02  0.7957747E-01  0.1431209E+00
         13   -1    0    0    0    0  0.00000000000E+00  0.00000000000E+00  0.99999944177E+02  0.99999999997E+02  0.10566000000E+00 0. -1.
         22   -1    0    0    0    0 -0.00000000000E+00 -0.00000000000E+00 -0.15646554193E+02  0.15646554193E+02  0.00000000000E+00 0.  1.
         13    1    1    2    0    0 -0.16118148404E+02 -0.44042875537E+01  0.64616558833E+00  0.16721876415E+02  0.10566000000E+00 0.  1.
        996    1    1    2    0    0  0.16118148404E+02  0.44042875537E+01  0.83707224396E+02  0.98924677775E+02  0.50000000000E+02 0.  0.
<mgrwt>
<rscale>  0 0.52718047E+02</rscale>
<asrwt>0</asrwt>
<pdfrwt beam="1">  1       13 0.10000000E+01 0.52718047E+02</pdfrwt>
<pdfrwt beam="2">  1       22 0.15646578E+00 0.52718047E+02</pdfrwt>
<totfact> 0.70241646E-01</totfact>
</mgrwt>
</event>
<event>
 4    1  0.2516086E+000  0.5677088E+02  0.7957747E-01  0.1411905E+00
         13   -1    0    0    0    0  0.00000000000E+00  0.00000000000E+00  0.99999944180E+02  0.10000000000E+03  0.10566000000E+00 0.  1.
         22   -1    0    0    0    0 -0.00000000000E+00 -0.00000000000E+00 -0.20948176739E+02  0.20948176739E+02  0.00000000000E+00 0. -1.
         13    1    1    2    0    0  0.72384282499E+01  0.25894749889E+02  0.45315294976E+01  0.27266808375E+02  0.10566000000E+00 0. -1.
        996    1    1    2    0    0 -0.72384282499E+01 -0.25894749889E+02  0.74520237944E+02  0.93681368364E+02  0.50000000000E+02 0.  0.
<mgrwt>
<rscale>  0 0.56770881E+02</rscale>
<asrwt>0</asrwt>
<pdfrwt beam="1">  1       13 0.10000000E+01 0.56770881E+02</pdfrwt>
<pdfrwt beam="2">  1       22 0.20948199E+00 0.56770881E+02</pdfrwt>
<totfact> 0.41861248E-01</totfact>
</mgrwt>
</event>
<event>
 4    1  0.2516086E+000  0.5151321E+02  0.7957747E-01  0.1437347E+00
         13   -1    0    0    0    0  0.00000000000E+00  0.00000000000E+00  0.99999944169E+02  0.99999999990E+02  0.10566000000E+00 0. -1.
         22   -1    0    0    0    0 -0.00000000000E+00 -0.00000000000E+00 -0.23051509753E+02  0.23051509753E+02  0.00000000000E+00 0.  1.
         13    1    1    2    0    0  0.10874148699E+02 -0.59467374137E+01 -0.13894596736E+02  0.18619392533E+02  0.10566000000E+00 0.  1.
        996    1    1    2    0    0 -0.10874148699E+02  0.59467374137E+01  0.90843031153E+02  0.10443211721E+03  0.50000000000E+02 0.  0.
<mgrwt>
<rscale>  0 0.51513210E+02</rscale>
<asrwt>0</asrwt>
<pdfrwt beam="1">  1       13 0.10000000E+01 0.51513210E+02</pdfrwt>
<pdfrwt beam="2">  1       22 0.23051531E+00 0.51513210E+02</pdfrwt>
<totfact> 0.34527471E-01</totfact>
</mgrwt>
</event>
<event>
 4    1  0.2516086E+000  0.5382116E+02  0.7957747E-01  0.1425757E+00
         13   -1    0    0    0    0  0.00000000000E+00  0.00000000000E+00  0.99999944179E+02  0.99999999999E+02  0.10566000000E+00 0.  1.
         22   -1    0    0    0    0 -0.00000000000E+00 -0.00000000000E+00 -0.13597099805E+02  0.13597099805E+02  0.00000000000E+00 0.  1.
         13    1    1    2    0    0  0.16629526313E+02  0.10962471443E+02  0.22539880849E+02  0.30079466722E+02  0.10566000000E+00 0. -1.
        996    1    1    2    0    0 -0.16629526313E+02 -0.10962471443E+02  0.63862963525E+02  0.83517633082E+02  0.50000000000E+02 0.  0.
<mgrwt>
<rscale>  0 0.53821157E+02</rscale>
<asrwt>0</asrwt>
<pdfrwt beam="1">  1       13 0.10000000E+01 0.53821157E+02</pdfrwt>
<pdfrwt beam="2">  1       22 0.13597124E+00 0.53821157E+02</pdfrwt>
<totfact> 0.88727204E-01</totfact>
</mgrwt>
</event>
<event>
 4    1  0.2516086E+000  0.5135722E+02  0.7957747E-01  0.1438156E+00
         13   -1    0    0    0    0  0.00000000000E+00  0.00000000000E+00  0.99999944179E+02  0.10000000000E+03  0.10566000000E+00 0.  1.
         22   -1    0    0    0    0 -0.00000000000E+00 -0.00000000000E+00 -0.10316803239E+02  0.10316803239E+02  0.00000000000E+00 0.  1.
         13    1    1    2    0    0 -0.30081127835E+01 -0.11336439038E+02  0.25865301464E+02  0.28400503102E+02  0.10566000000E+00 0. -1.
        996    1    1    2    0    0  0.30081127835E+01  0.11336439038E+02  0.63817839477E+02  0.81916300137E+02  0.50000000000E+02 0.  0.
<mgrwt>
<rscale>  0 0.51357216E+02</rscale>
<asrwt>0</asrwt>
<pdfrwt beam="1">  1       13 0.10000000E+01 0.51357216E+02</pdfrwt>
<pdfrwt beam="2">  1       22 0.10316828E+00 0.51357216E+02</pdfrwt>
<totfact> 0.13451835E+00</totfact>
</mgrwt>
</event>
<event>
 4    1  0.2516086E+000  0.5161325E+02  0.7957747E-01  0.1436829E+00
         13   -1    0    0    0    0  0.00000000000E+00  0.00000000000E+00  0.99999944175E+02  0.99999999996E+02  0.10566000000E+00 0. -1.
         22   -1    0    0    0    0 -0.00000000000E+00 -0.00000000000E+00 -0.14388234819E+02  0.14388234819E+02  0.00000000000E+00 0.  1.
         13    1    1    2    0    0  0.12001871653E+02 -0.44590185188E+01 -0.17461292020E+01  0.12922379833E+02  0.10566000000E+00 0.  1.
        996    1    1    2    0    0 -0.12001871653E+02  0.44590185188E+01  0.87357838559E+02  0.10146585498E+03  0.50000000000E+02 0.  0.
<mgrwt>
<rscale>  0 0.51613252E+02</rscale>
<asrwt>0</asrwt>
<pdfrwt beam="1">  1       13 0.10000000E+01 0.51613252E+02</pdfrwt>
<pdfrwt beam="2">  1       22 0.14388259E+00 0.51613252E+02</pdfrwt>
<totfact> 0.80586917E-01</totfact>
</mgrwt>
</event>
<event>
 4    1  0.2516086E+000  0.5201217E+02  0.7957747E-01  0.1434781E+00
         13   -1    0    0    0    0  0.00000000000E+00  0.00000000000E+00  0.99999944177E+02  0.99999999997E+02  0.10566000000E+00 0. -1.
         22   -1    0    0    0    0 -0.00000000000E+00 -0.00000000000E+00 -0.14926889780E+02  0.14926889780E+02  0.00000000000E+00 0. -1.
         13    1    1    2    0    0  0.10630439787E+02  0.96051712745E+01 -0.99673862884E+00  0.14362110472E+02  0.10566000000E+00 0.  1.
        996    1    1    2    0    0 -0.10630439787E+02 -0.96051712745E+01  0.86069793025E+02  0.10056477931E+03  0.50000000000E+02 0.  0.
<mgrwt>
<rscale>  0 0.52012167E+02</rscale>
<asrwt>0</asrwt>
<pdfrwt beam="1">  1       13 0.10000000E+01 0.52012167E+02</pdfrwt>
<pdfrwt beam="2">  1       22 0.14926914E+00 0.52012167E+02</pdfrwt>
<totfact> 0.75908766E-01</totfact>
</mgrwt>
</event>
<event>
 4    1  0.2516086E+000  0.5451875E+02  0.7957747E-01  0.1422389E+00
         13   -1    0    0    0    0  0.00000000000E+00  0.00000000000E+00  0.99999944172E+02  0.99999999992E+02  0.10566000000E+00 0. -1.
         22   -1    0    0    0    0 -0.00000000000E+00 -0.00000000000E+00 -0.18631070401E+02  0.18631070401E+02  0.00000000000E+00 0.  1.
         13    1    1    2    0    0  0.51202331592E+01  0.21120531454E+02  0.13102793057E+01  0.21772037856E+02  0.10566000000E+00 0.  1.
        996    1    1    2    0    0 -0.51202331592E+01 -0.21120531454E+02  0.80058594465E+02  0.96859032538E+02  0.50000000000E+02 0.  0.
<mgrwt>
<rscale>  0 0.54518746E+02</rscale>
<asrwt>0</asrwt>
<pdfrwt beam="1">  1       13 0.10000000E+01 0.54518746E+02</pdfrwt>
<pdfrwt beam="2">  1       22 0.18631093E+00 0.54518746E+02</pdfrwt>
<totfact> 0.51863351E-01</totfact>
</mgrwt>
</event>
<event>
 4    1  0.2516086E+000  0.5103200E+02  0.7957747E-01  0.1439853E+00
         13   -1    0    0    0    0  0.00000000000E+00  0.00000000000E+00  0.99999944178E+02  0.99999999998E+02  0.10566000000E+00 0. -1.
         22   -1    0    0    0    0 -0.00000000000E+00 -0.00000000000E+00 -0.96130245046E+01  0.96130245046E+01  0.00000000000E+00 0. -1.
         13    1    1    2    0    0 -0.32035459490E+01 -0.96954859810E+01  0.93449716270E+01  0.13842139062E+02  0.10566000000E+00 0.  1.
        996    1    1    2    0    0  0.32035459490E+01  0.96954859810E+01  0.81041948046E+02  0.95770885441E+02  0.50000000000E+02 0.  0.
<mgrwt>
<rscale>  0 0.51032001E+02</rscale>
<asrwt>0</asrwt>
<pdfrwt beam="1">  1       13 0.10000000E+01 0.51032001E+02</pdfrwt>
<pdfrwt beam="2">  1       22 0.96130497E-01 0.51032001E+02</pdfrwt>
<totfact> 0.14887543E+00</totfact>
</mgrwt>
</event>
<event>
 4    1  0.2516086E+000  0.5219379E+02  0.7957747E-01  0.1433856E+00
         13   -1    0    0    0    0  0.00000000000E+00  0.00000000000E+00  0.99999944183E+02  0.10000000000E+03  0.10566000000E+00 0. -1.
         22   -1    0    0    0    0 -0.00000000000E+00 -0.00000000000E+00 -0.11282799123E+02  0.11282799123E+02  0.00000000000E+00 0. -1.
         13    1    1    2    0    0  0.13218581417E+02  0.70328486259E+01  0.20684820927E+02  0.25535560211E+02  0.10566000000E+00 0.  1.
        996    1    1    2    0    0 -0.13218581417E+02 -0.70328486259E+01  0.68032324133E+02  0.85747238914E+02  0.50000000000E+02 0.  0.
<mgrwt>
<rscale>  0 0.52193791E+02</rscale>
<asrwt>0</asrwt>
<pdfrwt beam="1">  1       13 0.10000000E+01 0.52193791E+02</pdfrwt>
<pdfrwt beam="2">  1       22 0.11282824E+00 0.52193791E+02</pdfrwt>
<totfact> 0.11806429E+00</totfact>
</mgrwt>
</event>
<event>
 4    1  0.2516086E+000  0.5272486E+02  0.7957747E-01  0.1431175E+00
         13   -1    0    0    0    0  0.00000000000E+00  0.00000000000E+00  0.99999944181E+02  0.10000000000E+03  0.10566000000E+00 0.  1.
         22   -1    0    0    0    0 -0.00000000000E+00 -0.00000000000E+00 -0.39754585834E+02  0.39754585834E+02  0.00000000000E+00 0. -1.
         13    1    1    2    0    0  0.90427540511E+01  0.14076208126E+02 -0.30509442635E+02  0.34795808512E+02  0.10566000000E+00 0. -1.
        996    1    1    2    0    0 -0.90427540511E+01 -0.14076208126E+02  0.90754800982E+02  0.10495877732E+03  0.50000000000E+02 0.  0.
<mgrwt>
<rscale>  0 0.52724862E+02</rscale>
<asrwt>0</asrwt>
<pdfrwt beam="1">  1       13 0.10000000E+01 0.52724862E+02</pdfrwt>
<pdfrwt beam="2">  1       22 0.39754603E+00 0.52724862E+02</pdfrwt>
<totfact> 0.12519633E-01</totfact>
</mgrwt>
</event>
<event>
 4    1  0.2516086E+000  0.5163468E+02  0.7957747E-01  0.1436719E+00
         13   -1    0    0    0    0  0.00000000000E+00  0.00000000000E+00  0.99999944188E+02  0.10000000001E+03  0.10566000000E+00 0.  1.
         22   -1    0    0    0    0 -0.00000000000E+00 -0.00000000000E+00 -0.34627723213E+02  0.34627723213E+02  0.00000000000E+00 0. -1.
         13    1    1    2    0    0 -0.10039751870E+02  0.80835476277E+01 -0.26370653717E+02  0.29352391748E+02  0.10566000000E+00 0. -1.
        996    1    1    2    0    0  0.10039751870E+02 -0.80835476277E+01  0.91742874692E+02  0.10527533147E+03  0.50000000000E+02 0.  0.
<mgrwt>
<rscale>  0 0.51634682E+02</rscale>
<asrwt>0</asrwt>
<pdfrwt beam="1">  1       13 0.10000000E+01 0.51634682E+02</pdfrwt>
<pdfrwt beam="2">  1       22 0.34627741E+00 0.51634682E+02</pdfrwt>
<totfact> 0.16003784E-01</totfact>
</mgrwt>
</event>
<event>
 4    1  0.2516086E+000  0.5268155E+02  0.7957747E-01  0.1431392E+00
         13   -1    0    0    0    0  0.00000000000E+00  0.00000000000E+00  0.99999944181E+02  0.10000000000E+03  0.10566000000E+00 0. -1.
         22   -1    0    0    0    0 -0.00000000000E+00 -0.00000000000E+00 -0.12212304615E+02  0.12212304615E+02  0.00000000000E+00 0. -1.
         13    1    1    2    0    0  0.94294595461E+01  0.13653985808E+02  0.27799577346E+02  0.32375510814E+02  0.10566000000E+00 0.  1.
        996    1    1    2    0    0 -0.94294595461E+01 -0.13653985808E+02  0.59988062220E+02  0.79836793803E+02  0.50000000000E+02 0.  0.
<mgrwt>
<rscale>  0 0.52681553E+02</rscale>
<asrwt>0</asrwt>
<pdfrwt beam="1">  1       13 0.10000000E+01 0.52681553E+02</pdfrwt>
<pdfrwt beam="2">  1       22 0.12212329E+00 0.52681553E+02</pdfrwt>
<totfact> 0.10479354E+00</totfact>
</mgrwt>
</event>
<event>
 4    1  0.2516086E+000  0.5237510E+02  0.7957747E-01  0.1432936E+00
         13   -1    0    0    0    0  0.00000000000E+00  0.00000000000E+00  0.99999944172E+02  0.99999999992E+02  0.10566000000E+00 0. -1.
         22   -1    0    0    0    0 -0.00000000000E+00 -0.00000000000E+00 -0.50288259556E+02  0.50288259556E+02  0.00000000000E+00 0.  1.
         13    1    1    2    0    0  0.15012027864E+02  0.42178573022E+01 -0.41929954152E+02  0.44735707438E+02  0.10566000000E+00 0.  1.
        996    1    1    2    0    0 -0.15012027864E+02 -0.42178573022E+01  0.91641638768E+02  0.10555255211E+03  0.50000000000E+02 0.  0.
<mgrwt>
<rscale>  0 0.52375102E+02</rscale>
<asrwt>0</asrwt>
<pdfrwt beam="1">  1       13 0.10000000E+01 0.52375102E+02</pdfrwt>
<pdfrwt beam="2">  1       22 0.50288273E+00 0.52375102E+02</pdfrwt>
<totfact> 0.72471928E-02</totfact>
</mgrwt>
</event>
<event>
 4    1  0.2516086E+000  0.5202103E+02  0.7957747E-01  0.1434736E+00
         13   -1    0    0    0    0  0.00000000000E+00  0.00000000000E+00  0.99999944174E+02  0.99999999994E+02  0.10566000000E+00 0.  1.
         22   -1    0    0    0    0 -0.00000000000E+00 -0.00000000000E+00 -0.11049994952E+02  0.11049994952E+02  0.00000000000E+00 0.  1.
         13    1    1    2    0    0  0.11568089304E+02 -0.85068419781E+01  0.21859599769E+02  0.26154164423E+02  0.10566000000E+00 0. -1.
        996    1    1    2    0    0 -0.11568089304E+02  0.85068419781E+01  0.67090349453E+02  0.84895830523E+02  0.50000000000E+02 0.  0.
<mgrwt>
<rscale>  0 0.52021025E+02</rscale>
<asrwt>0</asrwt>
<pdfrwt beam="1">  1       13 0.10000000E+01 0.52021025E+02</pdfrwt>
<pdfrwt beam="2">  1       22 0.11050020E+00 0.52021025E+02</pdfrwt>
<totfact> 0.12175353E+00</totfact>
</mgrwt>
</event>
<event>
 4    1  0.2516086E+000  0.5706091E+02  0.7957747E-01  0.1410597E+00
         13   -1    0    0    0    0  0.00000000000E+00  0.00000000000E+00  0.99999944171E+02  0.99999999991E+02  0.10566000000E+00 0.  1.
         22   -1    0    0    0    0 -0.00000000000E+00 -0.00000000000E+00 -0.30808560313E+02  0.30808560313E+02  0.00000000000E+00 0.  1.
         13    1    1    2    0    0 -0.76295716630E+01 -0.26414705327E+02 -0.13270240928E+02  0.30529616434E+02  0.10566000000E+00 0. -1.
        996    1    1    2    0    0  0.76295716630E+01  0.26414705327E+02  0.82461624786E+02  0.10027894387E+03  0.50000000000E+02 0.  0.
<mgrwt>
<rscale>  0 0.57060906E+02</rscale>
<asrwt>0</asrwt>
<pdfrwt beam="1">  1       13 0.10000000E+01 0.57060906E+02</pdfrwt>
<pdfrwt beam="2">  1       22 0.30808580E+00 0.57060906E+02</pdfrwt>
<totfact> 0.19829755E-01</totfact>
</mgrwt>
</event>
<event>
 4    1  0.2516086E+000  0.5317387E+02  0.7957747E-01  0.1428938E+00
         13   -1    0    0    0    0  0.00000000000E+00  0.00000000000E+00  0.99999944175E+02  0.99999999995E+02  0.10566000000E+00 0.  1.
         22   -1    0    0    0    0 -0.00000000000E+00 -0.00000000000E+00 -0.12798627052E+02  0.12798627052E+02  0.00000000000E+00 0.  1.
         13    1    1    2    0    0 -0.13984296796E+02 -0.11484767729E+02  0.26656449934E+02  0.32218596086E+02  0.10566000000E+00 0. -1.
        996    1    1    2    0    0  0.13984296796E+02  0.11484767729E+02  0.60544867189E+02  0.80580030961E+02  0.50000000000E+02 0.  0.
<mgrwt>
<rscale>  0 0.53173870E+02</rscale>
<asrwt>0</asrwt>
<pdfrwt beam="1">  1       13 0.10000000E+01 0.53173870E+02</pdfrwt>
<pdfrwt beam="2">  1       22 0.12798651E+00 0.53173870E+02</pdfrwt>
<totfact> 0.97529638E-01</totfact>
</mgrwt>
</event>
<event>
 4    1  0.2516086E+000  0.5845465E+02  0.7957747E-01  0.1404434E+00
         13   -1    0    0    0    0  0.00000000000E+00  0.00000000000E+00  0.99999944190E+02  0.10000000001E+03  0.10566000000E+00 0.  1.
         22   -1    0    0    0    0 -0.00000000000E+00 -0.00000000000E+00 -0.86272963915E+02  0.86272963915E+02  0.00000000000E+00 0. -1.
         13    1    1    2    0    0 -0.62341421946E+01 -0.29632438345E+02 -0.74511076285E+02  0.80429208528E+02  0.10566000000E+00 0. -1.
        996    1    1    2    0    0  0.62341421946E+01  0.29632438345E+02  0.88238056560E+02  0.10584375540E+03  0.50000000000E+02 0.  0.
<mgrwt>
<rscale>  0 0.58454648E+02</rscale>
<asrwt>0</asrwt>
<pdfrwt beam="1">  1       13 0.10000000E+01 0.58454648E+02</pdfrwt>
<pdfrwt beam="2">  1       22 0.86272968E+00 0.58454648E+02</pdfrwt>
<totfact> 0.16540617E-02</totfact>
</mgrwt>
</event>
<event>
 4    1  0.2516086E+000  0.5114966E+02  0.7957747E-01  0.1439237E+00
         13   -1    0    0    0    0  0.00000000000E+00  0.00000000000E+00  0.99999944177E+02  0.99999999998E+02  0.10566000000E+00 0.  1.
         22   -1    0    0    0    0 -0.00000000000E+00 -0.00000000000E+00 -0.30715810199E+02  0.30715810199E+02  0.00000000000E+00 0. -1.
         13    1    1    2    0    0  0.87411424451E+01  0.63151021311E+01 -0.22888564902E+02  0.25301890314E+02  0.10566000000E+00 0. -1.
        996    1    1    2    0    0 -0.87411424451E+01 -0.63151021311E+01  0.92172698880E+02  0.10541391988E+03  0.50000000000E+02 0.  0.
<mgrwt>
<rscale>  0 0.51149664E+02</rscale>
<asrwt>0</asrwt>
<pdfrwt beam="1">  1       13 0.10000000E+01 0.51149664E+02</pdfrwt>
<pdfrwt beam="2">  1       22 0.30715830E+00 0.51149664E+02</pdfrwt>
<totfact> 0.19796153E-01</totfact>
</mgrwt>
</event>
<event>
 4    1  0.2516086E+000  0.5177833E+02  0.7957747E-01  0.1435979E+00
         13   -1    0    0    0    0  0.00000000000E+00  0.00000000000E+00  0.99999944180E+02  0.10000000000E+03  0.10566000000E+00 0.  1.
         22   -1    0    0    0    0 -0.00000000000E+00 -0.00000000000E+00 -0.12756598796E+02  0.12756598796E+02  0.00000000000E+00 0. -1.
         13    1    1    2    0    0 -0.73532946939E+01  0.11266071227E+02  0.28609974210E+01  0.13754700070E+02  0.10566000000E+00 0. -1.
        996    1    1    2    0    0  0.73532946939E+01 -0.11266071227E+02  0.84382347963E+02  0.99001898727E+02  0.50000000000E+02 0.  0.
<mgrwt>
<rscale>  0 0.51778329E+02</rscale>
<asrwt>0</asrwt>
<pdfrwt beam="1">  1       13 0.10000000E+01 0.51778329E+02</pdfrwt>
<pdfrwt beam="2">  1       22 0.12756623E+00 0.51778329E+02</pdfrwt>
<totfact> 0.97738344E-01</totfact>
</mgrwt>
</event>
<event>
 4    1  0.2516086E+000  0.5230046E+02  0.7957747E-01  0.1433314E+00
         13   -1    0    0    0    0  0.00000000000E+00  0.00000000000E+00  0.99999944177E+02  0.99999999997E+02  0.10566000000E+00 0. -1.
         22   -1    0    0    0    0 -0.00000000000E+00 -0.00000000000E+00 -0.12568445316E+02  0.12568445316E+02  0.00000000000E+00 0. -1.
         13    1    1    2    0    0 -0.79798159011E+01  0.13101929630E+02  0.75744586199E+01  0.17109108956E+02  0.10566000000E+00 0.  1.
        996    1    1    2    0    0  0.79798159011E+01 -0.13101929630E+02  0.79857040241E+02  0.95459336358E+02  0.50000000000E+02 0.  0.
<mgrwt>
<rscale>  0 0.52300459E+02</rscale>
<asrwt>0</asrwt>
<pdfrwt beam="1">  1       13 0.10000000E+01 0.52300459E+02</pdfrwt>
<pdfrwt beam="2">  1       22 0.12568470E+00 0.52300459E+02</pdfrwt>
<totfact> 0.10014581E+00</totfact>
</mgrwt>
</event>
<event>
 4    1  0.2516086E+000  0.7519351E+02  0.7957747E-01  0.1343273E+00
         13   -1    0    0    0    0  0.00000000000E+00  0.00000000000E+00  0.99999944176E+02  0.99999999996E+02  0.10566000000E+00 0. -1.
         22   -1    0    0    0    0 -0.00000000000E+00 -0.00000000000E+00 -0.62895297841E+02  0.62895297841E+02  0.00000000000E+00 0.  1.
         13    1    1    2    0    0 -0.22060648007E-01  0.56161047480E+02 -0.28613938553E+02  0.63030408409E+02  0.10566000000E+00 0.  1.
        996    1    1    2    0    0  0.22060648007E-01 -0.56161047480E+02  0.65718584888E+02  0.99864889428E+02  0.50000000000E+02 0.  0.
<mgrwt>
<rscale>  0 0.75193509E+02</rscale>
<asrwt>0</asrwt>
<pdfrwt beam="1">  1       13 0.10000000E+01 0.75193509E+02</pdfrwt>
<pdfrwt beam="2">  1       22 0.62895308E+00 0.75193509E+02</pdfrwt>
<totfact> 0.78200226E-02</totfact>
</mgrwt>
</event>
<event>
 4    1  0.2516086E+000  0.5175140E+02  0.7957747E-01  0.1436118E+00
         13   -1    0    0    0    0  0.00000000000E+00  0.00000000000E+00  0.99999944183E+02  0.10000000000E+03  0.10566000000E+00 0.  1.
         22   -1    0    0    0    0 -0.00000000000E+00 -0.00000000000E+00 -0.10935664246E+02  0.10935664246E+02  0.00000000000E+00 0.  1.
         13    1    1    2    0    0 -0.11643633264E+01  0.13298551249E+02  0.27047075950E+02  0.30162272606E+02  0.10566000000E+00 0. -1.
        996    1    1    2    0    0  0.11643633264E+01 -0.13298551249E+02  0.62017203986E+02  0.80773391643E+02  0.50000000000E+02 0.  0.
<mgrwt>
<rscale>  0 0.51751398E+02</rscale>
<asrwt>0</asrwt>
<pdfrwt beam="1">  1       13 0.10000000E+01 0.51751398E+02</pdfrwt>
<pdfrwt beam="2">  1       22 0.10935689E+00 0.51751398E+02</pdfrwt>
<totfact> 0.12357467E+00</totfact>
</mgrwt>
</event>
<event>
 4    1  0.2516086E+000  0.5421888E+02  0.7957747E-01  0.1423829E+00
         13   -1    0    0    0    0  0.00000000000E+00  0.00000000000E+00  0.99999944189E+02  0.10000000001E+03  0.10566000000E+00 0.  1.
         22   -1    0    0    0    0 -0.00000000000E+00 -0.00000000000E+00 -0.90010814919E+02  0.90010814919E+02  0.00000000000E+00 0. -1.
         13    1    1    2    0    0  0.20508173586E+02  0.43705376600E+01 -0.81231045106E+02  0.83893865308E+02  0.10566000000E+00 0. -1.
        996    1    1    2    0    0 -0.20508173586E+02 -0.43705376600E+01  0.91220174377E+02  0.10611694962E+03  0.50000000000E+02 0.  0.
<mgrwt>
<rscale>  0 0.54218878E+02</rscale>
<asrwt>0</asrwt>
<pdfrwt beam="1">  1       13 0.10000000E+01 0.54218878E+02</pdfrwt>
<pdfrwt beam="2">  1       22 0.90010818E+00 0.54218878E+02</pdfrwt>
<totfact> 0.10381245E-02</totfact>
</mgrwt>
</event>
<event>
 4    1  0.2516086E+000  0.5706637E+02  0.7957747E-01  0.1410572E+00
         13   -1    0    0    0    0  0.00000000000E+00  0.00000000000E+00  0.99999944174E+02  0.99999999994E+02  0.10566000000E+00 0. -1.
         22   -1    0    0    0    0 -0.00000000000E+00 -0.00000000000E+00 -0.23714870674E+02  0.23714870674E+02  0.00000000000E+00 0.  1.
         13    1    1    2    0    0  0.51713967607E+01  0.27015305990E+02 -0.11423781820E+01  0.27529734727E+02  0.10566000000E+00 0.  1.
        996    1    1    2    0    0 -0.51713967607E+01 -0.27015305990E+02  0.77427451682E+02  0.96185135942E+02  0.50000000000E+02 0.  0.
<mgrwt>
<rscale>  0 0.57066366E+02</rscale>
<asrwt>0</asrwt>
<pdfrwt beam="1">  1       13 0.10000000E+01 0.57066366E+02</pdfrwt>
<pdfrwt beam="2">  1       22 0.23714892E+00 0.57066366E+02</pdfrwt>
<totfact> 0.32953065E-01</totfact>
</mgrwt>
</event>
<event>
 4    1  0.2516086E+000  0.5152950E+02  0.7957747E-01  0.1437262E+00
         13   -1    0    0    0    0  0.00000000000E+00  0.00000000000E+00  0.99999944179E+02  0.99999999999E+02  0.10566000000E+00 0. -1.
         22   -1    0    0    0    0 -0.00000000000E+00 -0.00000000000E+00 -0.15110275894E+02  0.15110275894E+02  0.00000000000E+00 0.  1.
         13    1    1    2    0    0 -0.12457546350E+02 -0.31409008495E+00 -0.33696724294E+01  0.12909491468E+02  0.10566000000E+00 0.  1.
        996    1    1    2    0    0  0.12457546350E+02  0.31409008495E+00  0.88259340714E+02  0.10220078442E+03  0.50000000000E+02 0.  0.
<mgrwt>
<rscale>  0 0.51529498E+02</rscale>
<asrwt>0</asrwt>
<pdfrwt beam="1">  1       13 0.10000000E+01 0.51529498E+02</pdfrwt>
<pdfrwt beam="2">  1       22 0.15110300E+00 0.51529498E+02</pdfrwt>
<totfact> 0.74306793E-01</totfact>
</mgrwt>
</event>
<event>
 4    1  0.2516086E+000  0.5102392E+02  0.7957747E-01  0.1439896E+00
         13   -1    0    0    0    0  0.00000000000E+00  0.00000000000E+00  0.99999944179E+02  0.99999999999E+02  0.10566000000E+00 0. -1.
         22   -1    0    0    0    0 -0.00000000000E+00 -0.00000000000E+00 -0.22660748487E+02  0.22660748487E+02  0.00000000000E+00 0.  1.
         13    1    1    2    0    0  0.10167394663E+02 -0.25338145908E+00 -0.14433709692E+02  0.17657385308E+02  0.10566000000E+00 0.  1.
        996    1    1    2    0    0 -0.10167394663E+02  0.25338145908E+00  0.91772905383E+02  0.10500336318E+03  0.50000000000E+02 0.  0.
<mgrwt>
<rscale>  0 0.51023917E+02</rscale>
<asrwt>0</asrwt>
<pdfrwt beam="1">  1       13 0.10000000E+01 0.51023917E+02</pdfrwt>
<pdfrwt beam="2">  1       22 0.22660770E+00 0.51023917E+02</pdfrwt>
<totfact> 0.35662516E-01</totfact>
</mgrwt>
</event>
<event>
 4    1  0.2516086E+000  0.5589611E+02  0.7957747E-01  0.1415908E+00
         13   -1    0    0    0    0  0.00000000000E+00  0.00000000000E+00  0.99999944178E+02  0.99999999998E+02  0.10566000000E+00 0. -1.
         22   -1    0    0    0    0 -0.00000000000E+00 -0.00000000000E+00 -0.17077819592E+02  0.17077819592E+02  0.00000000000E+00 0. -1.
         13    1    1    2    0    0 -0.15570184395E+02  0.19543389352E+02  0.15121697274E+02  0.29207047128E+02  0.10566000000E+00 0.  1.
        996    1    1    2    0    0  0.15570184395E+02 -0.19543389352E+02  0.67800427311E+02  0.87870772462E+02  0.50000000000E+02 0.  0.
<mgrwt>
<rscale>  0 0.55896106E+02</rscale>
<asrwt>0</asrwt>
<pdfrwt beam="1">  1       13 0.10000000E+01 0.55896106E+02</pdfrwt>
<pdfrwt beam="2">  1       22 0.17077843E+00 0.55896106E+02</pdfrwt>
<totfact> 0.60751797E-01</totfact>
</mgrwt>
</event>
<event>
 4    1  0.2516086E+000  0.5191791E+02  0.7957747E-01  0.1435263E+00
         13   -1    0    0    0    0  0.00000000000E+00  0.00000000000E+00  0.99999944179E+02  0.10000000000E+03  0.10566000000E+00 0. -1.
         22   -1    0    0    0    0 -0.00000000000E+00 -0.00000000000E+00 -0.11232062713E+02  0.11232062713E+02  0.00000000000E+00 0. -1.
         13    1    1    2    0    0  0.11691237827E+02  0.76671103979E+01  0.11306012519E+02  0.17980731545E+02  0.10566000000E+00 0.  1.
        996    1    1    2    0    0 -0.11691237827E+02 -0.76671103979E+01  0.77461868947E+02  0.93251331168E+02  0.50000000000E+02 0.  0.
<mgrwt>
<rscale>  0 0.51917912E+02</rscale>
<asrwt>0</asrwt>
<pdfrwt beam="1">  1       13 0.10000000E+01 0.51917912E+02</pdfrwt>
<pdfrwt beam="2">  1       22 0.11232087E+00 0.51917912E+02</pdfrwt>
<totfact> 0.11878931E+00</totfact>
</mgrwt>
</event>
<event>
 4    1  0.2516086E+000  0.5420337E+02  0.7957747E-01  0.1423904E+00
         13   -1    0    0    0    0  0.00000000000E+00  0.00000000000E+00  0.99999944183E+02  0.10000000000E+03  0.10566000000E+00 0.  1.
         22   -1    0    0    0    0 -0.00000000000E+00 -0.00000000000E+00 -0.24347113121E+02  0.24347113121E+02  0.00000000000E+00 0.  1.
         13    1    1    2    0    0  0.88986982616E+01  0.18942513989E+02 -0.98343607712E+01  0.23124261779E+02  0.10566000000E+00 0. -1.
        996    1    1    2    0    0 -0.88986982616E+01 -0.18942513989E+02  0.85487191833E+02  0.10122285135E+03  0.50000000000E+02 0.  0.
<mgrwt>
<rscale>  0 0.54203373E+02</rscale>
<asrwt>0</asrwt>
<pdfrwt beam="1">  1       13 0.10000000E+01 0.54203373E+02</pdfrwt>
<pdfrwt beam="2">  1       22 0.24347134E+00 0.54203373E+02</pdfrwt>
<totfact> 0.31160118E-01</totfact>
</mgrwt>
</event>
<event>
 4    1  0.2516086E+000  0.5112587E+02  0.7957747E-01  0.1439362E+00
         13   -1    0    0    0    0  0.00000000000E+00  0.00000000000E+00  0.99999944176E+02  0.99999999996E+02  0.10566000000E+00 0.  1.
         22   -1    0    0    0    0 -0.00000000000E+00 -0.00000000000E+00 -0.23015692050E+02  0.23015692050E+02  0.00000000000E+00 0. -1.
         13    1    1    2    0    0  0.10083474863E+02  0.34897459955E+01 -0.14625972520E+02  0.18104834399E+02  0.10566000000E+00 0. -1.
        996    1    1    2    0    0 -0.10083474863E+02 -0.34897459955E+01  0.91610224646E+02  0.10491085765E+03  0.50000000000E+02 0.  0.
<mgrwt>
<rscale>  0 0.51125872E+02</rscale>
<asrwt>0</asrwt>
<pdfrwt beam="1">  1       13 0.10000000E+01 0.51125872E+02</pdfrwt>
<pdfrwt beam="2">  1       22 0.23015714E+00 0.51125872E+02</pdfrwt>
<totfact> 0.34609432E-01</totfact>
</mgrwt>
</event>
<event>
 4    1  0.2516086E+000  0.5177856E+02  0.7957747E-01  0.1435978E+00
         13   -1    0    0    0    0  0.00000000000E+00  0.00000000000E+00  0.99999944176E+02  0.99999999996E+02  0.10566000000E+00 0.  1.
         22   -1    0    0    0    0 -0.00000000000E+00 -0.00000000000E+00 -0.15294132168E+02  0.15294132168E+02  0.00000000000E+00 0.  1.
         13    1    1    2    0    0 -0.94050264842E+01 -0.96210481228E+01 -0.26809125418E+01  0.13719240002E+02  0.10566000000E+00 0. -1.
        996    1    1    2    0    0  0.94050264842E+01  0.96210481228E+01  0.87386724549E+02  0.10157489216E+03  0.50000000000E+02 0.  0.
<mgrwt>
<rscale>  0 0.51778558E+02</rscale>
<asrwt>0</asrwt>
<pdfrwt beam="1">  1       13 0.10000000E+01 0.51778558E+02</pdfrwt>
<pdfrwt beam="2">  1       22 0.15294156E+00 0.51778558E+02</pdfrwt>
<totfact> 0.72854885E-01</totfact>
</mgrwt>
</event>
<event>
 4    1  0.2516086E+000  0.5233826E+02  0.7957747E-01  0.1433123E+00
         13   -1    0    0    0    0  0.00000000000E+00  0.00000000000E+00  0.99999944180E+02  0.10000000000E+03  0.10566000000E+00 0. -1.
         22   -1    0    0    0    0 -0.00000000000E+00 -0.00000000000E+00 -0.16520360319E+02  0.16520360319E+02  0.00000000000E+00 0.  1.
         13    1    1    2    0    0  0.11718731730E+02  0.10097785114E+02 -0.26896382177E+01  0.15701568563E+02  0.10566000000E+00 0.  1.
        996    1    1    2    0    0 -0.11718731730E+02 -0.10097785114E+02  0.86169222078E+02  0.10081879176E+03  0.50000000000E+02 0.  0.
<mgrwt>
<rscale>  0 0.52338265E+02</rscale>
<asrwt>0</asrwt>
<pdfrwt beam="1">  1       13 0.10000000E+01 0.52338265E+02</pdfrwt>
<pdfrwt beam="2">  1       22 0.16520384E+00 0.52338265E+02</pdfrwt>
<totfact> 0.63948852E-01</totfact>
</mgrwt>
</event>
<event>
 4    1  0.2516086E+000  0.5474158E+02  0.7957747E-01  0.1421325E+00
         13   -1    0    0    0    0  0.00000000000E+00  0.00000000000E+00  0.99999944179E+02  0.99999999999E+02  0.10566000000E+00 0. -1.
         22   -1    0    0    0    0 -0.00000000000E+00 -0.00000000000E+00 -0.35954721092E+02  0.35954721092E+02  0.00000000000E+00 0.  1.
         13    1    1    2    0    0 -0.12193262560E+02 -0.18653831413E+02 -0.23701098534E+02  0.32532972720E+02  0.10566000000E+00 0.  1.
        996    1    1    2    0    0  0.12193262560E+02  0.18653831413E+02  0.87746321620E+02  0.10342174837E+03  0.50000000000E+02 0.  0.
<mgrwt>
<rscale>  0 0.54741585E+02</rscale>
<asrwt>0</asrwt>
<pdfrwt beam="1">  1       13 0.10000000E+01 0.54741585E+02</pdfrwt>
<pdfrwt beam="2">  1       22 0.35954739E+00 0.54741585E+02</pdfrwt>
<totfact> 0.15032925E-01</totfact>
</mgrwt>
</event>
<event>
 4    1  0.2516086E+000  0.5285107E+02  0.7957747E-01  0.1430543E+00
         13   -1    0    0    0    0  0.00000000000E+00  0.00000000000E+00  0.99999944168E+02  0.99999999988E+02  0.10566000000E+00 0. -1.
         22   -1    0    0    0    0 -0.00000000000E+00 -0.00000000000E+00 -0.25911318334E+02  0.25911318334E+02  0.00000000000E+00 0.  1.
         13    1    1    2    0    0  0.13964578381E+02  0.99109303259E+01 -0.14709871485E+02  0.22574930175E+02  0.10566000000E+00 0.  1.
        996    1    1    2    0    0 -0.13964578381E+02 -0.99109303259E+01  0.88798497319E+02  0.10333638815E+03  0.50000000000E+02 0.  0.
<mgrwt>
<rscale>  0 0.52851074E+02</rscale>
<asrwt>0</asrwt>
<pdfrwt beam="1">  1       13 0.10000000E+01 0.52851074E+02</pdfrwt>
<pdfrwt beam="2">  1       22 0.25911339E+00 0.52851074E+02</pdfrwt>
<totfact> 0.27509317E-01</totfact>
</mgrwt>
</event>
<event>
 4    1  0.2516086E+000  0.5321374E+02  0.7957747E-01  0.1428740E+00
         13   -1    0    0    0    0  0.00000000000E+00  0.00000000000E+00  0.99999944177E+02  0.99999999998E+02  0.10566000000E+00 0. -1.
         22   -1    0    0    0    0 -0.00000000000E+00 -0.00000000000E+00 -0.30709385084E+02  0.30709385084E+02  0.00000000000E+00 0.  1.
         13    1    1    2    0    0  0.17900338167E+02  0.33586376524E+01 -0.19821156992E+02  0.26918246264E+02  0.10566000000E+00 0.  1.
        996    1    1    2    0    0 -0.17900338167E+02 -0.33586376524E+01  0.89111716085E+02  0.10379113882E+03  0.50000000000E+02 0.  0.
<mgrwt>
<rscale>  0 0.53213744E+02</rscale>
<asrwt>0</asrwt>
<pdfrwt beam="1">  1       13 0.10000000E+01 0.53213744E+02</pdfrwt>
<pdfrwt beam="2">  1       22 0.30709404E+00 0.53213744E+02</pdfrwt>
<totfact> 0.19855941E-01</totfact>
</mgrwt>
</event>
<event>
 4    1  0.2516086E+000  0.5104129E+02  0.7957747E-01  0.1439805E+00
         13   -1    0    0    0    0  0.00000000000E+00  0.00000000000E+00  0.99999944181E+02  0.10000000000E+03  0.10566000000E+00 0.  1.
         22   -1    0    0    0    0 -0.00000000000E+00 -0.00000000000E+00 -0.94010020351E+01  0.94010020351E+01  0.00000000000E+00 0.  1.
         13    1    1    2    0    0  0.32831375325E+00  0.10252116430E+02  0.14065363708E+02  0.17408598492E+02  0.10566000000E+00 0. -1.
        996    1    1    2    0    0 -0.32831375325E+00 -0.10252116430E+02  0.76533578438E+02  0.91992403544E+02  0.50000000000E+02 0.  0.
<mgrwt>
<rscale>  0 0.51041294E+02</rscale>
<asrwt>0</asrwt>
<pdfrwt beam="1">  1       13 0.10000000E+01 0.51041294E+02</pdfrwt>
<pdfrwt beam="2">  1       22 0.94010273E-01 0.51041294E+02</pdfrwt>
<totfact> 0.15369976E+00</totfact>
</mgrwt>
</event>
<event>
 4    1  0.2516086E+000  0.5741024E+02  0.7957747E-01  0.1409033E+00
         13   -1    0    0    0    0  0.00000000000E+00  0.00000000000E+00  0.99999944183E+02  0.10000000000E+03  0.10566000000E+00 0.  1.
         22   -1    0    0    0    0 -0.00000000000E+00 -0.00000000000E+00 -0.19809984618E+02  0.19809984618E+02  0.00000000000E+00 0. -1.
         13    1    1    2    0    0  0.18154512037E+02 -0.21595128985E+02  0.11967454990E+02  0.30645832443E+02  0.10566000000E+00 0. -1.
        996    1    1    2    0    0 -0.18154512037E+02  0.21595128985E+02  0.68222504574E+02  0.89164152178E+02  0.50000000000E+02 0.  0.
<mgrwt>
<rscale>  0 0.57410242E+02</rscale>
<asrwt>0</asrwt>
<pdfrwt beam="1">  1       13 0.10000000E+01 0.57410242E+02</pdfrwt>
<pdfrwt beam="2">  1       22 0.19810007E+00 0.57410242E+02</pdfrwt>
<totfact> 0.46549058E-01</totfact>
</mgrwt>
</event>
<event>
 4    1  0.2516086E+000  0.5260988E+02  0.7957747E-01  0.1431752E+00
         13   -1    0    0    0    0  0.00000000000E+00  0.00000000000E+00  0.99999944175E+02  0.99999999995E+02  0.10566000000E+00 0. -1.
         22   -1    0    0    0    0 -0.00000000000E+00 -0.00000000000E+00 -0.19251027493E+02  0.19251027493E+02  0.00000000000E+00 0.  1.
         13    1    1    2    0    0 -0.15583284258E+02  0.49960674494E+01 -0.63028135515E+01  0.17536706103E+02  0.10566000000E+00 0.  1.
        996    1    1    2    0    0  0.15583284258E+02 -0.49960674494E+01  0.87051730234E+02  0.10171432139E+03  0.50000000000E+02 0.  0.
<mgrwt>
<rscale>  0 0.52609880E+02</rscale>
<asrwt>0</asrwt>
<pdfrwt beam="1">  1       13 0.10000000E+01 0.52609880E+02</pdfrwt>
<pdfrwt beam="2">  1       22 0.19251050E+00 0.52609880E+02</pdfrwt>
<totfact> 0.48681690E-01</totfact>
</mgrwt>
</event>
<event>
 4    1  0.2516086E+000  0.5213244E+02  0.7957747E-01  0.1434168E+00
         13   -1    0    0    0    0  0.00000000000E+00  0.00000000000E+00  0.99999944176E+02  0.99999999996E+02  0.10566000000E+00 0.  1.
         22   -1    0    0    0    0 -0.00000000000E+00 -0.00000000000E+00 -0.11342806780E+02  0.11342806780E+02  0.00000000000E+00 0. -1.
         13    1    1    2    0    0 -0.14494607847E+02  0.27745534881E+01  0.14455082556E+02  0.20657985851E+02  0.10566000000E+00 0. -1.
        996    1    1    2    0    0  0.14494607847E+02 -0.27745534881E+01  0.74202054840E+02  0.90684820925E+02  0.50000000000E+02 0.  0.
<mgrwt>
<rscale>  0 0.52132445E+02</rscale>
<asrwt>0</asrwt>
<pdfrwt beam="1">  1       13 0.10000000E+01 0.52132445E+02</pdfrwt>
<pdfrwt beam="2">  1       22 0.11342832E+00 0.52132445E+02</pdfrwt>
<totfact> 0.11711172E+00</totfact>
</mgrwt>
</event>
<event>
 4    1  0.2516086E+000  0.5157548E+02  0.7957747E-01  0.1437024E+00
         13   -1    0    0    0    0  0.00000000000E+00  0.00000000000E+00  0.99999944181E+02  0.10000000000E+03  0.10566000000E+00 0. -1.
         22   -1    0    0    0    0 -0.00000000000E+00 -0.00000000000E+00 -0.35336859494E+02  0.35336859494E+02  0.00000000000E+00 0.  1.
         13    1    1    2    0    0 -0.61177119684E+01 -0.11072642294E+02 -0.27193104129E+02  0.29991763592E+02  0.10566000000E+00 0.  1.
        996    1    1    2    0    0  0.61177119684E+01  0.11072642294E+02  0.91856188816E+02  0.10534509590E+03  0.50000000000E+02 0.  0.
<mgrwt>
<rscale>  0 0.51575477E+02</rscale>
<asrwt>0</asrwt>
<pdfrwt beam="1">  1       13 0.10000000E+01 0.51575477E+02</pdfrwt>
<pdfrwt beam="2">  1       22 0.35336878E+00 0.51575477E+02</pdfrwt>
<totfact> 0.15447444E-01</totfact>
</mgrwt>
</event>
<event>
 4    1  0.2516086E+000  0.5117695E+02  0.7957747E-01  0.1439095E+00
         13   -1    0    0    0    0  0.00000000000E+00  0.00000000000E+00  0.99999944171E+02  0.99999999992E+02  0.10566000000E+00 0.  1.
         22   -1    0    0    0    0 -0.00000000000E+00 -0.00000000000E+00 -0.25385333232E+02  0.25385333232E+02  0.00000000000E+00 0. -1.
         13    1    1    2    0    0  0.10413548947E+02 -0.32616595453E+01 -0.17142485187E+02  0.20321328379E+02  0.10566000000E+00 0. -1.
        996    1    1    2    0    0 -0.10413548947E+02  0.32616595453E+01  0.91757096126E+02  0.10506400485E+03  0.50000000000E+02 0.  0.
<mgrwt>
<rscale>  0 0.51176952E+02</rscale>
<asrwt>0</asrwt>
<pdfrwt beam="1">  1       13 0.10000000E+01 0.51176952E+02</pdfrwt>
<pdfrwt beam="2">  1       22 0.25385354E+00 0.51176952E+02</pdfrwt>
<totfact> 0.28568452E-01</totfact>
</mgrwt>
</event>
<event>
 4    1  0.2516086E+000  0.5108283E+02  0.7957747E-01  0.1439587E+00
         13   -1    0    0    0    0  0.00000000000E+00  0.00000000000E+00  0.99999944178E+02  0.99999999999E+02  0.10566000000E+00 0.  1.
         22   -1    0    0    0    0 -0.00000000000E+00 -0.00000000000E+00 -0.24561643305E+02  0.24561643305E+02  0.00000000000E+00 0. -1.
         13    1    1    2    0    0 -0.84255630108E+01  0.62020369971E+01 -0.16411244602E+02  0.19462669097E+02  0.10566000000E+00 0. -1.
        996    1    1    2    0    0  0.84255630108E+01 -0.62020369971E+01  0.91849545476E+02  0.10509897421E+03  0.50000000000E+02 0.  0.
<mgrwt>
<rscale>  0 0.51082829E+02</rscale>
<asrwt>0</asrwt>
<pdfrwt beam="1">  1       13 0.10000000E+01 0.51082829E+02</pdfrwt>
<pdfrwt beam="2">  1       22 0.24561664E+00 0.51082829E+02</pdfrwt>
<totfact> 0.30477662E-01</totfact>
</mgrwt>
</event>
<event>
 4    1  0.2516086E+000  0.6306831E+02  0.7957747E-01  0.1385389E+00
         13   -1    0    0    0    0  0.00000000000E+00  0.00000000000E+00  0.99999944175E+02  0.99999999995E+02  0.10566000000E+00 0.  1.
         22   -1    0    0    0    0 -0.00000000000E+00 -0.00000000000E+00 -0.61549268088E+02  0.61549268088E+02  0.00000000000E+00 0. -1.
         13    1    1    2    0    0  0.36663345434E+02 -0.11550375883E+02 -0.43557812173E+02  0.58093943289E+02  0.10566000000E+00 0. -1.
        996    1    1    2    0    0 -0.36663345434E+02  0.11550375883E+02  0.82008488260E+02  0.10345532479E+03  0.50000000000E+02 0.  0.
<mgrwt>
<rscale>  0 0.63068313E+02</rscale>
<asrwt>0</asrwt>
<pdfrwt beam="1">  1       13 0.10000000E+01 0.63068313E+02</pdfrwt>
<pdfrwt beam="2">  1       22 0.61549279E+00 0.63068313E+02</pdfrwt>
<totfact> 0.70354378E-02</totfact>
</mgrwt>
</event>
<event>
 4    1  0.2516086E+000  0.6155299E+02  0.7957747E-01  0.1391428E+00
         13   -1    0    0    0    0  0.00000000000E+00  0.00000000000E+00  0.99999944176E+02  0.99999999996E+02  0.10566000000E+00 0. -1.
         22   -1    0    0    0    0 -0.00000000000E+00 -0.00000000000E+00 -0.23864281412E+02  0.23864281412E+02  0.00000000000E+00 0.  1.
         13    1    1    2    0    0 -0.18058112322E+02 -0.31027008650E+02  0.23829084156E+02  0.43088363883E+02  0.10566000000E+00 0.  1.
        996    1    1    2    0    0  0.18058112322E+02  0.31027008650E+02  0.52306578608E+02  0.80775917525E+02  0.50000000000E+02 0.  0.
<mgrwt>
<rscale>  0 0.61552991E+02</rscale>
<asrwt>0</asrwt>
<pdfrwt beam="1">  1       13 0.10000000E+01 0.61552991E+02</pdfrwt>
<pdfrwt beam="2">  1       22 0.23864303E+00 0.61552991E+02</pdfrwt>
<totfact> 0.32755884E-01</totfact>
</mgrwt>
</event>
<event>
 4    1  0.2516086E+000  0.6228945E+02  0.7957747E-01  0.1388468E+00
         13   -1    0    0    0    0  0.00000000000E+00  0.00000000000E+00  0.99999944173E+02  0.99999999994E+02  0.10566000000E+00 0. -1.
         22   -1    0    0    0    0 -0.00000000000E+00 -0.00000000000E+00 -0.34305186745E+02  0.34305186745E+02  0.00000000000E+00 0.  1.
         13    1    1    2    0    0  0.26304058547E+02  0.26231131280E+02 -0.78068686955E+01  0.37959637869E+02  0.10566000000E+00 0.  1.
        996    1    1    2    0    0 -0.26304058547E+02 -0.26231131280E+02  0.73501626124E+02  0.96345548870E+02  0.50000000000E+02 0.  0.
<mgrwt>
<rscale>  0 0.62289451E+02</rscale>
<asrwt>0</asrwt>
<pdfrwt beam="1">  1       13 0.10000000E+01 0.62289451E+02</pdfrwt>
<pdfrwt beam="2">  1       22 0.34305205E+00 0.62289451E+02</pdfrwt>
<totfact> 0.16438113E-01</totfact>
</mgrwt>
</event>
<event>
 4    1  0.2516086E+000  0.5186896E+02  0.7957747E-01  0.1435514E+00
         13   -1    0    0    0    0  0.00000000000E+00  0.00000000000E+00  0.99999944176E+02  0.99999999996E+02  0.10566000000E+00 0. -1.
         22   -1    0    0    0    0 -0.00000000000E+00 -0.00000000000E+00 -0.10948876886E+02  0.10948876886E+02  0.00000000000E+00 0. -1.
         13    1    1    2    0    0 -0.10233189675E+02 -0.92558312927E+01  0.13482336722E+02  0.19291789740E+02  0.10566000000E+00 0.  1.
        996    1    1    2    0    0  0.10233189675E+02  0.92558312927E+01  0.75568730568E+02  0.91657087143E+02  0.50000000000E+02 0.  0.
<mgrwt>
<rscale>  0 0.51868956E+02</rscale>
<asrwt>0</asrwt>
<pdfrwt beam="1">  1       13 0.10000000E+01 0.51868956E+02</pdfrwt>
<pdfrwt beam="2">  1       22 0.10948902E+00 0.51868956E+02</pdfrwt>
<totfact> 0.12338693E+00</totfact>
</mgrwt>
</event>
<event>
 4    1  0.2516086E+000  0.6009194E+02  0.7957747E-01  0.1397446E+00
         13   -1    0    0    0    0  0.00000000000E+00  0.00000000000E+00  0.99999944182E+02  0.10000000000E+03  0.10566000000E+00 0.  1.
         22   -1    0    0    0    0 -0.00000000000E+00 -0.00000000000E+00 -0.28149091754E+02  0.28149091754E+02  0.00000000000E+00 0. -1.
         13    1    1    2    0    0  0.14990833776E+02 -0.29771053323E+02 -0.14510588588E+01  0.33364014284E+02  0.10566000000E+00 0. -1.
        996    1    1    2    0    0 -0.14990833776E+02  0.29771053323E+02  0.73301911286E+02  0.94785077473E+02  0.50000000000E+02 0.  0.
<mgrwt>
<rscale>  0 0.60091936E+02</rscale>
<asrwt>0</asrwt>
<pdfrwt beam="1">  1       13 0.10000000E+01 0.60091936E+02</pdfrwt>
<pdfrwt beam="2">  1       22 0.28149112E+00 0.60091936E+02</pdfrwt>
<totfact> 0.23618670E-01</totfact>
</mgrwt>
</event>
<event>
 4    1  0.2516086E+000  0.5115121E+02  0.7957747E-01  0.1439229E+00
         13   -1    0    0    0    0  0.00000000000E+00  0.00000000000E+00  0.99999944183E+02  0.10000000000E+03  0.10566000000E+00 0. -1.
         22   -1    0    0    0    0 -0.00000000000E+00 -0.00000000000E+00 -0.11482497876E+02  0.11482497876E+02  0.00000000000E+00 0.  1.
         13    1    1    2    0    0  0.92362155031E+01  0.55801645422E+01  0.20001201281E+01  0.10975315836E+02  0.10566000000E+00 0.  1.
        996    1    1    2    0    0 -0.92362155031E+01 -0.55801645422E+01  0.86517326179E+02  0.10050718204E+03  0.50000000000E+02 0.  0.
<mgrwt>
<rscale>  0 0.51151206E+02</rscale>
<asrwt>0</asrwt>
<pdfrwt beam="1">  1       13 0.10000000E+01 0.51151206E+02</pdfrwt>
<pdfrwt beam="2">  1       22 0.11482523E+00 0.51151206E+02</pdfrwt>
<totfact> 0.11471613E+00</totfact>
</mgrwt>
</event>
<event>
 4    1  0.2516086E+000  0.5138316E+02  0.7957747E-01  0.1438021E+00
         13   -1    0    0    0    0  0.00000000000E+00  0.00000000000E+00  0.99999944176E+02  0.99999999996E+02  0.10566000000E+00 0. -1.
         22   -1    0    0    0    0 -0.00000000000E+00 -0.00000000000E+00 -0.19899892697E+02  0.19899892697E+02  0.00000000000E+00 0. -1.
         13    1    1    2    0    0 -0.45773573312E+01 -0.10921388966E+02 -0.10445445368E+02  0.15790738743E+02  0.10566000000E+00 0.  1.
        996    1    1    2    0    0  0.45773573312E+01  0.10921388966E+02  0.90545496846E+02  0.10410915395E+03  0.50000000000E+02 0.  0.
<mgrwt>
<rscale>  0 0.51383158E+02</rscale>
<asrwt>0</asrwt>
<pdfrwt beam="1">  1       13 0.10000000E+01 0.51383158E+02</pdfrwt>
<pdfrwt beam="2">  1       22 0.19899915E+00 0.51383158E+02</pdfrwt>
<totfact> 0.45682523E-01</totfact>
</mgrwt>
</event>
<event>
 4    1  0.2516086E+000  0.5119030E+02  0.7957747E-01  0.1439025E+00
         13   -1    0    0    0    0  0.00000000000E+00  0.00000000000E+00  0.99999944182E+02  0.10000000000E+03  0.10566000000E+00 0. -1.
         22   -1    0    0    0    0 -0.00000000000E+00 -0.00000000000E+00 -0.99842259792E+01  0.99842259792E+01  0.00000000000E+00 0. -1.
         13    1    1    2    0    0  0.13239767782E+01  0.10894662572E+02  0.92056570235E+01  0.14324869017E+02  0.10566000000E+00 0.  1.
        996    1    1    2    0    0 -0.13239767782E+01 -0.10894662572E+02  0.80810061179E+02  0.95659356964E+02  0.50000000000E+02 0.  0.
<mgrwt>
<rscale>  0 0.51190298E+02</rscale>
<asrwt>0</asrwt>
<pdfrwt beam="1">  1       13 0.10000000E+01 0.51190298E+02</pdfrwt>
<pdfrwt beam="2">  1       22 0.99842511E-01 0.51190298E+02</pdfrwt>
<totfact> 0.14102468E+00</totfact>
</mgrwt>
</event>
<event>
 4    1  0.2516086E+000  0.5377968E+02  0.7957747E-01  0.1425960E+00
         13   -1    0    0    0    0  0.00000000000E+00  0.00000000000E+00  0.99999944177E+02  0.99999999997E+02  0.10566000000E+00 0. -1.
         22   -1    0    0    0    0 -0.00000000000E+00 -0.00000000000E+00 -0.20535356708E+02  0.20535356708E+02  0.00000000000E+00 0.  1.
         13    1    1    2    0    0  0.10841068305E+02 -0.16574840748E+02 -0.49777241072E+01  0.20421630913E+02  0.10566000000E+00 0.  1.
        996    1    1    2    0    0 -0.10841068305E+02  0.16574840748E+02  0.84442311576E+02  0.10011372579E+03  0.50000000000E+02 0.  0.
<mgrwt>
<rscale>  0 0.53779681E+02</rscale>
<asrwt>0</asrwt>
<pdfrwt beam="1">  1       13 0.10000000E+01 0.53779681E+02</pdfrwt>
<pdfrwt beam="2">  1       22 0.20535379E+00 0.53779681E+02</pdfrwt>
<totfact> 0.43253337E-01</totfact>
</mgrwt>
</event>
<event>
 4    1  0.2516086E+000  0.7897072E+02  0.7957747E-01  0.1331998E+00
         13   -1    0    0    0    0  0.00000000000E+00  0.00000000000E+00  0.99999944186E+02  0.10000000001E+03  0.10566000000E+00 0.  1.
         22   -1    0    0    0    0 -0.00000000000E+00 -0.00000000000E+00 -0.61506378870E+02  0.61506378870E+02  0.00000000000E+00 0. -1.
         13    1    1    2    0    0  0.38735905978E+02  0.47285356262E+02 -0.18788235040E+02  0.63948293713E+02  0.10566000000E+00 0. -1.
        996    1    1    2    0    0 -0.38735905978E+02 -0.47285356262E+02  0.57281800356E+02  0.97558085164E+02  0.50000000000E+02 0.  0.
<mgrwt>
<rscale>  0 0.78970725E+02</rscale>
<asrwt>0</asrwt>
<pdfrwt beam="1">  1       13 0.10000000E+01 0.78970725E+02</pdfrwt>
<pdfrwt beam="2">  1       22 0.61506390E+00 0.78970725E+02</pdfrwt>
<totfact> 0.70181013E-02</totfact>
</mgrwt>
</event>
<event>
 4    1  0.2516086E+000  0.5155262E+02  0.7957747E-01  0.1437143E+00
         13   -1    0    0    0    0  0.00000000000E+00  0.00000000000E+00  0.99999944188E+02  0.10000000001E+03  0.10566000000E+00 0. -1.
         22   -1    0    0    0    0 -0.00000000000E+00 -0.00000000000E+00 -0.21008436138E+02  0.21008436138E+02  0.00000000000E+00 0.  1.
         13    1    1    2    0    0 -0.12055789563E+02  0.35114659200E+01 -0.11393037169E+02  0.16955380116E+02  0.10566000000E+00 0.  1.
        996    1    1    2    0    0  0.12055789563E+02 -0.35114659200E+01  0.90384545219E+02  0.10405305603E+03  0.50000000000E+02 0.  0.
<mgrwt>
<rscale>  0 0.51552618E+02</rscale>
<asrwt>0</asrwt>
<pdfrwt beam="1">  1       13 0.10000000E+01 0.51552618E+02</pdfrwt>
<pdfrwt beam="2">  1       22 0.21008458E+00 0.51552618E+02</pdfrwt>
<totfact> 0.41270793E-01</totfact>
</mgrwt>
</event>
<event>
 4    1  0.2516086E+000  0.5137216E+02  0.7957747E-01  0.1438078E+00
         13   -1    0    0    0    0  0.00000000000E+00  0.00000000000E+00  0.99999944181E+02  0.10000000000E+03  0.10566000000E+00 0.  1.
         22   -1    0    0    0    0 -0.00000000000E+00 -0.00000000000E+00 -0.10316176112E+02  0.10316176112E+02  0.00000000000E+00 0.  1.
         13    1    1    2    0    0  0.95748207076E+01 -0.68863342909E+01  0.97744091196E+01  0.15318258035E+02  0.10566000000E+00 0. -1.
        996    1    1    2    0    0 -0.95748207076E+01  0.68863342909E+01  0.79909358950E+02  0.94997918079E+02  0.50000000000E+02 0.  0.
<mgrwt>
<rscale>  0 0.51372160E+02</rscale>
<asrwt>0</asrwt>
<pdfrwt beam="1">  1       13 0.10000000E+01 0.51372160E+02</pdfrwt>
<pdfrwt beam="2">  1       22 0.10316201E+00 0.51372160E+02</pdfrwt>
<totfact> 0.13453512E+00</totfact>
</mgrwt>
</event>
<event>
 4    1  0.2516086E+000  0.5106413E+02  0.7957747E-01  0.1439685E+00
         13   -1    0    0    0    0  0.00000000000E+00  0.00000000000E+00  0.99999944182E+02  0.10000000000E+03  0.10566000000E+00 0.  1.
         22   -1    0    0    0    0 -0.00000000000E+00 -0.00000000000E+00 -0.10060941025E+02  0.10060941025E+02  0.00000000000E+00 0. -1.
         13    1    1    2    0    0 -0.56716443729E+01 -0.86820131447E+01  0.65092733248E+01  0.12244456108E+02  0.10566000000E+00 0. -1.
        996    1    1    2    0    0  0.56716443729E+01  0.86820131447E+01  0.83429729832E+02  0.97816484919E+02  0.50000000000E+02 0.  0.
<mgrwt>
<rscale>  0 0.51064125E+02</rscale>
<asrwt>0</asrwt>
<pdfrwt beam="1">  1       13 0.10000000E+01 0.51064125E+02</pdfrwt>
<pdfrwt beam="2">  1       22 0.10060966E+00 0.51064125E+02</pdfrwt>
<totfact> 0.13942657E+00</totfact>
</mgrwt>
</event>
<event>
 4    1  0.2516086E+000  0.5365217E+02  0.7957747E-01  0.1426583E+00
         13   -1    0    0    0    0  0.00000000000E+00  0.00000000000E+00  0.99999944179E+02  0.99999999999E+02  0.10566000000E+00 0.  1.
         22   -1    0    0    0    0 -0.00000000000E+00 -0.00000000000E+00 -0.16160049393E+02  0.16160049393E+02  0.00000000000E+00 0.  1.
         13    1    1    2    0    0 -0.16997783983E+02  0.94673655366E+01  0.38356502065E+01  0.19831264384E+02  0.10566000000E+00 0. -1.
        996    1    1    2    0    0  0.16997783983E+02 -0.94673655366E+01  0.80004244579E+02  0.96328785009E+02  0.50000000000E+02 0.  0.
<mgrwt>
<rscale>  0 0.53652173E+02</rscale>
<asrwt>0</asrwt>
<pdfrwt beam="1">  1       13 0.10000000E+01 0.53652173E+02</pdfrwt>
<pdfrwt beam="2">  1       22 0.16160073E+00 0.53652173E+02</pdfrwt>
<totfact> 0.66597127E-01</totfact>
</mgrwt>
</event>
<event>
 4    1  0.2516086E+000  0.5115039E+02  0.7957747E-01  0.1439234E+00
         13   -1    0    0    0    0  0.00000000000E+00  0.00000000000E+00  0.99999944178E+02  0.99999999998E+02  0.10566000000E+00 0.  1.
         22   -1    0    0    0    0 -0.00000000000E+00 -0.00000000000E+00 -0.98967965729E+01  0.98967965729E+01  0.00000000000E+00 0.  1.
         13    1    1    2    0    0  0.21208174219E+01  0.10576594878E+02  0.24013046988E+02  0.26324889657E+02  0.10566000000E+00 0. -1.
        996    1    1    2    0    0 -0.21208174219E+01 -0.10576594878E+02  0.66090100616E+02  0.83571906914E+02  0.50000000000E+02 0.  0.
<mgrwt>
<rscale>  0 0.51150388E+02</rscale>
<asrwt>0</asrwt>
<pdfrwt beam="1">  1       13 0.10000000E+01 0.51150388E+02</pdfrwt>
<pdfrwt beam="2">  1       22 0.98968217E-01 0.51150388E+02</pdfrwt>
<totfact> 0.14281545E+00</totfact>
</mgrwt>
</event>
<event>
 4    1  0.2516086E+000  0.5132465E+02  0.7957747E-01  0.1438325E+00
         13   -1    0    0    0    0  0.00000000000E+00  0.00000000000E+00  0.99999944180E+02  0.10000000000E+03  0.10566000000E+00 0.  1.
         22   -1    0    0    0    0 -0.00000000000E+00 -0.00000000000E+00 -0.45362050244E+02  0.45362050244E+02  0.00000000000E+00 0. -1.
         13    1    1    2    0    0  0.10449277579E+02  0.50032068945E+01 -0.37852253112E+02  0.39585650315E+02  0.10566000000E+00 0. -1.
        996    1    1    2    0    0 -0.10449277579E+02 -0.50032068945E+01  0.92490147048E+02  0.10577639993E+03  0.50000000000E+02 0.  0.
<mgrwt>
<rscale>  0 0.51324648E+02</rscale>
<asrwt>0</asrwt>
<pdfrwt beam="1">  1       13 0.10000000E+01 0.51324648E+02</pdfrwt>
<pdfrwt beam="2">  1       22 0.45362066E+00 0.51324648E+02</pdfrwt>
<totfact> 0.94772924E-02</totfact>
</mgrwt>
</event>
<event>
 4    1  0.2516086E+000  0.5345250E+02  0.7957747E-01  0.1427562E+00
         13   -1    0    0    0    0  0.00000000000E+00  0.00000000000E+00  0.99999944175E+02  0.99999999995E+02  0.10566000000E+00 0. -1.
         22   -1    0    0    0    0 -0.00000000000E+00 -0.00000000000E+00 -0.30573777337E+02  0.30573777337E+02  0.00000000000E+00 0.  1.
         13    1    1    2    0    0  0.72135078724E+01 -0.17468111790E+02 -0.19286025431E+02  0.27002436303E+02  0.10566000000E+00 0.  1.
        996    1    1    2    0    0 -0.72135078724E+01  0.17468111790E+02  0.88712192269E+02  0.10357134103E+03  0.50000000000E+02 0.  0.
<mgrwt>
<rscale>  0 0.53452499E+02</rscale>
<asrwt>0</asrwt>
<pdfrwt beam="1">  1       13 0.10000000E+01 0.53452499E+02</pdfrwt>
<pdfrwt beam="2">  1       22 0.30573797E+00 0.53452499E+02</pdfrwt>
<totfact> 0.20024539E-01</totfact>
</mgrwt>
</event>
<event>
 4    1  0.2516086E+000  0.5191561E+02  0.7957747E-01  0.1435275E+00
         13   -1    0    0    0    0  0.00000000000E+00  0.00000000000E+00  0.99999944176E+02  0.99999999997E+02  0.10566000000E+00 0. -1.
         22   -1    0    0    0    0 -0.00000000000E+00 -0.00000000000E+00 -0.11349845391E+02  0.11349845391E+02  0.00000000000E+00 0.  1.
         13    1    1    2    0    0  0.40158604597E+01  0.13382942218E+02  0.10292711245E+02  0.17354577104E+02  0.10566000000E+00 0.  1.
        996    1    1    2    0    0 -0.40158604597E+01 -0.13382942218E+02  0.78357387540E+02  0.93995268284E+02  0.50000000000E+02 0.  0.
<mgrwt>
<rscale>  0 0.51915607E+02</rscale>
<asrwt>0</asrwt>
<pdfrwt beam="1">  1       13 0.10000000E+01 0.51915607E+02</pdfrwt>
<pdfrwt beam="2">  1       22 0.11349870E+00 0.51915607E+02</pdfrwt>
<totfact> 0.11694472E+00</totfact>
</mgrwt>
</event>
<event>
 4    1  0.2516086E+000  0.5128548E+02  0.7957747E-01  0.1438529E+00
         13   -1    0    0    0    0  0.00000000000E+00  0.00000000000E+00  0.99999944173E+02  0.99999999994E+02  0.10566000000E+00 0. -1.
         22   -1    0    0    0    0 -0.00000000000E+00 -0.00000000000E+00 -0.14815992503E+02  0.14815992503E+02  0.00000000000E+00 0. -1.
         13    1    1    2    0    0  0.10975217240E+02  0.31216412762E+01 -0.38706785983E+01  0.12049620516E+02  0.10566000000E+00 0.  1.
        996    1    1    2    0    0 -0.10975217240E+02 -0.31216412762E+01  0.89054630269E+02  0.10276637198E+03  0.50000000000E+02 0.  0.
<mgrwt>
<rscale>  0 0.51285476E+02</rscale>
<asrwt>0</asrwt>
<pdfrwt beam="1">  1       13 0.10000000E+01 0.51285476E+02</pdfrwt>
<pdfrwt beam="2">  1       22 0.14816016E+00 0.51285476E+02</pdfrwt>
<totfact> 0.76738476E-01</totfact>
</mgrwt>
</event>
<event>
 4    1  0.2516086E+000  0.5769845E+02  0.7957747E-01  0.1407752E+00
         13   -1    0    0    0    0  0.00000000000E+00  0.00000000000E+00  0.99999944184E+02  0.10000000000E+03  0.10566000000E+00 0.  1.
         22   -1    0    0    0    0 -0.00000000000E+00 -0.00000000000E+00 -0.24344751051E+02  0.24344751051E+02  0.00000000000E+00 0. -1.
         13    1    1    2    0    0  0.13309300958E+02 -0.25533785672E+02 -0.50190850294E+00  0.28798867668E+02  0.10566000000E+00 0. -1.
        996    1    1    2    0    0 -0.13309300958E+02  0.25533785672E+02  0.76157101636E+02  0.95545883387E+02  0.50000000000E+02 0.  0.
<mgrwt>
<rscale>  0 0.57698455E+02</rscale>
<asrwt>0</asrwt>
<pdfrwt beam="1">  1       13 0.10000000E+01 0.57698455E+02</pdfrwt>
<pdfrwt beam="2">  1       22 0.24344772E+00 0.57698455E+02</pdfrwt>
<totfact> 0.31327629E-01</totfact>
</mgrwt>
</event>
<event>
 4    1  0.2516086E+000  0.5230101E+02  0.7957747E-01  0.1433311E+00
         13   -1    0    0    0    0  0.00000000000E+00  0.00000000000E+00  0.99999944178E+02  0.99999999998E+02  0.10566000000E+00 0. -1.
         22   -1    0    0    0    0 -0.00000000000E+00 -0.00000000000E+00 -0.13048151642E+02  0.13048151642E+02  0.00000000000E+00 0. -1.
         13    1    1    2    0    0  0.12232089619E+02  0.92612927693E+01  0.55967654195E+01  0.16331886217E+02  0.10566000000E+00 0.  1.
        996    1    1    2    0    0 -0.12232089619E+02 -0.92612927693E+01  0.81355027116E+02  0.96716265423E+02  0.50000000000E+02 0.  0.
<mgrwt>
<rscale>  0 0.52301009E+02</rscale>
<asrwt>0</asrwt>
<pdfrwt beam="1">  1       13 0.10000000E+01 0.52301009E+02</pdfrwt>
<pdfrwt beam="2">  1       22 0.13048176E+00 0.52301009E+02</pdfrwt>
<totfact> 0.94436050E-01</totfact>
</mgrwt>
</event>
<event>
 4    1  0.2516086E+000  0.5246824E+02  0.7957747E-01  0.1432466E+00
         13   -1    0    0    0    0  0.00000000000E+00  0.00000000000E+00  0.99999944174E+02  0.99999999994E+02  0.10566000000E+00 0. -1.
         22   -1    0    0    0    0 -0.00000000000E+00 -0.00000000000E+00 -0.12041993601E+02  0.12041993601E+02  0.00000000000E+00 0. -1.
         13    1    1    2    0    0  0.15121281898E+02 -0.49257498885E+01  0.12975273848E+02  0.20525230174E+02  0.10566000000E+00 0.  1.
        996    1    1    2    0    0 -0.15121281898E+02  0.49257498885E+01  0.74982676725E+02  0.91516763421E+02  0.50000000000E+02 0.  0.
<mgrwt>
<rscale>  0 0.52468240E+02</rscale>
<asrwt>0</asrwt>
<pdfrwt beam="1">  1       13 0.10000000E+01 0.52468240E+02</pdfrwt>
<pdfrwt beam="2">  1       22 0.12042018E+00 0.52468240E+02</pdfrwt>
<totfact> 0.10703120E+00</totfact>
</mgrwt>
</event>
<event>
 4    1  0.2516086E+000  0.5667629E+02  0.7957747E-01  0.1412334E+00
         13   -1    0    0    0    0  0.00000000000E+00  0.00000000000E+00  0.99999944171E+02  0.99999999991E+02  0.10566000000E+00 0.  1.
         22   -1    0    0    0    0 -0.00000000000E+00 -0.00000000000E+00 -0.62206925117E+02  0.62206925117E+02  0.00000000000E+00 0. -1.
         13    1    1    2    0    0  0.93541417877E+01  0.24994027680E+02 -0.50598848172E+02  0.57205384262E+02  0.10566000000E+00 0. -1.
        996    1    1    2    0    0 -0.93541417877E+01 -0.24994027680E+02  0.88391867226E+02  0.10500154085E+03  0.50000000000E+02 0.  0.
<mgrwt>
<rscale>  0 0.56676286E+02</rscale>
<asrwt>0</asrwt>
<pdfrwt beam="1">  1       13 0.10000000E+01 0.56676286E+02</pdfrwt>
<pdfrwt beam="2">  1       22 0.62206936E+00 0.56676286E+02</pdfrwt>
<totfact> 0.74153808E-02</totfact>
</mgrwt>
</event>
<event>
 4    1  0.2516086E+000  0.5651144E+02  0.7957747E-01  0.1413083E+00
         13   -1    0    0    0    0  0.00000000000E+00  0.00000000000E+00  0.99999944177E+02  0.99999999997E+02  0.10566000000E+00 0.  1.
         22   -1    0    0    0    0 -0.00000000000E+00 -0.00000000000E+00 -0.17839464879E+02  0.17839464879E+02  0.00000000000E+00 0. -1.
         13    1    1    2    0    0  0.14916292859E+02 -0.21703606632E+02  0.37436203697E+02  0.45771419519E+02  0.10566000000E+00 0. -1.
        996    1    1    2    0    0 -0.14916292859E+02  0.21703606632E+02  0.44724275601E+02  0.72068045357E+02  0.50000000000E+02 0.  0.
<mgrwt>
<rscale>  0 0.56511435E+02</rscale>
<asrwt>0</asrwt>
<pdfrwt beam="1">  1       13 0.10000000E+01 0.56511435E+02</pdfrwt>
<pdfrwt beam="2">  1       22 0.17839488E+00 0.56511435E+02</pdfrwt>
<totfact> 0.56286610E-01</totfact>
</mgrwt>
</event>
<event>
 4    1  0.2516086E+000  0.6902162E+02  0.7957747E-01  0.1363452E+00
         13   -1    0    0    0    0  0.00000000000E+00  0.00000000000E+00  0.99999944174E+02  0.99999999994E+02  0.10566000000E+00 0. -1.
         22   -1    0    0    0    0 -0.00000000000E+00 -0.00000000000E+00 -0.34043790096E+02  0.34043790096E+02  0.00000000000E+00 0.  1.
         13    1    1    2    0    0  0.27595944838E+02  0.38761428426E+02  0.24321657942E+02  0.53437240893E+02  0.10566000000E+00 0.  1.
        996    1    1    2    0    0 -0.27595944838E+02 -0.38761428426E+02  0.41634496135E+02  0.80606549198E+02  0.50000000000E+02 0.  0.
<mgrwt>
<rscale>  0 0.69021623E+02</rscale>
<asrwt>0</asrwt>
<pdfrwt beam="1">  1       13 0.10000000E+01 0.69021623E+02</pdfrwt>
<pdfrwt beam="2">  1       22 0.34043809E+00 0.69021623E+02</pdfrwt>
<totfact> 0.16757722E-01</totfact>
</mgrwt>
</event>
<event>
 4    1  0.2516086E+000  0.5308633E+02  0.7957747E-01  0.1429372E+00
         13   -1    0    0    0    0  0.00000000000E+00  0.00000000000E+00  0.99999944179E+02  0.99999999999E+02  0.10566000000E+00 0. -1.
         22   -1    0    0    0    0 -0.00000000000E+00 -0.00000000000E+00 -0.23609250349E+02  0.23609250349E+02  0.00000000000E+00 0. -1.
         13    1    1    2    0    0  0.16246482166E+02  0.73627839931E+01 -0.11290084511E+02  0.21110091028E+02  0.10566000000E+00 0.  1.
        996    1    1    2    0    0 -0.16246482166E+02 -0.73627839931E+01  0.87680778341E+02  0.10249915932E+03  0.50000000000E+02 0.  0.
<mgrwt>
<rscale>  0 0.53086333E+02</rscale>
<asrwt>0</asrwt>
<pdfrwt beam="1">  1       13 0.10000000E+01 0.53086333E+02</pdfrwt>
<pdfrwt beam="2">  1       22 0.23609272E+00 0.53086333E+02</pdfrwt>
<totfact> 0.33039925E-01</totfact>
</mgrwt>
</event>
<event>
 4    1  0.2516086E+000  0.5144776E+02  0.7957747E-01  0.1437686E+00
         13   -1    0    0    0    0  0.00000000000E+00  0.00000000000E+00  0.99999944176E+02  0.99999999997E+02  0.10566000000E+00 0.  1.
         22   -1    0    0    0    0 -0.00000000000E+00 -0.00000000000E+00 -0.11846893091E+02  0.11846893091E+02  0.00000000000E+00 0. -1.
         13    1    1    2    0    0 -0.11774553860E+02  0.28690907385E+01  0.32085180650E+01  0.12537047199E+02  0.10566000000E+00 0. -1.
        996    1    1    2    0    0  0.11774553860E+02 -0.28690907385E+01  0.84944533020E+02  0.99309845888E+02  0.50000000000E+02 0.  0.
<mgrwt>
<rscale>  0 0.51447758E+02</rscale>
<asrwt>0</asrwt>
<pdfrwt beam="1">  1       13 0.10000000E+01 0.51447758E+02</pdfrwt>
<pdfrwt beam="2">  1       22 0.11846918E+00 0.51447758E+02</pdfrwt>
<totfact> 0.10948799E+00</totfact>
</mgrwt>
</event>
<event>
 4    1  0.2516086E+000  0.5180990E+02  0.7957747E-01  0.1435817E+00
         13   -1    0    0    0    0  0.00000000000E+00  0.00000000000E+00  0.99999944186E+02  0.10000000001E+03  0.10566000000E+00 0.  1.
         22   -1    0    0    0    0 -0.00000000000E+00 -0.00000000000E+00 -0.10786952812E+02  0.10786952812E+02  0.00000000000E+00 0.  1.
         13    1    1    2    0    0  0.13379426779E+02  0.22926403087E+01  0.23078029414E+02  0.26774462949E+02  0.10566000000E+00 0. -1.
        996    1    1    2    0    0 -0.13379426779E+02 -0.22926403087E+01  0.66134961959E+02  0.84012489868E+02  0.50000000000E+02 0.  0.
<mgrwt>
<rscale>  0 0.51809895E+02</rscale>
<asrwt>0</asrwt>
<pdfrwt beam="1">  1       13 0.10000000E+01 0.51809895E+02</pdfrwt>
<pdfrwt beam="2">  1       22 0.10786978E+00 0.51809895E+02</pdfrwt>
<totfact> 0.12612538E+00</totfact>
</mgrwt>
</event>
<event>
 4    1  0.2516086E+000  0.5156812E+02  0.7957747E-01  0.1437062E+00
         13   -1    0    0    0    0  0.00000000000E+00  0.00000000000E+00  0.99999944180E+02  0.10000000000E+03  0.10566000000E+00 0. -1.
         22   -1    0    0    0    0 -0.00000000000E+00 -0.00000000000E+00 -0.14040644387E+02  0.14040644387E+02  0.00000000000E+00 0.  1.
         13    1    1    2    0    0 -0.11480601169E+02 -0.52408959543E+01 -0.12949072179E+01  0.12686967421E+02  0.10566000000E+00 0.  1.
        996    1    1    2    0    0  0.11480601169E+02  0.52408959543E+01  0.87254207010E+02  0.10135367697E+03  0.50000000000E+02 0.  0.
<mgrwt>
<rscale>  0 0.51568122E+02</rscale>
<asrwt>0</asrwt>
<pdfrwt beam="1">  1       13 0.10000000E+01 0.51568122E+02</pdfrwt>
<pdfrwt beam="2">  1       22 0.14040668E+00 0.51568122E+02</pdfrwt>
<totfact> 0.83855689E-01</totfact>
</mgrwt>
</event>
<event>
 4    1  0.2516086E+000  0.5127696E+02  0.7957747E-01  0.1438573E+00
         13   -1    0    0    0    0  0.00000000000E+00  0.00000000000E+00  0.99999944179E+02  0.99999999999E+02  0.10566000000E+00 0. -1.
         22   -1    0    0    0    0 -0.00000000000E+00 -0.00000000000E+00 -0.27548606827E+02  0.27548606827E+02  0.00000000000E+00 0.  1.
         13    1    1    2    0    0  0.68545184553E+01  0.90742732035E+01 -0.19322690248E+02  0.22421069998E+02  0.10566000000E+00 0.  1.
        996    1    1    2    0    0 -0.68545184553E+01 -0.90742732035E+01  0.91774027600E+02  0.10512753683E+03  0.50000000000E+02 0.  0.
<mgrwt>
<rscale>  0 0.51276962E+02</rscale>
<asrwt>0</asrwt>
<pdfrwt beam="1">  1       13 0.10000000E+01 0.51276962E+02</pdfrwt>
<pdfrwt beam="2">  1       22 0.27548627E+00 0.51276962E+02</pdfrwt>
<totfact> 0.24341718E-01</totfact>
</mgrwt>
</event>
<event>
 4    1  0.2516086E+000  0.6510199E+02  0.7957747E-01  0.1377588E+00
         13   -1    0    0    0    0  0.00000000000E+00  0.00000000000E+00  0.99999944176E+02  0.99999999996E+02  0.10566000000E+00 0.  1.
         22   -1    0    0    0    0 -0.00000000000E+00 -0.00000000000E+00 -0.29713424187E+02  0.29713424187E+02  0.00000000000E+00 0. -1.
         13    1    1    2    0    0  0.41349455598E+02 -0.53377861799E+01  0.40484511508E+02  0.58114337952E+02  0.10566000000E+00 0. -1.
        996    1    1    2    0    0 -0.41349455598E+02  0.53377861799E+01  0.29802008481E+02  0.71599086231E+02  0.50000000000E+02 0.  0.
<mgrwt>
<rscale>  0 0.65101993E+02</rscale>
<asrwt>0</asrwt>
<pdfrwt beam="1">  1       13 0.10000000E+01 0.65101993E+02</pdfrwt>
<pdfrwt beam="2">  1       22 0.29713444E+00 0.65101993E+02</pdfrwt>
<totfact> 0.21407983E-01</totfact>
</mgrwt>
</event>
<event>
 4    1  0.2516086E+000  0.5113457E+02  0.7957747E-01  0.1439316E+00
         13   -1    0    0    0    0  0.00000000000E+00  0.00000000000E+00  0.99999944182E+02  0.10000000000E+03  0.10566000000E+00 0. -1.
         22   -1    0    0    0    0 -0.00000000000E+00 -0.00000000000E+00 -0.95864950514E+01  0.95864950514E+01  0.00000000000E+00 0. -1.
         13    1    1    2    0    0  0.33207838453E+01 -0.10184144172E+02  0.17806585556E+02  0.20780520952E+02  0.10566000000E+00 0.  1.
        996    1    1    2    0    0 -0.33207838453E+01  0.10184144172E+02  0.72606863575E+02  0.88805974101E+02  0.50000000000E+02 0.  0.
<mgrwt>
<rscale>  0 0.51134571E+02</rscale>
<asrwt>0</asrwt>
<pdfrwt beam="1">  1       13 0.10000000E+01 0.51134571E+02</pdfrwt>
<pdfrwt beam="2">  1       22 0.95865203E-01 0.51134571E+02</pdfrwt>
<totfact> 0.14950397E+00</totfact>
</mgrwt>
</event>
<event>
 4    1  0.2516086E+000  0.5275122E+02  0.7957747E-01  0.1431043E+00
         13   -1    0    0    0    0  0.00000000000E+00  0.00000000000E+00  0.99999944175E+02  0.99999999995E+02  0.10566000000E+00 0.  1.
         22   -1    0    0    0    0 -0.00000000000E+00 -0.00000000000E+00 -0.13989236923E+02  0.13989236923E+02  0.00000000000E+00 0.  1.
         13    1    1    2    0    0 -0.16230940476E+02 -0.43872882327E+01  0.54135638777E+01  0.17663792477E+02  0.10566000000E+00 0. -1.
        996    1    1    2    0    0  0.16230940476E+02  0.43872882327E+01  0.80597143374E+02  0.96325444441E+02  0.50000000000E+02 0.  0.
<mgrwt>
<rscale>  0 0.52751225E+02</rscale>
<asrwt>0</asrwt>
<pdfrwt beam="1">  1       13 0.10000000E+01 0.52751225E+02</pdfrwt>
<pdfrwt beam="2">  1       22 0.13989261E+00 0.52751225E+02</pdfrwt>
<totfact> 0.84565217E-01</totfact>
</mgrwt>
</event>
<event>
 4    1  0.2516086E+000  0.5214808E+02  0.7957747E-01  0.1434088E+00
         13   -1    0    0    0    0  0.00000000000E+00  0.00000000000E+00  0.99999944179E+02  0.99999999999E+02  0.10566000000E+00 0.  1.
         22   -1    0    0    0    0 -0.00000000000E+00 -0.00000000000E+00 -0.11790511189E+02  0.11790511189E+02  0.00000000000E+00 0.  1.
         13    1    1    2    0    0 -0.75665311082E+01 -0.12734584541E+02  0.10311644691E+02  0.18048911788E+02  0.10566000000E+00 0. -1.
        996    1    1    2    0    0  0.75665311082E+01  0.12734584541E+02  0.77897788298E+02  0.93741599401E+02  0.50000000000E+02 0.  0.
<mgrwt>
<rscale>  0 0.52148078E+02</rscale>
<asrwt>0</asrwt>
<pdfrwt beam="1">  1       13 0.10000000E+01 0.52148078E+02</pdfrwt>
<pdfrwt beam="2">  1       22 0.11790536E+00 0.52148078E+02</pdfrwt>
<totfact> 0.11046042E+00</totfact>
</mgrwt>
</event>
<event>
 4    1  0.2516086E+000  0.6056249E+02  0.7957747E-01  0.1395486E+00
         13   -1    0    0    0    0  0.00000000000E+00  0.00000000000E+00  0.99999944177E+02  0.99999999997E+02  0.10566000000E+00 0.  1.
         22   -1    0    0    0    0 -0.00000000000E+00 -0.00000000000E+00 -0.22444677912E+02  0.22444677912E+02  0.00000000000E+00 0. -1.
         13    1    1    2    0    0 -0.27392317300E+02  0.20432237779E+02  0.29050130659E+02  0.44852387262E+02  0.10566000000E+00 0. -1.
        996    1    1    2    0    0  0.27392317300E+02 -0.20432237779E+02  0.48505135605E+02  0.77592290647E+02  0.50000000000E+02 0.  0.
<mgrwt>
<rscale>  0 0.60562492E+02</rscale>
<asrwt>0</asrwt>
<pdfrwt beam="1">  1       13 0.10000000E+01 0.60562492E+02</pdfrwt>
<pdfrwt beam="2">  1       22 0.22444700E+00 0.60562492E+02</pdfrwt>
<totfact> 0.36876445E-01</totfact>
</mgrwt>
</event>
<event>
 4    1  0.2516086E+000  0.5236871E+02  0.7957747E-01  0.1432969E+00
         13   -1    0    0    0    0  0.00000000000E+00  0.00000000000E+00  0.99999944178E+02  0.99999999998E+02  0.10566000000E+00 0.  1.
         22   -1    0    0    0    0 -0.00000000000E+00 -0.00000000000E+00 -0.12163912624E+02  0.12163912624E+02  0.00000000000E+00 0.  1.
         13    1    1    2    0    0  0.11950101589E+02  0.99838333842E+01  0.10561191857E+02  0.18815732633E+02  0.10566000000E+00 0. -1.
        996    1    1    2    0    0 -0.11950101589E+02 -0.99838333842E+01  0.77274839697E+02  0.93348179989E+02  0.50000000000E+02 0.  0.
<mgrwt>
<rscale>  0 0.52368711E+02</rscale>
<asrwt>0</asrwt>
<pdfrwt beam="1">  1       13 0.10000000E+01 0.52368711E+02</pdfrwt>
<pdfrwt beam="2">  1       22 0.12163937E+00 0.52368711E+02</pdfrwt>
<totfact> 0.10536398E+00</totfact>
</mgrwt>
</event>
<event>
 4    1  0.2516086E+000  0.5143255E+02  0.7957747E-01  0.1437764E+00
         13   -1    0    0    0    0  0.00000000000E+00  0.00000000000E+00  0.99999944179E+02  0.99999999999E+02  0.10566000000E+00 0. -1.
         22   -1    0    0    0    0 -0.00000000000E+00 -0.00000000000E+00 -0.11363610508E+02  0.11363610508E+02  0.00000000000E+00 0. -1.
         13    1    1    2    0    0  0.10494394179E+02 -0.59308145628E+01  0.35153924087E+02  0.37163374622E+02  0.10566000000E+00 0.  1.
        996    1    1    2    0    0 -0.10494394179E+02  0.59308145628E+01  0.53482409583E+02  0.74200235885E+02  0.50000000000E+02 0.  0.
<mgrwt>
<rscale>  0 0.51432547E+02</rscale>
<asrwt>0</asrwt>
<pdfrwt beam="1">  1       13 0.10000000E+01 0.51432547E+02</pdfrwt>
<pdfrwt beam="2">  1       22 0.11363635E+00 0.51432547E+02</pdfrwt>
<totfact> 0.11660250E+00</totfact>
</mgrwt>
</event>
<event>
 4    1  0.2516086E+000  0.5230410E+02  0.7957747E-01  0.1433296E+00
         13   -1    0    0    0    0  0.00000000000E+00  0.00000000000E+00  0.99999944164E+02  0.99999999984E+02  0.10566000000E+00 0.  1.
         22   -1    0    0    0    0 -0.00000000000E+00 -0.00000000000E+00 -0.17292545038E+02  0.17292545038E+02  0.00000000000E+00 0. -1.
         13    1    1    2    0    0  0.18160636076E+01 -0.15245366564E+02 -0.41482775524E+01  0.15904045378E+02  0.10566000000E+00 0. -1.
        996    1    1    2    0    0 -0.18160636076E+01  0.15245366564E+02  0.86855676679E+02  0.10138849964E+03  0.50000000000E+02 0.  0.
<mgrwt>
<rscale>  0 0.52304104E+02</rscale>
<asrwt>0</asrwt>
<pdfrwt beam="1">  1       13 0.10000000E+01 0.52304104E+02</pdfrwt>
<pdfrwt beam="2">  1       22 0.17292568E+00 0.52304104E+02</pdfrwt>
<totfact> 0.59036042E-01</totfact>
</mgrwt>
</event>
<event>
 4    1  0.2516086E+000  0.5153756E+02  0.7957747E-01  0.1437221E+00
         13   -1    0    0    0    0  0.00000000000E+00  0.00000000000E+00  0.99999944183E+02  0.10000000000E+03  0.10566000000E+00 0.  1.
         22   -1    0    0    0    0 -0.00000000000E+00 -0.00000000000E+00 -0.11842313738E+02  0.11842313738E+02  0.00000000000E+00 0.  1.
         13    1    1    2    0    0  0.90030350502E+01  0.86640025251E+01  0.39310056373E+01  0.13098990390E+02  0.10566000000E+00 0. -1.
        996    1    1    2    0    0 -0.90030350502E+01 -0.86640025251E+01  0.84226624808E+02  0.98743323351E+02  0.50000000000E+02 0.  0.
<mgrwt>
<rscale>  0 0.51537555E+02</rscale>
<asrwt>0</asrwt>
<pdfrwt beam="1">  1       13 0.10000000E+01 0.51537555E+02</pdfrwt>
<pdfrwt beam="2">  1       22 0.11842338E+00 0.51537555E+02</pdfrwt>
<totfact> 0.10957486E+00</totfact>
</mgrwt>
</event>
<event>
 4    1  0.2516086E+000  0.5325880E+02  0.7957747E-01  0.1428517E+00
         13   -1    0    0    0    0  0.00000000000E+00  0.00000000000E+00  0.99999944179E+02  0.99999999999E+02  0.10566000000E+00 0.  1.
         22   -1    0    0    0    0 -0.00000000000E+00 -0.00000000000E+00 -0.15215588063E+02  0.15215588063E+02  0.00000000000E+00 0.  1.
         13    1    1    2    0    0  0.78455463106E+01 -0.16581531054E+02  0.45270339362E+01  0.18894575129E+02  0.10566000000E+00 0. -1.
        996    1    1    2    0    0 -0.78455463106E+01  0.16581531054E+02  0.80257322180E+02  0.96321012933E+02  0.50000000000E+02 0.  0.
<mgrwt>
<rscale>  0 0.53258800E+02</rscale>
<asrwt>0</asrwt>
<pdfrwt beam="1">  1       13 0.10000000E+01 0.53258800E+02</pdfrwt>
<pdfrwt beam="2">  1       22 0.15215612E+00 0.53258800E+02</pdfrwt>
<totfact> 0.73705375E-01</totfact>
</mgrwt>
</event>
<event>
 4    1  0.2516086E+000  0.5728786E+02  0.7957747E-01  0.1409579E+00
         13   -1    0    0    0    0  0.00000000000E+00  0.00000000000E+00  0.99999944186E+02  0.10000000001E+03  0.10566000000E+00 0. -1.
         22   -1    0    0    0    0 -0.00000000000E+00 -0.00000000000E+00 -0.19699656872E+02  0.19699656872E+02  0.00000000000E+00 0.  1.
         13    1    1    2    0    0  0.27376510570E+02 -0.56943704130E+01  0.11666260197E+02  0.30298712455E+02  0.10566000000E+00 0.  1.
        996    1    1    2    0    0 -0.27376510570E+02  0.56943704130E+01  0.68634027118E+02  0.89400944423E+02  0.50000000000E+02 0.  0.
<mgrwt>
<rscale>  0 0.57287862E+02</rscale>
<asrwt>0</asrwt>
<pdfrwt beam="1">  1       13 0.10000000E+01 0.57287862E+02</pdfrwt>
<pdfrwt beam="2">  1       22 0.19699679E+00 0.57287862E+02</pdfrwt>
<totfact> 0.47026244E-01</totfact>
</mgrwt>
</event>
<event>
 4    1  0.2516086E+000  0.5292196E+02  0.7957747E-01  0.1430190E+00
         13   -1    0    0    0    0  0.00000000000E+00  0.00000000000E+00  0.99999944179E+02  0.10000000000E+03  0.10566000000E+00 0.  1.
         22   -1    0    0    0    0 -0.00000000000E+00 -0.00000000000E+00 -0.12343040711E+02  0.12343040711E+02  0.00000000000E+00 0.  1.
         13    1    1    2    0    0  0.42593888346E+01  0.16810458329E+02  0.21945149602E+02  0.27970245933E+02  0.10566000000E+00 0. -1.
        996    1    1    2    0    0 -0.42593888346E+01 -0.16810458329E+02  0.65711753866E+02  0.84372794778E+02  0.50000000000E+02 0.  0.
<mgrwt>
<rscale>  0 0.52921960E+02</rscale>
<asrwt>0</asrwt>
<pdfrwt beam="1">  1       13 0.10000000E+01 0.52921960E+02</pdfrwt>
<pdfrwt beam="2">  1       22 0.12343065E+00 0.52921960E+02</pdfrwt>
<totfact> 0.10313806E+00</totfact>
</mgrwt>
</event>
<event>
 4    1  0.2516086E+000  0.6302687E+02  0.7957747E-01  0.1385551E+00
         13   -1    0    0    0    0  0.00000000000E+00  0.00000000000E+00  0.99999944174E+02  0.99999999995E+02  0.10566000000E+00 0.  1.
         22   -1    0    0    0    0 -0.00000000000E+00 -0.00000000000E+00 -0.28340906912E+02  0.28340906912E+02  0.00000000000E+00 0. -1.
         13    1    1    2    0    0 -0.35307728613E+02  0.15024994552E+02  0.88870976655E+01  0.39387533942E+02  0.10566000000E+00 0. -1.
        996    1    1    2    0    0  0.35307728613E+02 -0.15024994552E+02  0.62771939596E+02  0.88953372965E+02  0.50000000000E+02 0.  0.
<mgrwt>
<rscale>  0 0.63026869E+02</rscale>
<asrwt>0</asrwt>
<pdfrwt beam="1">  1       13 0.10000000E+01 0.63026869E+02</pdfrwt>
<pdfrwt beam="2">  1       22 0.28340927E+00 0.63026869E+02</pdfrwt>
<totfact> 0.23390031E-01</totfact>
</mgrwt>
</event>
<event>
 4    1  0.2516086E+000  0.5663358E+02  0.7957747E-01  0.1412528E+00
         13   -1    0    0    0    0  0.00000000000E+00  0.00000000000E+00  0.99999944185E+02  0.10000000001E+03  0.10566000000E+00 0. -1.
         22   -1    0    0    0    0 -0.00000000000E+00 -0.00000000000E+00 -0.55110426623E+02  0.55110426623E+02  0.00000000000E+00 0.  1.
         13    1    1    2    0    0  0.87405840076E+00 -0.26581911581E+02 -0.42996434577E+02  0.50557556821E+02  0.10566000000E+00 0.  1.
        996    1    1    2    0    0 -0.87405840076E+00  0.26581911581E+02  0.87885952139E+02  0.10455286981E+03  0.50000000000E+02 0.  0.
<mgrwt>
<rscale>  0 0.56633577E+02</rscale>
<asrwt>0</asrwt>
<pdfrwt beam="1">  1       13 0.10000000E+01 0.56633577E+02</pdfrwt>
<pdfrwt beam="2">  1       22 0.55110439E+00 0.56633577E+02</pdfrwt>
<totfact> 0.59190558E-02</totfact>
</mgrwt>
</event>
<event>
 4    1  0.2516086E+000  0.6293054E+02  0.7957747E-01  0.1385929E+00
         13   -1    0    0    0    0  0.00000000000E+00  0.00000000000E+00  0.99999944183E+02  0.10000000000E+03  0.10566000000E+00 0. -1.
         22   -1    0    0    0    0 -0.00000000000E+00 -0.00000000000E+00 -0.33763164800E+02  0.33763164800E+02  0.00000000000E+00 0. -1.
         13    1    1    2    0    0 -0.17176917478E+02 -0.34135123700E+02 -0.51947345890E+01  0.38564875153E+02  0.10566000000E+00 0.  1.
        996    1    1    2    0    0  0.17176917478E+02  0.34135123700E+02  0.71431513973E+02  0.95198289651E+02  0.50000000000E+02 0.  0.
<mgrwt>
<rscale>  0 0.62930542E+02</rscale>
<asrwt>0</asrwt>
<pdfrwt beam="1">  1       13 0.10000000E+01 0.62930542E+02</pdfrwt>
<pdfrwt beam="2">  1       22 0.33763183E+00 0.62930542E+02</pdfrwt>
<totfact> 0.16916889E-01</totfact>
</mgrwt>
</event>
<event>
 4    1  0.2516086E+000  0.6555978E+02  0.7957747E-01  0.1375878E+00
         13   -1    0    0    0    0  0.00000000000E+00  0.00000000000E+00  0.99999944178E+02  0.99999999998E+02  0.10566000000E+00 0.  1.
         22   -1    0    0    0    0 -0.00000000000E+00 -0.00000000000E+00 -0.84539055578E+02  0.84539055578E+02  0.00000000000E+00 0. -1.
         13    1    1    2    0    0  0.40465638013E+02 -0.12673464854E+02 -0.66939391544E+02  0.79240001738E+02  0.10566000000E+00 0. -1.
        996    1    1    2    0    0 -0.40465638013E+02  0.12673464854E+02  0.82400280144E+02  0.10529905384E+03  0.50000000000E+02 0.  0.
<mgrwt>
<rscale>  0 0.65559779E+02</rscale>
<asrwt>0</asrwt>
<pdfrwt beam="1">  1       13 0.10000000E+01 0.65559779E+02</pdfrwt>
<pdfrwt beam="2">  1       22 0.84539060E+00 0.65559779E+02</pdfrwt>
<totfact> 0.19920806E-02</totfact>
</mgrwt>
</event>
<event>
 4    1  0.2516086E+000  0.5266126E+02  0.7957747E-01  0.1431494E+00
         13   -1    0    0    0    0  0.00000000000E+00  0.00000000000E+00  0.99999944176E+02  0.99999999997E+02  0.10566000000E+00 0.  1.
         22   -1    0    0    0    0 -0.00000000000E+00 -0.00000000000E+00 -0.12663400935E+02  0.12663400935E+02  0.00000000000E+00 0. -1.
         13    1    1    2    0    0 -0.13476782859E+02  0.95699705028E+01  0.10745658566E+02  0.19715180793E+02  0.10566000000E+00 0. -1.
        996    1    1    2    0    0  0.13476782859E+02 -0.95699705028E+01  0.76590884675E+02  0.92948220139E+02  0.50000000000E+02 0.  0.
<mgrwt>
<rscale>  0 0.52661257E+02</rscale>
<asrwt>0</asrwt>
<pdfrwt beam="1">  1       13 0.10000000E+01 0.52661257E+02</pdfrwt>
<pdfrwt beam="2">  1       22 0.12663425E+00 0.52661257E+02</pdfrwt>
<totfact> 0.99055035E-01</totfact>
</mgrwt>
</event>
<event>
 4    1  0.2516086E+000  0.5433788E+02  0.7957747E-01  0.1423256E+00
         13   -1    0    0    0    0  0.00000000000E+00  0.00000000000E+00  0.99999944166E+02  0.99999999987E+02  0.10566000000E+00 0.  1.
         22   -1    0    0    0    0 -0.00000000000E+00 -0.00000000000E+00 -0.24498217313E+02  0.24498217313E+02  0.00000000000E+00 0. -1.
         13    1    1    2    0    0  0.20931068277E+02  0.38072810508E+01 -0.97495089854E+01  0.23402331032E+02  0.10566000000E+00 0. -1.
        996    1    1    2    0    0 -0.20931068277E+02 -0.38072810508E+01  0.85251235839E+02  0.10109588627E+03  0.50000000000E+02 0.  0.
<mgrwt>
<rscale>  0 0.54337878E+02</rscale>
<asrwt>0</asrwt>
<pdfrwt beam="1">  1       13 0.10000000E+01 0.54337878E+02</pdfrwt>
<pdfrwt beam="2">  1       22 0.24498238E+00 0.54337878E+02</pdfrwt>
<totfact> 0.30789774E-01</totfact>
</mgrwt>
</event>
<event>
 4    1  0.2516086E+000  0.7133275E+02  0.7957747E-01  0.1355619E+00
         13   -1    0    0    0    0  0.00000000000E+00  0.00000000000E+00  0.99999944173E+02  0.99999999993E+02  0.10566000000E+00 0.  1.
         22   -1    0    0    0    0 -0.00000000000E+00 -0.00000000000E+00 -0.40777244449E+02  0.40777244449E+02  0.00000000000E+00 0. -1.
         13    1    1    2    0    0 -0.50231362383E+02 -0.80728633272E+01  0.48930573325E+01  0.51110801826E+02  0.10566000000E+00 0. -1.
        996    1    1    2    0    0  0.50231362383E+02  0.80728633272E+01  0.54329642391E+02  0.89666442616E+02  0.50000000000E+02 0.  0.
<mgrwt>
<rscale>  0 0.71332748E+02</rscale>
<asrwt>0</asrwt>
<pdfrwt beam="1">  1       13 0.10000000E+01 0.71332748E+02</pdfrwt>
<pdfrwt beam="2">  1       22 0.40777261E+00 0.71332748E+02</pdfrwt>
<totfact> 0.12066019E-01</totfact>
</mgrwt>
</event>
<event>
 4    1  0.2516086E+000  0.5414042E+02  0.7957747E-01  0.1424208E+00
         13   -1    0    0    0    0  0.00000000000E+00  0.00000000000E+00  0.99999944181E+02  0.10000000000E+03  0.10566000000E+00 0. -1.
         22   -1    0    0    0    0 -0.00000000000E+00 -0.00000000000E+00 -0.14213523761E+02  0.14213523761E+02  0.00000000000E+00 0. -1.
         13    1    1    2    0    0  0.13164448702E+02 -0.16058716847E+02  0.18168148762E+02  0.27591264739E+02  0.10566000000E+00 0.  1.
        996    1    1    2    0    0 -0.13164448702E+02  0.16058716847E+02  0.67618271657E+02  0.86622259023E+02  0.50000000000E+02 0.  0.
<mgrwt>
<rscale>  0 0.54140420E+02</rscale>
<asrwt>0</asrwt>
<pdfrwt beam="1">  1       13 0.10000000E+01 0.54140420E+02</pdfrwt>
<pdfrwt beam="2">  1       22 0.14213548E+00 0.54140420E+02</pdfrwt>
<totfact> 0.82638959E-01</totfact>
</mgrwt>
</event>
<event>
 4    1  0.2516086E+000  0.5728160E+02  0.7957747E-01  0.1409607E+00
         13   -1    0    0    0    0  0.00000000000E+00  0.00000000000E+00  0.99999944176E+02  0.99999999996E+02  0.10566000000E+00 0.  1.
         22   -1    0    0    0    0 -0.00000000000E+00 -0.00000000000E+00 -0.18217712768E+02  0.18217712768E+02  0.00000000000E+00 0. -1.
         13    1    1    2    0    0 -0.27949199423E+02 -0.15423915098E+00  0.29960661586E+02  0.40973576178E+02  0.10566000000E+00 0. -1.
        996    1    1    2    0    0  0.27949199423E+02  0.15423915098E+00  0.51821569823E+02  0.77244136586E+02  0.50000000000E+02 0.  0.
<mgrwt>
<rscale>  0 0.57281599E+02</rscale>
<asrwt>0</asrwt>
<pdfrwt beam="1">  1       13 0.10000000E+01 0.57281599E+02</pdfrwt>
<pdfrwt beam="2">  1       22 0.18217736E+00 0.57281599E+02</pdfrwt>
<totfact> 0.54274294E-01</totfact>
</mgrwt>
</event>
<event>
 4    1  0.2516086E+000  0.5383456E+02  0.7957747E-01  0.1425692E+00
         13   -1    0    0    0    0  0.00000000000E+00  0.00000000000E+00  0.99999944172E+02  0.99999999992E+02  0.10566000000E+00 0. -1.
         22   -1    0    0    0    0 -0.00000000000E+00 -0.00000000000E+00 -0.17009357275E+02  0.17009357275E+02  0.00000000000E+00 0.  1.
         13    1    1    2    0    0 -0.19718811157E+02  0.30542974974E+01  0.24087000666E+01  0.20099085718E+02  0.10566000000E+00 0.  1.
        996    1    1    2    0    0  0.19718811157E+02 -0.30542974974E+01  0.80581886830E+02  0.96910271549E+02  0.50000000000E+02 0.  0.
<mgrwt>
<rscale>  0 0.53834564E+02</rscale>
<asrwt>0</asrwt>
<pdfrwt beam="1">  1       13 0.10000000E+01 0.53834564E+02</pdfrwt>
<pdfrwt beam="2">  1       22 0.17009380E+00 0.53834564E+02</pdfrwt>
<totfact> 0.60952094E-01</totfact>
</mgrwt>
</event>
<event>
 4    1  0.2516086E+000  0.5608130E+02  0.7957747E-01  0.1415053E+00
         13   -1    0    0    0    0  0.00000000000E+00  0.00000000000E+00  0.99999944184E+02  0.10000000000E+03  0.10566000000E+00 0. -1.
         22   -1    0    0    0    0 -0.00000000000E+00 -0.00000000000E+00 -0.17993153740E+02  0.17993153740E+02  0.00000000000E+00 0. -1.
         13    1    1    2    0    0 -0.53865262572E+01 -0.24821310443E+02  0.11443092086E+02  0.27857990555E+02  0.10566000000E+00 0.  1.
        996    1    1    2    0    0  0.53865262572E+01  0.24821310443E+02  0.70563698357E+02  0.90135163189E+02  0.50000000000E+02 0.  0.
<mgrwt>
<rscale>  0 0.56081299E+02</rscale>
<asrwt>0</asrwt>
<pdfrwt beam="1">  1       13 0.10000000E+01 0.56081299E+02</pdfrwt>
<pdfrwt beam="2">  1       22 0.17993177E+00 0.56081299E+02</pdfrwt>
<totfact> 0.55386100E-01</totfact>
</mgrwt>
</event>
<event>
 4    1  0.2516086E+000  0.5798778E+02  0.7957747E-01  0.1406475E+00
         13   -1    0    0    0    0  0.00000000000E+00  0.00000000000E+00  0.99999944171E+02  0.99999999991E+02  0.10566000000E+00 0. -1.
         22   -1    0    0    0    0 -0.00000000000E+00 -0.00000000000E+00 -0.33255869288E+02  0.33255869288E+02  0.00000000000E+00 0.  1.
         13    1    1    2    0    0  0.56178336598E+01 -0.28827457587E+02 -0.15042527726E+02  0.32998047978E+02  0.10566000000E+00 0.  1.
        996    1    1    2    0    0 -0.56178336598E+01  0.28827457587E+02  0.81786602608E+02  0.10025782130E+03  0.50000000000E+02 0.  0.
<mgrwt>
<rscale>  0 0.57987778E+02</rscale>
<asrwt>0</asrwt>
<pdfrwt beam="1">  1       13 0.10000000E+01 0.57987778E+02</pdfrwt>
<pdfrwt beam="2">  1       22 0.33255888E+00 0.57987778E+02</pdfrwt>
<totfact> 0.17294034E-01</totfact>
</mgrwt>
</event>
<event>
 4    1  0.2516086E+000  0.5354613E+02  0.7957747E-01  0.1427102E+00
         13   -1    0    0    0    0  0.00000000000E+00  0.00000000000E+00  0.99999944181E+02  0.10000000000E+03  0.10566000000E+00 0.  1.
         22   -1    0    0    0    0 -0.00000000000E+00 -0.00000000000E+00 -0.32616992420E+02  0.32616992420E+02  0.00000000000E+00 0. -1.
         13    1    1    2    0    0 -0.63160720690E+01 -0.18091293311E+02 -0.21531755562E+02  0.28823867222E+02  0.10566000000E+00 0. -1.
        996    1    1    2    0    0  0.63160720690E+01  0.18091293311E+02  0.88914707324E+02  0.10379312520E+03  0.50000000000E+02 0.  0.
<mgrwt>
<rscale>  0 0.53546126E+02</rscale>
<asrwt>0</asrwt>
<pdfrwt beam="1">  1       13 0.10000000E+01 0.53546126E+02</pdfrwt>
<pdfrwt beam="2">  1       22 0.32617011E+00 0.53546126E+02</pdfrwt>
<totfact> 0.17814043E-01</totfact>
</mgrwt>
</event>
<event>
 4    1  0.2516086E+000  0.5158552E+02  0.7957747E-01  0.1436973E+00
         13   -1    0    0    0    0  0.00000000000E+00  0.00000000000E+00  0.99999944174E+02  0.99999999994E+02  0.10566000000E+00 0.  1.
         22   -1    0    0    0    0 -0.00000000000E+00 -0.00000000000E+00 -0.37634665114E+02  0.37634665114E+02  0.00000000000E+00 0. -1.
         13    1    1    2    0    0  0.35454674361E+01 -0.12185887571E+02 -0.29590704509E+02  0.32197626506E+02  0.10566000000E+00 0. -1.
        996    1    1    2    0    0 -0.35454674361E+01  0.12185887571E+02  0.91955983569E+02  0.10543703860E+03  0.50000000000E+02 0.  0.
<mgrwt>
<rscale>  0 0.51585523E+02</rscale>
<asrwt>0</asrwt>
<pdfrwt beam="1">  1       13 0.10000000E+01 0.51585523E+02</pdfrwt>
<pdfrwt beam="2">  1       22 0.37634683E+00 0.51585523E+02</pdfrwt>
<totfact> 0.13826979E-01</totfact>
</mgrwt>
</event>
<event>
 4    1  0.2516086E+000  0.5689437E+02  0.7957747E-01  0.1411347E+00
         13   -1    0    0    0    0  0.00000000000E+00  0.00000000000E+00  0.99999944169E+02  0.99999999989E+02  0.10566000000E+00 0. -1.
         22   -1    0    0    0    0 -0.00000000000E+00 -0.00000000000E+00 -0.18903398888E+02  0.18903398888E+02  0.00000000000E+00 0.  1.
         13    1    1    2    0    0  0.22783409285E+02 -0.14760959395E+02  0.12800084834E+02  0.30013713477E+02  0.10566000000E+00 0.  1.
        996    1    1    2    0    0 -0.22783409285E+02  0.14760959395E+02  0.68296460447E+02  0.88889685400E+02  0.50000000000E+02 0.  0.
<mgrwt>
<rscale>  0 0.56894373E+02</rscale>
<asrwt>0</asrwt>
<pdfrwt beam="1">  1       13 0.10000000E+01 0.56894373E+02</pdfrwt>
<pdfrwt beam="2">  1       22 0.18903422E+00 0.56894373E+02</pdfrwt>
<totfact> 0.50714309E-01</totfact>
</mgrwt>
</event>
<event>
 4    1  0.2516086E+000  0.5289793E+02  0.7957747E-01  0.1430310E+00
         13   -1    0    0    0    0  0.00000000000E+00  0.00000000000E+00  0.99999944181E+02  0.10000000000E+03  0.10566000000E+00 0.  1.
         22   -1    0    0    0    0 -0.00000000000E+00 -0.00000000000E+00 -0.21138680495E+02  0.21138680495E+02  0.00000000000E+00 0.  1.
         13    1    1    2    0    0  0.12026449993E+02  0.12391738529E+02 -0.83169273397E+01  0.19166980138E+02  0.10566000000E+00 0. -1.
        996    1    1    2    0    0 -0.12026449993E+02 -0.12391738529E+02  0.87178191026E+02  0.10197170036E+03  0.50000000000E+02 0.  0.
<mgrwt>
<rscale>  0 0.52897927E+02</rscale>
<asrwt>0</asrwt>
<pdfrwt beam="1">  1       13 0.10000000E+01 0.52897927E+02</pdfrwt>
<pdfrwt beam="2">  1       22 0.21138703E+00 0.52897927E+02</pdfrwt>
<totfact> 0.40884941E-01</totfact>
</mgrwt>
</event>
<event>
 4    1  0.2516086E+000  0.5275336E+02  0.7957747E-01  0.1431032E+00
         13   -1    0    0    0    0  0.00000000000E+00  0.00000000000E+00  0.99999944178E+02  0.99999999998E+02  0.10566000000E+00 0.  1.
         22   -1    0    0    0    0 -0.00000000000E+00 -0.00000000000E+00 -0.12134453455E+02  0.12134453455E+02  0.00000000000E+00 0.  1.
         13    1    1    2    0    0 -0.75581446092E+01 -0.15026342423E+02  0.18792617664E+02  0.25220827885E+02  0.10566000000E+00 0. -1.
        996    1    1    2    0    0  0.75581446092E+01  0.15026342423E+02  0.69072873060E+02  0.86913625567E+02  0.50000000000E+02 0.  0.
<mgrwt>
<rscale>  0 0.52753356E+02</rscale>
<asrwt>0</asrwt>
<pdfrwt beam="1">  1       13 0.10000000E+01 0.52753356E+02</pdfrwt>
<pdfrwt beam="2">  1       22 0.12134478E+00 0.52753356E+02</pdfrwt>
<totfact> 0.10584734E+00</totfact>
</mgrwt>
</event>
<event>
 4    1  0.2516086E+000  0.7018399E+02  0.7957747E-01  0.1359468E+00
         13   -1    0    0    0    0  0.00000000000E+00  0.00000000000E+00  0.99999944184E+02  0.10000000000E+03  0.10566000000E+00 0.  1.
         22   -1    0    0    0    0 -0.00000000000E+00 -0.00000000000E+00 -0.38752891441E+02  0.38752891441E+02  0.00000000000E+00 0. -1.
         13    1    1    2    0    0  0.48194394473E+02 -0.10153471964E+02  0.63724843891E+01  0.49662987957E+02  0.10566000000E+00 0. -1.
        996    1    1    2    0    0 -0.48194394473E+02  0.10153471964E+02  0.54874568353E+02  0.89089903488E+02  0.50000000000E+02 0.  0.
<mgrwt>
<rscale>  0 0.70183991E+02</rscale>
<asrwt>0</asrwt>
<pdfrwt beam="1">  1       13 0.10000000E+01 0.70183991E+02</pdfrwt>
<pdfrwt beam="2">  1       22 0.38752909E+00 0.70183991E+02</pdfrwt>
<totfact> 0.13292159E-01</totfact>
</mgrwt>
</event>
<event>
 4    1  0.2516086E+000  0.5122903E+02  0.7957747E-01  0.1438823E+00
         13   -1    0    0    0    0  0.00000000000E+00  0.00000000000E+00  0.99999944177E+02  0.99999999997E+02  0.10566000000E+00 0. -1.
         22   -1    0    0    0    0 -0.00000000000E+00 -0.00000000000E+00 -0.97317143105E+01  0.97317143105E+01  0.00000000000E+00 0. -1.
         13    1    1    2    0    0 -0.73402644579E+01  0.83984380531E+01  0.16815980691E+02  0.20179237218E+02  0.10566000000E+00 0.  1.
        996    1    1    2    0    0  0.73402644579E+01 -0.83984380531E+01  0.73452249175E+02  0.89552477090E+02  0.50000000000E+02 0.  0.
<mgrwt>
<rscale>  0 0.51229027E+02</rscale>
<asrwt>0</asrwt>
<pdfrwt beam="1">  1       13 0.10000000E+01 0.51229027E+02</pdfrwt>
<pdfrwt beam="2">  1       22 0.97317395E-01 0.51229027E+02</pdfrwt>
<totfact> 0.14634736E+00</totfact>
</mgrwt>
</event>
<event>
 4    1  0.2516086E+000  0.8280376E+02  0.7957747E-01  0.1321278E+00
         13   -1    0    0    0    0  0.00000000000E+00  0.00000000000E+00  0.99999944176E+02  0.99999999996E+02  0.10566000000E+00 0.  1.
         22   -1    0    0    0    0 -0.00000000000E+00 -0.00000000000E+00 -0.97083084047E+02  0.97083084047E+02  0.00000000000E+00 0. -1.
         13    1    1    2    0    0  0.58003683469E+02  0.31496594857E+02 -0.63001471425E+02  0.91245051095E+02  0.10566000000E+00 0. -1.
        996    1    1    2    0    0 -0.58003683469E+02 -0.31496594857E+02  0.65918331553E+02  0.10583803295E+03  0.50000000000E+02 0.  0.
<mgrwt>
<rscale>  0 0.82803761E+02</rscale>
<asrwt>0</asrwt>
<pdfrwt beam="1">  1       13 0.10000000E+01 0.82803761E+02</pdfrwt>
<pdfrwt beam="2">  1       22 0.97083085E+00 0.82803761E+02</pdfrwt>
<totfact> 0.22618658E-03</totfact>
</mgrwt>
</event>
<event>
 4    1  0.2516086E+000  0.5631204E+02  0.7957747E-01  0.1413994E+00
         13   -1    0    0    0    0  0.00000000000E+00  0.00000000000E+00  0.99999944177E+02  0.99999999997E+02  0.10566000000E+00 0.  1.
         22   -1    0    0    0    0 -0.00000000000E+00 -0.00000000000E+00 -0.57193361744E+02  0.57193361744E+02  0.00000000000E+00 0. -1.
         13    1    1    2    0    0 -0.10611615814E+02  0.23631322528E+02 -0.45559802930E+02  0.52409470534E+02  0.10566000000E+00 0. -1.
        996    1    1    2    0    0  0.10611615814E+02 -0.23631322528E+02  0.88366385362E+02  0.10478389121E+03  0.50000000000E+02 0.  0.
<mgrwt>
<rscale>  0 0.56312040E+02</rscale>
<asrwt>0</asrwt>
<pdfrwt beam="1">  1       13 0.10000000E+01 0.56312040E+02</pdfrwt>
<pdfrwt beam="2">  1       22 0.57193374E+00 0.56312040E+02</pdfrwt>
<totfact> 0.57852586E-02</totfact>
</mgrwt>
</event>
<event>
 4    1  0.2516086E+000  0.5179056E+02  0.7957747E-01  0.1435916E+00
         13   -1    0    0    0    0  0.00000000000E+00  0.00000000000E+00  0.99999944175E+02  0.99999999995E+02  0.10566000000E+00 0.  1.
         22   -1    0    0    0    0 -0.00000000000E+00 -0.00000000000E+00 -0.11710349963E+02  0.11710349963E+02  0.00000000000E+00 0.  1.
         13    1    1    2    0    0  0.10569617593E+02  0.83991127902E+01  0.67018070541E+01  0.15072733446E+02  0.10566000000E+00 0. -1.
        996    1    1    2    0    0 -0.10569617593E+02 -0.83991127902E+01  0.81587787158E+02  0.96637616511E+02  0.50000000000E+02 0.  0.
<mgrwt>
<rscale>  0 0.51790558E+02</rscale>
<asrwt>0</asrwt>
<pdfrwt beam="1">  1       13 0.10000000E+01 0.51790558E+02</pdfrwt>
<pdfrwt beam="2">  1       22 0.11710375E+00 0.51790558E+02</pdfrwt>
<totfact> 0.11152107E+00</totfact>
</mgrwt>
</event>
<event>
 4    1  0.2516086E+000  0.5903275E+02  0.7957747E-01  0.1401936E+00
         13   -1    0    0    0    0  0.00000000000E+00  0.00000000000E+00  0.99999944185E+02  0.10000000001E+03  0.10566000000E+00 0.  1.
         22   -1    0    0    0    0 -0.00000000000E+00 -0.00000000000E+00 -0.74354278240E+02  0.74354278240E+02  0.00000000000E+00 0. -1.
         13    1    1    2    0    0 -0.28718205819E+02 -0.12654259782E+02 -0.61530231992E+02  0.69071312780E+02  0.10566000000E+00 0. -1.
        996    1    1    2    0    0  0.28718205819E+02  0.12654259782E+02  0.87175897937E+02  0.10528296547E+03  0.50000000000E+02 0.  0.
<mgrwt>
<rscale>  0 0.59032751E+02</rscale>
<asrwt>0</asrwt>
<pdfrwt beam="1">  1       13 0.10000000E+01 0.59032751E+02</pdfrwt>
<pdfrwt beam="2">  1       22 0.74354285E+00 0.59032751E+02</pdfrwt>
<totfact> 0.52010143E-02</totfact>
</mgrwt>
</event>
<event>
 4    1  0.2516086E+000  0.5835654E+02  0.7957747E-01  0.1404861E+00
         13   -1    0    0    0    0  0.00000000000E+00  0.00000000000E+00  0.99999944189E+02  0.10000000001E+03  0.10566000000E+00 0.  1.
         22   -1    0    0    0    0 -0.00000000000E+00 -0.00000000000E+00 -0.20244197599E+02  0.20244197599E+02  0.00000000000E+00 0. -1.
         13    1    1    2    0    0 -0.29378062729E+02 -0.65127289493E+01  0.17054665720E+02  0.34588422845E+02  0.10566000000E+00 0. -1.
        996    1    1    2    0    0  0.29378062729E+02  0.65127289493E+01  0.62701080870E+02  0.85655774763E+02  0.50000000000E+02 0.  0.
<mgrwt>
<rscale>  0 0.58356544E+02</rscale>
<asrwt>0</asrwt>
<pdfrwt beam="1">  1       13 0.10000000E+01 0.58356544E+02</pdfrwt>
<pdfrwt beam="2">  1       22 0.20244220E+00 0.58356544E+02</pdfrwt>
<totfact> 0.44765824E-01</totfact>
</mgrwt>
</event>
<event>
 4    1  0.2516086E+000  0.5175186E+02  0.7957747E-01  0.1436115E+00
         13   -1    0    0    0    0  0.00000000000E+00  0.00000000000E+00  0.99999944182E+02  0.10000000000E+03  0.10566000000E+00 0.  1.
         22   -1    0    0    0    0 -0.00000000000E+00 -0.00000000000E+00 -0.11001515455E+02  0.11001515455E+02  0.00000000000E+00 0.  1.
         13    1    1    2    0    0  0.36064393353E+01 -0.12854901188E+02  0.10531894316E+02  0.17005494734E+02  0.10566000000E+00 0. -1.
        996    1    1    2    0    0 -0.36064393353E+01  0.12854901188E+02  0.78466534412E+02  0.93996020723E+02  0.50000000000E+02 0.  0.
<mgrwt>
<rscale>  0 0.51751859E+02</rscale>
<asrwt>0</asrwt>
<pdfrwt beam="1">  1       13 0.10000000E+01 0.51751859E+02</pdfrwt>
<pdfrwt beam="2">  1       22 0.11001540E+00 0.51751859E+02</pdfrwt>
<totfact> 0.12247688E+00</totfact>
</mgrwt>
</event>
<event>
 4    1  0.2516086E+000  0.5151629E+02  0.7957747E-01  0.1437331E+00
         13   -1    0    0    0    0  0.00000000000E+00  0.00000000000E+00  0.99999944177E+02  0.99999999997E+02  0.10566000000E+00 0. -1.
         22   -1    0    0    0    0 -0.00000000000E+00 -0.00000000000E+00 -0.11448158759E+02  0.11448158759E+02  0.00000000000E+00 0.  1.
         13    1    1    2    0    0 -0.52061031753E+01  0.11261626162E+02  0.51820508952E+01  0.13445912003E+02  0.10566000000E+00 0.  1.
        996    1    1    2    0    0  0.52061031753E+01 -0.11261626162E+02  0.83369734523E+02  0.98002246752E+02  0.50000000000E+02 0.  0.
<mgrwt>
<rscale>  0 0.51516286E+02</rscale>
<asrwt>0</asrwt>
<pdfrwt beam="1">  1       13 0.10000000E+01 0.51516286E+02</pdfrwt>
<pdfrwt beam="2">  1       22 0.11448183E+00 0.51516286E+02</pdfrwt>
<totfact> 0.11533190E+00</totfact>
</mgrwt>
</event>
<event>
 4    1  0.2516086E+000  0.5696359E+02  0.7957747E-01  0.1411035E+00
         13   -1    0    0    0    0  0.00000000000E+00  0.00000000000E+00  0.99999944188E+02  0.10000000001E+03  0.10566000000E+00 0. -1.
         22   -1    0    0    0    0 -0.00000000000E+00 -0.00000000000E+00 -0.44987317367E+02  0.44987317367E+02  0.00000000000E+00 0.  1.
         13    1    1    2    0    0 -0.22674315412E+02 -0.15189659920E+02 -0.31327899372E+02  0.41548751979E+02  0.10566000000E+00 0.  1.
        996    1    1    2    0    0  0.22674315412E+02  0.15189659920E+02  0.86340526194E+02  0.10343856540E+03  0.50000000000E+02 0.  0.
<mgrwt>
<rscale>  0 0.56963588E+02</rscale>
<asrwt>0</asrwt>
<pdfrwt beam="1">  1       13 0.10000000E+01 0.56963588E+02</pdfrwt>
<pdfrwt beam="2">  1       22 0.44987333E+00 0.56963588E+02</pdfrwt>
<totfact> 0.96956679E-02</totfact>
</mgrwt>
</event>
<event>
 4    1  0.2516086E+000  0.6313536E+02  0.7957747E-01  0.1385126E+00
         13   -1    0    0    0    0  0.00000000000E+00  0.00000000000E+00  0.99999944176E+02  0.99999999997E+02  0.10566000000E+00 0.  1.
         22   -1    0    0    0    0 -0.00000000000E+00 -0.00000000000E+00 -0.36966043149E+02  0.36966043149E+02  0.00000000000E+00 0. -1.
         13    1    1    2    0    0  0.11268085167E+02 -0.36866024166E+02 -0.10590740077E+02  0.39978099262E+02  0.10566000000E+00 0. -1.
        996    1    1    2    0    0 -0.11268085167E+02  0.36866024166E+02  0.73624641104E+02  0.96987943884E+02  0.50000000000E+02 0.  0.
<mgrwt>
<rscale>  0 0.63135358E+02</rscale>
<asrwt>0</asrwt>
<pdfrwt beam="1">  1       13 0.10000000E+01 0.63135358E+02</pdfrwt>
<pdfrwt beam="2">  1       22 0.36966061E+00 0.63135358E+02</pdfrwt>
<totfact> 0.14414293E-01</totfact>
</mgrwt>
</event>
<event>
 4    1  0.2516086E+000  0.5161485E+02  0.7957747E-01  0.1436821E+00
         13   -1    0    0    0    0  0.00000000000E+00  0.00000000000E+00  0.99999944172E+02  0.99999999992E+02  0.10566000000E+00 0. -1.
         22   -1    0    0    0    0 -0.00000000000E+00 -0.00000000000E+00 -0.10381800248E+02  0.10381800248E+02  0.00000000000E+00 0. -1.
         13    1    1    2    0    0 -0.65508893166E+01 -0.11008136521E+02  0.18830630875E+02  0.22774921376E+02  0.10566000000E+00 0.  1.
        996    1    1    2    0    0  0.65508893166E+01  0.11008136521E+02  0.70787513050E+02  0.87606878864E+02  0.50000000000E+02 0.  0.
<mgrwt>
<rscale>  0 0.51614855E+02</rscale>
<asrwt>0</asrwt>
<pdfrwt beam="1">  1       13 0.10000000E+01 0.51614855E+02</pdfrwt>
<pdfrwt beam="2">  1       22 0.10381825E+00 0.51614855E+02</pdfrwt>
<totfact> 0.13337115E+00</totfact>
</mgrwt>
</event>
<event>
 4    1  0.2516086E+000  0.5213476E+02  0.7957747E-01  0.1434156E+00
         13   -1    0    0    0    0  0.00000000000E+00  0.00000000000E+00  0.99999944172E+02  0.99999999992E+02  0.10566000000E+00 0.  1.
         22   -1    0    0    0    0 -0.00000000000E+00 -0.00000000000E+00 -0.11189817971E+02  0.11189817971E+02  0.00000000000E+00 0.  1.
         13    1    1    2    0    0  0.78303250693E+01  0.12518748245E+02  0.19308396653E+02  0.24307578935E+02  0.10566000000E+00 0. -1.
        996    1    1    2    0    0 -0.78303250693E+01 -0.12518748245E+02  0.69501729549E+02  0.86882239028E+02  0.50000000000E+02 0.  0.
<mgrwt>
<rscale>  0 0.52134759E+02</rscale>
<asrwt>0</asrwt>
<pdfrwt beam="1">  1       13 0.10000000E+01 0.52134759E+02</pdfrwt>
<pdfrwt beam="2">  1       22 0.11189843E+00 0.52134759E+02</pdfrwt>
<totfact> 0.11952053E+00</totfact>
</mgrwt>
</event>
<event>
 4    1  0.2516086E+000  0.5137930E+02  0.7957747E-01  0.1438041E+00
         13   -1    0    0    0    0  0.00000000000E+00  0.00000000000E+00  0.99999944176E+02  0.99999999996E+02  0.10566000000E+00 0. -1.
         22   -1    0    0    0    0 -0.00000000000E+00 -0.00000000000E+00 -0.10005236414E+02  0.10005236414E+02  0.00000000000E+00 0. -1.
         13    1    1    2    0    0 -0.94020902237E+01  0.71716656475E+01  0.18716462017E+02  0.22139313522E+02  0.10566000000E+00 0.  1.
        996    1    1    2    0    0  0.94020902237E+01 -0.71716656475E+01  0.71278245745E+02  0.87865922889E+02  0.50000000000E+02 0.  0.
<mgrwt>
<rscale>  0 0.51379296E+02</rscale>
<asrwt>0</asrwt>
<pdfrwt beam="1">  1       13 0.10000000E+01 0.51379296E+02</pdfrwt>
<pdfrwt beam="2">  1       22 0.10005262E+00 0.51379296E+02</pdfrwt>
<totfact> 0.14066070E+00</totfact>
</mgrwt>
</event>
<event>
 4    1  0.2516086E+000  0.5177816E+02  0.7957747E-01  0.1435980E+00
         13   -1    0    0    0    0  0.00000000000E+00  0.00000000000E+00  0.99999944178E+02  0.99999999998E+02  0.10566000000E+00 0. -1.
         22   -1    0    0    0    0 -0.00000000000E+00 -0.00000000000E+00 -0.24893043249E+02  0.24893043249E+02  0.00000000000E+00 0.  1.
         13    1    1    2    0    0 -0.74782420081E+01 -0.11182751161E+02 -0.15506743535E+02  0.20529205688E+02  0.10566000000E+00 0.  1.
        996    1    1    2    0    0  0.74782420081E+01  0.11182751161E+02  0.90613644465E+02  0.10436383756E+03  0.50000000000E+02 0.  0.
<mgrwt>
<rscale>  0 0.51778162E+02</rscale>
<asrwt>0</asrwt>
<pdfrwt beam="1">  1       13 0.10000000E+01 0.51778162E+02</pdfrwt>
<pdfrwt beam="2">  1       22 0.24893064E+00 0.51778162E+02</pdfrwt>
<totfact> 0.29718556E-01</totfact>
</mgrwt>
</event>
<event>
 4    1  0.2516086E+000  0.7033666E+02  0.7957747E-01  0.1358952E+00
         13   -1    0    0    0    0  0.00000000000E+00  0.00000000000E+00  0.99999944179E+02  0.99999999999E+02  0.10566000000E+00 0.  1.
         22   -1    0    0    0    0 -0.00000000000E+00 -0.00000000000E+00 -0.66789321428E+02  0.66789321428E+02  0.00000000000E+00 0. -1.
         13    1    1    2    0    0 -0.36569526451E+02  0.33315404464E+02 -0.41212932284E+02  0.64387602773E+02  0.10566000000E+00 0. -1.
        996    1    1    2    0    0  0.36569526451E+02 -0.33315404464E+02  0.74423555034E+02  0.10240171865E+03  0.50000000000E+02 0.  0.
<mgrwt>
<rscale>  0 0.70336665E+02</rscale>
<asrwt>0</asrwt>
<pdfrwt beam="1">  1       13 0.10000000E+01 0.70336665E+02</pdfrwt>
<pdfrwt beam="2">  1       22 0.66789331E+00 0.70336665E+02</pdfrwt>
<totfact> 0.86635833E-02</totfact>
</mgrwt>
</event>
<event>
 4    1  0.2516086E+000  0.5312287E+02  0.7957747E-01  0.1429190E+00
         13   -1    0    0    0    0  0.00000000000E+00  0.00000000000E+00  0.99999944169E+02  0.99999999989E+02  0.10566000000E+00 0. -1.
         22   -1    0    0    0    0 -0.00000000000E+00 -0.00000000000E+00 -0.17533136302E+02  0.17533136302E+02  0.00000000000E+00 0.  1.
         13    1    1    2    0    0  0.56975621634E+01  0.17016950961E+02 -0.16762579300E+01  0.18023868600E+02  0.10566000000E+00 0.  1.
        996    1    1    2    0    0 -0.56975621634E+01 -0.17016950961E+02  0.84143065798E+02  0.99509267691E+02  0.50000000000E+02 0.  0.
<mgrwt>
<rscale>  0 0.53122865E+02</rscale>
<asrwt>0</asrwt>
<pdfrwt beam="1">  1       13 0.10000000E+01 0.53122865E+02</pdfrwt>
<pdfrwt beam="2">  1       22 0.17533159E+00 0.53122865E+02</pdfrwt>
<totfact> 0.57699048E-01</totfact>
</mgrwt>
</event>
<event>
 4    1  0.2516086E+000  0.5112637E+02  0.7957747E-01  0.1439359E+00
         13   -1    0    0    0    0  0.00000000000E+00  0.00000000000E+00  0.99999944192E+02  0.10000000001E+03  0.10566000000E+00 0.  1.
         22   -1    0    0    0    0 -0.00000000000E+00 -0.00000000000E+00 -0.21999406911E+02  0.21999406911E+02  0.00000000000E+00 0. -1.
         13    1    1    2    0    0 -0.63249827040E+01 -0.85965335991E+01 -0.13484656012E+02  0.17197468067E+02  0.10566000000E+00 0. -1.
        996    1    1    2    0    0  0.63249827040E+01  0.85965335991E+01  0.91485193293E+02  0.10480193886E+03  0.50000000000E+02 0.  0.
<mgrwt>
<rscale>  0 0.51126371E+02</rscale>
<asrwt>0</asrwt>
<pdfrwt beam="1">  1       13 0.10000000E+01 0.51126371E+02</pdfrwt>
<pdfrwt beam="2">  1       22 0.21999429E+00 0.51126371E+02</pdfrwt>
<totfact> 0.37766169E-01</totfact>
</mgrwt>
</event>
<event>
 4    1  0.2516086E+000  0.5639752E+02  0.7957747E-01  0.1413603E+00
         13   -1    0    0    0    0  0.00000000000E+00  0.00000000000E+00  0.99999944180E+02  0.10000000000E+03  0.10566000000E+00 0.  1.
         22   -1    0    0    0    0 -0.00000000000E+00 -0.00000000000E+00 -0.39970100868E+02  0.39970100868E+02  0.00000000000E+00 0. -1.
         13    1    1    2    0    0 -0.23228378498E+02  0.11879529114E+02 -0.26174169344E+02  0.36956448483E+02  0.10566000000E+00 0. -1.
        996    1    1    2    0    0  0.23228378498E+02 -0.11879529114E+02  0.86204012656E+02  0.10301365238E+03  0.50000000000E+02 0.  0.
<mgrwt>
<rscale>  0 0.56397525E+02</rscale>
<asrwt>0</asrwt>
<pdfrwt beam="1">  1       13 0.10000000E+01 0.56397525E+02</pdfrwt>
<pdfrwt beam="2">  1       22 0.39970118E+00 0.56397525E+02</pdfrwt>
<totfact> 0.12426475E-01</totfact>
</mgrwt>
</event>
<event>
 4    1  0.2516086E+000  0.5581569E+02  0.7957747E-01  0.1416280E+00
         13   -1    0    0    0    0  0.00000000000E+00  0.00000000000E+00  0.99999944174E+02  0.99999999994E+02  0.10566000000E+00 0. -1.
         22   -1    0    0    0    0 -0.00000000000E+00 -0.00000000000E+00 -0.22569489943E+02  0.22569489943E+02  0.00000000000E+00 0.  1.
         13    1    1    2    0    0 -0.60963837168E+00 -0.24799597028E+02 -0.26588200509E+01  0.24949391972E+02  0.10566000000E+00 0.  1.
        996    1    1    2    0    0  0.60963837168E+00  0.24799597028E+02  0.80089274282E+02  0.97620097965E+02  0.50000000000E+02 0.  0.
<mgrwt>
<rscale>  0 0.55815694E+02</rscale>
<asrwt>0</asrwt>
<pdfrwt beam="1">  1       13 0.10000000E+01 0.55815694E+02</pdfrwt>
<pdfrwt beam="2">  1       22 0.22569512E+00 0.55815694E+02</pdfrwt>
<totfact> 0.36224566E-01</totfact>
</mgrwt>
</event>
<event>
 4    1  0.2516086E+000  0.5109500E+02  0.7957747E-01  0.1439523E+00
         13   -1    0    0    0    0  0.00000000000E+00  0.00000000000E+00  0.99999944175E+02  0.99999999995E+02  0.10566000000E+00 0. -1.
         22   -1    0    0    0    0 -0.00000000000E+00 -0.00000000000E+00 -0.16016035063E+02  0.16016035063E+02  0.00000000000E+00 0. -1.
         13    1    1    2    0    0 -0.10417492552E+02  0.14746939453E+01 -0.63092244671E+01  0.12268510534E+02  0.10566000000E+00 0.  1.
        996    1    1    2    0    0  0.10417492552E+02 -0.14746939453E+01  0.90293133579E+02  0.10374752452E+03  0.50000000000E+02 0.  0.
<mgrwt>
<rscale>  0 0.51094999E+02</rscale>
<asrwt>0</asrwt>
<pdfrwt beam="1">  1       13 0.10000000E+01 0.51094999E+02</pdfrwt>
<pdfrwt beam="2">  1       22 0.16016059E+00 0.51094999E+02</pdfrwt>
<totfact> 0.67286915E-01</totfact>
</mgrwt>
</event>
<event>
 4    1  0.2516086E+000  0.5129154E+02  0.7957747E-01  0.1438497E+00
         13   -1    0    0    0    0  0.00000000000E+00  0.00000000000E+00  0.99999944180E+02  0.10000000000E+03  0.10566000000E+00 0.  1.
         22   -1    0    0    0    0 -0.00000000000E+00 -0.00000000000E+00 -0.40050498280E+02  0.40050498280E+02  0.00000000000E+00 0. -1.
         13    1    1    2    0    0 -0.76770486011E+01  0.84785100443E+01 -0.32429395538E+02  0.34387484159E+02  0.10566000000E+00 0. -1.
        996    1    1    2    0    0  0.76770486011E+01 -0.84785100443E+01  0.92378841438E+02  0.10566301412E+03  0.50000000000E+02 0.  0.
<mgrwt>
<rscale>  0 0.51291541E+02</rscale>
<asrwt>0</asrwt>
<pdfrwt beam="1">  1       13 0.10000000E+01 0.51291541E+02</pdfrwt>
<pdfrwt beam="2">  1       22 0.40050515E+00 0.51291541E+02</pdfrwt>
<totfact> 0.12331145E-01</totfact>
</mgrwt>
</event>
<event>
 4    1  0.2516086E+000  0.5196716E+02  0.7957747E-01  0.1435011E+00
         13   -1    0    0    0    0  0.00000000000E+00  0.00000000000E+00  0.99999944185E+02  0.10000000000E+03  0.10566000000E+00 0.  1.
         22   -1    0    0    0    0 -0.00000000000E+00 -0.00000000000E+00 -0.10946907077E+02  0.10946907077E+02  0.00000000000E+00 0.  1.
         13    1    1    2    0    0 -0.14017045480E+02 -0.20267434080E+01  0.17484195191E+02  0.22500966609E+02  0.10566000000E+00 0. -1.
        996    1    1    2    0    0  0.14017045480E+02  0.20267434080E+01  0.71568841917E+02  0.88445940473E+02  0.50000000000E+02 0.  0.
<mgrwt>
<rscale>  0 0.51967156E+02</rscale>
<asrwt>0</asrwt>
<pdfrwt beam="1">  1       13 0.10000000E+01 0.51967156E+02</pdfrwt>
<pdfrwt beam="2">  1       22 0.10946932E+00 0.51967156E+02</pdfrwt>
<totfact> 0.12344804E+00</totfact>
</mgrwt>
</event>
<event>
 4    1  0.2516086E+000  0.5280197E+02  0.7957747E-01  0.1430789E+00
         13   -1    0    0    0    0  0.00000000000E+00  0.00000000000E+00  0.99999944185E+02  0.10000000000E+03  0.10566000000E+00 0. -1.
         22   -1    0    0    0    0 -0.00000000000E+00 -0.00000000000E+00 -0.20118522551E+02  0.20118522551E+02  0.00000000000E+00 0.  1.
         13    1    1    2    0    0 -0.14988715830E+02 -0.79615640292E+01 -0.70736202885E+01  0.18387369906E+02  0.10566000000E+00 0.  1.
        996    1    1    2    0    0  0.14988715830E+02  0.79615640292E+01  0.86955041922E+02  0.10173115265E+03  0.50000000000E+02 0.  0.
<mgrwt>
<rscale>  0 0.52801971E+02</rscale>
<asrwt>0</asrwt>
<pdfrwt beam="1">  1       13 0.10000000E+01 0.52801971E+02</pdfrwt>
<pdfrwt beam="2">  1       22 0.20118545E+00 0.52801971E+02</pdfrwt>
<totfact> 0.44874594E-01</totfact>
</mgrwt>
</event>
<event>
 4    1  0.2516086E+000  0.5750640E+02  0.7957747E-01  0.1408604E+00
         13   -1    0    0    0    0  0.00000000000E+00  0.00000000000E+00  0.99999944183E+02  0.10000000000E+03  0.10566000000E+00 0. -1.
         22   -1    0    0    0    0 -0.00000000000E+00 -0.00000000000E+00 -0.22303202449E+02  0.22303202449E+02  0.00000000000E+00 0.  1.
         13    1    1    2    0    0  0.75327934468E+01  0.27390555959E+02  0.37902350701E+01  0.28659423908E+02  0.10566000000E+00 0.  1.
        996    1    1    2    0    0 -0.75327934468E+01 -0.27390555959E+02  0.73906506663E+02  0.93643778544E+02  0.50000000000E+02 0.  0.
<mgrwt>
<rscale>  0 0.57506396E+02</rscale>
<asrwt>0</asrwt>
<pdfrwt beam="1">  1       13 0.10000000E+01 0.57506396E+02</pdfrwt>
<pdfrwt beam="2">  1       22 0.22303224E+00 0.57506396E+02</pdfrwt>
<totfact> 0.37163404E-01</totfact>
</mgrwt>
</event>
<event>
 4    1  0.2516086E+000  0.5246792E+02  0.7957747E-01  0.1432467E+00
         13   -1    0    0    0    0  0.00000000000E+00  0.00000000000E+00  0.99999944181E+02  0.10000000000E+03  0.10566000000E+00 0. -1.
         22   -1    0    0    0    0 -0.00000000000E+00 -0.00000000000E+00 -0.14825467575E+02  0.14825467575E+02  0.00000000000E+00 0.  1.
         13    1    1    2    0    0 -0.51644383692E+01 -0.15040307752E+02  0.13832443023E+01  0.15962669256E+02  0.10566000000E+00 0.  1.
        996    1    1    2    0    0  0.51644383692E+01  0.15040307752E+02  0.83791232304E+02  0.98862798321E+02  0.50000000000E+02 0.  0.
<mgrwt>
<rscale>  0 0.52467917E+02</rscale>
<asrwt>0</asrwt>
<pdfrwt beam="1">  1       13 0.10000000E+01 0.52467917E+02</pdfrwt>
<pdfrwt beam="2">  1       22 0.14825491E+00 0.52467917E+02</pdfrwt>
<totfact> 0.76844086E-01</totfact>
</mgrwt>
</event>
<event>
 4    1  0.2516086E+000  0.5126351E+02  0.7957747E-01  0.1438643E+00
         13   -1    0    0    0    0  0.00000000000E+00  0.00000000000E+00  0.99999944182E+02  0.10000000000E+03  0.10566000000E+00 0.  1.
         22   -1    0    0    0    0 -0.00000000000E+00 -0.00000000000E+00 -0.99379339813E+01  0.99379339813E+01  0.00000000000E+00 0.  1.
         13    1    1    2    0    0  0.89627418899E+01 -0.69004532405E+01  0.21913977155E+02  0.24661316994E+02  0.10566000000E+00 0. -1.
        996    1    1    2    0    0 -0.89627418899E+01  0.69004532405E+01  0.68148033045E+02  0.85276616989E+02  0.50000000000E+02 0.  0.
<mgrwt>
<rscale>  0 0.51263506E+02</rscale>
<asrwt>0</asrwt>
<pdfrwt beam="1">  1       13 0.10000000E+01 0.51263506E+02</pdfrwt>
<pdfrwt beam="2">  1       22 0.99379591E-01 0.51263506E+02</pdfrwt>
<totfact> 0.14200128E+00</totfact>
</mgrwt>
</event>
<event>
 4    1  0.2516086E+000  0.5105195E+02  0.7957747E-01  0.1439749E+00
         13   -1    0    0    0    0  0.00000000000E+00  0.00000000000E+00  0.99999944186E+02  0.10000000001E+03  0.10566000000E+00 0.  1.
         22   -1    0    0    0    0 -0.00000000000E+00 -0.00000000000E+00 -0.94357432740E+01  0.94357432740E+01  0.00000000000E+00 0.  1.
         13    1    1    2    0    0  0.81457657864E+01  0.63204750566E+01  0.17279284374E+02  0.20121797577E+02  0.10566000000E+00 0. -1.
        996    1    1    2    0    0 -0.81457657864E+01 -0.63204750566E+01  0.73284916537E+02  0.89313945703E+02  0.50000000000E+02 0.  0.
<mgrwt>
<rscale>  0 0.51051953E+02</rscale>
<asrwt>0</asrwt>
<pdfrwt beam="1">  1       13 0.10000000E+01 0.51051953E+02</pdfrwt>
<pdfrwt beam="2">  1       22 0.94357686E-01 0.51051953E+02</pdfrwt>
<totfact> 0.15289776E+00</totfact>
</mgrwt>
</event>
<event>
 4    1  0.2516086E+000  0.5132350E+02  0.7957747E-01  0.1438331E+00
         13   -1    0    0    0    0  0.00000000000E+00  0.00000000000E+00  0.99999944175E+02  0.99999999996E+02  0.10566000000E+00 0.  1.
         22   -1    0    0    0    0 -0.00000000000E+00 -0.00000000000E+00 -0.17632240552E+02  0.17632240552E+02  0.00000000000E+00 0.  1.
         13    1    1    2    0    0  0.11575538931E+02  0.32984904318E+00 -0.77428257543E+01  0.13930700508E+02  0.10566000000E+00 0. -1.
        996    1    1    2    0    0 -0.11575538931E+02 -0.32984904318E+00  0.90110529378E+02  0.10370154004E+03  0.50000000000E+02 0.  0.
<mgrwt>
<rscale>  0 0.51323502E+02</rscale>
<asrwt>0</asrwt>
<pdfrwt beam="1">  1       13 0.10000000E+01 0.51323502E+02</pdfrwt>
<pdfrwt beam="2">  1       22 0.17632264E+00 0.51323502E+02</pdfrwt>
<totfact> 0.56929221E-01</totfact>
</mgrwt>
</event>
<event>
 4    1  0.2516086E+000  0.5304938E+02  0.7957747E-01  0.1429555E+00
         13   -1    0    0    0    0  0.00000000000E+00  0.00000000000E+00  0.99999944181E+02  0.10000000000E+03  0.10566000000E+00 0.  1.
         22   -1    0    0    0    0 -0.00000000000E+00 -0.00000000000E+00 -0.23399634256E+02  0.23399634256E+02  0.00000000000E+00 0. -1.
         13    1    1    2    0    0 -0.16912285224E+02 -0.53114170604E+01 -0.11090916441E+02  0.20910670344E+02  0.10566000000E+00 0. -1.
        996    1    1    2    0    0  0.16912285224E+02  0.53114170604E+01  0.87691226365E+02  0.10248896391E+03  0.50000000000E+02 0.  0.
<mgrwt>
<rscale>  0 0.53049378E+02</rscale>
<asrwt>0</asrwt>
<pdfrwt beam="1">  1       13 0.10000000E+01 0.53049378E+02</pdfrwt>
<pdfrwt beam="2">  1       22 0.23399656E+00 0.53049378E+02</pdfrwt>
<totfact> 0.33618548E-01</totfact>
</mgrwt>
</event>
<event>
 4    1  0.2516086E+000  0.5160442E+02  0.7957747E-01  0.1436875E+00
         13   -1    0    0    0    0  0.00000000000E+00  0.00000000000E+00  0.99999944180E+02  0.10000000000E+03  0.10566000000E+00 0. -1.
         22   -1    0    0    0    0 -0.00000000000E+00 -0.00000000000E+00 -0.10477631616E+02  0.10477631616E+02  0.00000000000E+00 0.  1.
         13    1    1    2    0    0 -0.12294855862E+02 -0.34427800844E+01  0.22752355978E+02  0.26090172133E+02  0.10566000000E+00 0.  1.
        996    1    1    2    0    0  0.12294855862E+02  0.34427800844E+01  0.66769956586E+02  0.84387459482E+02  0.50000000000E+02 0.  0.
<mgrwt>
<rscale>  0 0.51604421E+02</rscale>
<asrwt>0</asrwt>
<pdfrwt beam="1">  1       13 0.10000000E+01 0.51604421E+02</pdfrwt>
<pdfrwt beam="2">  1       22 0.10477657E+00 0.51604421E+02</pdfrwt>
<totfact> 0.13158461E+00</totfact>
</mgrwt>
</event>
<event>
 4    1  0.2516086E+000  0.5225787E+02  0.7957747E-01  0.1433530E+00
         13   -1    0    0    0    0  0.00000000000E+00  0.00000000000E+00  0.99999944179E+02  0.10000000000E+03  0.10566000000E+00 0.  1.
         22   -1    0    0    0    0 -0.00000000000E+00 -0.00000000000E+00 -0.15933534226E+02  0.15933534226E+02  0.00000000000E+00 0. -1.
         13    1    1    2    0    0 -0.15077784676E+02  0.18828595107E+01 -0.19165745662E+01  0.15315651235E+02  0.10566000000E+00 0. -1.
        996    1    1    2    0    0  0.15077784676E+02 -0.18828595107E+01  0.85982984519E+02  0.10061788299E+03  0.50000000000E+02 0.  0.
<mgrwt>
<rscale>  0 0.52257868E+02</rscale>
<asrwt>0</asrwt>
<pdfrwt beam="1">  1       13 0.10000000E+01 0.52257868E+02</pdfrwt>
<pdfrwt beam="2">  1       22 0.15933558E+00 0.52257868E+02</pdfrwt>
<totfact> 0.68041474E-01</totfact>
</mgrwt>
</event>
<event>
 4    1  0.2516086E+000  0.5160346E+02  0.7957747E-01  0.1436880E+00
         13   -1    0    0    0    0  0.00000000000E+00  0.00000000000E+00  0.99999944181E+02  0.10000000000E+03  0.10566000000E+00 0.  1.
         22   -1    0    0    0    0 -0.00000000000E+00 -0.00000000000E+00 -0.10833251186E+02  0.10833251186E+02  0.00000000000E+00 0.  1.
         13    1    1    2    0    0  0.11498152401E+02  0.55416428405E+01  0.28233534727E+02  0.30984850511E+02  0.10566000000E+00 0. -1.
        996    1    1    2    0    0 -0.11498152401E+02 -0.55416428405E+01  0.60933158268E+02  0.79848400676E+02  0.50000000000E+02 0.  0.
<mgrwt>
<rscale>  0 0.51603462E+02</rscale>
<asrwt>0</asrwt>
<pdfrwt beam="1">  1       13 0.10000000E+01 0.51603462E+02</pdfrwt>
<pdfrwt beam="2">  1       22 0.10833276E+00 0.51603462E+02</pdfrwt>
<totfact> 0.12526788E+00</totfact>
</mgrwt>
</event>
<event>
 4    1  0.2516086E+000  0.5369077E+02  0.7957747E-01  0.1426394E+00
         13   -1    0    0    0    0  0.00000000000E+00  0.00000000000E+00  0.99999944168E+02  0.99999999988E+02  0.10566000000E+00 0. -1.
         22   -1    0    0    0    0 -0.00000000000E+00 -0.00000000000E+00 -0.76347205732E+02  0.76347205732E+02  0.00000000000E+00 0.  1.
         13    1    1    2    0    0 -0.22271045157E+00 -0.19561417349E+02 -0.67653364969E+02  0.70425049551E+02  0.10566000000E+00 0.  1.
        996    1    1    2    0    0  0.22271045157E+00  0.19561417349E+02  0.91306103405E+02  0.10592215617E+03  0.50000000000E+02 0.  0.
<mgrwt>
<rscale>  0 0.53690769E+02</rscale>
<asrwt>0</asrwt>
<pdfrwt beam="1">  1       13 0.10000000E+01 0.53690769E+02</pdfrwt>
<pdfrwt beam="2">  1       22 0.76347212E+00 0.53690769E+02</pdfrwt>
<totfact> 0.43270114E-02</totfact>
</mgrwt>
</event>
<event>
 4    1  0.2516086E+000  0.5105250E+02  0.7957747E-01  0.1439746E+00
         13   -1    0    0    0    0  0.00000000000E+00  0.00000000000E+00  0.99999944179E+02  0.99999999999E+02  0.10566000000E+00 0. -1.
         22   -1    0    0    0    0 -0.00000000000E+00 -0.00000000000E+00 -0.99882317473E+01  0.99882317473E+01  0.00000000000E+00 0. -1.
         13    1    1    2    0    0 -0.31350622220E+01 -0.98249500044E+01  0.67663568885E+01  0.12335031711E+02  0.10566000000E+00 0.  1.
        996    1    1    2    0    0  0.31350622220E+01  0.98249500044E+01  0.83245355543E+02  0.97653200036E+02  0.50000000000E+02 0.  0.
<mgrwt>
<rscale>  0 0.51052505E+02</rscale>
<asrwt>0</asrwt>
<pdfrwt beam="1">  1       13 0.10000000E+01 0.51052505E+02</pdfrwt>
<pdfrwt beam="2">  1       22 0.99882569E-01 0.51052505E+02</pdfrwt>
<totfact> 0.14089543E+00</totfact>
</mgrwt>
</event>
<event>
 4    1  0.2516086E+000  0.5844668E+02  0.7957747E-01  0.1404468E+00
         13   -1    0    0    0    0  0.00000000000E+00  0.00000000000E+00  0.99999944181E+02  0.10000000000E+03  0.10566000000E+00 0. -1.
         22   -1    0    0    0    0 -0.00000000000E+00 -0.00000000000E+00 -0.53956416824E+02  0.53956416824E+02  0.00000000000E+00 0.  1.
         13    1    1    2    0    0  0.24630936568E+02  0.17587815190E+02 -0.39864269095E+02  0.50051827078E+02  0.10566000000E+00 0.  1.
        996    1    1    2    0    0 -0.24630936568E+02 -0.17587815190E+02  0.85907796452E+02  0.10390458975E+03  0.50000000000E+02 0.  0.
<mgrwt>
<rscale>  0 0.58446679E+02</rscale>
<asrwt>0</asrwt>
<pdfrwt beam="1">  1       13 0.10000000E+01 0.58446679E+02</pdfrwt>
<pdfrwt beam="2">  1       22 0.53956430E+00 0.58446679E+02</pdfrwt>
<totfact> 0.60825916E-02</totfact>
</mgrwt>
</event>
<event>
 4    1  0.2516086E+000  0.5398308E+02  0.7957747E-01  0.1424970E+00
         13   -1    0    0    0    0  0.00000000000E+00  0.00000000000E+00  0.99999944178E+02  0.99999999999E+02  0.10566000000E+00 0. -1.
         22   -1    0    0    0    0 -0.00000000000E+00 -0.00000000000E+00 -0.47005389359E+02  0.47005389359E+02  0.00000000000E+00 0.  1.
         13    1    1    2    0    0  0.20149980045E+02  0.28550522777E+01 -0.36904153581E+02  0.42143810161E+02  0.10566000000E+00 0.  1.
        996    1    1    2    0    0 -0.20149980045E+02 -0.28550522777E+01  0.89898708401E+02  0.10486157920E+03  0.50000000000E+02 0.  0.
<mgrwt>
<rscale>  0 0.53983081E+02</rscale>
<asrwt>0</asrwt>
<pdfrwt beam="1">  1       13 0.10000000E+01 0.53983081E+02</pdfrwt>
<pdfrwt beam="2">  1       22 0.47005404E+00 0.53983081E+02</pdfrwt>
<totfact> 0.86943694E-02</totfact>
</mgrwt>
</event>
<event>
 4    1  0.2516086E+000  0.5186954E+02  0.7957747E-01  0.1435511E+00
         13   -1    0    0    0    0  0.00000000000E+00  0.00000000000E+00  0.99999944172E+02  0.99999999992E+02  0.10566000000E+00 0.  1.
         22   -1    0    0    0    0 -0.00000000000E+00 -0.00000000000E+00 -0.15617005675E+02  0.15617005675E+02  0.00000000000E+00 0.  1.
         13    1    1    2    0    0 -0.62660338219E+01 -0.12295772833E+02 -0.28838440629E+01  0.14098827257E+02  0.10566000000E+00 0. -1.
        996    1    1    2    0    0  0.62660338219E+01  0.12295772833E+02  0.87266782560E+02  0.10151817841E+03  0.50000000000E+02 0.  0.
<mgrwt>
<rscale>  0 0.51869540E+02</rscale>
<asrwt>0</asrwt>
<pdfrwt beam="1">  1       13 0.10000000E+01 0.51869540E+02</pdfrwt>
<pdfrwt beam="2">  1       22 0.15617029E+00 0.51869540E+02</pdfrwt>
<totfact> 0.70347573E-01</totfact>
</mgrwt>
</event>
<event>
 4    1  0.2516086E+000  0.5257908E+02  0.7957747E-01  0.1431907E+00
         13   -1    0    0    0    0  0.00000000000E+00  0.00000000000E+00  0.99999944176E+02  0.99999999996E+02  0.10566000000E+00 0.  1.
         22   -1    0    0    0    0 -0.00000000000E+00 -0.00000000000E+00 -0.32428092040E+02  0.32428092040E+02  0.00000000000E+00 0. -1.
         13    1    1    2    0    0  0.92686428660E+01  0.13366064956E+02 -0.22720326547E+02  0.27942509469E+02  0.10566000000E+00 0. -1.
        996    1    1    2    0    0 -0.92686428660E+01 -0.13366064956E+02  0.90292178684E+02  0.10448558257E+03  0.50000000000E+02 0.  0.
<mgrwt>
<rscale>  0 0.52579078E+02</rscale>
<asrwt>0</asrwt>
<pdfrwt beam="1">  1       13 0.10000000E+01 0.52579078E+02</pdfrwt>
<pdfrwt beam="2">  1       22 0.32428111E+00 0.52579078E+02</pdfrwt>
<totfact> 0.17978962E-01</totfact>
</mgrwt>
</event>
<event>
 4    1  0.2516086E+000  0.5448818E+02  0.7957747E-01  0.1422535E+00
         13   -1    0    0    0    0  0.00000000000E+00  0.00000000000E+00  0.99999944178E+02  0.99999999998E+02  0.10566000000E+00 0. -1.
         22   -1    0    0    0    0 -0.00000000000E+00 -0.00000000000E+00 -0.16284959504E+02  0.16284959504E+02  0.00000000000E+00 0.  1.
         13    1    1    2    0    0  0.17843879165E+02  0.12270204966E+02  0.81826560461E+01  0.23150139904E+02  0.10566000000E+00 0.  1.
        996    1    1    2    0    0 -0.17843879165E+02 -0.12270204966E+02  0.75532328628E+02  0.93134819598E+02  0.50000000000E+02 0.  0.
<mgrwt>
<rscale>  0 0.54488182E+02</rscale>
<asrwt>0</asrwt>
<pdfrwt beam="1">  1       13 0.10000000E+01 0.54488182E+02</pdfrwt>
<pdfrwt beam="2">  1       22 0.16284983E+00 0.54488182E+02</pdfrwt>
<totfact> 0.65824683E-01</totfact>
</mgrwt>
</event>
<event>
 4    1  0.2516086E+000  0.5227855E+02  0.7957747E-01  0.1433425E+00
         13   -1    0    0    0    0  0.00000000000E+00  0.00000000000E+00  0.99999944178E+02  0.99999999999E+02  0.10566000000E+00 0. -1.
         22   -1    0    0    0    0 -0.00000000000E+00 -0.00000000000E+00 -0.14754686108E+02  0.14754686108E+02  0.00000000000E+00 0.  1.
         13    1    1    2    0    0  0.75467396017E+00  0.15247189305E+02  0.61398142961E+00  0.15278561834E+02  0.10566000000E+00 0.  1.
        996    1    1    2    0    0 -0.75467396017E+00 -0.15247189305E+02  0.84631276641E+02  0.99476124273E+02  0.50000000000E+02 0.  0.
<mgrwt>
<rscale>  0 0.52278545E+02</rscale>
<asrwt>0</asrwt>
<pdfrwt beam="1">  1       13 0.10000000E+01 0.52278545E+02</pdfrwt>
<pdfrwt beam="2">  1       22 0.14754710E+00 0.52278545E+02</pdfrwt>
<totfact> 0.77425620E-01</totfact>
</mgrwt>
</event>
<event>
 4    1  0.2516086E+000  0.5356353E+02  0.7957747E-01  0.1427017E+00
         13   -1    0    0    0    0  0.00000000000E+00  0.00000000000E+00  0.99999944175E+02  0.99999999995E+02  0.10566000000E+00 0.  1.
         22   -1    0    0    0    0 -0.00000000000E+00 -0.00000000000E+00 -0.13243590646E+02  0.13243590646E+02  0.00000000000E+00 0.  1.
         13    1    1    2    0    0 -0.14950440841E+02  0.12063822872E+02  0.23693032730E+02  0.30502827207E+02  0.10566000000E+00 0. -1.
        996    1    1    2    0    0  0.14950440841E+02 -0.12063822872E+02  0.63063320798E+02  0.82740763434E+02  0.50000000000E+02 0.  0.
<mgrwt>
<rscale>  0 0.53563528E+02</rscale>
<asrwt>0</asrwt>
<pdfrwt beam="1">  1       13 0.10000000E+01 0.53563528E+02</pdfrwt>
<pdfrwt beam="2">  1       22 0.13243615E+00 0.53563528E+02</pdfrwt>
<totfact> 0.92486514E-01</totfact>
</mgrwt>
</event>
<event>
 4    1  0.2516086E+000  0.5850994E+02  0.7957747E-01  0.1404193E+00
         13   -1    0    0    0    0  0.00000000000E+00  0.00000000000E+00  0.99999944169E+02  0.99999999989E+02  0.10566000000E+00 0.  1.
         22   -1    0    0    0    0 -0.00000000000E+00 -0.00000000000E+00 -0.20015795587E+02  0.20015795587E+02  0.00000000000E+00 0. -1.
         13    1    1    2    0    0  0.64940787390E+01 -0.29685677533E+02  0.33981678832E+02  0.45587039490E+02  0.10566000000E+00 0. -1.
        996    1    1    2    0    0 -0.64940787390E+01  0.29685677533E+02  0.46002469750E+02  0.74428756085E+02  0.50000000000E+02 0.  0.
<mgrwt>
<rscale>  0 0.58509935E+02</rscale>
<asrwt>0</asrwt>
<pdfrwt beam="1">  1       13 0.10000000E+01 0.58509935E+02</pdfrwt>
<pdfrwt beam="2">  1       22 0.20015818E+00 0.58509935E+02</pdfrwt>
<totfact> 0.45739521E-01</totfact>
</mgrwt>
</event>
<event>
 4    1  0.2516086E+000  0.5235095E+02  0.7957747E-01  0.1433059E+00
         13   -1    0    0    0    0  0.00000000000E+00  0.00000000000E+00  0.99999944188E+02  0.10000000001E+03  0.10566000000E+00 0.  1.
         22   -1    0    0    0    0 -0.00000000000E+00 -0.00000000000E+00 -0.42807771746E+02  0.42807771746E+02  0.00000000000E+00 0. -1.
         13    1    1    2    0    0  0.15438509656E+02 -0.15079609919E+01 -0.34160718911E+02  0.37517827860E+02  0.10566000000E+00 0. -1.
        996    1    1    2    0    0 -0.15438509656E+02  0.15079609919E+01  0.91352891354E+02  0.10528994389E+03  0.50000000000E+02 0.  0.
<mgrwt>
<rscale>  0 0.52350946E+02</rscale>
<asrwt>0</asrwt>
<pdfrwt beam="1">  1       13 0.10000000E+01 0.52350946E+02</pdfrwt>
<pdfrwt beam="2">  1       22 0.42807788E+00 0.52350946E+02</pdfrwt>
<totfact> 0.10800971E-01</totfact>
</mgrwt>
</event>
<event>
 4    1  0.2516086E+000  0.5244108E+02  0.7957747E-01  0.1432603E+00
         13   -1    0    0    0    0  0.00000000000E+00  0.00000000000E+00  0.99999944174E+02  0.99999999995E+02  0.10566000000E+00 0.  1.
         22   -1    0    0    0    0 -0.00000000000E+00 -0.00000000000E+00 -0.13240542690E+02  0.13240542690E+02  0.00000000000E+00 0.  1.
         13    1    1    2    0    0 -0.58274809845E+01  0.14700596730E+02  0.59285847160E+01  0.16888645879E+02  0.10566000000E+00 0. -1.
        996    1    1    2    0    0  0.58274809845E+01 -0.14700596730E+02  0.80830816768E+02  0.96351896806E+02  0.50000000000E+02 0.  0.
<mgrwt>
<rscale>  0 0.52441082E+02</rscale>
<asrwt>0</asrwt>
<pdfrwt beam="1">  1       13 0.10000000E+01 0.52441082E+02</pdfrwt>
<pdfrwt beam="2">  1       22 0.13240567E+00 0.52441082E+02</pdfrwt>
<totfact> 0.92301889E-01</totfact>
</mgrwt>
</event>
<event>
 4    1  0.2516086E+000  0.6250660E+02  0.7957747E-01  0.1387604E+00
         13   -1    0    0    0    0  0.00000000000E+00  0.00000000000E+00  0.99999944187E+02  0.10000000001E+03  0.10566000000E+00 0. -1.
         22   -1    0    0    0    0 -0.00000000000E+00 -0.00000000000E+00 -0.25179011586E+02  0.25179011586E+02  0.00000000000E+00 0.  1.
         13    1    1    2    0    0 -0.25984820175E+02 -0.27052994985E+02  0.33107457594E+02  0.50031893123E+02  0.10566000000E+00 0.  1.
        996    1    1    2    0    0  0.25984820175E+02  0.27052994985E+02  0.41713475007E+02  0.75147118470E+02  0.50000000000E+02 0.  0.
<mgrwt>
<rscale>  0 0.62506603E+02</rscale>
<asrwt>0</asrwt>
<pdfrwt beam="1">  1       13 0.10000000E+01 0.62506603E+02</pdfrwt>
<pdfrwt beam="2">  1       22 0.25179032E+00 0.62506603E+02</pdfrwt>
<totfact> 0.29502973E-01</totfact>
</mgrwt>
</event>
<event>
 4    1  0.2516086E+000  0.5158791E+02  0.7957747E-01  0.1436960E+00
         13   -1    0    0    0    0  0.00000000000E+00  0.00000000000E+00  0.99999944177E+02  0.99999999998E+02  0.10566000000E+00 0. -1.
         22   -1    0    0    0    0 -0.00000000000E+00 -0.00000000000E+00 -0.13021313650E+02  0.13021313650E+02  0.00000000000E+00 0.  1.
         13    1    1    2    0    0  0.83615089031E+00 -0.12673330034E+02  0.98350911594E+00  0.12739344436E+02  0.10566000000E+00 0.  1.
        996    1    1    2    0    0 -0.83615089031E+00  0.12673330034E+02  0.85995121411E+02  0.10028196921E+03  0.50000000000E+02 0.  0.
<mgrwt>
<rscale>  0 0.51587910E+02</rscale>
<asrwt>0</asrwt>
<pdfrwt beam="1">  1       13 0.10000000E+01 0.51587910E+02</pdfrwt>
<pdfrwt beam="2">  1       22 0.13021338E+00 0.51587910E+02</pdfrwt>
<totfact> 0.94596950E-01</totfact>
</mgrwt>
</event>
<event>
 4    1  0.2516086E+000  0.5130182E+02  0.7957747E-01  0.1438444E+00
         13   -1    0    0    0    0  0.00000000000E+00  0.00000000000E+00  0.99999944177E+02  0.99999999997E+02  0.10566000000E+00 0.  1.
         22   -1    0    0    0    0 -0.00000000000E+00 -0.00000000000E+00 -0.10843198275E+02  0.10843198275E+02  0.00000000000E+00 0.  1.
         13    1    1    2    0    0  0.51129168431E+01  0.10282728656E+02  0.32209110828E+02  0.34195239605E+02  0.10566000000E+00 0. -1.
        996    1    1    2    0    0 -0.51129168431E+01 -0.10282728656E+02  0.56947635074E+02  0.76647958666E+02  0.50000000000E+02 0.  0.
<mgrwt>
<rscale>  0 0.51301817E+02</rscale>
<asrwt>0</asrwt>
<pdfrwt beam="1">  1       13 0.10000000E+01 0.51301817E+02</pdfrwt>
<pdfrwt beam="2">  1       22 0.10843223E+00 0.51301817E+02</pdfrwt>
<totfact> 0.12500911E+00</totfact>
</mgrwt>
</event>
<event>
 4    1  0.2516086E+000  0.5212660E+02  0.7957747E-01  0.1434198E+00
         13   -1    0    0    0    0  0.00000000000E+00  0.00000000000E+00  0.99999944178E+02  0.99999999998E+02  0.10566000000E+00 0. -1.
         22   -1    0    0    0    0 -0.00000000000E+00 -0.00000000000E+00 -0.11181208714E+02  0.11181208714E+02  0.00000000000E+00 0. -1.
         13    1    1    2    0    0  0.50643820580E+01  0.13839591511E+02  0.20481279575E+02  0.25232444113E+02  0.10566000000E+00 0.  1.
        996    1    1    2    0    0 -0.50643820580E+01 -0.13839591511E+02  0.68337455889E+02  0.85948764600E+02  0.50000000000E+02 0.  0.
<mgrwt>
<rscale>  0 0.52126598E+02</rscale>
<asrwt>0</asrwt>
<pdfrwt beam="1">  1       13 0.10000000E+01 0.52126598E+02</pdfrwt>
<pdfrwt beam="2">  1       22 0.11181234E+00 0.52126598E+02</pdfrwt>
<totfact> 0.11965596E+00</totfact>
</mgrwt>
</event>
<event>
 4    1  0.2516086E+000  0.5346601E+02  0.7957747E-01  0.1427496E+00
         13   -1    0    0    0    0  0.00000000000E+00  0.00000000000E+00  0.99999944179E+02  0.99999999999E+02  0.10566000000E+00 0.  1.
         22   -1    0    0    0    0 -0.00000000000E+00 -0.00000000000E+00 -0.13679291982E+02  0.13679291982E+02  0.00000000000E+00 0.  1.
         13    1    1    2    0    0 -0.18244112062E+02 -0.50760930177E+01  0.33734791410E+02  0.38686711682E+02  0.10566000000E+00 0. -1.
        996    1    1    2    0    0  0.18244112062E+02  0.50760930177E+01  0.52585860787E+02  0.74992580299E+02  0.50000000000E+02 0.  0.
<mgrwt>
<rscale>  0 0.53466011E+02</rscale>
<asrwt>0</asrwt>
<pdfrwt beam="1">  1       13 0.10000000E+01 0.53466011E+02</pdfrwt>
<pdfrwt beam="2">  1       22 0.13679316E+00 0.53466011E+02</pdfrwt>
<totfact> 0.87808966E-01</totfact>
</mgrwt>
</event>
<event>
 4    1  0.2516086E+000  0.5406272E+02  0.7957747E-01  0.1424584E+00
         13   -1    0    0    0    0  0.00000000000E+00  0.00000000000E+00  0.99999944171E+02  0.99999999991E+02  0.10566000000E+00 0. -1.
         22   -1    0    0    0    0 -0.00000000000E+00 -0.00000000000E+00 -0.51558656862E+02  0.51558656862E+02  0.00000000000E+00 0.  1.
         13    1    1    2    0    0  0.20443827090E+02 -0.21971950647E+01 -0.41673916937E+02  0.46470466419E+02  0.10566000000E+00 0.  1.
        996    1    1    2    0    0 -0.20443827090E+02  0.21971950647E+01  0.90115204247E+02  0.10508819043E+03  0.50000000000E+02 0.  0.
<mgrwt>
<rscale>  0 0.54062720E+02</rscale>
<asrwt>0</asrwt>
<pdfrwt beam="1">  1       13 0.10000000E+01 0.54062720E+02</pdfrwt>
<pdfrwt beam="2">  1       22 0.51558670E+00 0.54062720E+02</pdfrwt>
<totfact> 0.67829679E-02</totfact>
</mgrwt>
</event>
<event>
 4    1  0.2516086E+000  0.6529976E+02  0.7957747E-01  0.1376847E+00
         13   -1    0    0    0    0  0.00000000000E+00  0.00000000000E+00  0.99999944177E+02  0.99999999997E+02  0.10566000000E+00 0.  1.
         22   -1    0    0    0    0 -0.00000000000E+00 -0.00000000000E+00 -0.28866409335E+02  0.28866409335E+02  0.00000000000E+00 0. -1.
         13    1    1    2    0    0 -0.19013562191E+02 -0.37450544752E+02  0.31236583662E+02  0.52343043208E+02  0.10566000000E+00 0. -1.
        996    1    1    2    0    0  0.19013562191E+02  0.37450544752E+02  0.39896951181E+02  0.76523366124E+02  0.50000000000E+02 0.  0.
<mgrwt>
<rscale>  0 0.65299761E+02</rscale>
<asrwt>0</asrwt>
<pdfrwt beam="1">  1       13 0.10000000E+01 0.65299761E+02</pdfrwt>
<pdfrwt beam="2">  1       22 0.28866429E+00 0.65299761E+02</pdfrwt>
<totfact> 0.22630963E-01</totfact>
</mgrwt>
</event>
<event>
 4    1  0.2516086E+000  0.5428110E+02  0.7957747E-01  0.1423530E+00
         13   -1    0    0    0    0  0.00000000000E+00  0.00000000000E+00  0.99999944179E+02  0.10000000000E+03  0.10566000000E+00 0. -1.
         22   -1    0    0    0    0 -0.00000000000E+00 -0.00000000000E+00 -0.40347170144E+02  0.40347170144E+02  0.00000000000E+00 0.  1.
         13    1    1    2    0    0  0.84230200778E+01  0.19377571026E+02 -0.29309940315E+02  0.36131998165E+02  0.10566000000E+00 0.  1.
        996    1    1    2    0    0 -0.84230200778E+01 -0.19377571026E+02  0.88962714350E+02  0.10421517198E+03  0.50000000000E+02 0.  0.
<mgrwt>
<rscale>  0 0.54281097E+02</rscale>
<asrwt>0</asrwt>
<pdfrwt beam="1">  1       13 0.10000000E+01 0.54281097E+02</pdfrwt>
<pdfrwt beam="2">  1       22 0.40347187E+00 0.54281097E+02</pdfrwt>
<totfact> 0.12186260E-01</totfact>
</mgrwt>
</event>
<event>
 4    1  0.2516086E+000  0.5120359E+02  0.7957747E-01  0.1438956E+00
         13   -1    0    0    0    0  0.00000000000E+00  0.00000000000E+00  0.99999944187E+02  0.10000000001E+03  0.10566000000E+00 0.  1.
         22   -1    0    0    0    0 -0.00000000000E+00 -0.00000000000E+00 -0.25502201807E+02  0.25502201807E+02  0.00000000000E+00 0.  1.
         13    1    1    2    0    0 -0.91581236862E+01  0.61592615773E+01 -0.17223522821E+02  0.20456505934E+02  0.10566000000E+00 0. -1.
        996    1    1    2    0    0  0.91581236862E+01 -0.61592615773E+01  0.91721265202E+02  0.10504569588E+03  0.50000000000E+02 0.  0.
<mgrwt>
<rscale>  0 0.51203591E+02</rscale>
<asrwt>0</asrwt>
<pdfrwt beam="1">  1       13 0.10000000E+01 0.51203591E+02</pdfrwt>
<pdfrwt beam="2">  1       22 0.25502223E+00 0.51203591E+02</pdfrwt>
<totfact> 0.28312680E-01</totfact>
</mgrwt>
</event>
<event>
 4    1  0.2516086E+000  0.5280683E+02  0.7957747E-01  0.1430765E+00
         13   -1    0    0    0    0  0.00000000000E+00  0.00000000000E+00  0.99999944179E+02  0.10000000000E+03  0.10566000000E+00 0.  1.
         22   -1    0    0    0    0 -0.00000000000E+00 -0.00000000000E+00 -0.14777480234E+02  0.14777480234E+02  0.00000000000E+00 0. -1.
         13    1    1    2    0    0  0.16894333880E+02 -0.17729072679E+01  0.32918451636E+01  0.17303442607E+02  0.10566000000E+00 0. -1.
        996    1    1    2    0    0 -0.16894333880E+02  0.17729072679E+01  0.81930618781E+02  0.97474037627E+02  0.50000000000E+02 0.  0.
<mgrwt>
<rscale>  0 0.52806834E+02</rscale>
<asrwt>0</asrwt>
<pdfrwt beam="1">  1       13 0.10000000E+01 0.52806834E+02</pdfrwt>
<pdfrwt beam="2">  1       22 0.14777504E+00 0.52806834E+02</pdfrwt>
<totfact> 0.77311092E-01</totfact>
</mgrwt>
</event>
<event>
 4    1  0.2516086E+000  0.5176448E+02  0.7957747E-01  0.1436050E+00
         13   -1    0    0    0    0  0.00000000000E+00  0.00000000000E+00  0.99999944183E+02  0.10000000000E+03  0.10566000000E+00 0. -1.
         22   -1    0    0    0    0 -0.00000000000E+00 -0.00000000000E+00 -0.17196947147E+02  0.17196947147E+02  0.00000000000E+00 0.  1.
         13    1    1    2    0    0 -0.11202848232E+02 -0.73523805427E+01 -0.57834200696E+01  0.14595219077E+02  0.10566000000E+00 0.  1.
        996    1    1    2    0    0  0.11202848232E+02  0.73523805427E+01  0.88586417105E+02  0.10260172807E+03  0.50000000000E+02 0.  0.
<mgrwt>
<rscale>  0 0.51764479E+02</rscale>
<asrwt>0</asrwt>
<pdfrwt beam="1">  1       13 0.10000000E+01 0.51764479E+02</pdfrwt>
<pdfrwt beam="2">  1       22 0.17196970E+00 0.51764479E+02</pdfrwt>
<totfact> 0.59553754E-01</totfact>
</mgrwt>
</event>
<event>
 4    1  0.2516086E+000  0.5199519E+02  0.7957747E-01  0.1434868E+00
         13   -1    0    0    0    0  0.00000000000E+00  0.00000000000E+00  0.99999944180E+02  0.10000000000E+03  0.10566000000E+00 0.  1.
         22   -1    0    0    0    0 -0.00000000000E+00 -0.00000000000E+00 -0.10982226424E+02  0.10982226424E+02  0.00000000000E+00 0.  1.
         13    1    1    2    0    0 -0.14111851864E+02 -0.20868870301E+01  0.20243884848E+02  0.24765409310E+02  0.10566000000E+00 0. -1.
        996    1    1    2    0    0  0.14111851864E+02  0.20868870301E+01  0.68773832908E+02  0.86216817114E+02  0.50000000000E+02 0.  0.
<mgrwt>
<rscale>  0 0.51995187E+02</rscale>
<asrwt>0</asrwt>
<pdfrwt beam="1">  1       13 0.10000000E+01 0.51995187E+02</pdfrwt>
<pdfrwt beam="2">  1       22 0.10982251E+00 0.51995187E+02</pdfrwt>
<totfact> 0.12286630E+00</totfact>
</mgrwt>
</event>
<event>
 4    1  0.2516086E+000  0.5441330E+02  0.7957747E-01  0.1422894E+00
         13   -1    0    0    0    0  0.00000000000E+00  0.00000000000E+00  0.99999944176E+02  0.99999999997E+02  0.10566000000E+00 0.  1.
         22   -1    0    0    0    0 -0.00000000000E+00 -0.00000000000E+00 -0.19125461632E+02  0.19125461632E+02  0.00000000000E+00 0. -1.
         13    1    1    2    0    0 -0.12774228450E+02 -0.17251841753E+02 -0.21936925027E+00  0.21467795492E+02  0.10566000000E+00 0. -1.
        996    1    1    2    0    0  0.12774228450E+02  0.17251841753E+02  0.81093851795E+02  0.97657666137E+02  0.50000000000E+02 0.  0.
<mgrwt>
<rscale>  0 0.54413298E+02</rscale>
<asrwt>0</asrwt>
<pdfrwt beam="1">  1       13 0.10000000E+01 0.54413298E+02</pdfrwt>
<pdfrwt beam="2">  1       22 0.19125484E+00 0.54413298E+02</pdfrwt>
<totfact> 0.49429213E-01</totfact>
</mgrwt>
</event>
<event>
 4    1  0.2516086E+000  0.5248687E+02  0.7957747E-01  0.1432372E+00
         13   -1    0    0    0    0  0.00000000000E+00  0.00000000000E+00  0.99999944176E+02  0.99999999996E+02  0.10566000000E+00 0.  1.
         22   -1    0    0    0    0 -0.00000000000E+00 -0.00000000000E+00 -0.28739073863E+02  0.28739073863E+02  0.00000000000E+00 0. -1.
         13    1    1    2    0    0  0.94681367508E+01  0.12854029035E+02 -0.18698827238E+02  0.24587171047E+02  0.10566000000E+00 0. -1.
        996    1    1    2    0    0 -0.94681367508E+01 -0.12854029035E+02  0.89959697551E+02  0.10415190281E+03  0.50000000000E+02 0.  0.
<mgrwt>
<rscale>  0 0.52486871E+02</rscale>
<asrwt>0</asrwt>
<pdfrwt beam="1">  1       13 0.10000000E+01 0.52486871E+02</pdfrwt>
<pdfrwt beam="2">  1       22 0.28739094E+00 0.52486871E+02</pdfrwt>
<totfact> 0.22471059E-01</totfact>
</mgrwt>
</event>
<event>
 4    1  0.2516086E+000  0.5173619E+02  0.7957747E-01  0.1436196E+00
         13   -1    0    0    0    0  0.00000000000E+00  0.00000000000E+00  0.99999944175E+02  0.99999999995E+02  0.10566000000E+00 0. -1.
         22   -1    0    0    0    0 -0.00000000000E+00 -0.00000000000E+00 -0.10582152497E+02  0.10582152497E+02  0.00000000000E+00 0. -1.
         13    1    1    2    0    0 -0.26517482973E+01 -0.13023131724E+02  0.16871120509E+02  0.21477420706E+02  0.10566000000E+00 0.  1.
        996    1    1    2    0    0  0.26517482973E+01  0.13023131724E+02  0.72546671170E+02  0.89104731786E+02  0.50000000000E+02 0.  0.
<mgrwt>
<rscale>  0 0.51736194E+02</rscale>
<asrwt>0</asrwt>
<pdfrwt beam="1">  1       13 0.10000000E+01 0.51736194E+02</pdfrwt>
<pdfrwt beam="2">  1       22 0.10582177E+00 0.51736194E+02</pdfrwt>
<totfact> 0.12972025E+00</totfact>
</mgrwt>
</event>
<event>
 4    1  0.2516086E+000  0.5146082E+02  0.7957747E-01  0.1437618E+00
         13   -1    0    0    0    0  0.00000000000E+00  0.00000000000E+00  0.99999944172E+02  0.99999999992E+02  0.10566000000E+00 0. -1.
         22   -1    0    0    0    0 -0.00000000000E+00 -0.00000000000E+00 -0.20937753469E+02  0.20937753469E+02  0.00000000000E+00 0.  1.
         13    1    1    2    0    0 -0.10509105766E+02 -0.61460922444E+01 -0.11518176154E+02  0.16759931379E+02  0.10566000000E+00 0.  1.
        996    1    1    2    0    0  0.10509105766E+02  0.61460922444E+01  0.90580366857E+02  0.10417782208E+03  0.50000000000E+02 0.  0.
<mgrwt>
<rscale>  0 0.51460818E+02</rscale>
<asrwt>0</asrwt>
<pdfrwt beam="1">  1       13 0.10000000E+01 0.51460818E+02</pdfrwt>
<pdfrwt beam="2">  1       22 0.20937776E+00 0.51460818E+02</pdfrwt>
<totfact> 0.41528471E-01</totfact>
</mgrwt>
</event>
<event>
 4    1  0.2516086E+000  0.5156663E+02  0.7957747E-01  0.1437070E+00
         13   -1    0    0    0    0  0.00000000000E+00  0.00000000000E+00  0.99999944174E+02  0.99999999994E+02  0.10566000000E+00 0.  1.
         22   -1    0    0    0    0 -0.00000000000E+00 -0.00000000000E+00 -0.17198564168E+02  0.17198564168E+02  0.00000000000E+00 0. -1.
         13    1    1    2    0    0  0.85159466553E+01  0.93056768024E+01 -0.64146536001E+01  0.14151887260E+02  0.10566000000E+00 0. -1.
        996    1    1    2    0    0 -0.85159466553E+01 -0.93056768024E+01  0.89216033606E+02  0.10304667690E+03  0.50000000000E+02 0.  0.
<mgrwt>
<rscale>  0 0.51566626E+02</rscale>
<asrwt>0</asrwt>
<pdfrwt beam="1">  1       13 0.10000000E+01 0.51566626E+02</pdfrwt>
<pdfrwt beam="2">  1       22 0.17198587E+00 0.51566626E+02</pdfrwt>
<totfact> 0.59521051E-01</totfact>
</mgrwt>
</event>
<event>
 4    1  0.2516086E+000  0.6150205E+02  0.7957747E-01  0.1391634E+00
         13   -1    0    0    0    0  0.00000000000E+00  0.00000000000E+00  0.99999944178E+02  0.99999999998E+02  0.10566000000E+00 0. -1.
         22   -1    0    0    0    0 -0.00000000000E+00 -0.00000000000E+00 -0.26274674652E+02  0.26274674652E+02  0.00000000000E+00 0.  1.
         13    1    1    2    0    0 -0.47244458760E+01  0.35499033085E+02  0.88683559147E+01  0.36893910601E+02  0.10566000000E+00 0.  1.
        996    1    1    2    0    0  0.47244458760E+01 -0.35499033085E+02  0.64856913611E+02  0.89380764049E+02  0.50000000000E+02 0.  0.
<mgrwt>
<rscale>  0 0.61502047E+02</rscale>
<asrwt>0</asrwt>
<pdfrwt beam="1">  1       13 0.10000000E+01 0.61502047E+02</pdfrwt>
<pdfrwt beam="2">  1       22 0.26274695E+00 0.61502047E+02</pdfrwt>
<totfact> 0.27084292E-01</totfact>
</mgrwt>
</event>
<event>
 4    1  0.2516086E+000  0.5102513E+02  0.7957747E-01  0.1439889E+00
         13   -1    0    0    0    0  0.00000000000E+00  0.00000000000E+00  0.99999944177E+02  0.99999999997E+02  0.10566000000E+00 0. -1.
         22   -1    0    0    0    0 -0.00000000000E+00 -0.00000000000E+00 -0.31032472201E+02  0.31032472201E+02  0.00000000000E+00 0.  1.
         13    1    1    2    0    0  0.63352296537E+01 -0.79641965195E+01 -0.23395054427E+02  0.25512806522E+02  0.10566000000E+00 0.  1.
        996    1    1    2    0    0 -0.63352296537E+01  0.79641965195E+01  0.92362526402E+02  0.10551966568E+03  0.50000000000E+02 0.  0.
<mgrwt>
<rscale>  0 0.51025127E+02</rscale>
<asrwt>0</asrwt>
<pdfrwt beam="1">  1       13 0.10000000E+01 0.51025127E+02</pdfrwt>
<pdfrwt beam="2">  1       22 0.31032491E+00 0.51025127E+02</pdfrwt>
<totfact> 0.19424827E-01</totfact>
</mgrwt>
</event>
<event>
 4    1  0.2516086E+000  0.5128986E+02  0.7957747E-01  0.1438506E+00
         13   -1    0    0    0    0  0.00000000000E+00  0.00000000000E+00  0.99999944175E+02  0.99999999995E+02  0.10566000000E+00 0. -1.
         22   -1    0    0    0    0 -0.00000000000E+00 -0.00000000000E+00 -0.98666737984E+01  0.98666737984E+01  0.00000000000E+00 0. -1.
         13    1    1    2    0    0  0.11310840697E+02  0.16476840318E+01  0.18938558850E+02  0.22120808197E+02  0.10566000000E+00 0.  1.
        996    1    1    2    0    0 -0.11310840697E+02 -0.16476840318E+01  0.71194711526E+02  0.87745865596E+02  0.50000000000E+02 0.  0.
<mgrwt>
<rscale>  0 0.51289862E+02</rscale>
<asrwt>0</asrwt>
<pdfrwt beam="1">  1       13 0.10000000E+01 0.51289862E+02</pdfrwt>
<pdfrwt beam="2">  1       22 0.98666990E-01 0.51289862E+02</pdfrwt>
<totfact> 0.14349418E+00</totfact>
</mgrwt>
</event>
<event>
 4    1  0.2516086E+000  0.5244453E+02  0.7957747E-01  0.1432585E+00
         13   -1    0    0    0    0  0.00000000000E+00  0.00000000000E+00  0.99999944175E+02  0.99999999996E+02  0.10566000000E+00 0.  1.
         22   -1    0    0    0    0 -0.00000000000E+00 -0.00000000000E+00 -0.18160367170E+02  0.18160367170E+02  0.00000000000E+00 0. -1.
         13    1    1    2    0    0 -0.99038953543E+01 -0.12342655777E+02 -0.51006484354E+01  0.16626968254E+02  0.10566000000E+00 0. -1.
        996    1    1    2    0    0  0.99038953543E+01  0.12342655777E+02  0.86940225441E+02  0.10153339891E+03  0.50000000000E+02 0.  0.
<mgrwt>
<rscale>  0 0.52444526E+02</rscale>
<asrwt>0</asrwt>
<pdfrwt beam="1">  1       13 0.10000000E+01 0.52444526E+02</pdfrwt>
<pdfrwt beam="2">  1       22 0.18160390E+00 0.52444526E+02</pdfrwt>
<totfact> 0.54117142E-01</totfact>
</mgrwt>
</event>
<event>
 4    1  0.2516086E+000  0.5105468E+02  0.7957747E-01  0.1439735E+00
         13   -1    0    0    0    0  0.00000000000E+00  0.00000000000E+00  0.99999944185E+02  0.10000000001E+03  0.10566000000E+00 0. -1.
         22   -1    0    0    0    0 -0.00000000000E+00 -0.00000000000E+00 -0.21347071491E+02  0.21347071491E+02  0.00000000000E+00 0. -1.
         13    1    1    2    0    0  0.37263241214E+01  0.96278040337E+01 -0.12898932439E+02  0.16521916477E+02  0.10566000000E+00 0.  1.
        996    1    1    2    0    0 -0.37263241214E+01 -0.96278040337E+01  0.91551805132E+02  0.10482515502E+03  0.50000000000E+02 0.  0.
<mgrwt>
<rscale>  0 0.51054678E+02</rscale>
<asrwt>0</asrwt>
<pdfrwt beam="1">  1       13 0.10000000E+01 0.51054678E+02</pdfrwt>
<pdfrwt beam="2">  1       22 0.21347093E+00 0.51054678E+02</pdfrwt>
<totfact> 0.40000213E-01</totfact>
</mgrwt>
</event>
<event>
 4    1  0.2516086E+000  0.5270671E+02  0.7957747E-01  0.1431266E+00
         13   -1    0    0    0    0  0.00000000000E+00  0.00000000000E+00  0.99999944175E+02  0.99999999995E+02  0.10566000000E+00 0. -1.
         22   -1    0    0    0    0 -0.00000000000E+00 -0.00000000000E+00 -0.13232165550E+02  0.13232165550E+02  0.00000000000E+00 0. -1.
         13    1    1    2    0    0  0.58192195548E+01 -0.15624792401E+02  0.37692267603E+02  0.41215478342E+02  0.10566000000E+00 0.  1.
        996    1    1    2    0    0 -0.58192195548E+01  0.15624792401E+02  0.49075511021E+02  0.72016687204E+02  0.50000000000E+02 0.  0.
<mgrwt>
<rscale>  0 0.52706712E+02</rscale>
<asrwt>0</asrwt>
<pdfrwt beam="1">  1       13 0.10000000E+01 0.52706712E+02</pdfrwt>
<pdfrwt beam="2">  1       22 0.13232190E+00 0.52706712E+02</pdfrwt>
<totfact> 0.92446777E-01</totfact>
</mgrwt>
</event>
<event>
 4    1  0.2516086E+000  0.5116413E+02  0.7957747E-01  0.1439162E+00
         13   -1    0    0    0    0  0.00000000000E+00  0.00000000000E+00  0.99999944177E+02  0.99999999997E+02  0.10566000000E+00 0. -1.
         22   -1    0    0    0    0 -0.00000000000E+00 -0.00000000000E+00 -0.12032180531E+02  0.12032180531E+02  0.00000000000E+00 0.  1.
         13    1    1    2    0    0 -0.76579807422E+01  0.76891810281E+01  0.70427394010E+00  0.10875446646E+02  0.10566000000E+00 0.  1.
        996    1    1    2    0    0  0.76579807422E+01 -0.76891810281E+01  0.87263489706E+02  0.10115673388E+03  0.50000000000E+02 0.  0.
<mgrwt>
<rscale>  0 0.51164130E+02</rscale>
<asrwt>0</asrwt>
<pdfrwt beam="1">  1       13 0.10000000E+01 0.51164130E+02</pdfrwt>
<pdfrwt beam="2">  1       22 0.12032205E+00 0.51164130E+02</pdfrwt>
<totfact> 0.10685239E+00</totfact>
</mgrwt>
</event>
<event>
 4    1  0.2516086E+000  0.5606365E+02  0.7957747E-01  0.1415135E+00
         13   -1    0    0    0    0  0.00000000000E+00  0.00000000000E+00  0.99999944187E+02  0.10000000001E+03  0.10566000000E+00 0. -1.
         22   -1    0    0    0    0 -0.00000000000E+00 -0.00000000000E+00 -0.21938840710E+02  0.21938840710E+02  0.00000000000E+00 0.  1.
         13    1    1    2    0    0  0.13877607161E+02 -0.21226054141E+02 -0.57120516206E+00  0.25366726125E+02  0.10566000000E+00 0.  1.
        996    1    1    2    0    0 -0.13877607161E+02  0.21226054141E+02  0.78632308639E+02  0.96572114593E+02  0.50000000000E+02 0.  0.
<mgrwt>
<rscale>  0 0.56063654E+02</rscale>
<asrwt>0</asrwt>
<pdfrwt beam="1">  1       13 0.10000000E+01 0.56063654E+02</pdfrwt>
<pdfrwt beam="2">  1       22 0.21938863E+00 0.56063654E+02</pdfrwt>
<totfact> 0.38278247E-01</totfact>
</mgrwt>
</event>
<event>
 4    1  0.2516086E+000  0.5205662E+02  0.7957747E-01  0.1434554E+00
         13   -1    0    0    0    0  0.00000000000E+00  0.00000000000E+00  0.99999944187E+02  0.10000000001E+03  0.10566000000E+00 0.  1.
         22   -1    0    0    0    0 -0.00000000000E+00 -0.00000000000E+00 -0.12500456795E+02  0.12500456795E+02  0.00000000000E+00 0. -1.
         13    1    1    2    0    0 -0.79323242941E+01  0.12123119442E+02  0.57578311626E+01  0.15590239814E+02  0.10566000000E+00 0. -1.
        996    1    1    2    0    0  0.79323242941E+01 -0.12123119442E+02  0.81741656230E+02  0.96910216989E+02  0.50000000000E+02 0.  0.
<mgrwt>
<rscale>  0 0.52056621E+02</rscale>
<asrwt>0</asrwt>
<pdfrwt beam="1">  1       13 0.10000000E+01 0.52056621E+02</pdfrwt>
<pdfrwt beam="2">  1       22 0.12500481E+00 0.52056621E+02</pdfrwt>
<totfact> 0.10094029E+00</totfact>
</mgrwt>
</event>
<event>
 4    1  0.2516086E+000  0.5265531E+02  0.7957747E-01  0.1431524E+00
         13   -1    0    0    0    0  0.00000000000E+00  0.00000000000E+00  0.99999944179E+02  0.99999999999E+02  0.10566000000E+00 0. -1.
         22   -1    0    0    0    0 -0.00000000000E+00 -0.00000000000E+00 -0.11970989987E+02  0.11970989987E+02  0.00000000000E+00 0.  1.
         13    1    1    2    0    0 -0.80818351118E+01  0.14396734423E+02  0.19569638034E+02  0.25603982457E+02  0.10566000000E+00 0.  1.
        996    1    1    2    0    0  0.80818351118E+01 -0.14396734423E+02  0.68459316158E+02  0.86367007530E+02  0.50000000000E+02 0.  0.
<mgrwt>
<rscale>  0 0.52655313E+02</rscale>
<asrwt>0</asrwt>
<pdfrwt beam="1">  1       13 0.10000000E+01 0.52655313E+02</pdfrwt>
<pdfrwt beam="2">  1       22 0.11971015E+00 0.52655313E+02</pdfrwt>
<totfact> 0.10805032E+00</totfact>
</mgrwt>
</event>
<event>
 4    1  0.2516086E+000  0.5113014E+02  0.7957747E-01  0.1439339E+00
         13   -1    0    0    0    0  0.00000000000E+00  0.00000000000E+00  0.99999944179E+02  0.99999999999E+02  0.10566000000E+00 0. -1.
         22   -1    0    0    0    0 -0.00000000000E+00 -0.00000000000E+00 -0.14776472632E+02  0.14776472632E+02  0.00000000000E+00 0. -1.
         13    1    1    2    0    0 -0.10024892418E+02  0.37138638568E+01 -0.44260628260E+01  0.11571190471E+02  0.10566000000E+00 0.  1.
        996    1    1    2    0    0  0.10024892418E+02 -0.37138638568E+01  0.89649534373E+02  0.10320528216E+03  0.50000000000E+02 0.  0.
<mgrwt>
<rscale>  0 0.51130140E+02</rscale>
<asrwt>0</asrwt>
<pdfrwt beam="1">  1       13 0.10000000E+01 0.51130140E+02</pdfrwt>
<pdfrwt beam="2">  1       22 0.14776496E+00 0.51130140E+02</pdfrwt>
<totfact> 0.77053517E-01</totfact>
</mgrwt>
</event>
<event>
 4    1  0.2516086E+000  0.5416570E+02  0.7957747E-01  0.1424086E+00
         13   -1    0    0    0    0  0.00000000000E+00  0.00000000000E+00  0.99999944177E+02  0.99999999997E+02  0.10566000000E+00 0. -1.
         22   -1    0    0    0    0 -0.00000000000E+00 -0.00000000000E+00 -0.36838092008E+02  0.36838092008E+02  0.00000000000E+00 0.  1.
         13    1    1    2    0    0 -0.15929221139E+02 -0.13423206225E+02 -0.25507921955E+02  0.32933080602E+02  0.10566000000E+00 0.  1.
        996    1    1    2    0    0  0.15929221139E+02  0.13423206225E+02  0.88669774124E+02  0.10390501140E+03  0.50000000000E+02 0.  0.
<mgrwt>
<rscale>  0 0.54165695E+02</rscale>
<asrwt>0</asrwt>
<pdfrwt beam="1">  1       13 0.10000000E+01 0.54165695E+02</pdfrwt>
<pdfrwt beam="2">  1       22 0.36838110E+00 0.54165695E+02</pdfrwt>
<totfact> 0.14396128E-01</totfact>
</mgrwt>
</event>
<event>
 4    1  0.2516086E+000  0.6013030E+02  0.7957747E-01  0.1397286E+00
         13   -1    0    0    0    0  0.00000000000E+00  0.00000000000E+00  0.99999944172E+02  0.99999999992E+02  0.10566000000E+00 0. -1.
         22   -1    0    0    0    0 -0.00000000000E+00 -0.00000000000E+00 -0.36537687465E+02  0.36537687465E+02  0.00000000000E+00 0.  1.
         13    1    1    2    0    0  0.15522310606E+02 -0.29575502105E+02 -0.15880130906E+02  0.36984350379E+02  0.10566000000E+00 0.  1.
        996    1    1    2    0    0 -0.15522310606E+02  0.29575502105E+02  0.79342387613E+02  0.99553337078E+02  0.50000000000E+02 0.  0.
<mgrwt>
<rscale>  0 0.60130296E+02</rscale>
<asrwt>0</asrwt>
<pdfrwt beam="1">  1       13 0.10000000E+01 0.60130296E+02</pdfrwt>
<pdfrwt beam="2">  1       22 0.36537705E+00 0.60130296E+02</pdfrwt>
<totfact> 0.14681502E-01</totfact>
</mgrwt>
</event>
<event>
 4    1  0.2516086E+000  0.5472991E+02  0.7957747E-01  0.1421381E+00
         13   -1    0    0    0    0  0.00000000000E+00  0.00000000000E+00  0.99999944176E+02  0.99999999996E+02  0.10566000000E+00 0. -1.
         22   -1    0    0    0    0 -0.00000000000E+00 -0.00000000000E+00 -0.77175143211E+02  0.77175143211E+02  0.00000000000E+00 0.  1.
         13    1    1    2    0    0 -0.22009626790E+02  0.33073902903E+01 -0.67770392995E+02  0.71331618745E+02  0.10566000000E+00 0.  1.
        996    1    1    2    0    0  0.22009626790E+02 -0.33073902903E+01  0.90595193960E+02  0.10584352446E+03  0.50000000000E+02 0.  0.
<mgrwt>
<rscale>  0 0.54729905E+02</rscale>
<asrwt>0</asrwt>
<pdfrwt beam="1">  1       13 0.10000000E+01 0.54729905E+02</pdfrwt>
<pdfrwt beam="2">  1       22 0.77175150E+00 0.54729905E+02</pdfrwt>
<totfact> 0.40061312E-02</totfact>
</mgrwt>
</event>
<event>
 4    1  0.2516086E+000  0.5654335E+02  0.7957747E-01  0.1412938E+00
         13   -1    0    0    0    0  0.00000000000E+00  0.00000000000E+00  0.99999944177E+02  0.99999999997E+02  0.10566000000E+00 0.  1.
         22   -1    0    0    0    0 -0.00000000000E+00 -0.00000000000E+00 -0.28611074156E+02  0.28611074156E+02  0.00000000000E+00 0. -1.
         13    1    1    2    0    0 -0.23848637140E+02  0.11331048947E+02 -0.11067924919E+02  0.28629709913E+02  0.10566000000E+00 0. -1.
        996    1    1    2    0    0  0.23848637140E+02 -0.11331048947E+02  0.82456794940E+02  0.99981364241E+02  0.50000000000E+02 0.  0.
<mgrwt>
<rscale>  0 0.56543348E+02</rscale>
<asrwt>0</asrwt>
<pdfrwt beam="1">  1       13 0.10000000E+01 0.56543348E+02</pdfrwt>
<pdfrwt beam="2">  1       22 0.28611094E+00 0.56543348E+02</pdfrwt>
<totfact> 0.22786219E-01</totfact>
</mgrwt>
</event>
<event>
 4    1  0.2516086E+000  0.5532462E+02  0.7957747E-01  0.1418570E+00
         13   -1    0    0    0    0  0.00000000000E+00  0.00000000000E+00  0.99999944176E+02  0.99999999996E+02  0.10566000000E+00 0.  1.
         22   -1    0    0    0    0 -0.00000000000E+00 -0.00000000000E+00 -0.23129728112E+02  0.23129728112E+02  0.00000000000E+00 0. -1.
         13    1    1    2    0    0  0.14235381199E+02  0.18925307509E+02 -0.51110941346E+01  0.24227005376E+02  0.10566000000E+00 0. -1.
        996    1    1    2    0    0 -0.14235381199E+02 -0.18925307509E+02  0.81981310198E+02  0.98902722733E+02  0.50000000000E+02 0.  0.
<mgrwt>
<rscale>  0 0.55324618E+02</rscale>
<asrwt>0</asrwt>
<pdfrwt beam="1">  1       13 0.10000000E+01 0.55324618E+02</pdfrwt>
<pdfrwt beam="2">  1       22 0.23129750E+00 0.55324618E+02</pdfrwt>
<totfact> 0.34511739E-01</totfact>
</mgrwt>
</event>
<event>
 4    1  0.2516086E+000  0.5507017E+02  0.7957747E-01  0.1419767E+00
         13   -1    0    0    0    0  0.00000000000E+00  0.00000000000E+00  0.99999944183E+02  0.10000000000E+03  0.10566000000E+00 0. -1.
         22   -1    0    0    0    0 -0.00000000000E+00 -0.00000000000E+00 -0.17155483750E+02  0.17155483750E+02  0.00000000000E+00 0.  1.
         13    1    1    2    0    0  0.22745461656E+02  0.39201945983E+01  0.84135759845E+01  0.24566712774E+02  0.10566000000E+00 0.  1.
        996    1    1    2    0    0 -0.22745461656E+02 -0.39201945983E+01  0.74430884449E+02  0.92588770979E+02  0.50000000000E+02 0.  0.
<mgrwt>
<rscale>  0 0.55070173E+02</rscale>
<asrwt>0</asrwt>
<pdfrwt beam="1">  1       13 0.10000000E+01 0.55070173E+02</pdfrwt>
<pdfrwt beam="2">  1       22 0.17155507E+00 0.55070173E+02</pdfrwt>
<totfact> 0.60179093E-01</totfact>
</mgrwt>
</event>
<event>
 4    1  0.2516086E+000  0.5190901E+02  0.7957747E-01  0.1435309E+00
         13   -1    0    0    0    0  0.00000000000E+00  0.00000000000E+00  0.99999944176E+02  0.99999999996E+02  0.10566000000E+00 0. -1.
         22   -1    0    0    0    0 -0.00000000000E+00 -0.00000000000E+00 -0.10966810564E+02  0.10966810564E+02  0.00000000000E+00 0. -1.
         13    1    1    2    0    0 -0.12143076175E+01  0.13894973083E+02  0.23978592889E+02  0.27740383937E+02  0.10566000000E+00 0.  1.
        996    1    1    2    0    0  0.12143076175E+01 -0.13894973083E+02  0.65054540722E+02  0.83226426623E+02  0.50000000000E+02 0.  0.
<mgrwt>
<rscale>  0 0.51909005E+02</rscale>
<asrwt>0</asrwt>
<pdfrwt beam="1">  1       13 0.10000000E+01 0.51909005E+02</pdfrwt>
<pdfrwt beam="2">  1       22 0.10966835E+00 0.51909005E+02</pdfrwt>
<totfact> 0.12309862E+00</totfact>
</mgrwt>
</event>
<event>
 4    1  0.2516086E+000  0.5399968E+02  0.7957747E-01  0.1424890E+00
         13   -1    0    0    0    0  0.00000000000E+00  0.00000000000E+00  0.99999944176E+02  0.99999999996E+02  0.10566000000E+00 0.  1.
         22   -1    0    0    0    0 -0.00000000000E+00 -0.00000000000E+00 -0.15295521084E+02  0.15295521084E+02  0.00000000000E+00 0.  1.
         13    1    1    2    0    0 -0.50395390904E+00  0.20389001282E+02  0.89692669723E+01  0.22280580263E+02  0.10566000000E+00 0. -1.
        996    1    1    2    0    0  0.50395390904E+00 -0.20389001282E+02  0.75735156120E+02  0.93014940817E+02  0.50000000000E+02 0.  0.
<mgrwt>
<rscale>  0 0.53999679E+02</rscale>
<asrwt>0</asrwt>
<pdfrwt beam="1">  1       13 0.10000000E+01 0.53999679E+02</pdfrwt>
<pdfrwt beam="2">  1       22 0.15295545E+00 0.53999679E+02</pdfrwt>
<totfact> 0.73166592E-01</totfact>
</mgrwt>
</event>
<event>
 4    1  0.2516086E+000  0.5133591E+02  0.7957747E-01  0.1438266E+00
         13   -1    0    0    0    0  0.00000000000E+00  0.00000000000E+00  0.99999944179E+02  0.99999999999E+02  0.10566000000E+00 0. -1.
         22   -1    0    0    0    0 -0.00000000000E+00 -0.00000000000E+00 -0.63279252529E+02  0.63279252529E+02  0.00000000000E+00 0.  1.
         13    1    1    2    0    0 -0.10563309394E+02  0.48776943755E+01 -0.56053784080E+02  0.57248696767E+02  0.10566000000E+00 0.  1.
        996    1    1    2    0    0  0.10563309394E+02 -0.48776943755E+01  0.92774475731E+02  0.10603055576E+03  0.50000000000E+02 0.  0.
<mgrwt>
<rscale>  0 0.51335908E+02</rscale>
<asrwt>0</asrwt>
<pdfrwt beam="1">  1       13 0.10000000E+01 0.51335908E+02</pdfrwt>
<pdfrwt beam="2">  1       22 0.63279263E+00 0.51335908E+02</pdfrwt>
<totfact> 0.80204062E-02</totfact>
</mgrwt>
</event>
<event>
 4    1  0.2516086E+000  0.5822089E+02  0.7957747E-01  0.1405453E+00
         13   -1    0    0    0    0  0.00000000000E+00  0.00000000000E+00  0.99999944174E+02  0.99999999994E+02  0.10566000000E+00 0. -1.
         22   -1    0    0    0    0 -0.00000000000E+00 -0.00000000000E+00 -0.20248752412E+02  0.20248752412E+02  0.00000000000E+00 0. -1.
         13    1    1    2    0    0 -0.28729097015E+02 -0.80193935288E+01  0.39376494186E+02  0.49398290924E+02  0.10566000000E+00 0.  1.
        996    1    1    2    0    0  0.28729097015E+02  0.80193935288E+01  0.40374697576E+02  0.70850461482E+02  0.50000000000E+02 0.  0.
<mgrwt>
<rscale>  0 0.58220887E+02</rscale>
<asrwt>0</asrwt>
<pdfrwt beam="1">  1       13 0.10000000E+01 0.58220887E+02</pdfrwt>
<pdfrwt beam="2">  1       22 0.20248775E+00 0.58220887E+02</pdfrwt>
<totfact> 0.44737341E-01</totfact>
</mgrwt>
</event>
<event>
 4    1  0.2516086E+000  0.5170092E+02  0.7957747E-01  0.1436377E+00
         13   -1    0    0    0    0  0.00000000000E+00  0.00000000000E+00  0.99999944177E+02  0.99999999997E+02  0.10566000000E+00 0. -1.
         22   -1    0    0    0    0 -0.00000000000E+00 -0.00000000000E+00 -0.34720875032E+02  0.34720875032E+02  0.00000000000E+00 0.  1.
         13    1    1    2    0    0 -0.52471476550E+01 -0.12060384826E+02 -0.26385047539E+02  0.29481644092E+02  0.10566000000E+00 0.  1.
        996    1    1    2    0    0  0.52471476550E+01  0.12060384826E+02  0.91664116684E+02  0.10523923094E+03  0.50000000000E+02 0.  0.
<mgrwt>
<rscale>  0 0.51700923E+02</rscale>
<asrwt>0</asrwt>
<pdfrwt beam="1">  1       13 0.10000000E+01 0.51700923E+02</pdfrwt>
<pdfrwt beam="2">  1       22 0.34720893E+00 0.51700923E+02</pdfrwt>
<totfact> 0.15930145E-01</totfact>
</mgrwt>
</event>
<event>
 4    1  0.2516086E+000  0.5760626E+02  0.7957747E-01  0.1408161E+00
         13   -1    0    0    0    0  0.00000000000E+00  0.00000000000E+00  0.99999944181E+02  0.10000000000E+03  0.10566000000E+00 0. -1.
         22   -1    0    0    0    0 -0.00000000000E+00 -0.00000000000E+00 -0.71652115708E+02  0.71652115708E+02  0.00000000000E+00 0.  1.
         13    1    1    2    0    0 -0.11943259278E+02  0.25996916295E+02 -0.59833808399E+02  0.66321767848E+02  0.10566000000E+00 0.  1.
        996    1    1    2    0    0  0.11943259278E+02 -0.25996916295E+02  0.88181636871E+02  0.10533034786E+03  0.50000000000E+02 0.  0.
<mgrwt>
<rscale>  0 0.57606259E+02</rscale>
<asrwt>0</asrwt>
<pdfrwt beam="1">  1       13 0.10000000E+01 0.57606259E+02</pdfrwt>
<pdfrwt beam="2">  1       22 0.71652124E+00 0.57606259E+02</pdfrwt>
<totfact> 0.65911691E-02</totfact>
</mgrwt>
</event>
<event>
 4    1  0.2516086E+000  0.5151216E+02  0.7957747E-01  0.1437352E+00
         13   -1    0    0    0    0  0.00000000000E+00  0.00000000000E+00  0.99999944180E+02  0.10000000000E+03  0.10566000000E+00 0.  1.
         22   -1    0    0    0    0 -0.00000000000E+00 -0.00000000000E+00 -0.10461151650E+02  0.10461151650E+02  0.00000000000E+00 0.  1.
         13    1    1    2    0    0  0.18998782967E+01  0.12243084514E+02  0.11189467079E+02  0.16694849310E+02  0.10566000000E+00 0. -1.
        996    1    1    2    0    0 -0.18998782967E+01 -0.12243084514E+02  0.78349325451E+02  0.93766302340E+02  0.50000000000E+02 0.  0.
<mgrwt>
<rscale>  0 0.51512160E+02</rscale>
<asrwt>0</asrwt>
<pdfrwt beam="1">  1       13 0.10000000E+01 0.51512160E+02</pdfrwt>
<pdfrwt beam="2">  1       22 0.10461177E+00 0.51512160E+02</pdfrwt>
<totfact> 0.13185983E+00</totfact>
</mgrwt>
</event>
<event>
 4    1  0.2516086E+000  0.5563240E+02  0.7957747E-01  0.1417132E+00
         13   -1    0    0    0    0  0.00000000000E+00  0.00000000000E+00  0.99999944177E+02  0.99999999997E+02  0.10566000000E+00 0.  1.
         22   -1    0    0    0    0 -0.00000000000E+00 -0.00000000000E+00 -0.42458769764E+02  0.42458769764E+02  0.00000000000E+00 0. -1.
         13    1    1    2    0    0  0.23680683473E+02  0.58471399619E+01 -0.30043856250E+02  0.38698944145E+02  0.10566000000E+00 0. -1.
        996    1    1    2    0    0 -0.23680683473E+02 -0.58471399619E+01  0.87585030664E+02  0.10375982562E+03  0.50000000000E+02 0.  0.
<mgrwt>
<rscale>  0 0.55632399E+02</rscale>
<asrwt>0</asrwt>
<pdfrwt beam="1">  1       13 0.10000000E+01 0.55632399E+02</pdfrwt>
<pdfrwt beam="2">  1       22 0.42458786E+00 0.55632399E+02</pdfrwt>
<totfact> 0.11012320E-01</totfact>
</mgrwt>
</event>
<event>
 4    1  0.2516086E+000  0.5381130E+02  0.7957747E-01  0.1425805E+00
         13   -1    0    0    0    0  0.00000000000E+00  0.00000000000E+00  0.99999944184E+02  0.10000000000E+03  0.10566000000E+00 0. -1.
         22   -1    0    0    0    0 -0.00000000000E+00 -0.00000000000E+00 -0.84671047643E+02  0.84671047643E+02  0.00000000000E+00 0.  1.
         13    1    1    2    0    0  0.69970525795E+01  0.18619801804E+02 -0.76059128634E+02  0.78617160828E+02  0.10566000000E+00 0.  1.
        996    1    1    2    0    0 -0.69970525795E+01 -0.18619801804E+02  0.91388025175E+02  0.10605388682E+03  0.50000000000E+02 0.  0.
<mgrwt>
<rscale>  0 0.53811298E+02</rscale>
<asrwt>0</asrwt>
<pdfrwt beam="1">  1       13 0.10000000E+01 0.53811298E+02</pdfrwt>
<pdfrwt beam="2">  1       22 0.84671052E+00 0.53811298E+02</pdfrwt>
<totfact> 0.19660373E-02</totfact>
</mgrwt>
</event>
<event>
 4    1  0.2516086E+000  0.5200529E+02  0.7957747E-01  0.1434816E+00
         13   -1    0    0    0    0  0.00000000000E+00  0.00000000000E+00  0.99999944178E+02  0.99999999998E+02  0.10566000000E+00 0. -1.
         22   -1    0    0    0    0 -0.00000000000E+00 -0.00000000000E+00 -0.13761124821E+02  0.13761124821E+02  0.00000000000E+00 0. -1.
         13    1    1    2    0    0  0.87518559854E+01 -0.11311738510E+02  0.45511957986E+02  0.47706392601E+02  0.10566000000E+00 0.  1.
        996    1    1    2    0    0 -0.87518559854E+01  0.11311738510E+02  0.40726861371E+02  0.66054732219E+02  0.50000000000E+02 0.  0.
<mgrwt>
<rscale>  0 0.52005292E+02</rscale>
<asrwt>0</asrwt>
<pdfrwt beam="1">  1       13 0.10000000E+01 0.52005292E+02</pdfrwt>
<pdfrwt beam="2">  1       22 0.13761149E+00 0.52005292E+02</pdfrwt>
<totfact> 0.86705614E-01</totfact>
</mgrwt>
</event>
<event>
 4    1  0.2516086E+000  0.5159300E+02  0.7957747E-01  0.1436934E+00
         13   -1    0    0    0    0  0.00000000000E+00  0.00000000000E+00  0.99999944183E+02  0.10000000000E+03  0.10566000000E+00 0. -1.
         22   -1    0    0    0    0 -0.00000000000E+00 -0.00000000000E+00 -0.10756854709E+02  0.10756854709E+02  0.00000000000E+00 0. -1.
         13    1    1    2    0    0 -0.61643741464E+01 -0.11128246672E+02  0.99248775083E+01  0.16135418811E+02  0.10566000000E+00 0.  1.
        996    1    1    2    0    0  0.61643741464E+01  0.11128246672E+02  0.79318211966E+02  0.94621435901E+02  0.50000000000E+02 0.  0.
<mgrwt>
<rscale>  0 0.51592997E+02</rscale>
<asrwt>0</asrwt>
<pdfrwt beam="1">  1       13 0.10000000E+01 0.51592997E+02</pdfrwt>
<pdfrwt beam="2">  1       22 0.10756880E+00 0.51592997E+02</pdfrwt>
<totfact> 0.12658319E+00</totfact>
</mgrwt>
</event>
<event>
 4    1  0.2516086E+000  0.5103553E+02  0.7957747E-01  0.1439835E+00
         13   -1    0    0    0    0  0.00000000000E+00  0.00000000000E+00  0.99999944183E+02  0.10000000000E+03  0.10566000000E+00 0.  1.
         22   -1    0    0    0    0 -0.00000000000E+00 -0.00000000000E+00 -0.10506062174E+02  0.10506062174E+02  0.00000000000E+00 0.  1.
         13    1    1    2    0    0  0.93776396824E+01 -0.40848030985E+01  0.40930078016E+01  0.11017695733E+02  0.10566000000E+00 0. -1.
        996    1    1    2    0    0 -0.93776396824E+01  0.40848030985E+01  0.85400874207E+02  0.99488366444E+02  0.50000000000E+02 0.  0.
<mgrwt>
<rscale>  0 0.51035534E+02</rscale>
<asrwt>0</asrwt>
<pdfrwt beam="1">  1       13 0.10000000E+01 0.51035534E+02</pdfrwt>
<pdfrwt beam="2">  1       22 0.10506087E+00 0.51035534E+02</pdfrwt>
<totfact> 0.13088478E+00</totfact>
</mgrwt>
</event>
<event>
 4    1  0.2516086E+000  0.5289326E+02  0.7957747E-01  0.1430333E+00
         13   -1    0    0    0    0  0.00000000000E+00  0.00000000000E+00  0.99999944178E+02  0.99999999998E+02  0.10566000000E+00 0. -1.
         22   -1    0    0    0    0 -0.00000000000E+00 -0.00000000000E+00 -0.15295945488E+02  0.15295945488E+02  0.00000000000E+00 0.  1.
         13    1    1    2    0    0  0.13994090591E+02  0.10092663484E+02  0.23420848088E+01  0.17412436733E+02  0.10566000000E+00 0.  1.
        996    1    1    2    0    0 -0.13994090591E+02 -0.10092663484E+02  0.82361913881E+02  0.97883508753E+02  0.50000000000E+02 0.  0.
<mgrwt>
<rscale>  0 0.52893255E+02</rscale>
<asrwt>0</asrwt>
<pdfrwt beam="1">  1       13 0.10000000E+01 0.52893255E+02</pdfrwt>
<pdfrwt beam="2">  1       22 0.15295969E+00 0.52893255E+02</pdfrwt>
<totfact> 0.73004082E-01</totfact>
</mgrwt>
</event>
<event>
 4    1  0.2516086E+000  0.5123547E+02  0.7957747E-01  0.1438789E+00
         13   -1    0    0    0    0  0.00000000000E+00  0.00000000000E+00  0.99999944176E+02  0.99999999996E+02  0.10566000000E+00 0.  1.
         22   -1    0    0    0    0 -0.00000000000E+00 -0.00000000000E+00 -0.97978820915E+01  0.97978820915E+01  0.00000000000E+00 0.  1.
         13    1    1    2    0    0 -0.19411563660E+01  0.11013880997E+02  0.19560817968E+02  0.22532430544E+02  0.10566000000E+00 0. -1.
        996    1    1    2    0    0  0.19411563660E+01 -0.11013880997E+02  0.70641244117E+02  0.87265451543E+02  0.50000000000E+02 0.  0.
<mgrwt>
<rscale>  0 0.51235473E+02</rscale>
<asrwt>0</asrwt>
<pdfrwt beam="1">  1       13 0.10000000E+01 0.51235473E+02</pdfrwt>
<pdfrwt beam="2">  1       22 0.97979073E-01 0.51235473E+02</pdfrwt>
<totfact> 0.14492957E+00</totfact>
</mgrwt>
</event>
<event>
 4    1  0.2516086E+000  0.5294543E+02  0.7957747E-01  0.1430073E+00
         13   -1    0    0    0    0  0.00000000000E+00  0.00000000000E+00  0.99999944180E+02  0.10000000000E+03  0.10566000000E+00 0. -1.
         22   -1    0    0    0    0 -0.00000000000E+00 -0.00000000000E+00 -0.13455609156E+02  0.13455609156E+02  0.00000000000E+00 0. -1.
         13    1    1    2    0    0 -0.15206397775E+02 -0.84843610030E+01  0.91141048908E+01  0.19654439370E+02  0.10566000000E+00 0.  1.
        996    1    1    2    0    0  0.15206397775E+02  0.84843610030E+01  0.77430230133E+02  0.93801169787E+02  0.50000000000E+02 0.  0.
<mgrwt>
<rscale>  0 0.52945433E+02</rscale>
<asrwt>0</asrwt>
<pdfrwt beam="1">  1       13 0.10000000E+01 0.52945433E+02</pdfrwt>
<pdfrwt beam="2">  1       22 0.13455633E+00 0.52945433E+02</pdfrwt>
<totfact> 0.90061100E-01</totfact>
</mgrwt>
</event>
<event>
 4    1  0.2516086E+000  0.6616863E+02  0.7957747E-01  0.1373629E+00
         13   -1    0    0    0    0  0.00000000000E+00  0.00000000000E+00  0.99999944182E+02  0.10000000000E+03  0.10566000000E+00 0.  1.
         22   -1    0    0    0    0 -0.00000000000E+00 -0.00000000000E+00 -0.37684819545E+02  0.37684819545E+02  0.00000000000E+00 0.  1.
         13    1    1    2    0    0 -0.38413596162E+02 -0.20066961918E+02 -0.45952699098E+01  0.43582278512E+02  0.10566000000E+00 0. -1.
        996    1    1    2    0    0  0.38413596162E+02  0.20066961918E+02  0.66910394547E+02  0.94102541035E+02  0.50000000000E+02 0.  0.
<mgrwt>
<rscale>  0 0.66168628E+02</rscale>
<asrwt>0</asrwt>
<pdfrwt beam="1">  1       13 0.10000000E+01 0.66168628E+02</pdfrwt>
<pdfrwt beam="2">  1       22 0.37684837E+00 0.66168628E+02</pdfrwt>
<totfact> 0.13954450E-01</totfact>
</mgrwt>
</event>
<event>
 4    1  0.2516086E+000  0.7002487E+02  0.7957747E-01  0.1360008E+00
         13   -1    0    0    0    0  0.00000000000E+00  0.00000000000E+00  0.99999944183E+02  0.10000000000E+03  0.10566000000E+00 0. -1.
         22   -1    0    0    0    0 -0.00000000000E+00 -0.00000000000E+00 -0.54517849399E+02  0.54517849399E+02  0.00000000000E+00 0.  1.
         13    1    1    2    0    0 -0.48953233330E+02  0.26576621156E+01 -0.25113452301E+02  0.55083381086E+02  0.10566000000E+00 0.  1.
        996    1    1    2    0    0  0.48953233330E+02 -0.26576621156E+01  0.70595547084E+02  0.99434468317E+02  0.50000000000E+02 0.  0.
<mgrwt>
<rscale>  0 0.70024869E+02</rscale>
<asrwt>0</asrwt>
<pdfrwt beam="1">  1       13 0.10000000E+01 0.70024869E+02</pdfrwt>
<pdfrwt beam="2">  1       22 0.54517862E+00 0.70024869E+02</pdfrwt>
<totfact> 0.60072152E-02</totfact>
</mgrwt>
</event>
<event>
 4    1  0.2516086E+000  0.5298873E+02  0.7957747E-01  0.1429857E+00
         13   -1    0    0    0    0  0.00000000000E+00  0.00000000000E+00  0.99999944171E+02  0.99999999991E+02  0.10566000000E+00 0. -1.
         22   -1    0    0    0    0 -0.00000000000E+00 -0.00000000000E+00 -0.20535677689E+02  0.20535677689E+02  0.00000000000E+00 0. -1.
         13    1    1    2    0    0  0.17284164518E+02  0.30104801621E+01 -0.71927360762E+01  0.18961855136E+02  0.10566000000E+00 0.  1.
        996    1    1    2    0    0 -0.17284164518E+02 -0.30104801621E+01  0.86657002558E+02  0.10157382254E+03  0.50000000000E+02 0.  0.
<mgrwt>
<rscale>  0 0.52988728E+02</rscale>
<asrwt>0</asrwt>
<pdfrwt beam="1">  1       13 0.10000000E+01 0.52988728E+02</pdfrwt>
<pdfrwt beam="2">  1       22 0.20535700E+00 0.52988728E+02</pdfrwt>
<totfact> 0.43193183E-01</totfact>
</mgrwt>
</event>
<event>
 4    1  0.2516086E+000  0.5152779E+02  0.7957747E-01  0.1437271E+00
         13   -1    0    0    0    0  0.00000000000E+00  0.00000000000E+00  0.99999944178E+02  0.99999999998E+02  0.10566000000E+00 0.  1.
         22   -1    0    0    0    0 -0.00000000000E+00 -0.00000000000E+00 -0.13825957065E+02  0.13825957065E+02  0.00000000000E+00 0.  1.
         13    1    1    2    0    0 -0.11803353672E+02 -0.39741102714E+01 -0.10708934211E+01  0.12500827457E+02  0.10566000000E+00 0. -1.
        996    1    1    2    0    0  0.11803353672E+02  0.39741102714E+01  0.87244880534E+02  0.10132512961E+03  0.50000000000E+02 0.  0.
<mgrwt>
<rscale>  0 0.51527786E+02</rscale>
<asrwt>0</asrwt>
<pdfrwt beam="1">  1       13 0.10000000E+01 0.51527786E+02</pdfrwt>
<pdfrwt beam="2">  1       22 0.13825981E+00 0.51527786E+02</pdfrwt>
<totfact> 0.85964209E-01</totfact>
</mgrwt>
</event>
<event>
 4    1  0.2516086E+000  0.5153667E+02  0.7957747E-01  0.1437225E+00
         13   -1    0    0    0    0  0.00000000000E+00  0.00000000000E+00  0.99999944181E+02  0.10000000000E+03  0.10566000000E+00 0. -1.
         22   -1    0    0    0    0 -0.00000000000E+00 -0.00000000000E+00 -0.13068542248E+02  0.13068542248E+02  0.00000000000E+00 0.  1.
         13    1    1    2    0    0 -0.33968096998E+01  0.12020385325E+02  0.57737288959E+00  0.12504899159E+02  0.10566000000E+00 0.  1.
        996    1    1    2    0    0  0.33968096998E+01 -0.12020385325E+02  0.86354029043E+02  0.10056364309E+03  0.50000000000E+02 0.  0.
<mgrwt>
<rscale>  0 0.51536666E+02</rscale>
<asrwt>0</asrwt>
<pdfrwt beam="1">  1       13 0.10000000E+01 0.51536666E+02</pdfrwt>
<pdfrwt beam="2">  1       22 0.13068567E+00 0.51536666E+02</pdfrwt>
<totfact> 0.94047849E-01</totfact>
</mgrwt>
</event>
<event>
 4    1  0.2516086E+000  0.5162272E+02  0.7957747E-01  0.1436781E+00
         13   -1    0    0    0    0  0.00000000000E+00  0.00000000000E+00  0.99999944186E+02  0.10000000001E+03  0.10566000000E+00 0. -1.
         22   -1    0    0    0    0 -0.00000000000E+00 -0.00000000000E+00 -0.13565978095E+02  0.13565978095E+02  0.00000000000E+00 0.  1.
         13    1    1    2    0    0 -0.45603109313E+01 -0.12004526377E+02 -0.55317916215E-01  0.12842091474E+02  0.10566000000E+00 0.  1.
        996    1    1    2    0    0  0.45603109313E+01  0.12004526377E+02  0.86489284008E+02  0.10072388663E+03  0.50000000000E+02 0.  0.
<mgrwt>
<rscale>  0 0.51622719E+02</rscale>
<asrwt>0</asrwt>
<pdfrwt beam="1">  1       13 0.10000000E+01 0.51622719E+02</pdfrwt>
<pdfrwt beam="2">  1       22 0.13566002E+00 0.51622719E+02</pdfrwt>
<totfact> 0.88643891E-01</totfact>
</mgrwt>
</event>
<event>
 4    1  0.2516086E+000  0.5351519E+02  0.7957747E-01  0.1427254E+00
         13   -1    0    0    0    0  0.00000000000E+00  0.00000000000E+00  0.99999944177E+02  0.99999999997E+02  0.10566000000E+00 0. -1.
         22   -1    0    0    0    0 -0.00000000000E+00 -0.00000000000E+00 -0.16628170382E+02  0.16628170382E+02  0.00000000000E+00 0.  1.
         13    1    1    2    0    0  0.60544049806E+01 -0.18089230517E+02  0.19242087600E+01  0.19172632155E+02  0.10566000000E+00 0.  1.
        996    1    1    2    0    0 -0.60544049806E+01  0.18089230517E+02  0.81447565035E+02  0.97455538224E+02  0.50000000000E+02 0.  0.
<mgrwt>
<rscale>  0 0.53515195E+02</rscale>
<asrwt>0</asrwt>
<pdfrwt beam="1">  1       13 0.10000000E+01 0.53515195E+02</pdfrwt>
<pdfrwt beam="2">  1       22 0.16628194E+00 0.53515195E+02</pdfrwt>
<totfact> 0.63374414E-01</totfact>
</mgrwt>
</event>
<event>
 4    1  0.2516086E+000  0.5109871E+02  0.7957747E-01  0.1439504E+00
         13   -1    0    0    0    0  0.00000000000E+00  0.00000000000E+00  0.99999944176E+02  0.99999999996E+02  0.10566000000E+00 0. -1.
         22   -1    0    0    0    0 -0.00000000000E+00 -0.00000000000E+00 -0.96276308312E+01  0.96276308312E+01  0.00000000000E+00 0. -1.
         13    1    1    2    0    0 -0.30717850361E+01  0.10081796268E+02  0.20661582524E+02  0.23194625147E+02  0.10566000000E+00 0.  1.
        996    1    1    2    0    0  0.30717850361E+01 -0.10081796268E+02  0.69710730821E+02  0.86433005680E+02  0.50000000000E+02 0.  0.
<mgrwt>
<rscale>  0 0.51098713E+02</rscale>
<asrwt>0</asrwt>
<pdfrwt beam="1">  1       13 0.10000000E+01 0.51098713E+02</pdfrwt>
<pdfrwt beam="2">  1       22 0.96276561E-01 0.51098713E+02</pdfrwt>
<totfact> 0.14857636E+00</totfact>
</mgrwt>
</event>
<event>
 4    1  0.2516086E+000  0.6763230E+02  0.7957747E-01  0.1368335E+00
         13   -1    0    0    0    0  0.00000000000E+00  0.00000000000E+00  0.99999944186E+02  0.10000000001E+03  0.10566000000E+00 0. -1.
         22   -1    0    0    0    0 -0.00000000000E+00 -0.00000000000E+00 -0.57388435547E+02  0.57388435547E+02  0.00000000000E+00 0.  1.
         13    1    1    2    0    0  0.44350856433E+02  0.10350342678E+02 -0.32775199846E+02  0.56110185785E+02  0.10566000000E+00 0.  1.
        996    1    1    2    0    0 -0.44350856433E+02 -0.10350342678E+02  0.75386708485E+02  0.10127824977E+03  0.50000000000E+02 0.  0.
<mgrwt>
<rscale>  0 0.67632300E+02</rscale>
<asrwt>0</asrwt>
<pdfrwt beam="1">  1       13 0.10000000E+01 0.67632300E+02</pdfrwt>
<pdfrwt beam="2">  1       22 0.57388447E+00 0.67632300E+02</pdfrwt>
<totfact> 0.57993377E-02</totfact>
</mgrwt>
</event>
<event>
 4    1  0.2516086E+000  0.5353420E+02  0.7957747E-01  0.1427161E+00
         13   -1    0    0    0    0  0.00000000000E+00  0.00000000000E+00  0.99999944187E+02  0.10000000001E+03  0.10566000000E+00 0. -1.
         22   -1    0    0    0    0 -0.00000000000E+00 -0.00000000000E+00 -0.32590190593E+02  0.32590190593E+02  0.00000000000E+00 0.  1.
         13    1    1    2    0    0 -0.74488523853E+00 -0.19114277060E+02 -0.21518386616E+02  0.28791710059E+02  0.10566000000E+00 0.  1.
        996    1    1    2    0    0  0.74488523853E+00  0.19114277060E+02  0.88928140210E+02  0.10379848054E+03  0.50000000000E+02 0.  0.
<mgrwt>
<rscale>  0 0.53534199E+02</rscale>
<asrwt>0</asrwt>
<pdfrwt beam="1">  1       13 0.10000000E+01 0.53534199E+02</pdfrwt>
<pdfrwt beam="2">  1       22 0.32590209E+00 0.53534199E+02</pdfrwt>
<totfact> 0.17839845E-01</totfact>
</mgrwt>
</event>
<event>
 4    1  0.2516086E+000  0.5261749E+02  0.7957747E-01  0.1431714E+00
         13   -1    0    0    0    0  0.00000000000E+00  0.00000000000E+00  0.99999944180E+02  0.10000000000E+03  0.10566000000E+00 0. -1.
         22   -1    0    0    0    0 -0.00000000000E+00 -0.00000000000E+00 -0.12207060341E+02  0.12207060341E+02  0.00000000000E+00 0. -1.
         13    1    1    2    0    0 -0.15098558038E+02 -0.63744374017E+01  0.13873037027E+02  0.21472592470E+02  0.10566000000E+00 0.  1.
        996    1    1    2    0    0  0.15098558038E+02  0.63744374017E+01  0.73919846813E+02  0.90734467871E+02  0.50000000000E+02 0.  0.
<mgrwt>
<rscale>  0 0.52617487E+02</rscale>
<asrwt>0</asrwt>
<pdfrwt beam="1">  1       13 0.10000000E+01 0.52617487E+02</pdfrwt>
<pdfrwt beam="2">  1       22 0.12207085E+00 0.52617487E+02</pdfrwt>
<totfact> 0.10484823E+00</totfact>
</mgrwt>
</event>
<event>
 4    1  0.2516086E+000  0.5152311E+02  0.7957747E-01  0.1437295E+00
         13   -1    0    0    0    0  0.00000000000E+00  0.00000000000E+00  0.99999944184E+02  0.10000000000E+03  0.10566000000E+00 0.  1.
         22   -1    0    0    0    0 -0.00000000000E+00 -0.00000000000E+00 -0.11706124992E+02  0.11706124992E+02  0.00000000000E+00 0.  1.
         13    1    1    2    0    0  0.12226893890E+02 -0.22658446501E+01  0.42793087280E+01  0.13151221745E+02  0.10566000000E+00 0. -1.
        996    1    1    2    0    0 -0.12226893890E+02  0.22658446501E+01  0.84014510465E+02  0.98554903251E+02  0.50000000000E+02 0.  0.
<mgrwt>
<rscale>  0 0.51523111E+02</rscale>
<asrwt>0</asrwt>
<pdfrwt beam="1">  1       13 0.10000000E+01 0.51523111E+02</pdfrwt>
<pdfrwt beam="2">  1       22 0.11706150E+00 0.51523111E+02</pdfrwt>
<totfact> 0.11151438E+00</totfact>
</mgrwt>
</event>
<event>
 4    1  0.2516086E+000  0.5698732E+02  0.7957747E-01  0.1410928E+00
         13   -1    0    0    0    0  0.00000000000E+00  0.00000000000E+00  0.99999944171E+02  0.99999999991E+02  0.10566000000E+00 0.  1.
         22   -1    0    0    0    0 -0.00000000000E+00 -0.00000000000E+00 -0.26304820075E+02  0.26304820075E+02  0.00000000000E+00 0. -1.
         13    1    1    2    0    0  0.27259697345E+02 -0.21125810924E+01 -0.63276652823E+01  0.28064294222E+02  0.10566000000E+00 0. -1.
        996    1    1    2    0    0 -0.27259697345E+02  0.21125810924E+01  0.80022789378E+02  0.98240525844E+02  0.50000000000E+02 0.  0.
<mgrwt>
<rscale>  0 0.56987315E+02</rscale>
<asrwt>0</asrwt>
<pdfrwt beam="1">  1       13 0.10000000E+01 0.56987315E+02</pdfrwt>
<pdfrwt beam="2">  1       22 0.26304841E+00 0.56987315E+02</pdfrwt>
<totfact> 0.26863449E-01</totfact>
</mgrwt>
</event>
<event>
 4    1  0.2516086E+000  0.5776755E+02  0.7957747E-01  0.1407446E+00
         13   -1    0    0    0    0  0.00000000000E+00  0.00000000000E+00  0.99999944181E+02  0.10000000000E+03  0.10566000000E+00 0. -1.
         22   -1    0    0    0    0 -0.00000000000E+00 -0.00000000000E+00 -0.66877880800E+02  0.66877880800E+02  0.00000000000E+00 0.  1.
         13    1    1    2    0    0 -0.28921769079E+02 -0.78804740355E+00 -0.54629835690E+02  0.61818442692E+02  0.10566000000E+00 0.  1.
        996    1    1    2    0    0  0.28921769079E+02  0.78804740355E+00  0.87751899070E+02  0.10505943811E+03  0.50000000000E+02 0.  0.
<mgrwt>
<rscale>  0 0.57767549E+02</rscale>
<asrwt>0</asrwt>
<pdfrwt beam="1">  1       13 0.10000000E+01 0.57767549E+02</pdfrwt>
<pdfrwt beam="2">  1       22 0.66877890E+00 0.57767549E+02</pdfrwt>
<totfact> 0.86497853E-02</totfact>
</mgrwt>
</event>
<event>
 4    1  0.2516086E+000  0.5332075E+02  0.7957747E-01  0.1428211E+00
         13   -1    0    0    0    0  0.00000000000E+00  0.00000000000E+00  0.99999944182E+02  0.10000000000E+03  0.10566000000E+00 0. -1.
         22   -1    0    0    0    0 -0.00000000000E+00 -0.00000000000E+00 -0.15719793102E+02  0.15719793102E+02  0.00000000000E+00 0. -1.
         13    1    1    2    0    0  0.15023882203E+02 -0.10834476289E+02  0.33811716126E+01  0.18829402498E+02  0.10566000000E+00 0.  1.
        996    1    1    2    0    0 -0.15023882203E+02  0.10834476289E+02  0.80898979468E+02  0.96890390606E+02  0.50000000000E+02 0.  0.
<mgrwt>
<rscale>  0 0.53320755E+02</rscale>
<asrwt>0</asrwt>
<pdfrwt beam="1">  1       13 0.10000000E+01 0.53320755E+02</pdfrwt>
<pdfrwt beam="2">  1       22 0.15719817E+00 0.53320755E+02</pdfrwt>
<totfact> 0.69769883E-01</totfact>
</mgrwt>
</event>
<event>
 4    1  0.2516086E+000  0.5436037E+02  0.7957747E-01  0.1423148E+00
         13   -1    0    0    0    0  0.00000000000E+00  0.00000000000E+00  0.99999944172E+02  0.99999999992E+02  0.10566000000E+00 0.  1.
         22   -1    0    0    0    0 -0.00000000000E+00 -0.00000000000E+00 -0.14586521405E+02  0.14586521405E+02  0.00000000000E+00 0.  1.
         13    1    1    2    0    0 -0.35369428880E+01  0.21036620384E+02  0.31346789281E+02  0.37916773655E+02  0.10566000000E+00 0. -1.
        996    1    1    2    0    0  0.35369428880E+01 -0.21036620384E+02  0.54066633486E+02  0.76669747741E+02  0.50000000000E+02 0.  0.
<mgrwt>
<rscale>  0 0.54360366E+02</rscale>
<asrwt>0</asrwt>
<pdfrwt beam="1">  1       13 0.10000000E+01 0.54360366E+02</pdfrwt>
<pdfrwt beam="2">  1       22 0.14586545E+00 0.54360366E+02</pdfrwt>
<totfact> 0.79235778E-01</totfact>
</mgrwt>
</event>
<event>
 4    1  0.2516086E+000  0.5564621E+02  0.7957747E-01  0.1417067E+00
         13   -1    0    0    0    0  0.00000000000E+00  0.00000000000E+00  0.99999944179E+02  0.10000000000E+03  0.10566000000E+00 0. -1.
         22   -1    0    0    0    0 -0.00000000000E+00 -0.00000000000E+00 -0.17481193053E+02  0.17481193053E+02  0.00000000000E+00 0. -1.
         13    1    1    2    0    0  0.14500119087E+02 -0.19653175246E+02  0.10796364536E+02  0.26703434274E+02  0.10566000000E+00 0.  1.
        996    1    1    2    0    0 -0.14500119087E+02  0.19653175246E+02  0.71722386590E+02  0.90777758779E+02  0.50000000000E+02 0.  0.
<mgrwt>
<rscale>  0 0.55646211E+02</rscale>
<asrwt>0</asrwt>
<pdfrwt beam="1">  1       13 0.10000000E+01 0.55646211E+02</pdfrwt>
<pdfrwt beam="2">  1       22 0.17481216E+00 0.55646211E+02</pdfrwt>
<totfact> 0.58270994E-01</totfact>
</mgrwt>
</event>
<event>
 4    1  0.2516086E+000  0.6395450E+02  0.7957747E-01  0.1381948E+00
         13   -1    0    0    0    0  0.00000000000E+00  0.00000000000E+00  0.99999944170E+02  0.99999999990E+02  0.10566000000E+00 0.  1.
         22   -1    0    0    0    0 -0.00000000000E+00 -0.00000000000E+00 -0.27946350979E+02  0.27946350979E+02  0.00000000000E+00 0. -1.
         13    1    1    2    0    0 -0.19820312689E+02 -0.34602504588E+02  0.16222703040E+02  0.43050730270E+02  0.10566000000E+00 0. -1.
        996    1    1    2    0    0  0.19820312689E+02  0.34602504588E+02  0.55830890151E+02  0.84895620699E+02  0.50000000000E+02 0.  0.
<mgrwt>
<rscale>  0 0.63954500E+02</rscale>
<asrwt>0</asrwt>
<pdfrwt beam="1">  1       13 0.10000000E+01 0.63954500E+02</pdfrwt>
<pdfrwt beam="2">  1       22 0.27946371E+00 0.63954500E+02</pdfrwt>
<totfact> 0.24062720E-01</totfact>
</mgrwt>
</event>
<event>
 4    1  0.2516086E+000  0.5116351E+02  0.7957747E-01  0.1439165E+00
         13   -1    0    0    0    0  0.00000000000E+00  0.00000000000E+00  0.99999944172E+02  0.99999999993E+02  0.10566000000E+00 0. -1.
         22   -1    0    0    0    0 -0.00000000000E+00 -0.00000000000E+00 -0.98728083165E+01  0.98728083165E+01  0.00000000000E+00 0. -1.
         13    1    1    2    0    0  0.54719945518E+01 -0.93681281366E+01  0.97138445217E+01  0.14562777502E+02  0.10566000000E+00 0.  1.
        996    1    1    2    0    0 -0.54719945518E+01  0.93681281366E+01  0.80413291334E+02  0.95310030807E+02  0.50000000000E+02 0.  0.
<mgrwt>
<rscale>  0 0.51163508E+02</rscale>
<asrwt>0</asrwt>
<pdfrwt beam="1">  1       13 0.10000000E+01 0.51163508E+02</pdfrwt>
<pdfrwt beam="2">  1       22 0.98728335E-01 0.51163508E+02</pdfrwt>
<totfact> 0.14332124E+00</totfact>
</mgrwt>
</event>
<event>
 4    1  0.2516086E+000  0.5223940E+02  0.7957747E-01  0.1433624E+00
         13   -1    0    0    0    0  0.00000000000E+00  0.00000000000E+00  0.99999944176E+02  0.99999999996E+02  0.10566000000E+00 0. -1.
         22   -1    0    0    0    0 -0.00000000000E+00 -0.00000000000E+00 -0.13239368394E+02  0.13239368394E+02  0.00000000000E+00 0.  1.
         13    1    1    2    0    0 -0.93870009226E+01 -0.11867572952E+02  0.44881900999E+01  0.15783221740E+02  0.10566000000E+00 0.  1.
        996    1    1    2    0    0  0.93870009226E+01  0.11867572952E+02  0.82272385682E+02  0.97456146650E+02  0.50000000000E+02 0.  0.
<mgrwt>
<rscale>  0 0.52239402E+02</rscale>
<asrwt>0</asrwt>
<pdfrwt beam="1">  1       13 0.10000000E+01 0.52239402E+02</pdfrwt>
<pdfrwt beam="2">  1       22 0.13239393E+00 0.52239402E+02</pdfrwt>
<totfact> 0.92275129E-01</totfact>
</mgrwt>
</event>
<event>
 4    1  0.2516086E+000  0.5317005E+02  0.7957747E-01  0.1428956E+00
         13   -1    0    0    0    0  0.00000000000E+00  0.00000000000E+00  0.99999944177E+02  0.99999999997E+02  0.10566000000E+00 0.  1.
         22   -1    0    0    0    0 -0.00000000000E+00 -0.00000000000E+00 -0.14706714028E+02  0.14706714028E+02  0.00000000000E+00 0. -1.
         13    1    1    2    0    0  0.15671466614E+02 -0.90254801683E+01  0.56516683515E+01  0.18947471528E+02  0.10566000000E+00 0. -1.
        996    1    1    2    0    0 -0.15671466614E+02  0.90254801683E+01  0.79641561797E+02  0.95759242497E+02  0.50000000000E+02 0.  0.
<mgrwt>
<rscale>  0 0.53170049E+02</rscale>
<asrwt>0</asrwt>
<pdfrwt beam="1">  1       13 0.10000000E+01 0.53170049E+02</pdfrwt>
<pdfrwt beam="2">  1       22 0.14706738E+00 0.53170049E+02</pdfrwt>
<totfact> 0.77984642E-01</totfact>
</mgrwt>
</event>
<event>
 4    1  0.2516086E+000  0.5718694E+02  0.7957747E-01  0.1410031E+00
         13   -1    0    0    0    0  0.00000000000E+00  0.00000000000E+00  0.99999944180E+02  0.10000000000E+03  0.10566000000E+00 0. -1.
         22   -1    0    0    0    0 -0.00000000000E+00 -0.00000000000E+00 -0.25117434201E+02  0.25117434201E+02  0.00000000000E+00 0.  1.
         13    1    1    2    0    0  0.45738368687E+01 -0.27375655347E+02 -0.36236879194E+01  0.27990869360E+02  0.10566000000E+00 0.  1.
        996    1    1    2    0    0 -0.45738368687E+01  0.27375655347E+02  0.78506197898E+02  0.97126564841E+02  0.50000000000E+02 0.  0.
<mgrwt>
<rscale>  0 0.57186943E+02</rscale>
<asrwt>0</asrwt>
<pdfrwt beam="1">  1       13 0.10000000E+01 0.57186943E+02</pdfrwt>
<pdfrwt beam="2">  1       22 0.25117455E+00 0.57186943E+02</pdfrwt>
<totfact> 0.29434806E-01</totfact>
</mgrwt>
</event>
<event>
 4    1  0.2516086E+000  0.5475880E+02  0.7957747E-01  0.1421243E+00
         13   -1    0    0    0    0  0.00000000000E+00  0.00000000000E+00  0.99999944180E+02  0.10000000000E+03  0.10566000000E+00 0.  1.
         22   -1    0    0    0    0 -0.00000000000E+00 -0.00000000000E+00 -0.36222842473E+02  0.36222842473E+02  0.00000000000E+00 0. -1.
         13    1    1    2    0    0 -0.20324013277E+02  0.92444912941E+01 -0.23990972265E+02  0.32773526653E+02  0.10566000000E+00 0. -1.
        996    1    1    2    0    0  0.20324013277E+02 -0.92444912941E+01  0.87768073972E+02  0.10344931582E+03  0.50000000000E+02 0.  0.
<mgrwt>
<rscale>  0 0.54758800E+02</rscale>
<asrwt>0</asrwt>
<pdfrwt beam="1">  1       13 0.10000000E+01 0.54758800E+02</pdfrwt>
<pdfrwt beam="2">  1       22 0.36222860E+00 0.54758800E+02</pdfrwt>
<totfact> 0.14838175E-01</totfact>
</mgrwt>
</event>
<event>
 4    1  0.2516086E+000  0.5203021E+02  0.7957747E-01  0.1434689E+00
         13   -1    0    0    0    0  0.00000000000E+00  0.00000000000E+00  0.99999944166E+02  0.99999999986E+02  0.10566000000E+00 0. -1.
         22   -1    0    0    0    0 -0.00000000000E+00 -0.00000000000E+00 -0.17891801572E+02  0.17891801572E+02  0.00000000000E+00 0.  1.
         13    1    1    2    0    0 -0.13593413454E+02 -0.47288672554E+01 -0.59794918080E+01  0.15585524090E+02  0.10566000000E+00 0.  1.
        996    1    1    2    0    0  0.13593413454E+02  0.47288672554E+01  0.88087634402E+02  0.10230627747E+03  0.50000000000E+02 0.  0.
<mgrwt>
<rscale>  0 0.52030213E+02</rscale>
<asrwt>0</asrwt>
<pdfrwt beam="1">  1       13 0.10000000E+01 0.52030213E+02</pdfrwt>
<pdfrwt beam="2">  1       22 0.17891824E+00 0.52030213E+02</pdfrwt>
<totfact> 0.55539948E-01</totfact>
</mgrwt>
</event>
<event>
 4    1  0.2516086E+000  0.5186661E+02  0.7957747E-01  0.1435526E+00
         13   -1    0    0    0    0  0.00000000000E+00  0.00000000000E+00  0.99999944180E+02  0.10000000000E+03  0.10566000000E+00 0.  1.
         22   -1    0    0    0    0 -0.00000000000E+00 -0.00000000000E+00 -0.38591616447E+02  0.38591616447E+02  0.00000000000E+00 0. -1.
         13    1    1    2    0    0  0.13376465390E+02  0.33490159128E+01 -0.30267460674E+02  0.33260728699E+02  0.10566000000E+00 0. -1.
        996    1    1    2    0    0 -0.13376465390E+02 -0.33490159128E+01  0.91675788407E+02  0.10533088775E+03  0.50000000000E+02 0.  0.
<mgrwt>
<rscale>  0 0.51866615E+02</rscale>
<asrwt>0</asrwt>
<pdfrwt beam="1">  1       13 0.10000000E+01 0.51866615E+02</pdfrwt>
<pdfrwt beam="2">  1       22 0.38591634E+00 0.51866615E+02</pdfrwt>
<totfact> 0.13217984E-01</totfact>
</mgrwt>
</event>
<event>
 4    1  0.2516086E+000  0.5482117E+02  0.7957747E-01  0.1420946E+00
         13   -1    0    0    0    0  0.00000000000E+00  0.00000000000E+00  0.99999944177E+02  0.99999999997E+02  0.10566000000E+00 0.  1.
         22   -1    0    0    0    0 -0.00000000000E+00 -0.00000000000E+00 -0.19765562054E+02  0.19765562054E+02  0.00000000000E+00 0.  1.
         13    1    1    2    0    0  0.22739151711E+01 -0.22364933819E+02 -0.13320372105E+00  0.22480877701E+02  0.10566000000E+00 0. -1.
        996    1    1    2    0    0 -0.22739151711E+01  0.22364933819E+02  0.80367585844E+02  0.97284684351E+02  0.50000000000E+02 0.  0.
<mgrwt>
<rscale>  0 0.54821173E+02</rscale>
<asrwt>0</asrwt>
<pdfrwt beam="1">  1       13 0.10000000E+01 0.54821173E+02</pdfrwt>
<pdfrwt beam="2">  1       22 0.19765584E+00 0.54821173E+02</pdfrwt>
<totfact> 0.46543299E-01</totfact>
</mgrwt>
</event>
<event>
 4    1  0.2516086E+000  0.5131142E+02  0.7957747E-01  0.1438394E+00
         13   -1    0    0    0    0  0.00000000000E+00  0.00000000000E+00  0.99999944179E+02  0.99999999999E+02  0.10566000000E+00 0.  1.
         22   -1    0    0    0    0 -0.00000000000E+00 -0.00000000000E+00 -0.98772245142E+01  0.98772245142E+01  0.00000000000E+00 0.  1.
         13    1    1    2    0    0  0.11525792499E+02  0.13386284323E+00  0.15538533700E+02  0.19347325540E+02  0.10566000000E+00 0. -1.
        996    1    1    2    0    0 -0.11525792499E+02 -0.13386284323E+00  0.74584185965E+02  0.90529898973E+02  0.50000000000E+02 0.  0.
<mgrwt>
<rscale>  0 0.51311420E+02</rscale>
<asrwt>0</asrwt>
<pdfrwt beam="1">  1       13 0.10000000E+01 0.51311420E+02</pdfrwt>
<pdfrwt beam="2">  1       22 0.98772497E-01 0.51311420E+02</pdfrwt>
<totfact> 0.14328056E+00</totfact>
</mgrwt>
</event>
<event>
 4    1  0.2516086E+000  0.5531198E+02  0.7957747E-01  0.1418629E+00
         13   -1    0    0    0    0  0.00000000000E+00  0.00000000000E+00  0.99999944167E+02  0.99999999987E+02  0.10566000000E+00 0.  1.
         22   -1    0    0    0    0 -0.00000000000E+00 -0.00000000000E+00 -0.22837835603E+02  0.22837835603E+02  0.00000000000E+00 0. -1.
         13    1    1    2    0    0  0.73119786202E+01  0.22493340375E+02 -0.46278996348E+01  0.24100705625E+02  0.10566000000E+00 0. -1.
        996    1    1    2    0    0 -0.73119786202E+01 -0.22493340375E+02  0.81790008199E+02  0.98737129965E+02  0.50000000000E+02 0.  0.
<mgrwt>
<rscale>  0 0.55311982E+02</rscale>
<asrwt>0</asrwt>
<pdfrwt beam="1">  1       13 0.10000000E+01 0.55311982E+02</pdfrwt>
<pdfrwt beam="2">  1       22 0.22837857E+00 0.55311982E+02</pdfrwt>
<totfact> 0.35374973E-01</totfact>
</mgrwt>
</event>
<event>
 4    1  0.2516086E+000  0.5477511E+02  0.7957747E-01  0.1421165E+00
         13   -1    0    0    0    0  0.00000000000E+00  0.00000000000E+00  0.99999944183E+02  0.10000000000E+03  0.10566000000E+00 0.  1.
         22   -1    0    0    0    0 -0.00000000000E+00 -0.00000000000E+00 -0.56126246049E+02  0.56126246049E+02  0.00000000000E+00 0. -1.
         13    1    1    2    0    0 -0.45544296516E+01 -0.21899085317E+02 -0.45843718145E+02  0.51009513079E+02  0.10566000000E+00 0. -1.
        996    1    1    2    0    0  0.45544296516E+01  0.21899085317E+02  0.89717416279E+02  0.10511673297E+03  0.50000000000E+02 0.  0.
<mgrwt>
<rscale>  0 0.54775111E+02</rscale>
<asrwt>0</asrwt>
<pdfrwt beam="1">  1       13 0.10000000E+01 0.54775111E+02</pdfrwt>
<pdfrwt beam="2">  1       22 0.56126258E+00 0.54775111E+02</pdfrwt>
<totfact> 0.58390559E-02</totfact>
</mgrwt>
</event>
<event>
 4    1  0.2516086E+000  0.5107003E+02  0.7957747E-01  0.1439654E+00
         13   -1    0    0    0    0  0.00000000000E+00  0.00000000000E+00  0.99999944178E+02  0.99999999998E+02  0.10566000000E+00 0. -1.
         22   -1    0    0    0    0 -0.00000000000E+00 -0.00000000000E+00 -0.34327991349E+02  0.34327991349E+02  0.00000000000E+00 0.  1.
         13    1    1    2    0    0  0.32836979321E+01  0.98673892403E+01 -0.26768835364E+02  0.28718108457E+02  0.10566000000E+00 0.  1.
        996    1    1    2    0    0 -0.32836979321E+01 -0.98673892403E+01  0.92440788193E+02  0.10560988289E+03  0.50000000000E+02 0.  0.
<mgrwt>
<rscale>  0 0.51070031E+02</rscale>
<asrwt>0</asrwt>
<pdfrwt beam="1">  1       13 0.10000000E+01 0.51070031E+02</pdfrwt>
<pdfrwt beam="2">  1       22 0.34328010E+00 0.51070031E+02</pdfrwt>
<totfact> 0.16238282E-01</totfact>
</mgrwt>
</event>
<event>
 4    1  0.2516086E+000  0.5099955E+02  0.7957747E-01  0.1440024E+00
         13   -1    0    0    0    0  0.00000000000E+00  0.00000000000E+00  0.99999944174E+02  0.99999999994E+02  0.10566000000E+00 0.  1.
         22   -1    0    0    0    0 -0.00000000000E+00 -0.00000000000E+00 -0.99968840143E+01  0.99968840143E+01  0.00000000000E+00 0. -1.
         13    1    1    2    0    0  0.50072504513E+01  0.87110098533E+01  0.59382759121E+01  0.11671698017E+02  0.10566000000E+00 0. -1.
        996    1    1    2    0    0 -0.50072504513E+01 -0.87110098533E+01  0.84064784247E+02  0.98325185992E+02  0.50000000000E+02 0.  0.
<mgrwt>
<rscale>  0 0.50999551E+02</rscale>
<asrwt>0</asrwt>
<pdfrwt beam="1">  1       13 0.10000000E+01 0.50999551E+02</pdfrwt>
<pdfrwt beam="2">  1       22 0.99969091E-01 0.50999551E+02</pdfrwt>
<totfact> 0.14070072E+00</totfact>
</mgrwt>
</event>
<event>
 4    1  0.2516086E+000  0.5302544E+02  0.7957747E-01  0.1429674E+00
         13   -1    0    0    0    0  0.00000000000E+00  0.00000000000E+00  0.99999944174E+02  0.99999999994E+02  0.10566000000E+00 0.  1.
         22   -1    0    0    0    0 -0.00000000000E+00 -0.00000000000E+00 -0.26961613484E+02  0.26961613484E+02  0.00000000000E+00 0. -1.
         13    1    1    2    0    0 -0.67762277904E+01 -0.16302752983E+02 -0.15674631434E+02  0.23609367897E+02  0.10566000000E+00 0. -1.
        996    1    1    2    0    0  0.67762277904E+01  0.16302752983E+02  0.88712962124E+02  0.10335224558E+03  0.50000000000E+02 0.  0.
<mgrwt>
<rscale>  0 0.53025437E+02</rscale>
<asrwt>0</asrwt>
<pdfrwt beam="1">  1       13 0.10000000E+01 0.53025437E+02</pdfrwt>
<pdfrwt beam="2">  1       22 0.26961634E+00 0.53025437E+02</pdfrwt>
<totfact> 0.25451157E-01</totfact>
</mgrwt>
</event>
<event>
 4    1  0.2516086E+000  0.5449935E+02  0.7957747E-01  0.1422481E+00
         13   -1    0    0    0    0  0.00000000000E+00  0.00000000000E+00  0.99999944176E+02  0.99999999997E+02  0.10566000000E+00 0. -1.
         22   -1    0    0    0    0 -0.00000000000E+00 -0.00000000000E+00 -0.46454238517E+02  0.46454238517E+02  0.00000000000E+00 0.  1.
         13    1    1    2    0    0  0.50210126927E+01  0.21094287240E+02 -0.35766979163E+02  0.41826636072E+02  0.10566000000E+00 0.  1.
        996    1    1    2    0    0 -0.50210126927E+01 -0.21094287240E+02  0.89312684822E+02  0.10462760244E+03  0.50000000000E+02 0.  0.
<mgrwt>
<rscale>  0 0.54499353E+02</rscale>
<asrwt>0</asrwt>
<pdfrwt beam="1">  1       13 0.10000000E+01 0.54499353E+02</pdfrwt>
<pdfrwt beam="2">  1       22 0.46454253E+00 0.54499353E+02</pdfrwt>
<totfact> 0.89594918E-02</totfact>
</mgrwt>
</event>
<event>
 4    1  0.2516086E+000  0.5178437E+02  0.7957747E-01  0.1435948E+00
         13   -1    0    0    0    0  0.00000000000E+00  0.00000000000E+00  0.99999944177E+02  0.99999999998E+02  0.10566000000E+00 0.  1.
         22   -1    0    0    0    0 -0.00000000000E+00 -0.00000000000E+00 -0.10797332091E+02  0.10797332091E+02  0.00000000000E+00 0.  1.
         13    1    1    2    0    0  0.12093524916E+02 -0.59470854536E+01  0.13483765360E+02  0.19064214188E+02  0.10566000000E+00 0. -1.
        996    1    1    2    0    0 -0.12093524916E+02  0.59470854536E+01  0.75718846727E+02  0.91733117901E+02  0.50000000000E+02 0.  0.
<mgrwt>
<rscale>  0 0.51784372E+02</rscale>
<asrwt>0</asrwt>
<pdfrwt beam="1">  1       13 0.10000000E+01 0.51784372E+02</pdfrwt>
<pdfrwt beam="2">  1       22 0.10797357E+00 0.51784372E+02</pdfrwt>
<totfact> 0.12593853E+00</totfact>
</mgrwt>
</event>
<event>
 4    1  0.2516086E+000  0.5135605E+02  0.7957747E-01  0.1438162E+00
         13   -1    0    0    0    0  0.00000000000E+00  0.00000000000E+00  0.99999944179E+02  0.99999999999E+02  0.10566000000E+00 0.  1.
         22   -1    0    0    0    0 -0.00000000000E+00 -0.00000000000E+00 -0.10559603044E+02  0.10559603044E+02  0.00000000000E+00 0.  1.
         13    1    1    2    0    0 -0.67049016412E+00  0.11704472420E+02  0.28797577218E+02  0.31092697685E+02  0.10566000000E+00 0. -1.
        996    1    1    2    0    0  0.67049016412E+00 -0.11704472420E+02  0.60642763917E+02  0.79466905358E+02  0.50000000000E+02 0.  0.
<mgrwt>
<rscale>  0 0.51356054E+02</rscale>
<asrwt>0</asrwt>
<pdfrwt beam="1">  1       13 0.10000000E+01 0.51356054E+02</pdfrwt>
<pdfrwt beam="2">  1       22 0.10559628E+00 0.51356054E+02</pdfrwt>
<totfact> 0.13001076E+00</totfact>
</mgrwt>
</event>
<event>
 4    1  0.2516086E+000  0.5549280E+02  0.7957747E-01  0.1417783E+00
         13   -1    0    0    0    0  0.00000000000E+00  0.00000000000E+00  0.99999944182E+02  0.10000000000E+03  0.10566000000E+00 0. -1.
         22   -1    0    0    0    0 -0.00000000000E+00 -0.00000000000E+00 -0.52741641548E+02  0.52741641548E+02  0.00000000000E+00 0.  1.
         13    1    1    2    0    0 -0.67376962650E+01 -0.23109611726E+02 -0.41551056390E+02  0.48020330655E+02  0.10566000000E+00 0.  1.
        996    1    1    2    0    0  0.67376962650E+01  0.23109611726E+02  0.88809359025E+02  0.10472131089E+03  0.50000000000E+02 0.  0.
<mgrwt>
<rscale>  0 0.55492799E+02</rscale>
<asrwt>0</asrwt>
<pdfrwt beam="1">  1       13 0.10000000E+01 0.55492799E+02</pdfrwt>
<pdfrwt beam="2">  1       22 0.52741655E+00 0.55492799E+02</pdfrwt>
<totfact> 0.64000455E-02</totfact>
</mgrwt>
</event>
<event>
 4    1  0.2516086E+000  0.5155609E+02  0.7957747E-01  0.1437125E+00
         13   -1    0    0    0    0  0.00000000000E+00  0.00000000000E+00  0.99999944188E+02  0.10000000001E+03  0.10566000000E+00 0.  1.
         22   -1    0    0    0    0 -0.00000000000E+00 -0.00000000000E+00 -0.18139767713E+02  0.18139767713E+02  0.00000000000E+00 0. -1.
         13    1    1    2    0    0  0.12560388180E+02 -0.51726582397E+00 -0.77417697233E+01  0.14764046791E+02  0.10566000000E+00 0. -1.
        996    1    1    2    0    0 -0.12560388180E+02  0.51726582397E+00  0.89601946199E+02  0.10337572093E+03  0.50000000000E+02 0.  0.
<mgrwt>
<rscale>  0 0.51556095E+02</rscale>
<asrwt>0</asrwt>
<pdfrwt beam="1">  1       13 0.10000000E+01 0.51556095E+02</pdfrwt>
<pdfrwt beam="2">  1       22 0.18139791E+00 0.51556095E+02</pdfrwt>
<totfact> 0.54137154E-01</totfact>
</mgrwt>
</event>
<event>
 4    1  0.2516086E+000  0.5103735E+02  0.7957747E-01  0.1439825E+00
         13   -1    0    0    0    0  0.00000000000E+00  0.00000000000E+00  0.99999944178E+02  0.99999999998E+02  0.10566000000E+00 0.  1.
         22   -1    0    0    0    0 -0.00000000000E+00 -0.00000000000E+00 -0.10680217664E+02  0.10680217664E+02  0.00000000000E+00 0.  1.
         13    1    1    2    0    0  0.10204054347E+02  0.82952806185E+00  0.34791988885E+01  0.10813271053E+02  0.10566000000E+00 0. -1.
        996    1    1    2    0    0 -0.10204054347E+02 -0.82952806185E+00  0.85840527626E+02  0.99866946609E+02  0.50000000000E+02 0.  0.
<mgrwt>
<rscale>  0 0.51037348E+02</rscale>
<asrwt>0</asrwt>
<pdfrwt beam="1">  1       13 0.10000000E+01 0.51037348E+02</pdfrwt>
<pdfrwt beam="2">  1       22 0.10680243E+00 0.51037348E+02</pdfrwt>
<totfact> 0.12775815E+00</totfact>
</mgrwt>
</event>
<event>
 4    1  0.2516086E+000  0.5922576E+02  0.7957747E-01  0.1401110E+00
         13   -1    0    0    0    0  0.00000000000E+00  0.00000000000E+00  0.99999944178E+02  0.99999999999E+02  0.10566000000E+00 0.  1.
         22   -1    0    0    0    0 -0.00000000000E+00 -0.00000000000E+00 -0.31363754312E+02  0.31363754312E+02  0.00000000000E+00 0. -1.
         13    1    1    2    0    0 -0.31100493253E+01 -0.31591419151E+02 -0.96682173170E+01  0.33183968432E+02  0.10566000000E+00 0. -1.
        996    1    1    2    0    0  0.31100493253E+01  0.31591419151E+02  0.78304407183E+02  0.98179785878E+02  0.50000000000E+02 0.  0.
<mgrwt>
<rscale>  0 0.59225756E+02</rscale>
<asrwt>0</asrwt>
<pdfrwt beam="1">  1       13 0.10000000E+01 0.59225756E+02</pdfrwt>
<pdfrwt beam="2">  1       22 0.31363773E+00 0.59225756E+02</pdfrwt>
<totfact> 0.19237135E-01</totfact>
</mgrwt>
</event>
<event>
 4    1  0.2516086E+000  0.5345136E+02  0.7957747E-01  0.1427568E+00
         13   -1    0    0    0    0  0.00000000000E+00  0.00000000000E+00  0.99999944170E+02  0.99999999990E+02  0.10566000000E+00 0.  1.
         22   -1    0    0    0    0 -0.00000000000E+00 -0.00000000000E+00 -0.13915452955E+02  0.13915452955E+02  0.00000000000E+00 0.  1.
         13    1    1    2    0    0 -0.97748054204E+00 -0.18870397010E+02  0.11380881364E+02  0.22058625891E+02  0.10566000000E+00 0. -1.
        996    1    1    2    0    0  0.97748054204E+00  0.18870397010E+02  0.74703609852E+02  0.91856827054E+02  0.50000000000E+02 0.  0.
<mgrwt>
<rscale>  0 0.53451355E+02</rscale>
<asrwt>0</asrwt>
<pdfrwt beam="1">  1       13 0.10000000E+01 0.53451355E+02</pdfrwt>
<pdfrwt beam="2">  1       22 0.13915477E+00 0.53451355E+02</pdfrwt>
<totfact> 0.85415513E-01</totfact>
</mgrwt>
</event>
<event>
 4    1  0.2516086E+000  0.5226885E+02  0.7957747E-01  0.1433475E+00
         13   -1    0    0    0    0  0.00000000000E+00  0.00000000000E+00  0.99999944179E+02  0.99999999999E+02  0.10566000000E+00 0. -1.
         22   -1    0    0    0    0 -0.00000000000E+00 -0.00000000000E+00 -0.16327322931E+02  0.16327322931E+02  0.00000000000E+00 0.  1.
         13    1    1    2    0    0  0.25906920252E+01 -0.15010708279E+02 -0.26027699979E+01  0.15453757599E+02  0.10566000000E+00 0.  1.
        996    1    1    2    0    0 -0.25906920252E+01  0.15010708279E+02  0.86275391245E+02  0.10087356533E+03  0.50000000000E+02 0.  0.
<mgrwt>
<rscale>  0 0.52268854E+02</rscale>
<asrwt>0</asrwt>
<pdfrwt beam="1">  1       13 0.10000000E+01 0.52268854E+02</pdfrwt>
<pdfrwt beam="2">  1       22 0.16327346E+00 0.52268854E+02</pdfrwt>
<totfact> 0.65252165E-01</totfact>
</mgrwt>
</event>
<event>
 4    1  0.2516086E+000  0.5313332E+02  0.7957747E-01  0.1429139E+00
         13   -1    0    0    0    0  0.00000000000E+00  0.00000000000E+00  0.99999944182E+02  0.10000000000E+03  0.10566000000E+00 0. -1.
         22   -1    0    0    0    0 -0.00000000000E+00 -0.00000000000E+00 -0.14454941495E+02  0.14454941495E+02  0.00000000000E+00 0.  1.
         13    1    1    2    0    0  0.17498634138E+02  0.41167902085E+01  0.63058880719E+01  0.19050604891E+02  0.10566000000E+00 0.  1.
        996    1    1    2    0    0 -0.17498634138E+02 -0.41167902085E+01  0.79239114615E+02  0.95404336606E+02  0.50000000000E+02 0.  0.
<mgrwt>
<rscale>  0 0.53133324E+02</rscale>
<asrwt>0</asrwt>
<pdfrwt beam="1">  1       13 0.10000000E+01 0.53133324E+02</pdfrwt>
<pdfrwt beam="2">  1       22 0.14454965E+00 0.53133324E+02</pdfrwt>
<totfact> 0.80229016E-01</totfact>
</mgrwt>
</event>
<event>
 4    1  0.2516086E+000  0.5569543E+02  0.7957747E-01  0.1416838E+00
         13   -1    0    0    0    0  0.00000000000E+00  0.00000000000E+00  0.99999944183E+02  0.10000000000E+03  0.10566000000E+00 0. -1.
         22   -1    0    0    0    0 -0.00000000000E+00 -0.00000000000E+00 -0.16495413034E+02  0.16495413034E+02  0.00000000000E+00 0.  1.
         13    1    1    2    0    0  0.23577285468E+02 -0.67891594920E+01  0.17525707875E+02  0.30151992922E+02  0.10566000000E+00 0.  1.
        996    1    1    2    0    0 -0.23577285468E+02  0.67891594920E+01  0.65978823273E+02  0.86343420115E+02  0.50000000000E+02 0.  0.
<mgrwt>
<rscale>  0 0.55695431E+02</rscale>
<asrwt>0</asrwt>
<pdfrwt beam="1">  1       13 0.10000000E+01 0.55695431E+02</pdfrwt>
<pdfrwt beam="2">  1       22 0.16495436E+00 0.55695431E+02</pdfrwt>
<totfact> 0.64523276E-01</totfact>
</mgrwt>
</event>
<event>
 4    1  0.2516086E+000  0.5646266E+02  0.7957747E-01  0.1413306E+00
         13   -1    0    0    0    0  0.00000000000E+00  0.00000000000E+00  0.99999944175E+02  0.99999999996E+02  0.10566000000E+00 0.  1.
         22   -1    0    0    0    0 -0.00000000000E+00 -0.00000000000E+00 -0.18078273454E+02  0.18078273454E+02  0.00000000000E+00 0. -1.
         13    1    1    2    0    0  0.17270823716E+02  0.19742099921E+02  0.13933274096E+02  0.29701500841E+02  0.10566000000E+00 0. -1.
        996    1    1    2    0    0 -0.17270823716E+02 -0.19742099921E+02  0.67988396625E+02  0.88376772609E+02  0.50000000000E+02 0.  0.
<mgrwt>
<rscale>  0 0.56462659E+02</rscale>
<asrwt>0</asrwt>
<pdfrwt beam="1">  1       13 0.10000000E+01 0.56462659E+02</pdfrwt>
<pdfrwt beam="2">  1       22 0.18078296E+00 0.56462659E+02</pdfrwt>
<totfact> 0.54954419E-01</totfact>
</mgrwt>
</event>
<event>
 4    1  0.2516086E+000  0.6388469E+02  0.7957747E-01  0.1382217E+00
         13   -1    0    0    0    0  0.00000000000E+00  0.00000000000E+00  0.99999944176E+02  0.99999999996E+02  0.10566000000E+00 0.  1.
         22   -1    0    0    0    0 -0.00000000000E+00 -0.00000000000E+00 -0.26985666746E+02  0.26985666746E+02  0.00000000000E+00 0.  1.
         13    1    1    2    0    0 -0.42467497047E+01  0.39537566379E+02  0.32296598300E+02  0.51228268212E+02  0.10566000000E+00 0. -1.
        996    1    1    2    0    0  0.42467497047E+01 -0.39537566379E+02  0.40717679130E+02  0.75757398529E+02  0.50000000000E+02 0.  0.
<mgrwt>
<rscale>  0 0.63884693E+02</rscale>
<asrwt>0</asrwt>
<pdfrwt beam="1">  1       13 0.10000000E+01 0.63884693E+02</pdfrwt>
<pdfrwt beam="2">  1       22 0.26985687E+00 0.63884693E+02</pdfrwt>
<totfact> 0.25769533E-01</totfact>
</mgrwt>
</event>
<event>
 4    1  0.2516086E+000  0.5179224E+02  0.7957747E-01  0.1435908E+00
         13   -1    0    0    0    0  0.00000000000E+00  0.00000000000E+00  0.99999944182E+02  0.10000000000E+03  0.10566000000E+00 0.  1.
         22   -1    0    0    0    0 -0.00000000000E+00 -0.00000000000E+00 -0.11073713532E+02  0.11073713532E+02  0.00000000000E+00 0. -1.
         13    1    1    2    0    0 -0.11121167440E+02 -0.76652573293E+01  0.10588245936E+02  0.17162711067E+02  0.10566000000E+00 0. -1.
        996    1    1    2    0    0  0.11121167440E+02  0.76652573293E+01  0.78337984714E+02  0.93911002466E+02  0.50000000000E+02 0.  0.
<mgrwt>
<rscale>  0 0.51792244E+02</rscale>
<asrwt>0</asrwt>
<pdfrwt beam="1">  1       13 0.10000000E+01 0.51792244E+02</pdfrwt>
<pdfrwt beam="2">  1       22 0.11073738E+00 0.51792244E+02</pdfrwt>
<totfact> 0.12130090E+00</totfact>
</mgrwt>
</event>
<event>
 4    1  0.2516086E+000  0.5219065E+02  0.7957747E-01  0.1433872E+00
         13   -1    0    0    0    0  0.00000000000E+00  0.00000000000E+00  0.99999944178E+02  0.99999999998E+02  0.10566000000E+00 0.  1.
         22   -1    0    0    0    0 -0.00000000000E+00 -0.00000000000E+00 -0.11285132297E+02  0.11285132297E+02  0.00000000000E+00 0.  1.
         13    1    1    2    0    0  0.33856587623E+01  0.14573994316E+02  0.21257456902E+02  0.25995280986E+02  0.10566000000E+00 0. -1.
        996    1    1    2    0    0 -0.33856587623E+01 -0.14573994316E+02  0.67457354979E+02  0.85289851309E+02  0.50000000000E+02 0.  0.
<mgrwt>
<rscale>  0 0.52190650E+02</rscale>
<asrwt>0</asrwt>
<pdfrwt beam="1">  1       13 0.10000000E+01 0.52190650E+02</pdfrwt>
<pdfrwt beam="2">  1       22 0.11285157E+00 0.52190650E+02</pdfrwt>
<totfact> 0.11802684E+00</totfact>
</mgrwt>
</event>
<event>
 4    1  0.2516086E+000  0.5332526E+02  0.7957747E-01  0.1428189E+00
         13   -1    0    0    0    0  0.00000000000E+00  0.00000000000E+00  0.99999944172E+02  0.99999999992E+02  0.10566000000E+00 0. -1.
         22   -1    0    0    0    0 -0.00000000000E+00 -0.00000000000E+00 -0.32922531764E+02  0.32922531764E+02  0.00000000000E+00 0. -1.
         13    1    1    2    0    0  0.18523832385E+02  0.67185839132E+00 -0.22206622887E+02  0.28926268753E+02  0.10566000000E+00 0.  1.
        996    1    1    2    0    0 -0.18523832385E+02 -0.67185839132E+00  0.89284035295E+02  0.10399626300E+03  0.50000000000E+02 0.  0.
<mgrwt>
<rscale>  0 0.53325264E+02</rscale>
<asrwt>0</asrwt>
<pdfrwt beam="1">  1       13 0.10000000E+01 0.53325264E+02</pdfrwt>
<pdfrwt beam="2">  1       22 0.32922550E+00 0.53325264E+02</pdfrwt>
<totfact> 0.17517654E-01</totfact>
</mgrwt>
</event>
<event>
 4    1  0.2516086E+000  0.5355708E+02  0.7957747E-01  0.1427048E+00
         13   -1    0    0    0    0  0.00000000000E+00  0.00000000000E+00  0.99999944184E+02  0.10000000000E+03  0.10566000000E+00 0. -1.
         22   -1    0    0    0    0 -0.00000000000E+00 -0.00000000000E+00 -0.13505596457E+02  0.13505596457E+02  0.00000000000E+00 0.  1.
         13    1    1    2    0    0 -0.13715637087E+02 -0.13425419258E+02  0.16085701751E+02  0.25042395009E+02  0.10566000000E+00 0.  1.
        996    1    1    2    0    0  0.13715637087E+02  0.13425419258E+02  0.70408645976E+02  0.88463201452E+02  0.50000000000E+02 0.  0.
<mgrwt>
<rscale>  0 0.53557078E+02</rscale>
<asrwt>0</asrwt>
<pdfrwt beam="1">  1       13 0.10000000E+01 0.53557078E+02</pdfrwt>
<pdfrwt beam="2">  1       22 0.13505621E+00 0.53557078E+02</pdfrwt>
<totfact> 0.89643060E-01</totfact>
</mgrwt>
</event>
<event>
 4    1  0.2516086E+000  0.5108950E+02  0.7957747E-01  0.1439552E+00
         13   -1    0    0    0    0  0.00000000000E+00  0.00000000000E+00  0.99999944172E+02  0.99999999993E+02  0.10566000000E+00 0.  1.
         22   -1    0    0    0    0 -0.00000000000E+00 -0.00000000000E+00 -0.29797771049E+02  0.29797771049E+02  0.00000000000E+00 0. -1.
         13    1    1    2    0    0 -0.99351529147E+01 -0.33808518651E+01 -0.22006800086E+02  0.24381300967E+02  0.10566000000E+00 0. -1.
        996    1    1    2    0    0  0.99351529147E+01  0.33808518651E+01  0.92208973209E+02  0.10541647008E+03  0.50000000000E+02 0.  0.
<mgrwt>
<rscale>  0 0.51089504E+02</rscale>
<asrwt>0</asrwt>
<pdfrwt beam="1">  1       13 0.10000000E+01 0.51089504E+02</pdfrwt>
<pdfrwt beam="2">  1       22 0.29797791E+00 0.51089504E+02</pdfrwt>
<totfact> 0.20941599E-01</totfact>
</mgrwt>
</event>
<event>
 4    1  0.2516086E+000  0.5119332E+02  0.7957747E-01  0.1439009E+00
         13   -1    0    0    0    0  0.00000000000E+00  0.00000000000E+00  0.99999944172E+02  0.99999999992E+02  0.10566000000E+00 0.  1.
         22   -1    0    0    0    0 -0.00000000000E+00 -0.00000000000E+00 -0.10827556350E+02  0.10827556350E+02  0.00000000000E+00 0. -1.
         13    1    1    2    0    0 -0.10607703103E+01  0.10937565856E+02  0.44848604913E+01  0.11869318353E+02  0.10566000000E+00 0. -1.
        996    1    1    2    0    0  0.10607703103E+01 -0.10937565856E+02  0.84687527331E+02  0.98958237989E+02  0.50000000000E+02 0.  0.
<mgrwt>
<rscale>  0 0.51193316E+02</rscale>
<asrwt>0</asrwt>
<pdfrwt beam="1">  1       13 0.10000000E+01 0.51193316E+02</pdfrwt>
<pdfrwt beam="2">  1       22 0.10827581E+00 0.51193316E+02</pdfrwt>
<totfact> 0.12524453E+00</totfact>
</mgrwt>
</event>
<event>
 4    1  0.2516086E+000  0.5106127E+02  0.7957747E-01  0.1439700E+00
         13   -1    0    0    0    0  0.00000000000E+00  0.00000000000E+00  0.99999944177E+02  0.99999999997E+02  0.10566000000E+00 0. -1.
         22   -1    0    0    0    0 -0.00000000000E+00 -0.00000000000E+00 -0.12250183015E+02  0.12250183015E+02  0.00000000000E+00 0.  1.
         13    1    1    2    0    0  0.62572747182E+01  0.82522618908E+01 -0.41650626978E+00  0.10365228156E+02  0.10566000000E+00 0.  1.
        996    1    1    2    0    0 -0.62572747182E+01 -0.82522618908E+01  0.88166267431E+02  0.10188495486E+03  0.50000000000E+02 0.  0.
<mgrwt>
<rscale>  0 0.51061270E+02</rscale>
<asrwt>0</asrwt>
<pdfrwt beam="1">  1       13 0.10000000E+01 0.51061270E+02</pdfrwt>
<pdfrwt beam="2">  1       22 0.12250208E+00 0.51061270E+02</pdfrwt>
<totfact> 0.10391921E+00</totfact>
</mgrwt>
</event>
<event>
 4    1  0.2516086E+000  0.5162662E+02  0.7957747E-01  0.1436760E+00
         13   -1    0    0    0    0  0.00000000000E+00  0.00000000000E+00  0.99999944180E+02  0.10000000000E+03  0.10566000000E+00 0.  1.
         22   -1    0    0    0    0 -0.00000000000E+00 -0.00000000000E+00 -0.10827029434E+02  0.10827029434E+02  0.00000000000E+00 0.  1.
         13    1    1    2    0    0 -0.50347357684E+01  0.11830433575E+02  0.27787762296E+02  0.30618272654E+02  0.10566000000E+00 0. -1.
        996    1    1    2    0    0  0.50347357684E+01 -0.11830433575E+02  0.61385152450E+02  0.80208756780E+02  0.50000000000E+02 0.  0.
<mgrwt>
<rscale>  0 0.51626618E+02</rscale>
<asrwt>0</asrwt>
<pdfrwt beam="1">  1       13 0.10000000E+01 0.51626618E+02</pdfrwt>
<pdfrwt beam="2">  1       22 0.10827054E+00 0.51626618E+02</pdfrwt>
<totfact> 0.12538129E+00</totfact>
</mgrwt>
</event>
<event>
 4    1  0.2516086E+000  0.6580202E+02  0.7957747E-01  0.1374980E+00
         13   -1    0    0    0    0  0.00000000000E+00  0.00000000000E+00  0.99999944178E+02  0.99999999998E+02  0.10566000000E+00 0.  1.
         22   -1    0    0    0    0 -0.00000000000E+00 -0.00000000000E+00 -0.30758976338E+02  0.30758976338E+02  0.00000000000E+00 0. -1.
         13    1    1    2    0    0  0.40836466805E+02  0.12739253259E+02  0.14512827597E+02  0.45172324753E+02  0.10566000000E+00 0. -1.
        996    1    1    2    0    0 -0.40836466805E+02 -0.12739253259E+02  0.54728140242E+02  0.85586651583E+02  0.50000000000E+02 0.  0.
<mgrwt>
<rscale>  0 0.65802018E+02</rscale>
<asrwt>0</asrwt>
<pdfrwt beam="1">  1       13 0.10000000E+01 0.65802018E+02</pdfrwt>
<pdfrwt beam="2">  1       22 0.30758996E+00 0.65802018E+02</pdfrwt>
<totfact> 0.20075923E-01</totfact>
</mgrwt>
</event>
<event>
 4    1  0.2516086E+000  0.5197222E+02  0.7957747E-01  0.1434985E+00
         13   -1    0    0    0    0  0.00000000000E+00  0.00000000000E+00  0.99999944182E+02  0.10000000000E+03  0.10566000000E+00 0. -1.
         22   -1    0    0    0    0 -0.00000000000E+00 -0.00000000000E+00 -0.13495677820E+02  0.13495677820E+02  0.00000000000E+00 0. -1.
         13    1    1    2    0    0  0.12485364291E+02 -0.67251057678E+01  0.20474219892E+01  0.14328798621E+02  0.10566000000E+00 0.  1.
        996    1    1    2    0    0 -0.12485364291E+02  0.67251057678E+01  0.84456844373E+02  0.99166879202E+02  0.50000000000E+02 0.  0.
<mgrwt>
<rscale>  0 0.51972217E+02</rscale>
<asrwt>0</asrwt>
<pdfrwt beam="1">  1       13 0.10000000E+01 0.51972217E+02</pdfrwt>
<pdfrwt beam="2">  1       22 0.13495702E+00 0.51972217E+02</pdfrwt>
<totfact> 0.89450163E-01</totfact>
</mgrwt>
</event>
<event>
 4    1  0.2516086E+000  0.6570942E+02  0.7957747E-01  0.1375323E+00
         13   -1    0    0    0    0  0.00000000000E+00  0.00000000000E+00  0.99999944176E+02  0.99999999997E+02  0.10566000000E+00 0.  1.
         22   -1    0    0    0    0 -0.00000000000E+00 -0.00000000000E+00 -0.29391278033E+02  0.29391278033E+02  0.00000000000E+00 0. -1.
         13    1    1    2    0    0 -0.31088112030E+02 -0.29176306512E+02  0.25322280401E+02  0.49587867670E+02  0.10566000000E+00 0. -1.
        996    1    1    2    0    0  0.31088112030E+02  0.29176306512E+02  0.45286385742E+02  0.79803410359E+02  0.50000000000E+02 0.  0.
<mgrwt>
<rscale>  0 0.65709418E+02</rscale>
<asrwt>0</asrwt>
<pdfrwt beam="1">  1       13 0.10000000E+01 0.65709418E+02</pdfrwt>
<pdfrwt beam="2">  1       22 0.29391298E+00 0.65709418E+02</pdfrwt>
<totfact> 0.21871239E-01</totfact>
</mgrwt>
</event>
<event>
 4    1  0.2516086E+000  0.5209641E+02  0.7957747E-01  0.1434351E+00
         13   -1    0    0    0    0  0.00000000000E+00  0.00000000000E+00  0.99999944181E+02  0.10000000000E+03  0.10566000000E+00 0. -1.
         22   -1    0    0    0    0 -0.00000000000E+00 -0.00000000000E+00 -0.15767280841E+02  0.15767280841E+02  0.00000000000E+00 0.  1.
         13    1    1    2    0    0  0.36439671704E+01 -0.14168894724E+02 -0.22530878761E+01  0.14802825523E+02  0.10566000000E+00 0.  1.
        996    1    1    2    0    0 -0.36439671704E+01  0.14168894724E+02  0.86485751217E+02  0.10096445532E+03  0.50000000000E+02 0.  0.
<mgrwt>
<rscale>  0 0.52096411E+02</rscale>
<asrwt>0</asrwt>
<pdfrwt beam="1">  1       13 0.10000000E+01 0.52096411E+02</pdfrwt>
<pdfrwt beam="2">  1       22 0.15767304E+00 0.52096411E+02</pdfrwt>
<totfact> 0.69245688E-01</totfact>
</mgrwt>
</event>
<event>
 4    1  0.2516086E+000  0.5255216E+02  0.7957747E-01  0.1432043E+00
         13   -1    0    0    0    0  0.00000000000E+00  0.00000000000E+00  0.99999944185E+02  0.10000000001E+03  0.10566000000E+00 0.  1.
         22   -1    0    0    0    0 -0.00000000000E+00 -0.00000000000E+00 -0.16366944357E+02  0.16366944357E+02  0.00000000000E+00 0. -1.
         13    1    1    2    0    0  0.15859914724E+02  0.31926433762E+01 -0.15765227151E+01  0.16255043977E+02  0.10566000000E+00 0. -1.
        996    1    1    2    0    0 -0.15859914724E+02 -0.31926433762E+01  0.85209522543E+02  0.10011190039E+03  0.50000000000E+02 0.  0.
<mgrwt>
<rscale>  0 0.52552163E+02</rscale>
<asrwt>0</asrwt>
<pdfrwt beam="1">  1       13 0.10000000E+01 0.52552163E+02</pdfrwt>
<pdfrwt beam="2">  1       22 0.16366968E+00 0.52552163E+02</pdfrwt>
<totfact> 0.65015927E-01</totfact>
</mgrwt>
</event>
<event>
 4    1  0.2516086E+000  0.5366314E+02  0.7957747E-01  0.1426529E+00
         13   -1    0    0    0    0  0.00000000000E+00  0.00000000000E+00  0.99999944174E+02  0.99999999994E+02  0.10566000000E+00 0. -1.
         22   -1    0    0    0    0 -0.00000000000E+00 -0.00000000000E+00 -0.19181832554E+02  0.19181832554E+02  0.00000000000E+00 0. -1.
         13    1    1    2    0    0 -0.11794797353E+02  0.15511776758E+02 -0.29399020203E+01  0.19707527767E+02  0.10566000000E+00 0.  1.
        996    1    1    2    0    0  0.11794797353E+02 -0.15511776758E+02  0.83758013640E+02  0.99474304781E+02  0.50000000000E+02 0.  0.
<mgrwt>
<rscale>  0 0.53663139E+02</rscale>
<asrwt>0</asrwt>
<pdfrwt beam="1">  1       13 0.10000000E+01 0.53663139E+02</pdfrwt>
<pdfrwt beam="2">  1       22 0.19181855E+00 0.53663139E+02</pdfrwt>
<totfact> 0.49097679E-01</totfact>
</mgrwt>
</event>
<event>
 4    1  0.2516086E+000  0.5151305E+02  0.7957747E-01  0.1437347E+00
         13   -1    0    0    0    0  0.00000000000E+00  0.00000000000E+00  0.99999944179E+02  0.99999999999E+02  0.10566000000E+00 0. -1.
         22   -1    0    0    0    0 -0.00000000000E+00 -0.00000000000E+00 -0.16005632760E+02  0.16005632760E+02  0.00000000000E+00 0.  1.
         13    1    1    2    0    0 -0.89524007993E+01  0.85702137456E+01 -0.48488371530E+01  0.13308509664E+02  0.10566000000E+00 0.  1.
        996    1    1    2    0    0  0.89524007993E+01 -0.85702137456E+01  0.88843148572E+02  0.10269712309E+03  0.50000000000E+02 0.  0.
<mgrwt>
<rscale>  0 0.51513047E+02</rscale>
<asrwt>0</asrwt>
<pdfrwt beam="1">  1       13 0.10000000E+01 0.51513047E+02</pdfrwt>
<pdfrwt beam="2">  1       22 0.16005656E+00 0.51513047E+02</pdfrwt>
<totfact> 0.67418493E-01</totfact>
</mgrwt>
</event>
<event>
 4    1  0.2516086E+000  0.5200079E+02  0.7957747E-01  0.1434839E+00
         13   -1    0    0    0    0  0.00000000000E+00  0.00000000000E+00  0.99999944178E+02  0.99999999999E+02  0.10566000000E+00 0.  1.
         22   -1    0    0    0    0 -0.00000000000E+00 -0.00000000000E+00 -0.24539655303E+02  0.24539655303E+02  0.00000000000E+00 0.  1.
         13    1    1    2    0    0  0.94093731062E+01 -0.10749241765E+02  0.70916009341E+02  0.72340680434E+02  0.10566000000E+00 0. -1.
        996    1    1    2    0    0 -0.94093731062E+01  0.10749241765E+02  0.45442795336E+01  0.52198974868E+02  0.50000000000E+02 0.  0.
<mgrwt>
<rscale>  0 0.52000793E+02</rscale>
<asrwt>0</asrwt>
<pdfrwt beam="1">  1       13 0.10000000E+01 0.52000793E+02</pdfrwt>
<pdfrwt beam="2">  1       22 0.24539676E+00 0.52000793E+02</pdfrwt>
<totfact> 0.30576333E-01</totfact>
</mgrwt>
</event>
<event>
 4    1  0.2516086E+000  0.5210859E+02  0.7957747E-01  0.1434289E+00
         13   -1    0    0    0    0  0.00000000000E+00  0.00000000000E+00  0.99999944177E+02  0.99999999998E+02  0.10566000000E+00 0.  1.
         22   -1    0    0    0    0 -0.00000000000E+00 -0.00000000000E+00 -0.16517395005E+02  0.16517395005E+02  0.00000000000E+00 0. -1.
         13    1    1    2    0    0  0.16538487001E+01 -0.14579765899E+02 -0.35325548409E+01  0.15092875701E+02  0.10566000000E+00 0. -1.
        996    1    1    2    0    0 -0.16538487001E+01  0.14579765899E+02  0.87015104013E+02  0.10142451930E+03  0.50000000000E+02 0.  0.
<mgrwt>
<rscale>  0 0.52108587E+02</rscale>
<asrwt>0</asrwt>
<pdfrwt beam="1">  1       13 0.10000000E+01 0.52108587E+02</pdfrwt>
<pdfrwt beam="2">  1       22 0.16517418E+00 0.52108587E+02</pdfrwt>
<totfact> 0.63940042E-01</totfact>
</mgrwt>
</event>
<event>
 4    1  0.2516086E+000  0.5162482E+02  0.7957747E-01  0.1436770E+00
         13   -1    0    0    0    0  0.00000000000E+00  0.00000000000E+00  0.99999944177E+02  0.99999999997E+02  0.10566000000E+00 0. -1.
         22   -1    0    0    0    0 -0.00000000000E+00 -0.00000000000E+00 -0.18117206614E+02  0.18117206614E+02  0.00000000000E+00 0.  1.
         13    1    1    2    0    0  0.13665592954E+01 -0.12777115463E+02 -0.75132208848E+01  0.14885624474E+02  0.10566000000E+00 0.  1.
        996    1    1    2    0    0 -0.13665592954E+01  0.12777115463E+02  0.89395958448E+02  0.10323158214E+03  0.50000000000E+02 0.  0.
<mgrwt>
<rscale>  0 0.51624821E+02</rscale>
<asrwt>0</asrwt>
<pdfrwt beam="1">  1       13 0.10000000E+01 0.51624821E+02</pdfrwt>
<pdfrwt beam="2">  1       22 0.18117229E+00 0.51624821E+02</pdfrwt>
<totfact> 0.54265474E-01</totfact>
</mgrwt>
</event>
<event>
 4    1  0.2516086E+000  0.5538729E+02  0.7957747E-01  0.1418276E+00
         13   -1    0    0    0    0  0.00000000000E+00  0.00000000000E+00  0.99999944175E+02  0.99999999995E+02  0.10566000000E+00 0.  1.
         22   -1    0    0    0    0 -0.00000000000E+00 -0.00000000000E+00 -0.62208462537E+02  0.62208462537E+02  0.00000000000E+00 0. -1.
         13    1    1    2    0    0 -0.14520128143E+02  0.18892269726E+02 -0.51720973577E+02  0.56945783413E+02  0.10566000000E+00 0. -1.
        996    1    1    2    0    0  0.14520128143E+02 -0.18892269726E+02  0.89512455215E+02  0.10526267912E+03  0.50000000000E+02 0.  0.
<mgrwt>
<rscale>  0 0.55387291E+02</rscale>
<asrwt>0</asrwt>
<pdfrwt beam="1">  1       13 0.10000000E+01 0.55387291E+02</pdfrwt>
<pdfrwt beam="2">  1       22 0.62208473E+00 0.55387291E+02</pdfrwt>
<totfact> 0.74157161E-02</totfact>
</mgrwt>
</event>
<event>
 4    1  0.2516086E+000  0.5618455E+02  0.7957747E-01  0.1414579E+00
         13   -1    0    0    0    0  0.00000000000E+00  0.00000000000E+00  0.99999944172E+02  0.99999999992E+02  0.10566000000E+00 0.  1.
         22   -1    0    0    0    0 -0.00000000000E+00 -0.00000000000E+00 -0.22092167489E+02  0.22092167489E+02  0.00000000000E+00 0. -1.
         13    1    1    2    0    0  0.12128120460E+01  0.25597511210E+02 -0.50131900015E+00  0.25631347565E+02  0.10566000000E+00 0. -1.
        996    1    1    2    0    0 -0.12128120460E+01 -0.25597511210E+02  0.78409095682E+02  0.96460819917E+02  0.50000000000E+02 0.  0.
<mgrwt>
<rscale>  0 0.56184549E+02</rscale>
<asrwt>0</asrwt>
<pdfrwt beam="1">  1       13 0.10000000E+01 0.56184549E+02</pdfrwt>
<pdfrwt beam="2">  1       22 0.22092189E+00 0.56184549E+02</pdfrwt>
<totfact> 0.37775185E-01</totfact>
</mgrwt>
</event>
<event>
 4    1  0.2516086E+000  0.5158344E+02  0.7957747E-01  0.1436983E+00
         13   -1    0    0    0    0  0.00000000000E+00  0.00000000000E+00  0.99999944184E+02  0.10000000000E+03  0.10566000000E+00 0.  1.
         22   -1    0    0    0    0 -0.00000000000E+00 -0.00000000000E+00 -0.32118067574E+02  0.32118067574E+02  0.00000000000E+00 0. -1.
         13    1    1    2    0    0 -0.58161528029E+01  0.11270464324E+02 -0.23772909418E+02  0.26944635565E+02  0.10566000000E+00 0. -1.
        996    1    1    2    0    0  0.58161528029E+01 -0.11270464324E+02  0.91654786028E+02  0.10517343201E+03  0.50000000000E+02 0.  0.
<mgrwt>
<rscale>  0 0.51583437E+02</rscale>
<asrwt>0</asrwt>
<pdfrwt beam="1">  1       13 0.10000000E+01 0.51583437E+02</pdfrwt>
<pdfrwt beam="2">  1       22 0.32118087E+00 0.51583437E+02</pdfrwt>
<totfact> 0.18268062E-01</totfact>
</mgrwt>
</event>
<event>
 4    1  0.2516086E+000  0.5926252E+02  0.7957747E-01  0.1400953E+00
         13   -1    0    0    0    0  0.00000000000E+00  0.00000000000E+00  0.99999944182E+02  0.10000000000E+03  0.10566000000E+00 0. -1.
         22   -1    0    0    0    0 -0.00000000000E+00 -0.00000000000E+00 -0.20913434766E+02  0.20913434766E+02  0.00000000000E+00 0.  1.
         13    1    1    2    0    0  0.15451940732E+02  0.27807979218E+02  0.22425579425E+02  0.38922537907E+02  0.10566000000E+00 0.  1.
        996    1    1    2    0    0 -0.15451940732E+02 -0.27807979218E+02  0.56660929992E+02  0.81990896861E+02  0.50000000000E+02 0.  0.
<mgrwt>
<rscale>  0 0.59262519E+02</rscale>
<asrwt>0</asrwt>
<pdfrwt beam="1">  1       13 0.10000000E+01 0.59262519E+02</pdfrwt>
<pdfrwt beam="2">  1       22 0.20913457E+00 0.59262519E+02</pdfrwt>
<totfact> 0.42156714E-01</totfact>
</mgrwt>
</event>
<event>
 4    1  0.2516086E+000  0.7127174E+02  0.7957747E-01  0.1355821E+00
         13   -1    0    0    0    0  0.00000000000E+00  0.00000000000E+00  0.99999944184E+02  0.10000000000E+03  0.10566000000E+00 0. -1.
         22   -1    0    0    0    0 -0.00000000000E+00 -0.00000000000E+00 -0.50033040137E+02  0.50033040137E+02  0.00000000000E+00 0.  1.
         13    1    1    2    0    0 -0.27441590144E+02 -0.42738968447E+02 -0.15658942284E+02  0.53149543093E+02  0.10566000000E+00 0.  1.
        996    1    1    2    0    0  0.27441590144E+02  0.42738968447E+02  0.65625846331E+02  0.96883497048E+02  0.50000000000E+02 0.  0.
<mgrwt>
<rscale>  0 0.71271736E+02</rscale>
<asrwt>0</asrwt>
<pdfrwt beam="1">  1       13 0.10000000E+01 0.71271736E+02</pdfrwt>
<pdfrwt beam="2">  1       22 0.50033054E+00 0.71271736E+02</pdfrwt>
<totfact> 0.74020280E-02</totfact>
</mgrwt>
</event>
<event>
 4    1  0.2516086E+000  0.5236335E+02  0.7957747E-01  0.1432996E+00
         13   -1    0    0    0    0  0.00000000000E+00  0.00000000000E+00  0.99999944179E+02  0.99999999999E+02  0.10566000000E+00 0. -1.
         22   -1    0    0    0    0 -0.00000000000E+00 -0.00000000000E+00 -0.17084183230E+02  0.17084183230E+02  0.00000000000E+00 0. -1.
         13    1    1    2    0    0  0.51778610460E+01  0.14666628005E+02 -0.35914342354E+01  0.15963388924E+02  0.10566000000E+00 0.  1.
        996    1    1    2    0    0 -0.51778610460E+01 -0.14666628005E+02  0.86507195185E+02  0.10112079430E+03  0.50000000000E+02 0.  0.
<mgrwt>
<rscale>  0 0.52363348E+02</rscale>
<asrwt>0</asrwt>
<pdfrwt beam="1">  1       13 0.10000000E+01 0.52363348E+02</pdfrwt>
<pdfrwt beam="2">  1       22 0.17084206E+00 0.52363348E+02</pdfrwt>
<totfact> 0.60316188E-01</totfact>
</mgrwt>
</event>
<event>
 4    1  0.2516086E+000  0.5478130E+02  0.7957747E-01  0.1421136E+00
         13   -1    0    0    0    0  0.00000000000E+00  0.00000000000E+00  0.99999944177E+02  0.99999999997E+02  0.10566000000E+00 0.  1.
         22   -1    0    0    0    0 -0.00000000000E+00 -0.00000000000E+00 -0.21941656217E+02  0.21941656217E+02  0.00000000000E+00 0.  1.
         13    1    1    2    0    0  0.17101769042E+02 -0.14440232808E+02 -0.45297133587E+01  0.22836818847E+02  0.10566000000E+00 0. -1.
        996    1    1    2    0    0 -0.17101769042E+02  0.14440232808E+02  0.82588001318E+02  0.99104837368E+02  0.50000000000E+02 0.  0.
<mgrwt>
<rscale>  0 0.54781300E+02</rscale>
<asrwt>0</asrwt>
<pdfrwt beam="1">  1       13 0.10000000E+01 0.54781300E+02</pdfrwt>
<pdfrwt beam="2">  1       22 0.21941678E+00 0.54781300E+02</pdfrwt>
<totfact> 0.38190606E-01</totfact>
</mgrwt>
</event>
<event>
 4    1  0.2516086E+000  0.5266259E+02  0.7957747E-01  0.1431487E+00
         13   -1    0    0    0    0  0.00000000000E+00  0.00000000000E+00  0.99999944182E+02  0.10000000000E+03  0.10566000000E+00 0. -1.
         22   -1    0    0    0    0 -0.00000000000E+00 -0.00000000000E+00 -0.12592603732E+02  0.12592603732E+02  0.00000000000E+00 0.  1.
         13    1    1    2    0    0  0.88347435745E+01 -0.13974809605E+02  0.11240358357E+02  0.19992619077E+02  0.10566000000E+00 0.  1.
        996    1    1    2    0    0 -0.88347435745E+01  0.13974809605E+02  0.76166982092E+02  0.92599984658E+02  0.50000000000E+02 0.  0.
<mgrwt>
<rscale>  0 0.52662586E+02</rscale>
<asrwt>0</asrwt>
<pdfrwt beam="1">  1       13 0.10000000E+01 0.52662586E+02</pdfrwt>
<pdfrwt beam="2">  1       22 0.12592628E+00 0.52662586E+02</pdfrwt>
<totfact> 0.99925310E-01</totfact>
</mgrwt>
</event>
<event>
 4    1  0.2516086E+000  0.5134101E+02  0.7957747E-01  0.1438240E+00
         13   -1    0    0    0    0  0.00000000000E+00  0.00000000000E+00  0.99999944178E+02  0.99999999998E+02  0.10566000000E+00 0. -1.
         22   -1    0    0    0    0 -0.00000000000E+00 -0.00000000000E+00 -0.13093634990E+02  0.13093634990E+02  0.00000000000E+00 0. -1.
         13    1    1    2    0    0  0.11650092830E+02  0.41825501737E+00 -0.56103259616E+00  0.11671568953E+02  0.10566000000E+00 0.  1.
        996    1    1    2    0    0 -0.11650092830E+02 -0.41825501737E+00  0.87467341784E+02  0.10142206604E+03  0.50000000000E+02 0.  0.
<mgrwt>
<rscale>  0 0.51341013E+02</rscale>
<asrwt>0</asrwt>
<pdfrwt beam="1">  1       13 0.10000000E+01 0.51341013E+02</pdfrwt>
<pdfrwt beam="2">  1       22 0.13093659E+00 0.51341013E+02</pdfrwt>
<totfact> 0.93723431E-01</totfact>
</mgrwt>
</event>
<event>
 4    1  0.2516086E+000  0.5465923E+02  0.7957747E-01  0.1421717E+00
         13   -1    0    0    0    0  0.00000000000E+00  0.00000000000E+00  0.99999944176E+02  0.99999999996E+02  0.10566000000E+00 0.  1.
         22   -1    0    0    0    0 -0.00000000000E+00 -0.00000000000E+00 -0.16774816631E+02  0.16774816631E+02  0.00000000000E+00 0. -1.
         13    1    1    2    0    0  0.19755007411E+02 -0.98676578890E+01  0.44843279181E+02  0.49985616348E+02  0.10566000000E+00 0. -1.
        996    1    1    2    0    0 -0.19755007411E+02  0.98676578890E+01  0.38381848365E+02  0.66789200279E+02  0.50000000000E+02 0.  0.
<mgrwt>
<rscale>  0 0.54659226E+02</rscale>
<asrwt>0</asrwt>
<pdfrwt beam="1">  1       13 0.10000000E+01 0.54659226E+02</pdfrwt>
<pdfrwt beam="2">  1       22 0.16774840E+00 0.54659226E+02</pdfrwt>
<totfact> 0.62546503E-01</totfact>
</mgrwt>
</event>
<event>
 4    1  0.2516086E+000  0.5213970E+02  0.7957747E-01  0.1434131E+00
         13   -1    0    0    0    0  0.00000000000E+00  0.00000000000E+00  0.99999944174E+02  0.99999999994E+02  0.10566000000E+00 0.  1.
         22   -1    0    0    0    0 -0.00000000000E+00 -0.00000000000E+00 -0.13592248857E+02  0.13592248857E+02  0.00000000000E+00 0. -1.
         13    1    1    2    0    0  0.10434852290E+02  0.10471960970E+02  0.27812056517E+01  0.15043084051E+02  0.10566000000E+00 0. -1.
        996    1    1    2    0    0 -0.10434852290E+02 -0.10471960970E+02  0.83626489666E+02  0.98549164799E+02  0.50000000000E+02 0.  0.
<mgrwt>
<rscale>  0 0.52139698E+02</rscale>
<asrwt>0</asrwt>
<pdfrwt beam="1">  1       13 0.10000000E+01 0.52139698E+02</pdfrwt>
<pdfrwt beam="2">  1       22 0.13592273E+00 0.52139698E+02</pdfrwt>
<totfact> 0.88467287E-01</totfact>
</mgrwt>
</event>
<event>
 4    1  0.2516086E+000  0.5614122E+02  0.7957747E-01  0.1414778E+00
         13   -1    0    0    0    0  0.00000000000E+00  0.00000000000E+00  0.99999944175E+02  0.99999999995E+02  0.10566000000E+00 0. -1.
         22   -1    0    0    0    0 -0.00000000000E+00 -0.00000000000E+00 -0.29753891593E+02  0.29753891593E+02  0.00000000000E+00 0.  1.
         13    1    1    2    0    0  0.25394907748E+02  0.26335244633E+01 -0.13538757210E+02  0.28898891007E+02  0.10566000000E+00 0.  1.
        996    1    1    2    0    0 -0.25394907748E+02 -0.26335244633E+01  0.83784809791E+02  0.10085500058E+03  0.50000000000E+02 0.  0.
<mgrwt>
<rscale>  0 0.56141222E+02</rscale>
<asrwt>0</asrwt>
<pdfrwt beam="1">  1       13 0.10000000E+01 0.56141222E+02</pdfrwt>
<pdfrwt beam="2">  1       22 0.29753911E+00 0.56141222E+02</pdfrwt>
<totfact> 0.21136940E-01</totfact>
</mgrwt>
</event>
<event>
 4    1  0.2516086E+000  0.5169247E+02  0.7957747E-01  0.1436421E+00
         13   -1    0    0    0    0  0.00000000000E+00  0.00000000000E+00  0.99999944174E+02  0.99999999995E+02  0.10566000000E+00 0. -1.
         22   -1    0    0    0    0 -0.00000000000E+00 -0.00000000000E+00 -0.11547589161E+02  0.11547589161E+02  0.00000000000E+00 0. -1.
         13    1    1    2    0    0 -0.12464384622E+02  0.40927145988E+01  0.34110852945E+02  0.36546855535E+02  0.10566000000E+00 0.  1.
        996    1    1    2    0    0  0.12464384622E+02 -0.40927145988E+01  0.54341502068E+02  0.75000733622E+02  0.50000000000E+02 0.  0.
<mgrwt>
<rscale>  0 0.51692468E+02</rscale>
<asrwt>0</asrwt>
<pdfrwt beam="1">  1       13 0.10000000E+01 0.51692468E+02</pdfrwt>
<pdfrwt beam="2">  1       22 0.11547614E+00 0.51692468E+02</pdfrwt>
<totfact> 0.11388353E+00</totfact>
</mgrwt>
</event>
<event>
 4    1  0.2516086E+000  0.5099345E+02  0.7957747E-01  0.1440056E+00
         13   -1    0    0    0    0  0.00000000000E+00  0.00000000000E+00  0.99999944180E+02  0.10000000000E+03  0.10566000000E+00 0.  1.
         22   -1    0    0    0    0 -0.00000000000E+00 -0.00000000000E+00 -0.94045182772E+01  0.94045182772E+01  0.00000000000E+00 0.  1.
         13    1    1    2    0    0  0.83678859153E+01  0.55054653120E+01  0.19366538180E+02  0.21803798479E+02  0.10566000000E+00 0. -1.
        996    1    1    2    0    0 -0.83678859153E+01 -0.55054653120E+01  0.71228887723E+02  0.87600719799E+02  0.50000000000E+02 0.  0.
<mgrwt>
<rscale>  0 0.50993447E+02</rscale>
<asrwt>0</asrwt>
<pdfrwt beam="1">  1       13 0.10000000E+01 0.50993447E+02</pdfrwt>
<pdfrwt beam="2">  1       22 0.94045436E-01 0.50993447E+02</pdfrwt>
<totfact> 0.15359951E+00</totfact>
</mgrwt>
</event>
<event>
 4    1  0.2516086E+000  0.5140972E+02  0.7957747E-01  0.1437883E+00
         13   -1    0    0    0    0  0.00000000000E+00  0.00000000000E+00  0.99999944181E+02  0.10000000000E+03  0.10566000000E+00 0.  1.
         22   -1    0    0    0    0 -0.00000000000E+00 -0.00000000000E+00 -0.13681841651E+02  0.13681841651E+02  0.00000000000E+00 0.  1.
         13    1    1    2    0    0 -0.72040131619E+01  0.95426049620E+01  0.48256722267E+02  0.49716008721E+02  0.10566000000E+00 0. -1.
        996    1    1    2    0    0  0.72040131619E+01 -0.95426049620E+01  0.38061380262E+02  0.63965832931E+02  0.50000000000E+02 0.  0.
<mgrwt>
<rscale>  0 0.51409718E+02</rscale>
<asrwt>0</asrwt>
<pdfrwt beam="1">  1       13 0.10000000E+01 0.51409718E+02</pdfrwt>
<pdfrwt beam="2">  1       22 0.13681866E+00 0.51409718E+02</pdfrwt>
<totfact> 0.87403886E-01</totfact>
</mgrwt>
</event>
<event>
 4    1  0.2516086E+000  0.5103802E+02  0.7957747E-01  0.1439822E+00
         13   -1    0    0    0    0  0.00000000000E+00  0.00000000000E+00  0.99999944177E+02  0.99999999997E+02  0.10566000000E+00 0.  1.
         22   -1    0    0    0    0 -0.00000000000E+00 -0.00000000000E+00 -0.18487657009E+02  0.18487657009E+02  0.00000000000E+00 0. -1.
         13    1    1    2    0    0 -0.62745944705E+01 -0.80937507322E+01 -0.96108072272E+01  0.14044860849E+02  0.10566000000E+00 0. -1.
        996    1    1    2    0    0  0.62745944705E+01  0.80937507322E+01  0.91123094395E+02  0.10444279616E+03  0.50000000000E+02 0.  0.
<mgrwt>
<rscale>  0 0.51038019E+02</rscale>
<asrwt>0</asrwt>
<pdfrwt beam="1">  1       13 0.10000000E+01 0.51038019E+02</pdfrwt>
<pdfrwt beam="2">  1       22 0.18487680E+00 0.51038019E+02</pdfrwt>
<totfact> 0.52261389E-01</totfact>
</mgrwt>
</event>
<event>
 4    1  0.2516086E+000  0.5951835E+02  0.7957747E-01  0.1399864E+00
         13   -1    0    0    0    0  0.00000000000E+00  0.00000000000E+00  0.99999944172E+02  0.99999999992E+02  0.10566000000E+00 0. -1.
         22   -1    0    0    0    0 -0.00000000000E+00 -0.00000000000E+00 -0.21082352093E+02  0.21082352093E+02  0.00000000000E+00 0. -1.
         13    1    1    2    0    0  0.30446895797E+02  0.10743416170E+02  0.26390258218E+02  0.41700016158E+02  0.10566000000E+00 0.  1.
        996    1    1    2    0    0 -0.30446895797E+02 -0.10743416170E+02  0.52527333861E+02  0.79382335927E+02  0.50000000000E+02 0.  0.
<mgrwt>
<rscale>  0 0.59518354E+02</rscale>
<asrwt>0</asrwt>
<pdfrwt beam="1">  1       13 0.10000000E+01 0.59518354E+02</pdfrwt>
<pdfrwt beam="2">  1       22 0.21082374E+00 0.59518354E+02</pdfrwt>
<totfact> 0.41532495E-01</totfact>
</mgrwt>
</event>
<event>
 4    1  0.2516086E+000  0.5568178E+02  0.7957747E-01  0.1416902E+00
         13   -1    0    0    0    0  0.00000000000E+00  0.00000000000E+00  0.99999944182E+02  0.10000000000E+03  0.10566000000E+00 0. -1.
         22   -1    0    0    0    0 -0.00000000000E+00 -0.00000000000E+00 -0.40065987694E+02  0.40065987694E+02  0.00000000000E+00 0.  1.
         13    1    1    2    0    0 -0.56768570176E+01  0.23837656234E+02 -0.27231394720E+02  0.36633599097E+02  0.10566000000E+00 0.  1.
        996    1    1    2    0    0  0.56768570176E+01 -0.23837656234E+02  0.87165351208E+02  0.10343238860E+03  0.50000000000E+02 0.  0.
<mgrwt>
<rscale>  0 0.55681779E+02</rscale>
<asrwt>0</asrwt>
<pdfrwt beam="1">  1       13 0.10000000E+01 0.55681779E+02</pdfrwt>
<pdfrwt beam="2">  1       22 0.40066004E+00 0.55681779E+02</pdfrwt>
<totfact> 0.12363397E-01</totfact>
</mgrwt>
</event>
<event>
 4    1  0.2516086E+000  0.5218237E+02  0.7957747E-01  0.1433914E+00
         13   -1    0    0    0    0  0.00000000000E+00  0.00000000000E+00  0.99999944181E+02  0.10000000000E+03  0.10566000000E+00 0.  1.
         22   -1    0    0    0    0 -0.00000000000E+00 -0.00000000000E+00 -0.22392019575E+02  0.22392019575E+02  0.00000000000E+00 0. -1.
         13    1    1    2    0    0 -0.84546655472E+01 -0.12309284600E+02 -0.11690168456E+02  0.18964995635E+02  0.10566000000E+00 0. -1.
        996    1    1    2    0    0  0.84546655472E+01  0.12309284600E+02  0.89298093062E+02  0.10342702394E+03  0.50000000000E+02 0.  0.
<mgrwt>
<rscale>  0 0.52182371E+02</rscale>
<asrwt>0</asrwt>
<pdfrwt beam="1">  1       13 0.10000000E+01 0.52182371E+02</pdfrwt>
<pdfrwt beam="2">  1       22 0.22392041E+00 0.52182371E+02</pdfrwt>
<totfact> 0.36566636E-01</totfact>
</mgrwt>
</event>
<event>
 4    1  0.2516086E+000  0.5669685E+02  0.7957747E-01  0.1412241E+00
         13   -1    0    0    0    0  0.00000000000E+00  0.00000000000E+00  0.99999944176E+02  0.99999999996E+02  0.10566000000E+00 0. -1.
         22   -1    0    0    0    0 -0.00000000000E+00 -0.00000000000E+00 -0.29286508422E+02  0.29286508422E+02  0.00000000000E+00 0.  1.
         13    1    1    2    0    0  0.13115425775E+02  0.23292025894E+02 -0.11760886354E+02  0.29203809261E+02  0.10566000000E+00 0.  1.
        996    1    1    2    0    0 -0.13115425775E+02 -0.23292025894E+02  0.82474322108E+02  0.10008269916E+03  0.50000000000E+02 0.  0.
<mgrwt>
<rscale>  0 0.56696851E+02</rscale>
<asrwt>0</asrwt>
<pdfrwt beam="1">  1       13 0.10000000E+01 0.56696851E+02</pdfrwt>
<pdfrwt beam="2">  1       22 0.29286528E+00 0.56696851E+02</pdfrwt>
<totfact> 0.21795450E-01</totfact>
</mgrwt>
</event>
<event>
 4    1  0.2516086E+000  0.5435173E+02  0.7957747E-01  0.1423190E+00
         13   -1    0    0    0    0  0.00000000000E+00  0.00000000000E+00  0.99999944173E+02  0.99999999993E+02  0.10566000000E+00 0. -1.
         22   -1    0    0    0    0 -0.00000000000E+00 -0.00000000000E+00 -0.42087044291E+02  0.42087044291E+02  0.00000000000E+00 0.  1.
         13    1    1    2    0    0  0.20177890557E+02 -0.68529656017E+01 -0.31154617369E+02  0.37745618982E+02  0.10566000000E+00 0.  1.
        996    1    1    2    0    0 -0.20177890557E+02  0.68529656017E+01  0.89067517251E+02  0.10434142530E+03  0.50000000000E+02 0.  0.
<mgrwt>
<rscale>  0 0.54351729E+02</rscale>
<asrwt>0</asrwt>
<pdfrwt beam="1">  1       13 0.10000000E+01 0.54351729E+02</pdfrwt>
<pdfrwt beam="2">  1       22 0.42087060E+00 0.54351729E+02</pdfrwt>
<totfact> 0.11205760E-01</totfact>
</mgrwt>
</event>
<event>
 4    1  0.2516086E+000  0.5178454E+02  0.7957747E-01  0.1435947E+00
         13   -1    0    0    0    0  0.00000000000E+00  0.00000000000E+00  0.99999944181E+02  0.10000000000E+03  0.10566000000E+00 0. -1.
         22   -1    0    0    0    0 -0.00000000000E+00 -0.00000000000E+00 -0.13924386253E+02  0.13924386253E+02  0.00000000000E+00 0. -1.
         13    1    1    2    0    0 -0.19366915191E+01 -0.13337455652E+02  0.64662070743E-02  0.13477748445E+02  0.10566000000E+00 0.  1.
        996    1    1    2    0    0  0.19366915191E+01  0.13337455652E+02  0.86069091722E+02  0.10044663781E+03  0.50000000000E+02 0.  0.
<mgrwt>
<rscale>  0 0.51784539E+02</rscale>
<asrwt>0</asrwt>
<pdfrwt beam="1">  1       13 0.10000000E+01 0.51784539E+02</pdfrwt>
<pdfrwt beam="2">  1       22 0.13924410E+00 0.51784539E+02</pdfrwt>
<totfact> 0.85031455E-01</totfact>
</mgrwt>
</event>
<event>
 4    1  0.2516086E+000  0.5100939E+02  0.7957747E-01  0.1439972E+00
         13   -1    0    0    0    0  0.00000000000E+00  0.00000000000E+00  0.99999944187E+02  0.10000000001E+03  0.10566000000E+00 0. -1.
         22   -1    0    0    0    0 -0.00000000000E+00 -0.00000000000E+00 -0.59157539366E+02  0.59157539366E+02  0.00000000000E+00 0.  1.
         13    1    1    2    0    0  0.71347736589E+01  0.71451149973E+01 -0.52136555707E+02  0.53105454225E+02  0.10566000000E+00 0.  1.
        996    1    1    2    0    0 -0.71347736589E+01 -0.71451149973E+01  0.92978960528E+02  0.10605208515E+03  0.50000000000E+02 0.  0.
<mgrwt>
<rscale>  0 0.51009388E+02</rscale>
<asrwt>0</asrwt>
<pdfrwt beam="1">  1       13 0.10000000E+01 0.51009388E+02</pdfrwt>
<pdfrwt beam="2">  1       22 0.59157551E+00 0.51009388E+02</pdfrwt>
<totfact> 0.60844207E-02</totfact>
</mgrwt>
</event>
<event>
 4    1  0.2516086E+000  0.5103881E+02  0.7957747E-01  0.1439818E+00
         13   -1    0    0    0    0  0.00000000000E+00  0.00000000000E+00  0.99999944179E+02  0.99999999999E+02  0.10566000000E+00 0. -1.
         22   -1    0    0    0    0 -0.00000000000E+00 -0.00000000000E+00 -0.37590748747E+02  0.37590748747E+02  0.00000000000E+00 0.  1.
         13    1    1    2    0    0 -0.12263767157E+01  0.10171333062E+02 -0.30176895933E+02  0.31868734338E+02  0.10566000000E+00 0.  1.
        996    1    1    2    0    0  0.12263767157E+01 -0.10171333062E+02  0.92586091365E+02  0.10572201441E+03  0.50000000000E+02 0.  0.
<mgrwt>
<rscale>  0 0.51038809E+02</rscale>
<asrwt>0</asrwt>
<pdfrwt beam="1">  1       13 0.10000000E+01 0.51038809E+02</pdfrwt>
<pdfrwt beam="2">  1       22 0.37590766E+00 0.51038809E+02</pdfrwt>
<totfact> 0.13848924E-01</totfact>
</mgrwt>
</event>
<event>
 4    1  0.2516086E+000  0.6133023E+02  0.7957747E-01  0.1392333E+00
         13   -1    0    0    0    0  0.00000000000E+00  0.00000000000E+00  0.99999944179E+02  0.99999999999E+02  0.10566000000E+00 0. -1.
         22   -1    0    0    0    0 -0.00000000000E+00 -0.00000000000E+00 -0.37676277221E+02  0.37676277221E+02  0.00000000000E+00 0.  1.
         13    1    1    2    0    0 -0.35377415312E+02 -0.31361159970E+01 -0.15364514428E+02  0.38697237697E+02  0.10566000000E+00 0.  1.
        996    1    1    2    0    0  0.35377415312E+02  0.31361159970E+01  0.77688181387E+02  0.98979039523E+02  0.50000000000E+02 0.  0.
<mgrwt>
<rscale>  0 0.61330227E+02</rscale>
<asrwt>0</asrwt>
<pdfrwt beam="1">  1       13 0.10000000E+01 0.61330227E+02</pdfrwt>
<pdfrwt beam="2">  1       22 0.37676295E+00 0.61330227E+02</pdfrwt>
<totfact> 0.13911206E-01</totfact>
</mgrwt>
</event>
<event>
 4    1  0.2516086E+000  0.5127337E+02  0.7957747E-01  0.1438592E+00
         13   -1    0    0    0    0  0.00000000000E+00  0.00000000000E+00  0.99999944177E+02  0.99999999997E+02  0.10566000000E+00 0.  1.
         22   -1    0    0    0    0 -0.00000000000E+00 -0.00000000000E+00 -0.98466682246E+01  0.98466682246E+01  0.00000000000E+00 0.  1.
         13    1    1    2    0    0  0.80695328026E+00 -0.11327299674E+02  0.13749113749E+02  0.17832783979E+02  0.10566000000E+00 0. -1.
        996    1    1    2    0    0 -0.80695328026E+00  0.11327299674E+02  0.76404162203E+02  0.92013884243E+02  0.50000000000E+02 0.  0.
<mgrwt>
<rscale>  0 0.51273374E+02</rscale>
<asrwt>0</asrwt>
<pdfrwt beam="1">  1       13 0.10000000E+01 0.51273374E+02</pdfrwt>
<pdfrwt beam="2">  1       22 0.98466934E-01 0.51273374E+02</pdfrwt>
<totfact> 0.14390915E+00</totfact>
</mgrwt>
</event>
<event>
 4    1  0.2516086E+000  0.5166653E+02  0.7957747E-01  0.1436555E+00
         13   -1    0    0    0    0  0.00000000000E+00  0.00000000000E+00  0.99999944174E+02  0.99999999994E+02  0.10566000000E+00 0.  1.
         22   -1    0    0    0    0 -0.00000000000E+00 -0.00000000000E+00 -0.42411873884E+02  0.42411873884E+02  0.00000000000E+00 0. -1.
         13    1    1    2    0    0  0.11636058856E+02 -0.58337428845E+01 -0.34470130977E+02  0.36846051557E+02  0.10566000000E+00 0. -1.
        996    1    1    2    0    0 -0.11636058856E+02  0.58337428845E+01  0.92058201267E+02  0.10556582232E+03  0.50000000000E+02 0.  0.
<mgrwt>
<rscale>  0 0.51666531E+02</rscale>
<asrwt>0</asrwt>
<pdfrwt beam="1">  1       13 0.10000000E+01 0.51666531E+02</pdfrwt>
<pdfrwt beam="2">  1       22 0.42411890E+00 0.51666531E+02</pdfrwt>
<totfact> 0.11008696E-01</totfact>
</mgrwt>
</event>
<event>
 4    1  0.2516086E+000  0.5391793E+02  0.7957747E-01  0.1425286E+00
         13   -1    0    0    0    0  0.00000000000E+00  0.00000000000E+00  0.99999944176E+02  0.99999999996E+02  0.10566000000E+00 0. -1.
         22   -1    0    0    0    0 -0.00000000000E+00 -0.00000000000E+00 -0.14036191936E+02  0.14036191936E+02  0.00000000000E+00 0.  1.
         13    1    1    2    0    0  0.19324331201E+02 -0.58062884868E+01  0.31417378114E+02  0.37339062307E+02  0.10566000000E+00 0.  1.
        996    1    1    2    0    0 -0.19324331201E+02  0.58062884868E+01  0.54546374127E+02  0.76697129625E+02  0.50000000000E+02 0.  0.
<mgrwt>
<rscale>  0 0.53917926E+02</rscale>
<asrwt>0</asrwt>
<pdfrwt beam="1">  1       13 0.10000000E+01 0.53917926E+02</pdfrwt>
<pdfrwt beam="2">  1       22 0.14036216E+00 0.53917926E+02</pdfrwt>
<totfact> 0.84307590E-01</totfact>
</mgrwt>
</event>
<event>
 4    1  0.2516086E+000  0.5175841E+02  0.7957747E-01  0.1436082E+00
         13   -1    0    0    0    0  0.00000000000E+00  0.00000000000E+00  0.99999944177E+02  0.99999999997E+02  0.10566000000E+00 0. -1.
         22   -1    0    0    0    0 -0.00000000000E+00 -0.00000000000E+00 -0.13675152521E+02  0.13675152521E+02  0.00000000000E+00 0.  1.
         13    1    1    2    0    0  0.12228256045E+02 -0.54224669320E+01  0.42104334478E+00  0.13383640576E+02  0.10566000000E+00 0.  1.
        996    1    1    2    0    0 -0.12228256045E+02  0.54224669320E+01  0.85903748311E+02  0.10029151194E+03  0.50000000000E+02 0.  0.
<mgrwt>
<rscale>  0 0.51758414E+02</rscale>
<asrwt>0</asrwt>
<pdfrwt beam="1">  1       13 0.10000000E+01 0.51758414E+02</pdfrwt>
<pdfrwt beam="2">  1       22 0.13675177E+00 0.51758414E+02</pdfrwt>
<totfact> 0.87537821E-01</totfact>
</mgrwt>
</event>
<event>
 4    1  0.2516086E+000  0.5123031E+02  0.7957747E-01  0.1438816E+00
         13   -1    0    0    0    0  0.00000000000E+00  0.00000000000E+00  0.99999944177E+02  0.99999999997E+02  0.10566000000E+00 0.  1.
         22   -1    0    0    0    0 -0.00000000000E+00 -0.00000000000E+00 -0.12906331712E+02  0.12906331712E+02  0.00000000000E+00 0. -1.
         13    1    1    2    0    0  0.69672209107E+01 -0.87179328156E+01 -0.78194117508E+00  0.11187811038E+02  0.10566000000E+00 0. -1.
        996    1    1    2    0    0 -0.69672209107E+01  0.87179328156E+01  0.87875553640E+02  0.10171852067E+03  0.50000000000E+02 0.  0.
<mgrwt>
<rscale>  0 0.51230309E+02</rscale>
<asrwt>0</asrwt>
<pdfrwt beam="1">  1       13 0.10000000E+01 0.51230309E+02</pdfrwt>
<pdfrwt beam="2">  1       22 0.12906356E+00 0.51230309E+02</pdfrwt>
<totfact> 0.95851099E-01</totfact>
</mgrwt>
</event>
<event>
 4    1  0.2516086E+000  0.5176465E+02  0.7957747E-01  0.1436049E+00
         13   -1    0    0    0    0  0.00000000000E+00  0.00000000000E+00  0.99999944175E+02  0.99999999995E+02  0.10566000000E+00 0.  1.
         22   -1    0    0    0    0 -0.00000000000E+00 -0.00000000000E+00 -0.10893364463E+02  0.10893364463E+02  0.00000000000E+00 0.  1.
         13    1    1    2    0    0  0.66838423014E+01  0.11614876425E+02  0.11796887646E+02  0.17853762193E+02  0.10566000000E+00 0. -1.
        996    1    1    2    0    0 -0.66838423014E+01 -0.11614876425E+02  0.77309692066E+02  0.93039602265E+02  0.50000000000E+02 0.  0.
<mgrwt>
<rscale>  0 0.51764651E+02</rscale>
<asrwt>0</asrwt>
<pdfrwt beam="1">  1       13 0.10000000E+01 0.51764651E+02</pdfrwt>
<pdfrwt beam="2">  1       22 0.10893389E+00 0.51764651E+02</pdfrwt>
<totfact> 0.12429142E+00</totfact>
</mgrwt>
</event>
<event>
 4    1  0.2516086E+000  0.5302060E+02  0.7957747E-01  0.1429698E+00
         13   -1    0    0    0    0  0.00000000000E+00  0.00000000000E+00  0.99999944176E+02  0.99999999996E+02  0.10566000000E+00 0.  1.
         22   -1    0    0    0    0 -0.00000000000E+00 -0.00000000000E+00 -0.13345925811E+02  0.13345925811E+02  0.00000000000E+00 0.  1.
         13    1    1    2    0    0 -0.10949682552E+02  0.13830704875E+02  0.10424753541E+02  0.20490744148E+02  0.10566000000E+00 0. -1.
        996    1    1    2    0    0  0.10949682552E+02 -0.13830704875E+02  0.76229264824E+02  0.92855181659E+02  0.50000000000E+02 0.  0.
<mgrwt>
<rscale>  0 0.53020599E+02</rscale>
<asrwt>0</asrwt>
<pdfrwt beam="1">  1       13 0.10000000E+01 0.53020599E+02</pdfrwt>
<pdfrwt beam="2">  1       22 0.13345950E+00 0.53020599E+02</pdfrwt>
<totfact> 0.91258186E-01</totfact>
</mgrwt>
</event>
<event>
 4    1  0.2516086E+000  0.5574921E+02  0.7957747E-01  0.1416589E+00
         13   -1    0    0    0    0  0.00000000000E+00  0.00000000000E+00  0.99999944184E+02  0.10000000000E+03  0.10566000000E+00 0. -1.
         22   -1    0    0    0    0 -0.00000000000E+00 -0.00000000000E+00 -0.17532424471E+02  0.17532424471E+02  0.00000000000E+00 0.  1.
         13    1    1    2    0    0  0.75472066537E+01  0.23473682144E+02  0.41784590679E+02  0.48517391356E+02  0.10566000000E+00 0.  1.
        996    1    1    2    0    0 -0.75472066537E+01 -0.23473682144E+02  0.40682929034E+02  0.69015033119E+02  0.50000000000E+02 0.  0.
<mgrwt>
<rscale>  0 0.55749207E+02</rscale>
<asrwt>0</asrwt>
<pdfrwt beam="1">  1       13 0.10000000E+01 0.55749207E+02</pdfrwt>
<pdfrwt beam="2">  1       22 0.17532447E+00 0.55749207E+02</pdfrwt>
<totfact> 0.57979496E-01</totfact>
</mgrwt>
</event>
<event>
 4    1  0.2516086E+000  0.5103849E+02  0.7957747E-01  0.1439819E+00
         13   -1    0    0    0    0  0.00000000000E+00  0.00000000000E+00  0.99999944183E+02  0.10000000000E+03  0.10566000000E+00 0. -1.
         22   -1    0    0    0    0 -0.00000000000E+00 -0.00000000000E+00 -0.25535784620E+02  0.25535784620E+02  0.00000000000E+00 0.  1.
         13    1    1    2    0    0 -0.59939739519E+01  0.83066111776E+01 -0.17546247468E+02  0.20317713386E+02  0.10566000000E+00 0.  1.
        996    1    1    2    0    0  0.59939739519E+01 -0.83066111776E+01  0.92010407030E+02  0.10521807124E+03  0.50000000000E+02 0.  0.
<mgrwt>
<rscale>  0 0.51038491E+02</rscale>
<asrwt>0</asrwt>
<pdfrwt beam="1">  1       13 0.10000000E+01 0.51038491E+02</pdfrwt>
<pdfrwt beam="2">  1       22 0.25535805E+00 0.51038491E+02</pdfrwt>
<totfact> 0.28232154E-01</totfact>
</mgrwt>
</event>
<event>
 4    1  0.2516086E+000  0.5170478E+02  0.7957747E-01  0.1436357E+00
         13   -1    0    0    0    0  0.00000000000E+00  0.00000000000E+00  0.99999944183E+02  0.10000000000E+03  0.10566000000E+00 0. -1.
         22   -1    0    0    0    0 -0.00000000000E+00 -0.00000000000E+00 -0.22959244564E+02  0.22959244564E+02  0.00000000000E+00 0.  1.
         13    1    1    2    0    0 -0.13167554052E+02  0.26293763316E-02 -0.13396746818E+02  0.18784793743E+02  0.10566000000E+00 0.  1.
        996    1    1    2    0    0  0.13167554052E+02 -0.26293763316E-02  0.90437446437E+02  0.10417445082E+03  0.50000000000E+02 0.  0.
<mgrwt>
<rscale>  0 0.51704782E+02</rscale>
<asrwt>0</asrwt>
<pdfrwt beam="1">  1       13 0.10000000E+01 0.51704782E+02</pdfrwt>
<pdfrwt beam="2">  1       22 0.22959266E+00 0.51704782E+02</pdfrwt>
<totfact> 0.34808810E-01</totfact>
</mgrwt>
</event>
<event>
 4    1  0.2516086E+000  0.6260180E+02  0.7957747E-01  0.1387227E+00
         13   -1    0    0    0    0  0.00000000000E+00  0.00000000000E+00  0.99999944177E+02  0.99999999997E+02  0.10566000000E+00 0. -1.
         22   -1    0    0    0    0 -0.00000000000E+00 -0.00000000000E+00 -0.28181659010E+02  0.28181659010E+02  0.00000000000E+00 0.  1.
         13    1    1    2    0    0  0.31326133137E+02  0.20920310004E+02  0.74646479497E+01  0.38402058813E+02  0.10566000000E+00 0.  1.
        996    1    1    2    0    0 -0.31326133137E+02 -0.20920310004E+02  0.64353637217E+02  0.89779600194E+02  0.50000000000E+02 0.  0.
<mgrwt>
<rscale>  0 0.62601805E+02</rscale>
<asrwt>0</asrwt>
<pdfrwt beam="1">  1       13 0.10000000E+01 0.62601805E+02</pdfrwt>
<pdfrwt beam="2">  1       22 0.28181679E+00 0.62601805E+02</pdfrwt>
<totfact> 0.23635921E-01</totfact>
</mgrwt>
</event>
<event>
 4    1  0.2516086E+000  0.5218534E+02  0.7957747E-01  0.1433899E+00
         13   -1    0    0    0    0  0.00000000000E+00  0.00000000000E+00  0.99999944185E+02  0.10000000001E+03  0.10566000000E+00 0.  1.
         22   -1    0    0    0    0 -0.00000000000E+00 -0.00000000000E+00 -0.12988778925E+02  0.12988778925E+02  0.00000000000E+00 0.  1.
         13    1    1    2    0    0 -0.10294590715E+01  0.14908055096E+02  0.40188249986E+02  0.42876759366E+02  0.10566000000E+00 0. -1.
        996    1    1    2    0    0  0.10294590715E+01 -0.14908055096E+02  0.46822915273E+02  0.70112019565E+02  0.50000000000E+02 0.  0.
<mgrwt>
<rscale>  0 0.52185342E+02</rscale>
<asrwt>0</asrwt>
<pdfrwt beam="1">  1       13 0.10000000E+01 0.52185342E+02</pdfrwt>
<pdfrwt beam="2">  1       22 0.12988803E+00 0.52185342E+02</pdfrwt>
<totfact> 0.95093787E-01</totfact>
</mgrwt>
</event>
<event>
 4    1  0.2516086E+000  0.6726548E+02  0.7957747E-01  0.1369647E+00
         13   -1    0    0    0    0  0.00000000000E+00  0.00000000000E+00  0.99999944181E+02  0.10000000000E+03  0.10566000000E+00 0. -1.
         22   -1    0    0    0    0 -0.00000000000E+00 -0.00000000000E+00 -0.36203121790E+02  0.36203121790E+02  0.00000000000E+00 0.  1.
         13    1    1    2    0    0 -0.36944786622E+02  0.25685165342E+02  0.22868994238E+01  0.45054256738E+02  0.10566000000E+00 0.  1.
        996    1    1    2    0    0  0.36944786622E+02 -0.25685165342E+02  0.61509922967E+02  0.91148865054E+02  0.50000000000E+02 0.  0.
<mgrwt>
<rscale>  0 0.67265481E+02</rscale>
<asrwt>0</asrwt>
<pdfrwt beam="1">  1       13 0.10000000E+01 0.67265481E+02</pdfrwt>
<pdfrwt beam="2">  1       22 0.36203140E+00 0.67265481E+02</pdfrwt>
<totfact> 0.15006752E-01</totfact>
</mgrwt>
</event>
<event>
 4    1  0.2516086E+000  0.5429931E+02  0.7957747E-01  0.1423442E+00
         13   -1    0    0    0    0  0.00000000000E+00  0.00000000000E+00  0.99999944182E+02  0.10000000000E+03  0.10566000000E+00 0.  1.
         22   -1    0    0    0    0 -0.00000000000E+00 -0.00000000000E+00 -0.15503382992E+02  0.15503382992E+02  0.00000000000E+00 0. -1.
         13    1    1    2    0    0 -0.12383453259E+02 -0.17177475867E+02  0.10267476696E+02  0.23533971902E+02  0.10566000000E+00 0. -1.
        996    1    1    2    0    0  0.12383453259E+02  0.17177475867E+02  0.74229084495E+02  0.91969411092E+02  0.50000000000E+02 0.  0.
<mgrwt>
<rscale>  0 0.54299315E+02</rscale>
<asrwt>0</asrwt>
<pdfrwt beam="1">  1       13 0.10000000E+01 0.54299315E+02</pdfrwt>
<pdfrwt beam="2">  1       22 0.15503407E+00 0.54299315E+02</pdfrwt>
<totfact> 0.71563191E-01</totfact>
</mgrwt>
</event>
<event>
 4    1  0.2516086E+000  0.5480881E+02  0.7957747E-01  0.1421005E+00
         13   -1    0    0    0    0  0.00000000000E+00  0.00000000000E+00  0.99999944177E+02  0.99999999997E+02  0.10566000000E+00 0. -1.
         22   -1    0    0    0    0 -0.00000000000E+00 -0.00000000000E+00 -0.15085215036E+02  0.15085215036E+02  0.00000000000E+00 0. -1.
         13    1    1    2    0    0  0.19517051249E+01 -0.22365075186E+02  0.19432302150E+02  0.29692276300E+02  0.10566000000E+00 0.  1.
        996    1    1    2    0    0 -0.19517051249E+01  0.22365075186E+02  0.65482426990E+02  0.85392938733E+02  0.50000000000E+02 0.  0.
<mgrwt>
<rscale>  0 0.54808811E+02</rscale>
<asrwt>0</asrwt>
<pdfrwt beam="1">  1       13 0.10000000E+01 0.54808811E+02</pdfrwt>
<pdfrwt beam="2">  1       22 0.15085239E+00 0.54808811E+02</pdfrwt>
<totfact> 0.75000969E-01</totfact>
</mgrwt>
</event>
<event>
 4    1  0.2516086E+000  0.5364589E+02  0.7957747E-01  0.1426613E+00
         13   -1    0    0    0    0  0.00000000000E+00  0.00000000000E+00  0.99999944175E+02  0.99999999995E+02  0.10566000000E+00 0.  1.
         22   -1    0    0    0    0 -0.00000000000E+00 -0.00000000000E+00 -0.43522684944E+02  0.43522684944E+02  0.00000000000E+00 0. -1.
         13    1    1    2    0    0  0.29988442162E+01  0.19206475089E+02 -0.33520390823E+02  0.38749316342E+02  0.10566000000E+00 0. -1.
        996    1    1    2    0    0 -0.29988442162E+01 -0.19206475089E+02  0.89997650054E+02  0.10477336860E+03  0.50000000000E+02 0.  0.
<mgrwt>
<rscale>  0 0.53645892E+02</rscale>
<asrwt>0</asrwt>
<pdfrwt beam="1">  1       13 0.10000000E+01 0.53645892E+02</pdfrwt>
<pdfrwt beam="2">  1       22 0.43522701E+00 0.53645892E+02</pdfrwt>
<totfact> 0.10430888E-01</totfact>
</mgrwt>
</event>
<event>
 4    1  0.2516086E+000  0.5726211E+02  0.7957747E-01  0.1409694E+00
         13   -1    0    0    0    0  0.00000000000E+00  0.00000000000E+00  0.99999944180E+02  0.10000000000E+03  0.10566000000E+00 0.  1.
         22   -1    0    0    0    0 -0.00000000000E+00 -0.00000000000E+00 -0.31765635346E+02  0.31765635346E+02  0.00000000000E+00 0. -1.
         13    1    1    2    0    0 -0.93755496347E+01 -0.26287807376E+02 -0.14262674538E+02  0.31343018307E+02  0.10566000000E+00 0. -1.
        996    1    1    2    0    0  0.93755496347E+01  0.26287807376E+02  0.82496983372E+02  0.10042261704E+03  0.50000000000E+02 0.  0.
<mgrwt>
<rscale>  0 0.57262114E+02</rscale>
<asrwt>0</asrwt>
<pdfrwt beam="1">  1       13 0.10000000E+01 0.57262114E+02</pdfrwt>
<pdfrwt beam="2">  1       22 0.31765654E+00 0.57262114E+02</pdfrwt>
<totfact> 0.18756792E-01</totfact>
</mgrwt>
</event>
<event>
 4    1  0.2516086E+000  0.5222715E+02  0.7957747E-01  0.1433686E+00
         13   -1    0    0    0    0  0.00000000000E+00  0.00000000000E+00  0.99999944182E+02  0.10000000000E+03  0.10566000000E+00 0. -1.
         22   -1    0    0    0    0 -0.00000000000E+00 -0.00000000000E+00 -0.16908355542E+02  0.16908355542E+02  0.00000000000E+00 0.  1.
         13    1    1    2    0    0  0.87623286784E+01  0.12284020715E+02 -0.37712205832E+01  0.15553418837E+02  0.10566000000E+00 0.  1.
        996    1    1    2    0    0 -0.87623286784E+01 -0.12284020715E+02  0.86862809224E+02  0.10135493671E+03  0.50000000000E+02 0.  0.
<mgrwt>
<rscale>  0 0.52227154E+02</rscale>
<asrwt>0</asrwt>
<pdfrwt beam="1">  1       13 0.10000000E+01 0.52227154E+02</pdfrwt>
<pdfrwt beam="2">  1       22 0.16908379E+00 0.52227154E+02</pdfrwt>
<totfact> 0.61403433E-01</totfact>
</mgrwt>
</event>
<event>
 4    1  0.2516086E+000  0.8543507E+02  0.7957747E-01  0.1314299E+00
         13   -1    0    0    0    0  0.00000000000E+00  0.00000000000E+00  0.99999944186E+02  0.10000000001E+03  0.10566000000E+00 0. -1.
         22   -1    0    0    0    0 -0.00000000000E+00 -0.00000000000E+00 -0.71514403489E+02  0.71514403489E+02  0.00000000000E+00 0.  1.
         13    1    1    2    0    0  0.38372282477E+02  0.57677720027E+02 -0.21494318418E+02  0.72533911644E+02  0.10566000000E+00 0.  1.
        996    1    1    2    0    0 -0.38372282477E+02 -0.57677720027E+02  0.49979859115E+02  0.98980491852E+02  0.50000000000E+02 0.  0.
<mgrwt>
<rscale>  0 0.85435072E+02</rscale>
<asrwt>0</asrwt>
<pdfrwt beam="1">  1       13 0.10000000E+01 0.85435072E+02</pdfrwt>
<pdfrwt beam="2">  1       22 0.71514411E+00 0.85435072E+02</pdfrwt>
<totfact> 0.66622194E-02</totfact>
</mgrwt>
</event>
<event>
 4    1  0.2516086E+000  0.5208173E+02  0.7957747E-01  0.1434426E+00
         13   -1    0    0    0    0  0.00000000000E+00  0.00000000000E+00  0.99999944179E+02  0.10000000000E+03  0.10566000000E+00 0. -1.
         22   -1    0    0    0    0 -0.00000000000E+00 -0.00000000000E+00 -0.11169742166E+02  0.11169742166E+02  0.00000000000E+00 0.  1.
         13    1    1    2    0    0  0.62721399153E+01 -0.13159304835E+02  0.16163675042E+02  0.21766547677E+02  0.10566000000E+00 0.  1.
        996    1    1    2    0    0 -0.62721399153E+01  0.13159304835E+02  0.72666526971E+02  0.89403194489E+02  0.50000000000E+02 0.  0.
<mgrwt>
<rscale>  0 0.52081734E+02</rscale>
<asrwt>0</asrwt>
<pdfrwt beam="1">  1       13 0.10000000E+01 0.52081734E+02</pdfrwt>
<pdfrwt beam="2">  1       22 0.11169767E+00 0.52081734E+02</pdfrwt>
<totfact> 0.11982734E+00</totfact>
</mgrwt>
</event>
<event>
 4    1  0.2516086E+000  0.5443673E+02  0.7957747E-01  0.1422782E+00
         13   -1    0    0    0    0  0.00000000000E+00  0.00000000000E+00  0.99999944173E+02  0.99999999993E+02  0.10566000000E+00 0. -1.
         22   -1    0    0    0    0 -0.00000000000E+00 -0.00000000000E+00 -0.34539468984E+02  0.34539468984E+02  0.00000000000E+00 0.  1.
         13    1    1    2    0    0  0.17024733043E+02  0.13172544607E+02 -0.22473305429E+02  0.31119416568E+02  0.10566000000E+00 0.  1.
        996    1    1    2    0    0 -0.17024733043E+02 -0.13172544607E+02  0.87933780617E+02  0.10342005241E+03  0.50000000000E+02 0.  0.
<mgrwt>
<rscale>  0 0.54436729E+02</rscale>
<asrwt>0</asrwt>
<pdfrwt beam="1">  1       13 0.10000000E+01 0.54436729E+02</pdfrwt>
<pdfrwt beam="2">  1       22 0.34539487E+00 0.54436729E+02</pdfrwt>
<totfact> 0.16122159E-01</totfact>
</mgrwt>
</event>
<event>
 4    1  0.2516086E+000  0.5190533E+02  0.7957747E-01  0.1435328E+00
         13   -1    0    0    0    0  0.00000000000E+00  0.00000000000E+00  0.99999944179E+02  0.99999999999E+02  0.10566000000E+00 0. -1.
         22   -1    0    0    0    0 -0.00000000000E+00 -0.00000000000E+00 -0.14290966031E+02  0.14290966031E+02  0.00000000000E+00 0.  1.
         13    1    1    2    0    0 -0.10825557854E+02 -0.87732771012E+01 -0.18045136289E+00  0.13935810729E+02  0.10566000000E+00 0.  1.
        996    1    1    2    0    0  0.10825557854E+02  0.87732771012E+01  0.85889429510E+02  0.10035515530E+03  0.50000000000E+02 0.  0.
<mgrwt>
<rscale>  0 0.51905328E+02</rscale>
<asrwt>0</asrwt>
<pdfrwt beam="1">  1       13 0.10000000E+01 0.51905328E+02</pdfrwt>
<pdfrwt beam="2">  1       22 0.14290990E+00 0.51905328E+02</pdfrwt>
<totfact> 0.81535751E-01</totfact>
</mgrwt>
</event>
<event>
 4    1  0.2516086E+000  0.5157660E+02  0.7957747E-01  0.1437019E+00
         13   -1    0    0    0    0  0.00000000000E+00  0.00000000000E+00  0.99999944175E+02  0.99999999995E+02  0.10566000000E+00 0. -1.
         22   -1    0    0    0    0 -0.00000000000E+00 -0.00000000000E+00 -0.20887284423E+02  0.20887284423E+02  0.00000000000E+00 0.  1.
         13    1    1    2    0    0  0.95308338869E+01  0.83251997741E+01 -0.11190307152E+02  0.16893190464E+02  0.10566000000E+00 0.  1.
        996    1    1    2    0    0 -0.95308338869E+01 -0.83251997741E+01  0.90302966903E+02  0.10399409395E+03  0.50000000000E+02 0.  0.
<mgrwt>
<rscale>  0 0.51576601E+02</rscale>
<asrwt>0</asrwt>
<pdfrwt beam="1">  1       13 0.10000000E+01 0.51576601E+02</pdfrwt>
<pdfrwt beam="2">  1       22 0.20887307E+00 0.51576601E+02</pdfrwt>
<totfact> 0.41727211E-01</totfact>
</mgrwt>
</event>
<event>
 4    1  0.2516086E+000  0.5132060E+02  0.7957747E-01  0.1438346E+00
         13   -1    0    0    0    0  0.00000000000E+00  0.00000000000E+00  0.99999944186E+02  0.10000000001E+03  0.10566000000E+00 0.  1.
         22   -1    0    0    0    0 -0.00000000000E+00 -0.00000000000E+00 -0.12341522285E+02  0.12341522285E+02  0.00000000000E+00 0.  1.
         13    1    1    2    0    0  0.28334574335E+01 -0.11214960957E+02  0.97979611697E+00  0.11609263317E+02  0.10566000000E+00 0. -1.
        996    1    1    2    0    0 -0.28334574335E+01  0.11214960957E+02  0.86678625784E+02  0.10073225897E+03  0.50000000000E+02 0.  0.
<mgrwt>
<rscale>  0 0.51320598E+02</rscale>
<asrwt>0</asrwt>
<pdfrwt beam="1">  1       13 0.10000000E+01 0.51320598E+02</pdfrwt>
<pdfrwt beam="2">  1       22 0.12341547E+00 0.51320598E+02</pdfrwt>
<totfact> 0.10279409E+00</totfact>
</mgrwt>
</event>
<event>
 4    1  0.2516086E+000  0.5106659E+02  0.7957747E-01  0.1439672E+00
         13   -1    0    0    0    0  0.00000000000E+00  0.00000000000E+00  0.99999944178E+02  0.99999999998E+02  0.10566000000E+00 0.  1.
         22   -1    0    0    0    0 -0.00000000000E+00 -0.00000000000E+00 -0.12178983948E+02  0.12178983948E+02  0.00000000000E+00 0. -1.
         13    1    1    2    0    0  0.10368715882E+02 -0.53475345643E+00 -0.23624890390E+00  0.10385721346E+02  0.10566000000E+00 0. -1.
        996    1    1    2    0    0 -0.10368715882E+02  0.53475345643E+00  0.88057209134E+02  0.10179326260E+03  0.50000000000E+02 0.  0.
<mgrwt>
<rscale>  0 0.51066586E+02</rscale>
<asrwt>0</asrwt>
<pdfrwt beam="1">  1       13 0.10000000E+01 0.51066586E+02</pdfrwt>
<pdfrwt beam="2">  1       22 0.12179008E+00 0.51066586E+02</pdfrwt>
<totfact> 0.10485772E+00</totfact>
</mgrwt>
</event>
<event>
 4    1  0.2516086E+000  0.5190598E+02  0.7957747E-01  0.1435324E+00
         13   -1    0    0    0    0  0.00000000000E+00  0.00000000000E+00  0.99999944175E+02  0.99999999995E+02  0.10566000000E+00 0.  1.
         22   -1    0    0    0    0 -0.00000000000E+00 -0.00000000000E+00 -0.30265475944E+02  0.30265475944E+02  0.00000000000E+00 0. -1.
         13    1    1    2    0    0 -0.13928788908E+02  0.46823554890E+00 -0.21310729879E+02  0.25463479279E+02  0.10566000000E+00 0. -1.
        996    1    1    2    0    0  0.13928788908E+02 -0.46823554890E+00  0.91045198110E+02  0.10480199666E+03  0.50000000000E+02 0.  0.
<mgrwt>
<rscale>  0 0.51905977E+02</rscale>
<asrwt>0</asrwt>
<pdfrwt beam="1">  1       13 0.10000000E+01 0.51905977E+02</pdfrwt>
<pdfrwt beam="2">  1       22 0.30265495E+00 0.51905977E+02</pdfrwt>
<totfact> 0.20363365E-01</totfact>
</mgrwt>
</event>
<event>
 4    1  0.2516086E+000  0.5556365E+02  0.7957747E-01  0.1417452E+00
         13   -1    0    0    0    0  0.00000000000E+00  0.00000000000E+00  0.99999944176E+02  0.99999999996E+02  0.10566000000E+00 0. -1.
         22   -1    0    0    0    0 -0.00000000000E+00 -0.00000000000E+00 -0.37654300704E+02  0.37654300704E+02  0.00000000000E+00 0.  1.
         13    1    1    2    0    0  0.21420282812E+02 -0.11335397606E+02 -0.24560244464E+02  0.34504152312E+02  0.10566000000E+00 0.  1.
        996    1    1    2    0    0 -0.21420282812E+02  0.11335397606E+02  0.86905887935E+02  0.10315014839E+03  0.50000000000E+02 0.  0.
<mgrwt>
<rscale>  0 0.55563655E+02</rscale>
<asrwt>0</asrwt>
<pdfrwt beam="1">  1       13 0.10000000E+01 0.55563655E+02</pdfrwt>
<pdfrwt beam="2">  1       22 0.37654318E+00 0.55563655E+02</pdfrwt>
<totfact> 0.13862079E-01</totfact>
</mgrwt>
</event>
<event>
 4    1  0.2516086E+000  0.5134957E+02  0.7957747E-01  0.1438195E+00
         13   -1    0    0    0    0  0.00000000000E+00  0.00000000000E+00  0.99999944178E+02  0.99999999998E+02  0.10566000000E+00 0.  1.
         22   -1    0    0    0    0 -0.00000000000E+00 -0.00000000000E+00 -0.13861761032E+02  0.13861761032E+02  0.00000000000E+00 0.  1.
         13    1    1    2    0    0 -0.11490418312E+02  0.21792327323E+01 -0.19910746559E+01  0.11863992187E+02  0.10566000000E+00 0. -1.
        996    1    1    2    0    0  0.11490418312E+02 -0.21792327323E+01  0.88129257802E+02  0.10199776884E+03  0.50000000000E+02 0.  0.
<mgrwt>
<rscale>  0 0.51349574E+02</rscale>
<asrwt>0</asrwt>
<pdfrwt beam="1">  1       13 0.10000000E+01 0.51349574E+02</pdfrwt>
<pdfrwt beam="2">  1       22 0.13861785E+00 0.51349574E+02</pdfrwt>
<totfact> 0.85573734E-01</totfact>
</mgrwt>
</event>
<event>
 4    1  0.2516086E+000  0.5250073E+02  0.7957747E-01  0.1432302E+00
         13   -1    0    0    0    0  0.00000000000E+00  0.00000000000E+00  0.99999944172E+02  0.99999999992E+02  0.10566000000E+00 0. -1.
         22   -1    0    0    0    0 -0.00000000000E+00 -0.00000000000E+00 -0.16585007932E+02  0.16585007932E+02  0.00000000000E+00 0.  1.
         13    1    1    2    0    0 -0.90324412714E+01 -0.13218984162E+02 -0.21936476228E+01  0.16160129688E+02  0.10566000000E+00 0.  1.
        996    1    1    2    0    0  0.90324412714E+01  0.13218984162E+02  0.85608583863E+02  0.10042487824E+03  0.50000000000E+02 0.  0.
<mgrwt>
<rscale>  0 0.52500729E+02</rscale>
<asrwt>0</asrwt>
<pdfrwt beam="1">  1       13 0.10000000E+01 0.52500729E+02</pdfrwt>
<pdfrwt beam="2">  1       22 0.16585031E+00 0.52500729E+02</pdfrwt>
<totfact> 0.63537375E-01</totfact>
</mgrwt>
</event>
<event>
 4    1  0.2516086E+000  0.5350124E+02  0.7957747E-01  0.1427323E+00
         13   -1    0    0    0    0  0.00000000000E+00  0.00000000000E+00  0.99999944179E+02  0.99999999999E+02  0.10566000000E+00 0.  1.
         22   -1    0    0    0    0 -0.00000000000E+00 -0.00000000000E+00 -0.13603464977E+02  0.13603464977E+02  0.00000000000E+00 0.  1.
         13    1    1    2    0    0 -0.13544055750E+02 -0.13376892390E+02  0.32476512516E+02  0.37644624123E+02  0.10566000000E+00 0. -1.
        996    1    1    2    0    0  0.13544055750E+02  0.13376892390E+02  0.53919966686E+02  0.75958840852E+02  0.50000000000E+02 0.  0.
<mgrwt>
<rscale>  0 0.53501240E+02</rscale>
<asrwt>0</asrwt>
<pdfrwt beam="1">  1       13 0.10000000E+01 0.53501240E+02</pdfrwt>
<pdfrwt beam="2">  1       22 0.13603489E+00 0.53501240E+02</pdfrwt>
<totfact> 0.88602378E-01</totfact>
</mgrwt>
</event>
<event>
 4    1  0.2516086E+000  0.6293125E+02  0.7957747E-01  0.1385927E+00
         13   -1    0    0    0    0  0.00000000000E+00  0.00000000000E+00  0.99999944177E+02  0.99999999997E+02  0.10566000000E+00 0. -1.
         22   -1    0    0    0    0 -0.00000000000E+00 -0.00000000000E+00 -0.64664367604E+02  0.64664367604E+02  0.00000000000E+00 0.  1.
         13    1    1    2    0    0  0.20600774897E+01 -0.38158858288E+02 -0.47291162981E+02  0.60801378646E+02  0.10566000000E+00 0.  1.
        996    1    1    2    0    0 -0.20600774897E+01  0.38158858288E+02  0.82626739555E+02  0.10386298895E+03  0.50000000000E+02 0.  0.
<mgrwt>
<rscale>  0 0.62931251E+02</rscale>
<asrwt>0</asrwt>
<pdfrwt beam="1">  1       13 0.10000000E+01 0.62931251E+02</pdfrwt>
<pdfrwt beam="2">  1       22 0.64664377E+00 0.62931251E+02</pdfrwt>
<totfact> 0.85577066E-02</totfact>
</mgrwt>
</event>
<event>
 4    1  0.2516086E+000  0.5185930E+02  0.7957747E-01  0.1435563E+00
         13   -1    0    0    0    0  0.00000000000E+00  0.00000000000E+00  0.99999944171E+02  0.99999999991E+02  0.10566000000E+00 0.  1.
         22   -1    0    0    0    0 -0.00000000000E+00 -0.00000000000E+00 -0.55638055151E+02  0.55638055151E+02  0.00000000000E+00 0. -1.
         13    1    1    2    0    0  0.12807556819E+02  0.50351812865E+01 -0.47879500087E+02  0.49818111716E+02  0.10566000000E+00 0. -1.
        996    1    1    2    0    0 -0.12807556819E+02 -0.50351812865E+01  0.92241389108E+02  0.10581994343E+03  0.50000000000E+02 0.  0.
<mgrwt>
<rscale>  0 0.51859296E+02</rscale>
<asrwt>0</asrwt>
<pdfrwt beam="1">  1       13 0.10000000E+01 0.51859296E+02</pdfrwt>
<pdfrwt beam="2">  1       22 0.55638068E+00 0.51859296E+02</pdfrwt>
<totfact> 0.58704512E-02</totfact>
</mgrwt>
</event>
<event>
 4    1  0.2516086E+000  0.5339304E+02  0.7957747E-01  0.1427855E+00
         13   -1    0    0    0    0  0.00000000000E+00  0.00000000000E+00  0.99999944180E+02  0.10000000000E+03  0.10566000000E+00 0. -1.
         22   -1    0    0    0    0 -0.00000000000E+00 -0.00000000000E+00 -0.16507475800E+02  0.16507475800E+02  0.00000000000E+00 0.  1.
         13    1    1    2    0    0 -0.91078022509E+01 -0.16366571885E+02  0.16693231271E+01  0.18804641470E+02  0.10566000000E+00 0.  1.
        996    1    1    2    0    0  0.91078022509E+01  0.16366571885E+02  0.81823145253E+02  0.97702834330E+02  0.50000000000E+02 0.  0.
<mgrwt>
<rscale>  0 0.53393040E+02</rscale>
<asrwt>0</asrwt>
<pdfrwt beam="1">  1       13 0.10000000E+01 0.53393040E+02</pdfrwt>
<pdfrwt beam="2">  1       22 0.16507499E+00 0.53393040E+02</pdfrwt>
<totfact> 0.64165692E-01</totfact>
</mgrwt>
</event>
<event>
 4    1  0.2516086E+000  0.5304501E+02  0.7957747E-01  0.1429577E+00
         13   -1    0    0    0    0  0.00000000000E+00  0.00000000000E+00  0.99999944180E+02  0.10000000000E+03  0.10566000000E+00 0.  1.
         22   -1    0    0    0    0 -0.00000000000E+00 -0.00000000000E+00 -0.21693327605E+02  0.21693327605E+02  0.00000000000E+00 0. -1.
         13    1    1    2    0    0 -0.97073985872E+01  0.14816864522E+02 -0.87437502102E+01  0.19754427184E+02  0.10566000000E+00 0. -1.
        996    1    1    2    0    0  0.97073985872E+01 -0.14816864522E+02  0.87050366786E+02  0.10193890042E+03  0.50000000000E+02 0.  0.
<mgrwt>
<rscale>  0 0.53045010E+02</rscale>
<asrwt>0</asrwt>
<pdfrwt beam="1">  1       13 0.10000000E+01 0.53045010E+02</pdfrwt>
<pdfrwt beam="2">  1       22 0.21693349E+00 0.53045010E+02</pdfrwt>
<totfact> 0.38922765E-01</totfact>
</mgrwt>
</event>
<event>
 4    1  0.2516086E+000  0.5235276E+02  0.7957747E-01  0.1433049E+00
         13   -1    0    0    0    0  0.00000000000E+00  0.00000000000E+00  0.99999944177E+02  0.99999999997E+02  0.10566000000E+00 0.  1.
         22   -1    0    0    0    0 -0.00000000000E+00 -0.00000000000E+00 -0.16381989215E+02  0.16381989215E+02  0.00000000000E+00 0.  1.
         13    1    1    2    0    0  0.13524826461E+02 -0.76085685796E+01  0.54098602169E+02  0.56280379950E+02  0.10566000000E+00 0. -1.
        996    1    1    2    0    0 -0.13524826461E+02  0.76085685796E+01  0.29519352792E+02  0.60101609262E+02  0.50000000000E+02 0.  0.
<mgrwt>
<rscale>  0 0.52352758E+02</rscale>
<asrwt>0</asrwt>
<pdfrwt beam="1">  1       13 0.10000000E+01 0.52352758E+02</pdfrwt>
<pdfrwt beam="2">  1       22 0.16382013E+00 0.52352758E+02</pdfrwt>
<totfact> 0.64887639E-01</totfact>
</mgrwt>
</event>
<event>
 4    1  0.2516086E+000  0.5205962E+02  0.7957747E-01  0.1434539E+00
         13   -1    0    0    0    0  0.00000000000E+00  0.00000000000E+00  0.99999944172E+02  0.99999999992E+02  0.10566000000E+00 0. -1.
         22   -1    0    0    0    0 -0.00000000000E+00 -0.00000000000E+00 -0.15726778040E+02  0.15726778040E+02  0.00000000000E+00 0.  1.
         13    1    1    2    0    0 -0.14350282533E+02 -0.20671709046E+01 -0.23259343851E+01  0.14684173083E+02  0.10566000000E+00 0.  1.
        996    1    1    2    0    0  0.14350282533E+02  0.20671709046E+01  0.86599100517E+02  0.10104260495E+03  0.50000000000E+02 0.  0.
<mgrwt>
<rscale>  0 0.52059618E+02</rscale>
<asrwt>0</asrwt>
<pdfrwt beam="1">  1       13 0.10000000E+01 0.52059618E+02</pdfrwt>
<pdfrwt beam="2">  1       22 0.15726802E+00 0.52059618E+02</pdfrwt>
<totfact> 0.69543763E-01</totfact>
</mgrwt>
</event>
<event>
 4    1  0.2516086E+000  0.5301130E+02  0.7957747E-01  0.1429745E+00
         13   -1    0    0    0    0  0.00000000000E+00  0.00000000000E+00  0.99999944176E+02  0.99999999996E+02  0.10566000000E+00 0. -1.
         22   -1    0    0    0    0 -0.00000000000E+00 -0.00000000000E+00 -0.40367121962E+02  0.40367121962E+02  0.00000000000E+00 0.  1.
         13    1    1    2    0    0  0.17586953204E+02 -0.94714527537E+00 -0.30835700911E+02  0.35511260494E+02  0.10566000000E+00 0.  1.
        996    1    1    2    0    0 -0.17586953204E+02  0.94714527537E+00  0.90468523125E+02  0.10485586146E+03  0.50000000000E+02 0.  0.
<mgrwt>
<rscale>  0 0.53011301E+02</rscale>
<asrwt>0</asrwt>
<pdfrwt beam="1">  1       13 0.10000000E+01 0.53011301E+02</pdfrwt>
<pdfrwt beam="2">  1       22 0.40367139E+00 0.53011301E+02</pdfrwt>
<totfact> 0.12163129E-01</totfact>
</mgrwt>
</event>
<event>
 4    1  0.2516086E+000  0.5947733E+02  0.7957747E-01  0.1400038E+00
         13   -1    0    0    0    0  0.00000000000E+00  0.00000000000E+00  0.99999944185E+02  0.10000000000E+03  0.10566000000E+00 0.  1.
         22   -1    0    0    0    0 -0.00000000000E+00 -0.00000000000E+00 -0.32580762540E+02  0.32580762540E+02  0.00000000000E+00 0. -1.
         13    1    1    2    0    0  0.20354330025E+02  0.24965061385E+02 -0.11106908453E+02  0.34072387943E+02  0.10566000000E+00 0. -1.
        996    1    1    2    0    0 -0.20354330025E+02 -0.24965061385E+02  0.78526090097E+02  0.98508374602E+02  0.50000000000E+02 0.  0.
<mgrwt>
<rscale>  0 0.59477332E+02</rscale>
<asrwt>0</asrwt>
<pdfrwt beam="1">  1       13 0.10000000E+01 0.59477332E+02</pdfrwt>
<pdfrwt beam="2">  1       22 0.32580781E+00 0.59477332E+02</pdfrwt>
<totfact> 0.17963571E-01</totfact>
</mgrwt>
</event>
<event>
 4    1  0.2516086E+000  0.5110049E+02  0.7957747E-01  0.1439495E+00
         13   -1    0    0    0    0  0.00000000000E+00  0.00000000000E+00  0.99999944178E+02  0.99999999998E+02  0.10566000000E+00 0. -1.
         22   -1    0    0    0    0 -0.00000000000E+00 -0.00000000000E+00 -0.14312911671E+02  0.14312911671E+02  0.00000000000E+00 0.  1.
         13    1    1    2    0    0  0.88943987747E+01  0.56701153177E+01 -0.38424611118E+01  0.11226584909E+02  0.10566000000E+00 0.  1.
        996    1    1    2    0    0 -0.88943987747E+01 -0.56701153177E+01  0.89529493619E+02  0.10308632676E+03  0.50000000000E+02 0.  0.
<mgrwt>
<rscale>  0 0.51100494E+02</rscale>
<asrwt>0</asrwt>
<pdfrwt beam="1">  1       13 0.10000000E+01 0.51100494E+02</pdfrwt>
<pdfrwt beam="2">  1       22 0.14312936E+00 0.51100494E+02</pdfrwt>
<totfact> 0.81193957E-01</totfact>
</mgrwt>
</event>
<event>
 4    1  0.2516086E+000  0.5171990E+02  0.7957747E-01  0.1436280E+00
         13   -1    0    0    0    0  0.00000000000E+00  0.00000000000E+00  0.99999944179E+02  0.99999999999E+02  0.10566000000E+00 0. -1.
         22   -1    0    0    0    0 -0.00000000000E+00 -0.00000000000E+00 -0.11696637196E+02  0.11696637196E+02  0.00000000000E+00 0. -1.
         13    1    1    2    0    0  0.12703710391E+02  0.36828373850E+01  0.60756383075E+01  0.14555826798E+02  0.10566000000E+00 0.  1.
        996    1    1    2    0    0 -0.12703710391E+02 -0.36828373850E+01  0.82227668675E+02  0.97140810397E+02  0.50000000000E+02 0.  0.
<mgrwt>
<rscale>  0 0.51719895E+02</rscale>
<asrwt>0</asrwt>
<pdfrwt beam="1">  1       13 0.10000000E+01 0.51719895E+02</pdfrwt>
<pdfrwt beam="2">  1       22 0.11696662E+00 0.51719895E+02</pdfrwt>
<totfact> 0.11170155E+00</totfact>
</mgrwt>
</event>
<event>
 4    1  0.2516086E+000  0.5104793E+02  0.7957747E-01  0.1439770E+00
         13   -1    0    0    0    0  0.00000000000E+00  0.00000000000E+00  0.99999944175E+02  0.99999999995E+02  0.10566000000E+00 0.  1.
         22   -1    0    0    0    0 -0.00000000000E+00 -0.00000000000E+00 -0.42056299187E+02  0.42056299187E+02  0.00000000000E+00 0. -1.
         13    1    1    2    0    0 -0.59342583851E+01  0.84069002410E+01 -0.34746687668E+02  0.36238582508E+02  0.10566000000E+00 0. -1.
        996    1    1    2    0    0  0.59342583851E+01 -0.84069002410E+01  0.92690332656E+02  0.10581771667E+03  0.50000000000E+02 0.  0.
<mgrwt>
<rscale>  0 0.51047932E+02</rscale>
<asrwt>0</asrwt>
<pdfrwt beam="1">  1       13 0.10000000E+01 0.51047932E+02</pdfrwt>
<pdfrwt beam="2">  1       22 0.42056315E+00 0.51047932E+02</pdfrwt>
<totfact> 0.11197011E-01</totfact>
</mgrwt>
</event>
<event>
 4    1  0.2516086E+000  0.5149249E+02  0.7957747E-01  0.1437454E+00
         13   -1    0    0    0    0  0.00000000000E+00  0.00000000000E+00  0.99999944172E+02  0.99999999993E+02  0.10566000000E+00 0.  1.
         22   -1    0    0    0    0 -0.00000000000E+00 -0.00000000000E+00 -0.11278195822E+02  0.11278195822E+02  0.00000000000E+00 0.  1.
         13    1    1    2    0    0  0.11016413024E+02 -0.54877714721E+01  0.56524596953E+01  0.13543945374E+02  0.10566000000E+00 0. -1.
        996    1    1    2    0    0 -0.11016413024E+02  0.54877714721E+01  0.83069288655E+02  0.97734250441E+02  0.50000000000E+02 0.  0.
<mgrwt>
<rscale>  0 0.51492495E+02</rscale>
<asrwt>0</asrwt>
<pdfrwt beam="1">  1       13 0.10000000E+01 0.51492495E+02</pdfrwt>
<pdfrwt beam="2">  1       22 0.11278221E+00 0.51492495E+02</pdfrwt>
<totfact> 0.11794646E+00</totfact>
</mgrwt>
</event>
<event>
 4    1  0.2516086E+000  0.5915764E+02  0.7957747E-01  0.1401401E+00
         13   -1    0    0    0    0  0.00000000000E+00  0.00000000000E+00  0.99999944183E+02  0.10000000000E+03  0.10566000000E+00 0.  1.
         22   -1    0    0    0    0 -0.00000000000E+00 -0.00000000000E+00 -0.41480613693E+02  0.41480613693E+02  0.00000000000E+00 0. -1.
         13    1    1    2    0    0 -0.31388153946E+02 -0.37961342000E+01 -0.24178097470E+02  0.39802241197E+02  0.10566000000E+00 0. -1.
        996    1    1    2    0    0  0.31388153946E+02  0.37961342000E+01  0.82697427960E+02  0.10167837250E+03  0.50000000000E+02 0.  0.
<mgrwt>
<rscale>  0 0.59157644E+02</rscale>
<asrwt>0</asrwt>
<pdfrwt beam="1">  1       13 0.10000000E+01 0.59157644E+02</pdfrwt>
<pdfrwt beam="2">  1       22 0.41480630E+00 0.59157644E+02</pdfrwt>
<totfact> 0.11578174E-01</totfact>
</mgrwt>
</event>
<event>
 4    1  0.2516086E+000  0.6386776E+02  0.7957747E-01  0.1382282E+00
         13   -1    0    0    0    0  0.00000000000E+00  0.00000000000E+00  0.99999944175E+02  0.99999999995E+02  0.10566000000E+00 0.  1.
         22   -1    0    0    0    0 -0.00000000000E+00 -0.00000000000E+00 -0.68237378417E+02  0.68237378417E+02  0.00000000000E+00 0. -1.
         13    1    1    2    0    0 -0.35851049082E+02  0.17140383200E+02 -0.50393450814E+02  0.64176331350E+02  0.10566000000E+00 0. -1.
        996    1    1    2    0    0  0.35851049082E+02 -0.17140383200E+02  0.82156016572E+02  0.10406104706E+03  0.50000000000E+02 0.  0.
<mgrwt>
<rscale>  0 0.63867758E+02</rscale>
<asrwt>0</asrwt>
<pdfrwt beam="1">  1       13 0.10000000E+01 0.63867758E+02</pdfrwt>
<pdfrwt beam="2">  1       22 0.68237387E+00 0.63867758E+02</pdfrwt>
<totfact> 0.82605364E-02</totfact>
</mgrwt>
</event>
<event>
 4    1  0.2516086E+000  0.5365224E+02  0.7957747E-01  0.1426582E+00
         13   -1    0    0    0    0  0.00000000000E+00  0.00000000000E+00  0.99999944179E+02  0.99999999999E+02  0.10566000000E+00 0. -1.
         22   -1    0    0    0    0 -0.00000000000E+00 -0.00000000000E+00 -0.24353646560E+02  0.24353646560E+02  0.00000000000E+00 0.  1.
         13    1    1    2    0    0 -0.16404452918E+02  0.10462171498E+02 -0.11067026760E+02  0.22384221079E+02  0.10566000000E+00 0.  1.
        996    1    1    2    0    0  0.16404452918E+02 -0.10462171498E+02  0.86713324379E+02  0.10196942548E+03  0.50000000000E+02 0.  0.
<mgrwt>
<rscale>  0 0.53652242E+02</rscale>
<asrwt>0</asrwt>
<pdfrwt beam="1">  1       13 0.10000000E+01 0.53652242E+02</pdfrwt>
<pdfrwt beam="2">  1       22 0.24353668E+00 0.53652242E+02</pdfrwt>
<totfact> 0.31117295E-01</totfact>
</mgrwt>
</event>
<event>
 4    1  0.2516086E+000  0.5115690E+02  0.7957747E-01  0.1439200E+00
         13   -1    0    0    0    0  0.00000000000E+00  0.00000000000E+00  0.99999944182E+02  0.10000000000E+03  0.10566000000E+00 0.  1.
         22   -1    0    0    0    0 -0.00000000000E+00 -0.00000000000E+00 -0.99455040909E+01  0.99455040909E+01  0.00000000000E+00 0. -1.
         13    1    1    2    0    0 -0.46974285183E+01  0.97448835872E+01  0.88813072651E+01  0.13997048746E+02  0.10566000000E+00 0. -1.
        996    1    1    2    0    0  0.46974285183E+01 -0.97448835872E+01  0.81173132826E+02  0.95948455348E+02  0.50000000000E+02 0.  0.
<mgrwt>
<rscale>  0 0.51156902E+02</rscale>
<asrwt>0</asrwt>
<pdfrwt beam="1">  1       13 0.10000000E+01 0.51156902E+02</pdfrwt>
<pdfrwt beam="2">  1       22 0.99455292E-01 0.51156902E+02</pdfrwt>
<totfact> 0.14180815E+00</totfact>
</mgrwt>
</event>
<event>
 4    1  0.2516086E+000  0.5130293E+02  0.7957747E-01  0.1438438E+00
         13   -1    0    0    0    0  0.00000000000E+00  0.00000000000E+00  0.99999944185E+02  0.10000000001E+03  0.10566000000E+00 0.  1.
         22   -1    0    0    0    0 -0.00000000000E+00 -0.00000000000E+00 -0.10510921698E+02  0.10510921698E+02  0.00000000000E+00 0.  1.
         13    1    1    2    0    0 -0.11055792200E+02 -0.31240547609E+01  0.72614211226E+01  0.13591528982E+02  0.10566000000E+00 0. -1.
        996    1    1    2    0    0  0.11055792200E+02  0.31240547609E+01  0.82227601364E+02  0.96919392721E+02  0.50000000000E+02 0.  0.
<mgrwt>
<rscale>  0 0.51302926E+02</rscale>
<asrwt>0</asrwt>
<pdfrwt beam="1">  1       13 0.10000000E+01 0.51302926E+02</pdfrwt>
<pdfrwt beam="2">  1       22 0.10510947E+00 0.51302926E+02</pdfrwt>
<totfact> 0.13087965E+00</totfact>
</mgrwt>
</event>
<event>
 4    1  0.2516086E+000  0.5102603E+02  0.7957747E-01  0.1439885E+00
         13   -1    0    0    0    0  0.00000000000E+00  0.00000000000E+00  0.99999944174E+02  0.99999999995E+02  0.10566000000E+00 0. -1.
         22   -1    0    0    0    0 -0.00000000000E+00 -0.00000000000E+00 -0.11235564852E+02  0.11235564852E+02  0.00000000000E+00 0. -1.
         13    1    1    2    0    0 -0.10153475730E+02  0.74977824504E+00  0.17031104810E+01  0.10323128701E+02  0.10566000000E+00 0.  1.
        996    1    1    2    0    0  0.10153475730E+02 -0.74977824504E+00  0.87061268841E+02  0.10091243615E+03  0.50000000000E+02 0.  0.
<mgrwt>
<rscale>  0 0.51026025E+02</rscale>
<asrwt>0</asrwt>
<pdfrwt beam="1">  1       13 0.10000000E+01 0.51026025E+02</pdfrwt>
<pdfrwt beam="2">  1       22 0.11235590E+00 0.51026025E+02</pdfrwt>
<totfact> 0.11848878E+00</totfact>
</mgrwt>
</event>
<event>
 4    1  0.2516086E+000  0.5332406E+02  0.7957747E-01  0.1428195E+00
         13   -1    0    0    0    0  0.00000000000E+00  0.00000000000E+00  0.99999944177E+02  0.99999999998E+02  0.10566000000E+00 0.  1.
         22   -1    0    0    0    0 -0.00000000000E+00 -0.00000000000E+00 -0.38757198735E+02  0.38757198735E+02  0.00000000000E+00 0. -1.
         13    1    1    2    0    0 -0.12047879123E+02  0.14082041418E+02 -0.28718707699E+02  0.34179388787E+02  0.10566000000E+00 0. -1.
        996    1    1    2    0    0  0.12047879123E+02 -0.14082041418E+02  0.89961453141E+02  0.10457780995E+03  0.50000000000E+02 0.  0.
<mgrwt>
<rscale>  0 0.53324059E+02</rscale>
<asrwt>0</asrwt>
<pdfrwt beam="1">  1       13 0.10000000E+01 0.53324059E+02</pdfrwt>
<pdfrwt beam="2">  1       22 0.38757216E+00 0.53324059E+02</pdfrwt>
<totfact> 0.13131001E-01</totfact>
</mgrwt>
</event>
<event>
 4    1  0.2516086E+000  0.5164826E+02  0.7957747E-01  0.1436649E+00
         13   -1    0    0    0    0  0.00000000000E+00  0.00000000000E+00  0.99999944184E+02  0.10000000000E+03  0.10566000000E+00 0.  1.
         22   -1    0    0    0    0 -0.00000000000E+00 -0.00000000000E+00 -0.10459347571E+02  0.10459347571E+02  0.00000000000E+00 0.  1.
         13    1    1    2    0    0 -0.12803990749E+02  0.18976476248E+01  0.15692667940E+02  0.20342424553E+02  0.10566000000E+00 0. -1.
        996    1    1    2    0    0  0.12803990749E+02 -0.18976476248E+01  0.73847928673E+02  0.90116923022E+02  0.50000000000E+02 0.  0.
<mgrwt>
<rscale>  0 0.51648265E+02</rscale>
<asrwt>0</asrwt>
<pdfrwt beam="1">  1       13 0.10000000E+01 0.51648265E+02</pdfrwt>
<pdfrwt beam="2">  1       22 0.10459373E+00 0.51648265E+02</pdfrwt>
<totfact> 0.13193581E+00</totfact>
</mgrwt>
</event>
<event>
 4    1  0.2516086E+000  0.5995968E+02  0.7957747E-01  0.1398001E+00
         13   -1    0    0    0    0  0.00000000000E+00  0.00000000000E+00  0.99999944178E+02  0.99999999998E+02  0.10566000000E+00 0.  1.
         22   -1    0    0    0    0 -0.00000000000E+00 -0.00000000000E+00 -0.72186498566E+02  0.72186498566E+02  0.00000000000E+00 0. -1.
         13    1    1    2    0    0  0.23232498411E+02 -0.23567220759E+02 -0.58428280509E+02  0.67149370838E+02  0.10566000000E+00 0. -1.
        996    1    1    2    0    0 -0.23232498411E+02  0.23567220759E+02  0.86241726120E+02  0.10503712773E+03  0.50000000000E+02 0.  0.
<mgrwt>
<rscale>  0 0.59959677E+02</rscale>
<asrwt>0</asrwt>
<pdfrwt beam="1">  1       13 0.10000000E+01 0.59959677E+02</pdfrwt>
<pdfrwt beam="2">  1       22 0.72186506E+00 0.59959677E+02</pdfrwt>
<totfact> 0.63039260E-02</totfact>
</mgrwt>
</event>
<event>
 4    1  0.2516086E+000  0.5326934E+02  0.7957747E-01  0.1428465E+00
         13   -1    0    0    0    0  0.00000000000E+00  0.00000000000E+00  0.99999944180E+02  0.10000000000E+03  0.10566000000E+00 0.  1.
         22   -1    0    0    0    0 -0.00000000000E+00 -0.00000000000E+00 -0.22944941547E+02  0.22944941547E+02  0.00000000000E+00 0. -1.
         13    1    1    2    0    0  0.18110895903E+02 -0.31013062838E+01 -0.99740507312E+01  0.20907307410E+02  0.10566000000E+00 0. -1.
        996    1    1    2    0    0 -0.18110895903E+02  0.31013062838E+01  0.87029053364E+02  0.10203763414E+03  0.50000000000E+02 0.  0.
<mgrwt>
<rscale>  0 0.53269341E+02</rscale>
<asrwt>0</asrwt>
<pdfrwt beam="1">  1       13 0.10000000E+01 0.53269341E+02</pdfrwt>
<pdfrwt beam="2">  1       22 0.22944963E+00 0.53269341E+02</pdfrwt>
<totfact> 0.34940934E-01</totfact>
</mgrwt>
</event>
<event>
 4    1  0.2516086E+000  0.5169929E+02  0.7957747E-01  0.1436386E+00
         13   -1    0    0    0    0  0.00000000000E+00  0.00000000000E+00  0.99999944174E+02  0.99999999994E+02  0.10566000000E+00 0. -1.
         22   -1    0    0    0    0 -0.00000000000E+00 -0.00000000000E+00 -0.11139637869E+02  0.11139637869E+02  0.00000000000E+00 0. -1.
         13    1    1    2    0    0  0.13016906901E+02 -0.18377255643E+01  0.30267032595E+02  0.32998810989E+02  0.10566000000E+00 0.  1.
        996    1    1    2    0    0 -0.13016906901E+02  0.18377255643E+01  0.58593273710E+02  0.78140826874E+02  0.50000000000E+02 0.  0.
<mgrwt>
<rscale>  0 0.51699295E+02</rscale>
<asrwt>0</asrwt>
<pdfrwt beam="1">  1       13 0.10000000E+01 0.51699295E+02</pdfrwt>
<pdfrwt beam="2">  1       22 0.11139663E+00 0.51699295E+02</pdfrwt>
<totfact> 0.12020553E+00</totfact>
</mgrwt>
</event>
<event>
 4    1  0.2516086E+000  0.5199927E+02  0.7957747E-01  0.1434847E+00
         13   -1    0    0    0    0  0.00000000000E+00  0.00000000000E+00  0.99999944179E+02  0.99999999999E+02  0.10566000000E+00 0. -1.
         22   -1    0    0    0    0 -0.00000000000E+00 -0.00000000000E+00 -0.19147716450E+02  0.19147716450E+02  0.00000000000E+00 0.  1.
         13    1    1    2    0    0  0.14211908589E+02 -0.13950015741E+01 -0.78734104676E+01  0.16307241691E+02  0.10566000000E+00 0.  1.
        996    1    1    2    0    0 -0.14211908589E+02  0.13950015741E+01  0.88725638196E+02  0.10284047476E+03  0.50000000000E+02 0.  0.
<mgrwt>
<rscale>  0 0.51999273E+02</rscale>
<asrwt>0</asrwt>
<pdfrwt beam="1">  1       13 0.10000000E+01 0.51999273E+02</pdfrwt>
<pdfrwt beam="2">  1       22 0.19147739E+00 0.51999273E+02</pdfrwt>
<totfact> 0.49110955E-01</totfact>
</mgrwt>
</event>
<event>
 4    1  0.2516086E+000  0.5290518E+02  0.7957747E-01  0.1430273E+00
         13   -1    0    0    0    0  0.00000000000E+00  0.00000000000E+00  0.99999944174E+02  0.99999999994E+02  0.10566000000E+00 0.  1.
         22   -1    0    0    0    0 -0.00000000000E+00 -0.00000000000E+00 -0.25484146670E+02  0.25484146670E+02  0.00000000000E+00 0. -1.
         13    1    1    2    0    0  0.71201038737E+01 -0.15756335617E+02 -0.14077200828E+02  0.22296563377E+02  0.10566000000E+00 0. -1.
        996    1    1    2    0    0 -0.71201038737E+01  0.15756335617E+02  0.88592998332E+02  0.10318758329E+03  0.50000000000E+02 0.  0.
<mgrwt>
<rscale>  0 0.52905179E+02</rscale>
<asrwt>0</asrwt>
<pdfrwt beam="1">  1       13 0.10000000E+01 0.52905179E+02</pdfrwt>
<pdfrwt beam="2">  1       22 0.25484167E+00 0.52905179E+02</pdfrwt>
<totfact> 0.28426822E-01</totfact>
</mgrwt>
</event>
<event>
 4    1  0.2516086E+000  0.5321846E+02  0.7957747E-01  0.1428717E+00
         13   -1    0    0    0    0  0.00000000000E+00  0.00000000000E+00  0.99999944174E+02  0.99999999994E+02  0.10566000000E+00 0.  1.
         22   -1    0    0    0    0 -0.00000000000E+00 -0.00000000000E+00 -0.31667280740E+02  0.31667280740E+02  0.00000000000E+00 0. -1.
         13    1    1    2    0    0  0.47681643070E-01 -0.18226408840E+02 -0.20923909747E+02  0.27749331810E+02  0.10566000000E+00 0. -1.
        996    1    1    2    0    0 -0.47681643070E-01  0.18226408840E+02  0.89256573181E+02  0.10391794892E+03  0.50000000000E+02 0.  0.
<mgrwt>
<rscale>  0 0.53218458E+02</rscale>
<asrwt>0</asrwt>
<pdfrwt beam="1">  1       13 0.10000000E+01 0.53218458E+02</pdfrwt>
<pdfrwt beam="2">  1       22 0.31667300E+00 0.53218458E+02</pdfrwt>
<totfact> 0.18774885E-01</totfact>
</mgrwt>
</event>
<event>
 4    1  0.2516086E+000  0.5276739E+02  0.7957747E-01  0.1430962E+00
         13   -1    0    0    0    0  0.00000000000E+00  0.00000000000E+00  0.99999944178E+02  0.99999999998E+02  0.10566000000E+00 0. -1.
         22   -1    0    0    0    0 -0.00000000000E+00 -0.00000000000E+00 -0.14413104735E+02  0.14413104735E+02  0.00000000000E+00 0. -1.
         13    1    1    2    0    0  0.16810651810E+02 -0.13414672090E+01  0.41372479004E+01  0.17364490571E+02  0.10566000000E+00 0.  1.
        996    1    1    2    0    0 -0.16810651810E+02  0.13414672090E+01  0.81449591542E+02  0.97048614163E+02  0.50000000000E+02 0.  0.
<mgrwt>
<rscale>  0 0.52767391E+02</rscale>
<asrwt>0</asrwt>
<pdfrwt beam="1">  1       13 0.10000000E+01 0.52767391E+02</pdfrwt>
<pdfrwt beam="2">  1       22 0.14413129E+00 0.52767391E+02</pdfrwt>
<totfact> 0.80551435E-01</totfact>
</mgrwt>
</event>
<event>
 4    1  0.2516086E+000  0.5209831E+02  0.7957747E-01  0.1434342E+00
         13   -1    0    0    0    0  0.00000000000E+00  0.00000000000E+00  0.99999944186E+02  0.10000000001E+03  0.10566000000E+00 0. -1.
         22   -1    0    0    0    0 -0.00000000000E+00 -0.00000000000E+00 -0.19959516035E+02  0.19959516035E+02  0.00000000000E+00 0.  1.
         13    1    1    2    0    0  0.13086827545E+02 -0.65550774723E+01 -0.87208833027E+01  0.17038164968E+02  0.10566000000E+00 0.  1.
        996    1    1    2    0    0 -0.13086827545E+02  0.65550774723E+01  0.88761311453E+02  0.10292135107E+03  0.50000000000E+02 0.  0.
<mgrwt>
<rscale>  0 0.52098312E+02</rscale>
<asrwt>0</asrwt>
<pdfrwt beam="1">  1       13 0.10000000E+01 0.52098312E+02</pdfrwt>
<pdfrwt beam="2">  1       22 0.19959538E+00 0.52098312E+02</pdfrwt>
<totfact> 0.45487424E-01</totfact>
</mgrwt>
</event>
<event>
 4    1  0.2516086E+000  0.5134948E+02  0.7957747E-01  0.1438196E+00
         13   -1    0    0    0    0  0.00000000000E+00  0.00000000000E+00  0.99999944180E+02  0.10000000000E+03  0.10566000000E+00 0.  1.
         22   -1    0    0    0    0 -0.00000000000E+00 -0.00000000000E+00 -0.17530822624E+02  0.17530822624E+02  0.00000000000E+00 0.  1.
         13    1    1    2    0    0  0.11070612220E+02  0.37697244698E+01 -0.75324437478E+01  0.13911080129E+02  0.10566000000E+00 0. -1.
        996    1    1    2    0    0 -0.11070612220E+02 -0.37697244698E+01  0.90001565304E+02  0.10361974249E+03  0.50000000000E+02 0.  0.
<mgrwt>
<rscale>  0 0.51349482E+02</rscale>
<asrwt>0</asrwt>
<pdfrwt beam="1">  1       13 0.10000000E+01 0.51349482E+02</pdfrwt>
<pdfrwt beam="2">  1       22 0.17530846E+00 0.51349482E+02</pdfrwt>
<totfact> 0.57518199E-01</totfact>
</mgrwt>
</event>
<event>
 4    1  0.2516086E+000  0.5206776E+02  0.7957747E-01  0.1434497E+00
         13   -1    0    0    0    0  0.00000000000E+00  0.00000000000E+00  0.99999944179E+02  0.99999999999E+02  0.10566000000E+00 0.  1.
         22   -1    0    0    0    0 -0.00000000000E+00 -0.00000000000E+00 -0.41928000730E+02  0.41928000730E+02  0.00000000000E+00 0. -1.
         13    1    1    2    0    0  0.12382803357E+02  0.75972331273E+01 -0.33541215419E+02  0.36552374287E+02  0.10566000000E+00 0. -1.
        996    1    1    2    0    0 -0.12382803357E+02 -0.75972331273E+01  0.91613158868E+02  0.10537562644E+03  0.50000000000E+02 0.  0.
<mgrwt>
<rscale>  0 0.52067761E+02</rscale>
<asrwt>0</asrwt>
<pdfrwt beam="1">  1       13 0.10000000E+01 0.52067761E+02</pdfrwt>
<pdfrwt beam="2">  1       22 0.41928017E+00 0.52067761E+02</pdfrwt>
<totfact> 0.11275378E-01</totfact>
</mgrwt>
</event>
<event>
 4    1  0.2516086E+000  0.5397519E+02  0.7957747E-01  0.1425008E+00
         13   -1    0    0    0    0  0.00000000000E+00  0.00000000000E+00  0.99999944177E+02  0.99999999997E+02  0.10566000000E+00 0. -1.
         22   -1    0    0    0    0 -0.00000000000E+00 -0.00000000000E+00 -0.31554121554E+02  0.31554121554E+02  0.00000000000E+00 0.  1.
         13    1    1    2    0    0  0.14216379101E+02  0.14533255088E+02 -0.19626410792E+02  0.28258239556E+02  0.10566000000E+00 0.  1.
        996    1    1    2    0    0 -0.14216379101E+02 -0.14533255088E+02  0.88072233416E+02  0.10329588199E+03  0.50000000000E+02 0.  0.
<mgrwt>
<rscale>  0 0.53975188E+02</rscale>
<asrwt>0</asrwt>
<pdfrwt beam="1">  1       13 0.10000000E+01 0.53975188E+02</pdfrwt>
<pdfrwt beam="2">  1       22 0.31554141E+00 0.53975188E+02</pdfrwt>
<totfact> 0.18913851E-01</totfact>
</mgrwt>
</event>
<event>
 4    1  0.2516086E+000  0.5107901E+02  0.7957747E-01  0.1439607E+00
         13   -1    0    0    0    0  0.00000000000E+00  0.00000000000E+00  0.99999944175E+02  0.99999999995E+02  0.10566000000E+00 0.  1.
         22   -1    0    0    0    0 -0.00000000000E+00 -0.00000000000E+00 -0.19479901886E+02  0.19479901886E+02  0.00000000000E+00 0. -1.
         13    1    1    2    0    0  0.17282849057E+01 -0.10299407132E+02 -0.10687638760E+02  0.14943277494E+02  0.10566000000E+00 0. -1.
        996    1    1    2    0    0 -0.17282849057E+01  0.10299407132E+02  0.91207681048E+02  0.10453662439E+03  0.50000000000E+02 0.  0.
<mgrwt>
<rscale>  0 0.51079005E+02</rscale>
<asrwt>0</asrwt>
<pdfrwt beam="1">  1       13 0.10000000E+01 0.51079005E+02</pdfrwt>
<pdfrwt beam="2">  1       22 0.19479924E+00 0.51079005E+02</pdfrwt>
<totfact> 0.47499103E-01</totfact>
</mgrwt>
</event>
<event>
 4    1  0.2516086E+000  0.5964849E+02  0.7957747E-01  0.1399313E+00
         13   -1    0    0    0    0  0.00000000000E+00  0.00000000000E+00  0.99999944189E+02  0.10000000001E+03  0.10566000000E+00 0.  1.
         22   -1    0    0    0    0 -0.00000000000E+00 -0.00000000000E+00 -0.22228522497E+02  0.22228522497E+02  0.00000000000E+00 0. -1.
         13    1    1    2    0    0  0.19778390052E+01  0.32465841868E+02  0.15611645695E+02  0.36078766341E+02  0.10566000000E+00 0. -1.
        996    1    1    2    0    0 -0.19778390052E+01 -0.32465841868E+02  0.62159775998E+02  0.86149756166E+02  0.50000000000E+02 0.  0.
<mgrwt>
<rscale>  0 0.59648493E+02</rscale>
<asrwt>0</asrwt>
<pdfrwt beam="1">  1       13 0.10000000E+01 0.59648493E+02</pdfrwt>
<pdfrwt beam="2">  1       22 0.22228544E+00 0.59648493E+02</pdfrwt>
<totfact> 0.37524865E-01</totfact>
</mgrwt>
</event>
<event>
 4    1  0.2516086E+000  0.5114926E+02  0.7957747E-01  0.1439240E+00
         13   -1    0    0    0    0  0.00000000000E+00  0.00000000000E+00  0.99999944185E+02  0.10000000001E+03  0.10566000000E+00 0.  1.
         22   -1    0    0    0    0 -0.00000000000E+00 -0.00000000000E+00 -0.21893930663E+02  0.21893930663E+02  0.00000000000E+00 0. -1.
         13    1    1    2    0    0 -0.90482364656E+01  0.58630822789E+01 -0.13317203383E+02  0.17134917184E+02  0.10566000000E+00 0. -1.
        996    1    1    2    0    0  0.90482364656E+01 -0.58630822789E+01  0.91423216904E+02  0.10475901348E+03  0.50000000000E+02 0.  0.
<mgrwt>
<rscale>  0 0.51149255E+02</rscale>
<asrwt>0</asrwt>
<pdfrwt beam="1">  1       13 0.10000000E+01 0.51149255E+02</pdfrwt>
<pdfrwt beam="2">  1       22 0.21893952E+00 0.51149255E+02</pdfrwt>
<totfact> 0.38117864E-01</totfact>
</mgrwt>
</event>
<event>
 4    1  0.2516086E+000  0.5105950E+02  0.7957747E-01  0.1439709E+00
         13   -1    0    0    0    0  0.00000000000E+00  0.00000000000E+00  0.99999944180E+02  0.10000000000E+03  0.10566000000E+00 0. -1.
         22   -1    0    0    0    0 -0.00000000000E+00 -0.00000000000E+00 -0.95347299434E+01  0.95347299434E+01  0.00000000000E+00 0. -1.
         13    1    1    2    0    0 -0.96978006968E+01 -0.36091092258E+01  0.19955836090E+02  0.22479314177E+02  0.10566000000E+00 0.  1.
        996    1    1    2    0    0  0.96978006968E+01  0.36091092258E+01  0.70509378147E+02  0.87055415767E+02  0.50000000000E+02 0.  0.
<mgrwt>
<rscale>  0 0.51059505E+02</rscale>
<asrwt>0</asrwt>
<pdfrwt beam="1">  1       13 0.10000000E+01 0.51059505E+02</pdfrwt>
<pdfrwt beam="2">  1       22 0.95347552E-01 0.51059505E+02</pdfrwt>
<totfact> 0.15063878E+00</totfact>
</mgrwt>
</event>
<event>
 4    1  0.2516086E+000  0.5171173E+02  0.7957747E-01  0.1436322E+00
         13   -1    0    0    0    0  0.00000000000E+00  0.00000000000E+00  0.99999944178E+02  0.99999999998E+02  0.10566000000E+00 0.  1.
         22   -1    0    0    0    0 -0.00000000000E+00 -0.00000000000E+00 -0.11807343411E+02  0.11807343411E+02  0.00000000000E+00 0.  1.
         13    1    1    2    0    0  0.98651732561E+01 -0.87624968208E+01  0.35969492092E+02  0.38313424792E+02  0.10566000000E+00 0. -1.
        996    1    1    2    0    0 -0.98651732561E+01  0.87624968208E+01  0.52223108675E+02  0.73493918616E+02  0.50000000000E+02 0.  0.
<mgrwt>
<rscale>  0 0.51711730E+02</rscale>
<asrwt>0</asrwt>
<pdfrwt beam="1">  1       13 0.10000000E+01 0.51711730E+02</pdfrwt>
<pdfrwt beam="2">  1       22 0.11807368E+00 0.51711730E+02</pdfrwt>
<totfact> 0.11011266E+00</totfact>
</mgrwt>
</event>
<event>
 4    1  0.2516086E+000  0.5326226E+02  0.7957747E-01  0.1428500E+00
         13   -1    0    0    0    0  0.00000000000E+00  0.00000000000E+00  0.99999944183E+02  0.10000000000E+03  0.10566000000E+00 0.  1.
         22   -1    0    0    0    0 -0.00000000000E+00 -0.00000000000E+00 -0.23544474945E+02  0.23544474945E+02  0.00000000000E+00 0. -1.
         13    1    1    2    0    0  0.18246450443E+02  0.19836594680E+01 -0.10815698584E+02  0.21303951712E+02  0.10566000000E+00 0. -1.
        996    1    1    2    0    0 -0.18246450443E+02 -0.19836594680E+01  0.87271167821E+02  0.10224052324E+03  0.50000000000E+02 0.  0.
<mgrwt>
<rscale>  0 0.53262255E+02</rscale>
<asrwt>0</asrwt>
<pdfrwt beam="1">  1       13 0.10000000E+01 0.53262255E+02</pdfrwt>
<pdfrwt beam="2">  1       22 0.23544496E+00 0.53262255E+02</pdfrwt>
<totfact> 0.33227159E-01</totfact>
</mgrwt>
</event>
<event>
 4    1  0.2516086E+000  0.5245159E+02  0.7957747E-01  0.1432550E+00
         13   -1    0    0    0    0  0.00000000000E+00  0.00000000000E+00  0.99999944186E+02  0.10000000001E+03  0.10566000000E+00 0. -1.
         22   -1    0    0    0    0 -0.00000000000E+00 -0.00000000000E+00 -0.20332631908E+02  0.20332631908E+02  0.00000000000E+00 0. -1.
         13    1    1    2    0    0 -0.96876902629E+01  0.12542658614E+02 -0.83183269667E+01  0.17899032245E+02  0.10566000000E+00 0.  1.
        996    1    1    2    0    0  0.96876902629E+01 -0.12542658614E+02  0.87985639245E+02  0.10243359967E+03  0.50000000000E+02 0.  0.
<mgrwt>
<rscale>  0 0.52451593E+02</rscale>
<asrwt>0</asrwt>
<pdfrwt beam="1">  1       13 0.10000000E+01 0.52451593E+02</pdfrwt>
<pdfrwt beam="2">  1       22 0.20332654E+00 0.52451593E+02</pdfrwt>
<totfact> 0.43966284E-01</totfact>
</mgrwt>
</event>
<event>
 4    1  0.2516086E+000  0.5137875E+02  0.7957747E-01  0.1438044E+00
         13   -1    0    0    0    0  0.00000000000E+00  0.00000000000E+00  0.99999944180E+02  0.10000000000E+03  0.10566000000E+00 0.  1.
         22   -1    0    0    0    0 -0.00000000000E+00 -0.00000000000E+00 -0.17333949994E+02  0.17333949994E+02  0.00000000000E+00 0. -1.
         13    1    1    2    0    0 -0.46937273868E+01  0.10851045117E+02 -0.71815950505E+01  0.13833391790E+02  0.10566000000E+00 0. -1.
        996    1    1    2    0    0  0.46937273868E+01 -0.10851045117E+02  0.89847589237E+02  0.10350055820E+03  0.50000000000E+02 0.  0.
<mgrwt>
<rscale>  0 0.51378753E+02</rscale>
<asrwt>0</asrwt>
<pdfrwt beam="1">  1       13 0.10000000E+01 0.51378753E+02</pdfrwt>
<pdfrwt beam="2">  1       22 0.17333973E+00 0.51378753E+02</pdfrwt>
<totfact> 0.58682567E-01</totfact>
</mgrwt>
</event>
<event>
 4    1  0.2516086E+000  0.6165839E+02  0.7957747E-01  0.1391001E+00
         13   -1    0    0    0    0  0.00000000000E+00  0.00000000000E+00  0.99999944183E+02  0.10000000000E+03  0.10566000000E+00 0. -1.
         22   -1    0    0    0    0 -0.00000000000E+00 -0.00000000000E+00 -0.30659426576E+02  0.30659426576E+02  0.00000000000E+00 0.  1.
         13    1    1    2    0    0 -0.24832194244E+02  0.26174788277E+02 -0.22825652863E+01  0.36152160110E+02  0.10566000000E+00 0.  1.
        996    1    1    2    0    0  0.24832194244E+02 -0.26174788277E+02  0.71623082893E+02  0.94507266469E+02  0.50000000000E+02 0.  0.
<mgrwt>
<rscale>  0 0.61658393E+02</rscale>
<asrwt>0</asrwt>
<pdfrwt beam="1">  1       13 0.10000000E+01 0.61658393E+02</pdfrwt>
<pdfrwt beam="2">  1       22 0.30659446E+00 0.61658393E+02</pdfrwt>
<totfact> 0.20110914E-01</totfact>
</mgrwt>
</event>
<event>
 4    1  0.2516086E+000  0.5176563E+02  0.7957747E-01  0.1436044E+00
         13   -1    0    0    0    0  0.00000000000E+00  0.00000000000E+00  0.99999944177E+02  0.99999999997E+02  0.10566000000E+00 0. -1.
         22   -1    0    0    0    0 -0.00000000000E+00 -0.00000000000E+00 -0.11328211585E+02  0.11328211585E+02  0.00000000000E+00 0. -1.
         13    1    1    2    0    0 -0.77473801790E+01  0.10938860930E+02  0.31328260146E+02  0.34075674988E+02  0.10566000000E+00 0.  1.
        996    1    1    2    0    0  0.77473801790E+01 -0.10938860930E+02  0.57343472445E+02  0.77252536594E+02  0.50000000000E+02 0.  0.
<mgrwt>
<rscale>  0 0.51765631E+02</rscale>
<asrwt>0</asrwt>
<pdfrwt beam="1">  1       13 0.10000000E+01 0.51765631E+02</pdfrwt>
<pdfrwt beam="2">  1       22 0.11328236E+00 0.51765631E+02</pdfrwt>
<totfact> 0.11723993E+00</totfact>
</mgrwt>
</event>
<event>
 4    1  0.2516086E+000  0.5153135E+02  0.7957747E-01  0.1437253E+00
         13   -1    0    0    0    0  0.00000000000E+00  0.00000000000E+00  0.99999944174E+02  0.99999999994E+02  0.10566000000E+00 0. -1.
         22   -1    0    0    0    0 -0.00000000000E+00 -0.00000000000E+00 -0.13306687786E+02  0.13306687786E+02  0.00000000000E+00 0. -1.
         13    1    1    2    0    0  0.68377483090E+01 -0.10427144892E+02  0.17813612646E-01  0.12469628458E+02  0.10566000000E+00 0.  1.
        996    1    1    2    0    0 -0.68377483090E+01  0.10427144892E+02  0.86675442775E+02  0.10083705932E+03  0.50000000000E+02 0.  0.
<mgrwt>
<rscale>  0 0.51531351E+02</rscale>
<asrwt>0</asrwt>
<pdfrwt beam="1">  1       13 0.10000000E+01 0.51531351E+02</pdfrwt>
<pdfrwt beam="2">  1       22 0.13306712E+00 0.51531351E+02</pdfrwt>
<totfact> 0.91395752E-01</totfact>
</mgrwt>
</event>
<event>
 4    1  0.2516086E+000  0.5466373E+02  0.7957747E-01  0.1421696E+00
         13   -1    0    0    0    0  0.00000000000E+00  0.00000000000E+00  0.99999944174E+02  0.99999999994E+02  0.10566000000E+00 0.  1.
         22   -1    0    0    0    0 -0.00000000000E+00 -0.00000000000E+00 -0.24995913300E+02  0.24995913300E+02  0.00000000000E+00 0. -1.
         13    1    1    2    0    0  0.63313767767E+01 -0.21166895048E+02 -0.97445532960E+01  0.24147282680E+02  0.10566000000E+00 0. -1.
        996    1    1    2    0    0 -0.63313767767E+01  0.21166895048E+02  0.84748584170E+02  0.10084863061E+03  0.50000000000E+02 0.  0.
<mgrwt>
<rscale>  0 0.54663734E+02</rscale>
<asrwt>0</asrwt>
<pdfrwt beam="1">  1       13 0.10000000E+01 0.54663734E+02</pdfrwt>
<pdfrwt beam="2">  1       22 0.24995934E+00 0.54663734E+02</pdfrwt>
<totfact> 0.29609131E-01</totfact>
</mgrwt>
</event>
<event>
 4    1  0.2516086E+000  0.5128040E+02  0.7957747E-01  0.1438555E+00
         13   -1    0    0    0    0  0.00000000000E+00  0.00000000000E+00  0.99999944174E+02  0.99999999994E+02  0.10566000000E+00 0.  1.
         22   -1    0    0    0    0 -0.00000000000E+00 -0.00000000000E+00 -0.12084711052E+02  0.12084711052E+02  0.00000000000E+00 0.  1.
         13    1    1    2    0    0 -0.96558139756E+01  0.60369648786E+01  0.13465349799E+01  0.11467519739E+02  0.10566000000E+00 0. -1.
        996    1    1    2    0    0  0.96558139756E+01 -0.60369648786E+01  0.86568698142E+02  0.10061719131E+03  0.50000000000E+02 0.  0.
<mgrwt>
<rscale>  0 0.51280403E+02</rscale>
<asrwt>0</asrwt>
<pdfrwt beam="1">  1       13 0.10000000E+01 0.51280403E+02</pdfrwt>
<pdfrwt beam="2">  1       22 0.12084736E+00 0.51280403E+02</pdfrwt>
<totfact> 0.10616884E+00</totfact>
</mgrwt>
</event>
<event>
 4    1  0.2516086E+000  0.5162888E+02  0.7957747E-01  0.1436749E+00
         13   -1    0    0    0    0  0.00000000000E+00  0.00000000000E+00  0.99999944173E+02  0.99999999993E+02  0.10566000000E+00 0. -1.
         22   -1    0    0    0    0 -0.00000000000E+00 -0.00000000000E+00 -0.19849817375E+02  0.19849817375E+02  0.00000000000E+00 0. -1.
         13    1    1    2    0    0  0.80165348272E+01 -0.10063595317E+02  0.64688145919E+02  0.65955349804E+02  0.10566000000E+00 0.  1.
        996    1    1    2    0    0 -0.80165348272E+01  0.10063595317E+02  0.15461980878E+02  0.53894467564E+02  0.50000000000E+02 0.  0.
<mgrwt>
<rscale>  0 0.51628875E+02</rscale>
<asrwt>0</asrwt>
<pdfrwt beam="1">  1       13 0.10000000E+01 0.51628875E+02</pdfrwt>
<pdfrwt beam="2">  1       22 0.19849840E+00 0.51628875E+02</pdfrwt>
<totfact> 0.45917720E-01</totfact>
</mgrwt>
</event>
<event>
 4    1  0.2516086E+000  0.5105809E+02  0.7957747E-01  0.1439717E+00
         13   -1    0    0    0    0  0.00000000000E+00  0.00000000000E+00  0.99999944177E+02  0.99999999998E+02  0.10566000000E+00 0.  1.
         22   -1    0    0    0    0 -0.00000000000E+00 -0.00000000000E+00 -0.98659946812E+01  0.98659946812E+01  0.00000000000E+00 0.  1.
         13    1    1    2    0    0 -0.47432765671E+01  0.91885457947E+01  0.76699329062E+01  0.12875056553E+02  0.10566000000E+00 0. -1.
        996    1    1    2    0    0  0.47432765671E+01 -0.91885457947E+01  0.82464016590E+02  0.96990938126E+02  0.50000000000E+02 0.  0.
<mgrwt>
<rscale>  0 0.51058085E+02</rscale>
<asrwt>0</asrwt>
<pdfrwt beam="1">  1       13 0.10000000E+01 0.51058085E+02</pdfrwt>
<pdfrwt beam="2">  1       22 0.98660198E-01 0.51058085E+02</pdfrwt>
<totfact> 0.14342701E+00</totfact>
</mgrwt>
</event>
<event>
 4    1  0.2516086E+000  0.5579351E+02  0.7957747E-01  0.1416383E+00
         13   -1    0    0    0    0  0.00000000000E+00  0.00000000000E+00  0.99999944175E+02  0.99999999995E+02  0.10566000000E+00 0.  1.
         22   -1    0    0    0    0 -0.00000000000E+00 -0.00000000000E+00 -0.16386821049E+02  0.16386821049E+02  0.00000000000E+00 0.  1.
         13    1    1    2    0    0 -0.27766373676E+01 -0.24600933828E+02  0.31266817614E+02  0.39881583569E+02  0.10566000000E+00 0. -1.
        996    1    1    2    0    0  0.27766373676E+01  0.24600933828E+02  0.52346305513E+02  0.76505237475E+02  0.50000000000E+02 0.  0.
<mgrwt>
<rscale>  0 0.55793509E+02</rscale>
<asrwt>0</asrwt>
<pdfrwt beam="1">  1       13 0.10000000E+01 0.55793509E+02</pdfrwt>
<pdfrwt beam="2">  1       22 0.16386844E+00 0.55793509E+02</pdfrwt>
<totfact> 0.65277146E-01</totfact>
</mgrwt>
</event>
<event>
 4    1  0.2516086E+000  0.5136636E+02  0.7957747E-01  0.1438108E+00
         13   -1    0    0    0    0  0.00000000000E+00  0.00000000000E+00  0.99999944177E+02  0.99999999998E+02  0.10566000000E+00 0. -1.
         22   -1    0    0    0    0 -0.00000000000E+00 -0.00000000000E+00 -0.10453165555E+02  0.10453165555E+02  0.00000000000E+00 0. -1.
         13    1    1    2    0    0  0.80644732709E+01  0.85712945973E+01  0.85702781557E+01  0.14558971527E+02  0.10566000000E+00 0.  1.
        996    1    1    2    0    0 -0.80644732709E+01 -0.85712945973E+01  0.80976500466E+02  0.95894194026E+02  0.50000000000E+02 0.  0.
<mgrwt>
<rscale>  0 0.51366359E+02</rscale>
<asrwt>0</asrwt>
<pdfrwt beam="1">  1       13 0.10000000E+01 0.51366359E+02</pdfrwt>
<pdfrwt beam="2">  1       22 0.10453191E+00 0.51366359E+02</pdfrwt>
<totfact> 0.13196169E+00</totfact>
</mgrwt>
</event>
<event>
 4    1  0.2516086E+000  0.5107969E+02  0.7957747E-01  0.1439603E+00
         13   -1    0    0    0    0  0.00000000000E+00  0.00000000000E+00  0.99999944178E+02  0.99999999998E+02  0.10566000000E+00 0.  1.
         22   -1    0    0    0    0 -0.00000000000E+00 -0.00000000000E+00 -0.12374362940E+02  0.12374362940E+02  0.00000000000E+00 0. -1.
         13    1    1    2    0    0 -0.73301911309E+01  0.74433382351E+01 -0.56126307489E+00  0.10462369061E+02  0.10566000000E+00 0. -1.
        996    1    1    2    0    0  0.73301911309E+01 -0.74433382351E+01  0.88186844313E+02  0.10191199388E+03  0.50000000000E+02 0.  0.
<mgrwt>
<rscale>  0 0.51079693E+02</rscale>
<asrwt>0</asrwt>
<pdfrwt beam="1">  1       13 0.10000000E+01 0.51079693E+02</pdfrwt>
<pdfrwt beam="2">  1       22 0.12374387E+00 0.51079693E+02</pdfrwt>
<totfact> 0.10231708E+00</totfact>
</mgrwt>
</event>
<event>
 4    1  0.2516086E+000  0.5824238E+02  0.7957747E-01  0.1405359E+00
         13   -1    0    0    0    0  0.00000000000E+00  0.00000000000E+00  0.99999944183E+02  0.10000000000E+03  0.10566000000E+00 0.  1.
         22   -1    0    0    0    0 -0.00000000000E+00 -0.00000000000E+00 -0.19449161249E+02  0.19449161249E+02  0.00000000000E+00 0. -1.
         13    1    1    2    0    0  0.12080886956E+02 -0.27317159979E+02  0.29895268371E+02  0.42260067368E+02  0.10566000000E+00 0. -1.
        996    1    1    2    0    0 -0.12080886956E+02  0.27317159979E+02  0.50655514563E+02  0.77189093884E+02  0.50000000000E+02 0.  0.
<mgrwt>
<rscale>  0 0.58242382E+02</rscale>
<asrwt>0</asrwt>
<pdfrwt beam="1">  1       13 0.10000000E+01 0.58242382E+02</pdfrwt>
<pdfrwt beam="2">  1       22 0.19449184E+00 0.58242382E+02</pdfrwt>
<totfact> 0.48230984E-01</totfact>
</mgrwt>
</event>
<event>
 4    1  0.2516086E+000  0.5179504E+02  0.7957747E-01  0.1435893E+00
         13   -1    0    0    0    0  0.00000000000E+00  0.00000000000E+00  0.99999944180E+02  0.10000000000E+03  0.10566000000E+00 0. -1.
         22   -1    0    0    0    0 -0.00000000000E+00 -0.00000000000E+00 -0.40632580596E+02  0.40632580596E+02  0.00000000000E+00 0.  1.
         13    1    1    2    0    0  0.71084177258E+01 -0.11497673221E+02 -0.32483744187E+02  0.35184242105E+02  0.10566000000E+00 0.  1.
        996    1    1    2    0    0 -0.71084177258E+01  0.11497673221E+02  0.91851107770E+02  0.10544833849E+03  0.50000000000E+02 0.  0.
<mgrwt>
<rscale>  0 0.51795039E+02</rscale>
<asrwt>0</asrwt>
<pdfrwt beam="1">  1       13 0.10000000E+01 0.51795039E+02</pdfrwt>
<pdfrwt beam="2">  1       22 0.40632597E+00 0.51795039E+02</pdfrwt>
<totfact> 0.11999060E-01</totfact>
</mgrwt>
</event>
<event>
 4    1  0.2516086E+000  0.5432358E+02  0.7957747E-01  0.1423325E+00
         13   -1    0    0    0    0  0.00000000000E+00  0.00000000000E+00  0.99999944180E+02  0.10000000000E+03  0.10566000000E+00 0. -1.
         22   -1    0    0    0    0 -0.00000000000E+00 -0.00000000000E+00 -0.15180254327E+02  0.15180254327E+02  0.00000000000E+00 0. -1.
         13    1    1    2    0    0  0.19712979481E+02 -0.79025249152E+01  0.12208681860E+02  0.24497235289E+02  0.10566000000E+00 0.  1.
        996    1    1    2    0    0 -0.19712979481E+02  0.79025249152E+01  0.72611007993E+02  0.90683019038E+02  0.50000000000E+02 0.  0.
<mgrwt>
<rscale>  0 0.54323581E+02</rscale>
<asrwt>0</asrwt>
<pdfrwt beam="1">  1       13 0.10000000E+01 0.54323581E+02</pdfrwt>
<pdfrwt beam="2">  1       22 0.15180278E+00 0.54323581E+02</pdfrwt>
<totfact> 0.74147504E-01</totfact>
</mgrwt>
</event>
<event>
 4    1  0.2516086E+000  0.6099119E+02  0.7957747E-01  0.1393719E+00
         13   -1    0    0    0    0  0.00000000000E+00  0.00000000000E+00  0.99999944176E+02  0.99999999996E+02  0.10566000000E+00 0. -1.
         22   -1    0    0    0    0 -0.00000000000E+00 -0.00000000000E+00 -0.33416104706E+02  0.33416104706E+02  0.00000000000E+00 0.  1.
         13    1    1    2    0    0  0.34683671987E+02  0.41191832957E+01 -0.92180334167E+01  0.36123511425E+02  0.10566000000E+00 0.  1.
        996    1    1    2    0    0 -0.34683671987E+02 -0.41191832957E+01  0.75801872887E+02  0.97292593278E+02  0.50000000000E+02 0.  0.
<mgrwt>
<rscale>  0 0.60991186E+02</rscale>
<asrwt>0</asrwt>
<pdfrwt beam="1">  1       13 0.10000000E+01 0.60991186E+02</pdfrwt>
<pdfrwt beam="2">  1       22 0.33416123E+00 0.60991186E+02</pdfrwt>
<totfact> 0.17198116E-01</totfact>
</mgrwt>
</event>
<event>
 4    1  0.2516086E+000  0.5625123E+02  0.7957747E-01  0.1414273E+00
         13   -1    0    0    0    0  0.00000000000E+00  0.00000000000E+00  0.99999944170E+02  0.99999999991E+02  0.10566000000E+00 0. -1.
         22   -1    0    0    0    0 -0.00000000000E+00 -0.00000000000E+00 -0.17712011074E+02  0.17712011074E+02  0.00000000000E+00 0.  1.
         13    1    1    2    0    0  0.24977130647E+02  0.63516383315E+01  0.14311277415E+02  0.29479216240E+02  0.10566000000E+00 0.  1.
        996    1    1    2    0    0 -0.24977130647E+02 -0.63516383315E+01  0.67976655681E+02  0.88232794824E+02  0.50000000000E+02 0.  0.
<mgrwt>
<rscale>  0 0.56251225E+02</rscale>
<asrwt>0</asrwt>
<pdfrwt beam="1">  1       13 0.10000000E+01 0.56251225E+02</pdfrwt>
<pdfrwt beam="2">  1       22 0.17712034E+00 0.56251225E+02</pdfrwt>
<totfact> 0.56986891E-01</totfact>
</mgrwt>
</event>
<event>
 4    1  0.2516086E+000  0.5321028E+02  0.7957747E-01  0.1428757E+00
         13   -1    0    0    0    0  0.00000000000E+00  0.00000000000E+00  0.99999944176E+02  0.99999999996E+02  0.10566000000E+00 0.  1.
         22   -1    0    0    0    0 -0.00000000000E+00 -0.00000000000E+00 -0.13466536620E+02  0.13466536620E+02  0.00000000000E+00 0. -1.
         13    1    1    2    0    0 -0.12402802224E+02  0.13323088767E+02  0.11680769657E+02  0.21628355026E+02  0.10566000000E+00 0. -1.
        996    1    1    2    0    0  0.12402802224E+02 -0.13323088767E+02  0.74852637899E+02  0.91838181590E+02  0.50000000000E+02 0.  0.
<mgrwt>
<rscale>  0 0.53210283E+02</rscale>
<asrwt>0</asrwt>
<pdfrwt beam="1">  1       13 0.10000000E+01 0.53210283E+02</pdfrwt>
<pdfrwt beam="2">  1       22 0.13466561E+00 0.53210283E+02</pdfrwt>
<totfact> 0.89994204E-01</totfact>
</mgrwt>
</event>
<event>
 4    1  0.2516086E+000  0.5141777E+02  0.7957747E-01  0.1437841E+00
         13   -1    0    0    0    0  0.00000000000E+00  0.00000000000E+00  0.99999944182E+02  0.10000000000E+03  0.10566000000E+00 0. -1.
         22   -1    0    0    0    0 -0.00000000000E+00 -0.00000000000E+00 -0.12133134062E+02  0.12133134062E+02  0.00000000000E+00 0. -1.
         13    1    1    2    0    0 -0.83832681633E+01 -0.85736722269E+01  0.21580099480E+01  0.12184219775E+02  0.10566000000E+00 0.  1.
        996    1    1    2    0    0  0.83832681633E+01  0.85736722269E+01  0.85708800172E+02  0.99948914289E+02  0.50000000000E+02 0.  0.
<mgrwt>
<rscale>  0 0.51417770E+02</rscale>
<asrwt>0</asrwt>
<pdfrwt beam="1">  1       13 0.10000000E+01 0.51417770E+02</pdfrwt>
<pdfrwt beam="2">  1       22 0.12133159E+00 0.51417770E+02</pdfrwt>
<totfact> 0.10555142E+00</totfact>
</mgrwt>
</event>
<event>
 4    1  0.2516086E+000  0.5326800E+02  0.7957747E-01  0.1428472E+00
         13   -1    0    0    0    0  0.00000000000E+00  0.00000000000E+00  0.99999944182E+02  0.10000000000E+03  0.10566000000E+00 0.  1.
         22   -1    0    0    0    0 -0.00000000000E+00 -0.00000000000E+00 -0.13655273490E+02  0.13655273490E+02  0.00000000000E+00 0. -1.
         13    1    1    2    0    0  0.17286984049E+02  0.62160906613E+01  0.11099968944E+02  0.21463924973E+02  0.10566000000E+00 0. -1.
        996    1    1    2    0    0 -0.17286984049E+02 -0.62160906613E+01  0.75244701748E+02  0.92191348520E+02  0.50000000000E+02 0.  0.
<mgrwt>
<rscale>  0 0.53267998E+02</rscale>
<asrwt>0</asrwt>
<pdfrwt beam="1">  1       13 0.10000000E+01 0.53267998E+02</pdfrwt>
<pdfrwt beam="2">  1       22 0.13655298E+00 0.53267998E+02</pdfrwt>
<totfact> 0.88021225E-01</totfact>
</mgrwt>
</event>
<event>
 4    1  0.2516086E+000  0.5590373E+02  0.7957747E-01  0.1415873E+00
         13   -1    0    0    0    0  0.00000000000E+00  0.00000000000E+00  0.99999944187E+02  0.10000000001E+03  0.10566000000E+00 0.  1.
         22   -1    0    0    0    0 -0.00000000000E+00 -0.00000000000E+00 -0.20908191167E+02  0.20908191167E+02  0.00000000000E+00 0. -1.
         13    1    1    2    0    0 -0.23544893922E+02  0.84181240995E+01  0.12027483077E+01  0.25033669541E+02  0.10566000000E+00 0. -1.
        996    1    1    2    0    0  0.23544893922E+02 -0.84181240995E+01  0.77889004713E+02  0.95874521633E+02  0.50000000000E+02 0.  0.
<mgrwt>
<rscale>  0 0.55903728E+02</rscale>
<asrwt>0</asrwt>
<pdfrwt beam="1">  1       13 0.10000000E+01 0.55903728E+02</pdfrwt>
<pdfrwt beam="2">  1       22 0.20908213E+00 0.55903728E+02</pdfrwt>
<totfact> 0.41954793E-01</totfact>
</mgrwt>
</event>
<event>
 4    1  0.2516086E+000  0.5227529E+02  0.7957747E-01  0.1433442E+00
         13   -1    0    0    0    0  0.00000000000E+00  0.00000000000E+00  0.99999944182E+02  0.10000000000E+03  0.10566000000E+00 0.  1.
         22   -1    0    0    0    0 -0.00000000000E+00 -0.00000000000E+00 -0.11668180771E+02  0.11668180771E+02  0.00000000000E+00 0. -1.
         13    1    1    2    0    0  0.12977821460E+02 -0.80176332662E+01  0.13405968673E+02  0.20308556156E+02  0.10566000000E+00 0. -1.
        996    1    1    2    0    0 -0.12977821460E+02  0.80176332662E+01  0.74925794738E+02  0.91359624617E+02  0.50000000000E+02 0.  0.
<mgrwt>
<rscale>  0 0.52275293E+02</rscale>
<asrwt>0</asrwt>
<pdfrwt beam="1">  1       13 0.10000000E+01 0.52275293E+02</pdfrwt>
<pdfrwt beam="2">  1       22 0.11668205E+00 0.52275293E+02</pdfrwt>
<totfact> 0.11225559E+00</totfact>
</mgrwt>
</event>
<event>
 4    1  0.2516086E+000  0.6140364E+02  0.7957747E-01  0.1392034E+00
         13   -1    0    0    0    0  0.00000000000E+00  0.00000000000E+00  0.99999944178E+02  0.99999999999E+02  0.10566000000E+00 0. -1.
         22   -1    0    0    0    0 -0.00000000000E+00 -0.00000000000E+00 -0.29429934714E+02  0.29429934714E+02  0.00000000000E+00 0.  1.
         13    1    1    2    0    0 -0.28907164624E+02  0.20851458933E+02 -0.31952121248E+00  0.35644365109E+02  0.10566000000E+00 0.  1.
        996    1    1    2    0    0  0.28907164624E+02 -0.20851458933E+02  0.70889530677E+02  0.93785569603E+02  0.50000000000E+02 0.  0.
<mgrwt>
<rscale>  0 0.61403644E+02</rscale>
<asrwt>0</asrwt>
<pdfrwt beam="1">  1       13 0.10000000E+01 0.61403644E+02</pdfrwt>
<pdfrwt beam="2">  1       22 0.29429954E+00 0.61403644E+02</pdfrwt>
<totfact> 0.21714187E-01</totfact>
</mgrwt>
</event>
<event>
 4    1  0.2516086E+000  0.5705721E+02  0.7957747E-01  0.1410613E+00
         13   -1    0    0    0    0  0.00000000000E+00  0.00000000000E+00  0.99999944181E+02  0.10000000000E+03  0.10566000000E+00 0. -1.
         22   -1    0    0    0    0 -0.00000000000E+00 -0.00000000000E+00 -0.40935697330E+02  0.40935697330E+02  0.00000000000E+00 0.  1.
         13    1    1    2    0    0  0.19445123555E+02 -0.19427101904E+02 -0.26441875504E+02  0.38140648430E+02  0.10566000000E+00 0.  1.
        996    1    1    2    0    0 -0.19445123555E+02  0.19427101904E+02  0.85506122355E+02  0.10279504890E+03  0.50000000000E+02 0.  0.
<mgrwt>
<rscale>  0 0.57057209E+02</rscale>
<asrwt>0</asrwt>
<pdfrwt beam="1">  1       13 0.10000000E+01 0.57057209E+02</pdfrwt>
<pdfrwt beam="2">  1       22 0.40935714E+00 0.57057209E+02</pdfrwt>
<totfact> 0.11870911E-01</totfact>
</mgrwt>
</event>
<event>
 4    1  0.2516086E+000  0.5131838E+02  0.7957747E-01  0.1438358E+00
         13   -1    0    0    0    0  0.00000000000E+00  0.00000000000E+00  0.99999944181E+02  0.10000000000E+03  0.10566000000E+00 0. -1.
         22   -1    0    0    0    0 -0.00000000000E+00 -0.00000000000E+00 -0.10066476252E+02  0.10066476252E+02  0.00000000000E+00 0. -1.
         13    1    1    2    0    0  0.62012749475E+01  0.97529495262E+01  0.22829765478E+02  0.25588770804E+02  0.10566000000E+00 0.  1.
        996    1    1    2    0    0 -0.62012749475E+01 -0.97529495262E+01  0.67103702450E+02  0.84477705449E+02  0.50000000000E+02 0.  0.
<mgrwt>
<rscale>  0 0.51318377E+02</rscale>
<asrwt>0</asrwt>
<pdfrwt beam="1">  1       13 0.10000000E+01 0.51318377E+02</pdfrwt>
<pdfrwt beam="2">  1       22 0.10066501E+00 0.51318377E+02</pdfrwt>
<totfact> 0.13940148E+00</totfact>
</mgrwt>
</event>
<event>
 4    1  0.2516086E+000  0.5339352E+02  0.7957747E-01  0.1427852E+00
         13   -1    0    0    0    0  0.00000000000E+00  0.00000000000E+00  0.99999944177E+02  0.99999999997E+02  0.10566000000E+00 0.  1.
         22   -1    0    0    0    0 -0.00000000000E+00 -0.00000000000E+00 -0.16204468801E+02  0.16204468801E+02  0.00000000000E+00 0. -1.
         13    1    1    2    0    0  0.60540119527E+01 -0.17726166765E+02  0.24362153681E+01  0.18889530387E+02  0.10566000000E+00 0. -1.
        996    1    1    2    0    0 -0.60540119527E+01  0.17726166765E+02  0.81359260008E+02  0.97314938411E+02  0.50000000000E+02 0.  0.
<mgrwt>
<rscale>  0 0.53393521E+02</rscale>
<asrwt>0</asrwt>
<pdfrwt beam="1">  1       13 0.10000000E+01 0.53393521E+02</pdfrwt>
<pdfrwt beam="2">  1       22 0.16204492E+00 0.53393521E+02</pdfrwt>
<totfact> 0.66250792E-01</totfact>
</mgrwt>
</event>
<event>
 4    1  0.2516086E+000  0.5214322E+02  0.7957747E-01  0.1434113E+00
         13   -1    0    0    0    0  0.00000000000E+00  0.00000000000E+00  0.99999944181E+02  0.10000000000E+03  0.10566000000E+00 0. -1.
         22   -1    0    0    0    0 -0.00000000000E+00 -0.00000000000E+00 -0.12872731479E+02  0.12872731479E+02  0.00000000000E+00 0. -1.
         13    1    1    2    0    0  0.10989190842E+02  0.99072154339E+01  0.39772734512E+02  0.42435796300E+02  0.10566000000E+00 0.  1.
        996    1    1    2    0    0 -0.10989190842E+02 -0.99072154339E+01  0.47354478190E+02  0.70436935181E+02  0.50000000000E+02 0.  0.
<mgrwt>
<rscale>  0 0.52143218E+02</rscale>
<asrwt>0</asrwt>
<pdfrwt beam="1">  1       13 0.10000000E+01 0.52143218E+02</pdfrwt>
<pdfrwt beam="2">  1       22 0.12872756E+00 0.52143218E+02</pdfrwt>
<totfact> 0.96436599E-01</totfact>
</mgrwt>
</event>
<event>
 4    1  0.2516086E+000  0.5123134E+02  0.7957747E-01  0.1438811E+00
         13   -1    0    0    0    0  0.00000000000E+00  0.00000000000E+00  0.99999944178E+02  0.99999999998E+02  0.10566000000E+00 0. -1.
         22   -1    0    0    0    0 -0.00000000000E+00 -0.00000000000E+00 -0.15741709609E+02  0.15741709609E+02  0.00000000000E+00 0.  1.
         13    1    1    2    0    0  0.95193451720E+01  0.58337138274E+01 -0.54583843163E+01  0.12428003577E+02  0.10566000000E+00 0.  1.
        996    1    1    2    0    0 -0.95193451720E+01 -0.58337138274E+01  0.89716618885E+02  0.10331370603E+03  0.50000000000E+02 0.  0.
<mgrwt>
<rscale>  0 0.51231340E+02</rscale>
<asrwt>0</asrwt>
<pdfrwt beam="1">  1       13 0.10000000E+01 0.51231340E+02</pdfrwt>
<pdfrwt beam="2">  1       22 0.15741733E+00 0.51231340E+02</pdfrwt>
<totfact> 0.69315889E-01</totfact>
</mgrwt>
</event>
<event>
 4    1  0.2516086E+000  0.5100182E+02  0.7957747E-01  0.1440012E+00
         13   -1    0    0    0    0  0.00000000000E+00  0.00000000000E+00  0.99999944173E+02  0.99999999993E+02  0.10566000000E+00 0.  1.
         22   -1    0    0    0    0 -0.00000000000E+00 -0.00000000000E+00 -0.29276875267E+02  0.29276875267E+02  0.00000000000E+00 0. -1.
         13    1    1    2    0    0 -0.10049884612E+02 -0.43008039349E+00 -0.21586183392E+02  0.23815113423E+02  0.10566000000E+00 0. -1.
        996    1    1    2    0    0  0.10049884612E+02  0.43008039349E+00  0.92309252299E+02  0.10546176184E+03  0.50000000000E+02 0.  0.
<mgrwt>
<rscale>  0 0.51001815E+02</rscale>
<asrwt>0</asrwt>
<pdfrwt beam="1">  1       13 0.10000000E+01 0.51001815E+02</pdfrwt>
<pdfrwt beam="2">  1       22 0.29276895E+00 0.51001815E+02</pdfrwt>
<totfact> 0.21647085E-01</totfact>
</mgrwt>
</event>
<event>
 4    1  0.2516086E+000  0.5114431E+02  0.7957747E-01  0.1439265E+00
         13   -1    0    0    0    0  0.00000000000E+00  0.00000000000E+00  0.99999944179E+02  0.99999999999E+02  0.10566000000E+00 0.  1.
         22   -1    0    0    0    0 -0.00000000000E+00 -0.00000000000E+00 -0.95838141635E+01  0.95838141635E+01  0.00000000000E+00 0.  1.
         13    1    1    2    0    0 -0.54050551502E+01  0.93019511372E+01  0.14894245007E+02  0.18373639120E+02  0.10566000000E+00 0. -1.
        996    1    1    2    0    0  0.54050551502E+01 -0.93019511372E+01  0.75521885008E+02  0.91210175043E+02  0.50000000000E+02 0.  0.
<mgrwt>
<rscale>  0 0.51144315E+02</rscale>
<asrwt>0</asrwt>
<pdfrwt beam="1">  1       13 0.10000000E+01 0.51144315E+02</pdfrwt>
<pdfrwt beam="2">  1       22 0.95838394E-01 0.51144315E+02</pdfrwt>
<totfact> 0.14956747E+00</totfact>
</mgrwt>
</event>
<event>
 4    1  0.2516086E+000  0.5190643E+02  0.7957747E-01  0.1435322E+00
         13   -1    0    0    0    0  0.00000000000E+00  0.00000000000E+00  0.99999944180E+02  0.10000000000E+03  0.10566000000E+00 0.  1.
         22   -1    0    0    0    0 -0.00000000000E+00 -0.00000000000E+00 -0.20380621523E+02  0.20380621523E+02  0.00000000000E+00 0. -1.
         13    1    1    2    0    0  0.79150999022E+01 -0.11472933038E+02 -0.97643567918E+01  0.17018543608E+02  0.10566000000E+00 0. -1.
        996    1    1    2    0    0 -0.79150999022E+01  0.11472933038E+02  0.89383679449E+02  0.10336207791E+03  0.50000000000E+02 0.  0.
<mgrwt>
<rscale>  0 0.51906425E+02</rscale>
<asrwt>0</asrwt>
<pdfrwt beam="1">  1       13 0.10000000E+01 0.51906425E+02</pdfrwt>
<pdfrwt beam="2">  1       22 0.20380644E+00 0.51906425E+02</pdfrwt>
<totfact> 0.43729852E-01</totfact>
</mgrwt>
</event>
<event>
 4    1  0.2516086E+000  0.5145143E+02  0.7957747E-01  0.1437667E+00
         13   -1    0    0    0    0  0.00000000000E+00  0.00000000000E+00  0.99999944179E+02  0.99999999999E+02  0.10566000000E+00 0. -1.
         22   -1    0    0    0    0 -0.00000000000E+00 -0.00000000000E+00 -0.49582847037E+02  0.49582847037E+02  0.00000000000E+00 0.  1.
         13    1    1    2    0    0 -0.70463713177E+01  0.98791630768E+01 -0.42049463160E+02  0.43765485578E+02  0.10566000000E+00 0.  1.
        996    1    1    2    0    0  0.70463713177E+01 -0.98791630768E+01  0.92466560302E+02  0.10581736146E+03  0.50000000000E+02 0.  0.
<mgrwt>
<rscale>  0 0.51451426E+02</rscale>
<asrwt>0</asrwt>
<pdfrwt beam="1">  1       13 0.10000000E+01 0.51451426E+02</pdfrwt>
<pdfrwt beam="2">  1       22 0.49582861E+00 0.51451426E+02</pdfrwt>
<totfact> 0.75311770E-02</totfact>
</mgrwt>
</event>
<event>
 4    1  0.2516086E+000  0.5212433E+02  0.7957747E-01  0.1434209E+00
         13   -1    0    0    0    0  0.00000000000E+00  0.00000000000E+00  0.99999944175E+02  0.99999999995E+02  0.10566000000E+00 0.  1.
         22   -1    0    0    0    0 -0.00000000000E+00 -0.00000000000E+00 -0.33235222549E+02  0.33235222549E+02  0.00000000000E+00 0. -1.
         13    1    1    2    0    0 -0.26131376698E+01  0.14495418073E+02 -0.24237514573E+02  0.28362191564E+02  0.10566000000E+00 0. -1.
        996    1    1    2    0    0  0.26131376698E+01 -0.14495418073E+02  0.91002236199E+02  0.10487303098E+03  0.50000000000E+02 0.  0.
<mgrwt>
<rscale>  0 0.52124329E+02</rscale>
<asrwt>0</asrwt>
<pdfrwt beam="1">  1       13 0.10000000E+01 0.52124329E+02</pdfrwt>
<pdfrwt beam="2">  1       22 0.33235241E+00 0.52124329E+02</pdfrwt>
<totfact> 0.17204604E-01</totfact>
</mgrwt>
</event>
<event>
 4    1  0.2516086E+000  0.5839939E+02  0.7957747E-01  0.1404674E+00
         13   -1    0    0    0    0  0.00000000000E+00  0.00000000000E+00  0.99999944179E+02  0.99999999999E+02  0.10566000000E+00 0.  1.
         22   -1    0    0    0    0 -0.00000000000E+00 -0.00000000000E+00 -0.19659483421E+02  0.19659483421E+02  0.00000000000E+00 0. -1.
         13    1    1    2    0    0  0.94155944476E+01 -0.28667660703E+02  0.24650711775E+02  0.38963533516E+02  0.10566000000E+00 0. -1.
        996    1    1    2    0    0 -0.94155944476E+01  0.28667660703E+02  0.55689748984E+02  0.80695949904E+02  0.50000000000E+02 0.  0.
<mgrwt>
<rscale>  0 0.58399385E+02</rscale>
<asrwt>0</asrwt>
<pdfrwt beam="1">  1       13 0.10000000E+01 0.58399385E+02</pdfrwt>
<pdfrwt beam="2">  1       22 0.19659506E+00 0.58399385E+02</pdfrwt>
<totfact> 0.47289765E-01</totfact>
</mgrwt>
</event>
<event>
 4    1  0.2516086E+000  0.7514635E+02  0.7957747E-01  0.1343418E+00
         13   -1    0    0    0    0  0.00000000000E+00  0.00000000000E+00  0.99999944181E+02  0.10000000000E+03  0.10566000000E+00 0.  1.
         22   -1    0    0    0    0 -0.00000000000E+00 -0.00000000000E+00 -0.44808748767E+02  0.44808748767E+02  0.00000000000E+00 0. -1.
         13    1    1    2    0    0  0.37048863525E+02 -0.42123108046E+02  0.95992789214E+01  0.56913371362E+02  0.10566000000E+00 0. -1.
        996    1    1    2    0    0 -0.37048863525E+02  0.42123108046E+02  0.45591916492E+02  0.87895377406E+02  0.50000000000E+02 0.  0.
<mgrwt>
<rscale>  0 0.75146354E+02</rscale>
<asrwt>0</asrwt>
<pdfrwt beam="1">  1       13 0.10000000E+01 0.75146354E+02</pdfrwt>
<pdfrwt beam="2">  1       22 0.44808764E+00 0.75146354E+02</pdfrwt>
<totfact> 0.98706717E-02</totfact>
</mgrwt>
</event>
<event>
 4    1  0.2516086E+000  0.5168566E+02  0.7957747E-01  0.1436456E+00
         13   -1    0    0    0    0  0.00000000000E+00  0.00000000000E+00  0.99999944183E+02  0.10000000000E+03  0.10566000000E+00 0. -1.
         22   -1    0    0    0    0 -0.00000000000E+00 -0.00000000000E+00 -0.63757511226E+02  0.63757511226E+02  0.00000000000E+00 0.  1.
         13    1    1    2    0    0  0.87288093008E+01 -0.97578368359E+01 -0.56276990947E+02  0.57779913167E+02  0.10566000000E+00 0.  1.
        996    1    1    2    0    0 -0.87288093008E+01  0.97578368359E+01  0.92519423904E+02  0.10597759806E+03  0.50000000000E+02 0.  0.
<mgrwt>
<rscale>  0 0.51685660E+02</rscale>
<asrwt>0</asrwt>
<pdfrwt beam="1">  1       13 0.10000000E+01 0.51685660E+02</pdfrwt>
<pdfrwt beam="2">  1       22 0.63757521E+00 0.51685660E+02</pdfrwt>
<totfact> 0.82376699E-02</totfact>
</mgrwt>
</event>
<event>
 4    1  0.2516086E+000  0.5304989E+02  0.7957747E-01  0.1429553E+00
         13   -1    0    0    0    0  0.00000000000E+00  0.00000000000E+00  0.99999944177E+02  0.99999999997E+02  0.10566000000E+00 0.  1.
         22   -1    0    0    0    0 -0.00000000000E+00 -0.00000000000E+00 -0.29544332540E+02  0.29544332540E+02  0.00000000000E+00 0. -1.
         13    1    1    2    0    0  0.14982951259E+02  0.94763768311E+01 -0.18719776157E+02  0.25782391853E+02  0.10566000000E+00 0. -1.
        996    1    1    2    0    0 -0.14982951259E+02 -0.94763768311E+01  0.89175387794E+02  0.10376194068E+03  0.50000000000E+02 0.  0.
<mgrwt>
<rscale>  0 0.53049887E+02</rscale>
<asrwt>0</asrwt>
<pdfrwt beam="1">  1       13 0.10000000E+01 0.53049887E+02</pdfrwt>
<pdfrwt beam="2">  1       22 0.29544352E+00 0.53049887E+02</pdfrwt>
<totfact> 0.21336797E-01</totfact>
</mgrwt>
</event>
<event>
 4    1  0.2516086E+000  0.5425443E+02  0.7957747E-01  0.1423658E+00
         13   -1    0    0    0    0  0.00000000000E+00  0.00000000000E+00  0.99999944173E+02  0.99999999993E+02  0.10566000000E+00 0.  1.
         22   -1    0    0    0    0 -0.00000000000E+00 -0.00000000000E+00 -0.48564366860E+02  0.48564366860E+02  0.00000000000E+00 0. -1.
         13    1    1    2    0    0  0.20755554637E+02 -0.35707788871E+01 -0.38296441355E+02  0.43705515608E+02  0.10566000000E+00 0. -1.
        996    1    1    2    0    0 -0.20755554637E+02  0.35707788871E+01  0.89732018668E+02  0.10485885124E+03  0.50000000000E+02 0.  0.
<mgrwt>
<rscale>  0 0.54254433E+02</rscale>
<asrwt>0</asrwt>
<pdfrwt beam="1">  1       13 0.10000000E+01 0.54254433E+02</pdfrwt>
<pdfrwt beam="2">  1       22 0.48564381E+00 0.54254433E+02</pdfrwt>
<totfact> 0.79818721E-02</totfact>
</mgrwt>
</event>
<event>
 4    1  0.2516086E+000  0.5126542E+02  0.7957747E-01  0.1438633E+00
         13   -1    0    0    0    0  0.00000000000E+00  0.00000000000E+00  0.99999944183E+02  0.10000000000E+03  0.10566000000E+00 0. -1.
         22   -1    0    0    0    0 -0.00000000000E+00 -0.00000000000E+00 -0.26145744260E+02  0.26145744260E+02  0.00000000000E+00 0.  1.
         13    1    1    2    0    0  0.52849544774E+01 -0.10010620470E+02 -0.17819538526E+02  0.21111380422E+02  0.10566000000E+00 0.  1.
        996    1    1    2    0    0 -0.52849544774E+01  0.10010620470E+02  0.91673738449E+02  0.10503436384E+03  0.50000000000E+02 0.  0.
<mgrwt>
<rscale>  0 0.51265420E+02</rscale>
<asrwt>0</asrwt>
<pdfrwt beam="1">  1       13 0.10000000E+01 0.51265420E+02</pdfrwt>
<pdfrwt beam="2">  1       22 0.26145765E+00 0.51265420E+02</pdfrwt>
<totfact> 0.26961341E-01</totfact>
</mgrwt>
</event>
<event>
 4    1  0.2516086E+000  0.5548843E+02  0.7957747E-01  0.1417803E+00
         13   -1    0    0    0    0  0.00000000000E+00  0.00000000000E+00  0.99999944174E+02  0.99999999994E+02  0.10566000000E+00 0. -1.
         22   -1    0    0    0    0 -0.00000000000E+00 -0.00000000000E+00 -0.16882349779E+02  0.16882349779E+02  0.00000000000E+00 0. -1.
         13    1    1    2    0    0  0.24060923770E+02 -0.19465365042E+00  0.12631779599E+02  0.27176073347E+02  0.10566000000E+00 0.  1.
        996    1    1    2    0    0 -0.24060923770E+02  0.19465365042E+00  0.70485814796E+02  0.89706276426E+02  0.50000000000E+02 0.  0.
<mgrwt>
<rscale>  0 0.55488431E+02</rscale>
<asrwt>0</asrwt>
<pdfrwt beam="1">  1       13 0.10000000E+01 0.55488431E+02</pdfrwt>
<pdfrwt beam="2">  1       22 0.16882373E+00 0.55488431E+02</pdfrwt>
<totfact> 0.61945774E-01</totfact>
</mgrwt>
</event>
<event>
 4    1  0.2516086E+000  0.5838690E+02  0.7957747E-01  0.1404729E+00
         13   -1    0    0    0    0  0.00000000000E+00  0.00000000000E+00  0.99999944179E+02  0.99999999999E+02  0.10566000000E+00 0. -1.
         22   -1    0    0    0    0 -0.00000000000E+00 -0.00000000000E+00 -0.29968561132E+02  0.29968561132E+02  0.00000000000E+00 0.  1.
         13    1    1    2    0    0 -0.11311064104E+02 -0.27947979470E+02 -0.92228918349E+01  0.31529393040E+02  0.10566000000E+00 0.  1.
        996    1    1    2    0    0  0.11311064104E+02  0.27947979470E+02  0.79254274881E+02  0.98439168092E+02  0.50000000000E+02 0.  0.
<mgrwt>
<rscale>  0 0.58386897E+02</rscale>
<asrwt>0</asrwt>
<pdfrwt beam="1">  1       13 0.10000000E+01 0.58386897E+02</pdfrwt>
<pdfrwt beam="2">  1       22 0.29968581E+00 0.58386897E+02</pdfrwt>
<totfact> 0.20908792E-01</totfact>
</mgrwt>
</event>
<event>
 4    1  0.2516086E+000  0.5366831E+02  0.7957747E-01  0.1426504E+00
         13   -1    0    0    0    0  0.00000000000E+00  0.00000000000E+00  0.99999944179E+02  0.99999999999E+02  0.10566000000E+00 0. -1.
         22   -1    0    0    0    0 -0.00000000000E+00 -0.00000000000E+00 -0.14169755168E+02  0.14169755168E+02  0.00000000000E+00 0. -1.
         13    1    1    2    0    0  0.54086064490E+01  0.18735908780E+02  0.12010997112E+02  0.22903329828E+02  0.10566000000E+00 0.  1.
        996    1    1    2    0    0 -0.54086064490E+01 -0.18735908780E+02  0.73819191900E+02  0.91266425340E+02  0.50000000000E+02 0.  0.
<mgrwt>
<rscale>  0 0.53668308E+02</rscale>
<asrwt>0</asrwt>
<pdfrwt beam="1">  1       13 0.10000000E+01 0.53668308E+02</pdfrwt>
<pdfrwt beam="2">  1       22 0.14169779E+00 0.53668308E+02</pdfrwt>
<totfact> 0.82976860E-01</totfact>
</mgrwt>
</event>
<event>
 4    1  0.2516086E+000  0.5140202E+02  0.7957747E-01  0.1437923E+00
         13   -1    0    0    0    0  0.00000000000E+00  0.00000000000E+00  0.99999944180E+02  0.10000000000E+03  0.10566000000E+00 0. -1.
         22   -1    0    0    0    0 -0.00000000000E+00 -0.00000000000E+00 -0.10039863793E+02  0.10039863793E+02  0.00000000000E+00 0. -1.
         13    1    1    2    0    0  0.72188731068E+01  0.94897516872E+01  0.15345481168E+02  0.19433539881E+02  0.10566000000E+00 0.  1.
        996    1    1    2    0    0 -0.72188731068E+01 -0.94897516872E+01  0.74614599220E+02  0.90606323911E+02  0.50000000000E+02 0.  0.
<mgrwt>
<rscale>  0 0.51402019E+02</rscale>
<asrwt>0</asrwt>
<pdfrwt beam="1">  1       13 0.10000000E+01 0.51402019E+02</pdfrwt>
<pdfrwt beam="2">  1       22 0.10039889E+00 0.51402019E+02</pdfrwt>
<totfact> 0.13996599E+00</totfact>
</mgrwt>
</event>
<event>
 4    1  0.2516086E+000  0.5204000E+02  0.7957747E-01  0.1434639E+00
         13   -1    0    0    0    0  0.00000000000E+00  0.00000000000E+00  0.99999944186E+02  0.10000000001E+03  0.10566000000E+00 0. -1.
         22   -1    0    0    0    0 -0.00000000000E+00 -0.00000000000E+00 -0.44993318107E+02  0.44993318107E+02  0.00000000000E+00 0.  1.
         13    1    1    2    0    0 -0.14357445233E+02  0.14229794453E+01 -0.36764340709E+02  0.39494164328E+02  0.10566000000E+00 0.  1.
        996    1    1    2    0    0  0.14357445233E+02 -0.14229794453E+01  0.91770966789E+02  0.10549915379E+03  0.50000000000E+02 0.  0.
<mgrwt>
<rscale>  0 0.52039995E+02</rscale>
<asrwt>0</asrwt>
<pdfrwt beam="1">  1       13 0.10000000E+01 0.52039995E+02</pdfrwt>
<pdfrwt beam="2">  1       22 0.44993333E+00 0.52039995E+02</pdfrwt>
<totfact> 0.96656160E-02</totfact>
</mgrwt>
</event>
<event>
 4    1  0.2516086E+000  0.5337603E+02  0.7957747E-01  0.1427939E+00
         13   -1    0    0    0    0  0.00000000000E+00  0.00000000000E+00  0.99999944186E+02  0.10000000001E+03  0.10566000000E+00 0. -1.
         22   -1    0    0    0    0 -0.00000000000E+00 -0.00000000000E+00 -0.17870183603E+02  0.17870183603E+02  0.00000000000E+00 0.  1.
         13    1    1    2    0    0 -0.30523281044E+01 -0.18430519590E+02 -0.14094139457E+01  0.18734950518E+02  0.10566000000E+00 0.  1.
        996    1    1    2    0    0  0.30523281044E+01  0.18430519590E+02  0.83539174528E+02  0.99135233091E+02  0.50000000000E+02 0.  0.
<mgrwt>
<rscale>  0 0.53376032E+02</rscale>
<asrwt>0</asrwt>
<pdfrwt beam="1">  1       13 0.10000000E+01 0.53376032E+02</pdfrwt>
<pdfrwt beam="2">  1       22 0.17870207E+00 0.53376032E+02</pdfrwt>
<totfact> 0.55800265E-01</totfact>
</mgrwt>
</event>
<event>
 4    1  0.2516086E+000  0.5108578E+02  0.7957747E-01  0.1439572E+00
         13   -1    0    0    0    0  0.00000000000E+00  0.00000000000E+00  0.99999944185E+02  0.10000000001E+03  0.10566000000E+00 0. -1.
         22   -1    0    0    0    0 -0.00000000000E+00 -0.00000000000E+00 -0.98193131587E+01  0.98193131587E+01  0.00000000000E+00 0. -1.
         13    1    1    2    0    0  0.10452477704E+02 -0.70920147040E+00  0.85580310558E+01  0.13528056641E+02  0.10566000000E+00 0.  1.
        996    1    1    2    0    0 -0.10452477704E+02  0.70920147040E+00  0.81622599971E+02  0.96291256524E+02  0.50000000000E+02 0.  0.
<mgrwt>
<rscale>  0 0.51085783E+02</rscale>
<asrwt>0</asrwt>
<pdfrwt beam="1">  1       13 0.10000000E+01 0.51085783E+02</pdfrwt>
<pdfrwt beam="2">  1       22 0.98193383E-01 0.51085783E+02</pdfrwt>
<totfact> 0.14442102E+00</totfact>
</mgrwt>
</event>
<event>
 4    1  0.2516086E+000  0.5232197E+02  0.7957747E-01  0.1433205E+00
         13   -1    0    0    0    0  0.00000000000E+00  0.00000000000E+00  0.99999944178E+02  0.99999999998E+02  0.10566000000E+00 0.  1.
         22   -1    0    0    0    0 -0.00000000000E+00 -0.00000000000E+00 -0.25894937008E+02  0.25894937008E+02  0.00000000000E+00 0. -1.
         13    1    1    2    0    0 -0.12087955086E+02 -0.95639675848E+01 -0.15673181579E+02  0.21982900604E+02  0.10566000000E+00 0. -1.
        996    1    1    2    0    0  0.12087955086E+02  0.95639675848E+01  0.89778188749E+02  0.10391203640E+03  0.50000000000E+02 0.  0.
<mgrwt>
<rscale>  0 0.52321966E+02</rscale>
<asrwt>0</asrwt>
<pdfrwt beam="1">  1       13 0.10000000E+01 0.52321966E+02</pdfrwt>
<pdfrwt beam="2">  1       22 0.25894958E+00 0.52321966E+02</pdfrwt>
<totfact> 0.27521576E-01</totfact>
</mgrwt>
</event>
<event>
 4    1  0.2516086E+000  0.5448659E+02  0.7957747E-01  0.1422543E+00
         13   -1    0    0    0    0  0.00000000000E+00  0.00000000000E+00  0.99999944182E+02  0.10000000000E+03  0.10566000000E+00 0.  1.
         22   -1    0    0    0    0 -0.00000000000E+00 -0.00000000000E+00 -0.42958472131E+02  0.42958472131E+02  0.00000000000E+00 0. -1.
         13    1    1    2    0    0 -0.17632796422E+02 -0.12564771106E+02 -0.31959652271E+02  0.38603361510E+02  0.10566000000E+00 0. -1.
        996    1    1    2    0    0  0.17632796422E+02  0.12564771106E+02  0.89001124321E+02  0.10435511062E+03  0.50000000000E+02 0.  0.
<mgrwt>
<rscale>  0 0.54486595E+02</rscale>
<asrwt>0</asrwt>
<pdfrwt beam="1">  1       13 0.10000000E+01 0.54486595E+02</pdfrwt>
<pdfrwt beam="2">  1       22 0.42958488E+00 0.54486595E+02</pdfrwt>
<totfact> 0.10735434E-01</totfact>
</mgrwt>
</event>
<event>
 4    1  0.2516086E+000  0.5174161E+02  0.7957747E-01  0.1436168E+00
         13   -1    0    0    0    0  0.00000000000E+00  0.00000000000E+00  0.99999944169E+02  0.99999999989E+02  0.10566000000E+00 0. -1.
         22   -1    0    0    0    0 -0.00000000000E+00 -0.00000000000E+00 -0.17508678302E+02  0.17508678302E+02  0.00000000000E+00 0.  1.
         13    1    1    2    0    0 -0.12547558275E+01 -0.13252175198E+02 -0.63109636188E+01  0.14732073360E+02  0.10566000000E+00 0.  1.
        996    1    1    2    0    0  0.12547558275E+01  0.13252175198E+02  0.88802229485E+02  0.10277660493E+03  0.50000000000E+02 0.  0.
<mgrwt>
<rscale>  0 0.51741613E+02</rscale>
<asrwt>0</asrwt>
<pdfrwt beam="1">  1       13 0.10000000E+01 0.51741613E+02</pdfrwt>
<pdfrwt beam="2">  1       22 0.17508701E+00 0.51741613E+02</pdfrwt>
<totfact> 0.57690877E-01</totfact>
</mgrwt>
</event>
<event>
 4    1  0.2516086E+000  0.6444296E+02  0.7957747E-01  0.1380079E+00
         13   -1    0    0    0    0  0.00000000000E+00  0.00000000000E+00  0.99999944183E+02  0.10000000000E+03  0.10566000000E+00 0. -1.
         22   -1    0    0    0    0 -0.00000000000E+00 -0.00000000000E+00 -0.37868688974E+02  0.37868688974E+02  0.00000000000E+00 0.  1.
         13    1    1    2    0    0  0.40067650899E+02  0.68904337008E+01 -0.92565289299E+01  0.41696393333E+02  0.10566000000E+00 0.  1.
        996    1    1    2    0    0 -0.40067650899E+02 -0.68904337008E+01  0.71387784139E+02  0.96172295644E+02  0.50000000000E+02 0.  0.
<mgrwt>
<rscale>  0 0.64442957E+02</rscale>
<asrwt>0</asrwt>
<pdfrwt beam="1">  1       13 0.10000000E+01 0.64442957E+02</pdfrwt>
<pdfrwt beam="2">  1       22 0.37868706E+00 0.64442957E+02</pdfrwt>
<totfact> 0.13814976E-01</totfact>
</mgrwt>
</event>
<event>
 4    1  0.2516086E+000  0.5516230E+02  0.7957747E-01  0.1419333E+00
         13   -1    0    0    0    0  0.00000000000E+00  0.00000000000E+00  0.99999944184E+02  0.10000000000E+03  0.10566000000E+00 0.  1.
         22   -1    0    0    0    0 -0.00000000000E+00 -0.00000000000E+00 -0.18270269350E+02  0.18270269350E+02  0.00000000000E+00 0. -1.
         13    1    1    2    0    0  0.91310287686E+01  0.21436037581E+02  0.51009586009E+01  0.23851841359E+02  0.10566000000E+00 0. -1.
        996    1    1    2    0    0 -0.91310287686E+01 -0.21436037581E+02  0.76628716233E+02  0.94418427995E+02  0.50000000000E+02 0.  0.
<mgrwt>
<rscale>  0 0.55162300E+02</rscale>
<asrwt>0</asrwt>
<pdfrwt beam="1">  1       13 0.10000000E+01 0.55162300E+02</pdfrwt>
<pdfrwt beam="2">  1       22 0.18270292E+00 0.55162300E+02</pdfrwt>
<totfact> 0.53795767E-01</totfact>
</mgrwt>
</event>
<event>
 4    1  0.2516086E+000  0.6533458E+02  0.7957747E-01  0.1376717E+00
         13   -1    0    0    0    0  0.00000000000E+00  0.00000000000E+00  0.99999944175E+02  0.99999999995E+02  0.10566000000E+00 0. -1.
         22   -1    0    0    0    0 -0.00000000000E+00 -0.00000000000E+00 -0.29194109331E+02  0.29194109331E+02  0.00000000000E+00 0. -1.
         13    1    1    2    0    0  0.37659405492E+02 -0.18718360319E+02  0.34856228923E+02  0.54622117259E+02  0.10566000000E+00 0.  1.
        996    1    1    2    0    0 -0.37659405492E+02  0.18718360319E+02  0.35949605920E+02  0.74571992067E+02  0.50000000000E+02 0.  0.
<mgrwt>
<rscale>  0 0.65334584E+02</rscale>
<asrwt>0</asrwt>
<pdfrwt beam="1">  1       13 0.10000000E+01 0.65334584E+02</pdfrwt>
<pdfrwt beam="2">  1       22 0.29194129E+00 0.65334584E+02</pdfrwt>
<totfact> 0.22146035E-01</totfact>
</mgrwt>
</event>
<event>
 4    1  0.2516086E+000  0.5236296E+02  0.7957747E-01  0.1432998E+00
         13   -1    0    0    0    0  0.00000000000E+00  0.00000000000E+00  0.99999944180E+02  0.10000000000E+03  0.10566000000E+00 0.  1.
         22   -1    0    0    0    0 -0.00000000000E+00 -0.00000000000E+00 -0.11687349612E+02  0.11687349612E+02  0.00000000000E+00 0.  1.
         13    1    1    2    0    0 -0.57626441684E+01 -0.14445477239E+02  0.15106522877E+02  0.21681745270E+02  0.10566000000E+00 0. -1.
        996    1    1    2    0    0  0.57626441684E+01  0.14445477239E+02  0.73206071691E+02  0.90005604342E+02  0.50000000000E+02 0.  0.
<mgrwt>
<rscale>  0 0.52362963E+02</rscale>
<asrwt>0</asrwt>
<pdfrwt beam="1">  1       13 0.10000000E+01 0.52362963E+02</pdfrwt>
<pdfrwt beam="2">  1       22 0.11687374E+00 0.52362963E+02</pdfrwt>
<totfact> 0.11199858E+00</totfact>
</mgrwt>
</event>
<event>
 4    1  0.2516086E+000  0.5145467E+02  0.7957747E-01  0.1437650E+00
         13   -1    0    0    0    0  0.00000000000E+00  0.00000000000E+00  0.99999944181E+02  0.10000000000E+03  0.10566000000E+00 0.  1.
         22   -1    0    0    0    0 -0.00000000000E+00 -0.00000000000E+00 -0.10200472233E+02  0.10200472233E+02  0.00000000000E+00 0.  1.
         13    1    1    2    0    0  0.40534956632E+01 -0.11452177147E+02  0.21399830725E+02  0.24607866783E+02  0.10566000000E+00 0. -1.
        996    1    1    2    0    0 -0.40534956632E+01  0.11452177147E+02  0.68399641223E+02  0.85592605451E+02  0.50000000000E+02 0.  0.
<mgrwt>
<rscale>  0 0.51454671E+02</rscale>
<asrwt>0</asrwt>
<pdfrwt beam="1">  1       13 0.10000000E+01 0.51454671E+02</pdfrwt>
<pdfrwt beam="2">  1       22 0.10200497E+00 0.51454671E+02</pdfrwt>
<totfact> 0.13679315E+00</totfact>
</mgrwt>
</event>
<event>
 4    1  0.2516086E+000  0.5197585E+02  0.7957747E-01  0.1434967E+00
         13   -1    0    0    0    0  0.00000000000E+00  0.00000000000E+00  0.99999944175E+02  0.99999999995E+02  0.10566000000E+00 0.  1.
         22   -1    0    0    0    0 -0.00000000000E+00 -0.00000000000E+00 -0.11634495016E+02  0.11634495016E+02  0.00000000000E+00 0. -1.
         13    1    1    2    0    0  0.14188950003E+02  0.40384887566E+00  0.91460982874E+01  0.16886434616E+02  0.10566000000E+00 0. -1.
        996    1    1    2    0    0 -0.14188950003E+02 -0.40384887566E+00  0.79219350871E+02  0.94748060395E+02  0.50000000000E+02 0.  0.
<mgrwt>
<rscale>  0 0.51975854E+02</rscale>
<asrwt>0</asrwt>
<pdfrwt beam="1">  1       13 0.10000000E+01 0.51975854E+02</pdfrwt>
<pdfrwt beam="2">  1       22 0.11634520E+00 0.51975854E+02</pdfrwt>
<totfact> 0.11267221E+00</totfact>
</mgrwt>
</event>
<event>
 4    1  0.2516086E+000  0.5269289E+02  0.7957747E-01  0.1431335E+00
         13   -1    0    0    0    0  0.00000000000E+00  0.00000000000E+00  0.99999944179E+02  0.99999999999E+02  0.10566000000E+00 0.  1.
         22   -1    0    0    0    0 -0.00000000000E+00 -0.00000000000E+00 -0.26710973484E+02  0.26710973484E+02  0.00000000000E+00 0. -1.
         13    1    1    2    0    0 -0.15967750260E+02  0.46444879734E+01 -0.15971831061E+02  0.23057555560E+02  0.10566000000E+00 0. -1.
        996    1    1    2    0    0  0.15967750260E+02 -0.46444879734E+01  0.89260801757E+02  0.10365341792E+03  0.50000000000E+02 0.  0.
<mgrwt>
<rscale>  0 0.52692887E+02</rscale>
<asrwt>0</asrwt>
<pdfrwt beam="1">  1       13 0.10000000E+01 0.52692887E+02</pdfrwt>
<pdfrwt beam="2">  1       22 0.26710994E+00 0.52692887E+02</pdfrwt>
<totfact> 0.25908440E-01</totfact>
</mgrwt>
</event>
<event>
 4    1  0.2516086E+000  0.5119630E+02  0.7957747E-01  0.1438994E+00
         13   -1    0    0    0    0  0.00000000000E+00  0.00000000000E+00  0.99999944178E+02  0.99999999998E+02  0.10566000000E+00 0.  1.
         22   -1    0    0    0    0 -0.00000000000E+00 -0.00000000000E+00 -0.11724532697E+02  0.11724532697E+02  0.00000000000E+00 0.  1.
         13    1    1    2    0    0 -0.10721000493E+02 -0.24741457101E+01  0.16851018737E+01  0.11131575851E+02  0.10566000000E+00 0. -1.
        996    1    1    2    0    0  0.10721000493E+02  0.24741457101E+01  0.86590309607E+02  0.10059295684E+03  0.50000000000E+02 0.  0.
<mgrwt>
<rscale>  0 0.51196301E+02</rscale>
<asrwt>0</asrwt>
<pdfrwt beam="1">  1       13 0.10000000E+01 0.51196301E+02</pdfrwt>
<pdfrwt beam="2">  1       22 0.11724557E+00 0.51196301E+02</pdfrwt>
<totfact> 0.11116585E+00</totfact>
</mgrwt>
</event>
<event>
 4    1  0.2516086E+000  0.5170440E+02  0.7957747E-01  0.1436359E+00
         13   -1    0    0    0    0  0.00000000000E+00  0.00000000000E+00  0.99999944177E+02  0.99999999997E+02  0.10566000000E+00 0.  1.
         22   -1    0    0    0    0 -0.00000000000E+00 -0.00000000000E+00 -0.11026417202E+02  0.11026417202E+02  0.00000000000E+00 0.  1.
         13    1    1    2    0    0 -0.11576576727E+02  0.62711537179E+01  0.95871521460E+01  0.16287085313E+02  0.10566000000E+00 0. -1.
        996    1    1    2    0    0  0.11576576727E+02 -0.62711537179E+01  0.79386374829E+02  0.94739331886E+02  0.50000000000E+02 0.  0.
<mgrwt>
<rscale>  0 0.51704395E+02</rscale>
<asrwt>0</asrwt>
<pdfrwt beam="1">  1       13 0.10000000E+01 0.51704395E+02</pdfrwt>
<pdfrwt beam="2">  1       22 0.11026442E+00 0.51704395E+02</pdfrwt>
<totfact> 0.12205200E+00</totfact>
</mgrwt>
</event>
<event>
 4    1  0.2516086E+000  0.5151186E+02  0.7957747E-01  0.1437353E+00
         13   -1    0    0    0    0  0.00000000000E+00  0.00000000000E+00  0.99999944180E+02  0.10000000000E+03  0.10566000000E+00 0.  1.
         22   -1    0    0    0    0 -0.00000000000E+00 -0.00000000000E+00 -0.10208320612E+02  0.10208320612E+02  0.00000000000E+00 0.  1.
         13    1    1    2    0    0  0.79252941553E+01  0.95216509928E+01  0.17274684057E+02  0.21257892614E+02  0.10566000000E+00 0. -1.
        996    1    1    2    0    0 -0.79252941553E+01 -0.95216509928E+01  0.72516939511E+02  0.88950427999E+02  0.50000000000E+02 0.  0.
<mgrwt>
<rscale>  0 0.51511864E+02</rscale>
<asrwt>0</asrwt>
<pdfrwt beam="1">  1       13 0.10000000E+01 0.51511864E+02</pdfrwt>
<pdfrwt beam="2">  1       22 0.10208346E+00 0.51511864E+02</pdfrwt>
<totfact> 0.13665881E+00</totfact>
</mgrwt>
</event>
<event>
 4    1  0.2516086E+000  0.5227670E+02  0.7957747E-01  0.1433435E+00
         13   -1    0    0    0    0  0.00000000000E+00  0.00000000000E+00  0.99999944179E+02  0.10000000000E+03  0.10566000000E+00 0. -1.
         22   -1    0    0    0    0 -0.00000000000E+00 -0.00000000000E+00 -0.11499873389E+02  0.11499873389E+02  0.00000000000E+00 0. -1.
         13    1    1    2    0    0  0.12712135611E+02  0.84412621932E+01  0.24489499367E+02  0.28854809694E+02  0.10566000000E+00 0.  1.
        996    1    1    2    0    0 -0.12712135611E+02 -0.84412621932E+01  0.64010571424E+02  0.82645063695E+02  0.50000000000E+02 0.  0.
<mgrwt>
<rscale>  0 0.52276699E+02</rscale>
<asrwt>0</asrwt>
<pdfrwt beam="1">  1       13 0.10000000E+01 0.52276699E+02</pdfrwt>
<pdfrwt beam="2">  1       22 0.11499898E+00 0.52276699E+02</pdfrwt>
<totfact> 0.11474972E+00</totfact>
</mgrwt>
</event>
<event>
 4    1  0.2516086E+000  0.5518708E+02  0.7957747E-01  0.1419216E+00
         13   -1    0    0    0    0  0.00000000000E+00  0.00000000000E+00  0.99999944182E+02  0.10000000000E+03  0.10566000000E+00 0.  1.
         22   -1    0    0    0    0 -0.00000000000E+00 -0.00000000000E+00 -0.15465700234E+02  0.15465700234E+02  0.00000000000E+00 0. -1.
         13    1    1    2    0    0  0.67865146402E+01 -0.22350782774E+02  0.22430013531E+02  0.32384115591E+02  0.10566000000E+00 0. -1.
        996    1    1    2    0    0 -0.67865146402E+01  0.22350782774E+02  0.62104230416E+02  0.83081584645E+02  0.50000000000E+02 0.  0.
<mgrwt>
<rscale>  0 0.55187084E+02</rscale>
<asrwt>0</asrwt>
<pdfrwt beam="1">  1       13 0.10000000E+01 0.55187084E+02</pdfrwt>
<pdfrwt beam="2">  1       22 0.15465724E+00 0.55187084E+02</pdfrwt>
<totfact> 0.71979611E-01</totfact>
</mgrwt>
</event>
<event>
 4    1  0.2516086E+000  0.5507874E+02  0.7957747E-01  0.1419727E+00
         13   -1    0    0    0    0  0.00000000000E+00  0.00000000000E+00  0.99999944174E+02  0.99999999994E+02  0.10566000000E+00 0. -1.
         22   -1    0    0    0    0 -0.00000000000E+00 -0.00000000000E+00 -0.17128169535E+02  0.17128169535E+02  0.00000000000E+00 0. -1.
         13    1    1    2    0    0 -0.13152352712E+02  0.18991661888E+02  0.44058367626E+02  0.49747547930E+02  0.10566000000E+00 0.  1.
        996    1    1    2    0    0  0.13152352712E+02 -0.18991661888E+02  0.38813407013E+02  0.67380621599E+02  0.50000000000E+02 0.  0.
<mgrwt>
<rscale>  0 0.55078740E+02</rscale>
<asrwt>0</asrwt>
<pdfrwt beam="1">  1       13 0.10000000E+01 0.55078740E+02</pdfrwt>
<pdfrwt beam="2">  1       22 0.17128193E+00 0.55078740E+02</pdfrwt>
<totfact> 0.60349094E-01</totfact>
</mgrwt>
</event>
<event>
 4    1  0.2516086E+000  0.5301426E+02  0.7957747E-01  0.1429730E+00
         13   -1    0    0    0    0  0.00000000000E+00  0.00000000000E+00  0.99999944177E+02  0.99999999998E+02  0.10566000000E+00 0.  1.
         22   -1    0    0    0    0 -0.00000000000E+00 -0.00000000000E+00 -0.13776809626E+02  0.13776809626E+02  0.00000000000E+00 0.  1.
         13    1    1    2    0    0 -0.14045863853E+01 -0.17565270729E+02  0.81732982240E+01  0.19424869796E+02  0.10566000000E+00 0. -1.
        996    1    1    2    0    0  0.14045863853E+01  0.17565270729E+02  0.78049836327E+02  0.94351939828E+02  0.50000000000E+02 0.  0.
<mgrwt>
<rscale>  0 0.53014258E+02</rscale>
<asrwt>0</asrwt>
<pdfrwt beam="1">  1       13 0.10000000E+01 0.53014258E+02</pdfrwt>
<pdfrwt beam="2">  1       22 0.13776834E+00 0.53014258E+02</pdfrwt>
<totfact> 0.86729776E-01</totfact>
</mgrwt>
</event>
<event>
 4    1  0.2516086E+000  0.5141816E+02  0.7957747E-01  0.1437839E+00
         13   -1    0    0    0    0  0.00000000000E+00  0.00000000000E+00  0.99999944182E+02  0.10000000000E+03  0.10566000000E+00 0.  1.
         22   -1    0    0    0    0 -0.00000000000E+00 -0.00000000000E+00 -0.11999821766E+02  0.11999821766E+02  0.00000000000E+00 0.  1.
         13    1    1    2    0    0  0.10033948289E+02 -0.65686651637E+01  0.25329561701E+01  0.12257834690E+02  0.10566000000E+00 0. -1.
        996    1    1    2    0    0 -0.10033948289E+02  0.65686651637E+01  0.85467166245E+02  0.99741987078E+02  0.50000000000E+02 0.  0.
<mgrwt>
<rscale>  0 0.51418163E+02</rscale>
<asrwt>0</asrwt>
<pdfrwt beam="1">  1       13 0.10000000E+01 0.51418163E+02</pdfrwt>
<pdfrwt beam="2">  1       22 0.11999846E+00 0.51418163E+02</pdfrwt>
<totfact> 0.10735589E+00</totfact>
</mgrwt>
</event>
<event>
 4    1  0.2516086E+000  0.5101153E+02  0.7957747E-01  0.1439961E+00
         13   -1    0    0    0    0  0.00000000000E+00  0.00000000000E+00  0.99999944175E+02  0.99999999995E+02  0.10566000000E+00 0. -1.
         22   -1    0    0    0    0 -0.00000000000E+00 -0.00000000000E+00 -0.10055289365E+02  0.10055289365E+02  0.00000000000E+00 0. -1.
         13    1    1    2    0    0 -0.10056937964E+02 -0.10171276971E+01  0.57969737046E+01  0.11653008973E+02  0.10566000000E+00 0.  1.
        996    1    1    2    0    0  0.10056937964E+02  0.10171276971E+01  0.84147681105E+02  0.98402280387E+02  0.50000000000E+02 0.  0.
<mgrwt>
<rscale>  0 0.51011533E+02</rscale>
<asrwt>0</asrwt>
<pdfrwt beam="1">  1       13 0.10000000E+01 0.51011533E+02</pdfrwt>
<pdfrwt beam="2">  1       22 0.10055314E+00 0.51011533E+02</pdfrwt>
<totfact> 0.13952232E+00</totfact>
</mgrwt>
</event>
<event>
 4    1  0.2516086E+000  0.6215509E+02  0.7957747E-01  0.1389004E+00
         13   -1    0    0    0    0  0.00000000000E+00  0.00000000000E+00  0.99999944179E+02  0.10000000000E+03  0.10566000000E+00 0.  1.
         22   -1    0    0    0    0 -0.00000000000E+00 -0.00000000000E+00 -0.59393836601E+02  0.59393836601E+02  0.00000000000E+00 0. -1.
         13    1    1    2    0    0 -0.14096805984E+02  0.34125281947E+02 -0.42060505313E+02  0.55967419792E+02  0.10566000000E+00 0. -1.
        996    1    1    2    0    0  0.14096805984E+02 -0.34125281947E+02  0.82666612892E+02  0.10342641681E+03  0.50000000000E+02 0.  0.
<mgrwt>
<rscale>  0 0.62155087E+02</rscale>
<asrwt>0</asrwt>
<pdfrwt beam="1">  1       13 0.10000000E+01 0.62155087E+02</pdfrwt>
<pdfrwt beam="2">  1       22 0.59393848E+00 0.62155087E+02</pdfrwt>
<totfact> 0.61647027E-02</totfact>
</mgrwt>
</event>
<event>
 4    1  0.2516086E+000  0.6365354E+02  0.7957747E-01  0.1383109E+00
         13   -1    0    0    0    0  0.00000000000E+00  0.00000000000E+00  0.99999944175E+02  0.99999999995E+02  0.10566000000E+00 0. -1.
         22   -1    0    0    0    0 -0.00000000000E+00 -0.00000000000E+00 -0.41000470479E+02  0.41000470479E+02  0.00000000000E+00 0.  1.
         13    1    1    2    0    0 -0.11903042514E+02 -0.37551178224E+02 -0.16098452739E+02  0.42555196530E+02  0.10566000000E+00 0.  1.
        996    1    1    2    0    0  0.11903042514E+02  0.37551178224E+02  0.75097926435E+02  0.98445273944E+02  0.50000000000E+02 0.  0.
<mgrwt>
<rscale>  0 0.63653542E+02</rscale>
<asrwt>0</asrwt>
<pdfrwt beam="1">  1       13 0.10000000E+01 0.63653542E+02</pdfrwt>
<pdfrwt beam="2">  1       22 0.41000487E+00 0.63653542E+02</pdfrwt>
<totfact> 0.11883900E-01</totfact>
</mgrwt>
</event>
<event>
 4    1  0.2516086E+000  0.5194677E+02  0.7957747E-01  0.1435115E+00
         13   -1    0    0    0    0  0.00000000000E+00  0.00000000000E+00  0.99999944184E+02  0.10000000000E+03  0.10566000000E+00 0. -1.
         22   -1    0    0    0    0 -0.00000000000E+00 -0.00000000000E+00 -0.24307453722E+02  0.24307453722E+02  0.00000000000E+00 0.  1.
         13    1    1    2    0    0  0.12061358719E+02  0.72794647016E+01 -0.14505049290E+02  0.20220647849E+02  0.10566000000E+00 0.  1.
        996    1    1    2    0    0 -0.12061358719E+02 -0.72794647016E+01  0.90197539752E+02  0.10408680588E+03  0.50000000000E+02 0.  0.
<mgrwt>
<rscale>  0 0.51946771E+02</rscale>
<asrwt>0</asrwt>
<pdfrwt beam="1">  1       13 0.10000000E+01 0.51946771E+02</pdfrwt>
<pdfrwt beam="2">  1       22 0.24307475E+00 0.51946771E+02</pdfrwt>
<totfact> 0.31149682E-01</totfact>
</mgrwt>
</event>
<event>
 4    1  0.2516086E+000  0.5206024E+02  0.7957747E-01  0.1434536E+00
         13   -1    0    0    0    0  0.00000000000E+00  0.00000000000E+00  0.99999944178E+02  0.99999999999E+02  0.10566000000E+00 0. -1.
         22   -1    0    0    0    0 -0.00000000000E+00 -0.00000000000E+00 -0.37473142314E+02  0.37473142314E+02  0.00000000000E+00 0.  1.
         13    1    1    2    0    0  0.10075493573E+02  0.10428463854E+02 -0.28859823846E+02  0.32298127276E+02  0.10566000000E+00 0.  1.
        996    1    1    2    0    0 -0.10075493573E+02 -0.10428463854E+02  0.91386625711E+02  0.10517501504E+03  0.50000000000E+02 0.  0.
<mgrwt>
<rscale>  0 0.52060238E+02</rscale>
<asrwt>0</asrwt>
<pdfrwt beam="1">  1       13 0.10000000E+01 0.52060238E+02</pdfrwt>
<pdfrwt beam="2">  1       22 0.37473160E+00 0.52060238E+02</pdfrwt>
<totfact> 0.13939477E-01</totfact>
</mgrwt>
</event>
<event>
 4    1  0.2516086E+000  0.5272759E+02  0.7957747E-01  0.1431161E+00
         13   -1    0    0    0    0  0.00000000000E+00  0.00000000000E+00  0.99999944175E+02  0.99999999995E+02  0.10566000000E+00 0. -1.
         22   -1    0    0    0    0 -0.00000000000E+00 -0.00000000000E+00 -0.16716014819E+02  0.16716014819E+02  0.00000000000E+00 0.  1.
         13    1    1    2    0    0 -0.17058085984E+01 -0.16651992919E+02 -0.15712622877E+01  0.16813050893E+02  0.10566000000E+00 0.  1.
        996    1    1    2    0    0  0.17058085984E+01  0.16651992919E+02  0.84855191644E+02  0.99902963920E+02  0.50000000000E+02 0.  0.
<mgrwt>
<rscale>  0 0.52727589E+02</rscale>
<asrwt>0</asrwt>
<pdfrwt beam="1">  1       13 0.10000000E+01 0.52727589E+02</pdfrwt>
<pdfrwt beam="2">  1       22 0.16716038E+00 0.52727589E+02</pdfrwt>
<totfact> 0.62701889E-01</totfact>
</mgrwt>
</event>
<event>
 4    1  0.2516086E+000  0.5219346E+02  0.7957747E-01  0.1433857E+00
         13   -1    0    0    0    0  0.00000000000E+00  0.00000000000E+00  0.99999944180E+02  0.10000000000E+03  0.10566000000E+00 0.  1.
         22   -1    0    0    0    0 -0.00000000000E+00 -0.00000000000E+00 -0.30084246879E+02  0.30084246879E+02  0.00000000000E+00 0. -1.
         13    1    1    2    0    0  0.69714086512E+01  0.13249785676E+02 -0.20678995778E+02  0.25530166264E+02  0.10566000000E+00 0. -1.
        996    1    1    2    0    0 -0.69714086512E+01 -0.13249785676E+02  0.90594693080E+02  0.10455408061E+03  0.50000000000E+02 0.  0.
<mgrwt>
<rscale>  0 0.52193461E+02</rscale>
<asrwt>0</asrwt>
<pdfrwt beam="1">  1       13 0.10000000E+01 0.52193461E+02</pdfrwt>
<pdfrwt beam="2">  1       22 0.30084266E+00 0.52193461E+02</pdfrwt>
<totfact> 0.20600123E-01</totfact>
</mgrwt>
</event>
<event>
 4    1  0.2516086E+000  0.5160080E+02  0.7957747E-01  0.1436894E+00
         13   -1    0    0    0    0  0.00000000000E+00  0.00000000000E+00  0.99999944176E+02  0.99999999996E+02  0.10566000000E+00 0.  1.
         22   -1    0    0    0    0 -0.00000000000E+00 -0.00000000000E+00 -0.34062484447E+02  0.34062484447E+02  0.00000000000E+00 0. -1.
         13    1    1    2    0    0 -0.15715896645E+01  0.12655952556E+02 -0.25816053126E+02  0.28794492393E+02  0.10566000000E+00 0. -1.
        996    1    1    2    0    0  0.15715896645E+01 -0.12655952556E+02  0.91753512854E+02  0.10526799205E+03  0.50000000000E+02 0.  0.
<mgrwt>
<rscale>  0 0.51600805E+02</rscale>
<asrwt>0</asrwt>
<pdfrwt beam="1">  1       13 0.10000000E+01 0.51600805E+02</pdfrwt>
<pdfrwt beam="2">  1       22 0.34062503E+00 0.51600805E+02</pdfrwt>
<totfact> 0.16469459E-01</totfact>
</mgrwt>
</event>
<event>
 4    1  0.2516086E+000  0.5170184E+02  0.7957747E-01  0.1436373E+00
         13   -1    0    0    0    0  0.00000000000E+00  0.00000000000E+00  0.99999944180E+02  0.10000000000E+03  0.10566000000E+00 0.  1.
         22   -1    0    0    0    0 -0.00000000000E+00 -0.00000000000E+00 -0.10928224692E+02  0.10928224692E+02  0.00000000000E+00 0. -1.
         13    1    1    2    0    0  0.10025665686E+01 -0.13117741258E+02  0.10318148500E+02  0.16719917103E+02  0.10566000000E+00 0. -1.
        996    1    1    2    0    0 -0.10025665686E+01  0.13117741258E+02  0.78753570987E+02  0.94208307589E+02  0.50000000000E+02 0.  0.
<mgrwt>
<rscale>  0 0.51701840E+02</rscale>
<asrwt>0</asrwt>
<pdfrwt beam="1">  1       13 0.10000000E+01 0.51701840E+02</pdfrwt>
<pdfrwt beam="2">  1       22 0.10928250E+00 0.51701840E+02</pdfrwt>
<totfact> 0.12368534E+00</totfact>
</mgrwt>
</event>
<event>
 4    1  0.2516086E+000  0.5931282E+02  0.7957747E-01  0.1400738E+00
         13   -1    0    0    0    0  0.00000000000E+00  0.00000000000E+00  0.99999944183E+02  0.10000000000E+03  0.10566000000E+00 0.  1.
         22   -1    0    0    0    0 -0.00000000000E+00 -0.00000000000E+00 -0.21115219970E+02  0.21115219970E+02  0.00000000000E+00 0.  1.
         13    1    1    2    0    0 -0.12612657229E+02  0.29307527210E+02  0.20731795405E+02  0.38050345311E+02  0.10566000000E+00 0. -1.
        996    1    1    2    0    0  0.12612657229E+02 -0.29307527210E+02  0.58152928808E+02  0.83064874662E+02  0.50000000000E+02 0.  0.
<mgrwt>
<rscale>  0 0.59312817E+02</rscale>
<asrwt>0</asrwt>
<pdfrwt beam="1">  1       13 0.10000000E+01 0.59312817E+02</pdfrwt>
<pdfrwt beam="2">  1       22 0.21115242E+00 0.59312817E+02</pdfrwt>
<totfact> 0.41396536E-01</totfact>
</mgrwt>
</event>
<event>
 4    1  0.2516086E+000  0.5301648E+02  0.7957747E-01  0.1429719E+00
         13   -1    0    0    0    0  0.00000000000E+00  0.00000000000E+00  0.99999944177E+02  0.99999999997E+02  0.10566000000E+00 0. -1.
         22   -1    0    0    0    0 -0.00000000000E+00 -0.00000000000E+00 -0.19782350653E+02  0.19782350653E+02  0.00000000000E+00 0. -1.
         13    1    1    2    0    0  0.14928596104E+02  0.93746483995E+01 -0.59549579360E+01  0.18606979935E+02  0.10566000000E+00 0.  1.
        996    1    1    2    0    0 -0.14928596104E+02 -0.93746483995E+01  0.86172551460E+02  0.10117537072E+03  0.50000000000E+02 0.  0.
<mgrwt>
<rscale>  0 0.53016479E+02</rscale>
<asrwt>0</asrwt>
<pdfrwt beam="1">  1       13 0.10000000E+01 0.53016479E+02</pdfrwt>
<pdfrwt beam="2">  1       22 0.19782373E+00 0.53016479E+02</pdfrwt>
<totfact> 0.46324443E-01</totfact>
</mgrwt>
</event>
<event>
 4    1  0.2516086E+000  0.5128855E+02  0.7957747E-01  0.1438513E+00
         13   -1    0    0    0    0  0.00000000000E+00  0.00000000000E+00  0.99999944182E+02  0.10000000000E+03  0.10566000000E+00 0.  1.
         22   -1    0    0    0    0 -0.00000000000E+00 -0.00000000000E+00 -0.11321964807E+02  0.11321964807E+02  0.00000000000E+00 0.  1.
         13    1    1    2    0    0 -0.26156993584E+01 -0.11120865832E+02  0.35970372192E+01  0.11977703485E+02  0.10566000000E+00 0. -1.
        996    1    1    2    0    0  0.26156993584E+01  0.11120865832E+02  0.85080942156E+02  0.99344261324E+02  0.50000000000E+02 0.  0.
<mgrwt>
<rscale>  0 0.51288552E+02</rscale>
<asrwt>0</asrwt>
<pdfrwt beam="1">  1       13 0.10000000E+01 0.51288552E+02</pdfrwt>
<pdfrwt beam="2">  1       22 0.11321990E+00 0.51288552E+02</pdfrwt>
<totfact> 0.11720798E+00</totfact>
</mgrwt>
</event>
<event>
 4    1  0.2516086E+000  0.5183133E+02  0.7957747E-01  0.1435707E+00
         13   -1    0    0    0    0  0.00000000000E+00  0.00000000000E+00  0.99999944178E+02  0.99999999998E+02  0.10566000000E+00 0. -1.
         22   -1    0    0    0    0 -0.00000000000E+00 -0.00000000000E+00 -0.15549006180E+02  0.15549006180E+02  0.00000000000E+00 0.  1.
         13    1    1    2    0    0  0.36000601761E+01  0.13172935087E+02 -0.29159533021E+01  0.13964261520E+02  0.10566000000E+00 0.  1.
        996    1    1    2    0    0 -0.36000601761E+01 -0.13172935087E+02  0.87366891300E+02  0.10158474466E+03  0.50000000000E+02 0.  0.
<mgrwt>
<rscale>  0 0.51831329E+02</rscale>
<asrwt>0</asrwt>
<pdfrwt beam="1">  1       13 0.10000000E+01 0.51831329E+02</pdfrwt>
<pdfrwt beam="2">  1       22 0.15549030E+00 0.51831329E+02</pdfrwt>
<totfact> 0.70863183E-01</totfact>
</mgrwt>
</event>
<event>
 4    1  0.2516086E+000  0.5374341E+02  0.7957747E-01  0.1426137E+00
         13   -1    0    0    0    0  0.00000000000E+00  0.00000000000E+00  0.99999944175E+02  0.99999999995E+02  0.10566000000E+00 0. -1.
         22   -1    0    0    0    0 -0.00000000000E+00 -0.00000000000E+00 -0.13524796832E+02  0.13524796832E+02  0.00000000000E+00 0.  1.
         13    1    1    2    0    0  0.19236260195E+02  0.42801745661E+01  0.25904007557E+02  0.32548154666E+02  0.10566000000E+00 0.  1.
        996    1    1    2    0    0 -0.19236260195E+02 -0.42801745661E+01  0.60571139786E+02  0.80976642161E+02  0.50000000000E+02 0.  0.
<mgrwt>
<rscale>  0 0.53743405E+02</rscale>
<asrwt>0</asrwt>
<pdfrwt beam="1">  1       13 0.10000000E+01 0.53743405E+02</pdfrwt>
<pdfrwt beam="2">  1       22 0.13524821E+00 0.53743405E+02</pdfrwt>
<totfact> 0.89473921E-01</totfact>
</mgrwt>
</event>
<event>
 4    1  0.2516086E+000  0.5152482E+02  0.7957747E-01  0.1437286E+00
         13   -1    0    0    0    0  0.00000000000E+00  0.00000000000E+00  0.99999944176E+02  0.99999999996E+02  0.10566000000E+00 0. -1.
         22   -1    0    0    0    0 -0.00000000000E+00 -0.00000000000E+00 -0.10462475540E+02  0.10462475540E+02  0.00000000000E+00 0. -1.
         13    1    1    2    0    0  0.18795206003E+01 -0.12299373941E+02  0.11458271621E+02  0.16914796766E+02  0.10566000000E+00 0.  1.
        996    1    1    2    0    0 -0.18795206003E+01  0.12299373941E+02  0.78079197014E+02  0.93547678771E+02  0.50000000000E+02 0.  0.
<mgrwt>
<rscale>  0 0.51524821E+02</rscale>
<asrwt>0</asrwt>
<pdfrwt beam="1">  1       13 0.10000000E+01 0.51524821E+02</pdfrwt>
<pdfrwt beam="2">  1       22 0.10462501E+00 0.51524821E+02</pdfrwt>
<totfact> 0.13183933E+00</totfact>
</mgrwt>
</event>
<event>
 4    1  0.2516086E+000  0.5499402E+02  0.7957747E-01  0.1420127E+00
         13   -1    0    0    0    0  0.00000000000E+00  0.00000000000E+00  0.99999944182E+02  0.10000000000E+03  0.10566000000E+00 0. -1.
         22   -1    0    0    0    0 -0.00000000000E+00 -0.00000000000E+00 -0.66931197685E+02  0.66931197685E+02  0.00000000000E+00 0.  1.
         13    1    1    2    0    0  0.25317102809E+01  0.22758134524E+02 -0.56984789722E+02  0.61413513721E+02  0.10566000000E+00 0.  1.
        996    1    1    2    0    0 -0.25317102809E+01 -0.22758134524E+02  0.90053536219E+02  0.10551768397E+03  0.50000000000E+02 0.  0.
<mgrwt>
<rscale>  0 0.54994020E+02</rscale>
<asrwt>0</asrwt>
<pdfrwt beam="1">  1       13 0.10000000E+01 0.54994020E+02</pdfrwt>
<pdfrwt beam="2">  1       22 0.66931207E+00 0.54994020E+02</pdfrwt>
<totfact> 0.86408091E-02</totfact>
</mgrwt>
</event>
<event>
 4    1  0.2516086E+000  0.5156449E+02  0.7957747E-01  0.1437081E+00
         13   -1    0    0    0    0  0.00000000000E+00  0.00000000000E+00  0.99999944175E+02  0.99999999995E+02  0.10566000000E+00 0.  1.
         22   -1    0    0    0    0 -0.00000000000E+00 -0.00000000000E+00 -0.10782471547E+02  0.10782471547E+02  0.00000000000E+00 0.  1.
         13    1    1    2    0    0  0.12602673542E+02  0.26379185865E+00  0.92660357916E+01  0.15645048733E+02  0.10566000000E+00 0. -1.
        996    1    1    2    0    0 -0.12602673542E+02 -0.26379185865E+00  0.79951436836E+02  0.95137422809E+02  0.50000000000E+02 0.  0.
<mgrwt>
<rscale>  0 0.51564493E+02</rscale>
<asrwt>0</asrwt>
<pdfrwt beam="1">  1       13 0.10000000E+01 0.51564493E+02</pdfrwt>
<pdfrwt beam="2">  1       22 0.10782496E+00 0.51564493E+02</pdfrwt>
<totfact> 0.12613040E+00</totfact>
</mgrwt>
</event>
<event>
 4    1  0.2516086E+000  0.5397903E+02  0.7957747E-01  0.1424990E+00
         13   -1    0    0    0    0  0.00000000000E+00  0.00000000000E+00  0.99999944184E+02  0.10000000000E+03  0.10566000000E+00 0.  1.
         22   -1    0    0    0    0 -0.00000000000E+00 -0.00000000000E+00 -0.13909329618E+02  0.13909329618E+02  0.00000000000E+00 0.  1.
         13    1    1    2    0    0  0.20339988040E+02 -0.14310269931E+00  0.19376610610E+02  0.28092700024E+02  0.10566000000E+00 0. -1.
        996    1    1    2    0    0 -0.20339988040E+02  0.14310269931E+00  0.66714003956E+02  0.85816629598E+02  0.50000000000E+02 0.  0.
<mgrwt>
<rscale>  0 0.53979029E+02</rscale>
<asrwt>0</asrwt>
<pdfrwt beam="1">  1       13 0.10000000E+01 0.53979029E+02</pdfrwt>
<pdfrwt beam="2">  1       22 0.13909354E+00 0.53979029E+02</pdfrwt>
<totfact> 0.85568159E-01</totfact>
</mgrwt>
</event>
<event>
 4    1  0.2516086E+000  0.5151214E+02  0.7957747E-01  0.1437352E+00
         13   -1    0    0    0    0  0.00000000000E+00  0.00000000000E+00  0.99999944186E+02  0.10000000001E+03  0.10566000000E+00 0. -1.
         22   -1    0    0    0    0 -0.00000000000E+00 -0.00000000000E+00 -0.11658413074E+02  0.11658413074E+02  0.00000000000E+00 0. -1.
         13    1    1    2    0    0  0.20003707216E+01  0.12226967625E+02  0.43549367851E+01  0.13133044535E+02  0.10566000000E+00 0.  1.
        996    1    1    2    0    0 -0.20003707216E+01 -0.12226967625E+02  0.83986594327E+02  0.98525368545E+02  0.50000000000E+02 0.  0.
<mgrwt>
<rscale>  0 0.51512137E+02</rscale>
<asrwt>0</asrwt>
<pdfrwt beam="1">  1       13 0.10000000E+01 0.51512137E+02</pdfrwt>
<pdfrwt beam="2">  1       22 0.11658438E+00 0.51512137E+02</pdfrwt>
<totfact> 0.11220403E+00</totfact>
</mgrwt>
</event>
<event>
 4    1  0.2516086E+000  0.5136272E+02  0.7957747E-01  0.1438127E+00
         13   -1    0    0    0    0  0.00000000000E+00  0.00000000000E+00  0.99999944174E+02  0.99999999994E+02  0.10566000000E+00 0.  1.
         22   -1    0    0    0    0 -0.00000000000E+00 -0.00000000000E+00 -0.11290635098E+02  0.11290635098E+02  0.00000000000E+00 0.  1.
         13    1    1    2    0    0  0.16340751327E+01  0.11638697651E+02  0.43644935793E+01  0.12537521796E+02  0.10566000000E+00 0. -1.
        996    1    1    2    0    0 -0.16340751327E+01 -0.11638697651E+02  0.84344815496E+02  0.98753113296E+02  0.50000000000E+02 0.  0.
<mgrwt>
<rscale>  0 0.51362725E+02</rscale>
<asrwt>0</asrwt>
<pdfrwt beam="1">  1       13 0.10000000E+01 0.51362725E+02</pdfrwt>
<pdfrwt beam="2">  1       22 0.11290660E+00 0.51362725E+02</pdfrwt>
<totfact> 0.11771636E+00</totfact>
</mgrwt>
</event>
<event>
 4    1  0.2516086E+000  0.6345228E+02  0.7957747E-01  0.1383890E+00
         13   -1    0    0    0    0  0.00000000000E+00  0.00000000000E+00  0.99999944176E+02  0.99999999996E+02  0.10566000000E+00 0.  1.
         22   -1    0    0    0    0 -0.00000000000E+00 -0.00000000000E+00 -0.48727160333E+02  0.48727160333E+02  0.00000000000E+00 0. -1.
         13    1    1    2    0    0  0.39057691617E+02 -0.82977527821E+00 -0.27353691151E+02  0.47690957058E+02  0.10566000000E+00 0. -1.
        996    1    1    2    0    0 -0.39057691617E+02  0.82977527821E+00  0.78626474994E+02  0.10103620327E+03  0.50000000000E+02 0.  0.
<mgrwt>
<rscale>  0 0.63452280E+02</rscale>
<asrwt>0</asrwt>
<pdfrwt beam="1">  1       13 0.10000000E+01 0.63452280E+02</pdfrwt>
<pdfrwt beam="2">  1       22 0.48727175E+00 0.63452280E+02</pdfrwt>
<totfact> 0.79407458E-02</totfact>
</mgrwt>
</event>
<event>
 4    1  0.2516086E+000  0.5393810E+02  0.7957747E-01  0.1425188E+00
         13   -1    0    0    0    0  0.00000000000E+00  0.00000000000E+00  0.99999944176E+02  0.99999999996E+02  0.10566000000E+00 0. -1.
         22   -1    0    0    0    0 -0.00000000000E+00 -0.00000000000E+00 -0.44503116194E+02  0.44503116194E+02  0.00000000000E+00 0.  1.
         13    1    1    2    0    0  0.17160370363E+02  0.10716342206E+02 -0.34259082451E+02  0.39787110924E+02  0.10566000000E+00 0.  1.
        996    1    1    2    0    0 -0.17160370363E+02 -0.10716342206E+02  0.89755910433E+02  0.10471600527E+03  0.50000000000E+02 0.  0.
<mgrwt>
<rscale>  0 0.53938097E+02</rscale>
<asrwt>0</asrwt>
<pdfrwt beam="1">  1       13 0.10000000E+01 0.53938097E+02</pdfrwt>
<pdfrwt beam="2">  1       22 0.44503132E+00 0.53938097E+02</pdfrwt>
<totfact> 0.99248719E-02</totfact>
</mgrwt>
</event>
<event>
 4    1  0.2516086E+000  0.5147958E+02  0.7957747E-01  0.1437521E+00
         13   -1    0    0    0    0  0.00000000000E+00  0.00000000000E+00  0.99999944174E+02  0.99999999994E+02  0.10566000000E+00 0. -1.
         22   -1    0    0    0    0 -0.00000000000E+00 -0.00000000000E+00 -0.10395031849E+02  0.10395031849E+02  0.00000000000E+00 0. -1.
         13    1    1    2    0    0  0.75751512568E+01  0.96314183922E+01  0.11206146567E+02  0.16605301013E+02  0.10566000000E+00 0.  1.
        996    1    1    2    0    0 -0.75751512568E+01 -0.96314183922E+01  0.78398765758E+02  0.93789730830E+02  0.50000000000E+02 0.  0.
<mgrwt>
<rscale>  0 0.51479580E+02</rscale>
<asrwt>0</asrwt>
<pdfrwt beam="1">  1       13 0.10000000E+01 0.51479580E+02</pdfrwt>
<pdfrwt beam="2">  1       22 0.10395057E+00 0.51479580E+02</pdfrwt>
<totfact> 0.13307990E+00</totfact>
</mgrwt>
</event>
<event>
 4    1  0.2516086E+000  0.5334925E+02  0.7957747E-01  0.1428071E+00
         13   -1    0    0    0    0  0.00000000000E+00  0.00000000000E+00  0.99999944176E+02  0.99999999996E+02  0.10566000000E+00 0. -1.
         22   -1    0    0    0    0 -0.00000000000E+00 -0.00000000000E+00 -0.24510217549E+02  0.24510217549E+02  0.00000000000E+00 0. -1.
         13    1    1    2    0    0 -0.10484765982E+02 -0.15369210638E+02 -0.11927131209E+02  0.22100013037E+02  0.10566000000E+00 0.  1.
        996    1    1    2    0    0  0.10484765982E+02  0.15369210638E+02  0.87416857836E+02  0.10241020451E+03  0.50000000000E+02 0.  0.
<mgrwt>
<rscale>  0 0.53349254E+02</rscale>
<asrwt>0</asrwt>
<pdfrwt beam="1">  1       13 0.10000000E+01 0.53349254E+02</pdfrwt>
<pdfrwt beam="2">  1       22 0.24510239E+00 0.53349254E+02</pdfrwt>
<totfact> 0.30713511E-01</totfact>
</mgrwt>
</event>
<event>
 4    1  0.2516086E+000  0.5260536E+02  0.7957747E-01  0.1431775E+00
         13   -1    0    0    0    0  0.00000000000E+00  0.00000000000E+00  0.99999944177E+02  0.99999999998E+02  0.10566000000E+00 0. -1.
         22   -1    0    0    0    0 -0.00000000000E+00 -0.00000000000E+00 -0.72809250527E+02  0.72809250527E+02  0.00000000000E+00 0.  1.
         13    1    1    2    0    0  0.13385462448E+02  0.93889826609E+01 -0.64804597281E+02  0.66835399251E+02  0.10566000000E+00 0.  1.
        996    1    1    2    0    0 -0.13385462448E+02 -0.93889826609E+01  0.91995290931E+02  0.10597385127E+03  0.50000000000E+02 0.  0.
<mgrwt>
<rscale>  0 0.52605357E+02</rscale>
<asrwt>0</asrwt>
<pdfrwt beam="1">  1       13 0.10000000E+01 0.52605357E+02</pdfrwt>
<pdfrwt beam="2">  1       22 0.72809258E+00 0.52605357E+02</pdfrwt>
<totfact> 0.59762593E-02</totfact>
</mgrwt>
</event>
<event>
 4    1  0.2516086E+000  0.5315758E+02  0.7957747E-01  0.1429018E+00
         13   -1    0    0    0    0  0.00000000000E+00  0.00000000000E+00  0.99999944179E+02  0.99999999999E+02  0.10566000000E+00 0. -1.
         22   -1    0    0    0    0 -0.00000000000E+00 -0.00000000000E+00 -0.14736272258E+02  0.14736272258E+02  0.00000000000E+00 0. -1.
         13    1    1    2    0    0  0.69231155225E+00 -0.18034649799E+02  0.54728554002E+01  0.18859777277E+02  0.10566000000E+00 0.  1.
        996    1    1    2    0    0 -0.69231155225E+00  0.18034649799E+02  0.79790816520E+02  0.95876494980E+02  0.50000000000E+02 0.  0.
<mgrwt>
<rscale>  0 0.53157576E+02</rscale>
<asrwt>0</asrwt>
<pdfrwt beam="1">  1       13 0.10000000E+01 0.53157576E+02</pdfrwt>
<pdfrwt beam="2">  1       22 0.14736296E+00 0.53157576E+02</pdfrwt>
<totfact> 0.77724185E-01</totfact>
</mgrwt>
</event>
<event>
 4    1  0.2516086E+000  0.5587391E+02  0.7957747E-01  0.1416011E+00
         13   -1    0    0    0    0  0.00000000000E+00  0.00000000000E+00  0.99999944177E+02  0.99999999997E+02  0.10566000000E+00 0.  1.
         22   -1    0    0    0    0 -0.00000000000E+00 -0.00000000000E+00 -0.40969063160E+02  0.40969063160E+02  0.00000000000E+00 0. -1.
         13    1    1    2    0    0 -0.11687382970E+02  0.22029503832E+02 -0.28032041154E+02  0.37519334416E+02  0.10566000000E+00 0. -1.
        996    1    1    2    0    0  0.11687382970E+02 -0.22029503832E+02  0.87062922171E+02  0.10344972874E+03  0.50000000000E+02 0.  0.
<mgrwt>
<rscale>  0 0.55873911E+02</rscale>
<asrwt>0</asrwt>
<pdfrwt beam="1">  1       13 0.10000000E+01 0.55873911E+02</pdfrwt>
<pdfrwt beam="2">  1       22 0.40969080E+00 0.55873911E+02</pdfrwt>
<totfact> 0.11842276E-01</totfact>
</mgrwt>
</event>
<event>
 4    1  0.2516086E+000  0.5144680E+02  0.7957747E-01  0.1437691E+00
         13   -1    0    0    0    0  0.00000000000E+00  0.00000000000E+00  0.99999944180E+02  0.10000000000E+03  0.10566000000E+00 0.  1.
         22   -1    0    0    0    0 -0.00000000000E+00 -0.00000000000E+00 -0.12525090123E+02  0.12525090123E+02  0.00000000000E+00 0. -1.
         13    1    1    2    0    0  0.11882050374E+02 -0.23644171476E+01  0.13315278727E+01  0.12188425660E+02  0.10566000000E+00 0. -1.
        996    1    1    2    0    0 -0.11882050374E+02  0.23644171476E+01  0.86143326185E+02  0.10033666446E+03  0.50000000000E+02 0.  0.
<mgrwt>
<rscale>  0 0.51446803E+02</rscale>
<asrwt>0</asrwt>
<pdfrwt beam="1">  1       13 0.10000000E+01 0.51446803E+02</pdfrwt>
<pdfrwt beam="2">  1       22 0.12525115E+00 0.51446803E+02</pdfrwt>
<totfact> 0.10049647E+00</totfact>
</mgrwt>
</event>
<event>
 4    1  0.2516086E+000  0.5333198E+02  0.7957747E-01  0.1428156E+00
         13   -1    0    0    0    0  0.00000000000E+00  0.00000000000E+00  0.99999944182E+02  0.10000000000E+03  0.10566000000E+00 0. -1.
         22   -1    0    0    0    0 -0.00000000000E+00 -0.00000000000E+00 -0.21528719291E+02  0.21528719291E+02  0.00000000000E+00 0.  1.
         13    1    1    2    0    0 -0.48372857849E-01 -0.18555265063E+02 -0.77801056374E+01  0.20120671193E+02  0.10566000000E+00 0.  1.
        996    1    1    2    0    0  0.48372857849E-01  0.18555265063E+02  0.86251330528E+02  0.10140804810E+03  0.50000000000E+02 0.  0.
<mgrwt>
<rscale>  0 0.53331981E+02</rscale>
<asrwt>0</asrwt>
<pdfrwt beam="1">  1       13 0.10000000E+01 0.53331981E+02</pdfrwt>
<pdfrwt beam="2">  1       22 0.21528741E+00 0.53331981E+02</pdfrwt>
<totfact> 0.39513438E-01</totfact>
</mgrwt>
</event>
<event>
 4    1  0.2516086E+000  0.5159967E+02  0.7957747E-01  0.1436900E+00
         13   -1    0    0    0    0  0.00000000000E+00  0.00000000000E+00  0.99999944174E+02  0.99999999994E+02  0.10566000000E+00 0. -1.
         22   -1    0    0    0    0 -0.00000000000E+00 -0.00000000000E+00 -0.15663482101E+02  0.15663482101E+02  0.00000000000E+00 0.  1.
         13    1    1    2    0    0  0.73656591308E+01 -0.10405428955E+02 -0.39990866998E+01  0.13361502334E+02  0.10566000000E+00 0.  1.
        996    1    1    2    0    0 -0.73656591308E+01  0.10405428955E+02  0.88335548773E+02  0.10230197976E+03  0.50000000000E+02 0.  0.
<mgrwt>
<rscale>  0 0.51599669E+02</rscale>
<asrwt>0</asrwt>
<pdfrwt beam="1">  1       13 0.10000000E+01 0.51599669E+02</pdfrwt>
<pdfrwt beam="2">  1       22 0.15663506E+00 0.51599669E+02</pdfrwt>
<totfact> 0.69956302E-01</totfact>
</mgrwt>
</event>
<event>
 4    1  0.2516086E+000  0.5149558E+02  0.7957747E-01  0.1437438E+00
         13   -1    0    0    0    0  0.00000000000E+00  0.00000000000E+00  0.99999944172E+02  0.99999999993E+02  0.10566000000E+00 0.  1.
         22   -1    0    0    0    0 -0.00000000000E+00 -0.00000000000E+00 -0.32490326996E+02  0.32490326996E+02  0.00000000000E+00 0.  1.
         13    1    1    2    0    0  0.51129265480E+01 -0.11209504808E+02 -0.24288566573E+02  0.27234915937E+02  0.10566000000E+00 0. -1.
        996    1    1    2    0    0 -0.51129265480E+01  0.11209504808E+02  0.91798183749E+02  0.10525541105E+03  0.50000000000E+02 0.  0.
<mgrwt>
<rscale>  0 0.51495582E+02</rscale>
<asrwt>0</asrwt>
<pdfrwt beam="1">  1       13 0.10000000E+01 0.51495582E+02</pdfrwt>
<pdfrwt beam="2">  1       22 0.32490346E+00 0.51495582E+02</pdfrwt>
<totfact> 0.17894869E-01</totfact>
</mgrwt>
</event>
<event>
 4    1  0.2516086E+000  0.5402000E+02  0.7957747E-01  0.1424791E+00
         13   -1    0    0    0    0  0.00000000000E+00  0.00000000000E+00  0.99999944175E+02  0.99999999995E+02  0.10566000000E+00 0.  1.
         22   -1    0    0    0    0 -0.00000000000E+00 -0.00000000000E+00 -0.14140563091E+02  0.14140563091E+02  0.00000000000E+00 0.  1.
         13    1    1    2    0    0 -0.11672976262E+02  0.16789940793E+02  0.31095408380E+02  0.37216878873E+02  0.10566000000E+00 0. -1.
        996    1    1    2    0    0  0.11672976262E+02 -0.16789940793E+02  0.54763972703E+02  0.76923684213E+02  0.50000000000E+02 0.  0.
<mgrwt>
<rscale>  0 0.54020001E+02</rscale>
<asrwt>0</asrwt>
<pdfrwt beam="1">  1       13 0.10000000E+01 0.54020001E+02</pdfrwt>
<pdfrwt beam="2">  1       22 0.14140587E+00 0.54020001E+02</pdfrwt>
<totfact> 0.83315107E-01</totfact>
</mgrwt>
</event>
<event>
 4    1  0.2516086E+000  0.5200067E+02  0.7957747E-01  0.1434840E+00
         13   -1    0    0    0    0  0.00000000000E+00  0.00000000000E+00  0.99999944179E+02  0.99999999999E+02  0.10566000000E+00 0.  1.
         22   -1    0    0    0    0 -0.00000000000E+00 -0.00000000000E+00 -0.15691426171E+02  0.15691426171E+02  0.00000000000E+00 0. -1.
         13    1    1    2    0    0  0.90727741054E+01 -0.11034257499E+02 -0.24968775079E+01  0.14502262921E+02  0.10566000000E+00 0. -1.
        996    1    1    2    0    0 -0.90727741054E+01  0.11034257499E+02  0.86805395515E+02  0.10118916325E+03  0.50000000000E+02 0.  0.
<mgrwt>
<rscale>  0 0.52000674E+02</rscale>
<asrwt>0</asrwt>
<pdfrwt beam="1">  1       13 0.10000000E+01 0.52000674E+02</pdfrwt>
<pdfrwt beam="2">  1       22 0.15691450E+00 0.52000674E+02</pdfrwt>
<totfact> 0.69801591E-01</totfact>
</mgrwt>
</event>
<event>
 4    1  0.2516086E+000  0.5309728E+02  0.7957747E-01  0.1429317E+00
         13   -1    0    0    0    0  0.00000000000E+00  0.00000000000E+00  0.99999944176E+02  0.99999999996E+02  0.10566000000E+00 0.  1.
         22   -1    0    0    0    0 -0.00000000000E+00 -0.00000000000E+00 -0.13673677780E+02  0.13673677780E+02  0.00000000000E+00 0. -1.
         13    1    1    2    0    0  0.15689553265E+02  0.85532970937E+01  0.93706143858E+01  0.20177724124E+02  0.10566000000E+00 0. -1.
        996    1    1    2    0    0 -0.15689553265E+02 -0.85532970937E+01  0.76955652010E+02  0.93495953651E+02  0.50000000000E+02 0.  0.
<mgrwt>
<rscale>  0 0.53097278E+02</rscale>
<asrwt>0</asrwt>
<pdfrwt beam="1">  1       13 0.10000000E+01 0.53097278E+02</pdfrwt>
<pdfrwt beam="2">  1       22 0.13673702E+00 0.53097278E+02</pdfrwt>
<totfact> 0.87799989E-01</totfact>
</mgrwt>
</event>
<event>
 4    1  0.2516086E+000  0.5253235E+02  0.7957747E-01  0.1432142E+00
         13   -1    0    0    0    0  0.00000000000E+00  0.00000000000E+00  0.99999944168E+02  0.99999999989E+02  0.10566000000E+00 0.  1.
         22   -1    0    0    0    0 -0.00000000000E+00 -0.00000000000E+00 -0.20175715542E+02  0.20175715542E+02  0.00000000000E+00 0. -1.
         13    1    1    2    0    0 -0.13371573918E+02  0.89915961742E+01 -0.78836807828E+01  0.17939101915E+02  0.10566000000E+00 0. -1.
        996    1    1    2    0    0  0.13371573918E+02 -0.89915961742E+01  0.87707909409E+02  0.10223661362E+03  0.50000000000E+02 0.  0.
<mgrwt>
<rscale>  0 0.52532350E+02</rscale>
<asrwt>0</asrwt>
<pdfrwt beam="1">  1       13 0.10000000E+01 0.52532350E+02</pdfrwt>
<pdfrwt beam="2">  1       22 0.20175738E+00 0.52532350E+02</pdfrwt>
<totfact> 0.44615667E-01</totfact>
</mgrwt>
</event>
<event>
 4    1  0.2516086E+000  0.5180512E+02  0.7957747E-01  0.1435841E+00
         13   -1    0    0    0    0  0.00000000000E+00  0.00000000000E+00  0.99999944175E+02  0.99999999995E+02  0.10566000000E+00 0.  1.
         22   -1    0    0    0    0 -0.00000000000E+00 -0.00000000000E+00 -0.19716539304E+02  0.19716539304E+02  0.00000000000E+00 0. -1.
         13    1    1    2    0    0  0.54627140924E+01 -0.12406811474E+02 -0.91547220881E+01  0.16358188064E+02  0.10566000000E+00 0. -1.
        996    1    1    2    0    0 -0.54627140924E+01  0.12406811474E+02  0.89438126959E+02  0.10335835124E+03  0.50000000000E+02 0.  0.
<mgrwt>
<rscale>  0 0.51805118E+02</rscale>
<asrwt>0</asrwt>
<pdfrwt beam="1">  1       13 0.10000000E+01 0.51805118E+02</pdfrwt>
<pdfrwt beam="2">  1       22 0.19716562E+00 0.51805118E+02</pdfrwt>
<totfact> 0.46510952E-01</totfact>
</mgrwt>
</event>
<event>
 4    1  0.2516086E+000  0.5317811E+02  0.7957747E-01  0.1428916E+00
         13   -1    0    0    0    0  0.00000000000E+00  0.00000000000E+00  0.99999944174E+02  0.99999999994E+02  0.10566000000E+00 0.  1.
         22   -1    0    0    0    0 -0.00000000000E+00 -0.00000000000E+00 -0.13214332812E+02  0.13214332812E+02  0.00000000000E+00 0.  1.
         13    1    1    2    0    0  0.49938268752E+01 -0.17406135887E+02  0.13129369574E+02  0.22367462593E+02  0.10566000000E+00 0. -1.
        996    1    1    2    0    0 -0.49938268752E+01  0.17406135887E+02  0.73656241787E+02  0.90846870214E+02  0.50000000000E+02 0.  0.
<mgrwt>
<rscale>  0 0.53178115E+02</rscale>
<asrwt>0</asrwt>
<pdfrwt beam="1">  1       13 0.10000000E+01 0.53178115E+02</pdfrwt>
<pdfrwt beam="2">  1       22 0.13214357E+00 0.53178115E+02</pdfrwt>
<totfact> 0.92736907E-01</totfact>
</mgrwt>
</event>
<event>
 4    1  0.2516086E+000  0.5396998E+02  0.7957747E-01  0.1425034E+00
         13   -1    0    0    0    0  0.00000000000E+00  0.00000000000E+00  0.99999944183E+02  0.10000000000E+03  0.10566000000E+00 0. -1.
         22   -1    0    0    0    0 -0.00000000000E+00 -0.00000000000E+00 -0.48161502410E+02  0.48161502410E+02  0.00000000000E+00 0.  1.
         13    1    1    2    0    0 -0.20283959415E+02 -0.11487911871E+01 -0.38154097980E+02  0.43226208341E+02  0.10566000000E+00 0.  1.
        996    1    1    2    0    0  0.20283959415E+02  0.11487911871E+01  0.89992539754E+02  0.10493529407E+03  0.50000000000E+02 0.  0.
<mgrwt>
<rscale>  0 0.53969980E+02</rscale>
<asrwt>0</asrwt>
<pdfrwt beam="1">  1       13 0.10000000E+01 0.53969980E+02</pdfrwt>
<pdfrwt beam="2">  1       22 0.48161517E+00 0.53969980E+02</pdfrwt>
<totfact> 0.81605502E-02</totfact>
</mgrwt>
</event>
<event>
 4    1  0.2516086E+000  0.5217879E+02  0.7957747E-01  0.1433932E+00
         13   -1    0    0    0    0  0.00000000000E+00  0.00000000000E+00  0.99999944171E+02  0.99999999992E+02  0.10566000000E+00 0. -1.
         22   -1    0    0    0    0 -0.00000000000E+00 -0.00000000000E+00 -0.18328449677E+02  0.18328449677E+02  0.00000000000E+00 0.  1.
         13    1    1    2    0    0  0.10840737634E+02 -0.10252069307E+02 -0.61795116455E+01  0.16150047855E+02  0.10566000000E+00 0.  1.
        996    1    1    2    0    0 -0.10840737634E+02  0.10252069307E+02  0.87851006140E+02  0.10217840181E+03  0.50000000000E+02 0.  0.
<mgrwt>
<rscale>  0 0.52178794E+02</rscale>
<asrwt>0</asrwt>
<pdfrwt beam="1">  1       13 0.10000000E+01 0.52178794E+02</pdfrwt>
<pdfrwt beam="2">  1       22 0.18328472E+00 0.52178794E+02</pdfrwt>
<totfact> 0.53199413E-01</totfact>
</mgrwt>
</event>
<event>
 4    1  0.2516086E+000  0.5239470E+02  0.7957747E-01  0.1432837E+00
         13   -1    0    0    0    0  0.00000000000E+00  0.00000000000E+00  0.99999944180E+02  0.10000000000E+03  0.10566000000E+00 0.  1.
         22   -1    0    0    0    0 -0.00000000000E+00 -0.00000000000E+00 -0.15872336811E+02  0.15872336811E+02  0.00000000000E+00 0. -1.
         13    1    1    2    0    0  0.13826288035E+02  0.73510551651E+01 -0.12399291615E+01  0.15708368509E+02  0.10566000000E+00 0. -1.
        996    1    1    2    0    0 -0.13826288035E+02 -0.73510551651E+01  0.85367536530E+02  0.10016396830E+03  0.50000000000E+02 0.  0.
<mgrwt>
<rscale>  0 0.52394697E+02</rscale>
<asrwt>0</asrwt>
<pdfrwt beam="1">  1       13 0.10000000E+01 0.52394697E+02</pdfrwt>
<pdfrwt beam="2">  1       22 0.15872360E+00 0.52394697E+02</pdfrwt>
<totfact> 0.68508107E-01</totfact>
</mgrwt>
</event>
<event>
 4    1  0.2516086E+000  0.7627521E+02  0.7957747E-01  0.1339967E+00
         13   -1    0    0    0    0  0.00000000000E+00  0.00000000000E+00  0.99999944174E+02  0.99999999995E+02  0.10566000000E+00 0.  1.
         22   -1    0    0    0    0 -0.00000000000E+00 -0.00000000000E+00 -0.44848211799E+02  0.44848211799E+02  0.00000000000E+00 0. -1.
         13    1    1    2    0    0 -0.12163518410E+02 -0.56302361641E+02  0.25898176864E+02  0.63155631858E+02  0.10566000000E+00 0. -1.
        996    1    1    2    0    0  0.12163518410E+02  0.56302361641E+02  0.29253555512E+02  0.81692579936E+02  0.50000000000E+02 0.  0.
<mgrwt>
<rscale>  0 0.76275206E+02</rscale>
<asrwt>0</asrwt>
<pdfrwt beam="1">  1       13 0.10000000E+01 0.76275206E+02</pdfrwt>
<pdfrwt beam="2">  1       22 0.44848227E+00 0.76275206E+02</pdfrwt>
<totfact> 0.98548227E-02</totfact>
</mgrwt>
</event>
<event>
 4    1  0.2516086E+000  0.5490503E+02  0.7957747E-01  0.1420549E+00
         13   -1    0    0    0    0  0.00000000000E+00  0.00000000000E+00  0.99999944178E+02  0.99999999998E+02  0.10566000000E+00 0. -1.
         22   -1    0    0    0    0 -0.00000000000E+00 -0.00000000000E+00 -0.15677911536E+02  0.15677911536E+02  0.00000000000E+00 0.  1.
         13    1    1    2    0    0  0.17183302288E+02  0.14808668516E+02  0.35925569900E+02  0.42487883890E+02  0.10566000000E+00 0.  1.
        996    1    1    2    0    0 -0.17183302288E+02 -0.14808668516E+02  0.48396462742E+02  0.73190027645E+02  0.50000000000E+02 0.  0.
<mgrwt>
<rscale>  0 0.54905032E+02</rscale>
<asrwt>0</asrwt>
<pdfrwt beam="1">  1       13 0.10000000E+01 0.54905032E+02</pdfrwt>
<pdfrwt beam="2">  1       22 0.15677935E+00 0.54905032E+02</pdfrwt>
<totfact> 0.70300191E-01</totfact>
</mgrwt>
</event>
<event>
 4    1  0.2516086E+000  0.5198341E+02  0.7957747E-01  0.1434928E+00
         13   -1    0    0    0    0  0.00000000000E+00  0.00000000000E+00  0.99999944185E+02  0.10000000001E+03  0.10566000000E+00 0.  1.
         22   -1    0    0    0    0 -0.00000000000E+00 -0.00000000000E+00 -0.21756205538E+02  0.21756205538E+02  0.00000000000E+00 0.  1.
         13    1    1    2    0    0  0.11129581827E+02 -0.88547766776E+01 -0.11334834870E+02  0.18186926821E+02  0.10566000000E+00 0. -1.
        996    1    1    2    0    0 -0.11129581827E+02  0.88547766776E+01  0.89578573517E+02  0.10356927872E+03  0.50000000000E+02 0.  0.
<mgrwt>
<rscale>  0 0.51983408E+02</rscale>
<asrwt>0</asrwt>
<pdfrwt beam="1">  1       13 0.10000000E+01 0.51983408E+02</pdfrwt>
<pdfrwt beam="2">  1       22 0.21756227E+00 0.51983408E+02</pdfrwt>
<totfact> 0.38637659E-01</totfact>
</mgrwt>
</event>
<event>
 4    1  0.2516086E+000  0.5175582E+02  0.7957747E-01  0.1436095E+00
         13   -1    0    0    0    0  0.00000000000E+00  0.00000000000E+00  0.99999944178E+02  0.99999999998E+02  0.10566000000E+00 0. -1.
         22   -1    0    0    0    0 -0.00000000000E+00 -0.00000000000E+00 -0.13371374417E+02  0.13371374417E+02  0.00000000000E+00 0. -1.
         13    1    1    2    0    0 -0.12693927377E+02  0.41867603567E+01  0.11126530008E+01  0.13413199293E+02  0.10566000000E+00 0.  1.
        996    1    1    2    0    0  0.12693927377E+02 -0.41867603567E+01  0.85515916760E+02  0.99958175123E+02  0.50000000000E+02 0.  0.
<mgrwt>
<rscale>  0 0.51755819E+02</rscale>
<asrwt>0</asrwt>
<pdfrwt beam="1">  1       13 0.10000000E+01 0.51755819E+02</pdfrwt>
<pdfrwt beam="2">  1       22 0.13371399E+00 0.51755819E+02</pdfrwt>
<totfact> 0.90737626E-01</totfact>
</mgrwt>
</event>
<event>
 4    1  0.2516086E+000  0.5257629E+02  0.7957747E-01  0.1431921E+00
         13   -1    0    0    0    0  0.00000000000E+00  0.00000000000E+00  0.99999944183E+02  0.10000000000E+03  0.10566000000E+00 0. -1.
         22   -1    0    0    0    0 -0.00000000000E+00 -0.00000000000E+00 -0.26663143045E+02  0.26663143045E+02  0.00000000000E+00 0. -1.
         13    1    1    2    0    0  0.11075126628E+02 -0.11899893587E+02 -0.16123897765E+02  0.22896662211E+02  0.10566000000E+00 0.  1.
        996    1    1    2    0    0 -0.11075126628E+02  0.11899893587E+02  0.89460698903E+02  0.10376648084E+03  0.50000000000E+02 0.  0.
<mgrwt>
<rscale>  0 0.52576286E+02</rscale>
<asrwt>0</asrwt>
<pdfrwt beam="1">  1       13 0.10000000E+01 0.52576286E+02</pdfrwt>
<pdfrwt beam="2">  1       22 0.26663164E+00 0.52576286E+02</pdfrwt>
<totfact> 0.25995163E-01</totfact>
</mgrwt>
</event>
<event>
 4    1  0.2516086E+000  0.5208063E+02  0.7957747E-01  0.1434432E+00
         13   -1    0    0    0    0  0.00000000000E+00  0.00000000000E+00  0.99999944176E+02  0.99999999997E+02  0.10566000000E+00 0.  1.
         22   -1    0    0    0    0 -0.00000000000E+00 -0.00000000000E+00 -0.15777315899E+02  0.15777315899E+02  0.00000000000E+00 0. -1.
         13    1    1    2    0    0 -0.11620930869E+02 -0.87946470402E+01 -0.23345094418E+01  0.14759842452E+02  0.10566000000E+00 0. -1.
        996    1    1    2    0    0  0.11620930869E+02  0.87946470402E+01  0.86557137719E+02  0.10101747344E+03  0.50000000000E+02 0.  0.
<mgrwt>
<rscale>  0 0.52080628E+02</rscale>
<asrwt>0</asrwt>
<pdfrwt beam="1">  1       13 0.10000000E+01 0.52080628E+02</pdfrwt>
<pdfrwt beam="2">  1       22 0.15777339E+00 0.52080628E+02</pdfrwt>
<totfact> 0.69168662E-01</totfact>
</mgrwt>
</event>
<event>
 4    1  0.2516086E+000  0.5698525E+02  0.7957747E-01  0.1410937E+00
         13   -1    0    0    0    0  0.00000000000E+00  0.00000000000E+00  0.99999944178E+02  0.99999999998E+02  0.10566000000E+00 0.  1.
         22   -1    0    0    0    0 -0.00000000000E+00 -0.00000000000E+00 -0.22148182275E+02  0.22148182275E+02  0.00000000000E+00 0. -1.
         13    1    1    2    0    0 -0.39435334369E+01  0.27051199919E+02  0.21865078146E+01  0.27424639532E+02  0.10566000000E+00 0. -1.
        996    1    1    2    0    0  0.39435334369E+01 -0.27051199919E+02  0.75665254088E+02  0.94723542740E+02  0.50000000000E+02 0.  0.
<mgrwt>
<rscale>  0 0.56985251E+02</rscale>
<asrwt>0</asrwt>
<pdfrwt beam="1">  1       13 0.10000000E+01 0.56985251E+02</pdfrwt>
<pdfrwt beam="2">  1       22 0.22148204E+00 0.56985251E+02</pdfrwt>
<totfact> 0.37637788E-01</totfact>
</mgrwt>
</event>
<event>
 4    1  0.2516086E+000  0.5359256E+02  0.7957747E-01  0.1426874E+00
         13   -1    0    0    0    0  0.00000000000E+00  0.00000000000E+00  0.99999944174E+02  0.99999999994E+02  0.10566000000E+00 0.  1.
         22   -1    0    0    0    0 -0.00000000000E+00 -0.00000000000E+00 -0.14967870965E+02  0.14967870965E+02  0.00000000000E+00 0.  1.
         13    1    1    2    0    0 -0.15040698650E+02  0.12080553745E+02  0.74614727771E+01  0.20684466024E+02  0.10566000000E+00 0. -1.
        996    1    1    2    0    0  0.15040698650E+02 -0.12080553745E+02  0.77570600432E+02  0.94283404935E+02  0.50000000000E+02 0.  0.
<mgrwt>
<rscale>  0 0.53592559E+02</rscale>
<asrwt>0</asrwt>
<pdfrwt beam="1">  1       13 0.10000000E+01 0.53592559E+02</pdfrwt>
<pdfrwt beam="2">  1       22 0.14967895E+00 0.53592559E+02</pdfrwt>
<totfact> 0.75804182E-01</totfact>
</mgrwt>
</event>
<event>
 4    1  0.2516086E+000  0.5167894E+02  0.7957747E-01  0.1436491E+00
         13   -1    0    0    0    0  0.00000000000E+00  0.00000000000E+00  0.99999944173E+02  0.99999999993E+02  0.10566000000E+00 0. -1.
         22   -1    0    0    0    0 -0.00000000000E+00 -0.00000000000E+00 -0.44404436208E+02  0.44404436208E+02  0.00000000000E+00 0.  1.
         13    1    1    2    0    0  0.56338808393E+00 -0.13053561173E+02 -0.36517532937E+02  0.38784716594E+02  0.10566000000E+00 0.  1.
        996    1    1    2    0    0 -0.56338808393E+00  0.13053561173E+02  0.92113040903E+02  0.10561971961E+03  0.50000000000E+02 0.  0.
<mgrwt>
<rscale>  0 0.51678940E+02</rscale>
<asrwt>0</asrwt>
<pdfrwt beam="1">  1       13 0.10000000E+01 0.51678940E+02</pdfrwt>
<pdfrwt beam="2">  1       22 0.44404452E+00 0.51678940E+02</pdfrwt>
<totfact> 0.99617106E-02</totfact>
</mgrwt>
</event>
<event>
 4    1  0.2516086E+000  0.5321426E+02  0.7957747E-01  0.1428738E+00
         13   -1    0    0    0    0  0.00000000000E+00  0.00000000000E+00  0.99999944182E+02  0.10000000000E+03  0.10566000000E+00 0. -1.
         22   -1    0    0    0    0 -0.00000000000E+00 -0.00000000000E+00 -0.34224767495E+02  0.34224767495E+02  0.00000000000E+00 0.  1.
         13    1    1    2    0    0  0.12757527292E+02 -0.13000111348E+02 -0.23839328052E+02  0.30001368697E+02  0.10566000000E+00 0.  1.
        996    1    1    2    0    0 -0.12757527292E+02  0.13000111348E+02  0.89614504740E+02  0.10422339880E+03  0.50000000000E+02 0.  0.
<mgrwt>
<rscale>  0 0.53214259E+02</rscale>
<asrwt>0</asrwt>
<pdfrwt beam="1">  1       13 0.10000000E+01 0.53214259E+02</pdfrwt>
<pdfrwt beam="2">  1       22 0.34224786E+00 0.53214259E+02</pdfrwt>
<totfact> 0.16361592E-01</totfact>
</mgrwt>
</event>
<event>
 4    1  0.2516086E+000  0.5445884E+02  0.7957747E-01  0.1422676E+00
         13   -1    0    0    0    0  0.00000000000E+00  0.00000000000E+00  0.99999944180E+02  0.10000000000E+03  0.10566000000E+00 0.  1.
         22   -1    0    0    0    0 -0.00000000000E+00 -0.00000000000E+00 -0.14555423709E+02  0.14555423709E+02  0.00000000000E+00 0.  1.
         13    1    1    2    0    0 -0.19320695052E+02 -0.96164385380E+01  0.28661599752E+02  0.35878456096E+02  0.10566000000E+00 0. -1.
        996    1    1    2    0    0  0.19320695052E+02  0.96164385380E+01  0.56782920719E+02  0.78676967613E+02  0.50000000000E+02 0.  0.
<mgrwt>
<rscale>  0 0.54458839E+02</rscale>
<asrwt>0</asrwt>
<pdfrwt beam="1">  1       13 0.10000000E+01 0.54458839E+02</pdfrwt>
<pdfrwt beam="2">  1       22 0.14555448E+00 0.54458839E+02</pdfrwt>
<totfact> 0.79530373E-01</totfact>
</mgrwt>
</event>
<event>
 4    1  0.2516086E+000  0.5112186E+02  0.7957747E-01  0.1439383E+00
         13   -1    0    0    0    0  0.00000000000E+00  0.00000000000E+00  0.99999944176E+02  0.99999999997E+02  0.10566000000E+00 0.  1.
         22   -1    0    0    0    0 -0.00000000000E+00 -0.00000000000E+00 -0.95539363619E+01  0.95539363619E+01  0.00000000000E+00 0.  1.
         13    1    1    2    0    0 -0.10465768391E+02 -0.19779100207E+01  0.14049869903E+02  0.17631064755E+02  0.10566000000E+00 0. -1.
        996    1    1    2    0    0  0.10465768391E+02  0.19779100207E+01  0.76396137911E+02  0.91922871603E+02  0.50000000000E+02 0.  0.
<mgrwt>
<rscale>  0 0.51121859E+02</rscale>
<asrwt>0</asrwt>
<pdfrwt beam="1">  1       13 0.10000000E+01 0.51121859E+02</pdfrwt>
<pdfrwt beam="2">  1       22 0.95539616E-01 0.51121859E+02</pdfrwt>
<totfact> 0.15022906E+00</totfact>
</mgrwt>
</event>
<event>
 4    1  0.2516086E+000  0.5470643E+02  0.7957747E-01  0.1421492E+00
         13   -1    0    0    0    0  0.00000000000E+00  0.00000000000E+00  0.99999944180E+02  0.10000000000E+03  0.10566000000E+00 0. -1.
         22   -1    0    0    0    0 -0.00000000000E+00 -0.00000000000E+00 -0.20226933006E+02  0.20226933006E+02  0.00000000000E+00 0.  1.
         13    1    1    2    0    0 -0.21771232461E+02 -0.43366469168E+01 -0.15080795712E+01  0.22250360388E+02  0.10566000000E+00 0.  1.
        996    1    1    2    0    0  0.21771232461E+02  0.43366469168E+01  0.81281090745E+02  0.97976572619E+02  0.50000000000E+02 0.  0.
<mgrwt>
<rscale>  0 0.54706426E+02</rscale>
<asrwt>0</asrwt>
<pdfrwt beam="1">  1       13 0.10000000E+01 0.54706426E+02</pdfrwt>
<pdfrwt beam="2">  1       22 0.20226955E+00 0.54706426E+02</pdfrwt>
<totfact> 0.44571468E-01</totfact>
</mgrwt>
</event>
<event>
 4    1  0.2516086E+000  0.5376691E+02  0.7957747E-01  0.1426022E+00
         13   -1    0    0    0    0  0.00000000000E+00  0.00000000000E+00  0.99999944181E+02  0.10000000000E+03  0.10566000000E+00 0. -1.
         22   -1    0    0    0    0 -0.00000000000E+00 -0.00000000000E+00 -0.16099607748E+02  0.16099607748E+02  0.00000000000E+00 0.  1.
         13    1    1    2    0    0 -0.37674423528E+01  0.19408437818E+02  0.46146079723E+01  0.20302385357E+02  0.10566000000E+00 0.  1.
        996    1    1    2    0    0  0.37674423528E+01 -0.19408437818E+02  0.79285728461E+02  0.95797222392E+02  0.50000000000E+02 0.  0.
<mgrwt>
<rscale>  0 0.53766914E+02</rscale>
<asrwt>0</asrwt>
<pdfrwt beam="1">  1       13 0.10000000E+01 0.53766914E+02</pdfrwt>
<pdfrwt beam="2">  1       22 0.16099631E+00 0.53766914E+02</pdfrwt>
<totfact> 0.67041614E-01</totfact>
</mgrwt>
</event>
<event>
 4    1  0.2516086E+000  0.6415146E+02  0.7957747E-01  0.1381192E+00
         13   -1    0    0    0    0  0.00000000000E+00  0.00000000000E+00  0.99999944175E+02  0.99999999995E+02  0.10566000000E+00 0. -1.
         22   -1    0    0    0    0 -0.00000000000E+00 -0.00000000000E+00 -0.28958534837E+02  0.28958534837E+02  0.00000000000E+00 0.  1.
         13    1    1    2    0    0 -0.12515632993E+02 -0.38193838775E+02  0.43261051950E+02  0.59050318962E+02  0.10566000000E+00 0.  1.
        996    1    1    2    0    0  0.12515632993E+02  0.38193838775E+02  0.27780357388E+02  0.69908215871E+02  0.50000000000E+02 0.  0.
<mgrwt>
<rscale>  0 0.64151464E+02</rscale>
<asrwt>0</asrwt>
<pdfrwt beam="1">  1       13 0.10000000E+01 0.64151464E+02</pdfrwt>
<pdfrwt beam="2">  1       22 0.28958555E+00 0.64151464E+02</pdfrwt>
<totfact> 0.22464412E-01</totfact>
</mgrwt>
</event>
<event>
 4    1  0.2516086E+000  0.5729406E+02  0.7957747E-01  0.1409551E+00
         13   -1    0    0    0    0  0.00000000000E+00  0.00000000000E+00  0.99999944192E+02  0.10000000001E+03  0.10566000000E+00 0.  1.
         22   -1    0    0    0    0 -0.00000000000E+00 -0.00000000000E+00 -0.26469018697E+02  0.26469018697E+02  0.00000000000E+00 0. -1.
         13    1    1    2    0    0  0.24640972612E+02  0.13245056845E+02 -0.58410935229E+01  0.28578638870E+02  0.10566000000E+00 0. -1.
        996    1    1    2    0    0 -0.24640972612E+02 -0.13245056845E+02  0.79372019017E+02  0.97890379839E+02  0.50000000000E+02 0.  0.
<mgrwt>
<rscale>  0 0.57294058E+02</rscale>
<asrwt>0</asrwt>
<pdfrwt beam="1">  1       13 0.10000000E+01 0.57294058E+02</pdfrwt>
<pdfrwt beam="2">  1       22 0.26469039E+00 0.57294058E+02</pdfrwt>
<totfact> 0.26547231E-01</totfact>
</mgrwt>
</event>
<event>
 4    1  0.2516086E+000  0.5245874E+02  0.7957747E-01  0.1432514E+00
         13   -1    0    0    0    0  0.00000000000E+00  0.00000000000E+00  0.99999944186E+02  0.10000000001E+03  0.10566000000E+00 0. -1.
         22   -1    0    0    0    0 -0.00000000000E+00 -0.00000000000E+00 -0.14877506589E+02  0.14877506589E+02  0.00000000000E+00 0.  1.
         13    1    1    2    0    0  0.13206358465E+02  0.88040834497E+01  0.12120271222E+01  0.15918541487E+02  0.10566000000E+00 0.  1.
        996    1    1    2    0    0 -0.13206358465E+02 -0.88040834497E+01  0.83910410475E+02  0.98958965108E+02  0.50000000000E+02 0.  0.
<mgrwt>
<rscale>  0 0.52458744E+02</rscale>
<asrwt>0</asrwt>
<pdfrwt beam="1">  1       13 0.10000000E+01 0.52458744E+02</pdfrwt>
<pdfrwt beam="2">  1       22 0.14877530E+00 0.52458744E+02</pdfrwt>
<totfact> 0.76397288E-01</totfact>
</mgrwt>
</event>
<event>
 4    1  0.2516086E+000  0.5129111E+02  0.7957747E-01  0.1438500E+00
         13   -1    0    0    0    0  0.00000000000E+00  0.00000000000E+00  0.99999944175E+02  0.99999999995E+02  0.10566000000E+00 0. -1.
         22   -1    0    0    0    0 -0.00000000000E+00 -0.00000000000E+00 -0.21899802162E+02  0.21899802162E+02  0.00000000000E+00 0.  1.
         13    1    1    2    0    0  0.60229948274E+00  0.11419936560E+02 -0.13023842012E+02  0.17332320690E+02  0.10566000000E+00 0.  1.
        996    1    1    2    0    0 -0.60229948274E+00 -0.11419936560E+02  0.91123984025E+02  0.10456748147E+03  0.50000000000E+02 0.  0.
<mgrwt>
<rscale>  0 0.51291108E+02</rscale>
<asrwt>0</asrwt>
<pdfrwt beam="1">  1       13 0.10000000E+01 0.51291108E+02</pdfrwt>
<pdfrwt beam="2">  1       22 0.21899824E+00 0.51291108E+02</pdfrwt>
<totfact> 0.38107643E-01</totfact>
</mgrwt>
</event>
<event>
 4    1  0.2516086E+000  0.5379816E+02  0.7957747E-01  0.1425869E+00
         13   -1    0    0    0    0  0.00000000000E+00  0.00000000000E+00  0.99999944178E+02  0.99999999998E+02  0.10566000000E+00 0.  1.
         22   -1    0    0    0    0 -0.00000000000E+00 -0.00000000000E+00 -0.13852375380E+02  0.13852375380E+02  0.00000000000E+00 0. -1.
         13    1    1    2    0    0  0.72145382077E+01 -0.18498445607E+02  0.16307469899E+02  0.25694100295E+02  0.10566000000E+00 0. -1.
        996    1    1    2    0    0 -0.72145382077E+01  0.18498445607E+02  0.69840098899E+02  0.88158275083E+02  0.50000000000E+02 0.  0.
<mgrwt>
<rscale>  0 0.53798160E+02</rscale>
<asrwt>0</asrwt>
<pdfrwt beam="1">  1       13 0.10000000E+01 0.53798160E+02</pdfrwt>
<pdfrwt beam="2">  1       22 0.13852399E+00 0.53798160E+02</pdfrwt>
<totfact> 0.86106125E-01</totfact>
</mgrwt>
</event>
<event>
 4    1  0.2516086E+000  0.5183638E+02  0.7957747E-01  0.1435681E+00
         13   -1    0    0    0    0  0.00000000000E+00  0.00000000000E+00  0.99999944181E+02  0.10000000000E+03  0.10566000000E+00 0.  1.
         22   -1    0    0    0    0 -0.00000000000E+00 -0.00000000000E+00 -0.14766643907E+02  0.14766643907E+02  0.00000000000E+00 0. -1.
         13    1    1    2    0    0  0.12215147572E+02  0.61482238382E+01 -0.14649104885E+01  0.13753821773E+02  0.10566000000E+00 0. -1.
        996    1    1    2    0    0 -0.12215147572E+02 -0.61482238382E+01  0.86698210762E+02  0.10101282214E+03  0.50000000000E+02 0.  0.
<mgrwt>
<rscale>  0 0.51836382E+02</rscale>
<asrwt>0</asrwt>
<pdfrwt beam="1">  1       13 0.10000000E+01 0.51836382E+02</pdfrwt>
<pdfrwt beam="2">  1       22 0.14766668E+00 0.51836382E+02</pdfrwt>
<totfact> 0.77251663E-01</totfact>
</mgrwt>
</event>
<event>
 4    1  0.2516086E+000  0.5281411E+02  0.7957747E-01  0.1430728E+00
         13   -1    0    0    0    0  0.00000000000E+00  0.00000000000E+00  0.99999944184E+02  0.10000000000E+03  0.10566000000E+00 0.  1.
         22   -1    0    0    0    0 -0.00000000000E+00 -0.00000000000E+00 -0.12195319209E+02  0.12195319209E+02  0.00000000000E+00 0.  1.
         13    1    1    2    0    0 -0.57171568516E+01 -0.16020112103E+02  0.20263909651E+02  0.26456890834E+02  0.10566000000E+00 0. -1.
        996    1    1    2    0    0  0.57171568516E+01  0.16020112103E+02  0.67540715324E+02  0.85738428378E+02  0.50000000000E+02 0.  0.
<mgrwt>
<rscale>  0 0.52814107E+02</rscale>
<asrwt>0</asrwt>
<pdfrwt beam="1">  1       13 0.10000000E+01 0.52814107E+02</pdfrwt>
<pdfrwt beam="2">  1       22 0.12195344E+00 0.52814107E+02</pdfrwt>
<totfact> 0.10504902E+00</totfact>
</mgrwt>
</event>
<event>
 4    1  0.2516086E+000  0.5165809E+02  0.7957747E-01  0.1436598E+00
         13   -1    0    0    0    0  0.00000000000E+00  0.00000000000E+00  0.99999944184E+02  0.10000000000E+03  0.10566000000E+00 0.  1.
         22   -1    0    0    0    0 -0.00000000000E+00 -0.00000000000E+00 -0.17312138168E+02  0.17312138168E+02  0.00000000000E+00 0. -1.
         13    1    1    2    0    0 -0.10581223689E+02 -0.75230418607E+01 -0.62891636010E+01  0.14426475538E+02  0.10566000000E+00 0. -1.
        996    1    1    2    0    0  0.10581223689E+02  0.75230418607E+01  0.88976969617E+02  0.10288566263E+03  0.50000000000E+02 0.  0.
<mgrwt>
<rscale>  0 0.51658092E+02</rscale>
<asrwt>0</asrwt>
<pdfrwt beam="1">  1       13 0.10000000E+01 0.51658092E+02</pdfrwt>
<pdfrwt beam="2">  1       22 0.17312161E+00 0.51658092E+02</pdfrwt>
<totfact> 0.58845010E-01</totfact>
</mgrwt>
</event>
<event>
 4    1  0.2516086E+000  0.5226871E+02  0.7957747E-01  0.1433475E+00
         13   -1    0    0    0    0  0.00000000000E+00  0.00000000000E+00  0.99999944176E+02  0.99999999996E+02  0.10566000000E+00 0.  1.
         22   -1    0    0    0    0 -0.00000000000E+00 -0.00000000000E+00 -0.11574898762E+02  0.11574898762E+02  0.00000000000E+00 0. -1.
         13    1    1    2    0    0 -0.89423315729E+01 -0.12330947392E+02  0.14440753561E+02  0.20989618505E+02  0.10566000000E+00 0. -1.
        996    1    1    2    0    0  0.89423315729E+01  0.12330947392E+02  0.73984291852E+02  0.90585280253E+02  0.50000000000E+02 0.  0.
<mgrwt>
<rscale>  0 0.52268705E+02</rscale>
<asrwt>0</asrwt>
<pdfrwt beam="1">  1       13 0.10000000E+01 0.52268705E+02</pdfrwt>
<pdfrwt beam="2">  1       22 0.11574923E+00 0.52268705E+02</pdfrwt>
<totfact> 0.11362623E+00</totfact>
</mgrwt>
</event>
<event>
 4    1  0.2516086E+000  0.5758375E+02  0.7957747E-01  0.1408261E+00
         13   -1    0    0    0    0  0.00000000000E+00  0.00000000000E+00  0.99999944175E+02  0.99999999995E+02  0.10566000000E+00 0. -1.
         22   -1    0    0    0    0 -0.00000000000E+00 -0.00000000000E+00 -0.32470481569E+02  0.32470481569E+02  0.00000000000E+00 0.  1.
         13    1    1    2    0    0 -0.27800750119E+02  0.65579385280E+01 -0.14667698476E+02  0.32109824159E+02  0.10566000000E+00 0.  1.
        996    1    1    2    0    0  0.27800750119E+02 -0.65579385280E+01  0.82197161082E+02  0.10036065741E+03  0.50000000000E+02 0.  0.
<mgrwt>
<rscale>  0 0.57583750E+02</rscale>
<asrwt>0</asrwt>
<pdfrwt beam="1">  1       13 0.10000000E+01 0.57583750E+02</pdfrwt>
<pdfrwt beam="2">  1       22 0.32470500E+00 0.57583750E+02</pdfrwt>
<totfact> 0.18037273E-01</totfact>
</mgrwt>
</event>
<event>
 4    1  0.2516086E+000  0.5505675E+02  0.7957747E-01  0.1419831E+00
         13   -1    0    0    0    0  0.00000000000E+00  0.00000000000E+00  0.99999944185E+02  0.10000000001E+03  0.10566000000E+00 0. -1.
         22   -1    0    0    0    0 -0.00000000000E+00 -0.00000000000E+00 -0.16220748011E+02  0.16220748011E+02  0.00000000000E+00 0. -1.
         13    1    1    2    0    0 -0.84015657311E+00 -0.23033458915E+02  0.12712415824E+02  0.26322286618E+02  0.10566000000E+00 0.  1.
        996    1    1    2    0    0  0.84015657311E+00  0.23033458915E+02  0.71066780349E+02  0.89898461399E+02  0.50000000000E+02 0.  0.
<mgrwt>
<rscale>  0 0.55056753E+02</rscale>
<asrwt>0</asrwt>
<pdfrwt beam="1">  1       13 0.10000000E+01 0.55056753E+02</pdfrwt>
<pdfrwt beam="2">  1       22 0.16220771E+00 0.55056753E+02</pdfrwt>
<totfact> 0.66344614E-01</totfact>
</mgrwt>
</event>
<event>
 4    1  0.2516086E+000  0.5315606E+02  0.7957747E-01  0.1429026E+00
         13   -1    0    0    0    0  0.00000000000E+00  0.00000000000E+00  0.99999944181E+02  0.10000000000E+03  0.10566000000E+00 0.  1.
         22   -1    0    0    0    0 -0.00000000000E+00 -0.00000000000E+00 -0.14649558836E+02  0.14649558836E+02  0.00000000000E+00 0.  1.
         13    1    1    2    0    0 -0.83376196832E+01 -0.16001598105E+02  0.57603920316E+01  0.18940969465E+02  0.10566000000E+00 0. -1.
        996    1    1    2    0    0  0.83376196832E+01  0.16001598105E+02  0.79589993314E+02  0.95708589372E+02  0.50000000000E+02 0.  0.
<mgrwt>
<rscale>  0 0.53156063E+02</rscale>
<asrwt>0</asrwt>
<pdfrwt beam="1">  1       13 0.10000000E+01 0.53156063E+02</pdfrwt>
<pdfrwt beam="2">  1       22 0.14649583E+00 0.53156063E+02</pdfrwt>
<totfact> 0.78485634E-01</totfact>
</mgrwt>
</event>
<event>
 4    1  0.2516086E+000  0.5122446E+02  0.7957747E-01  0.1438847E+00
         13   -1    0    0    0    0  0.00000000000E+00  0.00000000000E+00  0.99999944179E+02  0.10000000000E+03  0.10566000000E+00 0.  1.
         22   -1    0    0    0    0 -0.00000000000E+00 -0.00000000000E+00 -0.12212641830E+02  0.12212641830E+02  0.00000000000E+00 0.  1.
         13    1    1    2    0    0 -0.35689859947E+00  0.11127332732E+02  0.67283286413E+00  0.11153868317E+02  0.10566000000E+00 0. -1.
        996    1    1    2    0    0  0.35689859947E+00 -0.11127332732E+02  0.87114469485E+02  0.10105877351E+03  0.50000000000E+02 0.  0.
<mgrwt>
<rscale>  0 0.51224456E+02</rscale>
<asrwt>0</asrwt>
<pdfrwt beam="1">  1       13 0.10000000E+01 0.51224456E+02</pdfrwt>
<pdfrwt beam="2">  1       22 0.12212666E+00 0.51224456E+02</pdfrwt>
<totfact> 0.10445039E+00</totfact>
</mgrwt>
</event>
<event>
 4    1  0.2516086E+000  0.6327146E+02  0.7957747E-01  0.1384594E+00
         13   -1    0    0    0    0  0.00000000000E+00  0.00000000000E+00  0.99999944201E+02  0.10000000002E+03  0.10566000000E+00 0.  1.
         22   -1    0    0    0    0 -0.00000000000E+00 -0.00000000000E+00 -0.86614004742E+02  0.86614004742E+02  0.00000000000E+00 0. -1.
         13    1    1    2    0    0  0.10522112553E+02 -0.37317057557E+02 -0.71146345811E+02  0.81025251148E+02  0.10566000000E+00 0. -1.
        996    1    1    2    0    0 -0.10522112553E+02  0.37317057557E+02  0.84532285270E+02  0.10558875362E+03  0.50000000000E+02 0.  0.
<mgrwt>
<rscale>  0 0.63271460E+02</rscale>
<asrwt>0</asrwt>
<pdfrwt beam="1">  1       13 0.10000000E+01 0.63271460E+02</pdfrwt>
<pdfrwt beam="2">  1       22 0.86614009E+00 0.63271460E+02</pdfrwt>
<totfact> 0.15912432E-02</totfact>
</mgrwt>
</event>
<event>
 4    1  0.2516086E+000  0.5238440E+02  0.7957747E-01  0.1432889E+00
         13   -1    0    0    0    0  0.00000000000E+00  0.00000000000E+00  0.99999944177E+02  0.99999999997E+02  0.10566000000E+00 0. -1.
         22   -1    0    0    0    0 -0.00000000000E+00 -0.00000000000E+00 -0.13340951194E+02  0.13340951194E+02  0.00000000000E+00 0. -1.
         13    1    1    2    0    0 -0.15269584593E+02 -0.33113381416E+01  0.51530926686E+01  0.16452680694E+02  0.10566000000E+00 0.  1.
        996    1    1    2    0    0  0.15269584593E+02  0.33113381416E+01  0.81505900314E+02  0.96888270497E+02  0.50000000000E+02 0.  0.
<mgrwt>
<rscale>  0 0.52384398E+02</rscale>
<asrwt>0</asrwt>
<pdfrwt beam="1">  1       13 0.10000000E+01 0.52384398E+02</pdfrwt>
<pdfrwt beam="2">  1       22 0.13340975E+00 0.52384398E+02</pdfrwt>
<totfact> 0.91189699E-01</totfact>
</mgrwt>
</event>
<event>
 4    1  0.2516086E+000  0.6084358E+02  0.7957747E-01  0.1394325E+00
         13   -1    0    0    0    0  0.00000000000E+00  0.00000000000E+00  0.99999944180E+02  0.10000000000E+03  0.10566000000E+00 0.  1.
         22   -1    0    0    0    0 -0.00000000000E+00 -0.00000000000E+00 -0.66679696094E+02  0.66679696094E+02  0.00000000000E+00 0. -1.
         13    1    1    2    0    0  0.34611687578E+02 -0.19931509141E+01 -0.51628799153E+02  0.62189111857E+02  0.10566000000E+00 0. -1.
        996    1    1    2    0    0 -0.34611687578E+02  0.19931509141E+01  0.84949047238E+02  0.10449058424E+03  0.50000000000E+02 0.  0.
<mgrwt>
<rscale>  0 0.60843583E+02</rscale>
<asrwt>0</asrwt>
<pdfrwt beam="1">  1       13 0.10000000E+01 0.60843583E+02</pdfrwt>
<pdfrwt beam="2">  1       22 0.66679705E+00 0.60843583E+02</pdfrwt>
<totfact> 0.86790373E-02</totfact>
</mgrwt>
</event>
<event>
 4    1  0.2516086E+000  0.5111870E+02  0.7957747E-01  0.1439399E+00
         13   -1    0    0    0    0  0.00000000000E+00  0.00000000000E+00  0.99999944178E+02  0.99999999998E+02  0.10566000000E+00 0. -1.
         22   -1    0    0    0    0 -0.00000000000E+00 -0.00000000000E+00 -0.16067758349E+02  0.16067758349E+02  0.00000000000E+00 0.  1.
         13    1    1    2    0    0  0.37933654091E+01  0.99363987246E+01 -0.62995938147E+01  0.12361945114E+02  0.10566000000E+00 0.  1.
        996    1    1    2    0    0 -0.37933654091E+01 -0.99363987246E+01  0.90231779644E+02  0.10370581323E+03  0.50000000000E+02 0.  0.
<mgrwt>
<rscale>  0 0.51118701E+02</rscale>
<asrwt>0</asrwt>
<pdfrwt beam="1">  1       13 0.10000000E+01 0.51118701E+02</pdfrwt>
<pdfrwt beam="2">  1       22 0.16067782E+00 0.51118701E+02</pdfrwt>
<totfact> 0.66920024E-01</totfact>
</mgrwt>
</event>
<event>
 4    1  0.2516086E+000  0.5238234E+02  0.7957747E-01  0.1432900E+00
         13   -1    0    0    0    0  0.00000000000E+00  0.00000000000E+00  0.99999944177E+02  0.99999999997E+02  0.10566000000E+00 0. -1.
         22   -1    0    0    0    0 -0.00000000000E+00 -0.00000000000E+00 -0.11560668087E+02  0.11560668087E+02  0.00000000000E+00 0. -1.
         13    1    1    2    0    0 -0.61097308541E+01  0.14372905988E+02  0.20650073998E+02  0.25891040107E+02  0.10566000000E+00 0.  1.
        996    1    1    2    0    0  0.61097308541E+01 -0.14372905988E+02  0.67789202091E+02  0.85669627978E+02  0.50000000000E+02 0.  0.
<mgrwt>
<rscale>  0 0.52382337E+02</rscale>
<asrwt>0</asrwt>
<pdfrwt beam="1">  1       13 0.10000000E+01 0.52382337E+02</pdfrwt>
<pdfrwt beam="2">  1       22 0.11560693E+00 0.52382337E+02</pdfrwt>
<totfact> 0.11386685E+00</totfact>
</mgrwt>
</event>
<event>
 4    1  0.2516086E+000  0.5213148E+02  0.7957747E-01  0.1434173E+00
         13   -1    0    0    0    0  0.00000000000E+00  0.00000000000E+00  0.99999944184E+02  0.10000000000E+03  0.10566000000E+00 0.  1.
         22   -1    0    0    0    0 -0.00000000000E+00 -0.00000000000E+00 -0.11824414326E+02  0.11824414326E+02  0.00000000000E+00 0.  1.
         13    1    1    2    0    0  0.11725195645E+02 -0.89560550990E+01  0.31703887315E+02  0.34969111667E+02  0.10566000000E+00 0. -1.
        996    1    1    2    0    0 -0.11725195645E+02  0.89560550990E+01  0.56471642543E+02  0.76855302662E+02  0.50000000000E+02 0.  0.
<mgrwt>
<rscale>  0 0.52131479E+02</rscale>
<asrwt>0</asrwt>
<pdfrwt beam="1">  1       13 0.10000000E+01 0.52131479E+02</pdfrwt>
<pdfrwt beam="2">  1       22 0.11824439E+00 0.52131479E+02</pdfrwt>
<totfact> 0.10997477E+00</totfact>
</mgrwt>
</event>
<event>
 4    1  0.2516086E+000  0.5262833E+02  0.7957747E-01  0.1431660E+00
         13   -1    0    0    0    0  0.00000000000E+00  0.00000000000E+00  0.99999944181E+02  0.10000000000E+03  0.10566000000E+00 0.  1.
         22   -1    0    0    0    0 -0.00000000000E+00 -0.00000000000E+00 -0.11946326392E+02  0.11946326392E+02  0.00000000000E+00 0.  1.
         13    1    1    2    0    0  0.11557247629E+02 -0.11669230578E+02  0.23206877461E+02  0.28430814982E+02  0.10566000000E+00 0. -1.
        996    1    1    2    0    0 -0.11557247629E+02  0.11669230578E+02  0.64846740328E+02  0.83515511411E+02  0.50000000000E+02 0.  0.
<mgrwt>
<rscale>  0 0.52628328E+02</rscale>
<asrwt>0</asrwt>
<pdfrwt beam="1">  1       13 0.10000000E+01 0.52628328E+02</pdfrwt>
<pdfrwt beam="2">  1       22 0.11946351E+00 0.52628328E+02</pdfrwt>
<totfact> 0.10838548E+00</totfact>
</mgrwt>
</event>
<event>
 4    1  0.2516086E+000  0.5117632E+02  0.7957747E-01  0.1439098E+00
         13   -1    0    0    0    0  0.00000000000E+00  0.00000000000E+00  0.99999944182E+02  0.10000000000E+03  0.10566000000E+00 0.  1.
         22   -1    0    0    0    0 -0.00000000000E+00 -0.00000000000E+00 -0.15645949495E+02  0.15645949495E+02  0.00000000000E+00 0.  1.
         13    1    1    2    0    0 -0.10907641773E+02 -0.19782178917E+00 -0.55168761799E+01  0.12225500780E+02  0.10566000000E+00 0. -1.
        996    1    1    2    0    0  0.10907641773E+02  0.19782178917E+00  0.89870870866E+02  0.10342044872E+03  0.50000000000E+02 0.  0.
<mgrwt>
<rscale>  0 0.51176321E+02</rscale>
<asrwt>0</asrwt>
<pdfrwt beam="1">  1       13 0.10000000E+01 0.51176321E+02</pdfrwt>
<pdfrwt beam="2">  1       22 0.15645973E+00 0.51176321E+02</pdfrwt>
<totfact> 0.70028878E-01</totfact>
</mgrwt>
</event>
<event>
 4    1  0.2516086E+000  0.5849089E+02  0.7957747E-01  0.1404276E+00
         13   -1    0    0    0    0  0.00000000000E+00  0.00000000000E+00  0.99999944188E+02  0.10000000001E+03  0.10566000000E+00 0.  1.
         22   -1    0    0    0    0 -0.00000000000E+00 -0.00000000000E+00 -0.54052151381E+02  0.54052151381E+02  0.00000000000E+00 0. -1.
         13    1    1    2    0    0 -0.72461360268E+01  0.29473337621E+02 -0.39924901482E+02  0.50151700272E+02  0.10566000000E+00 0. -1.
        996    1    1    2    0    0  0.72461360268E+01 -0.29473337621E+02  0.85872694289E+02  0.10390045112E+03  0.50000000000E+02 0.  0.
<mgrwt>
<rscale>  0 0.58490889E+02</rscale>
<asrwt>0</asrwt>
<pdfrwt beam="1">  1       13 0.10000000E+01 0.58490889E+02</pdfrwt>
<pdfrwt beam="2">  1       22 0.54052164E+00 0.58490889E+02</pdfrwt>
<totfact> 0.60622505E-02</totfact>
</mgrwt>
</event>
<event>
 4    1  0.2516086E+000  0.5141298E+02  0.7957747E-01  0.1437866E+00
         13   -1    0    0    0    0  0.00000000000E+00  0.00000000000E+00  0.99999944174E+02  0.99999999994E+02  0.10566000000E+00 0.  1.
         22   -1    0    0    0    0 -0.00000000000E+00 -0.00000000000E+00 -0.18430205511E+02  0.18430205511E+02  0.00000000000E+00 0. -1.
         13    1    1    2    0    0  0.10268905176E+02 -0.61517398343E+01 -0.85262237977E+01  0.14697005572E+02  0.10566000000E+00 0. -1.
        996    1    1    2    0    0 -0.10268905176E+02  0.61517398343E+01  0.90095962461E+02  0.10373319993E+03  0.50000000000E+02 0.  0.
<mgrwt>
<rscale>  0 0.51412978E+02</rscale>
<asrwt>0</asrwt>
<pdfrwt beam="1">  1       13 0.10000000E+01 0.51412978E+02</pdfrwt>
<pdfrwt beam="2">  1       22 0.18430228E+00 0.51412978E+02</pdfrwt>
<totfact> 0.52594007E-01</totfact>
</mgrwt>
</event>
<event>
 4    1  0.2516086E+000  0.5676214E+02  0.7957747E-01  0.1411945E+00
         13   -1    0    0    0    0  0.00000000000E+00  0.00000000000E+00  0.99999944178E+02  0.99999999998E+02  0.10566000000E+00 0. -1.
         22   -1    0    0    0    0 -0.00000000000E+00 -0.00000000000E+00 -0.39420270361E+02  0.39420270361E+02  0.00000000000E+00 0.  1.
         13    1    1    2    0    0 -0.26343975812E+02  0.52854529632E+01 -0.25017542456E+02  0.36712799801E+02  0.10566000000E+00 0.  1.
        996    1    1    2    0    0  0.26343975812E+02 -0.52854529632E+01  0.85597216273E+02  0.10270747056E+03  0.50000000000E+02 0.  0.
<mgrwt>
<rscale>  0 0.56762145E+02</rscale>
<asrwt>0</asrwt>
<pdfrwt beam="1">  1       13 0.10000000E+01 0.56762145E+02</pdfrwt>
<pdfrwt beam="2">  1       22 0.39420287E+00 0.56762145E+02</pdfrwt>
<totfact> 0.12759221E-01</totfact>
</mgrwt>
</event>
<event>
 4    1  0.2516086E+000  0.5108013E+02  0.7957747E-01  0.1439601E+00
         13   -1    0    0    0    0  0.00000000000E+00  0.00000000000E+00  0.99999944178E+02  0.99999999999E+02  0.10566000000E+00 0.  1.
         22   -1    0    0    0    0 -0.00000000000E+00 -0.00000000000E+00 -0.18442373437E+02  0.18442373437E+02  0.00000000000E+00 0. -1.
         13    1    1    2    0    0 -0.56392393140E+01 -0.87965375285E+01 -0.94441430134E+01  0.14084853348E+02  0.10566000000E+00 0. -1.
        996    1    1    2    0    0  0.56392393140E+01  0.87965375285E+01  0.91001713755E+02  0.10435752009E+03  0.50000000000E+02 0.  0.
<mgrwt>
<rscale>  0 0.51080134E+02</rscale>
<asrwt>0</asrwt>
<pdfrwt beam="1">  1       13 0.10000000E+01 0.51080134E+02</pdfrwt>
<pdfrwt beam="2">  1       22 0.18442396E+00 0.51080134E+02</pdfrwt>
<totfact> 0.52498099E-01</totfact>
</mgrwt>
</event>
<event>
 4    1  0.2516086E+000  0.5617085E+02  0.7957747E-01  0.1414642E+00
         13   -1    0    0    0    0  0.00000000000E+00  0.00000000000E+00  0.99999944175E+02  0.99999999995E+02  0.10566000000E+00 0. -1.
         22   -1    0    0    0    0 -0.00000000000E+00 -0.00000000000E+00 -0.17127635465E+02  0.17127635465E+02  0.00000000000E+00 0. -1.
         13    1    1    2    0    0 -0.94410575524E+01 -0.23791409942E+02  0.17865574261E+02  0.31214654611E+02  0.10566000000E+00 0.  1.
        996    1    1    2    0    0  0.94410575524E+01  0.23791409942E+02  0.65006734449E+02  0.85912980850E+02  0.50000000000E+02 0.  0.
<mgrwt>
<rscale>  0 0.56170853E+02</rscale>
<asrwt>0</asrwt>
<pdfrwt beam="1">  1       13 0.10000000E+01 0.56170853E+02</pdfrwt>
<pdfrwt beam="2">  1       22 0.17127659E+00 0.56170853E+02</pdfrwt>
<totfact> 0.60470779E-01</totfact>
</mgrwt>
</event>
<event>
 4    1  0.2516086E+000  0.5673797E+02  0.7957747E-01  0.1412054E+00
         13   -1    0    0    0    0  0.00000000000E+00  0.00000000000E+00  0.99999944179E+02  0.99999999999E+02  0.10566000000E+00 0. -1.
         22   -1    0    0    0    0 -0.00000000000E+00 -0.00000000000E+00 -0.38177190454E+02  0.38177190454E+02  0.00000000000E+00 0.  1.
         13    1    1    2    0    0  0.19801882666E+02  0.18085439819E+02 -0.23536332438E+02  0.35681476977E+02  0.10566000000E+00 0.  1.
        996    1    1    2    0    0 -0.19801882666E+02 -0.18085439819E+02  0.85359086163E+02  0.10249571348E+03  0.50000000000E+02 0.  0.
<mgrwt>
<rscale>  0 0.56737974E+02</rscale>
<asrwt>0</asrwt>
<pdfrwt beam="1">  1       13 0.10000000E+01 0.56737974E+02</pdfrwt>
<pdfrwt beam="2">  1       22 0.38177208E+00 0.56737974E+02</pdfrwt>
<totfact> 0.13534380E-01</totfact>
</mgrwt>
</event>
<event>
 4    1  0.2516086E+000  0.5449022E+02  0.7957747E-01  0.1422525E+00
         13   -1    0    0    0    0  0.00000000000E+00  0.00000000000E+00  0.99999944178E+02  0.99999999998E+02  0.10566000000E+00 0. -1.
         22   -1    0    0    0    0 -0.00000000000E+00 -0.00000000000E+00 -0.14632415694E+02  0.14632415694E+02  0.00000000000E+00 0. -1.
         13    1    1    2    0    0 -0.20688454747E+02 -0.64165036911E+01  0.29424103217E+02  0.36537278136E+02  0.10566000000E+00 0.  1.
        996    1    1    2    0    0  0.20688454747E+02  0.64165036911E+01  0.55943425267E+02  0.78095137557E+02  0.50000000000E+02 0.  0.
<mgrwt>
<rscale>  0 0.54490216E+02</rscale>
<asrwt>0</asrwt>
<pdfrwt beam="1">  1       13 0.10000000E+01 0.54490216E+02</pdfrwt>
<pdfrwt beam="2">  1       22 0.14632440E+00 0.54490216E+02</pdfrwt>
<totfact> 0.78846314E-01</totfact>
</mgrwt>
</event>
<event>
 4    1  0.2516086E+000  0.5157072E+02  0.7957747E-01  0.1437049E+00
         13   -1    0    0    0    0  0.00000000000E+00  0.00000000000E+00  0.99999944176E+02  0.99999999996E+02  0.10566000000E+00 0. -1.
         22   -1    0    0    0    0 -0.00000000000E+00 -0.00000000000E+00 -0.10874570471E+02  0.10874570471E+02  0.00000000000E+00 0. -1.
         13    1    1    2    0    0 -0.57716044145E+01  0.11235089489E+02  0.29193571871E+02  0.31809031044E+02  0.10566000000E+00 0.  1.
        996    1    1    2    0    0  0.57716044145E+01 -0.11235089489E+02  0.59931801834E+02  0.79065539424E+02  0.50000000000E+02 0.  0.
<mgrwt>
<rscale>  0 0.51570715E+02</rscale>
<asrwt>0</asrwt>
<pdfrwt beam="1">  1       13 0.10000000E+01 0.51570715E+02</pdfrwt>
<pdfrwt beam="2">  1       22 0.10874595E+00 0.51570715E+02</pdfrwt>
<totfact> 0.12455371E+00</totfact>
</mgrwt>
</event>
<event>
 4    1  0.2516086E+000  0.5122156E+02  0.7957747E-01  0.1438862E+00
         13   -1    0    0    0    0  0.00000000000E+00  0.00000000000E+00  0.99999944181E+02  0.10000000000E+03  0.10566000000E+00 0. -1.
         22   -1    0    0    0    0 -0.00000000000E+00 -0.00000000000E+00 -0.16020232454E+02  0.16020232454E+02  0.00000000000E+00 0.  1.
         13    1    1    2    0    0  0.10768017734E+02  0.27744914345E+01 -0.58859811529E+01  0.12581889635E+02  0.10566000000E+00 0.  1.
        996    1    1    2    0    0 -0.10768017734E+02 -0.27744914345E+01  0.89865692879E+02  0.10343834282E+03  0.50000000000E+02 0.  0.
<mgrwt>
<rscale>  0 0.51221558E+02</rscale>
<asrwt>0</asrwt>
<pdfrwt beam="1">  1       13 0.10000000E+01 0.51221558E+02</pdfrwt>
<pdfrwt beam="2">  1       22 0.16020256E+00 0.51221558E+02</pdfrwt>
<totfact> 0.67273993E-01</totfact>
</mgrwt>
</event>
<event>
 4    1  0.2516086E+000  0.6115301E+02  0.7957747E-01  0.1393056E+00
         13   -1    0    0    0    0  0.00000000000E+00  0.00000000000E+00  0.99999944179E+02  0.99999999999E+02  0.10566000000E+00 0.  1.
         22   -1    0    0    0    0 -0.00000000000E+00 -0.00000000000E+00 -0.44413593496E+02  0.44413593496E+02  0.00000000000E+00 0. -1.
         13    1    1    2    0    0 -0.20029506027E+02  0.28957032846E+02 -0.25050072550E+02  0.43211204123E+02  0.10566000000E+00 0. -1.
        996    1    1    2    0    0  0.20029506027E+02 -0.28957032846E+02  0.80636423233E+02  0.10120238937E+03  0.50000000000E+02 0.  0.
<mgrwt>
<rscale>  0 0.61153012E+02</rscale>
<asrwt>0</asrwt>
<pdfrwt beam="1">  1       13 0.10000000E+01 0.61153012E+02</pdfrwt>
<pdfrwt beam="2">  1       22 0.44413609E+00 0.61153012E+02</pdfrwt>
<totfact> 0.10010570E-01</totfact>
</mgrwt>
</event>
<event>
 4    1  0.2516086E+000  0.5632746E+02  0.7957747E-01  0.1413924E+00
         13   -1    0    0    0    0  0.00000000000E+00  0.00000000000E+00  0.99999944187E+02  0.10000000001E+03  0.10566000000E+00 0. -1.
         22   -1    0    0    0    0 -0.00000000000E+00 -0.00000000000E+00 -0.46153294489E+02  0.46153294489E+02  0.00000000000E+00 0.  1.
         13    1    1    2    0    0 -0.20688590782E+01  0.25855426474E+02 -0.33408987976E+02  0.42296038794E+02  0.10566000000E+00 0.  1.
        996    1    1    2    0    0  0.20688590782E+01 -0.25855426474E+02  0.87255637674E+02  0.10385725570E+03  0.50000000000E+02 0.  0.
<mgrwt>
<rscale>  0 0.56327464E+02</rscale>
<asrwt>0</asrwt>
<pdfrwt beam="1">  1       13 0.10000000E+01 0.56327464E+02</pdfrwt>
<pdfrwt beam="2">  1       22 0.46153310E+00 0.56327464E+02</pdfrwt>
<totfact> 0.91136911E-02</totfact>
</mgrwt>
</event>
<event>
 4    1  0.2516086E+000  0.5168035E+02  0.7957747E-01  0.1436483E+00
         13   -1    0    0    0    0  0.00000000000E+00  0.00000000000E+00  0.99999944175E+02  0.99999999995E+02  0.10566000000E+00 0.  1.
         22   -1    0    0    0    0 -0.00000000000E+00 -0.00000000000E+00 -0.24715302941E+02  0.24715302941E+02  0.00000000000E+00 0. -1.
         13    1    1    2    0    0  0.60730599211E+01  0.11574804233E+02 -0.15484884850E+02  0.20264524981E+02  0.10566000000E+00 0. -1.
        996    1    1    2    0    0 -0.60730599211E+01 -0.11574804233E+02  0.90769526084E+02  0.10445077795E+03  0.50000000000E+02 0.  0.
<mgrwt>
<rscale>  0 0.51680346E+02</rscale>
<asrwt>0</asrwt>
<pdfrwt beam="1">  1       13 0.10000000E+01 0.51680346E+02</pdfrwt>
<pdfrwt beam="2">  1       22 0.24715324E+00 0.51680346E+02</pdfrwt>
<totfact> 0.30135501E-01</totfact>
</mgrwt>
</event>
<event>
 4    1  0.2516086E+000  0.6687667E+02  0.7957747E-01  0.1371048E+00
         13   -1    0    0    0    0  0.00000000000E+00  0.00000000000E+00  0.99999944180E+02  0.10000000000E+03  0.10566000000E+00 0. -1.
         22   -1    0    0    0    0 -0.00000000000E+00 -0.00000000000E+00 -0.58056109980E+02  0.58056109980E+02  0.00000000000E+00 0.  1.
         13    1    1    2    0    0 -0.27589886870E+02  0.34803551518E+02 -0.34682327795E+02  0.56350368953E+02  0.10566000000E+00 0.  1.
        996    1    1    2    0    0  0.27589886870E+02 -0.34803551518E+02  0.76626161995E+02  0.10170574103E+03  0.50000000000E+02 0.  0.
<mgrwt>
<rscale>  0 0.66876670E+02</rscale>
<asrwt>0</asrwt>
<pdfrwt beam="1">  1       13 0.10000000E+01 0.66876670E+02</pdfrwt>
<pdfrwt beam="2">  1       22 0.58056122E+00 0.66876670E+02</pdfrwt>
<totfact> 0.58541247E-02</totfact>
</mgrwt>
</event>
<event>
 4    1  0.2516086E+000  0.5102563E+02  0.7957747E-01  0.1439887E+00
         13   -1    0    0    0    0  0.00000000000E+00  0.00000000000E+00  0.99999944175E+02  0.99999999995E+02  0.10566000000E+00 0.  1.
         22   -1    0    0    0    0 -0.00000000000E+00 -0.00000000000E+00 -0.15906263510E+02  0.15906263510E+02  0.00000000000E+00 0. -1.
         13    1    1    2    0    0  0.41753179340E+01 -0.92834234291E+01 -0.63956039374E+01  0.12022069047E+02  0.10566000000E+00 0. -1.
        996    1    1    2    0    0 -0.41753179340E+01  0.92834234291E+01  0.90489284602E+02  0.10388419446E+03  0.50000000000E+02 0.  0.
<mgrwt>
<rscale>  0 0.51025633E+02</rscale>
<asrwt>0</asrwt>
<pdfrwt beam="1">  1       13 0.10000000E+01 0.51025633E+02</pdfrwt>
<pdfrwt beam="2">  1       22 0.15906287E+00 0.51025633E+02</pdfrwt>
<totfact> 0.68071955E-01</totfact>
</mgrwt>
</event>
<event>
 4    1  0.2516086E+000  0.5327147E+02  0.7957747E-01  0.1428455E+00
         13   -1    0    0    0    0  0.00000000000E+00  0.00000000000E+00  0.99999944175E+02  0.99999999995E+02  0.10566000000E+00 0. -1.
         22   -1    0    0    0    0 -0.00000000000E+00 -0.00000000000E+00 -0.13307192706E+02  0.13307192706E+02  0.00000000000E+00 0. -1.
         13    1    1    2    0    0  0.18083115681E+02  0.32940345470E+01  0.32358829468E+02  0.37214980114E+02  0.10566000000E+00 0.  1.
        996    1    1    2    0    0 -0.18083115681E+02 -0.32940345470E+01  0.54333922001E+02  0.76092212587E+02  0.50000000000E+02 0.  0.
<mgrwt>
<rscale>  0 0.53271472E+02</rscale>
<asrwt>0</asrwt>
<pdfrwt beam="1">  1       13 0.10000000E+01 0.53271472E+02</pdfrwt>
<pdfrwt beam="2">  1       22 0.13307217E+00 0.53271472E+02</pdfrwt>
<totfact> 0.91729295E-01</totfact>
</mgrwt>
</event>
<event>
 4    1  0.2516086E+000  0.5119498E+02  0.7957747E-01  0.1439001E+00
         13   -1    0    0    0    0  0.00000000000E+00  0.00000000000E+00  0.99999944171E+02  0.99999999991E+02  0.10566000000E+00 0. -1.
         22   -1    0    0    0    0 -0.00000000000E+00 -0.00000000000E+00 -0.96711633125E+01  0.96711633125E+01  0.00000000000E+00 0. -1.
         13    1    1    2    0    0 -0.25318355077E+01 -0.10701218930E+02  0.16503908531E+02  0.19832207100E+02  0.10566000000E+00 0.  1.
        996    1    1    2    0    0  0.25318355077E+01  0.10701218930E+02  0.73824872327E+02  0.89838956204E+02  0.50000000000E+02 0.  0.
<mgrwt>
<rscale>  0 0.51194983E+02</rscale>
<asrwt>0</asrwt>
<pdfrwt beam="1">  1       13 0.10000000E+01 0.51194983E+02</pdfrwt>
<pdfrwt beam="2">  1       22 0.96711885E-01 0.51194983E+02</pdfrwt>
<totfact> 0.14765306E+00</totfact>
</mgrwt>
</event>
<event>
 4    1  0.2516086E+000  0.5197314E+02  0.7957747E-01  0.1434981E+00
         13   -1    0    0    0    0  0.00000000000E+00  0.00000000000E+00  0.99999944175E+02  0.99999999995E+02  0.10566000000E+00 0. -1.
         22   -1    0    0    0    0 -0.00000000000E+00 -0.00000000000E+00 -0.12555495777E+02  0.12555495777E+02  0.00000000000E+00 0.  1.
         13    1    1    2    0    0  0.13843982722E+02  0.30905478192E+01  0.48921557348E+01  0.15005055654E+02  0.10566000000E+00 0.  1.
        996    1    1    2    0    0 -0.13843982722E+02 -0.30905478192E+01  0.82552292663E+02  0.97550440118E+02  0.50000000000E+02 0.  0.
<mgrwt>
<rscale>  0 0.51973141E+02</rscale>
<asrwt>0</asrwt>
<pdfrwt beam="1">  1       13 0.10000000E+01 0.51973141E+02</pdfrwt>
<pdfrwt beam="2">  1       22 0.12555520E+00 0.51973141E+02</pdfrwt>
<totfact> 0.10023475E+00</totfact>
</mgrwt>
</event>
<event>
 4    1  0.2516086E+000  0.5408900E+02  0.7957747E-01  0.1424457E+00
         13   -1    0    0    0    0  0.00000000000E+00  0.00000000000E+00  0.99999944178E+02  0.99999999998E+02  0.10566000000E+00 0. -1.
         22   -1    0    0    0    0 -0.00000000000E+00 -0.00000000000E+00 -0.16049963710E+02  0.16049963710E+02  0.00000000000E+00 0.  1.
         13    1    1    2    0    0  0.16384412250E+02 -0.12536765018E+02  0.65930690251E+01  0.21658697216E+02  0.10566000000E+00 0.  1.
        996    1    1    2    0    0 -0.16384412250E+02  0.12536765018E+02  0.77356911443E+02  0.94391266492E+02  0.50000000000E+02 0.  0.
<mgrwt>
<rscale>  0 0.54088996E+02</rscale>
<asrwt>0</asrwt>
<pdfrwt beam="1">  1       13 0.10000000E+01 0.54088996E+02</pdfrwt>
<pdfrwt beam="2">  1       22 0.16049987E+00 0.54088996E+02</pdfrwt>
<totfact> 0.67438945E-01</totfact>
</mgrwt>
</event>
<event>
 4    1  0.2516086E+000  0.5525493E+02  0.7957747E-01  0.1418897E+00
         13   -1    0    0    0    0  0.00000000000E+00  0.00000000000E+00  0.99999944184E+02  0.10000000000E+03  0.10566000000E+00 0. -1.
         22   -1    0    0    0    0 -0.00000000000E+00 -0.00000000000E+00 -0.16332525882E+02  0.16332525882E+02  0.00000000000E+00 0.  1.
         13    1    1    2    0    0  0.13451325073E+02 -0.19291673081E+02  0.13842857235E+02  0.27289973561E+02  0.10566000000E+00 0.  1.
        996    1    1    2    0    0 -0.13451325073E+02  0.19291673081E+02  0.69824561066E+02  0.89042552325E+02  0.50000000000E+02 0.  0.
<mgrwt>
<rscale>  0 0.55254926E+02</rscale>
<asrwt>0</asrwt>
<pdfrwt beam="1">  1       13 0.10000000E+01 0.55254926E+02</pdfrwt>
<pdfrwt beam="2">  1       22 0.16332549E+00 0.55254926E+02</pdfrwt>
<totfact> 0.65587771E-01</totfact>
</mgrwt>
</event>
<event>
 4    1  0.2516086E+000  0.5115788E+02  0.7957747E-01  0.1439194E+00
         13   -1    0    0    0    0  0.00000000000E+00  0.00000000000E+00  0.99999944179E+02  0.99999999999E+02  0.10566000000E+00 0.  1.
         22   -1    0    0    0    0 -0.00000000000E+00 -0.00000000000E+00 -0.29540373167E+02  0.29540373167E+02  0.00000000000E+00 0. -1.
         13    1    1    2    0    0 -0.90848994189E+01  0.58815877245E+01 -0.21634773103E+02  0.24190970275E+02  0.10566000000E+00 0. -1.
        996    1    1    2    0    0  0.90848994189E+01 -0.58815877245E+01  0.92094344115E+02  0.10534940289E+03  0.50000000000E+02 0.  0.
<mgrwt>
<rscale>  0 0.51157878E+02</rscale>
<asrwt>0</asrwt>
<pdfrwt beam="1">  1       13 0.10000000E+01 0.51157878E+02</pdfrwt>
<pdfrwt beam="2">  1       22 0.29540393E+00 0.51157878E+02</pdfrwt>
<totfact> 0.21288132E-01</totfact>
</mgrwt>
</event>
<event>
 4    1  0.2516086E+000  0.5155841E+02  0.7957747E-01  0.1437113E+00
         13   -1    0    0    0    0  0.00000000000E+00  0.00000000000E+00  0.99999944179E+02  0.99999999999E+02  0.10566000000E+00 0.  1.
         22   -1    0    0    0    0 -0.00000000000E+00 -0.00000000000E+00 -0.16932280075E+02  0.16932280075E+02  0.00000000000E+00 0.  1.
         13    1    1    2    0    0 -0.12580169706E+02  0.95980940006E-01 -0.60613922722E+01  0.13965010651E+02  0.10566000000E+00 0. -1.
        996    1    1    2    0    0  0.12580169706E+02 -0.95980940006E-01  0.89129056376E+02  0.10296726942E+03  0.50000000000E+02 0.  0.
<mgrwt>
<rscale>  0 0.51558412E+02</rscale>
<asrwt>0</asrwt>
<pdfrwt beam="1">  1       13 0.10000000E+01 0.51558412E+02</pdfrwt>
<pdfrwt beam="2">  1       22 0.16932303E+00 0.51558412E+02</pdfrwt>
<totfact> 0.61172130E-01</totfact>
</mgrwt>
</event>
<event>
 4    1  0.2516086E+000  0.6276364E+02  0.7957747E-01  0.1386587E+00
         13   -1    0    0    0    0  0.00000000000E+00  0.00000000000E+00  0.99999944182E+02  0.10000000000E+03  0.10566000000E+00 0.  1.
         22   -1    0    0    0    0 -0.00000000000E+00 -0.00000000000E+00 -0.44313443724E+02  0.44313443724E+02  0.00000000000E+00 0. -1.
         13    1    1    2    0    0  0.36941735626E+02 -0.86361494710E+01 -0.22456211766E+02  0.44085910671E+02  0.10566000000E+00 0. -1.
        996    1    1    2    0    0 -0.36941735626E+02  0.86361494710E+01  0.78142712223E+02  0.10022753306E+03  0.50000000000E+02 0.  0.
<mgrwt>
<rscale>  0 0.62763643E+02</rscale>
<asrwt>0</asrwt>
<pdfrwt beam="1">  1       13 0.10000000E+01 0.62763643E+02</pdfrwt>
<pdfrwt beam="2">  1       22 0.44313459E+00 0.62763643E+02</pdfrwt>
<totfact> 0.10070707E-01</totfact>
</mgrwt>
</event>
<event>
 4    1  0.2516086E+000  0.5201941E+02  0.7957747E-01  0.1434744E+00
         13   -1    0    0    0    0  0.00000000000E+00  0.00000000000E+00  0.99999944178E+02  0.99999999998E+02  0.10566000000E+00 0.  1.
         22   -1    0    0    0    0 -0.00000000000E+00 -0.00000000000E+00 -0.12467525986E+02  0.12467525986E+02  0.00000000000E+00 0.  1.
         13    1    1    2    0    0 -0.11914122347E+02 -0.80045686064E+01  0.55816863124E+01  0.15400838159E+02  0.10566000000E+00 0. -1.
        996    1    1    2    0    0  0.11914122347E+02  0.80045686064E+01  0.81950731879E+02  0.97066687826E+02  0.50000000000E+02 0.  0.
<mgrwt>
<rscale>  0 0.52019414E+02</rscale>
<asrwt>0</asrwt>
<pdfrwt beam="1">  1       13 0.10000000E+01 0.52019414E+02</pdfrwt>
<pdfrwt beam="2">  1       22 0.12467550E+00 0.52019414E+02</pdfrwt>
<totfact> 0.10134633E+00</totfact>
</mgrwt>
</event>
<event>
 4    1  0.2516086E+000  0.5317362E+02  0.7957747E-01  0.1428939E+00
         13   -1    0    0    0    0  0.00000000000E+00  0.00000000000E+00  0.99999944172E+02  0.99999999992E+02  0.10566000000E+00 0. -1.
         22   -1    0    0    0    0 -0.00000000000E+00 -0.00000000000E+00 -0.22525869068E+02  0.22525869068E+02  0.00000000000E+00 0.  1.
         13    1    1    2    0    0  0.68757669744E+01  0.16737909815E+02 -0.96117154020E+01  0.20489754353E+02  0.10566000000E+00 0.  1.
        996    1    1    2    0    0 -0.68757669744E+01 -0.16737909815E+02  0.87085790506E+02  0.10203611471E+03  0.50000000000E+02 0.  0.
<mgrwt>
<rscale>  0 0.53173619E+02</rscale>
<asrwt>0</asrwt>
<pdfrwt beam="1">  1       13 0.10000000E+01 0.53173619E+02</pdfrwt>
<pdfrwt beam="2">  1       22 0.22525891E+00 0.53173619E+02</pdfrwt>
<totfact> 0.36207290E-01</totfact>
</mgrwt>
</event>
<event>
 4    1  0.2516086E+000  0.5114814E+02  0.7957747E-01  0.1439245E+00
         13   -1    0    0    0    0  0.00000000000E+00  0.00000000000E+00  0.99999944180E+02  0.10000000000E+03  0.10566000000E+00 0. -1.
         22   -1    0    0    0    0 -0.00000000000E+00 -0.00000000000E+00 -0.96913633841E+01  0.96913633841E+01  0.00000000000E+00 0. -1.
         13    1    1    2    0    0  0.85437653686E+01 -0.65678226003E+01  0.20371799122E+02  0.23046769489E+02  0.10566000000E+00 0.  1.
        996    1    1    2    0    0 -0.85437653686E+01  0.65678226003E+01  0.69936781674E+02  0.86644593896E+02  0.50000000000E+02 0.  0.
<mgrwt>
<rscale>  0 0.51148140E+02</rscale>
<asrwt>0</asrwt>
<pdfrwt beam="1">  1       13 0.10000000E+01 0.51148140E+02</pdfrwt>
<pdfrwt beam="2">  1       22 0.96913886E-01 0.51148140E+02</pdfrwt>
<totfact> 0.14719439E+00</totfact>
</mgrwt>
</event>
<event>
 4    1  0.2516086E+000  0.5179645E+02  0.7957747E-01  0.1435886E+00
         13   -1    0    0    0    0  0.00000000000E+00  0.00000000000E+00  0.99999944177E+02  0.99999999997E+02  0.10566000000E+00 0. -1.
         22   -1    0    0    0    0 -0.00000000000E+00 -0.00000000000E+00 -0.11090492144E+02  0.11090492144E+02  0.00000000000E+00 0. -1.
         13    1    1    2    0    0 -0.93760376682E+01 -0.97448524132E+01  0.28288973669E+02  0.31355213701E+02  0.10566000000E+00 0.  1.
        996    1    1    2    0    0  0.93760376682E+01  0.97448524132E+01  0.60620478363E+02  0.79735278440E+02  0.50000000000E+02 0.  0.
<mgrwt>
<rscale>  0 0.51796450E+02</rscale>
<asrwt>0</asrwt>
<pdfrwt beam="1">  1       13 0.10000000E+01 0.51796450E+02</pdfrwt>
<pdfrwt beam="2">  1       22 0.11090517E+00 0.51796450E+02</pdfrwt>
<totfact> 0.12102854E+00</totfact>
</mgrwt>
</event>
<event>
 4    1  0.2516086E+000  0.5134761E+02  0.7957747E-01  0.1438206E+00
         13   -1    0    0    0    0  0.00000000000E+00  0.00000000000E+00  0.99999944185E+02  0.10000000001E+03  0.10566000000E+00 0.  1.
         22   -1    0    0    0    0 -0.00000000000E+00 -0.00000000000E+00 -0.11664604333E+02  0.11664604333E+02  0.00000000000E+00 0. -1.
         13    1    1    2    0    0  0.87687407428E+01  0.77256908234E+01  0.29902226260E+01  0.12063569468E+02  0.10566000000E+00 0. -1.
        996    1    1    2    0    0 -0.87687407428E+01 -0.77256908234E+01  0.85345117226E+02  0.99601034871E+02  0.50000000000E+02 0.  0.
<mgrwt>
<rscale>  0 0.51347611E+02</rscale>
<asrwt>0</asrwt>
<pdfrwt beam="1">  1       13 0.10000000E+01 0.51347611E+02</pdfrwt>
<pdfrwt beam="2">  1       22 0.11664629E+00 0.51347611E+02</pdfrwt>
<totfact> 0.11207169E+00</totfact>
</mgrwt>
</event>
<event>
 4    1  0.2516086E+000  0.5629538E+02  0.7957747E-01  0.1414070E+00
         13   -1    0    0    0    0  0.00000000000E+00  0.00000000000E+00  0.99999944177E+02  0.99999999998E+02  0.10566000000E+00 0. -1.
         22   -1    0    0    0    0 -0.00000000000E+00 -0.00000000000E+00 -0.25880243579E+02  0.25880243579E+02  0.00000000000E+00 0. -1.
         13    1    1    2    0    0 -0.21353368816E+02 -0.14601480309E+02 -0.73135938172E+01  0.26882511147E+02  0.10566000000E+00 0.  1.
        996    1    1    2    0    0  0.21353368816E+02  0.14601480309E+02  0.81433294415E+02  0.98997732430E+02  0.50000000000E+02 0.  0.
<mgrwt>
<rscale>  0 0.56295378E+02</rscale>
<asrwt>0</asrwt>
<pdfrwt beam="1">  1       13 0.10000000E+01 0.56295378E+02</pdfrwt>
<pdfrwt beam="2">  1       22 0.25880264E+00 0.56295378E+02</pdfrwt>
<totfact> 0.27712625E-01</totfact>
</mgrwt>
</event>
<event>
 4    1  0.2516086E+000  0.8088703E+02  0.7957747E-01  0.1326553E+00
         13   -1    0    0    0    0  0.00000000000E+00  0.00000000000E+00  0.99999944196E+02  0.10000000002E+03  0.10566000000E+00 0. -1.
         22   -1    0    0    0    0 -0.00000000000E+00 -0.00000000000E+00 -0.81360568777E+02  0.81360568777E+02  0.00000000000E+00 0.  1.
         13    1    1    2    0    0  0.54129432670E+02 -0.33357412189E+02 -0.45453769766E+02  0.78158612955E+02  0.10566000000E+00 0.  1.
        996    1    1    2    0    0 -0.54129432670E+02  0.33357412189E+02  0.64093145185E+02  0.10320195584E+03  0.50000000000E+02 0.  0.
<mgrwt>
<rscale>  0 0.80887035E+02</rscale>
<asrwt>0</asrwt>
<pdfrwt beam="1">  1       13 0.10000000E+01 0.80887035E+02</pdfrwt>
<pdfrwt beam="2">  1       22 0.81360574E+00 0.80887035E+02</pdfrwt>
<totfact> 0.27182172E-02</totfact>
</mgrwt>
</event>
<event>
 4    1  0.2516086E+000  0.5717759E+02  0.7957747E-01  0.1410073E+00
         13   -1    0    0    0    0  0.00000000000E+00  0.00000000000E+00  0.99999944176E+02  0.99999999996E+02  0.10566000000E+00 0.  1.
         22   -1    0    0    0    0 -0.00000000000E+00 -0.00000000000E+00 -0.22067363837E+02  0.22067363837E+02  0.00000000000E+00 0. -1.
         13    1    1    2    0    0  0.61919330514E+00  0.27728916842E+02  0.31259928915E+01  0.27911632435E+02  0.10566000000E+00 0. -1.
        996    1    1    2    0    0 -0.61919330514E+00 -0.27728916842E+02  0.74806587448E+02  0.94155731398E+02  0.50000000000E+02 0.  0.
<mgrwt>
<rscale>  0 0.57177585E+02</rscale>
<asrwt>0</asrwt>
<pdfrwt beam="1">  1       13 0.10000000E+01 0.57177585E+02</pdfrwt>
<pdfrwt beam="2">  1       22 0.22067386E+00 0.57177585E+02</pdfrwt>
<totfact> 0.37915468E-01</totfact>
</mgrwt>
</event>
<event>
 4    1  0.2516086E+000  0.5596260E+02  0.7957747E-01  0.1415601E+00
         13   -1    0    0    0    0  0.00000000000E+00  0.00000000000E+00  0.99999944182E+02  0.10000000000E+03  0.10566000000E+00 0.  1.
         22   -1    0    0    0    0 -0.00000000000E+00 -0.00000000000E+00 -0.63202501014E+02  0.63202501014E+02  0.00000000000E+00 0. -1.
         13    1    1    2    0    0 -0.10762591102E+02  0.22715170313E+02 -0.52277579097E+02  0.58006626948E+02  0.10566000000E+00 0. -1.
        996    1    1    2    0    0  0.10762591102E+02 -0.22715170313E+02  0.89075022264E+02  0.10519587407E+03  0.50000000000E+02 0.  0.
<mgrwt>
<rscale>  0 0.55962598E+02</rscale>
<asrwt>0</asrwt>
<pdfrwt beam="1">  1       13 0.10000000E+01 0.55962598E+02</pdfrwt>
<pdfrwt beam="2">  1       22 0.63202511E+00 0.55962598E+02</pdfrwt>
<totfact> 0.79820326E-02</totfact>
</mgrwt>
</event>
<event>
 4    1  0.2516086E+000  0.5117967E+02  0.7957747E-01  0.1439081E+00
         13   -1    0    0    0    0  0.00000000000E+00  0.00000000000E+00  0.99999944184E+02  0.10000000000E+03  0.10566000000E+00 0.  1.
         22   -1    0    0    0    0 -0.00000000000E+00 -0.00000000000E+00 -0.20561236536E+02  0.20561236536E+02  0.00000000000E+00 0. -1.
         13    1    1    2    0    0  0.94104261221E+01 -0.55500299171E+01 -0.11717095344E+02  0.16020625432E+02  0.10566000000E+00 0. -1.
        996    1    1    2    0    0 -0.94104261221E+01  0.55500299171E+01  0.91155802992E+02  0.10454061111E+03  0.50000000000E+02 0.  0.
<mgrwt>
<rscale>  0 0.51179673E+02</rscale>
<asrwt>0</asrwt>
<pdfrwt beam="1">  1       13 0.10000000E+01 0.51179673E+02</pdfrwt>
<pdfrwt beam="2">  1       22 0.20561259E+00 0.51179673E+02</pdfrwt>
<totfact> 0.42954531E-01</totfact>
</mgrwt>
</event>
<event>
 4    1  0.2516086E+000  0.5209469E+02  0.7957747E-01  0.1434360E+00
         13   -1    0    0    0    0  0.00000000000E+00  0.00000000000E+00  0.99999944183E+02  0.10000000000E+03  0.10566000000E+00 0. -1.
         22   -1    0    0    0    0 -0.00000000000E+00 -0.00000000000E+00 -0.11668521886E+02  0.11668521886E+02  0.00000000000E+00 0. -1.
         13    1    1    2    0    0 -0.12143626357E+02 -0.81479477249E+01  0.10465805552E+02  0.17983352388E+02  0.10566000000E+00 0.  1.
        996    1    1    2    0    0  0.12143626357E+02  0.81479477249E+01  0.77865616745E+02  0.93685169500E+02  0.50000000000E+02 0.  0.
<mgrwt>
<rscale>  0 0.52094690E+02</rscale>
<asrwt>0</asrwt>
<pdfrwt beam="1">  1       13 0.10000000E+01 0.52094690E+02</pdfrwt>
<pdfrwt beam="2">  1       22 0.11668547E+00 0.52094690E+02</pdfrwt>
<totfact> 0.11220498E+00</totfact>
</mgrwt>
</event>
<event>
 4    1  0.2516086E+000  0.7157206E+02  0.7957747E-01  0.1354827E+00
         13   -1    0    0    0    0  0.00000000000E+00  0.00000000000E+00  0.99999944171E+02  0.99999999992E+02  0.10566000000E+00 0.  1.
         22   -1    0    0    0    0 -0.00000000000E+00 -0.00000000000E+00 -0.56184907678E+02  0.56184907678E+02  0.00000000000E+00 0. -1.
         13    1    1    2    0    0  0.50396814437E+02  0.90950846067E+01 -0.24920106248E+02  0.56952456742E+02  0.10566000000E+00 0. -1.
        996    1    1    2    0    0 -0.50396814437E+02 -0.90950846067E+01  0.68735142742E+02  0.99232450928E+02  0.50000000000E+02 0.  0.
<mgrwt>
<rscale>  0 0.71572058E+02</rscale>
<asrwt>0</asrwt>
<pdfrwt beam="1">  1       13 0.10000000E+01 0.71572058E+02</pdfrwt>
<pdfrwt beam="2">  1       22 0.56184920E+00 0.71572058E+02</pdfrwt>
<totfact> 0.58552933E-02</totfact>
</mgrwt>
</event>
<event>
 4    1  0.2516086E+000  0.5195764E+02  0.7957747E-01  0.1435060E+00
         13   -1    0    0    0    0  0.00000000000E+00  0.00000000000E+00  0.99999944186E+02  0.10000000001E+03  0.10566000000E+00 0. -1.
         22   -1    0    0    0    0 -0.00000000000E+00 -0.00000000000E+00 -0.40424958509E+02  0.40424958509E+02  0.00000000000E+00 0.  1.
         13    1    1    2    0    0 -0.13692224918E+02 -0.34812378753E+01 -0.32087854400E+02  0.35060484942E+02  0.10566000000E+00 0.  1.
        996    1    1    2    0    0  0.13692224918E+02  0.34812378753E+01  0.91662840076E+02  0.10536447357E+03  0.50000000000E+02 0.  0.
<mgrwt>
<rscale>  0 0.51957637E+02</rscale>
<asrwt>0</asrwt>
<pdfrwt beam="1">  1       13 0.10000000E+01 0.51957637E+02</pdfrwt>
<pdfrwt beam="2">  1       22 0.40424975E+00 0.51957637E+02</pdfrwt>
<totfact> 0.12119920E-01</totfact>
</mgrwt>
</event>
<event>
 4    1  0.2516086E+000  0.5127728E+02  0.7957747E-01  0.1438572E+00
         13   -1    0    0    0    0  0.00000000000E+00  0.00000000000E+00  0.99999944170E+02  0.99999999990E+02  0.10566000000E+00 0. -1.
         22   -1    0    0    0    0 -0.00000000000E+00 -0.00000000000E+00 -0.10499110996E+02  0.10499110996E+02  0.00000000000E+00 0.  1.
         13    1    1    2    0    0 -0.97620666352E+01 -0.58361941959E+01  0.69821723540E+01  0.13346198054E+02  0.10566000000E+00 0.  1.
        996    1    1    2    0    0  0.97620666352E+01  0.58361941959E+01  0.82518660820E+02  0.97152912932E+02  0.50000000000E+02 0.  0.
<mgrwt>
<rscale>  0 0.51277277E+02</rscale>
<asrwt>0</asrwt>
<pdfrwt beam="1">  1       13 0.10000000E+01 0.51277277E+02</pdfrwt>
<pdfrwt beam="2">  1       22 0.10499136E+00 0.51277277E+02</pdfrwt>
<totfact> 0.13108777E+00</totfact>
</mgrwt>
</event>
<event>
 4    1  0.2516086E+000  0.5273076E+02  0.7957747E-01  0.1431145E+00
         13   -1    0    0    0    0  0.00000000000E+00  0.00000000000E+00  0.99999944179E+02  0.99999999999E+02  0.10566000000E+00 0. -1.
         22   -1    0    0    0    0 -0.00000000000E+00 -0.00000000000E+00 -0.12108337770E+02  0.12108337770E+02  0.00000000000E+00 0. -1.
         13    1    1    2    0    0 -0.14157964029E+02 -0.89490513408E+01  0.24006455999E+02  0.29272078147E+02  0.10566000000E+00 0.  1.
        996    1    1    2    0    0  0.14157964029E+02  0.89490513408E+01  0.63885150410E+02  0.82836259622E+02  0.50000000000E+02 0.  0.
<mgrwt>
<rscale>  0 0.52730764E+02</rscale>
<asrwt>0</asrwt>
<pdfrwt beam="1">  1       13 0.10000000E+01 0.52730764E+02</pdfrwt>
<pdfrwt beam="2">  1       22 0.12108362E+00 0.52730764E+02</pdfrwt>
<totfact> 0.10619334E+00</totfact>
</mgrwt>
</event>
<event>
 4    1  0.2516086E+000  0.5243421E+02  0.7957747E-01  0.1432637E+00
         13   -1    0    0    0    0  0.00000000000E+00  0.00000000000E+00  0.99999944176E+02  0.99999999996E+02  0.10566000000E+00 0. -1.
         22   -1    0    0    0    0 -0.00000000000E+00 -0.00000000000E+00 -0.15259440099E+02  0.15259440099E+02  0.00000000000E+00 0. -1.
         13    1    1    2    0    0 -0.44024362481E+01 -0.15164605720E+02  0.21645466160E+00  0.15792552935E+02  0.10566000000E+00 0.  1.
        996    1    1    2    0    0  0.44024362481E+01  0.15164605720E+02  0.84524049415E+02  0.99466887159E+02  0.50000000000E+02 0.  0.
<mgrwt>
<rscale>  0 0.52434213E+02</rscale>
<asrwt>0</asrwt>
<pdfrwt beam="1">  1       13 0.10000000E+01 0.52434213E+02</pdfrwt>
<pdfrwt beam="2">  1       22 0.15259464E+00 0.52434213E+02</pdfrwt>
<totfact> 0.73230073E-01</totfact>
</mgrwt>
</event>
<event>
 4    1  0.2516086E+000  0.5110533E+02  0.7957747E-01  0.1439469E+00
         13   -1    0    0    0    0  0.00000000000E+00  0.00000000000E+00  0.99999944182E+02  0.10000000000E+03  0.10566000000E+00 0. -1.
         22   -1    0    0    0    0 -0.00000000000E+00 -0.00000000000E+00 -0.12928858117E+02  0.12928858117E+02  0.00000000000E+00 0.  1.
         13    1    1    2    0    0 -0.10188893343E+02 -0.28180409442E+01 -0.14935882567E+01  0.10676931780E+02  0.10566000000E+00 0.  1.
        996    1    1    2    0    0  0.10188893343E+02  0.28180409442E+01  0.88564674321E+02  0.10225192634E+03  0.50000000000E+02 0.  0.
<mgrwt>
<rscale>  0 0.51105331E+02</rscale>
<asrwt>0</asrwt>
<pdfrwt beam="1">  1       13 0.10000000E+01 0.51105331E+02</pdfrwt>
<pdfrwt beam="2">  1       22 0.12928882E+00 0.51105331E+02</pdfrwt>
<totfact> 0.95562465E-01</totfact>
</mgrwt>
</event>
<event>
 4    1  0.2516086E+000  0.5144676E+02  0.7957747E-01  0.1437691E+00
         13   -1    0    0    0    0  0.00000000000E+00  0.00000000000E+00  0.99999944174E+02  0.99999999995E+02  0.10566000000E+00 0.  1.
         22   -1    0    0    0    0 -0.00000000000E+00 -0.00000000000E+00 -0.10754457665E+02  0.10754457665E+02  0.00000000000E+00 0.  1.
         13    1    1    2    0    0  0.73745546773E+01  0.96117114758E+01  0.29619631503E+02  0.32001606032E+02  0.10566000000E+00 0. -1.
        996    1    1    2    0    0 -0.73745546773E+01 -0.96117114758E+01  0.59625855007E+02  0.78752851627E+02  0.50000000000E+02 0.  0.
<mgrwt>
<rscale>  0 0.51446759E+02</rscale>
<asrwt>0</asrwt>
<pdfrwt beam="1">  1       13 0.10000000E+01 0.51446759E+02</pdfrwt>
<pdfrwt beam="2">  1       22 0.10754483E+00 0.51446759E+02</pdfrwt>
<totfact> 0.12658133E+00</totfact>
</mgrwt>
</event>
<event>
 4    1  0.2516086E+000  0.5286804E+02  0.7957747E-01  0.1430459E+00
         13   -1    0    0    0    0  0.00000000000E+00  0.00000000000E+00  0.99999944178E+02  0.99999999998E+02  0.10566000000E+00 0.  1.
         22   -1    0    0    0    0 -0.00000000000E+00 -0.00000000000E+00 -0.13436872808E+02  0.13436872808E+02  0.00000000000E+00 0.  1.
         13    1    1    2    0    0  0.86568483095E+01 -0.14835385850E+02  0.85228677743E+01  0.19174987226E+02  0.10566000000E+00 0. -1.
        996    1    1    2    0    0 -0.86568483095E+01  0.14835385850E+02  0.78040203596E+02  0.94261885581E+02  0.50000000000E+02 0.  0.
<mgrwt>
<rscale>  0 0.52868040E+02</rscale>
<asrwt>0</asrwt>
<pdfrwt beam="1">  1       13 0.10000000E+01 0.52868040E+02</pdfrwt>
<pdfrwt beam="2">  1       22 0.13436897E+00 0.52868040E+02</pdfrwt>
<totfact> 0.90246958E-01</totfact>
</mgrwt>
</event>
<event>
 4    1  0.2516086E+000  0.5117621E+02  0.7957747E-01  0.1439099E+00
         13   -1    0    0    0    0  0.00000000000E+00  0.00000000000E+00  0.99999944177E+02  0.99999999997E+02  0.10566000000E+00 0. -1.
         22   -1    0    0    0    0 -0.00000000000E+00 -0.00000000000E+00 -0.10205025939E+02  0.10205025939E+02  0.00000000000E+00 0. -1.
         13    1    1    2    0    0 -0.83663640191E+01 -0.70006195050E+01  0.73032034271E+01  0.13128315379E+02  0.10566000000E+00 0.  1.
        996    1    1    2    0    0  0.83663640191E+01  0.70006195050E+01  0.82491714810E+02  0.97076710558E+02  0.50000000000E+02 0.  0.
<mgrwt>
<rscale>  0 0.51176212E+02</rscale>
<asrwt>0</asrwt>
<pdfrwt beam="1">  1       13 0.10000000E+01 0.51176212E+02</pdfrwt>
<pdfrwt beam="2">  1       22 0.10205051E+00 0.51176212E+02</pdfrwt>
<totfact> 0.13661255E+00</totfact>
</mgrwt>
</event>
<event>
 4    1  0.2516086E+000  0.5250691E+02  0.7957747E-01  0.1432271E+00
         13   -1    0    0    0    0  0.00000000000E+00  0.00000000000E+00  0.99999944179E+02  0.99999999999E+02  0.10566000000E+00 0.  1.
         22   -1    0    0    0    0 -0.00000000000E+00 -0.00000000000E+00 -0.31545855461E+02  0.31545855461E+02  0.00000000000E+00 0. -1.
         13    1    1    2    0    0 -0.15684244358E+02 -0.33135816037E+01 -0.21841796306E+02  0.27093367713E+02  0.10566000000E+00 0. -1.
        996    1    1    2    0    0  0.15684244358E+02  0.33135816037E+01  0.90295885024E+02  0.10445248775E+03  0.50000000000E+02 0.  0.
<mgrwt>
<rscale>  0 0.52506908E+02</rscale>
<asrwt>0</asrwt>
<pdfrwt beam="1">  1       13 0.10000000E+01 0.52506908E+02</pdfrwt>
<pdfrwt beam="2">  1       22 0.31545875E+00 0.52506908E+02</pdfrwt>
<totfact> 0.18889446E-01</totfact>
</mgrwt>
</event>
<event>
 4    1  0.2516086E+000  0.5169876E+02  0.7957747E-01  0.1436389E+00
         13   -1    0    0    0    0  0.00000000000E+00  0.00000000000E+00  0.99999944176E+02  0.99999999996E+02  0.10566000000E+00 0.  1.
         22   -1    0    0    0    0 -0.00000000000E+00 -0.00000000000E+00 -0.10590345139E+02  0.10590345139E+02  0.00000000000E+00 0. -1.
         13    1    1    2    0    0 -0.13079382726E+02  0.13004568517E+01  0.14478776097E+02  0.19555243844E+02  0.10566000000E+00 0. -1.
        996    1    1    2    0    0  0.13079382726E+02 -0.13004568517E+01  0.74930822941E+02  0.91035101291E+02  0.50000000000E+02 0.  0.
<mgrwt>
<rscale>  0 0.51698757E+02</rscale>
<asrwt>0</asrwt>
<pdfrwt beam="1">  1       13 0.10000000E+01 0.51698757E+02</pdfrwt>
<pdfrwt beam="2">  1       22 0.10590370E+00 0.51698757E+02</pdfrwt>
<totfact> 0.12956120E+00</totfact>
</mgrwt>
</event>
<event>
 4    1  0.2516086E+000  0.5180420E+02  0.7957747E-01  0.1435846E+00
         13   -1    0    0    0    0  0.00000000000E+00  0.00000000000E+00  0.99999944181E+02  0.10000000000E+03  0.10566000000E+00 0. -1.
         22   -1    0    0    0    0 -0.00000000000E+00 -0.00000000000E+00 -0.19000252711E+02  0.19000252711E+02  0.00000000000E+00 0.  1.
         13    1    1    2    0    0  0.35810776140E+01  0.13070984666E+02 -0.82057696023E+01  0.15843628871E+02  0.10566000000E+00 0.  1.
        996    1    1    2    0    0 -0.35810776140E+01 -0.13070984666E+02  0.89205461073E+02  0.10315662384E+03  0.50000000000E+02 0.  0.
<mgrwt>
<rscale>  0 0.51804196E+02</rscale>
<asrwt>0</asrwt>
<pdfrwt beam="1">  1       13 0.10000000E+01 0.51804196E+02</pdfrwt>
<pdfrwt beam="2">  1       22 0.19000275E+00 0.51804196E+02</pdfrwt>
<totfact> 0.49794130E-01</totfact>
</mgrwt>
</event>
<event>
 4    1  0.2516086E+000  0.5992913E+02  0.7957747E-01  0.1398129E+00
         13   -1    0    0    0    0  0.00000000000E+00  0.00000000000E+00  0.99999944174E+02  0.99999999994E+02  0.10566000000E+00 0. -1.
         22   -1    0    0    0    0 -0.00000000000E+00 -0.00000000000E+00 -0.29865388557E+02  0.29865388557E+02  0.00000000000E+00 0.  1.
         13    1    1    2    0    0  0.33035219378E+02 -0.41873830698E+00 -0.53662636741E+01  0.33471017478E+02  0.10566000000E+00 0.  1.
        996    1    1    2    0    0 -0.33035219378E+02  0.41873830698E+00  0.75500819291E+02  0.96394371074E+02  0.50000000000E+02 0.  0.
<mgrwt>
<rscale>  0 0.59929134E+02</rscale>
<asrwt>0</asrwt>
<pdfrwt beam="1">  1       13 0.10000000E+01 0.59929134E+02</pdfrwt>
<pdfrwt beam="2">  1       22 0.29865408E+00 0.59929134E+02</pdfrwt>
<totfact> 0.21082558E-01</totfact>
</mgrwt>
</event>
<event>
 4    1  0.2516086E+000  0.5240417E+02  0.7957747E-01  0.1432789E+00
         13   -1    0    0    0    0  0.00000000000E+00  0.00000000000E+00  0.99999944177E+02  0.99999999998E+02  0.10566000000E+00 0. -1.
         22   -1    0    0    0    0 -0.00000000000E+00 -0.00000000000E+00 -0.11598718910E+02  0.11598718910E+02  0.00000000000E+00 0. -1.
         13    1    1    2    0    0  0.14969236251E+02  0.47031308620E+01  0.21482799433E+02  0.26602994368E+02  0.10566000000E+00 0.  1.
        996    1    1    2    0    0 -0.14969236251E+02 -0.47031308620E+01  0.66918425835E+02  0.84995724540E+02  0.50000000000E+02 0.  0.
<mgrwt>
<rscale>  0 0.52404174E+02</rscale>
<asrwt>0</asrwt>
<pdfrwt beam="1">  1       13 0.10000000E+01 0.52404174E+02</pdfrwt>
<pdfrwt beam="2">  1       22 0.11598744E+00 0.52404174E+02</pdfrwt>
<totfact> 0.11330802E+00</totfact>
</mgrwt>
</event>
<event>
 4    1  0.2516086E+000  0.5166025E+02  0.7957747E-01  0.1436587E+00
         13   -1    0    0    0    0  0.00000000000E+00  0.00000000000E+00  0.99999944180E+02  0.10000000000E+03  0.10566000000E+00 0.  1.
         22   -1    0    0    0    0 -0.00000000000E+00 -0.00000000000E+00 -0.15152138592E+02  0.15152138592E+02  0.00000000000E+00 0. -1.
         13    1    1    2    0    0 -0.12738520440E+02 -0.25516927951E+01 -0.29136831659E+01  0.13314719402E+02  0.10566000000E+00 0. -1.
        996    1    1    2    0    0  0.12738520440E+02  0.25516927951E+01  0.87761488753E+02  0.10183741919E+03  0.50000000000E+02 0.  0.
<mgrwt>
<rscale>  0 0.51660246E+02</rscale>
<asrwt>0</asrwt>
<pdfrwt beam="1">  1       13 0.10000000E+01 0.51660246E+02</pdfrwt>
<pdfrwt beam="2">  1       22 0.15152162E+00 0.51660246E+02</pdfrwt>
<totfact> 0.73984003E-01</totfact>
</mgrwt>
</event>
<event>
 4    1  0.2516086E+000  0.5109002E+02  0.7957747E-01  0.1439549E+00
         13   -1    0    0    0    0  0.00000000000E+00  0.00000000000E+00  0.99999944174E+02  0.99999999995E+02  0.10566000000E+00 0.  1.
         22   -1    0    0    0    0 -0.00000000000E+00 -0.00000000000E+00 -0.10356611918E+02  0.10356611918E+02  0.00000000000E+00 0.  1.
         13    1    1    2    0    0  0.98958570823E+01  0.35017649970E+01  0.53332444470E+01  0.11774761393E+02  0.10566000000E+00 0. -1.
        996    1    1    2    0    0 -0.98958570823E+01 -0.35017649970E+01  0.84310087810E+02  0.98581850520E+02  0.50000000000E+02 0.  0.
<mgrwt>
<rscale>  0 0.51090022E+02</rscale>
<asrwt>0</asrwt>
<pdfrwt beam="1">  1       13 0.10000000E+01 0.51090022E+02</pdfrwt>
<pdfrwt beam="2">  1       22 0.10356637E+00 0.51090022E+02</pdfrwt>
<totfact> 0.13367770E+00</totfact>
</mgrwt>
</event>
<event>
 4    1  0.2516086E+000  0.5356277E+02  0.7957747E-01  0.1427020E+00
         13   -1    0    0    0    0  0.00000000000E+00  0.00000000000E+00  0.99999944179E+02  0.99999999999E+02  0.10566000000E+00 0. -1.
         22   -1    0    0    0    0 -0.00000000000E+00 -0.00000000000E+00 -0.13770882988E+02  0.13770882988E+02  0.00000000000E+00 0. -1.
         13    1    1    2    0    0  0.10720496110E+02  0.15938683169E+02  0.13639448690E+02  0.23558785678E+02  0.10566000000E+00 0.  1.
        996    1    1    2    0    0 -0.10720496110E+02 -0.15938683169E+02  0.72589612500E+02  0.90212097310E+02  0.50000000000E+02 0.  0.
<mgrwt>
<rscale>  0 0.53562773E+02</rscale>
<asrwt>0</asrwt>
<pdfrwt beam="1">  1       13 0.10000000E+01 0.53562773E+02</pdfrwt>
<pdfrwt beam="2">  1       22 0.13770907E+00 0.53562773E+02</pdfrwt>
<totfact> 0.86888082E-01</totfact>
</mgrwt>
</event>
<event>
 4    1  0.2516086E+000  0.5461819E+02  0.7957747E-01  0.1421913E+00
         13   -1    0    0    0    0  0.00000000000E+00  0.00000000000E+00  0.99999944183E+02  0.10000000000E+03  0.10566000000E+00 0.  1.
         22   -1    0    0    0    0 -0.00000000000E+00 -0.00000000000E+00 -0.22085341434E+02  0.22085341434E+02  0.00000000000E+00 0.  1.
         13    1    1    2    0    0  0.16412918785E+02 -0.14620633800E+02 -0.52406310668E+01  0.22596951427E+02  0.10566000000E+00 0. -1.
        996    1    1    2    0    0 -0.16412918785E+02  0.14620633800E+02  0.83155233816E+02  0.99488390010E+02  0.50000000000E+02 0.  0.
<mgrwt>
<rscale>  0 0.54618191E+02</rscale>
<asrwt>0</asrwt>
<pdfrwt beam="1">  1       13 0.10000000E+01 0.54618191E+02</pdfrwt>
<pdfrwt beam="2">  1       22 0.22085363E+00 0.54618191E+02</pdfrwt>
<totfact> 0.37703710E-01</totfact>
</mgrwt>
</event>
<event>
 4    1  0.2516086E+000  0.5125383E+02  0.7957747E-01  0.1438694E+00
         13   -1    0    0    0    0  0.00000000000E+00  0.00000000000E+00  0.99999944181E+02  0.10000000000E+03  0.10566000000E+00 0. -1.
         22   -1    0    0    0    0 -0.00000000000E+00 -0.00000000000E+00 -0.14935943076E+02  0.14935943076E+02  0.00000000000E+00 0.  1.
         13    1    1    2    0    0  0.10967941401E+02  0.25805616860E+01 -0.41824089756E+01  0.12019099220E+02  0.10566000000E+00 0.  1.
        996    1    1    2    0    0 -0.10967941401E+02 -0.25805616860E+01  0.89246410081E+02  0.10291684386E+03  0.50000000000E+02 0.  0.
<mgrwt>
<rscale>  0 0.51253829E+02</rscale>
<asrwt>0</asrwt>
<pdfrwt beam="1">  1       13 0.10000000E+01 0.51253829E+02</pdfrwt>
<pdfrwt beam="2">  1       22 0.14935967E+00 0.51253829E+02</pdfrwt>
<totfact> 0.75713807E-01</totfact>
</mgrwt>
</event>
<event>
 4    1  0.2516086E+000  0.5114315E+02  0.7957747E-01  0.1439271E+00
         13   -1    0    0    0    0  0.00000000000E+00  0.00000000000E+00  0.99999944181E+02  0.10000000000E+03  0.10566000000E+00 0.  1.
         22   -1    0    0    0    0 -0.00000000000E+00 -0.00000000000E+00 -0.18801637895E+02  0.18801637895E+02  0.00000000000E+00 0. -1.
         13    1    1    2    0    0 -0.80936108936E+01 -0.70791936735E+01 -0.97140042199E+01  0.14491189129E+02  0.10566000000E+00 0. -1.
        996    1    1    2    0    0  0.80936108936E+01  0.70791936735E+01  0.90912310506E+02  0.10431044877E+03  0.50000000000E+02 0.  0.
<mgrwt>
<rscale>  0 0.51143147E+02</rscale>
<asrwt>0</asrwt>
<pdfrwt beam="1">  1       13 0.10000000E+01 0.51143147E+02</pdfrwt>
<pdfrwt beam="2">  1       22 0.18801661E+00 0.51143147E+02</pdfrwt>
<totfact> 0.50696650E-01</totfact>
</mgrwt>
</event>
<event>
 4    1  0.2516086E+000  0.6679425E+02  0.7957747E-01  0.1371347E+00
         13   -1    0    0    0    0  0.00000000000E+00  0.00000000000E+00  0.99999944186E+02  0.10000000001E+03  0.10566000000E+00 0. -1.
         22   -1    0    0    0    0 -0.00000000000E+00 -0.00000000000E+00 -0.31868502392E+02  0.31868502392E+02  0.00000000000E+00 0.  1.
         13    1    1    2    0    0  0.41223591409E+02 -0.16189107298E+02  0.15825653195E+02  0.47031203969E+02  0.10566000000E+00 0.  1.
        996    1    1    2    0    0 -0.41223591409E+02  0.16189107298E+02  0.52305788599E+02  0.84837298429E+02  0.50000000000E+02 0.  0.
<mgrwt>
<rscale>  0 0.66794249E+02</rscale>
<asrwt>0</asrwt>
<pdfrwt beam="1">  1       13 0.10000000E+01 0.66794249E+02</pdfrwt>
<pdfrwt beam="2">  1       22 0.31868521E+00 0.66794249E+02</pdfrwt>
<totfact> 0.18827870E-01</totfact>
</mgrwt>
</event>
<event>
 4    1  0.2516086E+000  0.5113878E+02  0.7957747E-01  0.1439294E+00
         13   -1    0    0    0    0  0.00000000000E+00  0.00000000000E+00  0.99999944181E+02  0.10000000000E+03  0.10566000000E+00 0. -1.
         22   -1    0    0    0    0 -0.00000000000E+00 -0.00000000000E+00 -0.99053819096E+01  0.99053819096E+01  0.00000000000E+00 0. -1.
         13    1    1    2    0    0 -0.82298699615E+01  0.68879703904E+01  0.88719079998E+01  0.13924683525E+02  0.10566000000E+00 0.  1.
        996    1    1    2    0    0  0.82298699615E+01 -0.68879703904E+01  0.81222654271E+02  0.95980698385E+02  0.50000000000E+02 0.  0.
<mgrwt>
<rscale>  0 0.51138781E+02</rscale>
<asrwt>0</asrwt>
<pdfrwt beam="1">  1       13 0.10000000E+01 0.51138781E+02</pdfrwt>
<pdfrwt beam="2">  1       22 0.99054071E-01 0.51138781E+02</pdfrwt>
<totfact> 0.14263266E+00</totfact>
</mgrwt>
</event>
<event>
 4    1  0.2516086E+000  0.5132333E+02  0.7957747E-01  0.1438332E+00
         13   -1    0    0    0    0  0.00000000000E+00  0.00000000000E+00  0.99999944181E+02  0.10000000000E+03  0.10566000000E+00 0.  1.
         22   -1    0    0    0    0 -0.00000000000E+00 -0.00000000000E+00 -0.15840025786E+02  0.15840025786E+02  0.00000000000E+00 0. -1.
         13    1    1    2    0    0  0.11056513593E+02  0.34405360757E+01 -0.52752310964E+01  0.12724897189E+02  0.10566000000E+00 0. -1.
        996    1    1    2    0    0 -0.11056513593E+02 -0.34405360757E+01  0.89435149491E+02  0.10311512860E+03  0.50000000000E+02 0.  0.
<mgrwt>
<rscale>  0 0.51323326E+02</rscale>
<asrwt>0</asrwt>
<pdfrwt beam="1">  1       13 0.10000000E+01 0.51323326E+02</pdfrwt>
<pdfrwt beam="2">  1       22 0.15840049E+00 0.51323326E+02</pdfrwt>
<totfact> 0.68598962E-01</totfact>
</mgrwt>
</event>
<event>
 4    1  0.2516086E+000  0.5278389E+02  0.7957747E-01  0.1430879E+00
         13   -1    0    0    0    0  0.00000000000E+00  0.00000000000E+00  0.99999944180E+02  0.10000000000E+03  0.10566000000E+00 0.  1.
         22   -1    0    0    0    0 -0.00000000000E+00 -0.00000000000E+00 -0.32665292411E+02  0.32665292411E+02  0.00000000000E+00 0. -1.
         13    1    1    2    0    0  0.13521876120E+02 -0.10163561881E+02 -0.22693401778E+02  0.28304430257E+02  0.10566000000E+00 0. -1.
        996    1    1    2    0    0 -0.13521876120E+02  0.10163561881E+02  0.90028053547E+02  0.10436086215E+03  0.50000000000E+02 0.  0.
<mgrwt>
<rscale>  0 0.52783891E+02</rscale>
<asrwt>0</asrwt>
<pdfrwt beam="1">  1       13 0.10000000E+01 0.52783891E+02</pdfrwt>
<pdfrwt beam="2">  1       22 0.32665311E+00 0.52783891E+02</pdfrwt>
<totfact> 0.17751820E-01</totfact>
</mgrwt>
</event>
<event>
 4    1  0.2516086E+000  0.6572876E+02  0.7957747E-01  0.1375251E+00
         13   -1    0    0    0    0  0.00000000000E+00  0.00000000000E+00  0.99999944183E+02  0.10000000000E+03  0.10566000000E+00 0. -1.
         22   -1    0    0    0    0 -0.00000000000E+00 -0.00000000000E+00 -0.31505896124E+02  0.31505896124E+02  0.00000000000E+00 0.  1.
         13    1    1    2    0    0 -0.24808909567E+02  0.34710045967E+02  0.10709502983E+02  0.43988338262E+02  0.10566000000E+00 0.  1.
        996    1    1    2    0    0  0.24808909567E+02 -0.34710045967E+02  0.57784545077E+02  0.87517557865E+02  0.50000000000E+02 0.  0.
<mgrwt>
<rscale>  0 0.65728755E+02</rscale>
<asrwt>0</asrwt>
<pdfrwt beam="1">  1       13 0.10000000E+01 0.65728755E+02</pdfrwt>
<pdfrwt beam="2">  1       22 0.31505915E+00 0.65728755E+02</pdfrwt>
<totfact> 0.19205856E-01</totfact>
</mgrwt>
</event>
<event>
 4    1  0.2516086E+000  0.7284093E+02  0.7957747E-01  0.1350690E+00
         13   -1    0    0    0    0  0.00000000000E+00  0.00000000000E+00  0.99999944180E+02  0.10000000000E+03  0.10566000000E+00 0. -1.
         22   -1    0    0    0    0 -0.00000000000E+00 -0.00000000000E+00 -0.74833299892E+02  0.74833299892E+02  0.00000000000E+00 0.  1.
         13    1    1    2    0    0 -0.34335635769E+02  0.40334416689E+02 -0.48077605660E+02  0.71535084982E+02  0.10566000000E+00 0.  1.
        996    1    1    2    0    0  0.34335635769E+02 -0.40334416689E+02  0.73244249947E+02  0.10329821491E+03  0.50000000000E+02 0.  0.
<mgrwt>
<rscale>  0 0.72840930E+02</rscale>
<asrwt>0</asrwt>
<pdfrwt beam="1">  1       13 0.10000000E+01 0.72840930E+02</pdfrwt>
<pdfrwt beam="2">  1       22 0.74833307E+00 0.72840930E+02</pdfrwt>
<totfact> 0.49763266E-02</totfact>
</mgrwt>
</event>
<event>
 4    1  0.2516086E+000  0.5142539E+02  0.7957747E-01  0.1437802E+00
         13   -1    0    0    0    0  0.00000000000E+00  0.00000000000E+00  0.99999944183E+02  0.10000000000E+03  0.10566000000E+00 0. -1.
         22   -1    0    0    0    0 -0.00000000000E+00 -0.00000000000E+00 -0.10446872303E+02  0.10446872303E+02  0.00000000000E+00 0. -1.
         13    1    1    2    0    0  0.10076916018E+02  0.65594863588E+01  0.96140046144E+01  0.15395172831E+02  0.10566000000E+00 0.  1.
        996    1    1    2    0    0 -0.10076916018E+02 -0.65594863588E+01  0.79939067266E+02  0.95051699475E+02  0.50000000000E+02 0.  0.
<mgrwt>
<rscale>  0 0.51425394E+02</rscale>
<asrwt>0</asrwt>
<pdfrwt beam="1">  1       13 0.10000000E+01 0.51425394E+02</pdfrwt>
<pdfrwt beam="2">  1       22 0.10446897E+00 0.51425394E+02</pdfrwt>
<totfact> 0.13209681E+00</totfact>
</mgrwt>
</event>
<event>
 4    1  0.2516086E+000  0.5238509E+02  0.7957747E-01  0.1432886E+00
         13   -1    0    0    0    0  0.00000000000E+00  0.00000000000E+00  0.99999944186E+02  0.10000000001E+03  0.10566000000E+00 0.  1.
         22   -1    0    0    0    0 -0.00000000000E+00 -0.00000000000E+00 -0.23123036296E+02  0.23123036296E+02  0.00000000000E+00 0. -1.
         13    1    1    2    0    0  0.10294900957E+02 -0.11756392392E+02 -0.12172133557E+02  0.19808325198E+02  0.10566000000E+00 0. -1.
        996    1    1    2    0    0 -0.10294900957E+02  0.11756392392E+02  0.89049041447E+02  0.10331471110E+03  0.50000000000E+02 0.  0.
<mgrwt>
<rscale>  0 0.52385091E+02</rscale>
<asrwt>0</asrwt>
<pdfrwt beam="1">  1       13 0.10000000E+01 0.52385091E+02</pdfrwt>
<pdfrwt beam="2">  1       22 0.23123058E+00 0.52385091E+02</pdfrwt>
<totfact> 0.34369686E-01</totfact>
</mgrwt>
</event>
<event>
 4    1  0.2516086E+000  0.5178494E+02  0.7957747E-01  0.1435945E+00
         13   -1    0    0    0    0  0.00000000000E+00  0.00000000000E+00  0.99999944190E+02  0.10000000001E+03  0.10566000000E+00 0. -1.
         22   -1    0    0    0    0 -0.00000000000E+00 -0.00000000000E+00 -0.19900561849E+02  0.19900561849E+02  0.00000000000E+00 0.  1.
         13    1    1    2    0    0  0.94158280862E+01  0.96448131470E+01 -0.94459246602E+01  0.16459553333E+02  0.10566000000E+00 0.  1.
        996    1    1    2    0    0 -0.94158280862E+01 -0.96448131470E+01  0.89545307001E+02  0.10344100853E+03  0.50000000000E+02 0.  0.
<mgrwt>
<rscale>  0 0.51784942E+02</rscale>
<asrwt>0</asrwt>
<pdfrwt beam="1">  1       13 0.10000000E+01 0.51784942E+02</pdfrwt>
<pdfrwt beam="2">  1       22 0.19900584E+00 0.51784942E+02</pdfrwt>
<totfact> 0.45712978E-01</totfact>
</mgrwt>
</event>
<event>
 4    1  0.2516086E+000  0.5237033E+02  0.7957747E-01  0.1432960E+00
         13   -1    0    0    0    0  0.00000000000E+00  0.00000000000E+00  0.99999944183E+02  0.10000000000E+03  0.10566000000E+00 0.  1.
         22   -1    0    0    0    0 -0.00000000000E+00 -0.00000000000E+00 -0.80019187702E+02  0.80019187702E+02  0.00000000000E+00 0. -1.
         13    1    1    2    0    0 -0.11097381926E+02  0.10931584220E+02 -0.72275369681E+02  0.73935050185E+02  0.10566000000E+00 0. -1.
        996    1    1    2    0    0  0.11097381926E+02 -0.10931584220E+02  0.92256126162E+02  0.10608413752E+03  0.50000000000E+02 0.  0.
<mgrwt>
<rscale>  0 0.52370330E+02</rscale>
<asrwt>0</asrwt>
<pdfrwt beam="1">  1       13 0.10000000E+01 0.52370330E+02</pdfrwt>
<pdfrwt beam="2">  1       22 0.80019193E+00 0.52370330E+02</pdfrwt>
<totfact> 0.30833457E-02</totfact>
</mgrwt>
</event>
<event>
 4    1  0.2516086E+000  0.6414304E+02  0.7957747E-01  0.1381224E+00
         13   -1    0    0    0    0  0.00000000000E+00  0.00000000000E+00  0.99999944178E+02  0.99999999999E+02  0.10566000000E+00 0.  1.
         22   -1    0    0    0    0 -0.00000000000E+00 -0.00000000000E+00 -0.54373973538E+02  0.54373973538E+02  0.00000000000E+00 0. -1.
         13    1    1    2    0    0  0.39989950807E+02 -0.38901240263E+01 -0.33642834160E+02  0.52404014015E+02  0.10566000000E+00 0. -1.
        996    1    1    2    0    0 -0.39989950807E+02  0.38901240263E+01  0.79268804800E+02  0.10196995952E+03  0.50000000000E+02 0.  0.
<mgrwt>
<rscale>  0 0.64143037E+02</rscale>
<asrwt>0</asrwt>
<pdfrwt beam="1">  1       13 0.10000000E+01 0.64143037E+02</pdfrwt>
<pdfrwt beam="2">  1       22 0.54373986E+00 0.64143037E+02</pdfrwt>
<totfact> 0.60188596E-02</totfact>
</mgrwt>
</event>
<event>
 4    1  0.2516086E+000  0.5218681E+02  0.7957747E-01  0.1433891E+00
         13   -1    0    0    0    0  0.00000000000E+00  0.00000000000E+00  0.99999944179E+02  0.99999999999E+02  0.10566000000E+00 0. -1.
         22   -1    0    0    0    0 -0.00000000000E+00 -0.00000000000E+00 -0.13356676794E+02  0.13356676794E+02  0.00000000000E+00 0. -1.
         13    1    1    2    0    0  0.11115309698E+02 -0.99956385878E+01  0.37638976416E+01  0.15415608647E+02  0.10566000000E+00 0.  1.
        996    1    1    2    0    0 -0.11115309698E+02  0.99956385878E+01  0.82879369744E+02  0.97941068146E+02  0.50000000000E+02 0.  0.
<mgrwt>
<rscale>  0 0.52186808E+02</rscale>
<asrwt>0</asrwt>
<pdfrwt beam="1">  1       13 0.10000000E+01 0.52186808E+02</pdfrwt>
<pdfrwt beam="2">  1       22 0.13356701E+00 0.52186808E+02</pdfrwt>
<totfact> 0.90980616E-01</totfact>
</mgrwt>
</event>
<event>
 4    1  0.2516086E+000  0.5112273E+02  0.7957747E-01  0.1439378E+00
         13   -1    0    0    0    0  0.00000000000E+00  0.00000000000E+00  0.99999944181E+02  0.10000000000E+03  0.10566000000E+00 0. -1.
         22   -1    0    0    0    0 -0.00000000000E+00 -0.00000000000E+00 -0.13280462579E+02  0.13280462579E+02  0.00000000000E+00 0. -1.
         13    1    1    2    0    0 -0.75032196054E+00 -0.10628759998E+02 -0.20417293691E+01  0.10849578102E+02  0.10566000000E+00 0.  1.
        996    1    1    2    0    0  0.75032196054E+00  0.10628759998E+02  0.88761210970E+02  0.10243088448E+03  0.50000000000E+02 0.  0.
<mgrwt>
<rscale>  0 0.51122730E+02</rscale>
<asrwt>0</asrwt>
<pdfrwt beam="1">  1       13 0.10000000E+01 0.51122730E+02</pdfrwt>
<pdfrwt beam="2">  1       22 0.13280487E+00 0.51122730E+02</pdfrwt>
<totfact> 0.91601026E-01</totfact>
</mgrwt>
</event>
<event>
 4    1  0.2516086E+000  0.5803890E+02  0.7957747E-01  0.1406251E+00
         13   -1    0    0    0    0  0.00000000000E+00  0.00000000000E+00  0.99999944180E+02  0.10000000000E+03  0.10566000000E+00 0.  1.
         22   -1    0    0    0    0 -0.00000000000E+00 -0.00000000000E+00 -0.31617814339E+02  0.31617814339E+02  0.00000000000E+00 0. -1.
         13    1    1    2    0    0 -0.22848456870E+02 -0.18613476125E+02 -0.12545328330E+02  0.32029828312E+02  0.10566000000E+00 0. -1.
        996    1    1    2    0    0  0.22848456870E+02  0.18613476125E+02  0.80927458172E+02  0.99587986027E+02  0.50000000000E+02 0.  0.
<mgrwt>
<rscale>  0 0.58038896E+02</rscale>
<asrwt>0</asrwt>
<pdfrwt beam="1">  1       13 0.10000000E+01 0.58038896E+02</pdfrwt>
<pdfrwt beam="2">  1       22 0.31617833E+00 0.58038896E+02</pdfrwt>
<totfact> 0.18932160E-01</totfact>
</mgrwt>
</event>
<event>
 4    1  0.2516086E+000  0.5246348E+02  0.7957747E-01  0.1432490E+00
         13   -1    0    0    0    0  0.00000000000E+00  0.00000000000E+00  0.99999944183E+02  0.10000000000E+03  0.10566000000E+00 0.  1.
         22   -1    0    0    0    0 -0.00000000000E+00 -0.00000000000E+00 -0.16766803111E+02  0.16766803111E+02  0.00000000000E+00 0.  1.
         13    1    1    2    0    0 -0.14848684160E+02  0.56509133192E+01 -0.26693901644E+01  0.16110650220E+02  0.10566000000E+00 0. -1.
        996    1    1    2    0    0  0.14848684160E+02 -0.56509133192E+01  0.85902531236E+02  0.10065615289E+03  0.50000000000E+02 0.  0.
<mgrwt>
<rscale>  0 0.52463475E+02</rscale>
<asrwt>0</asrwt>
<pdfrwt beam="1">  1       13 0.10000000E+01 0.52463475E+02</pdfrwt>
<pdfrwt beam="2">  1       22 0.16766826E+00 0.52463475E+02</pdfrwt>
<totfact> 0.62339693E-01</totfact>
</mgrwt>
</event>
<event>
 4    1  0.2516086E+000  0.5248128E+02  0.7957747E-01  0.1432400E+00
         13   -1    0    0    0    0  0.00000000000E+00  0.00000000000E+00  0.99999944174E+02  0.99999999994E+02  0.10566000000E+00 0. -1.
         22   -1    0    0    0    0 -0.00000000000E+00 -0.00000000000E+00 -0.26892614354E+02  0.26892614354E+02  0.00000000000E+00 0.  1.
         13    1    1    2    0    0 -0.15839607278E+02  0.18416185209E+01 -0.16563909970E+02  0.22992585653E+02  0.10566000000E+00 0.  1.
        996    1    1    2    0    0  0.15839607278E+02 -0.18416185209E+01  0.89671239790E+02  0.10390002870E+03  0.50000000000E+02 0.  0.
<mgrwt>
<rscale>  0 0.52481280E+02</rscale>
<asrwt>0</asrwt>
<pdfrwt beam="1">  1       13 0.10000000E+01 0.52481280E+02</pdfrwt>
<pdfrwt beam="2">  1       22 0.26892635E+00 0.52481280E+02</pdfrwt>
<totfact> 0.25558861E-01</totfact>
</mgrwt>
</event>
<event>
 4    1  0.2516086E+000  0.5187293E+02  0.7957747E-01  0.1435494E+00
         13   -1    0    0    0    0  0.00000000000E+00  0.00000000000E+00  0.99999944180E+02  0.10000000000E+03  0.10566000000E+00 0. -1.
         22   -1    0    0    0    0 -0.00000000000E+00 -0.00000000000E+00 -0.11378899563E+02  0.11378899563E+02  0.00000000000E+00 0. -1.
         13    1    1    2    0    0  0.82570849697E+01 -0.11073432025E+02  0.94829541518E+01  0.16755235972E+02  0.10566000000E+00 0.  1.
        996    1    1    2    0    0 -0.82570849697E+01  0.11073432025E+02  0.79138090464E+02  0.94623663591E+02  0.50000000000E+02 0.  0.
<mgrwt>
<rscale>  0 0.51872925E+02</rscale>
<asrwt>0</asrwt>
<pdfrwt beam="1">  1       13 0.10000000E+01 0.51872925E+02</pdfrwt>
<pdfrwt beam="2">  1       22 0.11378924E+00 0.51872925E+02</pdfrwt>
<totfact> 0.11648491E+00</totfact>
</mgrwt>
</event>
<event>
 4    1  0.2516086E+000  0.5104990E+02  0.7957747E-01  0.1439760E+00
         13   -1    0    0    0    0  0.00000000000E+00  0.00000000000E+00  0.99999944173E+02  0.99999999993E+02  0.10566000000E+00 0.  1.
         22   -1    0    0    0    0 -0.00000000000E+00 -0.00000000000E+00 -0.17252077959E+02  0.17252077959E+02  0.00000000000E+00 0. -1.
         13    1    1    2    0    0 -0.33557698153E+01 -0.97381115079E+01 -0.80594115822E+01  0.13078887028E+02  0.10566000000E+00 0. -1.
        996    1    1    2    0    0  0.33557698153E+01  0.97381115079E+01  0.90807277795E+02  0.10417319092E+03  0.50000000000E+02 0.  0.
<mgrwt>
<rscale>  0 0.51049897E+02</rscale>
<asrwt>0</asrwt>
<pdfrwt beam="1">  1       13 0.10000000E+01 0.51049897E+02</pdfrwt>
<pdfrwt beam="2">  1       22 0.17252101E+00 0.51049897E+02</pdfrwt>
<totfact> 0.59136601E-01</totfact>
</mgrwt>
</event>
<event>
 4    1  0.2516086E+000  0.5346286E+02  0.7957747E-01  0.1427511E+00
         13   -1    0    0    0    0  0.00000000000E+00  0.00000000000E+00  0.99999944180E+02  0.10000000000E+03  0.10566000000E+00 0. -1.
         22   -1    0    0    0    0 -0.00000000000E+00 -0.00000000000E+00 -0.19381984810E+02  0.19381984810E+02  0.00000000000E+00 0.  1.
         13    1    1    2    0    0  0.48458692037E+00  0.18922017150E+02 -0.39458489710E+01  0.19335419458E+02  0.10566000000E+00 0.  1.
        996    1    1    2    0    0 -0.48458692037E+00 -0.18922017150E+02  0.84563808342E+02  0.10004656535E+03  0.50000000000E+02 0.  0.
<mgrwt>
<rscale>  0 0.53462861E+02</rscale>
<asrwt>0</asrwt>
<pdfrwt beam="1">  1       13 0.10000000E+01 0.53462861E+02</pdfrwt>
<pdfrwt beam="2">  1       22 0.19382007E+00 0.53462861E+02</pdfrwt>
<totfact> 0.48150623E-01</totfact>
</mgrwt>
</event>
<event>
 4    1  0.2516086E+000  0.5251991E+02  0.7957747E-01  0.1432205E+00
         13   -1    0    0    0    0  0.00000000000E+00  0.00000000000E+00  0.99999944181E+02  0.10000000000E+03  0.10566000000E+00 0.  1.
         22   -1    0    0    0    0 -0.00000000000E+00 -0.00000000000E+00 -0.11775013225E+02  0.11775013225E+02  0.00000000000E+00 0.  1.
         13    1    1    2    0    0  0.10102563660E+01 -0.16041205106E+02  0.19158217175E+02  0.25007785358E+02  0.10566000000E+00 0. -1.
        996    1    1    2    0    0 -0.10102563660E+01  0.16041205106E+02  0.69066713782E+02  0.86767227868E+02  0.50000000000E+02 0.  0.
<mgrwt>
<rscale>  0 0.52519909E+02</rscale>
<asrwt>0</asrwt>
<pdfrwt beam="1">  1       13 0.10000000E+01 0.52519909E+02</pdfrwt>
<pdfrwt beam="2">  1       22 0.11775038E+00 0.52519909E+02</pdfrwt>
<totfact> 0.11077363E+00</totfact>
</mgrwt>
</event>
<event>
 4    1  0.2516086E+000  0.5216049E+02  0.7957747E-01  0.1434025E+00
         13   -1    0    0    0    0  0.00000000000E+00  0.00000000000E+00  0.99999944173E+02  0.99999999994E+02  0.10566000000E+00 0.  1.
         22   -1    0    0    0    0 -0.00000000000E+00 -0.00000000000E+00 -0.24337678195E+02  0.24337678195E+02  0.00000000000E+00 0. -1.
         13    1    1    2    0    0 -0.14275470020E+02 -0.41143874387E+01 -0.14124452549E+02  0.20499476874E+02  0.10566000000E+00 0. -1.
        996    1    1    2    0    0  0.14275470020E+02  0.41143874387E+01  0.89786718527E+02  0.10383820131E+03  0.50000000000E+02 0.  0.
<mgrwt>
<rscale>  0 0.52160495E+02</rscale>
<asrwt>0</asrwt>
<pdfrwt beam="1">  1       13 0.10000000E+01 0.52160495E+02</pdfrwt>
<pdfrwt beam="2">  1       22 0.24337699E+00 0.52160495E+02</pdfrwt>
<totfact> 0.31084446E-01</totfact>
</mgrwt>
</event>
<event>
 4    1  0.2516086E+000  0.5153139E+02  0.7957747E-01  0.1437252E+00
         13   -1    0    0    0    0  0.00000000000E+00  0.00000000000E+00  0.99999944179E+02  0.99999999999E+02  0.10566000000E+00 0.  1.
         22   -1    0    0    0    0 -0.00000000000E+00 -0.00000000000E+00 -0.27958181003E+02  0.27958181003E+02  0.00000000000E+00 0. -1.
         13    1    1    2    0    0 -0.11978077402E+02  0.34655267380E+01 -0.19361399001E+02  0.23029527766E+02  0.10566000000E+00 0. -1.
        996    1    1    2    0    0  0.11978077402E+02 -0.34655267380E+01  0.91403162177E+02  0.10492865324E+03  0.50000000000E+02 0.  0.
<mgrwt>
<rscale>  0 0.51531391E+02</rscale>
<asrwt>0</asrwt>
<pdfrwt beam="1">  1       13 0.10000000E+01 0.51531391E+02</pdfrwt>
<pdfrwt beam="2">  1       22 0.27958201E+00 0.51531391E+02</pdfrwt>
<totfact> 0.23663334E-01</totfact>
</mgrwt>
</event>
<event>
 4    1  0.2516086E+000  0.5212146E+02  0.7957747E-01  0.1434224E+00
         13   -1    0    0    0    0  0.00000000000E+00  0.00000000000E+00  0.99999944171E+02  0.99999999991E+02  0.10566000000E+00 0.  1.
         22   -1    0    0    0    0 -0.00000000000E+00 -0.00000000000E+00 -0.11188676370E+02  0.11188676370E+02  0.00000000000E+00 0.  1.
         13    1    1    2    0    0  0.13585864014E+02  0.56631112321E+01  0.17677265678E+02  0.23003117522E+02  0.10566000000E+00 0. -1.
        996    1    1    2    0    0 -0.13585864014E+02 -0.56631112321E+01  0.71134002123E+02  0.88185558839E+02  0.50000000000E+02 0.  0.
<mgrwt>
<rscale>  0 0.52121459E+02</rscale>
<asrwt>0</asrwt>
<pdfrwt beam="1">  1       13 0.10000000E+01 0.52121459E+02</pdfrwt>
<pdfrwt beam="2">  1       22 0.11188701E+00 0.52121459E+02</pdfrwt>
<totfact> 0.11953513E+00</totfact>
</mgrwt>
</event>
<event>
 4    1  0.2516086E+000  0.5173066E+02  0.7957747E-01  0.1436224E+00
         13   -1    0    0    0    0  0.00000000000E+00  0.00000000000E+00  0.99999944177E+02  0.99999999997E+02  0.10566000000E+00 0.  1.
         22   -1    0    0    0    0 -0.00000000000E+00 -0.00000000000E+00 -0.11381733169E+02  0.11381733169E+02  0.00000000000E+00 0.  1.
         13    1    1    2    0    0 -0.96158354601E+01 -0.91431084226E+01  0.32254594471E+02  0.34877367328E+02  0.10566000000E+00 0. -1.
        996    1    1    2    0    0  0.96158354601E+01  0.91431084226E+01  0.56363616537E+02  0.76504365838E+02  0.50000000000E+02 0.  0.
<mgrwt>
<rscale>  0 0.51730656E+02</rscale>
<asrwt>0</asrwt>
<pdfrwt beam="1">  1       13 0.10000000E+01 0.51730656E+02</pdfrwt>
<pdfrwt beam="2">  1       22 0.11381758E+00 0.51730656E+02</pdfrwt>
<totfact> 0.11640338E+00</totfact>
</mgrwt>
</event>
<event>
 4    1  0.2516086E+000  0.5190994E+02  0.7957747E-01  0.1435304E+00
         13   -1    0    0    0    0  0.00000000000E+00  0.00000000000E+00  0.99999944182E+02  0.10000000000E+03  0.10566000000E+00 0. -1.
         22   -1    0    0    0    0 -0.00000000000E+00 -0.00000000000E+00 -0.36374230215E+02  0.36374230215E+02  0.00000000000E+00 0.  1.
         13    1    1    2    0    0 -0.61388326021E+01  0.12528230810E+02 -0.27876538430E+02  0.31172975345E+02  0.10566000000E+00 0.  1.
        996    1    1    2    0    0  0.61388326021E+01 -0.12528230810E+02  0.91502252397E+02  0.10520125487E+03  0.50000000000E+02 0.  0.
<mgrwt>
<rscale>  0 0.51909940E+02</rscale>
<asrwt>0</asrwt>
<pdfrwt beam="1">  1       13 0.10000000E+01 0.51909940E+02</pdfrwt>
<pdfrwt beam="2">  1       22 0.36374248E+00 0.51909940E+02</pdfrwt>
<totfact> 0.14690272E-01</totfact>
</mgrwt>
</event>
<event>
 4    1  0.2516086E+000  0.5185851E+02  0.7957747E-01  0.1435567E+00
         13   -1    0    0    0    0  0.00000000000E+00  0.00000000000E+00  0.99999944173E+02  0.99999999993E+02  0.10566000000E+00 0. -1.
         22   -1    0    0    0    0 -0.00000000000E+00 -0.00000000000E+00 -0.49918600676E+02  0.49918600676E+02  0.00000000000E+00 0.  1.
         13    1    1    2    0    0 -0.95498219491E+01  0.99048466632E+01 -0.42023157240E+02  0.44218344555E+02  0.10566000000E+00 0.  1.
        996    1    1    2    0    0  0.95498219491E+01 -0.99048466632E+01  0.92104500737E+02  0.10570025611E+03  0.50000000000E+02 0.  0.
<mgrwt>
<rscale>  0 0.51858510E+02</rscale>
<asrwt>0</asrwt>
<pdfrwt beam="1">  1       13 0.10000000E+01 0.51858510E+02</pdfrwt>
<pdfrwt beam="2">  1       22 0.49918615E+00 0.51858510E+02</pdfrwt>
<totfact> 0.73939225E-02</totfact>
</mgrwt>
</event>
<event>
 4    1  0.2516086E+000  0.5150898E+02  0.7957747E-01  0.1437368E+00
         13   -1    0    0    0    0  0.00000000000E+00  0.00000000000E+00  0.99999944174E+02  0.99999999994E+02  0.10566000000E+00 0.  1.
         22   -1    0    0    0    0 -0.00000000000E+00 -0.00000000000E+00 -0.10452980880E+02  0.10452980880E+02  0.00000000000E+00 0.  1.
         13    1    1    2    0    0 -0.11754246000E+02 -0.38746126945E+01  0.24795488835E+02  0.27712855377E+02  0.10566000000E+00 0. -1.
        996    1    1    2    0    0  0.11754246000E+02  0.38746126945E+01  0.64751474459E+02  0.82740125496E+02  0.50000000000E+02 0.  0.
<mgrwt>
<rscale>  0 0.51508979E+02</rscale>
<asrwt>0</asrwt>
<pdfrwt beam="1">  1       13 0.10000000E+01 0.51508979E+02</pdfrwt>
<pdfrwt beam="2">  1       22 0.10453006E+00 0.51508979E+02</pdfrwt>
<totfact> 0.13200996E+00</totfact>
</mgrwt>
</event>
<event>
 4    1  0.2516086E+000  0.5308680E+02  0.7957747E-01  0.1429369E+00
         13   -1    0    0    0    0  0.00000000000E+00  0.00000000000E+00  0.99999944183E+02  0.10000000000E+03  0.10566000000E+00 0. -1.
         22   -1    0    0    0    0 -0.00000000000E+00 -0.00000000000E+00 -0.16472392105E+02  0.16472392105E+02  0.00000000000E+00 0. -1.
         13    1    1    2    0    0 -0.90549570199E+01  0.15369330357E+02  0.40420633990E+00  0.17843293111E+02  0.10566000000E+00 0.  1.
        996    1    1    2    0    0  0.90549570199E+01 -0.15369330357E+02  0.83123345738E+02  0.98629098997E+02  0.50000000000E+02 0.  0.
<mgrwt>
<rscale>  0 0.53086802E+02</rscale>
<asrwt>0</asrwt>
<pdfrwt beam="1">  1       13 0.10000000E+01 0.53086802E+02</pdfrwt>
<pdfrwt beam="2">  1       22 0.16472415E+00 0.53086802E+02</pdfrwt>
<totfact> 0.64364799E-01</totfact>
</mgrwt>
</event>
<event>
 4    1  0.2516086E+000  0.5240285E+02  0.7957747E-01  0.1432796E+00
         13   -1    0    0    0    0  0.00000000000E+00  0.00000000000E+00  0.99999944173E+02  0.99999999993E+02  0.10566000000E+00 0.  1.
         22   -1    0    0    0    0 -0.00000000000E+00 -0.00000000000E+00 -0.11727298324E+02  0.11727298324E+02  0.00000000000E+00 0.  1.
         13    1    1    2    0    0 -0.21051374551E+01  0.15544370257E+02  0.15519442194E+02  0.22066338627E+02  0.10566000000E+00 0. -1.
        996    1    1    2    0    0  0.21051374551E+01 -0.15544370257E+02  0.72753203655E+02  0.89660959689E+02  0.50000000000E+02 0.  0.
<mgrwt>
<rscale>  0 0.52402853E+02</rscale>
<asrwt>0</asrwt>
<pdfrwt beam="1">  1       13 0.10000000E+01 0.52402853E+02</pdfrwt>
<pdfrwt beam="2">  1       22 0.11727323E+00 0.52402853E+02</pdfrwt>
<totfact> 0.11143007E+00</totfact>
</mgrwt>
</event>
<event>
 4    1  0.2516086E+000  0.5721611E+02  0.7957747E-01  0.1409900E+00
         13   -1    0    0    0    0  0.00000000000E+00  0.00000000000E+00  0.99999944169E+02  0.99999999989E+02  0.10566000000E+00 0.  1.
         22   -1    0    0    0    0 -0.00000000000E+00 -0.00000000000E+00 -0.18547236343E+02  0.18547236343E+02  0.00000000000E+00 0. -1.
         13    1    1    2    0    0 -0.16807856331E+02 -0.22162567244E+02  0.18120658748E+02  0.33197181489E+02  0.10566000000E+00 0. -1.
        996    1    1    2    0    0  0.16807856331E+02  0.22162567244E+02  0.63332049078E+02  0.85350054843E+02  0.50000000000E+02 0.  0.
<mgrwt>
<rscale>  0 0.57216112E+02</rscale>
<asrwt>0</asrwt>
<pdfrwt beam="1">  1       13 0.10000000E+01 0.57216112E+02</pdfrwt>
<pdfrwt beam="2">  1       22 0.18547259E+00 0.57216112E+02</pdfrwt>
<totfact> 0.52533841E-01</totfact>
</mgrwt>
</event>
<event>
 4    1  0.2516086E+000  0.5132878E+02  0.7957747E-01  0.1438303E+00
         13   -1    0    0    0    0  0.00000000000E+00  0.00000000000E+00  0.99999944180E+02  0.10000000000E+03  0.10566000000E+00 0. -1.
         22   -1    0    0    0    0 -0.00000000000E+00 -0.00000000000E+00 -0.11472920949E+02  0.11472920949E+02  0.00000000000E+00 0.  1.
         13    1    1    2    0    0  0.40056983263E+00 -0.11596675893E+02  0.34409576169E+01  0.12103499548E+02  0.10566000000E+00 0.  1.
        996    1    1    2    0    0 -0.40056983263E+00  0.11596675893E+02  0.85086065614E+02  0.99369421402E+02  0.50000000000E+02 0.  0.
<mgrwt>
<rscale>  0 0.51328777E+02</rscale>
<asrwt>0</asrwt>
<pdfrwt beam="1">  1       13 0.10000000E+01 0.51328777E+02</pdfrwt>
<pdfrwt beam="2">  1       22 0.11472946E+00 0.51328777E+02</pdfrwt>
<totfact> 0.11490756E+00</totfact>
</mgrwt>
</event>
<event>
 4    1  0.2516086E+000  0.5547290E+02  0.7957747E-01  0.1417876E+00
         13   -1    0    0    0    0  0.00000000000E+00  0.00000000000E+00  0.99999944176E+02  0.99999999996E+02  0.10566000000E+00 0.  1.
         22   -1    0    0    0    0 -0.00000000000E+00 -0.00000000000E+00 -0.15819187728E+02  0.15819187728E+02  0.00000000000E+00 0.  1.
         13    1    1    2    0    0 -0.20708541618E+02 -0.12181889495E+02  0.27303831262E+02  0.36369664464E+02  0.10566000000E+00 0. -1.
        996    1    1    2    0    0  0.20708541618E+02  0.12181889495E+02  0.56876925186E+02  0.79449523260E+02  0.50000000000E+02 0.  0.
<mgrwt>
<rscale>  0 0.55472895E+02</rscale>
<asrwt>0</asrwt>
<pdfrwt beam="1">  1       13 0.10000000E+01 0.55472895E+02</pdfrwt>
<pdfrwt beam="2">  1       22 0.15819211E+00 0.55472895E+02</pdfrwt>
<totfact> 0.69309273E-01</totfact>
</mgrwt>
</event>
<event>
 4    1  0.2516086E+000  0.5345829E+02  0.7957747E-01  0.1427534E+00
         13   -1    0    0    0    0  0.00000000000E+00  0.00000000000E+00  0.99999944179E+02  0.99999999999E+02  0.10566000000E+00 0.  1.
         22   -1    0    0    0    0 -0.00000000000E+00 -0.00000000000E+00 -0.13137295055E+02  0.13137295055E+02  0.00000000000E+00 0.  1.
         13    1    1    2    0    0  0.15264896680E+02 -0.11170121302E+02  0.19944827419E+02  0.27488106253E+02  0.10566000000E+00 0. -1.
        996    1    1    2    0    0 -0.15264896680E+02  0.11170121302E+02  0.66917821705E+02  0.85649188801E+02  0.50000000000E+02 0.  0.
<mgrwt>
<rscale>  0 0.53458289E+02</rscale>
<asrwt>0</asrwt>
<pdfrwt beam="1">  1       13 0.10000000E+01 0.53458289E+02</pdfrwt>
<pdfrwt beam="2">  1       22 0.13137319E+00 0.53458289E+02</pdfrwt>
<totfact> 0.93654949E-01</totfact>
</mgrwt>
</event>
<event>
 4    1  0.2516086E+000  0.5647509E+02  0.7957747E-01  0.1413249E+00
         13   -1    0    0    0    0  0.00000000000E+00  0.00000000000E+00  0.99999944191E+02  0.10000000001E+03  0.10566000000E+00 0.  1.
         22   -1    0    0    0    0 -0.00000000000E+00 -0.00000000000E+00 -0.20234389854E+02  0.20234389854E+02  0.00000000000E+00 0. -1.
         13    1    1    2    0    0  0.48189799501E+01  0.25811097877E+02  0.53189102637E+01  0.26790619847E+02  0.10566000000E+00 0. -1.
        996    1    1    2    0    0 -0.48189799501E+01 -0.25811097877E+02  0.74446644073E+02  0.93443770018E+02  0.50000000000E+02 0.  0.
<mgrwt>
<rscale>  0 0.56475086E+02</rscale>
<asrwt>0</asrwt>
<pdfrwt beam="1">  1       13 0.10000000E+01 0.56475086E+02</pdfrwt>
<pdfrwt beam="2">  1       22 0.20234412E+00 0.56475086E+02</pdfrwt>
<totfact> 0.44671670E-01</totfact>
</mgrwt>
</event>
<event>
 4    1  0.2516086E+000  0.5137002E+02  0.7957747E-01  0.1438089E+00
         13   -1    0    0    0    0  0.00000000000E+00  0.00000000000E+00  0.99999944177E+02  0.99999999998E+02  0.10566000000E+00 0. -1.
         22   -1    0    0    0    0 -0.00000000000E+00 -0.00000000000E+00 -0.10893070705E+02  0.10893070705E+02  0.00000000000E+00 0.  1.
         13    1    1    2    0    0 -0.26323403058E+01 -0.11486943865E+02  0.60844218565E+01  0.13263123621E+02  0.10566000000E+00 0.  1.
        996    1    1    2    0    0  0.26323403058E+01  0.11486943865E+02  0.83022451616E+02  0.97629947081E+02  0.50000000000E+02 0.  0.
<mgrwt>
<rscale>  0 0.51370021E+02</rscale>
<asrwt>0</asrwt>
<pdfrwt beam="1">  1       13 0.10000000E+01 0.51370021E+02</pdfrwt>
<pdfrwt beam="2">  1       22 0.10893096E+00 0.51370021E+02</pdfrwt>
<totfact> 0.12418172E+00</totfact>
</mgrwt>
</event>
<event>
 4    1  0.2516086E+000  0.5860769E+02  0.7957747E-01  0.1403769E+00
         13   -1    0    0    0    0  0.00000000000E+00  0.00000000000E+00  0.99999944176E+02  0.99999999996E+02  0.10566000000E+00 0. -1.
         22   -1    0    0    0    0 -0.00000000000E+00 -0.00000000000E+00 -0.32724227480E+02  0.32724227480E+02  0.00000000000E+00 0.  1.
         13    1    1    2    0    0 -0.24559646482E+01 -0.30476695708E+02 -0.13088519312E+02  0.33259303142E+02  0.10566000000E+00 0.  1.
        996    1    1    2    0    0  0.24559646482E+01  0.30476695708E+02  0.80364236008E+02  0.99464924334E+02  0.50000000000E+02 0.  0.
<mgrwt>
<rscale>  0 0.58607685E+02</rscale>
<asrwt>0</asrwt>
<pdfrwt beam="1">  1       13 0.10000000E+01 0.58607685E+02</pdfrwt>
<pdfrwt beam="2">  1       22 0.32724246E+00 0.58607685E+02</pdfrwt>
<totfact> 0.17807377E-01</totfact>
</mgrwt>
</event>
<event>
 4    1  0.2516086E+000  0.5404042E+02  0.7957747E-01  0.1424692E+00
         13   -1    0    0    0    0  0.00000000000E+00  0.00000000000E+00  0.99999944172E+02  0.99999999992E+02  0.10566000000E+00 0.  1.
         22   -1    0    0    0    0 -0.00000000000E+00 -0.00000000000E+00 -0.16290605915E+02  0.16290605915E+02  0.00000000000E+00 0. -1.
         13    1    1    2    0    0  0.47802375539E+01  0.19937818131E+02  0.55015939714E+01  0.21228423473E+02  0.10566000000E+00 0. -1.
        996    1    1    2    0    0 -0.47802375539E+01 -0.19937818131E+02  0.78207744286E+02  0.95062182434E+02  0.50000000000E+02 0.  0.
<mgrwt>
<rscale>  0 0.54040422E+02</rscale>
<asrwt>0</asrwt>
<pdfrwt beam="1">  1       13 0.10000000E+01 0.54040422E+02</pdfrwt>
<pdfrwt beam="2">  1       22 0.16290629E+00 0.54040422E+02</pdfrwt>
<totfact> 0.65729879E-01</totfact>
</mgrwt>
</event>
<event>
 4    1  0.2516086E+000  0.5125500E+02  0.7957747E-01  0.1438688E+00
         13   -1    0    0    0    0  0.00000000000E+00  0.00000000000E+00  0.99999944178E+02  0.99999999999E+02  0.10566000000E+00 0. -1.
         22   -1    0    0    0    0 -0.00000000000E+00 -0.00000000000E+00 -0.62285587049E+02  0.62285587049E+02  0.00000000000E+00 0.  1.
         13    1    1    2    0    0  0.38017009344E+01 -0.10612356079E+02 -0.55109627446E+02  0.56250842063E+02  0.10566000000E+00 0.  1.
        996    1    1    2    0    0 -0.38017009344E+01  0.10612356079E+02  0.92823984575E+02  0.10603474498E+03  0.50000000000E+02 0.  0.
<mgrwt>
<rscale>  0 0.51255000E+02</rscale>
<asrwt>0</asrwt>
<pdfrwt beam="1">  1       13 0.10000000E+01 0.51255000E+02</pdfrwt>
<pdfrwt beam="2">  1       22 0.62285598E+00 0.51255000E+02</pdfrwt>
<totfact> 0.74593337E-02</totfact>
</mgrwt>
</event>
<event>
 4    1  0.2516086E+000  0.5456160E+02  0.7957747E-01  0.1422184E+00
         13   -1    0    0    0    0  0.00000000000E+00  0.00000000000E+00  0.99999944180E+02  0.10000000000E+03  0.10566000000E+00 0. -1.
         22   -1    0    0    0    0 -0.00000000000E+00 -0.00000000000E+00 -0.15167997007E+02  0.15167997007E+02  0.00000000000E+00 0.  1.
         13    1    1    2    0    0  0.19834377392E+02 -0.91414421874E+01  0.35113455281E+02  0.41351353032E+02  0.10566000000E+00 0.  1.
        996    1    1    2    0    0 -0.19834377392E+02  0.91414421874E+01  0.49718491892E+02  0.73816643975E+02  0.50000000000E+02 0.  0.
<mgrwt>
<rscale>  0 0.54561603E+02</rscale>
<asrwt>0</asrwt>
<pdfrwt beam="1">  1       13 0.10000000E+01 0.54561603E+02</pdfrwt>
<pdfrwt beam="2">  1       22 0.15168021E+00 0.54561603E+02</pdfrwt>
<totfact> 0.74282071E-01</totfact>
</mgrwt>
</event>
<event>
 4    1  0.2516086E+000  0.5233585E+02  0.7957747E-01  0.1433135E+00
         13   -1    0    0    0    0  0.00000000000E+00  0.00000000000E+00  0.99999944176E+02  0.99999999996E+02  0.10566000000E+00 0.  1.
         22   -1    0    0    0    0 -0.00000000000E+00 -0.00000000000E+00 -0.26966032497E+02  0.26966032497E+02  0.00000000000E+00 0.  1.
         13    1    1    2    0    0  0.39254570848E+00 -0.15455981586E+02 -0.16904322745E+02  0.22908704687E+02  0.10566000000E+00 0. -1.
        996    1    1    2    0    0 -0.39254570848E+00  0.15455981586E+02  0.89938234424E+02  0.10405732781E+03  0.50000000000E+02 0.  0.
<mgrwt>
<rscale>  0 0.52335853E+02</rscale>
<asrwt>0</asrwt>
<pdfrwt beam="1">  1       13 0.10000000E+01 0.52335853E+02</pdfrwt>
<pdfrwt beam="2">  1       22 0.26966053E+00 0.52335853E+02</pdfrwt>
<totfact> 0.25417459E-01</totfact>
</mgrwt>
</event>
<event>
 4    1  0.2516086E+000  0.6248420E+02  0.7957747E-01  0.1387693E+00
         13   -1    0    0    0    0  0.00000000000E+00  0.00000000000E+00  0.99999944183E+02  0.10000000000E+03  0.10566000000E+00 0. -1.
         22   -1    0    0    0    0 -0.00000000000E+00 -0.00000000000E+00 -0.43012490192E+02  0.43012490192E+02  0.00000000000E+00 0.  1.
         13    1    1    2    0    0  0.19048680351E+02 -0.32271078238E+02 -0.21097718355E+02  0.43004646233E+02  0.10566000000E+00 0.  1.
        996    1    1    2    0    0 -0.19048680351E+02  0.32271078238E+02  0.78085172346E+02  0.10000784396E+03  0.50000000000E+02 0.  0.
<mgrwt>
<rscale>  0 0.62484196E+02</rscale>
<asrwt>0</asrwt>
<pdfrwt beam="1">  1       13 0.10000000E+01 0.62484196E+02</pdfrwt>
<pdfrwt beam="2">  1       22 0.43012506E+00 0.62484196E+02</pdfrwt>
<totfact> 0.10757190E-01</totfact>
</mgrwt>
</event>
<event>
 4    1  0.2516086E+000  0.5100128E+02  0.7957747E-01  0.1440015E+00
         13   -1    0    0    0    0  0.00000000000E+00  0.00000000000E+00  0.99999944184E+02  0.10000000000E+03  0.10566000000E+00 0.  1.
         22   -1    0    0    0    0 -0.00000000000E+00 -0.00000000000E+00 -0.14001696962E+02  0.14001696962E+02  0.00000000000E+00 0.  1.
         13    1    1    2    0    0  0.23121831034E+01  0.97869265834E+01 -0.37836677286E+01  0.10745111827E+02  0.10566000000E+00 0. -1.
        996    1    1    2    0    0 -0.23121831034E+01 -0.97869265834E+01  0.89781914950E+02  0.10325658514E+03  0.50000000000E+02 0.  0.
<mgrwt>
<rscale>  0 0.51001276E+02</rscale>
<asrwt>0</asrwt>
<pdfrwt beam="1">  1       13 0.10000000E+01 0.51001276E+02</pdfrwt>
<pdfrwt beam="2">  1       22 0.14001721E+00 0.51001276E+02</pdfrwt>
<totfact> 0.84132401E-01</totfact>
</mgrwt>
</event>
<event>
 4    1  0.2516086E+000  0.5154584E+02  0.7957747E-01  0.1437178E+00
         13   -1    0    0    0    0  0.00000000000E+00  0.00000000000E+00  0.99999944180E+02  0.10000000000E+03  0.10566000000E+00 0. -1.
         22   -1    0    0    0    0 -0.00000000000E+00 -0.00000000000E+00 -0.28192573199E+02  0.28192573199E+02  0.00000000000E+00 0.  1.
         13    1    1    2    0    0  0.12381751981E+02 -0.19145148155E+01 -0.19594543785E+02  0.23257911757E+02  0.10566000000E+00 0.  1.
        996    1    1    2    0    0 -0.12381751981E+02  0.19145148155E+01  0.91401914766E+02  0.10493466144E+03  0.50000000000E+02 0.  0.
<mgrwt>
<rscale>  0 0.51545835E+02</rscale>
<asrwt>0</asrwt>
<pdfrwt beam="1">  1       13 0.10000000E+01 0.51545835E+02</pdfrwt>
<pdfrwt beam="2">  1       22 0.28192593E+00 0.51545835E+02</pdfrwt>
<totfact> 0.23285007E-01</totfact>
</mgrwt>
</event>
<event>
 4    1  0.2516086E+000  0.5488535E+02  0.7957747E-01  0.1420642E+00
         13   -1    0    0    0    0  0.00000000000E+00  0.00000000000E+00  0.99999944172E+02  0.99999999992E+02  0.10566000000E+00 0.  1.
         22   -1    0    0    0    0 -0.00000000000E+00 -0.00000000000E+00 -0.15027940321E+02  0.15027940321E+02  0.00000000000E+00 0.  1.
         13    1    1    2    0    0 -0.18393234651E+02  0.13194337365E+02  0.23978617204E+02  0.32975549525E+02  0.10566000000E+00 0. -1.
        996    1    1    2    0    0  0.18393234651E+02 -0.13194337365E+02  0.60993386646E+02  0.82052390788E+02  0.50000000000E+02 0.  0.
<mgrwt>
<rscale>  0 0.54885350E+02</rscale>
<asrwt>0</asrwt>
<pdfrwt beam="1">  1       13 0.10000000E+01 0.54885350E+02</pdfrwt>
<pdfrwt beam="2">  1       22 0.15027964E+00 0.54885350E+02</pdfrwt>
<totfact> 0.75490031E-01</totfact>
</mgrwt>
</event>
<event>
 4    1  0.2516086E+000  0.5102848E+02  0.7957747E-01  0.1439872E+00
         13   -1    0    0    0    0  0.00000000000E+00  0.00000000000E+00  0.99999944178E+02  0.99999999999E+02  0.10566000000E+00 0. -1.
         22   -1    0    0    0    0 -0.00000000000E+00 -0.00000000000E+00 -0.12704802631E+02  0.12704802631E+02  0.00000000000E+00 0. -1.
         13    1    1    2    0    0  0.43644580543E+01 -0.92117831990E+01 -0.14879363451E+01  0.10301968861E+02  0.10566000000E+00 0.  1.
        996    1    1    2    0    0 -0.43644580543E+01  0.92117831990E+01  0.88783077892E+02  0.10240283377E+03  0.50000000000E+02 0.  0.
<mgrwt>
<rscale>  0 0.51028477E+02</rscale>
<asrwt>0</asrwt>
<pdfrwt beam="1">  1       13 0.10000000E+01 0.51028477E+02</pdfrwt>
<pdfrwt beam="2">  1       22 0.12704827E+00 0.51028477E+02</pdfrwt>
<totfact> 0.98199081E-01</totfact>
</mgrwt>
</event>
<event>
 4    1  0.2516086E+000  0.5323911E+02  0.7957747E-01  0.1428615E+00
         13   -1    0    0    0    0  0.00000000000E+00  0.00000000000E+00  0.99999944177E+02  0.99999999998E+02  0.10566000000E+00 0.  1.
         22   -1    0    0    0    0 -0.00000000000E+00 -0.00000000000E+00 -0.31124054566E+02  0.31124054566E+02  0.00000000000E+00 0. -1.
         13    1    1    2    0    0  0.12130603072E+02 -0.13683975405E+02 -0.20264147238E+02  0.27295595635E+02  0.10566000000E+00 0. -1.
        996    1    1    2    0    0 -0.12130603072E+02  0.13683975405E+02  0.89140036850E+02  0.10382845893E+03  0.50000000000E+02 0.  0.
<mgrwt>
<rscale>  0 0.53239109E+02</rscale>
<asrwt>0</asrwt>
<pdfrwt beam="1">  1       13 0.10000000E+01 0.53239109E+02</pdfrwt>
<pdfrwt beam="2">  1       22 0.31124074E+00 0.53239109E+02</pdfrwt>
<totfact> 0.19374442E-01</totfact>
</mgrwt>
</event>
<event>
 4    1  0.2516086E+000  0.5196713E+02  0.7957747E-01  0.1435011E+00
         13   -1    0    0    0    0  0.00000000000E+00  0.00000000000E+00  0.99999944179E+02  0.99999999999E+02  0.10566000000E+00 0.  1.
         22   -1    0    0    0    0 -0.00000000000E+00 -0.00000000000E+00 -0.13600387121E+02  0.13600387121E+02  0.00000000000E+00 0. -1.
         13    1    1    2    0    0  0.13708153802E+02 -0.35594229895E+01  0.17484125466E+01  0.14270637096E+02  0.10566000000E+00 0. -1.
        996    1    1    2    0    0 -0.13708153802E+02  0.35594229895E+01  0.84651144511E+02  0.99329750023E+02  0.50000000000E+02 0.  0.
<mgrwt>
<rscale>  0 0.51967134E+02</rscale>
<asrwt>0</asrwt>
<pdfrwt beam="1">  1       13 0.10000000E+01 0.51967134E+02</pdfrwt>
<pdfrwt beam="2">  1       22 0.13600411E+00 0.51967134E+02</pdfrwt>
<totfact> 0.88350085E-01</totfact>
</mgrwt>
</event>
<event>
 4    1  0.2516086E+000  0.5241197E+02  0.7957747E-01  0.1432750E+00
         13   -1    0    0    0    0  0.00000000000E+00  0.00000000000E+00  0.99999944183E+02  0.10000000000E+03  0.10566000000E+00 0.  1.
         22   -1    0    0    0    0 -0.00000000000E+00 -0.00000000000E+00 -0.11740088265E+02  0.11740088265E+02  0.00000000000E+00 0.  1.
         13    1    1    2    0    0  0.67500755415E+01 -0.14193341971E+02  0.15554540553E+02  0.22112651853E+02  0.10566000000E+00 0. -1.
        996    1    1    2    0    0 -0.67500755415E+01  0.14193341971E+02  0.72705315365E+02  0.89627436415E+02  0.50000000000E+02 0.  0.
<mgrwt>
<rscale>  0 0.52411969E+02</rscale>
<asrwt>0</asrwt>
<pdfrwt beam="1">  1       13 0.10000000E+01 0.52411969E+02</pdfrwt>
<pdfrwt beam="2">  1       22 0.11740113E+00 0.52411969E+02</pdfrwt>
<totfact> 0.11124803E+00</totfact>
</mgrwt>
</event>
<event>
 4    1  0.2516086E+000  0.5504741E+02  0.7957747E-01  0.1419875E+00
         13   -1    0    0    0    0  0.00000000000E+00  0.00000000000E+00  0.99999944179E+02  0.99999999999E+02  0.10566000000E+00 0.  1.
         22   -1    0    0    0    0 -0.00000000000E+00 -0.00000000000E+00 -0.41892650610E+02  0.41892650610E+02  0.00000000000E+00 0. -1.
         13    1    1    2    0    0 -0.95528695951E+01  0.20951366509E+02 -0.30112291137E+02  0.37907496853E+02  0.10566000000E+00 0. -1.
        996    1    1    2    0    0  0.95528695951E+01 -0.20951366509E+02  0.88219584706E+02  0.10398515376E+03  0.50000000000E+02 0.  0.
<mgrwt>
<rscale>  0 0.55047408E+02</rscale>
<asrwt>0</asrwt>
<pdfrwt beam="1">  1       13 0.10000000E+01 0.55047408E+02</pdfrwt>
<pdfrwt beam="2">  1       22 0.41892667E+00 0.55047408E+02</pdfrwt>
<totfact> 0.11317921E-01</totfact>
</mgrwt>
</event>
<event>
 4    1  0.2516086E+000  0.5209333E+02  0.7957747E-01  0.1434367E+00
         13   -1    0    0    0    0  0.00000000000E+00  0.00000000000E+00  0.99999944179E+02  0.99999999999E+02  0.10566000000E+00 0.  1.
         22   -1    0    0    0    0 -0.00000000000E+00 -0.00000000000E+00 -0.15434758133E+02  0.15434758133E+02  0.00000000000E+00 0. -1.
         13    1    1    2    0    0 -0.20055260596E+01  0.14480788915E+02 -0.16410673086E+01  0.14711208255E+02  0.10566000000E+00 0. -1.
        996    1    1    2    0    0  0.20055260596E+01 -0.14480788915E+02  0.86206253355E+02  0.10072354988E+03  0.50000000000E+02 0.  0.
<mgrwt>
<rscale>  0 0.52093333E+02</rscale>
<asrwt>0</asrwt>
<pdfrwt beam="1">  1       13 0.10000000E+01 0.52093333E+02</pdfrwt>
<pdfrwt beam="2">  1       22 0.15434782E+00 0.52093333E+02</pdfrwt>
<totfact> 0.71788243E-01</totfact>
</mgrwt>
</event>
<event>
 4    1  0.2516086E+000  0.5213707E+02  0.7957747E-01  0.1434144E+00
         13   -1    0    0    0    0  0.00000000000E+00  0.00000000000E+00  0.99999944175E+02  0.99999999996E+02  0.10566000000E+00 0. -1.
         22   -1    0    0    0    0 -0.00000000000E+00 -0.00000000000E+00 -0.44431619279E+02  0.44431619279E+02  0.00000000000E+00 0.  1.
         13    1    1    2    0    0 -0.14334443345E+02  0.35774273904E+01 -0.36081850876E+02  0.38989554747E+02  0.10566000000E+00 0.  1.
        996    1    1    2    0    0  0.14334443345E+02 -0.35774273904E+01  0.91650175772E+02  0.10544206453E+03  0.50000000000E+02 0.  0.
<mgrwt>
<rscale>  0 0.52137072E+02</rscale>
<asrwt>0</asrwt>
<pdfrwt beam="1">  1       13 0.10000000E+01 0.52137072E+02</pdfrwt>
<pdfrwt beam="2">  1       22 0.44431635E+00 0.52137072E+02</pdfrwt>
<totfact> 0.99506365E-02</totfact>
</mgrwt>
</event>
<event>
 4    1  0.2516086E+000  0.5466877E+02  0.7957747E-01  0.1421672E+00
         13   -1    0    0    0    0  0.00000000000E+00  0.00000000000E+00  0.99999944185E+02  0.10000000000E+03  0.10566000000E+00 0. -1.
         22   -1    0    0    0    0 -0.00000000000E+00 -0.00000000000E+00 -0.35451946143E+02  0.35451946143E+02  0.00000000000E+00 0.  1.
         13    1    1    2    0    0 -0.17719511617E+02 -0.13217150704E+02 -0.23213747776E+02  0.32055629997E+02  0.10566000000E+00 0.  1.
        996    1    1    2    0    0  0.17719511617E+02  0.13217150704E+02  0.87761745818E+02  0.10339631615E+03  0.50000000000E+02 0.  0.
<mgrwt>
<rscale>  0 0.54668768E+02</rscale>
<asrwt>0</asrwt>
<pdfrwt beam="1">  1       13 0.10000000E+01 0.54668768E+02</pdfrwt>
<pdfrwt beam="2">  1       22 0.35451964E+00 0.54668768E+02</pdfrwt>
<totfact> 0.15407345E-01</totfact>
</mgrwt>
</event>
<event>
 4    1  0.2516086E+000  0.5371091E+02  0.7957747E-01  0.1426295E+00
         13   -1    0    0    0    0  0.00000000000E+00  0.00000000000E+00  0.99999944173E+02  0.99999999993E+02  0.10566000000E+00 0. -1.
         22   -1    0    0    0    0 -0.00000000000E+00 -0.00000000000E+00 -0.19107479508E+02  0.19107479508E+02  0.00000000000E+00 0.  1.
         13    1    1    2    0    0  0.10701348805E+02 -0.16442100551E+02 -0.26422369947E+01  0.19795305433E+02  0.10566000000E+00 0.  1.
        996    1    1    2    0    0 -0.10701348805E+02  0.16442100551E+02  0.83534701660E+02  0.99312174068E+02  0.50000000000E+02 0.  0.
<mgrwt>
<rscale>  0 0.53710907E+02</rscale>
<asrwt>0</asrwt>
<pdfrwt beam="1">  1       13 0.10000000E+01 0.53710907E+02</pdfrwt>
<pdfrwt beam="2">  1       22 0.19107502E+00 0.53710907E+02</pdfrwt>
<totfact> 0.49453503E-01</totfact>
</mgrwt>
</event>
<event>
 4    1  0.2516086E+000  0.5150224E+02  0.7957747E-01  0.1437403E+00
         13   -1    0    0    0    0  0.00000000000E+00  0.00000000000E+00  0.99999944186E+02  0.10000000001E+03  0.10566000000E+00 0.  1.
         22   -1    0    0    0    0 -0.00000000000E+00 -0.00000000000E+00 -0.10396597900E+02  0.10396597900E+02  0.00000000000E+00 0. -1.
         13    1    1    2    0    0 -0.70640444923E+01 -0.10128196318E+02  0.11721527203E+02  0.17026052074E+02  0.10566000000E+00 0. -1.
        996    1    1    2    0    0  0.70640444923E+01  0.10128196318E+02  0.77881819084E+02  0.93370545832E+02  0.50000000000E+02 0.  0.
<mgrwt>
<rscale>  0 0.51502243E+02</rscale>
<asrwt>0</asrwt>
<pdfrwt beam="1">  1       13 0.10000000E+01 0.51502243E+02</pdfrwt>
<pdfrwt beam="2">  1       22 0.10396623E+00 0.51502243E+02</pdfrwt>
<totfact> 0.13305776E+00</totfact>
</mgrwt>
</event>
<event>
 4    1  0.2516086E+000  0.5468802E+02  0.7957747E-01  0.1421580E+00
         13   -1    0    0    0    0  0.00000000000E+00  0.00000000000E+00  0.99999944173E+02  0.99999999994E+02  0.10566000000E+00 0.  1.
         22   -1    0    0    0    0 -0.00000000000E+00 -0.00000000000E+00 -0.59362002264E+02  0.59362002264E+02  0.00000000000E+00 0. -1.
         13    1    1    2    0    0 -0.10618728770E+02  0.19442802283E+02 -0.49330216736E+02  0.54076440421E+02  0.10566000000E+00 0. -1.
        996    1    1    2    0    0  0.10618728770E+02 -0.19442802283E+02  0.89968158645E+02  0.10528556184E+03  0.50000000000E+02 0.  0.
<mgrwt>
<rscale>  0 0.54688024E+02</rscale>
<asrwt>0</asrwt>
<pdfrwt beam="1">  1       13 0.10000000E+01 0.54688024E+02</pdfrwt>
<pdfrwt beam="2">  1       22 0.59362014E+00 0.54688024E+02</pdfrwt>
<totfact> 0.61486655E-02</totfact>
</mgrwt>
</event>
<event>
 4    1  0.2516086E+000  0.6651687E+02  0.7957747E-01  0.1372355E+00
         13   -1    0    0    0    0  0.00000000000E+00  0.00000000000E+00  0.99999944171E+02  0.99999999992E+02  0.10566000000E+00 0.  1.
         22   -1    0    0    0    0 -0.00000000000E+00 -0.00000000000E+00 -0.34366516897E+02  0.34366516897E+02  0.00000000000E+00 0. -1.
         13    1    1    2    0    0  0.29608343030E+02 -0.32370366348E+02  0.46318102199E+01  0.44113030098E+02  0.10566000000E+00 0. -1.
        996    1    1    2    0    0 -0.29608343030E+02  0.32370366348E+02  0.61001617055E+02  0.90253486790E+02  0.50000000000E+02 0.  0.
<mgrwt>
<rscale>  0 0.66516875E+02</rscale>
<asrwt>0</asrwt>
<pdfrwt beam="1">  1       13 0.10000000E+01 0.66516875E+02</pdfrwt>
<pdfrwt beam="2">  1       22 0.34366535E+00 0.66516875E+02</pdfrwt>
<totfact> 0.16445961E-01</totfact>
</mgrwt>
</event>
<event>
 4    1  0.2516086E+000  0.5099361E+02  0.7957747E-01  0.1440055E+00
         13   -1    0    0    0    0  0.00000000000E+00  0.00000000000E+00  0.99999944182E+02  0.10000000000E+03  0.10566000000E+00 0.  1.
         22   -1    0    0    0    0 -0.00000000000E+00 -0.00000000000E+00 -0.93063943738E+01  0.93063943738E+01  0.00000000000E+00 0.  1.
         13    1    1    2    0    0 -0.16705496066E+01 -0.98771435892E+01  0.14632849053E+02  0.17733587819E+02  0.10566000000E+00 0. -1.
        996    1    1    2    0    0  0.16705496066E+01  0.98771435892E+01  0.76060700755E+02  0.91572806558E+02  0.50000000000E+02 0.  0.
<mgrwt>
<rscale>  0 0.50993614E+02</rscale>
<asrwt>0</asrwt>
<pdfrwt beam="1">  1       13 0.10000000E+01 0.50993614E+02</pdfrwt>
<pdfrwt beam="2">  1       22 0.93064197E-01 0.50993614E+02</pdfrwt>
<totfact> 0.15590936E+00</totfact>
</mgrwt>
</event>
<event>
 4    1  0.2516086E+000  0.8775590E+02  0.7957747E-01  0.1308379E+00
         13   -1    0    0    0    0  0.00000000000E+00  0.00000000000E+00  0.99999944180E+02  0.10000000000E+03  0.10566000000E+00 0. -1.
         22   -1    0    0    0    0 -0.00000000000E+00 -0.00000000000E+00 -0.65153192539E+02  0.65153192539E+02  0.00000000000E+00 0.  1.
         13    1    1    2    0    0 -0.61860500050E+02  0.37072580865E+02  0.43521361169E+01  0.72249913296E+02  0.10566000000E+00 0.  1.
        996    1    1    2    0    0  0.61860500050E+02 -0.37072580865E+02  0.30494615524E+02  0.92903279244E+02  0.50000000000E+02 0.  0.
<mgrwt>
<rscale>  0 0.87755898E+02</rscale>
<asrwt>0</asrwt>
<pdfrwt beam="1">  1       13 0.10000000E+01 0.87755898E+02</pdfrwt>
<pdfrwt beam="2">  1       22 0.65153202E+00 0.87755898E+02</pdfrwt>
<totfact> 0.86697290E-02</totfact>
</mgrwt>
</event>
<event>
 4    1  0.2516086E+000  0.5308191E+02  0.7957747E-01  0.1429394E+00
         13   -1    0    0    0    0  0.00000000000E+00  0.00000000000E+00  0.99999944181E+02  0.10000000000E+03  0.10566000000E+00 0.  1.
         22   -1    0    0    0    0 -0.00000000000E+00 -0.00000000000E+00 -0.14111228042E+02  0.14111228042E+02  0.00000000000E+00 0.  1.
         13    1    1    2    0    0 -0.14905306561E+02  0.97734918591E+01  0.40579239185E+02  0.44321271683E+02  0.10566000000E+00 0. -1.
        996    1    1    2    0    0  0.14905306561E+02 -0.97734918591E+01  0.45309476955E+02  0.69789956360E+02  0.50000000000E+02 0.  0.
<mgrwt>
<rscale>  0 0.53081911E+02</rscale>
<asrwt>0</asrwt>
<pdfrwt beam="1">  1       13 0.10000000E+01 0.53081911E+02</pdfrwt>
<pdfrwt beam="2">  1       22 0.14111252E+00 0.53081911E+02</pdfrwt>
<totfact> 0.83438256E-01</totfact>
</mgrwt>
</event>
<event>
 4    1  0.2516086E+000  0.5315156E+02  0.7957747E-01  0.1429048E+00
         13   -1    0    0    0    0  0.00000000000E+00  0.00000000000E+00  0.99999944173E+02  0.99999999993E+02  0.10566000000E+00 0.  1.
         22   -1    0    0    0    0 -0.00000000000E+00 -0.00000000000E+00 -0.21499412356E+02  0.21499412356E+02  0.00000000000E+00 0. -1.
         13    1    1    2    0    0 -0.15293442563E+01 -0.17965237428E+02 -0.81967389523E+01  0.19806219811E+02  0.10566000000E+00 0. -1.
        996    1    1    2    0    0  0.15293442563E+01  0.17965237428E+02  0.86697270770E+02  0.10169319254E+03  0.50000000000E+02 0.  0.
<mgrwt>
<rscale>  0 0.53151563E+02</rscale>
<asrwt>0</asrwt>
<pdfrwt beam="1">  1       13 0.10000000E+01 0.53151563E+02</pdfrwt>
<pdfrwt beam="2">  1       22 0.21499434E+00 0.53151563E+02</pdfrwt>
<totfact> 0.39604423E-01</totfact>
</mgrwt>
</event>
<event>
 4    1  0.2516086E+000  0.5335843E+02  0.7957747E-01  0.1428025E+00
         13   -1    0    0    0    0  0.00000000000E+00  0.00000000000E+00  0.99999944183E+02  0.10000000000E+03  0.10566000000E+00 0. -1.
         22   -1    0    0    0    0 -0.00000000000E+00 -0.00000000000E+00 -0.13823279032E+02  0.13823279032E+02  0.00000000000E+00 0.  1.
         13    1    1    2    0    0  0.11626580634E+02  0.14558326061E+02  0.11004078035E+02  0.21638464187E+02  0.10566000000E+00 0.  1.
        996    1    1    2    0    0 -0.11626580634E+02 -0.14558326061E+02  0.75172587115E+02  0.92184814848E+02  0.50000000000E+02 0.  0.
<mgrwt>
<rscale>  0 0.53358432E+02</rscale>
<asrwt>0</asrwt>
<pdfrwt beam="1">  1       13 0.10000000E+01 0.53358432E+02</pdfrwt>
<pdfrwt beam="2">  1       22 0.13823303E+00 0.53358432E+02</pdfrwt>
<totfact> 0.86321341E-01</totfact>
</mgrwt>
</event>
<event>
 4    1  0.2516086E+000  0.5837476E+02  0.7957747E-01  0.1404781E+00
         13   -1    0    0    0    0  0.00000000000E+00  0.00000000000E+00  0.99999944185E+02  0.10000000001E+03  0.10566000000E+00 0.  1.
         22   -1    0    0    0    0 -0.00000000000E+00 -0.00000000000E+00 -0.23497792659E+02  0.23497792659E+02  0.00000000000E+00 0. -1.
         13    1    1    2    0    0  0.25749708762E+02  0.15638586349E+02  0.39613280488E+01  0.30386118019E+02  0.10566000000E+00 0. -1.
        996    1    1    2    0    0 -0.25749708762E+02 -0.15638586349E+02  0.72540823478E+02  0.93111674645E+02  0.50000000000E+02 0.  0.
<mgrwt>
<rscale>  0 0.58374762E+02</rscale>
<asrwt>0</asrwt>
<pdfrwt beam="1">  1       13 0.10000000E+01 0.58374762E+02</pdfrwt>
<pdfrwt beam="2">  1       22 0.23497814E+00 0.58374762E+02</pdfrwt>
<totfact> 0.33616375E-01</totfact>
</mgrwt>
</event>
<event>
 4    1  0.2516086E+000  0.5426687E+02  0.7957747E-01  0.1423598E+00
         13   -1    0    0    0    0  0.00000000000E+00  0.00000000000E+00  0.99999944185E+02  0.10000000001E+03  0.10566000000E+00 0.  1.
         22   -1    0    0    0    0 -0.00000000000E+00 -0.00000000000E+00 -0.16813528607E+02  0.16813528607E+02  0.00000000000E+00 0.  1.
         13    1    1    2    0    0 -0.20431819006E+02 -0.52377673673E+01  0.47200835307E+02  0.51699356404E+02  0.10566000000E+00 0. -1.
        996    1    1    2    0    0  0.20431819006E+02  0.52377673673E+01  0.35985580272E+02  0.65114172208E+02  0.50000000000E+02 0.  0.
<mgrwt>
<rscale>  0 0.54266872E+02</rscale>
<asrwt>0</asrwt>
<pdfrwt beam="1">  1       13 0.10000000E+01 0.54266872E+02</pdfrwt>
<pdfrwt beam="2">  1       22 0.16813552E+00 0.54266872E+02</pdfrwt>
<totfact> 0.62250085E-01</totfact>
</mgrwt>
</event>
<event>
 4    1  0.2516086E+000  0.5335643E+02  0.7957747E-01  0.1428035E+00
         13   -1    0    0    0    0  0.00000000000E+00  0.00000000000E+00  0.99999944174E+02  0.99999999994E+02  0.10566000000E+00 0.  1.
         22   -1    0    0    0    0 -0.00000000000E+00 -0.00000000000E+00 -0.16488390843E+02  0.16488390843E+02  0.00000000000E+00 0. -1.
         13    1    1    2    0    0 -0.11212758740E+02 -0.14872198400E+02  0.15507421132E+01  0.18690216932E+02  0.10566000000E+00 0. -1.
        996    1    1    2    0    0  0.11212758740E+02  0.14872198400E+02  0.81960811218E+02  0.97798173906E+02  0.50000000000E+02 0.  0.
<mgrwt>
<rscale>  0 0.53356426E+02</rscale>
<asrwt>0</asrwt>
<pdfrwt beam="1">  1       13 0.10000000E+01 0.53356426E+02</pdfrwt>
<pdfrwt beam="2">  1       22 0.16488414E+00 0.53356426E+02</pdfrwt>
<totfact> 0.64289903E-01</totfact>
</mgrwt>
</event>
<event>
 4    1  0.2516086E+000  0.5215747E+02  0.7957747E-01  0.1434040E+00
         13   -1    0    0    0    0  0.00000000000E+00  0.00000000000E+00  0.99999944175E+02  0.99999999996E+02  0.10566000000E+00 0.  1.
         22   -1    0    0    0    0 -0.00000000000E+00 -0.00000000000E+00 -0.11613036886E+02  0.11613036886E+02  0.00000000000E+00 0.  1.
         13    1    1    2    0    0 -0.14466887558E+02 -0.33333268058E+01  0.28959786770E+02  0.32543544936E+02  0.10566000000E+00 0. -1.
        996    1    1    2    0    0  0.14466887558E+02  0.33333268058E+01  0.59427120520E+02  0.79069491945E+02  0.50000000000E+02 0.  0.
<mgrwt>
<rscale>  0 0.52157472E+02</rscale>
<asrwt>0</asrwt>
<pdfrwt beam="1">  1       13 0.10000000E+01 0.52157472E+02</pdfrwt>
<pdfrwt beam="2">  1       22 0.11613062E+00 0.52157472E+02</pdfrwt>
<totfact> 0.11303390E+00</totfact>
</mgrwt>
</event>
<event>
 4    1  0.2516086E+000  0.5151362E+02  0.7957747E-01  0.1437344E+00
         13   -1    0    0    0    0  0.00000000000E+00  0.00000000000E+00  0.99999944176E+02  0.99999999997E+02  0.10566000000E+00 0.  1.
         22   -1    0    0    0    0 -0.00000000000E+00 -0.00000000000E+00 -0.10515320574E+02  0.10515320574E+02  0.00000000000E+00 0.  1.
         13    1    1    2    0    0  0.12003694394E+02  0.30926118094E+01  0.10652410301E+02  0.16344354871E+02  0.10566000000E+00 0. -1.
        996    1    1    2    0    0 -0.12003694394E+02 -0.30926118094E+01  0.78832213301E+02  0.94170965700E+02  0.50000000000E+02 0.  0.
<mgrwt>
<rscale>  0 0.51513619E+02</rscale>
<asrwt>0</asrwt>
<pdfrwt beam="1">  1       13 0.10000000E+01 0.51513619E+02</pdfrwt>
<pdfrwt beam="2">  1       22 0.10515346E+00 0.51513619E+02</pdfrwt>
<totfact> 0.13086486E+00</totfact>
</mgrwt>
</event>
<event>
 4    1  0.2516086E+000  0.5337974E+02  0.7957747E-01  0.1427920E+00
         13   -1    0    0    0    0  0.00000000000E+00  0.00000000000E+00  0.99999944182E+02  0.10000000000E+03  0.10566000000E+00 0.  1.
         22   -1    0    0    0    0 -0.00000000000E+00 -0.00000000000E+00 -0.63453200625E+02  0.63453200625E+02  0.00000000000E+00 0. -1.
         13    1    1    2    0    0  0.89918554012E+01  0.16387300264E+02 -0.54663471093E+02  0.57771128684E+02  0.10566000000E+00 0. -1.
        996    1    1    2    0    0 -0.89918554012E+01 -0.16387300264E+02  0.91210214650E+02  0.10568207194E+03  0.50000000000E+02 0.  0.
<mgrwt>
<rscale>  0 0.53379744E+02</rscale>
<asrwt>0</asrwt>
<pdfrwt beam="1">  1       13 0.10000000E+01 0.53379744E+02</pdfrwt>
<pdfrwt beam="2">  1       22 0.63453211E+00 0.53379744E+02</pdfrwt>
<totfact> 0.81034908E-02</totfact>
</mgrwt>
</event>
<event>
 4    1  0.2516086E+000  0.5759431E+02  0.7957747E-01  0.1408214E+00
         13   -1    0    0    0    0  0.00000000000E+00  0.00000000000E+00  0.99999944183E+02  0.10000000000E+03  0.10566000000E+00 0. -1.
         22   -1    0    0    0    0 -0.00000000000E+00 -0.00000000000E+00 -0.26905372726E+02  0.26905372726E+02  0.00000000000E+00 0.  1.
         13    1    1    2    0    0  0.35501593673E+01 -0.28363730987E+02 -0.58568318844E+01  0.29179076592E+02  0.10566000000E+00 0.  1.
        996    1    1    2    0    0 -0.35501593673E+01  0.28363730987E+02  0.78951403342E+02  0.97726296137E+02  0.50000000000E+02 0.  0.
<mgrwt>
<rscale>  0 0.57594313E+02</rscale>
<asrwt>0</asrwt>
<pdfrwt beam="1">  1       13 0.10000000E+01 0.57594313E+02</pdfrwt>
<pdfrwt beam="2">  1       22 0.26905393E+00 0.57594313E+02</pdfrwt>
<totfact> 0.25717675E-01</totfact>
</mgrwt>
</event>
<event>
 4    1  0.2516086E+000  0.5128975E+02  0.7957747E-01  0.1438507E+00
         13   -1    0    0    0    0  0.00000000000E+00  0.00000000000E+00  0.99999944182E+02  0.10000000000E+03  0.10566000000E+00 0. -1.
         22   -1    0    0    0    0 -0.00000000000E+00 -0.00000000000E+00 -0.10119540455E+02  0.10119540455E+02  0.00000000000E+00 0. -1.
         13    1    1    2    0    0  0.10312567441E+02 -0.49284001219E+01  0.99815379529E+01  0.15174993869E+02  0.10566000000E+00 0.  1.
        996    1    1    2    0    0 -0.10312567441E+02  0.49284001219E+01  0.79898865774E+02  0.94944546589E+02  0.50000000000E+02 0.  0.
<mgrwt>
<rscale>  0 0.51289747E+02</rscale>
<asrwt>0</asrwt>
<pdfrwt beam="1">  1       13 0.10000000E+01 0.51289747E+02</pdfrwt>
<pdfrwt beam="2">  1       22 0.10119566E+00 0.51289747E+02</pdfrwt>
<totfact> 0.13833202E+00</totfact>
</mgrwt>
</event>
<event>
 4    1  0.2516086E+000  0.5330172E+02  0.7957747E-01  0.1428305E+00
         13   -1    0    0    0    0  0.00000000000E+00  0.00000000000E+00  0.99999944200E+02  0.10000000002E+03  0.10566000000E+00 0. -1.
         22   -1    0    0    0    0 -0.00000000000E+00 -0.00000000000E+00 -0.90191592192E+02  0.90191592192E+02  0.00000000000E+00 0.  1.
         13    1    1    2    0    0 -0.18183158973E+02 -0.32319862698E+01 -0.81988047935E+02  0.84042395098E+02  0.10566000000E+00 0.  1.
        996    1    1    2    0    0  0.18183158973E+02  0.32319862698E+01  0.91796399944E+02  0.10614919711E+03  0.50000000000E+02 0.  0.
<mgrwt>
<rscale>  0 0.53301717E+02</rscale>
<asrwt>0</asrwt>
<pdfrwt beam="1">  1       13 0.10000000E+01 0.53301717E+02</pdfrwt>
<pdfrwt beam="2">  1       22 0.90191595E+00 0.53301717E+02</pdfrwt>
<totfact> 0.10120392E-02</totfact>
</mgrwt>
</event>
<event>
 4    1  0.2516086E+000  0.5106801E+02  0.7957747E-01  0.1439665E+00
         13   -1    0    0    0    0  0.00000000000E+00  0.00000000000E+00  0.99999944180E+02  0.10000000000E+03  0.10566000000E+00 0.  1.
         22   -1    0    0    0    0 -0.00000000000E+00 -0.00000000000E+00 -0.14178932198E+02  0.14178932198E+02  0.00000000000E+00 0. -1.
         13    1    1    2    0    0  0.44338661892E+01  0.93958515824E+01 -0.37720051114E+01  0.11053523553E+02  0.10566000000E+00 0. -1.
        996    1    1    2    0    0 -0.44338661892E+01 -0.93958515824E+01  0.89593017094E+02  0.10312540865E+03  0.50000000000E+02 0.  0.
<mgrwt>
<rscale>  0 0.51068006E+02</rscale>
<asrwt>0</asrwt>
<pdfrwt beam="1">  1       13 0.10000000E+01 0.51068006E+02</pdfrwt>
<pdfrwt beam="2">  1       22 0.14178956E+00 0.51068006E+02</pdfrwt>
<totfact> 0.82443158E-01</totfact>
</mgrwt>
</event>
<event>
 4    1  0.2516086E+000  0.5246047E+02  0.7957747E-01  0.1432505E+00
         13   -1    0    0    0    0  0.00000000000E+00  0.00000000000E+00  0.99999944177E+02  0.99999999997E+02  0.10566000000E+00 0. -1.
         22   -1    0    0    0    0 -0.00000000000E+00 -0.00000000000E+00 -0.15082560757E+02  0.15082560757E+02  0.00000000000E+00 0.  1.
         13    1    1    2    0    0 -0.85562207857E+01  0.13375060024E+02  0.73884528058E+00  0.15895225735E+02  0.10566000000E+00 0.  1.
        996    1    1    2    0    0  0.85562207857E+01 -0.13375060024E+02  0.84178538139E+02  0.99187335019E+02  0.50000000000E+02 0.  0.
<mgrwt>
<rscale>  0 0.52460472E+02</rscale>
<asrwt>0</asrwt>
<pdfrwt beam="1">  1       13 0.10000000E+01 0.52460472E+02</pdfrwt>
<pdfrwt beam="2">  1       22 0.15082584E+00 0.52460472E+02</pdfrwt>
<totfact> 0.74676464E-01</totfact>
</mgrwt>
</event>
<event>
 4    1  0.2516086E+000  0.5485486E+02  0.7957747E-01  0.1420787E+00
         13   -1    0    0    0    0  0.00000000000E+00  0.00000000000E+00  0.99999944182E+02  0.10000000000E+03  0.10566000000E+00 0. -1.
         22   -1    0    0    0    0 -0.00000000000E+00 -0.00000000000E+00 -0.25237632816E+02  0.25237632816E+02  0.00000000000E+00 0.  1.
         13    1    1    2    0    0 -0.10166442478E+02  0.20141965552E+02 -0.96726196502E+01  0.24548443207E+02  0.10566000000E+00 0.  1.
        996    1    1    2    0    0  0.10166442478E+02 -0.20141965552E+02  0.84434931017E+02  0.10068918961E+03  0.50000000000E+02 0.  0.
<mgrwt>
<rscale>  0 0.54854857E+02</rscale>
<asrwt>0</asrwt>
<pdfrwt beam="1">  1       13 0.10000000E+01 0.54854857E+02</pdfrwt>
<pdfrwt beam="2">  1       22 0.25237654E+00 0.54854857E+02</pdfrwt>
<totfact> 0.29061078E-01</totfact>
</mgrwt>
</event>
<event>
 4    1  0.2516086E+000  0.5595915E+02  0.7957747E-01  0.1415617E+00
         13   -1    0    0    0    0  0.00000000000E+00  0.00000000000E+00  0.99999944182E+02  0.10000000000E+03  0.10566000000E+00 0.  1.
         22   -1    0    0    0    0 -0.00000000000E+00 -0.00000000000E+00 -0.22517855876E+02  0.22517855876E+02  0.00000000000E+00 0. -1.
         13    1    1    2    0    0 -0.52314652947E+01 -0.24577593475E+02 -0.21166018692E+01  0.25217404657E+02  0.10566000000E+00 0. -1.
        996    1    1    2    0    0  0.52314652947E+01  0.24577593475E+02  0.79598690175E+02  0.97300451221E+02  0.50000000000E+02 0.  0.
<mgrwt>
<rscale>  0 0.55959149E+02</rscale>
<asrwt>0</asrwt>
<pdfrwt beam="1">  1       13 0.10000000E+01 0.55959149E+02</pdfrwt>
<pdfrwt beam="2">  1       22 0.22517878E+00 0.55959149E+02</pdfrwt>
<totfact> 0.36393880E-01</totfact>
</mgrwt>
</event>
<event>
 4    1  0.2516086E+000  0.5152344E+02  0.7957747E-01  0.1437294E+00
         13   -1    0    0    0    0  0.00000000000E+00  0.00000000000E+00  0.99999944178E+02  0.99999999998E+02  0.10566000000E+00 0.  1.
         22   -1    0    0    0    0 -0.00000000000E+00 -0.00000000000E+00 -0.15347320870E+02  0.15347320870E+02  0.00000000000E+00 0.  1.
         13    1    1    2    0    0  0.12431233154E+02 -0.36011154154E+00 -0.37810876086E+01  0.12998962481E+02  0.10566000000E+00 0. -1.
        996    1    1    2    0    0 -0.12431233154E+02  0.36011154154E+00  0.88433710917E+02  0.10234835839E+03  0.50000000000E+02 0.  0.
<mgrwt>
<rscale>  0 0.51523444E+02</rscale>
<asrwt>0</asrwt>
<pdfrwt beam="1">  1       13 0.10000000E+01 0.51523444E+02</pdfrwt>
<pdfrwt beam="2">  1       22 0.15347345E+00 0.51523444E+02</pdfrwt>
<totfact> 0.72393797E-01</totfact>
</mgrwt>
</event>
<event>
 4    1  0.2516086E+000  0.5997900E+02  0.7957747E-01  0.1397920E+00
         13   -1    0    0    0    0  0.00000000000E+00  0.00000000000E+00  0.99999944184E+02  0.10000000000E+03  0.10566000000E+00 0. -1.
         22   -1    0    0    0    0 -0.00000000000E+00 -0.00000000000E+00 -0.30014619752E+02  0.30014619752E+02  0.00000000000E+00 0.  1.
         13    1    1    2    0    0 -0.16387046652E+01 -0.33087678863E+02 -0.55206093376E+01  0.33585236891E+02  0.10566000000E+00 0.  1.
        996    1    1    2    0    0  0.16387046652E+01  0.33087678863E+02  0.75505933769E+02  0.96429382866E+02  0.50000000000E+02 0.  0.
<mgrwt>
<rscale>  0 0.59978995E+02</rscale>
<asrwt>0</asrwt>
<pdfrwt beam="1">  1       13 0.10000000E+01 0.59978995E+02</pdfrwt>
<pdfrwt beam="2">  1       22 0.30014639E+00 0.59978995E+02</pdfrwt>
<totfact> 0.20886648E-01</totfact>
</mgrwt>
</event>
<event>
 4    1  0.2516086E+000  0.5227473E+02  0.7957747E-01  0.1433445E+00
         13   -1    0    0    0    0  0.00000000000E+00  0.00000000000E+00  0.99999944177E+02  0.99999999997E+02  0.10566000000E+00 0. -1.
         22   -1    0    0    0    0 -0.00000000000E+00 -0.00000000000E+00 -0.23593694194E+02  0.23593694194E+02  0.00000000000E+00 0.  1.
         13    1    1    2    0    0 -0.15244806954E+02 -0.49335790628E+00 -0.12990251048E+02  0.20035102381E+02  0.10566000000E+00 0.  1.
        996    1    1    2    0    0  0.15244806954E+02  0.49335790628E+00  0.89396501031E+02  0.10355859181E+03  0.50000000000E+02 0.  0.
<mgrwt>
<rscale>  0 0.52274731E+02</rscale>
<asrwt>0</asrwt>
<pdfrwt beam="1">  1       13 0.10000000E+01 0.52274731E+02</pdfrwt>
<pdfrwt beam="2">  1       22 0.23593716E+00 0.52274731E+02</pdfrwt>
<totfact> 0.33039261E-01</totfact>
</mgrwt>
</event>
<event>
 4    1  0.2516086E+000  0.5300512E+02  0.7957747E-01  0.1429775E+00
         13   -1    0    0    0    0  0.00000000000E+00  0.00000000000E+00  0.99999944177E+02  0.99999999997E+02  0.10566000000E+00 0.  1.
         22   -1    0    0    0    0 -0.00000000000E+00 -0.00000000000E+00 -0.14771532396E+02  0.14771532396E+02  0.00000000000E+00 0. -1.
         13    1    1    2    0    0  0.13342297654E+02 -0.11468472501E+02  0.44379408965E+01  0.18145226690E+02  0.10566000000E+00 0. -1.
        996    1    1    2    0    0 -0.13342297654E+02  0.11468472501E+02  0.80790470884E+02  0.96626305703E+02  0.50000000000E+02 0.  0.
<mgrwt>
<rscale>  0 0.53005120E+02</rscale>
<asrwt>0</asrwt>
<pdfrwt beam="1">  1       13 0.10000000E+01 0.53005120E+02</pdfrwt>
<pdfrwt beam="2">  1       22 0.14771556E+00 0.53005120E+02</pdfrwt>
<totfact> 0.77393614E-01</totfact>
</mgrwt>
</event>
<event>
 4    1  0.2516086E+000  0.5403852E+02  0.7957747E-01  0.1424701E+00
         13   -1    0    0    0    0  0.00000000000E+00  0.00000000000E+00  0.99999944178E+02  0.99999999998E+02  0.10566000000E+00 0. -1.
         22   -1    0    0    0    0 -0.00000000000E+00 -0.00000000000E+00 -0.58958744282E+02  0.58958744282E+02  0.00000000000E+00 0.  1.
         13    1    1    2    0    0  0.20496872582E+02 -0.20072066091E+00 -0.49466955785E+02  0.53545802385E+02  0.10566000000E+00 0.  1.
        996    1    1    2    0    0 -0.20496872582E+02  0.20072066091E+00  0.90508155680E+02  0.10541294190E+03  0.50000000000E+02 0.  0.
<mgrwt>
<rscale>  0 0.54038524E+02</rscale>
<asrwt>0</asrwt>
<pdfrwt beam="1">  1       13 0.10000000E+01 0.54038524E+02</pdfrwt>
<pdfrwt beam="2">  1       22 0.58958756E+00 0.54038524E+02</pdfrwt>
<totfact> 0.60324919E-02</totfact>
</mgrwt>
</event>
<event>
 4    1  0.2516086E+000  0.5460267E+02  0.7957747E-01  0.1421987E+00
         13   -1    0    0    0    0  0.00000000000E+00  0.00000000000E+00  0.99999944185E+02  0.10000000001E+03  0.10566000000E+00 0. -1.
         22   -1    0    0    0    0 -0.00000000000E+00 -0.00000000000E+00 -0.16334378921E+02  0.16334378921E+02  0.00000000000E+00 0. -1.
         13    1    1    2    0    0  0.20627175003E+02 -0.74813607270E+01  0.87291895404E+01  0.23614847469E+02  0.10566000000E+00 0.  1.
        996    1    1    2    0    0 -0.20627175003E+02  0.74813607270E+01  0.74936375724E+02  0.92719531457E+02  0.50000000000E+02 0.  0.
<mgrwt>
<rscale>  0 0.54602666E+02</rscale>
<asrwt>0</asrwt>
<pdfrwt beam="1">  1       13 0.10000000E+01 0.54602666E+02</pdfrwt>
<pdfrwt beam="2">  1       22 0.16334402E+00 0.54602666E+02</pdfrwt>
<totfact> 0.65495552E-01</totfact>
</mgrwt>
</event>
<event>
 4    1  0.2516086E+000  0.5250946E+02  0.7957747E-01  0.1432258E+00
         13   -1    0    0    0    0  0.00000000000E+00  0.00000000000E+00  0.99999944176E+02  0.99999999996E+02  0.10566000000E+00 0. -1.
         22   -1    0    0    0    0 -0.00000000000E+00 -0.00000000000E+00 -0.12477609142E+02  0.12477609142E+02  0.00000000000E+00 0. -1.
         13    1    1    2    0    0  0.18868879707E+01 -0.15927428667E+02  0.10188449817E+02  0.19001552670E+02  0.10566000000E+00 0.  1.
        996    1    1    2    0    0 -0.18868879707E+01  0.15927428667E+02  0.77333885216E+02  0.93476056468E+02  0.50000000000E+02 0.  0.
<mgrwt>
<rscale>  0 0.52509459E+02</rscale>
<asrwt>0</asrwt>
<pdfrwt beam="1">  1       13 0.10000000E+01 0.52509459E+02</pdfrwt>
<pdfrwt beam="2">  1       22 0.12477634E+00 0.52509459E+02</pdfrwt>
<totfact> 0.10132789E+00</totfact>
</mgrwt>
</event>
<event>
 4    1  0.2516086E+000  0.5570185E+02  0.7957747E-01  0.1416809E+00
         13   -1    0    0    0    0  0.00000000000E+00  0.00000000000E+00  0.99999944176E+02  0.99999999996E+02  0.10566000000E+00 0. -1.
         22   -1    0    0    0    0 -0.00000000000E+00 -0.00000000000E+00 -0.16178795611E+02  0.16178795611E+02  0.00000000000E+00 0.  1.
         13    1    1    2    0    0 -0.24525712583E+02  0.10889734123E+01  0.22004490116E+02  0.32968245178E+02  0.10566000000E+00 0.  1.
        996    1    1    2    0    0  0.24525712583E+02 -0.10889734123E+01  0.61816658449E+02  0.83210550428E+02  0.50000000000E+02 0.  0.
<mgrwt>
<rscale>  0 0.55701853E+02</rscale>
<asrwt>0</asrwt>
<pdfrwt beam="1">  1       13 0.10000000E+01 0.55701853E+02</pdfrwt>
<pdfrwt beam="2">  1       22 0.16178819E+00 0.55701853E+02</pdfrwt>
<totfact> 0.66720396E-01</totfact>
</mgrwt>
</event>
<event>
 4    1  0.2516086E+000  0.5764312E+02  0.7957747E-01  0.1407997E+00
         13   -1    0    0    0    0  0.00000000000E+00  0.00000000000E+00  0.99999944183E+02  0.10000000000E+03  0.10566000000E+00 0.  1.
         22   -1    0    0    0    0 -0.00000000000E+00 -0.00000000000E+00 -0.27300461031E+02  0.27300461031E+02  0.00000000000E+00 0. -1.
         13    1    1    2    0    0  0.27104712257E+02 -0.93842543602E+01 -0.64360111721E+01  0.29396650494E+02  0.10566000000E+00 0. -1.
        996    1    1    2    0    0 -0.27104712257E+02  0.93842543602E+01  0.79135494323E+02  0.97903810540E+02  0.50000000000E+02 0.  0.
<mgrwt>
<rscale>  0 0.57643123E+02</rscale>
<asrwt>0</asrwt>
<pdfrwt beam="1">  1       13 0.10000000E+01 0.57643123E+02</pdfrwt>
<pdfrwt beam="2">  1       22 0.27300481E+00 0.57643123E+02</pdfrwt>
<totfact> 0.24994665E-01</totfact>
</mgrwt>
</event>
<event>
 4    1  0.2516086E+000  0.5167292E+02  0.7957747E-01  0.1436522E+00
         13   -1    0    0    0    0  0.00000000000E+00  0.00000000000E+00  0.99999944176E+02  0.99999999996E+02  0.10566000000E+00 0. -1.
         22   -1    0    0    0    0 -0.00000000000E+00 -0.00000000000E+00 -0.10593825140E+02  0.10593825140E+02  0.00000000000E+00 0. -1.
         13    1    1    2    0    0  0.61106725554E+01  0.11521725166E+02  0.13520531176E+02  0.18785803076E+02  0.10566000000E+00 0.  1.
        996    1    1    2    0    0 -0.61106725554E+01 -0.11521725166E+02  0.75885587860E+02  0.91808022061E+02  0.50000000000E+02 0.  0.
<mgrwt>
<rscale>  0 0.51672918E+02</rscale>
<asrwt>0</asrwt>
<pdfrwt beam="1">  1       13 0.10000000E+01 0.51672918E+02</pdfrwt>
<pdfrwt beam="2">  1       22 0.10593850E+00 0.51672918E+02</pdfrwt>
<totfact> 0.12949070E+00</totfact>
</mgrwt>
</event>
<event>
 4    1  0.2516086E+000  0.5160644E+02  0.7957747E-01  0.1436865E+00
         13   -1    0    0    0    0  0.00000000000E+00  0.00000000000E+00  0.99999944179E+02  0.10000000000E+03  0.10566000000E+00 0. -1.
         22   -1    0    0    0    0 -0.00000000000E+00 -0.00000000000E+00 -0.43864225577E+02  0.43864225577E+02  0.00000000000E+00 0.  1.
         13    1    1    2    0    0 -0.76577133875E+00  0.12752966839E+02 -0.36033186527E+02  0.38231221067E+02  0.10566000000E+00 0.  1.
        996    1    1    2    0    0  0.76577133875E+00 -0.12752966839E+02  0.92168905129E+02  0.10563300451E+03  0.50000000000E+02 0.  0.
<mgrwt>
<rscale>  0 0.51606439E+02</rscale>
<asrwt>0</asrwt>
<pdfrwt beam="1">  1       13 0.10000000E+01 0.51606439E+02</pdfrwt>
<pdfrwt beam="2">  1       22 0.43864241E+00 0.51606439E+02</pdfrwt>
<totfact> 0.10239283E-01</totfact>
</mgrwt>
</event>
<event>
 4    1  0.2516086E+000  0.5194285E+02  0.7957747E-01  0.1435135E+00
         13   -1    0    0    0    0  0.00000000000E+00  0.00000000000E+00  0.99999944186E+02  0.10000000001E+03  0.10566000000E+00 0. -1.
         22   -1    0    0    0    0 -0.00000000000E+00 -0.00000000000E+00 -0.18617198021E+02  0.18617198021E+02  0.00000000000E+00 0.  1.
         13    1    1    2    0    0  0.18776047870E+01 -0.13947551532E+02 -0.72908497597E+01  0.15850149770E+02  0.10566000000E+00 0.  1.
        996    1    1    2    0    0 -0.18776047870E+01  0.13947551532E+02  0.88673595924E+02  0.10276704826E+03  0.50000000000E+02 0.  0.
<mgrwt>
<rscale>  0 0.51942849E+02</rscale>
<asrwt>0</asrwt>
<pdfrwt beam="1">  1       13 0.10000000E+01 0.51942849E+02</pdfrwt>
<pdfrwt beam="2">  1       22 0.18617221E+00 0.51942849E+02</pdfrwt>
<totfact> 0.51691624E-01</totfact>
</mgrwt>
</event>
<event>
 4    1  0.2516086E+000  0.5266548E+02  0.7957747E-01  0.1431473E+00
         13   -1    0    0    0    0  0.00000000000E+00  0.00000000000E+00  0.99999944188E+02  0.10000000001E+03  0.10566000000E+00 0. -1.
         22   -1    0    0    0    0 -0.00000000000E+00 -0.00000000000E+00 -0.26124759999E+02  0.26124759999E+02  0.00000000000E+00 0.  1.
         13    1    1    2    0    0  0.10334411660E+01 -0.16510144210E+02 -0.15316622814E+02  0.22544688087E+02  0.10566000000E+00 0.  1.
        996    1    1    2    0    0 -0.10334411660E+01  0.16510144210E+02  0.89191807004E+02  0.10358007192E+03  0.50000000000E+02 0.  0.
<mgrwt>
<rscale>  0 0.52665481E+02</rscale>
<asrwt>0</asrwt>
<pdfrwt beam="1">  1       13 0.10000000E+01 0.52665481E+02</pdfrwt>
<pdfrwt beam="2">  1       22 0.26124781E+00 0.52665481E+02</pdfrwt>
<totfact> 0.27061362E-01</totfact>
</mgrwt>
</event>
<event>
 4    1  0.2516086E+000  0.5525806E+02  0.7957747E-01  0.1418882E+00
         13   -1    0    0    0    0  0.00000000000E+00  0.00000000000E+00  0.99999944181E+02  0.10000000000E+03  0.10566000000E+00 0. -1.
         22   -1    0    0    0    0 -0.00000000000E+00 -0.00000000000E+00 -0.20875741008E+02  0.20875741008E+02  0.00000000000E+00 0.  1.
         13    1    1    2    0    0 -0.22975114218E+02 -0.50593250929E+01 -0.99722557574E+00  0.23546937521E+02  0.10566000000E+00 0.  1.
        996    1    1    2    0    0  0.22975114218E+02  0.50593250929E+01  0.80121428749E+02  0.97328803489E+02  0.50000000000E+02 0.  0.
<mgrwt>
<rscale>  0 0.55258055E+02</rscale>
<asrwt>0</asrwt>
<pdfrwt beam="1">  1       13 0.10000000E+01 0.55258055E+02</pdfrwt>
<pdfrwt beam="2">  1       22 0.20875763E+00 0.55258055E+02</pdfrwt>
<totfact> 0.42034201E-01</totfact>
</mgrwt>
</event>
<event>
 4    1  0.2516086E+000  0.5134660E+02  0.7957747E-01  0.1438211E+00
         13   -1    0    0    0    0  0.00000000000E+00  0.00000000000E+00  0.99999944187E+02  0.10000000001E+03  0.10566000000E+00 0.  1.
         22   -1    0    0    0    0 -0.00000000000E+00 -0.00000000000E+00 -0.37146487439E+02  0.37146487439E+02  0.00000000000E+00 0. -1.
         13    1    1    2    0    0  0.44200714990E+01  0.10813698143E+02 -0.29361280234E+02  0.31600143047E+02  0.10566000000E+00 0. -1.
        996    1    1    2    0    0 -0.44200714990E+01 -0.10813698143E+02  0.92214736981E+02  0.10554634440E+03  0.50000000000E+02 0.  0.
<mgrwt>
<rscale>  0 0.51346598E+02</rscale>
<asrwt>0</asrwt>
<pdfrwt beam="1">  1       13 0.10000000E+01 0.51346598E+02</pdfrwt>
<pdfrwt beam="2">  1       22 0.37146505E+00 0.51346598E+02</pdfrwt>
<totfact> 0.14148599E-01</totfact>
</mgrwt>
</event>
<event>
 4    1  0.2516086E+000  0.5651778E+02  0.7957747E-01  0.1413055E+00
         13   -1    0    0    0    0  0.00000000000E+00  0.00000000000E+00  0.99999944172E+02  0.99999999992E+02  0.10566000000E+00 0. -1.
         22   -1    0    0    0    0 -0.00000000000E+00 -0.00000000000E+00 -0.41630752631E+02  0.41630752631E+02  0.00000000000E+00 0.  1.
         13    1    1    2    0    0 -0.22850309054E+02 -0.13119542262E+02 -0.27977480531E+02  0.38431882518E+02  0.10566000000E+00 0.  1.
        996    1    1    2    0    0  0.22850309054E+02  0.13119542262E+02  0.86346672072E+02  0.10319887010E+03  0.50000000000E+02 0.  0.
<mgrwt>
<rscale>  0 0.56517776E+02</rscale>
<asrwt>0</asrwt>
<pdfrwt beam="1">  1       13 0.10000000E+01 0.56517776E+02</pdfrwt>
<pdfrwt beam="2">  1       22 0.41630769E+00 0.56517776E+02</pdfrwt>
<totfact> 0.11474381E-01</totfact>
</mgrwt>
</event>
<event>
 4    1  0.2516086E+000  0.5219581E+02  0.7957747E-01  0.1433845E+00
         13   -1    0    0    0    0  0.00000000000E+00  0.00000000000E+00  0.99999944179E+02  0.99999999999E+02  0.10566000000E+00 0. -1.
         22   -1    0    0    0    0 -0.00000000000E+00 -0.00000000000E+00 -0.20772511115E+02  0.20772511115E+02  0.00000000000E+00 0. -1.
         13    1    1    2    0    0 -0.12641997322E+02 -0.80363257367E+01 -0.95659165526E+01  0.17774154021E+02  0.10566000000E+00 0.  1.
        996    1    1    2    0    0  0.12641997322E+02  0.80363257367E+01  0.88793349617E+02  0.10299835709E+03  0.50000000000E+02 0.  0.
<mgrwt>
<rscale>  0 0.52195810E+02</rscale>
<asrwt>0</asrwt>
<pdfrwt beam="1">  1       13 0.10000000E+01 0.52195810E+02</pdfrwt>
<pdfrwt beam="2">  1       22 0.20772533E+00 0.52195810E+02</pdfrwt>
<totfact> 0.42210351E-01</totfact>
</mgrwt>
</event>
<event>
 4    1  0.2516086E+000  0.5101729E+02  0.7957747E-01  0.1439931E+00
         13   -1    0    0    0    0  0.00000000000E+00  0.00000000000E+00  0.99999944177E+02  0.99999999997E+02  0.10566000000E+00 0. -1.
         22   -1    0    0    0    0 -0.00000000000E+00 -0.00000000000E+00 -0.11172170302E+02  0.11172170302E+02  0.00000000000E+00 0. -1.
         13    1    1    2    0    0 -0.54221458402E+01  0.85653052625E+01  0.18048360957E+01  0.10297218902E+02  0.10566000000E+00 0.  1.
        996    1    1    2    0    0  0.54221458402E+01 -0.85653052625E+01  0.87022937779E+02  0.10087495140E+03  0.50000000000E+02 0.  0.
<mgrwt>
<rscale>  0 0.51017292E+02</rscale>
<asrwt>0</asrwt>
<pdfrwt beam="1">  1       13 0.10000000E+01 0.51017292E+02</pdfrwt>
<pdfrwt beam="2">  1       22 0.11172195E+00 0.51017292E+02</pdfrwt>
<totfact> 0.11949315E+00</totfact>
</mgrwt>
</event>
<event>
 4    1  0.2516086E+000  0.5124774E+02  0.7957747E-01  0.1438725E+00
         13   -1    0    0    0    0  0.00000000000E+00  0.00000000000E+00  0.99999944176E+02  0.99999999996E+02  0.10566000000E+00 0.  1.
         22   -1    0    0    0    0 -0.00000000000E+00 -0.00000000000E+00 -0.10248806367E+02  0.10248806367E+02  0.00000000000E+00 0.  1.
         13    1    1    2    0    0  0.45378130767E+01 -0.10282949666E+02  0.81279550221E+01  0.13871035225E+02  0.10566000000E+00 0. -1.
        996    1    1    2    0    0 -0.45378130767E+01  0.10282949666E+02  0.81623182786E+02  0.96377771138E+02  0.50000000000E+02 0.  0.
<mgrwt>
<rscale>  0 0.51247739E+02</rscale>
<asrwt>0</asrwt>
<pdfrwt beam="1">  1       13 0.10000000E+01 0.51247739E+02</pdfrwt>
<pdfrwt beam="2">  1       22 0.10248831E+00 0.51247739E+02</pdfrwt>
<totfact> 0.13578671E+00</totfact>
</mgrwt>
</event>
<event>
 4    1  0.2516086E+000  0.5158961E+02  0.7957747E-01  0.1436951E+00
         13   -1    0    0    0    0  0.00000000000E+00  0.00000000000E+00  0.99999944175E+02  0.99999999995E+02  0.10566000000E+00 0.  1.
         22   -1    0    0    0    0 -0.00000000000E+00 -0.00000000000E+00 -0.39262441394E+02  0.39262441394E+02  0.00000000000E+00 0.  1.
         13    1    1    2    0    0 -0.25980803006E+01  0.12439358472E+02 -0.31283775451E+02  0.33766454225E+02  0.10566000000E+00 0. -1.
        996    1    1    2    0    0  0.25980803006E+01 -0.12439358472E+02  0.92021278232E+02  0.10549598716E+03  0.50000000000E+02 0.  0.
<mgrwt>
<rscale>  0 0.51589608E+02</rscale>
<asrwt>0</asrwt>
<pdfrwt beam="1">  1       13 0.10000000E+01 0.51589608E+02</pdfrwt>
<pdfrwt beam="2">  1       22 0.39262458E+00 0.51589608E+02</pdfrwt>
<totfact> 0.12802922E-01</totfact>
</mgrwt>
</event>
<event>
 4    1  0.2516086E+000  0.5228783E+02  0.7957747E-01  0.1433378E+00
         13   -1    0    0    0    0  0.00000000000E+00  0.00000000000E+00  0.99999944176E+02  0.99999999996E+02  0.10566000000E+00 0.  1.
         22   -1    0    0    0    0 -0.00000000000E+00 -0.00000000000E+00 -0.14581761419E+02  0.14581761419E+02  0.00000000000E+00 0. -1.
         13    1    1    2    0    0 -0.10092487622E+02  0.11496030519E+02  0.10621475303E+01  0.15334808296E+02  0.10566000000E+00 0. -1.
        996    1    1    2    0    0  0.10092487622E+02 -0.11496030519E+02  0.84356035227E+02  0.99246953119E+02  0.50000000000E+02 0.  0.
<mgrwt>
<rscale>  0 0.52287829E+02</rscale>
<asrwt>0</asrwt>
<pdfrwt beam="1">  1       13 0.10000000E+01 0.52287829E+02</pdfrwt>
<pdfrwt beam="2">  1       22 0.14581785E+00 0.52287829E+02</pdfrwt>
<totfact> 0.78948519E-01</totfact>
</mgrwt>
</event>
<event>
 4    1  0.2516086E+000  0.5159469E+02  0.7957747E-01  0.1436925E+00
         13   -1    0    0    0    0  0.00000000000E+00  0.00000000000E+00  0.99999944179E+02  0.99999999999E+02  0.10566000000E+00 0.  1.
         22   -1    0    0    0    0 -0.00000000000E+00 -0.00000000000E+00 -0.11752803290E+02  0.11752803290E+02  0.00000000000E+00 0. -1.
         13    1    1    2    0    0 -0.12264223045E+02 -0.34060290170E+01  0.47206811896E+01  0.13576015450E+02  0.10566000000E+00 0. -1.
        996    1    1    2    0    0  0.12264223045E+02  0.34060290170E+01  0.83526459699E+02  0.98176787839E+02  0.50000000000E+02 0.  0.
<mgrwt>
<rscale>  0 0.51594692E+02</rscale>
<asrwt>0</asrwt>
<pdfrwt beam="1">  1       13 0.10000000E+01 0.51594692E+02</pdfrwt>
<pdfrwt beam="2">  1       22 0.11752828E+00 0.51594692E+02</pdfrwt>
<totfact> 0.11086090E+00</totfact>
</mgrwt>
</event>
<event>
 4    1  0.2516086E+000  0.5464673E+02  0.7957747E-01  0.1421777E+00
         13   -1    0    0    0    0  0.00000000000E+00  0.00000000000E+00  0.99999944179E+02  0.99999999999E+02  0.10566000000E+00 0. -1.
         22   -1    0    0    0    0 -0.00000000000E+00 -0.00000000000E+00 -0.36565284843E+02  0.36565284843E+02  0.00000000000E+00 0.  1.
         13    1    1    2    0    0 -0.17189682487E+02  0.13812297879E+02 -0.24544761204E+02  0.32995775840E+02  0.10566000000E+00 0.  1.
        996    1    1    2    0    0  0.17189682487E+02 -0.13812297879E+02  0.87979420539E+02  0.10356950900E+03  0.50000000000E+02 0.  0.
<mgrwt>
<rscale>  0 0.54646727E+02</rscale>
<asrwt>0</asrwt>
<pdfrwt beam="1">  1       13 0.10000000E+01 0.54646727E+02</pdfrwt>
<pdfrwt beam="2">  1       22 0.36565303E+00 0.54646727E+02</pdfrwt>
<totfact> 0.14592755E-01</totfact>
</mgrwt>
</event>
<event>
 4    1  0.2516086E+000  0.5584785E+02  0.7957747E-01  0.1416131E+00
         13   -1    0    0    0    0  0.00000000000E+00  0.00000000000E+00  0.99999944178E+02  0.99999999999E+02  0.10566000000E+00 0.  1.
         22   -1    0    0    0    0 -0.00000000000E+00 -0.00000000000E+00 -0.22743923837E+02  0.22743923837E+02  0.00000000000E+00 0.  1.
         13    1    1    2    0    0 -0.20076817464E+02  0.14693659815E+02 -0.29028391440E+01  0.25048350792E+02  0.10566000000E+00 0. -1.
        996    1    1    2    0    0  0.20076817464E+02 -0.14693659815E+02  0.80158859486E+02  0.97695573044E+02  0.50000000000E+02 0.  0.
<mgrwt>
<rscale>  0 0.55847849E+02</rscale>
<asrwt>0</asrwt>
<pdfrwt beam="1">  1       13 0.10000000E+01 0.55847849E+02</pdfrwt>
<pdfrwt beam="2">  1       22 0.22743945E+00 0.55847849E+02</pdfrwt>
<totfact> 0.35689094E-01</totfact>
</mgrwt>
</event>
<event>
 4    1  0.2516086E+000  0.5744762E+02  0.7957747E-01  0.1408866E+00
         13   -1    0    0    0    0  0.00000000000E+00  0.00000000000E+00  0.99999944179E+02  0.99999999999E+02  0.10566000000E+00 0.  1.
         22   -1    0    0    0    0 -0.00000000000E+00 -0.00000000000E+00 -0.66318164035E+02  0.66318164035E+02  0.00000000000E+00 0. -1.
         13    1    1    2    0    0  0.36451072098E+01 -0.28052500835E+02 -0.54308706068E+02  0.61234600745E+02  0.10566000000E+00 0. -1.
        996    1    1    2    0    0 -0.36451072098E+01  0.28052500835E+02  0.87990486212E+02  0.10508356329E+03  0.50000000000E+02 0.  0.
<mgrwt>
<rscale>  0 0.57447625E+02</rscale>
<asrwt>0</asrwt>
<pdfrwt beam="1">  1       13 0.10000000E+01 0.57447625E+02</pdfrwt>
<pdfrwt beam="2">  1       22 0.66318173E+00 0.57447625E+02</pdfrwt>
<totfact> 0.87147416E-02</totfact>
</mgrwt>
</event>
<event>
 4    1  0.2516086E+000  0.5136668E+02  0.7957747E-01  0.1438106E+00
         13   -1    0    0    0    0  0.00000000000E+00  0.00000000000E+00  0.99999944180E+02  0.10000000000E+03  0.10566000000E+00 0.  1.
         22   -1    0    0    0    0 -0.00000000000E+00 -0.00000000000E+00 -0.75067968804E+02  0.75067968804E+02  0.00000000000E+00 0. -1.
         13    1    1    2    0    0 -0.83165000095E+01 -0.83289934315E+01 -0.67931994826E+02  0.68944204898E+02  0.10566000000E+00 0. -1.
        996    1    1    2    0    0  0.83165000095E+01  0.83289934315E+01  0.92863970201E+02  0.10612376391E+03  0.50000000000E+02 0.  0.
<mgrwt>
<rscale>  0 0.51366685E+02</rscale>
<asrwt>0</asrwt>
<pdfrwt beam="1">  1       13 0.10000000E+01 0.51366685E+02</pdfrwt>
<pdfrwt beam="2">  1       22 0.75067976E+00 0.51366685E+02</pdfrwt>
<totfact> 0.48726655E-02</totfact>
</mgrwt>
</event>
<event>
 4    1  0.2516086E+000  0.5128948E+02  0.7957747E-01  0.1438508E+00
         13   -1    0    0    0    0  0.00000000000E+00  0.00000000000E+00  0.99999944177E+02  0.99999999998E+02  0.10566000000E+00 0. -1.
         22   -1    0    0    0    0 -0.00000000000E+00 -0.00000000000E+00 -0.99357218651E+01  0.99357218651E+01  0.00000000000E+00 0. -1.
         13    1    1    2    0    0  0.93539680960E+01 -0.65661141673E+01  0.12396002616E+02  0.16860682646E+02  0.10566000000E+00 0.  1.
        996    1    1    2    0    0 -0.93539680960E+01  0.65661141673E+01  0.77668219696E+02  0.93075039217E+02  0.50000000000E+02 0.  0.
<mgrwt>
<rscale>  0 0.51289478E+02</rscale>
<asrwt>0</asrwt>
<pdfrwt beam="1">  1       13 0.10000000E+01 0.51289478E+02</pdfrwt>
<pdfrwt beam="2">  1       22 0.99357470E-01 0.51289478E+02</pdfrwt>
<totfact> 0.14205598E+00</totfact>
</mgrwt>
</event>
<event>
 4    1  0.2516086E+000  0.5183618E+02  0.7957747E-01  0.1435682E+00
         13   -1    0    0    0    0  0.00000000000E+00  0.00000000000E+00  0.99999944182E+02  0.10000000000E+03  0.10566000000E+00 0. -1.
         22   -1    0    0    0    0 -0.00000000000E+00 -0.00000000000E+00 -0.52893028592E+02  0.52893028592E+02  0.00000000000E+00 0.  1.
         13    1    1    2    0    0  0.11869105954E+02  0.67907081691E+01 -0.45092817449E+02  0.47120725197E+02  0.10566000000E+00 0.  1.
        996    1    1    2    0    0 -0.11869105954E+02 -0.67907081691E+01  0.92199733039E+02  0.10577230340E+03  0.50000000000E+02 0.  0.
<mgrwt>
<rscale>  0 0.51836178E+02</rscale>
<asrwt>0</asrwt>
<pdfrwt beam="1">  1       13 0.10000000E+01 0.51836178E+02</pdfrwt>
<pdfrwt beam="2">  1       22 0.52893042E+00 0.51836178E+02</pdfrwt>
<totfact> 0.63457406E-02</totfact>
</mgrwt>
</event>
<event>
 4    1  0.2516086E+000  0.5164420E+02  0.7957747E-01  0.1436670E+00
         13   -1    0    0    0    0  0.00000000000E+00  0.00000000000E+00  0.99999944179E+02  0.99999999999E+02  0.10566000000E+00 0.  1.
         22   -1    0    0    0    0 -0.00000000000E+00 -0.00000000000E+00 -0.20836648881E+02  0.20836648881E+02  0.00000000000E+00 0. -1.
         13    1    1    2    0    0 -0.83405995774E+01  0.98771249876E+01 -0.10970772219E+02  0.16955595137E+02  0.10566000000E+00 0. -1.
        996    1    1    2    0    0  0.83405995774E+01 -0.98771249876E+01  0.90134067518E+02  0.10388105374E+03  0.50000000000E+02 0.  0.
<mgrwt>
<rscale>  0 0.51644198E+02</rscale>
<asrwt>0</asrwt>
<pdfrwt beam="1">  1       13 0.10000000E+01 0.51644198E+02</pdfrwt>
<pdfrwt beam="2">  1       22 0.20836671E+00 0.51644198E+02</pdfrwt>
<totfact> 0.41924276E-01</totfact>
</mgrwt>
</event>
<event>
 4    1  0.2516086E+000  0.5268096E+02  0.7957747E-01  0.1431395E+00
         13   -1    0    0    0    0  0.00000000000E+00  0.00000000000E+00  0.99999944174E+02  0.99999999995E+02  0.10566000000E+00 0.  1.
         22   -1    0    0    0    0 -0.00000000000E+00 -0.00000000000E+00 -0.46945147211E+02  0.46945147211E+02  0.00000000000E+00 0. -1.
         13    1    1    2    0    0 -0.38391872969E+01  0.16141382788E+02 -0.38159592747E+02  0.41610687090E+02  0.10566000000E+00 0. -1.
        996    1    1    2    0    0  0.38391872969E+01 -0.16141382788E+02  0.91214389711E+02  0.10533446012E+03  0.50000000000E+02 0.  0.
<mgrwt>
<rscale>  0 0.52680960E+02</rscale>
<asrwt>0</asrwt>
<pdfrwt beam="1">  1       13 0.10000000E+01 0.52680960E+02</pdfrwt>
<pdfrwt beam="2">  1       22 0.46945162E+00 0.52680960E+02</pdfrwt>
<totfact> 0.87169574E-02</totfact>
</mgrwt>
</event>
<event>
 4    1  0.2516086E+000  0.7604992E+02  0.7957747E-01  0.1340650E+00
         13   -1    0    0    0    0  0.00000000000E+00  0.00000000000E+00  0.99999944173E+02  0.99999999993E+02  0.10566000000E+00 0. -1.
         22   -1    0    0    0    0 -0.00000000000E+00 -0.00000000000E+00 -0.68679158084E+02  0.68679158084E+02  0.00000000000E+00 0.  1.
         13    1    1    2    0    0  0.55876878391E+02  0.12702920661E+02 -0.35530044502E+02  0.67423919779E+02  0.10566000000E+00 0.  1.
        996    1    1    2    0    0 -0.55876878391E+02 -0.12702920661E+02  0.66850830591E+02  0.10125523830E+03  0.50000000000E+02 0.  0.
<mgrwt>
<rscale>  0 0.76049916E+02</rscale>
<asrwt>0</asrwt>
<pdfrwt beam="1">  1       13 0.10000000E+01 0.76049916E+02</pdfrwt>
<pdfrwt beam="2">  1       22 0.68679167E+00 0.76049916E+02</pdfrwt>
<totfact> 0.80830433E-02</totfact>
</mgrwt>
</event>
<event>
 4    1  0.2516086E+000  0.5877683E+02  0.7957747E-01  0.1403038E+00
         13   -1    0    0    0    0  0.00000000000E+00  0.00000000000E+00  0.99999944178E+02  0.99999999998E+02  0.10566000000E+00 0.  1.
         22   -1    0    0    0    0 -0.00000000000E+00 -0.00000000000E+00 -0.40185010190E+02  0.40185010190E+02  0.00000000000E+00 0. -1.
         13    1    1    2    0    0 -0.14011014283E+02 -0.27539192151E+02 -0.23079774113E+02  0.38566860939E+02  0.10566000000E+00 0. -1.
        996    1    1    2    0    0  0.14011014283E+02  0.27539192151E+02  0.82894708101E+02  0.10161814925E+03  0.50000000000E+02 0.  0.
<mgrwt>
<rscale>  0 0.58776829E+02</rscale>
<asrwt>0</asrwt>
<pdfrwt beam="1">  1       13 0.10000000E+01 0.58776829E+02</pdfrwt>
<pdfrwt beam="2">  1       22 0.40185027E+00 0.58776829E+02</pdfrwt>
<totfact> 0.12320339E-01</totfact>
</mgrwt>
</event>
<event>
 4    1  0.2516086E+000  0.5107123E+02  0.7957747E-01  0.1439648E+00
         13   -1    0    0    0    0  0.00000000000E+00  0.00000000000E+00  0.99999944176E+02  0.99999999996E+02  0.10566000000E+00 0. -1.
         22   -1    0    0    0    0 -0.00000000000E+00 -0.00000000000E+00 -0.95079230229E+01  0.95079230229E+01  0.00000000000E+00 0. -1.
         13    1    1    2    0    0  0.10274575471E+02  0.16442108559E+01  0.12251056925E+02  0.16073888461E+02  0.10566000000E+00 0.  1.
        996    1    1    2    0    0 -0.10274575471E+02 -0.16442108559E+01  0.78240964228E+02  0.93434034558E+02  0.50000000000E+02 0.  0.
<mgrwt>
<rscale>  0 0.51071228E+02</rscale>
<asrwt>0</asrwt>
<pdfrwt beam="1">  1       13 0.10000000E+01 0.51071228E+02</pdfrwt>
<pdfrwt beam="2">  1       22 0.95079483E-01 0.51071228E+02</pdfrwt>
<totfact> 0.15125068E+00</totfact>
</mgrwt>
</event>
<event>
 4    1  0.2516086E+000  0.5674274E+02  0.7957747E-01  0.1412033E+00
         13   -1    0    0    0    0  0.00000000000E+00  0.00000000000E+00  0.99999944178E+02  0.99999999998E+02  0.10566000000E+00 0.  1.
         22   -1    0    0    0    0 -0.00000000000E+00 -0.00000000000E+00 -0.31119091785E+02  0.31119091785E+02  0.00000000000E+00 0. -1.
         13    1    1    2    0    0  0.26772505939E+02  0.17236398147E+01 -0.14320219540E+02  0.30410818144E+02  0.10566000000E+00 0. -1.
        996    1    1    2    0    0 -0.26772505939E+02 -0.17236398147E+01  0.83201071933E+02  0.10070827364E+03  0.50000000000E+02 0.  0.
<mgrwt>
<rscale>  0 0.56742735E+02</rscale>
<asrwt>0</asrwt>
<pdfrwt beam="1">  1       13 0.10000000E+01 0.56742735E+02</pdfrwt>
<pdfrwt beam="2">  1       22 0.31119111E+00 0.56742735E+02</pdfrwt>
<totfact> 0.19460695E-01</totfact>
</mgrwt>
</event>
<event>
 4    1  0.2516086E+000  0.5120789E+02  0.7957747E-01  0.1438933E+00
         13   -1    0    0    0    0  0.00000000000E+00  0.00000000000E+00  0.99999944176E+02  0.99999999996E+02  0.10566000000E+00 0.  1.
         22   -1    0    0    0    0 -0.00000000000E+00 -0.00000000000E+00 -0.12694158056E+02  0.12694158056E+02  0.00000000000E+00 0. -1.
         13    1    1    2    0    0  0.42607225016E+01  0.10202660973E+02 -0.47666308496E+00  0.11067358262E+02  0.10566000000E+00 0. -1.
        996    1    1    2    0    0 -0.42607225016E+01 -0.10202660973E+02  0.87782449205E+02  0.10162679979E+03  0.50000000000E+02 0.  0.
<mgrwt>
<rscale>  0 0.51207890E+02</rscale>
<asrwt>0</asrwt>
<pdfrwt beam="1">  1       13 0.10000000E+01 0.51207890E+02</pdfrwt>
<pdfrwt beam="2">  1       22 0.12694182E+00 0.51207890E+02</pdfrwt>
<totfact> 0.98366964E-01</totfact>
</mgrwt>
</event>
<event>
 4    1  0.2516086E+000  0.5128807E+02  0.7957747E-01  0.1438515E+00
         13   -1    0    0    0    0  0.00000000000E+00  0.00000000000E+00  0.99999944181E+02  0.10000000000E+03  0.10566000000E+00 0. -1.
         22   -1    0    0    0    0 -0.00000000000E+00 -0.00000000000E+00 -0.34590641612E+02  0.34590641612E+02  0.00000000000E+00 0.  1.
         13    1    1    2    0    0 -0.11312319669E+02  0.15804264945E+01 -0.26769197957E+02  0.29104423161E+02  0.10566000000E+00 0.  1.
        996    1    1    2    0    0  0.11312319669E+02 -0.15804264945E+01  0.92178500526E+02  0.10548621845E+03  0.50000000000E+02 0.  0.
<mgrwt>
<rscale>  0 0.51288072E+02</rscale>
<asrwt>0</asrwt>
<pdfrwt beam="1">  1       13 0.10000000E+01 0.51288072E+02</pdfrwt>
<pdfrwt beam="2">  1       22 0.34590660E+00 0.51288072E+02</pdfrwt>
<totfact> 0.16027747E-01</totfact>
</mgrwt>
</event>
<event>
 4    1  0.2516086E+000  0.5898321E+02  0.7957747E-01  0.1402149E+00
         13   -1    0    0    0    0  0.00000000000E+00  0.00000000000E+00  0.99999944180E+02  0.10000000000E+03  0.10566000000E+00 0. -1.
         22   -1    0    0    0    0 -0.00000000000E+00 -0.00000000000E+00 -0.20393422639E+02  0.20393422639E+02  0.00000000000E+00 0. -1.
         13    1    1    2    0    0 -0.68274587220E+01  0.30535314676E+02  0.25785857787E+02  0.40545545511E+02  0.10566000000E+00 0.  1.
        996    1    1    2    0    0  0.68274587220E+01 -0.30535314676E+02  0.53820663753E+02  0.79847877128E+02  0.50000000000E+02 0.  0.
<mgrwt>
<rscale>  0 0.58983215E+02</rscale>
<asrwt>0</asrwt>
<pdfrwt beam="1">  1       13 0.10000000E+01 0.58983215E+02</pdfrwt>
<pdfrwt beam="2">  1       22 0.20393445E+00 0.58983215E+02</pdfrwt>
<totfact> 0.44194777E-01</totfact>
</mgrwt>
</event>
<event>
 4    1  0.2516086E+000  0.5580746E+02  0.7957747E-01  0.1416319E+00
         13   -1    0    0    0    0  0.00000000000E+00  0.00000000000E+00  0.99999944175E+02  0.99999999995E+02  0.10566000000E+00 0.  1.
         22   -1    0    0    0    0 -0.00000000000E+00 -0.00000000000E+00 -0.16400342609E+02  0.16400342609E+02  0.00000000000E+00 0.  1.
         13    1    1    2    0    0 -0.17689006511E+02  0.17365812534E+02  0.20543877708E+02  0.32195255421E+02  0.10566000000E+00 0. -1.
        996    1    1    2    0    0  0.17689006511E+02 -0.17365812534E+02  0.63055723858E+02  0.84205087183E+02  0.50000000000E+02 0.  0.
<mgrwt>
<rscale>  0 0.55807458E+02</rscale>
<asrwt>0</asrwt>
<pdfrwt beam="1">  1       13 0.10000000E+01 0.55807458E+02</pdfrwt>
<pdfrwt beam="2">  1       22 0.16400366E+00 0.55807458E+02</pdfrwt>
<totfact> 0.65185743E-01</totfact>
</mgrwt>
</event>
<event>
 4    1  0.2516086E+000  0.5106074E+02  0.7957747E-01  0.1439703E+00
         13   -1    0    0    0    0  0.00000000000E+00  0.00000000000E+00  0.99999944175E+02  0.99999999995E+02  0.10566000000E+00 0.  1.
         22   -1    0    0    0    0 -0.00000000000E+00 -0.00000000000E+00 -0.94324609541E+01  0.94324609541E+01  0.00000000000E+00 0. -1.
         13    1    1    2    0    0  0.51240424093E+01  0.89968367000E+01  0.14549007317E+02  0.17857313884E+02  0.10566000000E+00 0. -1.
        996    1    1    2    0    0 -0.51240424093E+01 -0.89968367000E+01  0.76018475904E+02  0.91575147065E+02  0.50000000000E+02 0.  0.
<mgrwt>
<rscale>  0 0.51060737E+02</rscale>
<asrwt>0</asrwt>
<pdfrwt beam="1">  1       13 0.10000000E+01 0.51060737E+02</pdfrwt>
<pdfrwt beam="2">  1       22 0.94324862E-01 0.51060737E+02</pdfrwt>
<totfact> 0.15297700E+00</totfact>
</mgrwt>
</event>
<event>
 4    1  0.2516086E+000  0.5297833E+02  0.7957747E-01  0.1429909E+00
         13   -1    0    0    0    0  0.00000000000E+00  0.00000000000E+00  0.99999944182E+02  0.10000000000E+03  0.10566000000E+00 0.  1.
         22   -1    0    0    0    0 -0.00000000000E+00 -0.00000000000E+00 -0.25517129979E+02  0.25517129979E+02  0.00000000000E+00 0. -1.
         13    1    1    2    0    0 -0.16114445584E+02  0.68576706317E+01 -0.13976577037E+02  0.22406670272E+02  0.10566000000E+00 0. -1.
        996    1    1    2    0    0  0.16114445584E+02 -0.68576706317E+01  0.88459391239E+02  0.10311045971E+03  0.50000000000E+02 0.  0.
<mgrwt>
<rscale>  0 0.52978326E+02</rscale>
<asrwt>0</asrwt>
<pdfrwt beam="1">  1       13 0.10000000E+01 0.52978326E+02</pdfrwt>
<pdfrwt beam="2">  1       22 0.25517151E+00 0.52978326E+02</pdfrwt>
<totfact> 0.28357660E-01</totfact>
</mgrwt>
</event>
<event>
 4    1  0.2516086E+000  0.5155760E+02  0.7957747E-01  0.1437117E+00
         13   -1    0    0    0    0  0.00000000000E+00  0.00000000000E+00  0.99999944177E+02  0.99999999997E+02  0.10566000000E+00 0.  1.
         22   -1    0    0    0    0 -0.00000000000E+00 -0.00000000000E+00 -0.27088444804E+02  0.27088444804E+02  0.00000000000E+00 0. -1.
         13    1    1    2    0    0  0.11316490316E+02  0.54884167874E+01 -0.18363859776E+02  0.22258216051E+02  0.10566000000E+00 0. -1.
        996    1    1    2    0    0 -0.11316490316E+02 -0.54884167874E+01  0.91275359149E+02  0.10483022875E+03  0.50000000000E+02 0.  0.
<mgrwt>
<rscale>  0 0.51557596E+02</rscale>
<asrwt>0</asrwt>
<pdfrwt beam="1">  1       13 0.10000000E+01 0.51557596E+02</pdfrwt>
<pdfrwt beam="2">  1       22 0.27088465E+00 0.51557596E+02</pdfrwt>
<totfact> 0.25164536E-01</totfact>
</mgrwt>
</event>
<event>
 4    1  0.2516086E+000  0.5143971E+02  0.7957747E-01  0.1437727E+00
         13   -1    0    0    0    0  0.00000000000E+00  0.00000000000E+00  0.99999944183E+02  0.10000000000E+03  0.10566000000E+00 0.  1.
         22   -1    0    0    0    0 -0.00000000000E+00 -0.00000000000E+00 -0.15529180924E+02  0.15529180924E+02  0.00000000000E+00 0.  1.
         13    1    1    2    0    0  0.30906550843E+01 -0.11682973214E+02 -0.43863649288E+01  0.12856724827E+02  0.10566000000E+00 0. -1.
        996    1    1    2    0    0 -0.30906550843E+01  0.11682973214E+02  0.88857128188E+02  0.10267245610E+03  0.50000000000E+02 0.  0.
<mgrwt>
<rscale>  0 0.51439712E+02</rscale>
<asrwt>0</asrwt>
<pdfrwt beam="1">  1       13 0.10000000E+01 0.51439712E+02</pdfrwt>
<pdfrwt beam="2">  1       22 0.15529205E+00 0.51439712E+02</pdfrwt>
<totfact> 0.70959682E-01</totfact>
</mgrwt>
</event>
<event>
 4    1  0.2516086E+000  0.5848073E+02  0.7957747E-01  0.1404320E+00
         13   -1    0    0    0    0  0.00000000000E+00  0.00000000000E+00  0.99999944183E+02  0.10000000000E+03  0.10566000000E+00 0.  1.
         22   -1    0    0    0    0 -0.00000000000E+00 -0.00000000000E+00 -0.35205862908E+02  0.35205862908E+02  0.00000000000E+00 0. -1.
         13    1    1    2    0    0 -0.16074278884E+02  0.25721855240E+02 -0.16911816971E+02  0.34727755411E+02  0.10566000000E+00 0. -1.
        996    1    1    2    0    0  0.16074278884E+02 -0.25721855240E+02  0.81705898246E+02  0.10047810750E+03  0.50000000000E+02 0.  0.
<mgrwt>
<rscale>  0 0.58480734E+02</rscale>
<asrwt>0</asrwt>
<pdfrwt beam="1">  1       13 0.10000000E+01 0.58480734E+02</pdfrwt>
<pdfrwt beam="2">  1       22 0.35205881E+00 0.58480734E+02</pdfrwt>
<totfact> 0.15652136E-01</totfact>
</mgrwt>
</event>
<event>
 4    1  0.2516086E+000  0.5609760E+02  0.7957747E-01  0.1414978E+00
         13   -1    0    0    0    0  0.00000000000E+00  0.00000000000E+00  0.99999944165E+02  0.99999999985E+02  0.10566000000E+00 0. -1.
         22   -1    0    0    0    0 -0.00000000000E+00 -0.00000000000E+00 -0.20871520746E+02  0.20871520746E+02  0.00000000000E+00 0.  1.
         13    1    1    2    0    0 -0.25090329810E+02  0.41732450722E+01  0.20188998061E+01  0.25515245342E+02  0.10566000000E+00 0.  1.
        996    1    1    2    0    0  0.25090329810E+02 -0.41732450722E+01  0.77109523613E+02  0.95356275390E+02  0.50000000000E+02 0.  0.
<mgrwt>
<rscale>  0 0.56097599E+02</rscale>
<asrwt>0</asrwt>
<pdfrwt beam="1">  1       13 0.10000000E+01 0.56097599E+02</pdfrwt>
<pdfrwt beam="2">  1       22 0.20871543E+00 0.56097599E+02</pdfrwt>
<totfact> 0.42107934E-01</totfact>
</mgrwt>
</event>
<event>
 4    1  0.2516086E+000  0.5324374E+02  0.7957747E-01  0.1428592E+00
         13   -1    0    0    0    0  0.00000000000E+00  0.00000000000E+00  0.99999944175E+02  0.99999999995E+02  0.10566000000E+00 0. -1.
         22   -1    0    0    0    0 -0.00000000000E+00 -0.00000000000E+00 -0.12833265832E+02  0.12833265832E+02  0.00000000000E+00 0. -1.
         13    1    1    2    0    0  0.36697935852E+01 -0.17928429746E+02  0.19718314019E+02  0.26902026874E+02  0.10566000000E+00 0.  1.
        996    1    1    2    0    0 -0.36697935852E+01  0.17928429746E+02  0.67448364324E+02  0.85931238954E+02  0.50000000000E+02 0.  0.
<mgrwt>
<rscale>  0 0.53243741E+02</rscale>
<asrwt>0</asrwt>
<pdfrwt beam="1">  1       13 0.10000000E+01 0.53243741E+02</pdfrwt>
<pdfrwt beam="2">  1       22 0.12833290E+00 0.53243741E+02</pdfrwt>
<totfact> 0.97131483E-01</totfact>
</mgrwt>
</event>
<event>
 4    1  0.2516086E+000  0.5354566E+02  0.7957747E-01  0.1427104E+00
         13   -1    0    0    0    0  0.00000000000E+00  0.00000000000E+00  0.99999944179E+02  0.99999999999E+02  0.10566000000E+00 0. -1.
         22   -1    0    0    0    0 -0.00000000000E+00 -0.00000000000E+00 -0.22367624153E+02  0.22367624153E+02  0.00000000000E+00 0.  1.
         13    1    1    2    0    0 -0.16708160540E+02 -0.93795192850E+01 -0.84890602712E+01  0.20957416801E+02  0.10566000000E+00 0.  1.
        996    1    1    2    0    0  0.16708160540E+02  0.93795192850E+01  0.86121380297E+02  0.10141020735E+03  0.50000000000E+02 0.  0.
<mgrwt>
<rscale>  0 0.53545663E+02</rscale>
<asrwt>0</asrwt>
<pdfrwt beam="1">  1       13 0.10000000E+01 0.53545663E+02</pdfrwt>
<pdfrwt beam="2">  1       22 0.22367646E+00 0.53545663E+02</pdfrwt>
<totfact> 0.36726745E-01</totfact>
</mgrwt>
</event>
<event>
 4    1  0.2516086E+000  0.6387909E+02  0.7957747E-01  0.1382238E+00
         13   -1    0    0    0    0  0.00000000000E+00  0.00000000000E+00  0.99999944178E+02  0.99999999998E+02  0.10566000000E+00 0.  1.
         22   -1    0    0    0    0 -0.00000000000E+00 -0.00000000000E+00 -0.36223777145E+02  0.36223777145E+02  0.00000000000E+00 0. -1.
         13    1    1    2    0    0 -0.28947058115E+02  0.27250804865E+02 -0.75581888696E+01  0.40468208786E+02  0.10566000000E+00 0. -1.
        996    1    1    2    0    0  0.28947058115E+02 -0.27250804865E+02  0.71334355903E+02  0.95755568357E+02  0.50000000000E+02 0.  0.
<mgrwt>
<rscale>  0 0.63879093E+02</rscale>
<asrwt>0</asrwt>
<pdfrwt beam="1">  1       13 0.10000000E+01 0.63879093E+02</pdfrwt>
<pdfrwt beam="2">  1       22 0.36223795E+00 0.63879093E+02</pdfrwt>
<totfact> 0.14952824E-01</totfact>
</mgrwt>
</event>
<event>
 4    1  0.2516086E+000  0.5980022E+02  0.7957747E-01  0.1398672E+00
         13   -1    0    0    0    0  0.00000000000E+00  0.00000000000E+00  0.99999944177E+02  0.99999999998E+02  0.10566000000E+00 0.  1.
         22   -1    0    0    0    0 -0.00000000000E+00 -0.00000000000E+00 -0.39024446084E+02  0.39024446084E+02  0.00000000000E+00 0. -1.
         13    1    1    2    0    0  0.31898594755E+02 -0.76515582359E+01 -0.19955754415E+02  0.38396744511E+02  0.10566000000E+00 0. -1.
        996    1    1    2    0    0 -0.31898594755E+02  0.76515582359E+01  0.80931252509E+02  0.10062770157E+03  0.50000000000E+02 0.  0.
<mgrwt>
<rscale>  0 0.59800223E+02</rscale>
<asrwt>0</asrwt>
<pdfrwt beam="1">  1       13 0.10000000E+01 0.59800223E+02</pdfrwt>
<pdfrwt beam="2">  1       22 0.39024463E+00 0.59800223E+02</pdfrwt>
<totfact> 0.13030374E-01</totfact>
</mgrwt>
</event>
<event>
 4    1  0.2516086E+000  0.5177043E+02  0.7957747E-01  0.1436020E+00
         13   -1    0    0    0    0  0.00000000000E+00  0.00000000000E+00  0.99999944167E+02  0.99999999987E+02  0.10566000000E+00 0. -1.
         22   -1    0    0    0    0 -0.00000000000E+00 -0.00000000000E+00 -0.20651296513E+02  0.20651296513E+02  0.00000000000E+00 0.  1.
         13    1    1    2    0    0 -0.42844869715E+01  0.12720882100E+02 -0.10440978441E+02  0.17005965567E+02  0.10566000000E+00 0.  1.
        996    1    1    2    0    0  0.42844869715E+01 -0.12720882100E+02  0.89789626095E+02  0.10364533093E+03  0.50000000000E+02 0.  0.
<mgrwt>
<rscale>  0 0.51770432E+02</rscale>
<asrwt>0</asrwt>
<pdfrwt beam="1">  1       13 0.10000000E+01 0.51770432E+02</pdfrwt>
<pdfrwt beam="2">  1       22 0.20651319E+00 0.51770432E+02</pdfrwt>
<totfact> 0.42647254E-01</totfact>
</mgrwt>
</event>
<event>
 4    1  0.2516086E+000  0.5133703E+02  0.7957747E-01  0.1438261E+00
         13   -1    0    0    0    0  0.00000000000E+00  0.00000000000E+00  0.99999944175E+02  0.99999999995E+02  0.10566000000E+00 0. -1.
         22   -1    0    0    0    0 -0.00000000000E+00 -0.00000000000E+00 -0.10154439877E+02  0.10154439877E+02  0.00000000000E+00 0. -1.
         13    1    1    2    0    0 -0.74478031838E+01 -0.89454519282E+01  0.23884130085E+02  0.26569789544E+02  0.10566000000E+00 0.  1.
        996    1    1    2    0    0  0.74478031838E+01  0.89454519282E+01  0.65961374212E+02  0.83584650328E+02  0.50000000000E+02 0.  0.
<mgrwt>
<rscale>  0 0.51337032E+02</rscale>
<asrwt>0</asrwt>
<pdfrwt beam="1">  1       13 0.10000000E+01 0.51337032E+02</pdfrwt>
<pdfrwt beam="2">  1       22 0.10154465E+00 0.51337032E+02</pdfrwt>
<totfact> 0.13765733E+00</totfact>
</mgrwt>
</event>
<event>
 4    1  0.2516086E+000  0.5101898E+02  0.7957747E-01  0.1439922E+00
         13   -1    0    0    0    0  0.00000000000E+00  0.00000000000E+00  0.99999944182E+02  0.10000000000E+03  0.10566000000E+00 0. -1.
         22   -1    0    0    0    0 -0.00000000000E+00 -0.00000000000E+00 -0.14383088651E+02  0.14383088651E+02  0.00000000000E+00 0.  1.
         13    1    1    2    0    0 -0.80987971746E+01 -0.61111135534E+01 -0.42845570001E+01  0.11013846615E+02  0.10566000000E+00 0.  1.
        996    1    1    2    0    0  0.80987971746E+01  0.61111135534E+01  0.89901412530E+02  0.10336924204E+03  0.50000000000E+02 0.  0.
<mgrwt>
<rscale>  0 0.51018979E+02</rscale>
<asrwt>0</asrwt>
<pdfrwt beam="1">  1       13 0.10000000E+01 0.51018979E+02</pdfrwt>
<pdfrwt beam="2">  1       22 0.14383113E+00 0.51018979E+02</pdfrwt>
<totfact> 0.80533189E-01</totfact>
</mgrwt>
</event>
<event>
 4    1  0.2516086E+000  0.5151874E+02  0.7957747E-01  0.1437318E+00
         13   -1    0    0    0    0  0.00000000000E+00  0.00000000000E+00  0.99999944180E+02  0.10000000000E+03  0.10566000000E+00 0. -1.
         22   -1    0    0    0    0 -0.00000000000E+00 -0.00000000000E+00 -0.10224481097E+02  0.10224481097E+02  0.00000000000E+00 0. -1.
         13    1    1    2    0    0  0.66727072794E+01 -0.10471674087E+02  0.16491830625E+02  0.20643948799E+02  0.10566000000E+00 0.  1.
        996    1    1    2    0    0 -0.66727072794E+01  0.10471674087E+02  0.73283632457E+02  0.89580532298E+02  0.50000000000E+02 0.  0.
<mgrwt>
<rscale>  0 0.51518744E+02</rscale>
<asrwt>0</asrwt>
<pdfrwt beam="1">  1       13 0.10000000E+01 0.51518744E+02</pdfrwt>
<pdfrwt beam="2">  1       22 0.10224506E+00 0.51518744E+02</pdfrwt>
<totfact> 0.13634655E+00</totfact>
</mgrwt>
</event>
<event>
 4    1  0.2516086E+000  0.5246922E+02  0.7957747E-01  0.1432461E+00
         13   -1    0    0    0    0  0.00000000000E+00  0.00000000000E+00  0.99999944175E+02  0.99999999996E+02  0.10566000000E+00 0.  1.
         22   -1    0    0    0    0 -0.00000000000E+00 -0.00000000000E+00 -0.15514626698E+02  0.15514626698E+02  0.00000000000E+00 0. -1.
         13    1    1    2    0    0  0.97095721021E+01  0.12599352305E+02 -0.18147783209E+00  0.15907971811E+02  0.10566000000E+00 0. -1.
        996    1    1    2    0    0 -0.97095721021E+01 -0.12599352305E+02  0.84666795309E+02  0.99606654882E+02  0.50000000000E+02 0.  0.
<mgrwt>
<rscale>  0 0.52469224E+02</rscale>
<asrwt>0</asrwt>
<pdfrwt beam="1">  1       13 0.10000000E+01 0.52469224E+02</pdfrwt>
<pdfrwt beam="2">  1       22 0.15514650E+00 0.52469224E+02</pdfrwt>
<totfact> 0.71219839E-01</totfact>
</mgrwt>
</event>
<event>
 4    1  0.2516086E+000  0.5101953E+02  0.7957747E-01  0.1439919E+00
         13   -1    0    0    0    0  0.00000000000E+00  0.00000000000E+00  0.99999944176E+02  0.99999999996E+02  0.10566000000E+00 0. -1.
         22   -1    0    0    0    0 -0.00000000000E+00 -0.00000000000E+00 -0.15964124394E+02  0.15964124394E+02  0.00000000000E+00 0.  1.
         13    1    1    2    0    0  0.26493464137E+01  0.97965814357E+01 -0.64931127938E+01  0.12048390848E+02  0.10566000000E+00 0.  1.
        996    1    1    2    0    0 -0.26493464137E+01 -0.97965814357E+01  0.90528932576E+02  0.10391573354E+03  0.50000000000E+02 0.  0.
<mgrwt>
<rscale>  0 0.51019526E+02</rscale>
<asrwt>0</asrwt>
<pdfrwt beam="1">  1       13 0.10000000E+01 0.51019526E+02</pdfrwt>
<pdfrwt beam="2">  1       22 0.15964148E+00 0.51019526E+02</pdfrwt>
<totfact> 0.67650767E-01</totfact>
</mgrwt>
</event>
<event>
 4    1  0.2516086E+000  0.5124581E+02  0.7957747E-01  0.1438736E+00
         13   -1    0    0    0    0  0.00000000000E+00  0.00000000000E+00  0.99999944178E+02  0.99999999998E+02  0.10566000000E+00 0. -1.
         22   -1    0    0    0    0 -0.00000000000E+00 -0.00000000000E+00 -0.13247401066E+02  0.13247401066E+02  0.00000000000E+00 0. -1.
         13    1    1    2    0    0 -0.11224420949E+02 -0.38146990341E+00 -0.13628848313E+01  0.11313786459E+02  0.10566000000E+00 0.  1.
        996    1    1    2    0    0  0.11224420949E+02  0.38146990341E+00  0.88115427943E+02  0.10193361461E+03  0.50000000000E+02 0.  0.
<mgrwt>
<rscale>  0 0.51245811E+02</rscale>
<asrwt>0</asrwt>
<pdfrwt beam="1">  1       13 0.10000000E+01 0.51245811E+02</pdfrwt>
<pdfrwt beam="2">  1       22 0.13247425E+00 0.51245811E+02</pdfrwt>
<totfact> 0.91988688E-01</totfact>
</mgrwt>
</event>
<event>
 4    1  0.2516086E+000  0.5152199E+02  0.7957747E-01  0.1437301E+00
         13   -1    0    0    0    0  0.00000000000E+00  0.00000000000E+00  0.99999944179E+02  0.99999999999E+02  0.10566000000E+00 0.  1.
         22   -1    0    0    0    0 -0.00000000000E+00 -0.00000000000E+00 -0.18061454776E+02  0.18061454776E+02  0.00000000000E+00 0. -1.
         13    1    1    2    0    0 -0.11896380608E+02 -0.36043541353E+01 -0.77348490390E+01  0.14640843350E+02  0.10566000000E+00 0. -1.
        996    1    1    2    0    0  0.11896380608E+02  0.36043541353E+01  0.89673338441E+02  0.10342061143E+03  0.50000000000E+02 0.  0.
<mgrwt>
<rscale>  0 0.51521988E+02</rscale>
<asrwt>0</asrwt>
<pdfrwt beam="1">  1       13 0.10000000E+01 0.51521988E+02</pdfrwt>
<pdfrwt beam="2">  1       22 0.18061478E+00 0.51521988E+02</pdfrwt>
<totfact> 0.54556026E-01</totfact>
</mgrwt>
</event>
<event>
 4    1  0.2516086E+000  0.7182867E+02  0.7957747E-01  0.1353983E+00
         13   -1    0    0    0    0  0.00000000000E+00  0.00000000000E+00  0.99999944178E+02  0.99999999999E+02  0.10566000000E+00 0.  1.
         22   -1    0    0    0    0 -0.00000000000E+00 -0.00000000000E+00 -0.38153838677E+02  0.38153838677E+02  0.00000000000E+00 0. -1.
         13    1    1    2    0    0 -0.50346448030E+02  0.11162133297E+02  0.29099234872E+02  0.59212622667E+02  0.10566000000E+00 0. -1.
        996    1    1    2    0    0  0.50346448030E+02 -0.11162133297E+02  0.32746870629E+02  0.78941216009E+02  0.50000000000E+02 0.  0.
<mgrwt>
<rscale>  0 0.71828671E+02</rscale>
<asrwt>0</asrwt>
<pdfrwt beam="1">  1       13 0.10000000E+01 0.71828671E+02</pdfrwt>
<pdfrwt beam="2">  1       22 0.38153856E+00 0.71828671E+02</pdfrwt>
<totfact> 0.13694187E-01</totfact>
</mgrwt>
</event>
<event>
 4    1  0.2516086E+000  0.5152741E+02  0.7957747E-01  0.1437273E+00
         13   -1    0    0    0    0  0.00000000000E+00  0.00000000000E+00  0.99999944181E+02  0.10000000000E+03  0.10566000000E+00 0.  1.
         22   -1    0    0    0    0 -0.00000000000E+00 -0.00000000000E+00 -0.16737893312E+02  0.16737893312E+02  0.00000000000E+00 0. -1.
         13    1    1    2    0    0 -0.11118524291E+02  0.56081984724E+01 -0.58824917698E+01  0.13772739233E+02  0.10566000000E+00 0. -1.
        996    1    1    2    0    0  0.11118524291E+02 -0.56081984724E+01  0.89144542639E+02  0.10296515408E+03  0.50000000000E+02 0.  0.
<mgrwt>
<rscale>  0 0.51527405E+02</rscale>
<asrwt>0</asrwt>
<pdfrwt beam="1">  1       13 0.10000000E+01 0.51527405E+02</pdfrwt>
<pdfrwt beam="2">  1       22 0.16737917E+00 0.51527405E+02</pdfrwt>
<totfact> 0.62413303E-01</totfact>
</mgrwt>
</event>
<event>
 4    1  0.2516086E+000  0.5839839E+02  0.7957747E-01  0.1404679E+00
         13   -1    0    0    0    0  0.00000000000E+00  0.00000000000E+00  0.99999944178E+02  0.99999999998E+02  0.10566000000E+00 0.  1.
         22   -1    0    0    0    0 -0.00000000000E+00 -0.00000000000E+00 -0.38372756496E+02  0.38372756496E+02  0.00000000000E+00 0.  1.
         13    1    1    2    0    0  0.29476824267E+02 -0.64411705483E+01 -0.21309406957E+02  0.36938784980E+02  0.10566000000E+00 0. -1.
        996    1    1    2    0    0 -0.29476824267E+02  0.64411705483E+01  0.82936594639E+02  0.10143397151E+03  0.50000000000E+02 0.  0.
<mgrwt>
<rscale>  0 0.58398389E+02</rscale>
<asrwt>0</asrwt>
<pdfrwt beam="1">  1       13 0.10000000E+01 0.58398389E+02</pdfrwt>
<pdfrwt beam="2">  1       22 0.38372774E+00 0.58398389E+02</pdfrwt>
<totfact> 0.13426507E-01</totfact>
</mgrwt>
</event>
<event>
 4    1  0.2516086E+000  0.5167047E+02  0.7957747E-01  0.1436534E+00
         13   -1    0    0    0    0  0.00000000000E+00  0.00000000000E+00  0.99999944174E+02  0.99999999994E+02  0.10566000000E+00 0. -1.
         22   -1    0    0    0    0 -0.00000000000E+00 -0.00000000000E+00 -0.24533477709E+02  0.24533477709E+02  0.00000000000E+00 0.  1.
         13    1    1    2    0    0  0.88647297162E+01  0.95526840562E+01 -0.15295109950E+02  0.20094495715E+02  0.10566000000E+00 0.  1.
        996    1    1    2    0    0 -0.88647297162E+01 -0.95526840562E+01  0.90761576415E+02  0.10443898199E+03  0.50000000000E+02 0.  0.
<mgrwt>
<rscale>  0 0.51670467E+02</rscale>
<asrwt>0</asrwt>
<pdfrwt beam="1">  1       13 0.10000000E+01 0.51670467E+02</pdfrwt>
<pdfrwt beam="2">  1       22 0.24533499E+00 0.51670467E+02</pdfrwt>
<totfact> 0.30575323E-01</totfact>
</mgrwt>
</event>
<event>
 4    1  0.2516086E+000  0.5263089E+02  0.7957747E-01  0.1431647E+00
         13   -1    0    0    0    0  0.00000000000E+00  0.00000000000E+00  0.99999944180E+02  0.10000000000E+03  0.10566000000E+00 0. -1.
         22   -1    0    0    0    0 -0.00000000000E+00 -0.00000000000E+00 -0.23475146052E+02  0.23475146052E+02  0.00000000000E+00 0.  1.
         13    1    1    2    0    0 -0.15523379923E+02  0.53884706698E+01 -0.12095810322E+02  0.20404184173E+02  0.10566000000E+00 0.  1.
        996    1    1    2    0    0  0.15523379923E+02 -0.53884706698E+01  0.88620608451E+02  0.10307096188E+03  0.50000000000E+02 0.  0.
<mgrwt>
<rscale>  0 0.52630893E+02</rscale>
<asrwt>0</asrwt>
<pdfrwt beam="1">  1       13 0.10000000E+01 0.52630893E+02</pdfrwt>
<pdfrwt beam="2">  1       22 0.23475167E+00 0.52630893E+02</pdfrwt>
<totfact> 0.33385214E-01</totfact>
</mgrwt>
</event>
<event>
 4    1  0.2516086E+000  0.5174758E+02  0.7957747E-01  0.1436137E+00
         13   -1    0    0    0    0  0.00000000000E+00  0.00000000000E+00  0.99999944177E+02  0.99999999998E+02  0.10566000000E+00 0.  1.
         22   -1    0    0    0    0 -0.00000000000E+00 -0.00000000000E+00 -0.19442697856E+02  0.19442697856E+02  0.00000000000E+00 0. -1.
         13    1    1    2    0    0 -0.12704116298E+02  0.40519013989E+01 -0.89452628334E+01  0.16057439617E+02  0.10566000000E+00 0. -1.
        996    1    1    2    0    0  0.12704116298E+02 -0.40519013989E+01  0.89502509155E+02  0.10338525824E+03  0.50000000000E+02 0.  0.
<mgrwt>
<rscale>  0 0.51747584E+02</rscale>
<asrwt>0</asrwt>
<pdfrwt beam="1">  1       13 0.10000000E+01 0.51747584E+02</pdfrwt>
<pdfrwt beam="2">  1       22 0.19442720E+00 0.51747584E+02</pdfrwt>
<totfact> 0.47725802E-01</totfact>
</mgrwt>
</event>
<event>
 4    1  0.2516086E+000  0.6072261E+02  0.7957747E-01  0.1394824E+00
         13   -1    0    0    0    0  0.00000000000E+00  0.00000000000E+00  0.99999944186E+02  0.10000000001E+03  0.10566000000E+00 0.  1.
         22   -1    0    0    0    0 -0.00000000000E+00 -0.00000000000E+00 -0.25051117726E+02  0.25051117726E+02  0.00000000000E+00 0. -1.
         13    1    1    2    0    0 -0.34316483648E+02  0.31007765919E+01  0.46813538528E+02  0.58127054106E+02  0.10566000000E+00 0. -1.
        996    1    1    2    0    0  0.34316483648E+02 -0.31007765919E+01  0.28135287932E+02  0.66924063627E+02  0.50000000000E+02 0.  0.
<mgrwt>
<rscale>  0 0.60722614E+02</rscale>
<asrwt>0</asrwt>
<pdfrwt beam="1">  1       13 0.10000000E+01 0.60722614E+02</pdfrwt>
<pdfrwt beam="2">  1       22 0.25051139E+00 0.60722614E+02</pdfrwt>
<totfact> 0.29732408E-01</totfact>
</mgrwt>
</event>
<event>
 4    1  0.2516086E+000  0.5225552E+02  0.7957747E-01  0.1433542E+00
         13   -1    0    0    0    0  0.00000000000E+00  0.00000000000E+00  0.99999944177E+02  0.99999999998E+02  0.10566000000E+00 0. -1.
         22   -1    0    0    0    0 -0.00000000000E+00 -0.00000000000E+00 -0.12309597973E+02  0.12309597973E+02  0.00000000000E+00 0. -1.
         13    1    1    2    0    0 -0.11617303978E+02 -0.97814857830E+01  0.84195449902E+01  0.17364881736E+02  0.10566000000E+00 0.  1.
        996    1    1    2    0    0  0.11617303978E+02  0.97814857830E+01  0.79270801214E+02  0.94944716235E+02  0.50000000000E+02 0.  0.
<mgrwt>
<rscale>  0 0.52255519E+02</rscale>
<asrwt>0</asrwt>
<pdfrwt beam="1">  1       13 0.10000000E+01 0.52255519E+02</pdfrwt>
<pdfrwt beam="2">  1       22 0.12309622E+00 0.52255519E+02</pdfrwt>
<totfact> 0.10342102E+00</totfact>
</mgrwt>
</event>
<event>
 4    1  0.2516086E+000  0.5185722E+02  0.7957747E-01  0.1435574E+00
         13   -1    0    0    0    0  0.00000000000E+00  0.00000000000E+00  0.99999944185E+02  0.10000000000E+03  0.10566000000E+00 0.  1.
         22   -1    0    0    0    0 -0.00000000000E+00 -0.00000000000E+00 -0.37687469314E+02  0.37687469314E+02  0.00000000000E+00 0. -1.
         13    1    1    2    0    0  0.13241904329E+02  0.37179107302E+01 -0.29327343147E+02  0.32392516274E+02  0.10566000000E+00 0. -1.
        996    1    1    2    0    0 -0.13241904329E+02 -0.37179107302E+01  0.91639818018E+02  0.10529495305E+03  0.50000000000E+02 0.  0.
<mgrwt>
<rscale>  0 0.51857216E+02</rscale>
<asrwt>0</asrwt>
<pdfrwt beam="1">  1       13 0.10000000E+01 0.51857216E+02</pdfrwt>
<pdfrwt beam="2">  1       22 0.37687487E+00 0.51857216E+02</pdfrwt>
<totfact> 0.13795747E-01</totfact>
</mgrwt>
</event>
<event>
 4    1  0.2516086E+000  0.5290961E+02  0.7957747E-01  0.1430251E+00
         13   -1    0    0    0    0  0.00000000000E+00  0.00000000000E+00  0.99999944189E+02  0.10000000001E+03  0.10566000000E+00 0. -1.
         22   -1    0    0    0    0 -0.00000000000E+00 -0.00000000000E+00 -0.52657362365E+02  0.52657362365E+02  0.00000000000E+00 0.  1.
         13    1    1    2    0    0  0.76793716892E+01 -0.15506571775E+02 -0.43898110774E+02  0.47185610214E+02  0.10566000000E+00 0.  1.
        996    1    1    2    0    0 -0.76793716892E+01  0.15506571775E+02  0.91240692598E+02  0.10547175216E+03  0.50000000000E+02 0.  0.
<mgrwt>
<rscale>  0 0.52909607E+02</rscale>
<asrwt>0</asrwt>
<pdfrwt beam="1">  1       13 0.10000000E+01 0.52909607E+02</pdfrwt>
<pdfrwt beam="2">  1       22 0.52657376E+00 0.52909607E+02</pdfrwt>
<totfact> 0.64201747E-02</totfact>
</mgrwt>
</event>
<event>
 4    1  0.2516086E+000  0.6270447E+02  0.7957747E-01  0.1386820E+00
         13   -1    0    0    0    0  0.00000000000E+00  0.00000000000E+00  0.99999944180E+02  0.10000000000E+03  0.10566000000E+00 0.  1.
         22   -1    0    0    0    0 -0.00000000000E+00 -0.00000000000E+00 -0.25991402241E+02  0.25991402241E+02  0.00000000000E+00 0. -1.
         13    1    1    2    0    0 -0.59181675070E+01 -0.37374128801E+02  0.17948560226E+02  0.41880928696E+02  0.10566000000E+00 0. -1.
        996    1    1    2    0    0  0.59181675070E+01  0.37374128801E+02  0.56059981713E+02  0.84110473545E+02  0.50000000000E+02 0.  0.
<mgrwt>
<rscale>  0 0.62704467E+02</rscale>
<asrwt>0</asrwt>
<pdfrwt beam="1">  1       13 0.10000000E+01 0.62704467E+02</pdfrwt>
<pdfrwt beam="2">  1       22 0.25991423E+00 0.62704467E+02</pdfrwt>
<totfact> 0.27712737E-01</totfact>
</mgrwt>
</event>
<event>
 4    1  0.2516086E+000  0.5111036E+02  0.7957747E-01  0.1439443E+00
         13   -1    0    0    0    0  0.00000000000E+00  0.00000000000E+00  0.99999944180E+02  0.10000000000E+03  0.10566000000E+00 0.  1.
         22   -1    0    0    0    0 -0.00000000000E+00 -0.00000000000E+00 -0.26445528260E+02  0.26445528260E+02  0.00000000000E+00 0. -1.
         13    1    1    2    0    0 -0.10031047330E+02 -0.34127962950E+01 -0.18404894223E+02  0.21237240510E+02  0.10566000000E+00 0. -1.
        996    1    1    2    0    0  0.10031047330E+02  0.34127962950E+01  0.91959310144E+02  0.10520828775E+03  0.50000000000E+02 0.  0.
<mgrwt>
<rscale>  0 0.51110362E+02</rscale>
<asrwt>0</asrwt>
<pdfrwt beam="1">  1       13 0.10000000E+01 0.51110362E+02</pdfrwt>
<pdfrwt beam="2">  1       22 0.26445549E+00 0.51110362E+02</pdfrwt>
<totfact> 0.26358263E-01</totfact>
</mgrwt>
</event>
<event>
 4    1  0.2516086E+000  0.5135392E+02  0.7957747E-01  0.1438173E+00
         13   -1    0    0    0    0  0.00000000000E+00  0.00000000000E+00  0.99999944175E+02  0.99999999995E+02  0.10566000000E+00 0.  1.
         22   -1    0    0    0    0 -0.00000000000E+00 -0.00000000000E+00 -0.10070699634E+02  0.10070699634E+02  0.00000000000E+00 0.  1.
         13    1    1    2    0    0 -0.77119909071E+01  0.88176241726E+01  0.12240677219E+02  0.16943159169E+02  0.10566000000E+00 0. -1.
        996    1    1    2    0    0  0.77119909071E+01 -0.88176241726E+01  0.77688567322E+02  0.93127540461E+02  0.50000000000E+02 0.  0.
<mgrwt>
<rscale>  0 0.51353922E+02</rscale>
<asrwt>0</asrwt>
<pdfrwt beam="1">  1       13 0.10000000E+01 0.51353922E+02</pdfrwt>
<pdfrwt beam="2">  1       22 0.10070725E+00 0.51353922E+02</pdfrwt>
<totfact> 0.13932867E+00</totfact>
</mgrwt>
</event>
<event>
 4    1  0.2516086E+000  0.5396742E+02  0.7957747E-01  0.1425046E+00
         13   -1    0    0    0    0  0.00000000000E+00  0.00000000000E+00  0.99999944176E+02  0.99999999997E+02  0.10566000000E+00 0.  1.
         22   -1    0    0    0    0 -0.00000000000E+00 -0.00000000000E+00 -0.22554684849E+02  0.22554684849E+02  0.00000000000E+00 0.  1.
         13    1    1    2    0    0  0.19524667553E+02 -0.55919286660E+01 -0.77219924478E+01  0.21728383296E+02  0.10566000000E+00 0. -1.
        996    1    1    2    0    0 -0.19524667553E+02  0.55919286660E+01  0.85167251775E+02  0.10082630155E+03  0.50000000000E+02 0.  0.
<mgrwt>
<rscale>  0 0.53967419E+02</rscale>
<asrwt>0</asrwt>
<pdfrwt beam="1">  1       13 0.10000000E+01 0.53967419E+02</pdfrwt>
<pdfrwt beam="2">  1       22 0.22554706E+00 0.53967419E+02</pdfrwt>
<totfact> 0.36164513E-01</totfact>
</mgrwt>
</event>
<event>
 4    1  0.2516086E+000  0.5172926E+02  0.7957747E-01  0.1436231E+00
         13   -1    0    0    0    0  0.00000000000E+00  0.00000000000E+00  0.99999944177E+02  0.99999999997E+02  0.10566000000E+00 0. -1.
         22   -1    0    0    0    0 -0.00000000000E+00 -0.00000000000E+00 -0.10755522955E+02  0.10755522955E+02  0.00000000000E+00 0. -1.
         13    1    1    2    0    0  0.13508726501E+01  0.13194385917E+02  0.12648060234E+02  0.18327609456E+02  0.10566000000E+00 0.  1.
        996    1    1    2    0    0 -0.13508726501E+01 -0.13194385917E+02  0.76596360987E+02  0.92427913496E+02  0.50000000000E+02 0.  0.
<mgrwt>
<rscale>  0 0.51729263E+02</rscale>
<asrwt>0</asrwt>
<pdfrwt beam="1">  1       13 0.10000000E+01 0.51729263E+02</pdfrwt>
<pdfrwt beam="2">  1       22 0.10755548E+00 0.51729263E+02</pdfrwt>
<totfact> 0.12664683E+00</totfact>
</mgrwt>
</event>
<event>
 4    1  0.2516086E+000  0.5100478E+02  0.7957747E-01  0.1439996E+00
         13   -1    0    0    0    0  0.00000000000E+00  0.00000000000E+00  0.99999944176E+02  0.99999999996E+02  0.10566000000E+00 0. -1.
         22   -1    0    0    0    0 -0.00000000000E+00 -0.00000000000E+00 -0.93349040005E+01  0.93349040005E+01  0.00000000000E+00 0. -1.
         13    1    1    2    0    0  0.81838638655E+01  0.58746616778E+01  0.16183604001E+02  0.19063249463E+02  0.10566000000E+00 0.  1.
        996    1    1    2    0    0 -0.81838638655E+01 -0.58746616778E+01  0.74481436174E+02  0.90271654533E+02  0.50000000000E+02 0.  0.
<mgrwt>
<rscale>  0 0.51004777E+02</rscale>
<asrwt>0</asrwt>
<pdfrwt beam="1">  1       13 0.10000000E+01 0.51004777E+02</pdfrwt>
<pdfrwt beam="2">  1       22 0.93349293E-01 0.51004777E+02</pdfrwt>
<totfact> 0.15523717E+00</totfact>
</mgrwt>
</event>
<event>
 4    1  0.2516086E+000  0.5757867E+02  0.7957747E-01  0.1408283E+00
         13   -1    0    0    0    0  0.00000000000E+00  0.00000000000E+00  0.99999944180E+02  0.10000000000E+03  0.10566000000E+00 0. -1.
         22   -1    0    0    0    0 -0.00000000000E+00 -0.00000000000E+00 -0.28822726000E+02  0.28822726000E+02  0.00000000000E+00 0.  1.
         13    1    1    2    0    0 -0.28520654888E+02  0.13693362408E+01 -0.91560692551E+01  0.29985790055E+02  0.10566000000E+00 0.  1.
        996    1    1    2    0    0  0.28520654888E+02 -0.13693362408E+01  0.80333287435E+02  0.98836935945E+02  0.50000000000E+02 0.  0.
<mgrwt>
<rscale>  0 0.57578667E+02</rscale>
<asrwt>0</asrwt>
<pdfrwt beam="1">  1       13 0.10000000E+01 0.57578667E+02</pdfrwt>
<pdfrwt beam="2">  1       22 0.28822746E+00 0.57578667E+02</pdfrwt>
<totfact> 0.22495079E-01</totfact>
</mgrwt>
</event>
<event>
 4    1  0.2516086E+000  0.5429375E+02  0.7957747E-01  0.1423469E+00
         13   -1    0    0    0    0  0.00000000000E+00  0.00000000000E+00  0.99999944179E+02  0.10000000000E+03  0.10566000000E+00 0. -1.
         22   -1    0    0    0    0 -0.00000000000E+00 -0.00000000000E+00 -0.16887123134E+02  0.16887123134E+02  0.00000000000E+00 0. -1.
         13    1    1    2    0    0  0.93906076807E+01  0.18963843533E+02  0.47376557392E+02  0.51887958415E+02  0.10566000000E+00 0.  1.
        996    1    1    2    0    0 -0.93906076807E+01 -0.18963843533E+02  0.35736263654E+02  0.64999164718E+02  0.50000000000E+02 0.  0.
<mgrwt>
<rscale>  0 0.54293746E+02</rscale>
<asrwt>0</asrwt>
<pdfrwt beam="1">  1       13 0.10000000E+01 0.54293746E+02</pdfrwt>
<pdfrwt beam="2">  1       22 0.16887146E+00 0.54293746E+02</pdfrwt>
<totfact> 0.61779780E-01</totfact>
</mgrwt>
</event>
<event>
 4    1  0.2516086E+000  0.5460105E+02  0.7957747E-01  0.1421995E+00
         13   -1    0    0    0    0  0.00000000000E+00  0.00000000000E+00  0.99999944179E+02  0.99999999999E+02  0.10566000000E+00 0.  1.
         22   -1    0    0    0    0 -0.00000000000E+00 -0.00000000000E+00 -0.16679661331E+02  0.16679661331E+02  0.00000000000E+00 0.  1.
         13    1    1    2    0    0 -0.12955136823E+02  0.17704222485E+02  0.44722849732E+02  0.49813848638E+02  0.10566000000E+00 0. -1.
        996    1    1    2    0    0  0.12955136823E+02 -0.17704222485E+02  0.38597433116E+02  0.66865812693E+02  0.50000000000E+02 0.  0.
<mgrwt>
<rscale>  0 0.54601054E+02</rscale>
<asrwt>0</asrwt>
<pdfrwt beam="1">  1       13 0.10000000E+01 0.54601054E+02</pdfrwt>
<pdfrwt beam="2">  1       22 0.16679685E+00 0.54601054E+02</pdfrwt>
<totfact> 0.63162930E-01</totfact>
</mgrwt>
</event>
<event>
 4    1  0.2516086E+000  0.5182558E+02  0.7957747E-01  0.1435736E+00
         13   -1    0    0    0    0  0.00000000000E+00  0.00000000000E+00  0.99999944177E+02  0.99999999997E+02  0.10566000000E+00 0.  1.
         22   -1    0    0    0    0 -0.00000000000E+00 -0.00000000000E+00 -0.11768549180E+02  0.11768549180E+02  0.00000000000E+00 0.  1.
         13    1    1    2    0    0 -0.10884577744E+02 -0.82107898259E+01  0.67801048051E+01  0.15227346697E+02  0.10566000000E+00 0. -1.
        996    1    1    2    0    0  0.10884577744E+02  0.82107898259E+01  0.81451290192E+02  0.96541202480E+02  0.50000000000E+02 0.  0.
<mgrwt>
<rscale>  0 0.51825583E+02</rscale>
<asrwt>0</asrwt>
<pdfrwt beam="1">  1       13 0.10000000E+01 0.51825583E+02</pdfrwt>
<pdfrwt beam="2">  1       22 0.11768574E+00 0.51825583E+02</pdfrwt>
<totfact> 0.11069351E+00</totfact>
</mgrwt>
</event>
<event>
 4    1  0.2516086E+000  0.6794531E+02  0.7957747E-01  0.1367223E+00
         13   -1    0    0    0    0  0.00000000000E+00  0.00000000000E+00  0.99999944177E+02  0.99999999997E+02  0.10566000000E+00 0.  1.
         22   -1    0    0    0    0 -0.00000000000E+00 -0.00000000000E+00 -0.65080389504E+02  0.65080389504E+02  0.00000000000E+00 0. -1.
         13    1    1    2    0    0 -0.51441474241E+01 -0.45717645354E+02 -0.42108690182E+02  0.62367606194E+02  0.10566000000E+00 0. -1.
        996    1    1    2    0    0  0.51441474241E+01  0.45717645354E+02  0.77028244855E+02  0.10271278331E+03  0.50000000000E+02 0.  0.
<mgrwt>
<rscale>  0 0.67945311E+02</rscale>
<asrwt>0</asrwt>
<pdfrwt beam="1">  1       13 0.10000000E+01 0.67945311E+02</pdfrwt>
<pdfrwt beam="2">  1       22 0.65080399E+00 0.67945311E+02</pdfrwt>
<totfact> 0.86560850E-02</totfact>
</mgrwt>
</event>
<event>
 4    1  0.2516086E+000  0.5101493E+02  0.7957747E-01  0.1439943E+00
         13   -1    0    0    0    0  0.00000000000E+00  0.00000000000E+00  0.99999944174E+02  0.99999999994E+02  0.10566000000E+00 0.  1.
         22   -1    0    0    0    0 -0.00000000000E+00 -0.00000000000E+00 -0.93722159841E+01  0.93722159841E+01  0.00000000000E+00 0.  1.
         13    1    1    2    0    0  0.96892722826E+01  0.29395869892E+01  0.17269706159E+02  0.20019417671E+02  0.10566000000E+00 0. -1.
        996    1    1    2    0    0 -0.96892722826E+01 -0.29395869892E+01  0.73358022030E+02  0.89352798307E+02  0.50000000000E+02 0.  0.
<mgrwt>
<rscale>  0 0.51014931E+02</rscale>
<asrwt>0</asrwt>
<pdfrwt beam="1">  1       13 0.10000000E+01 0.51014931E+02</pdfrwt>
<pdfrwt beam="2">  1       22 0.93722413E-01 0.51014931E+02</pdfrwt>
<totfact> 0.15436239E+00</totfact>
</mgrwt>
</event>
<event>
 4    1  0.2516086E+000  0.5179561E+02  0.7957747E-01  0.1435890E+00
         13   -1    0    0    0    0  0.00000000000E+00  0.00000000000E+00  0.99999944178E+02  0.99999999998E+02  0.10566000000E+00 0.  1.
         22   -1    0    0    0    0 -0.00000000000E+00 -0.00000000000E+00 -0.31720306413E+02  0.31720306413E+02  0.00000000000E+00 0. -1.
         13    1    1    2    0    0  0.48040952127E+00  0.13511252633E+02 -0.23051722760E+02  0.26724105734E+02  0.10566000000E+00 0. -1.
        996    1    1    2    0    0 -0.48040952127E+00 -0.13511252633E+02  0.91331360526E+02  0.10499620068E+03  0.50000000000E+02 0.  0.
<mgrwt>
<rscale>  0 0.51795605E+02</rscale>
<asrwt>0</asrwt>
<pdfrwt beam="1">  1       13 0.10000000E+01 0.51795605E+02</pdfrwt>
<pdfrwt beam="2">  1       22 0.31720325E+00 0.51795605E+02</pdfrwt>
<totfact> 0.18686058E-01</totfact>
</mgrwt>
</event>
<event>
 4    1  0.2516086E+000  0.5122598E+02  0.7957747E-01  0.1438839E+00
         13   -1    0    0    0    0  0.00000000000E+00  0.00000000000E+00  0.99999944180E+02  0.10000000000E+03  0.10566000000E+00 0. -1.
         22   -1    0    0    0    0 -0.00000000000E+00 -0.00000000000E+00 -0.14713041383E+02  0.14713041383E+02  0.00000000000E+00 0.  1.
         13    1    1    2    0    0  0.71705891398E+01  0.85254898282E+01 -0.39485004941E+01  0.11819608522E+02  0.10566000000E+00 0.  1.
        996    1    1    2    0    0 -0.71705891398E+01 -0.85254898282E+01  0.89235403291E+02  0.10289343286E+03  0.50000000000E+02 0.  0.
<mgrwt>
<rscale>  0 0.51225983E+02</rscale>
<asrwt>0</asrwt>
<pdfrwt beam="1">  1       13 0.10000000E+01 0.51225983E+02</pdfrwt>
<pdfrwt beam="2">  1       22 0.14713065E+00 0.51225983E+02</pdfrwt>
<totfact> 0.77618994E-01</totfact>
</mgrwt>
</event>
<event>
 4    1  0.2516086E+000  0.6455570E+02  0.7957747E-01  0.1379651E+00
         13   -1    0    0    0    0  0.00000000000E+00  0.00000000000E+00  0.99999944185E+02  0.10000000001E+03  0.10566000000E+00 0.  1.
         22   -1    0    0    0    0 -0.00000000000E+00 -0.00000000000E+00 -0.68644113670E+02  0.68644113670E+02  0.00000000000E+00 0. -1.
         13    1    1    2    0    0 -0.30438505948E+02  0.27220132829E+02 -0.50148626834E+02  0.64670968857E+02  0.10566000000E+00 0. -1.
        996    1    1    2    0    0  0.30438505948E+02 -0.27220132829E+02  0.81504457349E+02  0.10397314482E+03  0.50000000000E+02 0.  0.
<mgrwt>
<rscale>  0 0.64555699E+02</rscale>
<asrwt>0</asrwt>
<pdfrwt beam="1">  1       13 0.10000000E+01 0.64555699E+02</pdfrwt>
<pdfrwt beam="2">  1       22 0.68644122E+00 0.64555699E+02</pdfrwt>
<totfact> 0.80985753E-02</totfact>
</mgrwt>
</event>
<event>
 4    1  0.2516086E+000  0.5146615E+02  0.7957747E-01  0.1437590E+00
         13   -1    0    0    0    0  0.00000000000E+00  0.00000000000E+00  0.99999944173E+02  0.99999999993E+02  0.10566000000E+00 0.  1.
         22   -1    0    0    0    0 -0.00000000000E+00 -0.00000000000E+00 -0.15644558448E+02  0.15644558448E+02  0.00000000000E+00 0.  1.
         13    1    1    2    0    0 -0.12110560569E+02  0.14489111703E+01 -0.44664150716E+01  0.12989420638E+02  0.10566000000E+00 0. -1.
        996    1    1    2    0    0  0.12110560569E+02 -0.14489111703E+01  0.88821800796E+02  0.10265513780E+03  0.50000000000E+02 0.  0.
<mgrwt>
<rscale>  0 0.51466154E+02</rscale>
<asrwt>0</asrwt>
<pdfrwt beam="1">  1       13 0.10000000E+01 0.51466154E+02</pdfrwt>
<pdfrwt beam="2">  1       22 0.15644582E+00 0.51466154E+02</pdfrwt>
<totfact> 0.70080754E-01</totfact>
</mgrwt>
</event>
<event>
 4    1  0.2516086E+000  0.5228144E+02  0.7957747E-01  0.1433411E+00
         13   -1    0    0    0    0  0.00000000000E+00  0.00000000000E+00  0.99999944181E+02  0.10000000000E+03  0.10566000000E+00 0.  1.
         22   -1    0    0    0    0 -0.00000000000E+00 -0.00000000000E+00 -0.34317223110E+02  0.34317223110E+02  0.00000000000E+00 0. -1.
         13    1    1    2    0    0 -0.78423223117E+01  0.13109031965E+02 -0.25200583363E+02  0.29469124591E+02  0.10566000000E+00 0. -1.
        996    1    1    2    0    0  0.78423223117E+01 -0.13109031965E+02  0.90883304434E+02  0.10484809852E+03  0.50000000000E+02 0.  0.
<mgrwt>
<rscale>  0 0.52281438E+02</rscale>
<asrwt>0</asrwt>
<pdfrwt beam="1">  1       13 0.10000000E+01 0.52281438E+02</pdfrwt>
<pdfrwt beam="2">  1       22 0.34317241E+00 0.52281438E+02</pdfrwt>
<totfact> 0.16268496E-01</totfact>
</mgrwt>
</event>
<event>
 4    1  0.2516086E+000  0.5173367E+02  0.7957747E-01  0.1436209E+00
         13   -1    0    0    0    0  0.00000000000E+00  0.00000000000E+00  0.99999944178E+02  0.99999999998E+02  0.10566000000E+00 0.  1.
         22   -1    0    0    0    0 -0.00000000000E+00 -0.00000000000E+00 -0.15772278153E+02  0.15772278153E+02  0.00000000000E+00 0. -1.
         13    1    1    2    0    0  0.70886544666E+00 -0.13261594323E+02 -0.36713857726E+01  0.13779064254E+02  0.10566000000E+00 0. -1.
        996    1    1    2    0    0 -0.70886544666E+00  0.13261594323E+02  0.87899051798E+02  0.10199321390E+03  0.50000000000E+02 0.  0.
<mgrwt>
<rscale>  0 0.51733668E+02</rscale>
<asrwt>0</asrwt>
<pdfrwt beam="1">  1       13 0.10000000E+01 0.51733668E+02</pdfrwt>
<pdfrwt beam="2">  1       22 0.15772302E+00 0.51733668E+02</pdfrwt>
<totfact> 0.69158079E-01</totfact>
</mgrwt>
</event>
<event>
 4    1  0.2516086E+000  0.5427693E+02  0.7957747E-01  0.1423550E+00
         13   -1    0    0    0    0  0.00000000000E+00  0.00000000000E+00  0.99999944184E+02  0.10000000000E+03  0.10566000000E+00 0. -1.
         22   -1    0    0    0    0 -0.00000000000E+00 -0.00000000000E+00 -0.14437847797E+02  0.14437847797E+02  0.00000000000E+00 0. -1.
         13    1    1    2    0    0  0.19161030773E+02  0.88791620670E+01  0.17810921483E+02  0.27626521812E+02  0.10566000000E+00 0.  1.
        996    1    1    2    0    0 -0.19161030773E+02 -0.88791620670E+01  0.67751174904E+02  0.86811325990E+02  0.50000000000E+02 0.  0.
<mgrwt>
<rscale>  0 0.54276925E+02</rscale>
<asrwt>0</asrwt>
<pdfrwt beam="1">  1       13 0.10000000E+01 0.54276925E+02</pdfrwt>
<pdfrwt beam="2">  1       22 0.14437872E+00 0.54276925E+02</pdfrwt>
<totfact> 0.80569441E-01</totfact>
</mgrwt>
</event>
<event>
 4    1  0.2516086E+000  0.5106928E+02  0.7957747E-01  0.1439658E+00
         13   -1    0    0    0    0  0.00000000000E+00  0.00000000000E+00  0.99999944178E+02  0.99999999998E+02  0.10566000000E+00 0.  1.
         22   -1    0    0    0    0 -0.00000000000E+00 -0.00000000000E+00 -0.10652918048E+02  0.10652918048E+02  0.00000000000E+00 0.  1.
         13    1    1    2    0    0  0.84157062631E+01  0.61030805534E+01  0.38923347417E+01  0.11101042200E+02  0.10566000000E+00 0. -1.
        996    1    1    2    0    0 -0.84157062631E+01 -0.61030805534E+01  0.85454691388E+02  0.99551875846E+02  0.50000000000E+02 0.  0.
<mgrwt>
<rscale>  0 0.51069283E+02</rscale>
<asrwt>0</asrwt>
<pdfrwt beam="1">  1       13 0.10000000E+01 0.51069283E+02</pdfrwt>
<pdfrwt beam="2">  1       22 0.10652943E+00 0.51069283E+02</pdfrwt>
<totfact> 0.12825073E+00</totfact>
</mgrwt>
</event>
<event>
 4    1  0.2516086E+000  0.5117421E+02  0.7957747E-01  0.1439109E+00
         13   -1    0    0    0    0  0.00000000000E+00  0.00000000000E+00  0.99999944184E+02  0.10000000000E+03  0.10566000000E+00 0.  1.
         22   -1    0    0    0    0 -0.00000000000E+00 -0.00000000000E+00 -0.96343066385E+01  0.96343066385E+01  0.00000000000E+00 0.  1.
         13    1    1    2    0    0  0.65935772755E+01  0.86789962706E+01  0.15388869732E+02  0.18858120617E+02  0.10566000000E+00 0. -1.
        996    1    1    2    0    0 -0.65935772755E+01 -0.86789962706E+01  0.74976767814E+02  0.90776186026E+02  0.50000000000E+02 0.  0.
<mgrwt>
<rscale>  0 0.51174215E+02</rscale>
<asrwt>0</asrwt>
<pdfrwt beam="1">  1       13 0.10000000E+01 0.51174215E+02</pdfrwt>
<pdfrwt beam="2">  1       22 0.96343319E-01 0.51174215E+02</pdfrwt>
<totfact> 0.14845649E+00</totfact>
</mgrwt>
</event>
<event>
 4    1  0.2516086E+000  0.5139051E+02  0.7957747E-01  0.1437983E+00
         13   -1    0    0    0    0  0.00000000000E+00  0.00000000000E+00  0.99999944185E+02  0.10000000001E+03  0.10566000000E+00 0.  1.
         22   -1    0    0    0    0 -0.00000000000E+00 -0.00000000000E+00 -0.23957360318E+02  0.23957360318E+02  0.00000000000E+00 0. -1.
         13    1    1    2    0    0 -0.11492720721E+02 -0.29835493600E+01 -0.15169589457E+02  0.19264262370E+02  0.10566000000E+00 0. -1.
        996    1    1    2    0    0  0.11492720721E+02  0.29835493600E+01  0.91212173325E+02  0.10469309795E+03  0.50000000000E+02 0.  0.
<mgrwt>
<rscale>  0 0.51390507E+02</rscale>
<asrwt>0</asrwt>
<pdfrwt beam="1">  1       13 0.10000000E+01 0.51390507E+02</pdfrwt>
<pdfrwt beam="2">  1       22 0.23957382E+00 0.51390507E+02</pdfrwt>
<totfact> 0.32019230E-01</totfact>
</mgrwt>
</event>
<event>
 4    1  0.2516086E+000  0.5144580E+02  0.7957747E-01  0.1437696E+00
         13   -1    0    0    0    0  0.00000000000E+00  0.00000000000E+00  0.99999944179E+02  0.99999999999E+02  0.10566000000E+00 0.  1.
         22   -1    0    0    0    0 -0.00000000000E+00 -0.00000000000E+00 -0.43728176907E+02  0.43728176907E+02  0.00000000000E+00 0. -1.
         13    1    1    2    0    0 -0.98342826420E+01 -0.70680449659E+01 -0.36055497650E+02  0.38035252721E+02  0.10566000000E+00 0. -1.
        996    1    1    2    0    0  0.98342826420E+01  0.70680449659E+01  0.92327264922E+02  0.10569292418E+03  0.50000000000E+02 0.  0.
<mgrwt>
<rscale>  0 0.51445800E+02</rscale>
<asrwt>0</asrwt>
<pdfrwt beam="1">  1       13 0.10000000E+01 0.51445800E+02</pdfrwt>
<pdfrwt beam="2">  1       22 0.43728193E+00 0.51445800E+02</pdfrwt>
<totfact> 0.10308930E-01</totfact>
</mgrwt>
</event>
<event>
 4    1  0.2516086E+000  0.5598364E+02  0.7957747E-01  0.1415504E+00
         13   -1    0    0    0    0  0.00000000000E+00  0.00000000000E+00  0.99999944168E+02  0.99999999988E+02  0.10566000000E+00 0. -1.
         22   -1    0    0    0    0 -0.00000000000E+00 -0.00000000000E+00 -0.18308400269E+02  0.18308400269E+02  0.00000000000E+00 0. -1.
         13    1    1    2    0    0  0.24056570547E+02 -0.74464539817E+01  0.44390732866E+02  0.51036424167E+02  0.10566000000E+00 0.  1.
        996    1    1    2    0    0 -0.24056570547E+02  0.74464539817E+01  0.37300811033E+02  0.67271976090E+02  0.50000000000E+02 0.  0.
<mgrwt>
<rscale>  0 0.55983643E+02</rscale>
<asrwt>0</asrwt>
<pdfrwt beam="1">  1       13 0.10000000E+01 0.55983643E+02</pdfrwt>
<pdfrwt beam="2">  1       22 0.18308423E+00 0.55983643E+02</pdfrwt>
<totfact> 0.53670283E-01</totfact>
</mgrwt>
</event>
<event>
 4    1  0.2516086E+000  0.5188634E+02  0.7957747E-01  0.1435425E+00
         13   -1    0    0    0    0  0.00000000000E+00  0.00000000000E+00  0.99999944184E+02  0.10000000000E+03  0.10566000000E+00 0.  1.
         22   -1    0    0    0    0 -0.00000000000E+00 -0.00000000000E+00 -0.10998912067E+02  0.10998912067E+02  0.00000000000E+00 0.  1.
         13    1    1    2    0    0 -0.88413317236E+01 -0.10678179791E+02  0.13217275220E+02  0.19154639088E+02  0.10566000000E+00 0. -1.
        996    1    1    2    0    0  0.88413317236E+01  0.10678179791E+02  0.75783756897E+02  0.91844272983E+02  0.50000000000E+02 0.  0.
<mgrwt>
<rscale>  0 0.51886344E+02</rscale>
<asrwt>0</asrwt>
<pdfrwt beam="1">  1       13 0.10000000E+01 0.51886344E+02</pdfrwt>
<pdfrwt beam="2">  1       22 0.10998937E+00 0.51886344E+02</pdfrwt>
<totfact> 0.12255825E+00</totfact>
</mgrwt>
</event>
<event>
 4    1  0.2516086E+000  0.6375531E+02  0.7957747E-01  0.1382716E+00
         13   -1    0    0    0    0  0.00000000000E+00  0.00000000000E+00  0.99999944178E+02  0.99999999998E+02  0.10566000000E+00 0.  1.
         22   -1    0    0    0    0 -0.00000000000E+00 -0.00000000000E+00 -0.26790838913E+02  0.26790838913E+02  0.00000000000E+00 0. -1.
         13    1    1    2    0    0 -0.37023913781E+02 -0.13927273221E+02  0.31966347483E+02  0.50858604645E+02  0.10566000000E+00 0. -1.
        996    1    1    2    0    0  0.37023913781E+02  0.13927273221E+02  0.41242757782E+02  0.75932234266E+02  0.50000000000E+02 0.  0.
<mgrwt>
<rscale>  0 0.63755307E+02</rscale>
<asrwt>0</asrwt>
<pdfrwt beam="1">  1       13 0.10000000E+01 0.63755307E+02</pdfrwt>
<pdfrwt beam="2">  1       22 0.26790859E+00 0.63755307E+02</pdfrwt>
<totfact> 0.26136106E-01</totfact>
</mgrwt>
</event>
