<event>
 4    1  0.2505250E+000  0.5341951E+02  0.7957747E-01  0.1427724E+00
         13   -1    0    0    0    0  0.00000000000E+00  0.00000000000E+00  0.99999944177E+02  0.99999999997E+02  0.10566000000E+00 0.  1.
         22   -1    0    0    0    0 -0.00000000000E+00 -0.00000000000E+00 -0.29976370946E+02  0.29976370946E+02  0.00000000000E+00 0. -1.
         13    1    1    2    0    0  0.18138151840E+02 -0.49650296151E+01 -0.18630588744E+02  0.26471759901E+02  0.10566000000E+00 0. -1.
        996    1    1    2    0    0 -0.18138151840E+02  0.49650296151E+01  0.88654161975E+02  0.10350461104E+03  0.50000000000E+02 0.  0.
<mgrwt>
<rscale>  0 0.53419510E+02</rscale>
<asrwt>0</asrwt>
<pdfrwt beam="1">  1       13 0.10000000E+01 0.53419510E+02</pdfrwt>
<pdfrwt beam="2">  1       22 0.29976391E+00 0.53419510E+02</pdfrwt>
<totfact> 0.20771975E-01</totfact>
</mgrwt>
</event>
<event>
 4    1  0.2505250E+000  0.5321409E+02  0.7957747E-01  0.1428738E+00
         13   -1    0    0    0    0  0.00000000000E+00  0.00000000000E+00  0.99999944180E+02  0.10000000000E+03  0.10566000000E+00 0.  1.
         22   -1    0    0    0    0 -0.00000000000E+00 -0.00000000000E+00 -0.51681737854E+02  0.51681737854E+02  0.00000000000E+00 0. -1.
         13    1    1    2    0    0  0.16460551453E+02  0.77967887443E+01 -0.42602751532E+02  0.46332982539E+02  0.10566000000E+00 0. -1.
        996    1    1    2    0    0 -0.16460551453E+02 -0.77967887443E+01  0.90920957857E+02  0.10534875532E+03  0.50000000000E+02 0.  0.
<mgrwt>
<rscale>  0 0.53214093E+02</rscale>
<asrwt>0</asrwt>
<pdfrwt beam="1">  1       13 0.10000000E+01 0.53214093E+02</pdfrwt>
<pdfrwt beam="2">  1       22 0.51681751E+00 0.53214093E+02</pdfrwt>
<totfact> 0.67386052E-02</totfact>
</mgrwt>
</event>
<event>
 4    1  0.2505250E+000  0.5279707E+02  0.7957747E-01  0.1430813E+00
         13   -1    0    0    0    0  0.00000000000E+00  0.00000000000E+00  0.99999944181E+02  0.10000000000E+03  0.10566000000E+00 0.  1.
         22   -1    0    0    0    0 -0.00000000000E+00 -0.00000000000E+00 -0.14380294826E+02  0.14380294826E+02  0.00000000000E+00 0.  1.
         13    1    1    2    0    0  0.14918806889E+02  0.80597691943E+01  0.44173908412E+01  0.17522990166E+02  0.10566000000E+00 0. -1.
        996    1    1    2    0    0 -0.14918806889E+02 -0.80597691943E+01  0.81202258514E+02  0.96857304661E+02  0.50000000000E+02 0.  0.
<mgrwt>
<rscale>  0 0.52797071E+02</rscale>
<asrwt>0</asrwt>
<pdfrwt beam="1">  1       13 0.10000000E+01 0.52797071E+02</pdfrwt>
<pdfrwt beam="2">  1       22 0.14380319E+00 0.52797071E+02</pdfrwt>
<totfact> 0.80857779E-01</totfact>
</mgrwt>
</event>
<event>
 4    1  0.2505250E+000  0.5269209E+02  0.7957747E-01  0.1431339E+00
         13   -1    0    0    0    0  0.00000000000E+00  0.00000000000E+00  0.99999944177E+02  0.99999999997E+02  0.10566000000E+00 0. -1.
         22   -1    0    0    0    0 -0.00000000000E+00 -0.00000000000E+00 -0.28266582393E+02  0.28266582393E+02  0.00000000000E+00 0.  1.
         13    1    1    2    0    0  0.52435533182E+01 -0.15778509565E+02 -0.17813097495E+02  0.24367474672E+02  0.10566000000E+00 0.  1.
        996    1    1    2    0    0 -0.52435533182E+01  0.15778509565E+02  0.89546459278E+02  0.10389910772E+03  0.50000000000E+02 0.  0.
<mgrwt>
<rscale>  0 0.52692089E+02</rscale>
<asrwt>0</asrwt>
<pdfrwt beam="1">  1       13 0.10000000E+01 0.52692089E+02</pdfrwt>
<pdfrwt beam="2">  1       22 0.28266602E+00 0.52692089E+02</pdfrwt>
<totfact> 0.23204948E-01</totfact>
</mgrwt>
</event>
<event>
 4    1  0.2505250E+000  0.5120990E+02  0.7957747E-01  0.1438923E+00
         13   -1    0    0    0    0  0.00000000000E+00  0.00000000000E+00  0.99999944181E+02  0.10000000000E+03  0.10566000000E+00 0.  1.
         22   -1    0    0    0    0 -0.00000000000E+00 -0.00000000000E+00 -0.97062940658E+01  0.97062940658E+01  0.00000000000E+00 0.  1.
         13    1    1    2    0    0  0.98152572972E+01 -0.51102733492E+01  0.17454471437E+02  0.20666976235E+02  0.10566000000E+00 0. -1.
        996    1    1    2    0    0 -0.98152572972E+01  0.51102733492E+01  0.72839178678E+02  0.89039317832E+02  0.50000000000E+02 0.  0.
<mgrwt>
<rscale>  0 0.51209903E+02</rscale>
<asrwt>0</asrwt>
<pdfrwt beam="1">  1       13 0.10000000E+01 0.51209903E+02</pdfrwt>
<pdfrwt beam="2">  1       22 0.97063193E-01 0.51209903E+02</pdfrwt>
<totfact> 0.14689162E+00</totfact>
</mgrwt>
</event>
<event>
 4    1  0.2505250E+000  0.5234947E+02  0.7957747E-01  0.1433066E+00
         13   -1    0    0    0    0  0.00000000000E+00  0.00000000000E+00  0.99999944178E+02  0.99999999998E+02  0.10566000000E+00 0. -1.
         22   -1    0    0    0    0 -0.00000000000E+00 -0.00000000000E+00 -0.11610691324E+02  0.11610691324E+02  0.00000000000E+00 0. -1.
         13    1    1    2    0    0 -0.13347185943E+02  0.78943014673E+01  0.24747457079E+02  0.29204711335E+02  0.10566000000E+00 0.  1.
        996    1    1    2    0    0  0.13347185943E+02 -0.78943014673E+01  0.63641795775E+02  0.82405979987E+02  0.50000000000E+02 0.  0.
<mgrwt>
<rscale>  0 0.52349473E+02</rscale>
<asrwt>0</asrwt>
<pdfrwt beam="1">  1       13 0.10000000E+01 0.52349473E+02</pdfrwt>
<pdfrwt beam="2">  1       22 0.11610716E+00 0.52349473E+02</pdfrwt>
<totfact> 0.11311737E+00</totfact>
</mgrwt>
</event>
<event>
 4    1  0.2505250E+000  0.7063801E+02  0.7957747E-01  0.1357937E+00
         13   -1    0    0    0    0  0.00000000000E+00  0.00000000000E+00  0.99999944181E+02  0.10000000000E+03  0.10566000000E+00 0. -1.
         22   -1    0    0    0    0 -0.00000000000E+00 -0.00000000000E+00 -0.36661989372E+02  0.36661989372E+02  0.00000000000E+00 0.  1.
         13    1    1    2    0    0 -0.48299724797E+02 -0.12524566722E+02  0.19785997775E+02  0.53677044061E+02  0.10566000000E+00 0.  1.
        996    1    1    2    0    0  0.48299724797E+02  0.12524566722E+02  0.43551957033E+02  0.82984945312E+02  0.50000000000E+02 0.  0.
<mgrwt>
<rscale>  0 0.70638008E+02</rscale>
<asrwt>0</asrwt>
<pdfrwt beam="1">  1       13 0.10000000E+01 0.70638008E+02</pdfrwt>
<pdfrwt beam="2">  1       22 0.36662007E+00 0.70638008E+02</pdfrwt>
<totfact> 0.14708622E-01</totfact>
</mgrwt>
</event>
<event>
 4    1  0.2505250E+000  0.5265354E+02  0.7957747E-01  0.1431533E+00
         13   -1    0    0    0    0  0.00000000000E+00  0.00000000000E+00  0.99999944181E+02  0.10000000000E+03  0.10566000000E+00 0.  1.
         22   -1    0    0    0    0 -0.00000000000E+00 -0.00000000000E+00 -0.36736343220E+02  0.36736343220E+02  0.00000000000E+00 0. -1.
         13    1    1    2    0    0  0.10381350116E+02  0.12830541505E+02 -0.27344962889E+02  0.31939840091E+02  0.10566000000E+00 0. -1.
        996    1    1    2    0    0 -0.10381350116E+02 -0.12830541505E+02  0.90608563850E+02  0.10479650313E+03  0.50000000000E+02 0.  0.
<mgrwt>
<rscale>  0 0.52653540E+02</rscale>
<asrwt>0</asrwt>
<pdfrwt beam="1">  1       13 0.10000000E+01 0.52653540E+02</pdfrwt>
<pdfrwt beam="2">  1       22 0.36736361E+00 0.52653540E+02</pdfrwt>
<totfact> 0.14446589E-01</totfact>
</mgrwt>
</event>
<event>
 4    1  0.2505250E+000  0.5639908E+02  0.7957747E-01  0.1413596E+00
         13   -1    0    0    0    0  0.00000000000E+00  0.00000000000E+00  0.99999944193E+02  0.10000000001E+03  0.10566000000E+00 0. -1.
         22   -1    0    0    0    0 -0.00000000000E+00 -0.00000000000E+00 -0.22074895757E+02  0.22074895757E+02  0.00000000000E+00 0.  1.
         13    1    1    2    0    0 -0.25815602979E+02 -0.37962390203E+01  0.26343275043E+00  0.26094776272E+02  0.10566000000E+00 0.  1.
        996    1    1    2    0    0  0.25815602979E+02  0.37962390203E+01  0.77661615686E+02  0.95980119498E+02  0.50000000000E+02 0.  0.
<mgrwt>
<rscale>  0 0.56399085E+02</rscale>
<asrwt>0</asrwt>
<pdfrwt beam="1">  1       13 0.10000000E+01 0.56399085E+02</pdfrwt>
<pdfrwt beam="2">  1       22 0.22074918E+00 0.56399085E+02</pdfrwt>
<totfact> 0.37844889E-01</totfact>
</mgrwt>
</event>
<event>
 4    1  0.2505250E+000  0.5114882E+02  0.7957747E-01  0.1439242E+00
         13   -1    0    0    0    0  0.00000000000E+00  0.00000000000E+00  0.99999944174E+02  0.99999999995E+02  0.10566000000E+00 0.  1.
         22   -1    0    0    0    0 -0.00000000000E+00 -0.00000000000E+00 -0.30461663968E+02  0.30461663968E+02  0.00000000000E+00 0. -1.
         13    1    1    2    0    0  0.63644702539E+01 -0.87003073853E+01 -0.22621845006E+02  0.25059147346E+02  0.10566000000E+00 0. -1.
        996    1    1    2    0    0 -0.63644702539E+01  0.87003073853E+01  0.92160125212E+02  0.10540251662E+03  0.50000000000E+02 0.  0.
<mgrwt>
<rscale>  0 0.51148820E+02</rscale>
<asrwt>0</asrwt>
<pdfrwt beam="1">  1       13 0.10000000E+01 0.51148820E+02</pdfrwt>
<pdfrwt beam="2">  1       22 0.30461683E+00 0.51148820E+02</pdfrwt>
<totfact> 0.20101337E-01</totfact>
</mgrwt>
</event>
<event>
 4    1  0.2505250E+000  0.5143439E+02  0.7957747E-01  0.1437755E+00
         13   -1    0    0    0    0  0.00000000000E+00  0.00000000000E+00  0.99999944179E+02  0.99999999999E+02  0.10566000000E+00 0.  1.
         22   -1    0    0    0    0 -0.00000000000E+00 -0.00000000000E+00 -0.15988792004E+02  0.15988792004E+02  0.00000000000E+00 0. -1.
         13    1    1    2    0    0 -0.11490068594E+02  0.36707349749E+01 -0.51020883829E+01  0.13097268473E+02  0.10566000000E+00 0. -1.
        996    1    1    2    0    0  0.11490068594E+02 -0.36707349749E+01  0.89113240558E+02  0.10289152353E+03  0.50000000000E+02 0.  0.
<mgrwt>
<rscale>  0 0.51434385E+02</rscale>
<asrwt>0</asrwt>
<pdfrwt beam="1">  1       13 0.10000000E+01 0.51434385E+02</pdfrwt>
<pdfrwt beam="2">  1       22 0.15988815E+00 0.51434385E+02</pdfrwt>
<totfact> 0.67529219E-01</totfact>
</mgrwt>
</event>
<event>
 4    1  0.2505250E+000  0.5134684E+02  0.7957747E-01  0.1438210E+00
         13   -1    0    0    0    0  0.00000000000E+00  0.00000000000E+00  0.99999944178E+02  0.99999999998E+02  0.10566000000E+00 0. -1.
         22   -1    0    0    0    0 -0.00000000000E+00 -0.00000000000E+00 -0.16634123641E+02  0.16634123641E+02  0.00000000000E+00 0.  1.
         13    1    1    2    0    0  0.67695092315E+01  0.95221817925E+01 -0.63246939836E+01  0.13285748731E+02  0.10566000000E+00 0.  1.
        996    1    1    2    0    0 -0.67695092315E+01 -0.95221817925E+01  0.89690514520E+02  0.10334837491E+03  0.50000000000E+02 0.  0.
<mgrwt>
<rscale>  0 0.51346842E+02</rscale>
<asrwt>0</asrwt>
<pdfrwt beam="1">  1       13 0.10000000E+01 0.51346842E+02</pdfrwt>
<pdfrwt beam="2">  1       22 0.16634147E+00 0.51346842E+02</pdfrwt>
<totfact> 0.63069268E-01</totfact>
</mgrwt>
</event>
<event>
 4    1  0.2505250E+000  0.5220196E+02  0.7957747E-01  0.1433814E+00
         13   -1    0    0    0    0  0.00000000000E+00  0.00000000000E+00  0.99999944185E+02  0.10000000000E+03  0.10566000000E+00 0. -1.
         22   -1    0    0    0    0 -0.00000000000E+00 -0.00000000000E+00 -0.12925329971E+02  0.12925329971E+02  0.00000000000E+00 0.  1.
         13    1    1    2    0    0  0.19836842462E+01  0.14869760174E+02  0.53026977198E+01  0.15911459329E+02  0.10566000000E+00 0.  1.
        996    1    1    2    0    0 -0.19836842462E+01 -0.14869760174E+02  0.81771916494E+02  0.97013870647E+02  0.50000000000E+02 0.  0.
<mgrwt>
<rscale>  0 0.52201961E+02</rscale>
<asrwt>0</asrwt>
<pdfrwt beam="1">  1       13 0.10000000E+01 0.52201961E+02</pdfrwt>
<pdfrwt beam="2">  1       22 0.12925354E+00 0.52201961E+02</pdfrwt>
<totfact> 0.95832903E-01</totfact>
</mgrwt>
</event>
<event>
 4    1  0.2505250E+000  0.5641659E+02  0.7957747E-01  0.1413516E+00
         13   -1    0    0    0    0  0.00000000000E+00  0.00000000000E+00  0.99999944177E+02  0.99999999997E+02  0.10566000000E+00 0. -1.
         22   -1    0    0    0    0 -0.00000000000E+00 -0.00000000000E+00 -0.17618537605E+02  0.17618537605E+02  0.00000000000E+00 0. -1.
         13    1    1    2    0    0 -0.25963961333E+02 -0.29503765168E+01  0.16599788390E+02  0.30957973905E+02  0.10566000000E+00 0.  1.
        996    1    1    2    0    0  0.25963961333E+02  0.29503765168E+01  0.65781618182E+02  0.86660563697E+02  0.50000000000E+02 0.  0.
<mgrwt>
<rscale>  0 0.56416593E+02</rscale>
<asrwt>0</asrwt>
<pdfrwt beam="1">  1       13 0.10000000E+01 0.56416593E+02</pdfrwt>
<pdfrwt beam="2">  1       22 0.17618561E+00 0.56416593E+02</pdfrwt>
<totfact> 0.57543712E-01</totfact>
</mgrwt>
</event>
<event>
 4    1  0.2505250E+000  0.5202107E+02  0.7957747E-01  0.1434736E+00
         13   -1    0    0    0    0  0.00000000000E+00  0.00000000000E+00  0.99999944173E+02  0.99999999993E+02  0.10566000000E+00 0.  1.
         22   -1    0    0    0    0 -0.00000000000E+00 -0.00000000000E+00 -0.11039103238E+02  0.11039103238E+02  0.00000000000E+00 0.  1.
         13    1    1    2    0    0 -0.13356807241E+02  0.52713591751E+01  0.21389230698E+02  0.25762412176E+02  0.10566000000E+00 0. -1.
        996    1    1    2    0    0  0.13356807241E+02 -0.52713591751E+01  0.67571610238E+02  0.85276691055E+02  0.50000000000E+02 0.  0.
<mgrwt>
<rscale>  0 0.52021068E+02</rscale>
<asrwt>0</asrwt>
<pdfrwt beam="1">  1       13 0.10000000E+01 0.52021068E+02</pdfrwt>
<pdfrwt beam="2">  1       22 0.11039128E+00 0.52021068E+02</pdfrwt>
<totfact> 0.12193255E+00</totfact>
</mgrwt>
</event>
<event>
 4    1  0.2505250E+000  0.5244030E+02  0.7957747E-01  0.1432607E+00
         13   -1    0    0    0    0  0.00000000000E+00  0.00000000000E+00  0.99999944179E+02  0.99999999999E+02  0.10566000000E+00 0. -1.
         22   -1    0    0    0    0 -0.00000000000E+00 -0.00000000000E+00 -0.12378101492E+02  0.12378101492E+02  0.00000000000E+00 0. -1.
         13    1    1    2    0    0  0.14110838693E+02  0.71322817435E+01  0.10019689925E+02  0.18718722224E+02  0.10566000000E+00 0.  1.
        996    1    1    2    0    0 -0.14110838693E+02 -0.71322817435E+01  0.77602152762E+02  0.93659379267E+02  0.50000000000E+02 0.  0.
<mgrwt>
<rscale>  0 0.52440301E+02</rscale>
<asrwt>0</asrwt>
<pdfrwt beam="1">  1       13 0.10000000E+01 0.52440301E+02</pdfrwt>
<pdfrwt beam="2">  1       22 0.12378126E+00 0.52440301E+02</pdfrwt>
<totfact> 0.10257847E+00</totfact>
</mgrwt>
</event>
<event>
 4    1  0.2505250E+000  0.5413827E+02  0.7957747E-01  0.1424219E+00
         13   -1    0    0    0    0  0.00000000000E+00  0.00000000000E+00  0.99999944178E+02  0.99999999998E+02  0.10566000000E+00 0.  1.
         22   -1    0    0    0    0 -0.00000000000E+00 -0.00000000000E+00 -0.18612238957E+02  0.18612238957E+02  0.00000000000E+00 0. -1.
         13    1    1    2    0    0 -0.12825786649E+02 -0.16323351858E+02 -0.12365048304E+00  0.20760035465E+02  0.10566000000E+00 0. -1.
        996    1    1    2    0    0  0.12825786649E+02  0.16323351858E+02  0.81511355704E+02  0.97852203490E+02  0.50000000000E+02 0.  0.
<mgrwt>
<rscale>  0 0.54138273E+02</rscale>
<asrwt>0</asrwt>
<pdfrwt beam="1">  1       13 0.10000000E+01 0.54138273E+02</pdfrwt>
<pdfrwt beam="2">  1       22 0.18612262E+00 0.54138273E+02</pdfrwt>
<totfact> 0.51923795E-01</totfact>
</mgrwt>
</event>
<event>
 4    1  0.2505250E+000  0.5237551E+02  0.7957747E-01  0.1432934E+00
         13   -1    0    0    0    0  0.00000000000E+00  0.00000000000E+00  0.99999944177E+02  0.99999999997E+02  0.10566000000E+00 0.  1.
         22   -1    0    0    0    0 -0.00000000000E+00 -0.00000000000E+00 -0.13587277933E+02  0.13587277933E+02  0.00000000000E+00 0. -1.
         13    1    1    2    0    0 -0.15453987672E+02  0.20901666334E+01  0.42726905449E+01  0.16169773655E+02  0.10566000000E+00 0. -1.
        996    1    1    2    0    0  0.15453987672E+02 -0.20901666334E+01  0.82139975699E+02  0.97417504276E+02  0.50000000000E+02 0.  0.
<mgrwt>
<rscale>  0 0.52375515E+02</rscale>
<asrwt>0</asrwt>
<pdfrwt beam="1">  1       13 0.10000000E+01 0.52375515E+02</pdfrwt>
<pdfrwt beam="2">  1       22 0.13587302E+00 0.52375515E+02</pdfrwt>
<totfact> 0.88563337E-01</totfact>
</mgrwt>
</event>
<event>
 4    1  0.2505250E+000  0.5359795E+02  0.7957747E-01  0.1426848E+00
         13   -1    0    0    0    0  0.00000000000E+00  0.00000000000E+00  0.99999944169E+02  0.99999999990E+02  0.10566000000E+00 0. -1.
         22   -1    0    0    0    0 -0.00000000000E+00 -0.00000000000E+00 -0.18980688238E+02  0.18980688238E+02  0.00000000000E+00 0.  1.
         13    1    1    2    0    0  0.19295341270E+02  0.65602148949E+00 -0.27809068246E+01  0.19506028958E+02  0.10566000000E+00 0.  1.
        996    1    1    2    0    0 -0.19295341270E+02 -0.65602148949E+00  0.83800162756E+02  0.99474659269E+02  0.50000000000E+02 0.  0.
<mgrwt>
<rscale>  0 0.53597953E+02</rscale>
<asrwt>0</asrwt>
<pdfrwt beam="1">  1       13 0.10000000E+01 0.53597953E+02</pdfrwt>
<pdfrwt beam="2">  1       22 0.18980711E+00 0.53597953E+02</pdfrwt>
<totfact> 0.50050947E-01</totfact>
</mgrwt>
</event>
<event>
 4    1  0.2505250E+000  0.5223281E+02  0.7957747E-01  0.1433657E+00
         13   -1    0    0    0    0  0.00000000000E+00  0.00000000000E+00  0.99999944178E+02  0.99999999999E+02  0.10566000000E+00 0. -1.
         22   -1    0    0    0    0 -0.00000000000E+00 -0.00000000000E+00 -0.11708508532E+02  0.11708508532E+02  0.00000000000E+00 0. -1.
         13    1    1    2    0    0 -0.12123585786E+02 -0.90158007237E+01  0.28936544429E+02  0.32643540901E+02  0.10566000000E+00 0.  1.
        996    1    1    2    0    0  0.12123585786E+02  0.90158007237E+01  0.59354891217E+02  0.79064967630E+02  0.50000000000E+02 0.  0.
<mgrwt>
<rscale>  0 0.52232806E+02</rscale>
<asrwt>0</asrwt>
<pdfrwt beam="1">  1       13 0.10000000E+01 0.52232806E+02</pdfrwt>
<pdfrwt beam="2">  1       22 0.11708533E+00 0.52232806E+02</pdfrwt>
<totfact> 0.11165906E+00</totfact>
</mgrwt>
</event>
<event>
 4    1  0.2505250E+000  0.5461404E+02  0.7957747E-01  0.1421933E+00
         13   -1    0    0    0    0  0.00000000000E+00  0.00000000000E+00  0.99999944180E+02  0.10000000000E+03  0.10566000000E+00 0. -1.
         22   -1    0    0    0    0 -0.00000000000E+00 -0.00000000000E+00 -0.14876028413E+02  0.14876028413E+02  0.00000000000E+00 0. -1.
         13    1    1    2    0    0  0.92947138392E+01  0.19907325098E+02  0.30908235776E+02  0.37921280315E+02  0.10566000000E+00 0.  1.
        996    1    1    2    0    0 -0.92947138392E+01 -0.19907325098E+02  0.54215679992E+02  0.76954748098E+02  0.50000000000E+02 0.  0.
<mgrwt>
<rscale>  0 0.54614039E+02</rscale>
<asrwt>0</asrwt>
<pdfrwt beam="1">  1       13 0.10000000E+01 0.54614039E+02</pdfrwt>
<pdfrwt beam="2">  1       22 0.14876052E+00 0.54614039E+02</pdfrwt>
<totfact> 0.76737801E-01</totfact>
</mgrwt>
</event>
<event>
 4    1  0.2505250E+000  0.5263454E+02  0.7957747E-01  0.1431628E+00
         13   -1    0    0    0    0  0.00000000000E+00  0.00000000000E+00  0.99999944180E+02  0.10000000000E+03  0.10566000000E+00 0.  1.
         22   -1    0    0    0    0 -0.00000000000E+00 -0.00000000000E+00 -0.18164908689E+02  0.18164908689E+02  0.00000000000E+00 0. -1.
         13    1    1    2    0    0 -0.88542824860E+01 -0.13856269519E+02 -0.45016346001E+01  0.17049058667E+02  0.10566000000E+00 0. -1.
        996    1    1    2    0    0  0.88542824860E+01  0.13856269519E+02  0.86336670091E+02  0.10111585002E+03  0.50000000000E+02 0.  0.
<mgrwt>
<rscale>  0 0.52634537E+02</rscale>
<asrwt>0</asrwt>
<pdfrwt beam="1">  1       13 0.10000000E+01 0.52634537E+02</pdfrwt>
<pdfrwt beam="2">  1       22 0.18164932E+00 0.52634537E+02</pdfrwt>
<totfact> 0.54111921E-01</totfact>
</mgrwt>
</event>
<event>
 4    1  0.2505250E+000  0.5132435E+02  0.7957747E-01  0.1438327E+00
         13   -1    0    0    0    0  0.00000000000E+00  0.00000000000E+00  0.99999944181E+02  0.10000000000E+03  0.10566000000E+00 0.  1.
         22   -1    0    0    0    0 -0.00000000000E+00 -0.00000000000E+00 -0.42786017075E+02  0.42786017075E+02  0.00000000000E+00 0. -1.
         13    1    1    2    0    0 -0.30347771908E+01  0.11179413963E+02 -0.35210494168E+02  0.37067225857E+02  0.10566000000E+00 0. -1.
        996    1    1    2    0    0  0.30347771908E+01 -0.11179413963E+02  0.92424421274E+02  0.10571879122E+03  0.50000000000E+02 0.  0.
<mgrwt>
<rscale>  0 0.51324353E+02</rscale>
<asrwt>0</asrwt>
<pdfrwt beam="1">  1       13 0.10000000E+01 0.51324353E+02</pdfrwt>
<pdfrwt beam="2">  1       22 0.42786033E+00 0.51324353E+02</pdfrwt>
<totfact> 0.10805119E-01</totfact>
</mgrwt>
</event>
<event>
 4    1  0.2505250E+000  0.5351371E+02  0.7957747E-01  0.1427261E+00
         13   -1    0    0    0    0  0.00000000000E+00  0.00000000000E+00  0.99999944186E+02  0.10000000001E+03  0.10566000000E+00 0. -1.
         22   -1    0    0    0    0 -0.00000000000E+00 -0.00000000000E+00 -0.13925803797E+02  0.13925803797E+02  0.00000000000E+00 0. -1.
         13    1    1    2    0    0  0.90648492099E+01 -0.16779313564E+02  0.11961091941E+02  0.22512124274E+02  0.10566000000E+00 0.  1.
        996    1    1    2    0    0 -0.90648492099E+01  0.16779313564E+02  0.74113048447E+02  0.91413679529E+02  0.50000000000E+02 0.  0.
<mgrwt>
<rscale>  0 0.53513707E+02</rscale>
<asrwt>0</asrwt>
<pdfrwt beam="1">  1       13 0.10000000E+01 0.53513707E+02</pdfrwt>
<pdfrwt beam="2">  1       22 0.13925828E+00 0.53513707E+02</pdfrwt>
<totfact> 0.85323662E-01</totfact>
</mgrwt>
</event>
<event>
 4    1  0.2505250E+000  0.5131260E+02  0.7957747E-01  0.1438388E+00
         13   -1    0    0    0    0  0.00000000000E+00  0.00000000000E+00  0.99999944183E+02  0.10000000000E+03  0.10566000000E+00 0.  1.
         22   -1    0    0    0    0 -0.00000000000E+00 -0.00000000000E+00 -0.10425302691E+02  0.10425302691E+02  0.00000000000E+00 0.  1.
         13    1    1    2    0    0 -0.90367445849E+01  0.71637760011E+01  0.79328512403E+01  0.13997275882E+02  0.10566000000E+00 0. -1.
        996    1    1    2    0    0  0.90367445849E+01 -0.71637760011E+01  0.81641790252E+02  0.96428026812E+02  0.50000000000E+02 0.  0.
<mgrwt>
<rscale>  0 0.51312595E+02</rscale>
<asrwt>0</asrwt>
<pdfrwt beam="1">  1       13 0.10000000E+01 0.51312595E+02</pdfrwt>
<pdfrwt beam="2">  1       22 0.10425328E+00 0.51312595E+02</pdfrwt>
<totfact> 0.13246172E+00</totfact>
</mgrwt>
</event>
<event>
 4    1  0.2505250E+000  0.5165878E+02  0.7957747E-01  0.1436595E+00
         13   -1    0    0    0    0  0.00000000000E+00  0.00000000000E+00  0.99999944182E+02  0.10000000000E+03  0.10566000000E+00 0.  1.
         22   -1    0    0    0    0 -0.00000000000E+00 -0.00000000000E+00 -0.10488211261E+02  0.10488211261E+02  0.00000000000E+00 0. -1.
         13    1    1    2    0    0 -0.51668272753E+01 -0.11913574679E+02  0.15321203538E+02  0.20084317455E+02  0.10566000000E+00 0. -1.
        996    1    1    2    0    0  0.51668272753E+01  0.11913574679E+02  0.74190529383E+02  0.90403893809E+02  0.50000000000E+02 0.  0.
<mgrwt>
<rscale>  0 0.51658778E+02</rscale>
<asrwt>0</asrwt>
<pdfrwt beam="1">  1       13 0.10000000E+01 0.51658778E+02</pdfrwt>
<pdfrwt beam="2">  1       22 0.10488236E+00 0.51658778E+02</pdfrwt>
<totfact> 0.13140686E+00</totfact>
</mgrwt>
</event>
<event>
 4    1  0.2505250E+000  0.5143161E+02  0.7957747E-01  0.1437769E+00
         13   -1    0    0    0    0  0.00000000000E+00  0.00000000000E+00  0.99999944182E+02  0.10000000000E+03  0.10566000000E+00 0.  1.
         22   -1    0    0    0    0 -0.00000000000E+00 -0.00000000000E+00 -0.10075048487E+02  0.10075048487E+02  0.00000000000E+00 0.  1.
         13    1    1    2    0    0  0.97135957765E+01 -0.71313667500E+01  0.16987845435E+02  0.20828067390E+02  0.10566000000E+00 0. -1.
        996    1    1    2    0    0 -0.97135957765E+01  0.71313667500E+01  0.72937050260E+02  0.89246981099E+02  0.50000000000E+02 0.  0.
<mgrwt>
<rscale>  0 0.51431608E+02</rscale>
<asrwt>0</asrwt>
<pdfrwt beam="1">  1       13 0.10000000E+01 0.51431608E+02</pdfrwt>
<pdfrwt beam="2">  1       22 0.10075074E+00 0.51431608E+02</pdfrwt>
<totfact> 0.13926758E+00</totfact>
</mgrwt>
</event>
<event>
 4    1  0.2505250E+000  0.6373764E+02  0.7957747E-01  0.1382784E+00
         13   -1    0    0    0    0  0.00000000000E+00  0.00000000000E+00  0.99999944176E+02  0.99999999996E+02  0.10566000000E+00 0. -1.
         22   -1    0    0    0    0 -0.00000000000E+00 -0.00000000000E+00 -0.28202437576E+02  0.28202437576E+02  0.00000000000E+00 0. -1.
         13    1    1    2    0    0 -0.25010108374E+02 -0.30610156099E+02  0.42540897124E+02  0.58070872815E+02  0.10566000000E+00 0.  1.
        996    1    1    2    0    0  0.25010108374E+02  0.30610156099E+02  0.29256609475E+02  0.70131564757E+02  0.50000000000E+02 0.  0.
<mgrwt>
<rscale>  0 0.63737643E+02</rscale>
<asrwt>0</asrwt>
<pdfrwt beam="1">  1       13 0.10000000E+01 0.63737643E+02</pdfrwt>
<pdfrwt beam="2">  1       22 0.28202458E+00 0.63737643E+02</pdfrwt>
<totfact> 0.23632905E-01</totfact>
</mgrwt>
</event>
<event>
 4    1  0.2505250E+000  0.5186435E+02  0.7957747E-01  0.1435538E+00
         13   -1    0    0    0    0  0.00000000000E+00  0.00000000000E+00  0.99999944178E+02  0.99999999998E+02  0.10566000000E+00 0. -1.
         22   -1    0    0    0    0 -0.00000000000E+00 -0.00000000000E+00 -0.46697964679E+02  0.46697964679E+02  0.00000000000E+00 0.  1.
         13    1    1    2    0    0 -0.20195948916E+01 -0.13632024218E+02 -0.38701989862E+02  0.41082429713E+02  0.10566000000E+00 0.  1.
        996    1    1    2    0    0  0.20195948916E+01  0.13632024218E+02  0.92003969361E+02  0.10561553496E+03  0.50000000000E+02 0.  0.
<mgrwt>
<rscale>  0 0.51864350E+02</rscale>
<asrwt>0</asrwt>
<pdfrwt beam="1">  1       13 0.10000000E+01 0.51864350E+02</pdfrwt>
<pdfrwt beam="2">  1       22 0.46697980E+00 0.51864350E+02</pdfrwt>
<totfact> 0.88304419E-02</totfact>
</mgrwt>
</event>
<event>
 4    1  0.2505250E+000  0.5221501E+02  0.7957747E-01  0.1433748E+00
         13   -1    0    0    0    0  0.00000000000E+00  0.00000000000E+00  0.99999944177E+02  0.99999999997E+02  0.10566000000E+00 0. -1.
         22   -1    0    0    0    0 -0.00000000000E+00 -0.00000000000E+00 -0.15608383625E+02  0.15608383625E+02  0.00000000000E+00 0.  1.
         13    1    1    2    0    0 -0.13501473857E+02  0.66421286614E+01 -0.14675445125E+01  0.15118615029E+02  0.10566000000E+00 0.  1.
        996    1    1    2    0    0  0.13501473857E+02 -0.66421286614E+01  0.85859105064E+02  0.10048976859E+03  0.50000000000E+02 0.  0.
<mgrwt>
<rscale>  0 0.52215014E+02</rscale>
<asrwt>0</asrwt>
<pdfrwt beam="1">  1       13 0.10000000E+01 0.52215014E+02</pdfrwt>
<pdfrwt beam="2">  1       22 0.15608407E+00 0.52215014E+02</pdfrwt>
<totfact> 0.70462249E-01</totfact>
</mgrwt>
</event>
<event>
 4    1  0.2505250E+000  0.5151125E+02  0.7957747E-01  0.1437357E+00
         13   -1    0    0    0    0  0.00000000000E+00  0.00000000000E+00  0.99999944177E+02  0.99999999997E+02  0.10566000000E+00 0. -1.
         22   -1    0    0    0    0 -0.00000000000E+00 -0.00000000000E+00 -0.13627767566E+02  0.13627767566E+02  0.00000000000E+00 0. -1.
         13    1    1    2    0    0  0.11973927722E+02  0.31675726560E+01 -0.75839538441E+00  0.12409463696E+02  0.10566000000E+00 0.  1.
        996    1    1    2    0    0 -0.11973927722E+02 -0.31675726560E+01  0.87130571995E+02  0.10121830387E+03  0.50000000000E+02 0.  0.
<mgrwt>
<rscale>  0 0.51511246E+02</rscale>
<asrwt>0</asrwt>
<pdfrwt beam="1">  1       13 0.10000000E+01 0.51511246E+02</pdfrwt>
<pdfrwt beam="2">  1       22 0.13627792E+00 0.51511246E+02</pdfrwt>
<totfact> 0.87980051E-01</totfact>
</mgrwt>
</event>
<event>
 4    1  0.2505250E+000  0.5110001E+02  0.7957747E-01  0.1439497E+00
         13   -1    0    0    0    0  0.00000000000E+00  0.00000000000E+00  0.99999944177E+02  0.99999999997E+02  0.10566000000E+00 0. -1.
         22   -1    0    0    0    0 -0.00000000000E+00 -0.00000000000E+00 -0.14212968749E+02  0.14212968749E+02  0.00000000000E+00 0. -1.
         13    1    1    2    0    0 -0.10435799164E+02  0.15181554025E+01 -0.36895002596E+01  0.11172926037E+02  0.10566000000E+00 0.  1.
        996    1    1    2    0    0  0.10435799164E+02 -0.15181554025E+01  0.89476475688E+02  0.10304004271E+03  0.50000000000E+02 0.  0.
<mgrwt>
<rscale>  0 0.51100007E+02</rscale>
<asrwt>0</asrwt>
<pdfrwt beam="1">  1       13 0.10000000E+01 0.51100007E+02</pdfrwt>
<pdfrwt beam="2">  1       22 0.14212993E+00 0.51100007E+02</pdfrwt>
<totfact> 0.82127467E-01</totfact>
</mgrwt>
</event>
<event>
 4    1  0.2505250E+000  0.5127616E+02  0.7957747E-01  0.1438577E+00
         13   -1    0    0    0    0  0.00000000000E+00  0.00000000000E+00  0.99999944174E+02  0.99999999994E+02  0.10566000000E+00 0. -1.
         22   -1    0    0    0    0 -0.00000000000E+00 -0.00000000000E+00 -0.11407882431E+02  0.11407882431E+02  0.00000000000E+00 0. -1.
         13    1    1    2    0    0  0.85331832020E-01 -0.11368258140E+02  0.32126491652E+01  0.11814264825E+02  0.10566000000E+00 0.  1.
        996    1    1    2    0    0 -0.85331832020E-01  0.11368258140E+02  0.85379412578E+02  0.99593617601E+02  0.50000000000E+02 0.  0.
<mgrwt>
<rscale>  0 0.51276160E+02</rscale>
<asrwt>0</asrwt>
<pdfrwt beam="1">  1       13 0.10000000E+01 0.51276160E+02</pdfrwt>
<pdfrwt beam="2">  1       22 0.11407907E+00 0.51276160E+02</pdfrwt>
<totfact> 0.11588108E+00</totfact>
</mgrwt>
</event>
<event>
 4    1  0.2505250E+000  0.5314121E+02  0.7957747E-01  0.1429099E+00
         13   -1    0    0    0    0  0.00000000000E+00  0.00000000000E+00  0.99999944184E+02  0.10000000000E+03  0.10566000000E+00 0. -1.
         22   -1    0    0    0    0 -0.00000000000E+00 -0.00000000000E+00 -0.17272455289E+02  0.17272455289E+02  0.00000000000E+00 0. -1.
         13    1    1    2    0    0  0.45592289859E+01 -0.17412674785E+02 -0.10851075096E+01  0.18032649125E+02  0.10566000000E+00 0.  1.
        996    1    1    2    0    0 -0.45592289859E+01  0.17412674785E+02  0.83812596405E+02  0.99239806168E+02  0.50000000000E+02 0.  0.
<mgrwt>
<rscale>  0 0.53141206E+02</rscale>
<asrwt>0</asrwt>
<pdfrwt beam="1">  1       13 0.10000000E+01 0.53141206E+02</pdfrwt>
<pdfrwt beam="2">  1       22 0.17272478E+00 0.53141206E+02</pdfrwt>
<totfact> 0.59251199E-01</totfact>
</mgrwt>
</event>
<event>
 4    1  0.2505250E+000  0.5516650E+02  0.7957747E-01  0.1419313E+00
         13   -1    0    0    0    0  0.00000000000E+00  0.00000000000E+00  0.99999944179E+02  0.10000000000E+03  0.10566000000E+00 0.  1.
         22   -1    0    0    0    0 -0.00000000000E+00 -0.00000000000E+00 -0.15415337455E+02  0.15415337455E+02  0.00000000000E+00 0. -1.
         13    1    1    2    0    0 -0.17568368793E+02 -0.15319753787E+02  0.23294589219E+02  0.32954384974E+02  0.10566000000E+00 0. -1.
        996    1    1    2    0    0  0.17568368793E+02  0.15319753787E+02  0.61290017505E+02  0.82460952480E+02  0.50000000000E+02 0.  0.
<mgrwt>
<rscale>  0 0.55166497E+02</rscale>
<asrwt>0</asrwt>
<pdfrwt beam="1">  1       13 0.10000000E+01 0.55166497E+02</pdfrwt>
<pdfrwt beam="2">  1       22 0.15415361E+00 0.55166497E+02</pdfrwt>
<totfact> 0.72373983E-01</totfact>
</mgrwt>
</event>
<event>
 4    1  0.2505250E+000  0.5489054E+02  0.7957747E-01  0.1420617E+00
         13   -1    0    0    0    0  0.00000000000E+00  0.00000000000E+00  0.99999944178E+02  0.99999999998E+02  0.10566000000E+00 0. -1.
         22   -1    0    0    0    0 -0.00000000000E+00 -0.00000000000E+00 -0.36883326716E+02  0.36883326716E+02  0.00000000000E+00 0. -1.
         13    1    1    2    0    0 -0.22643403981E+02  0.49719379364E+00 -0.24580552339E+02  0.33424327411E+02  0.10566000000E+00 0.  1.
        996    1    1    2    0    0  0.22643403981E+02 -0.49719379364E+00  0.87697169802E+02  0.10345899930E+03  0.50000000000E+02 0.  0.
<mgrwt>
<rscale>  0 0.54890536E+02</rscale>
<asrwt>0</asrwt>
<pdfrwt beam="1">  1       13 0.10000000E+01 0.54890536E+02</pdfrwt>
<pdfrwt beam="2">  1       22 0.36883344E+00 0.54890536E+02</pdfrwt>
<totfact> 0.14374199E-01</totfact>
</mgrwt>
</event>
<event>
 4    1  0.2505250E+000  0.5111783E+02  0.7957747E-01  0.1439404E+00
         13   -1    0    0    0    0  0.00000000000E+00  0.00000000000E+00  0.99999944176E+02  0.99999999996E+02  0.10566000000E+00 0. -1.
         22   -1    0    0    0    0 -0.00000000000E+00 -0.00000000000E+00 -0.13629450199E+02  0.13629450199E+02  0.00000000000E+00 0.  1.
         13    1    1    2    0    0 -0.10135478238E+02  0.32101151805E+01 -0.26669039069E+01  0.10961582873E+02  0.10566000000E+00 0.  1.
        996    1    1    2    0    0  0.10135478238E+02 -0.32101151805E+01  0.89037397884E+02  0.10266786732E+03  0.50000000000E+02 0.  0.
<mgrwt>
<rscale>  0 0.51117832E+02</rscale>
<asrwt>0</asrwt>
<pdfrwt beam="1">  1       13 0.10000000E+01 0.51117832E+02</pdfrwt>
<pdfrwt beam="2">  1       22 0.13629474E+00 0.51117832E+02</pdfrwt>
<totfact> 0.87888111E-01</totfact>
</mgrwt>
</event>
<event>
 4    1  0.2505250E+000  0.5155683E+02  0.7957747E-01  0.1437121E+00
         13   -1    0    0    0    0  0.00000000000E+00  0.00000000000E+00  0.99999944181E+02  0.10000000000E+03  0.10566000000E+00 0.  1.
         22   -1    0    0    0    0 -0.00000000000E+00 -0.00000000000E+00 -0.23721540746E+02  0.23721540746E+02  0.00000000000E+00 0. -1.
         13    1    1    2    0    0  0.10803191586E+02 -0.64340780508E+01 -0.14580688783E+02  0.19253933579E+02  0.10566000000E+00 0. -1.
        996    1    1    2    0    0 -0.10803191586E+02  0.64340780508E+01  0.90859092218E+02  0.10446760717E+03  0.50000000000E+02 0.  0.
<mgrwt>
<rscale>  0 0.51556826E+02</rscale>
<asrwt>0</asrwt>
<pdfrwt beam="1">  1       13 0.10000000E+01 0.51556826E+02</pdfrwt>
<pdfrwt beam="2">  1       22 0.23721562E+00 0.51556826E+02</pdfrwt>
<totfact> 0.32653811E-01</totfact>
</mgrwt>
</event>
<event>
 4    1  0.2505250E+000  0.5449100E+02  0.7957747E-01  0.1422521E+00
         13   -1    0    0    0    0  0.00000000000E+00  0.00000000000E+00  0.99999944182E+02  0.10000000000E+03  0.10566000000E+00 0.  1.
         22   -1    0    0    0    0 -0.00000000000E+00 -0.00000000000E+00 -0.40652399932E+02  0.40652399932E+02  0.00000000000E+00 0. -1.
         13    1    1    2    0    0 -0.12595808692E+02 -0.17624260086E+02 -0.29395253184E+02  0.36515216198E+02  0.10566000000E+00 0. -1.
        996    1    1    2    0    0  0.12595808692E+02  0.17624260086E+02  0.88742797434E+02  0.10413718374E+03  0.50000000000E+02 0.  0.
<mgrwt>
<rscale>  0 0.54490999E+02</rscale>
<asrwt>0</asrwt>
<pdfrwt beam="1">  1       13 0.10000000E+01 0.54490999E+02</pdfrwt>
<pdfrwt beam="2">  1       22 0.40652417E+00 0.54490999E+02</pdfrwt>
<totfact> 0.12011728E-01</totfact>
</mgrwt>
</event>
<event>
 4    1  0.2505250E+000  0.5195331E+02  0.7957747E-01  0.1435082E+00
         13   -1    0    0    0    0  0.00000000000E+00  0.00000000000E+00  0.99999944171E+02  0.99999999992E+02  0.10566000000E+00 0. -1.
         22   -1    0    0    0    0 -0.00000000000E+00 -0.00000000000E+00 -0.10919212925E+02  0.10919212925E+02  0.00000000000E+00 0. -1.
         13    1    1    2    0    0  0.18428007182E+01 -0.13991084529E+02  0.17849094465E+02  0.22754069922E+02  0.10566000000E+00 0.  1.
        996    1    1    2    0    0 -0.18428007182E+01  0.13991084529E+02  0.71231636781E+02  0.88165142995E+02  0.50000000000E+02 0.  0.
<mgrwt>
<rscale>  0 0.51953309E+02</rscale>
<asrwt>0</asrwt>
<pdfrwt beam="1">  1       13 0.10000000E+01 0.51953309E+02</pdfrwt>
<pdfrwt beam="2">  1       22 0.10919238E+00 0.51953309E+02</pdfrwt>
<totfact> 0.12390938E+00</totfact>
</mgrwt>
</event>
<event>
 4    1  0.2505250E+000  0.5542272E+02  0.7957747E-01  0.1418110E+00
         13   -1    0    0    0    0  0.00000000000E+00  0.00000000000E+00  0.99999944169E+02  0.99999999989E+02  0.10566000000E+00 0.  1.
         22   -1    0    0    0    0 -0.00000000000E+00 -0.00000000000E+00 -0.77601583128E+02  0.77601583128E+02  0.00000000000E+00 0. -1.
         13    1    1    2    0    0  0.17815883887E+02  0.15945899957E+02 -0.67713083202E+02  0.71810516255E+02  0.10566000000E+00 0. -1.
        996    1    1    2    0    0 -0.17815883887E+02 -0.15945899957E+02  0.90111444243E+02  0.10579106686E+03  0.50000000000E+02 0.  0.
<mgrwt>
<rscale>  0 0.55422716E+02</rscale>
<asrwt>0</asrwt>
<pdfrwt beam="1">  1       13 0.10000000E+01 0.55422716E+02</pdfrwt>
<pdfrwt beam="2">  1       22 0.77601589E+00 0.55422716E+02</pdfrwt>
<totfact> 0.38502911E-02</totfact>
</mgrwt>
</event>
<event>
 4    1  0.2505250E+000  0.5118025E+02  0.7957747E-01  0.1439078E+00
         13   -1    0    0    0    0  0.00000000000E+00  0.00000000000E+00  0.99999944180E+02  0.10000000000E+03  0.10566000000E+00 0.  1.
         22   -1    0    0    0    0 -0.00000000000E+00 -0.00000000000E+00 -0.13000812224E+02  0.13000812224E+02  0.00000000000E+00 0. -1.
         13    1    1    2    0    0 -0.61468656132E+01 -0.90351554563E+01 -0.12345422161E+01  0.10997874772E+02  0.10566000000E+00 0. -1.
        996    1    1    2    0    0  0.61468656132E+01  0.90351554563E+01  0.88233674172E+02  0.10200293745E+03  0.50000000000E+02 0.  0.
<mgrwt>
<rscale>  0 0.51180250E+02</rscale>
<asrwt>0</asrwt>
<pdfrwt beam="1">  1       13 0.10000000E+01 0.51180250E+02</pdfrwt>
<pdfrwt beam="2">  1       22 0.13000837E+00 0.51180250E+02</pdfrwt>
<totfact> 0.94747382E-01</totfact>
</mgrwt>
</event>
<event>
 4    1  0.2505250E+000  0.5217191E+02  0.7957747E-01  0.1433967E+00
         13   -1    0    0    0    0  0.00000000000E+00  0.00000000000E+00  0.99999944179E+02  0.99999999999E+02  0.10566000000E+00 0.  1.
         22   -1    0    0    0    0 -0.00000000000E+00 -0.00000000000E+00 -0.11304095447E+02  0.11304095447E+02  0.00000000000E+00 0.  1.
         13    1    1    2    0    0 -0.43780527078E+00  0.14890154693E+02  0.23161354390E+02  0.27538480013E+02  0.10566000000E+00 0. -1.
        996    1    1    2    0    0  0.43780527078E+00 -0.14890154693E+02  0.65534494342E+02  0.83765615433E+02  0.50000000000E+02 0.  0.
<mgrwt>
<rscale>  0 0.52171912E+02</rscale>
<asrwt>0</asrwt>
<pdfrwt beam="1">  1       13 0.10000000E+01 0.52171912E+02</pdfrwt>
<pdfrwt beam="2">  1       22 0.11304120E+00 0.52171912E+02</pdfrwt>
<totfact> 0.11772492E+00</totfact>
</mgrwt>
</event>
<event>
 4    1  0.2505250E+000  0.5140024E+02  0.7957747E-01  0.1437932E+00
         13   -1    0    0    0    0  0.00000000000E+00  0.00000000000E+00  0.99999944169E+02  0.99999999989E+02  0.10566000000E+00 0. -1.
         22   -1    0    0    0    0 -0.00000000000E+00 -0.00000000000E+00 -0.21337390147E+02  0.21337390147E+02  0.00000000000E+00 0.  1.
         13    1    1    2    0    0  0.48865832115E+01 -0.10867653670E+02 -0.12130618737E+02  0.17004342585E+02  0.10566000000E+00 0.  1.
        996    1    1    2    0    0 -0.48865832115E+01  0.10867653670E+02  0.90793172758E+02  0.10433304755E+03  0.50000000000E+02 0.  0.
<mgrwt>
<rscale>  0 0.51400239E+02</rscale>
<asrwt>0</asrwt>
<pdfrwt beam="1">  1       13 0.10000000E+01 0.51400239E+02</pdfrwt>
<pdfrwt beam="2">  1       22 0.21337412E+00 0.51400239E+02</pdfrwt>
<totfact> 0.40059184E-01</totfact>
</mgrwt>
</event>
<event>
 4    1  0.2505250E+000  0.5402680E+02  0.7957747E-01  0.1424758E+00
         13   -1    0    0    0    0  0.00000000000E+00  0.00000000000E+00  0.99999944186E+02  0.10000000001E+03  0.10566000000E+00 0.  1.
         22   -1    0    0    0    0 -0.00000000000E+00 -0.00000000000E+00 -0.19456862947E+02  0.19456862947E+02  0.00000000000E+00 0.  1.
         13    1    1    2    0    0 -0.19959910467E+02 -0.45273718630E+01 -0.22551694653E+01  0.20591067850E+02  0.10566000000E+00 0. -1.
        996    1    1    2    0    0  0.19959910467E+02  0.45273718630E+01  0.82798250704E+02  0.98865795104E+02  0.50000000000E+02 0.  0.
<mgrwt>
<rscale>  0 0.54026800E+02</rscale>
<asrwt>0</asrwt>
<pdfrwt beam="1">  1       13 0.10000000E+01 0.54026800E+02</pdfrwt>
<pdfrwt beam="2">  1       22 0.19456885E+00 0.54026800E+02</pdfrwt>
<totfact> 0.47856316E-01</totfact>
</mgrwt>
</event>
<event>
 4    1  0.2505250E+000  0.5124069E+02  0.7957747E-01  0.1438762E+00
         13   -1    0    0    0    0  0.00000000000E+00  0.00000000000E+00  0.99999944190E+02  0.10000000001E+03  0.10566000000E+00 0. -1.
         22   -1    0    0    0    0 -0.00000000000E+00 -0.00000000000E+00 -0.97639294245E+01  0.97639294245E+01  0.00000000000E+00 0. -1.
         13    1    1    2    0    0  0.54618987409E+01 -0.97865289711E+01  0.14621951981E+02  0.18423385436E+02  0.10566000000E+00 0.  1.
        996    1    1    2    0    0 -0.54618987409E+01  0.97865289711E+01  0.75614062784E+02  0.91340543998E+02  0.50000000000E+02 0.  0.
<mgrwt>
<rscale>  0 0.51240692E+02</rscale>
<asrwt>0</asrwt>
<pdfrwt beam="1">  1       13 0.10000000E+01 0.51240692E+02</pdfrwt>
<pdfrwt beam="2">  1       22 0.97639546E-01 0.51240692E+02</pdfrwt>
<totfact> 0.14565752E+00</totfact>
</mgrwt>
</event>
<event>
 4    1  0.2505250E+000  0.5236626E+02  0.7957747E-01  0.1432981E+00
         13   -1    0    0    0    0  0.00000000000E+00  0.00000000000E+00  0.99999944180E+02  0.10000000000E+03  0.10566000000E+00 0.  1.
         22   -1    0    0    0    0 -0.00000000000E+00 -0.00000000000E+00 -0.12123086782E+02  0.12123086782E+02  0.00000000000E+00 0.  1.
         13    1    1    2    0    0 -0.15012426591E+02  0.41051716772E+01  0.31757354058E+02  0.35366171512E+02  0.10566000000E+00 0. -1.
        996    1    1    2    0    0  0.15012426591E+02 -0.41051716772E+01  0.56119503340E+02  0.76756915270E+02  0.50000000000E+02 0.  0.
<mgrwt>
<rscale>  0 0.52366262E+02</rscale>
<asrwt>0</asrwt>
<pdfrwt beam="1">  1       13 0.10000000E+01 0.52366262E+02</pdfrwt>
<pdfrwt beam="2">  1       22 0.12123111E+00 0.52366262E+02</pdfrwt>
<totfact> 0.10590976E+00</totfact>
</mgrwt>
</event>
<event>
 4    1  0.2505250E+000  0.5224692E+02  0.7957747E-01  0.1433586E+00
         13   -1    0    0    0    0  0.00000000000E+00  0.00000000000E+00  0.99999944181E+02  0.10000000000E+03  0.10566000000E+00 0.  1.
         22   -1    0    0    0    0 -0.00000000000E+00 -0.00000000000E+00 -0.12151901922E+02  0.12151901922E+02  0.00000000000E+00 0.  1.
         13    1    1    2    0    0  0.10238311387E+02  0.11176634292E+02  0.91993907119E+01  0.17730767825E+02  0.10566000000E+00 0. -1.
        996    1    1    2    0    0 -0.10238311387E+02 -0.11176634292E+02  0.78648651547E+02  0.94421134098E+02  0.50000000000E+02 0.  0.
<mgrwt>
<rscale>  0 0.52246915E+02</rscale>
<asrwt>0</asrwt>
<pdfrwt beam="1">  1       13 0.10000000E+01 0.52246915E+02</pdfrwt>
<pdfrwt beam="2">  1       22 0.12151926E+00 0.52246915E+02</pdfrwt>
<totfact> 0.10549589E+00</totfact>
</mgrwt>
</event>
<event>
 4    1  0.2505250E+000  0.5233970E+02  0.7957747E-01  0.1433115E+00
         13   -1    0    0    0    0  0.00000000000E+00  0.00000000000E+00  0.99999944176E+02  0.99999999996E+02  0.10566000000E+00 0. -1.
         22   -1    0    0    0    0 -0.00000000000E+00 -0.00000000000E+00 -0.20048947577E+02  0.20048947577E+02  0.00000000000E+00 0.  1.
         13    1    1    2    0    0  0.32077043328E+01 -0.15137853701E+02 -0.82133521154E+01  0.17518969683E+02  0.10566000000E+00 0.  1.
        996    1    1    2    0    0 -0.32077043328E+01  0.15137853701E+02  0.88164348714E+02  0.10252997789E+03  0.50000000000E+02 0.  0.
<mgrwt>
<rscale>  0 0.52339698E+02</rscale>
<asrwt>0</asrwt>
<pdfrwt beam="1">  1       13 0.10000000E+01 0.52339698E+02</pdfrwt>
<pdfrwt beam="2">  1       22 0.20048970E+00 0.52339698E+02</pdfrwt>
<totfact> 0.45129061E-01</totfact>
</mgrwt>
</event>
<event>
 4    1  0.2505250E+000  0.5129786E+02  0.7957747E-01  0.1438464E+00
         13   -1    0    0    0    0  0.00000000000E+00  0.00000000000E+00  0.99999944175E+02  0.99999999995E+02  0.10566000000E+00 0.  1.
         22   -1    0    0    0    0 -0.00000000000E+00 -0.00000000000E+00 -0.12482521981E+02  0.12482521981E+02  0.00000000000E+00 0. -1.
         13    1    1    2    0    0  0.39929067455E+01  0.10748352083E+02  0.50893010385E+00  0.11477828656E+02  0.10566000000E+00 0. -1.
        996    1    1    2    0    0 -0.39929067455E+01 -0.10748352083E+02  0.87008492090E+02  0.10100469332E+03  0.50000000000E+02 0.  0.
<mgrwt>
<rscale>  0 0.51297859E+02</rscale>
<asrwt>0</asrwt>
<pdfrwt beam="1">  1       13 0.10000000E+01 0.51297859E+02</pdfrwt>
<pdfrwt beam="2">  1       22 0.12482546E+00 0.51297859E+02</pdfrwt>
<totfact> 0.10099578E+00</totfact>
</mgrwt>
</event>
<event>
 4    1  0.2505250E+000  0.5487552E+02  0.7957747E-01  0.1420689E+00
         13   -1    0    0    0    0  0.00000000000E+00  0.00000000000E+00  0.99999944172E+02  0.99999999992E+02  0.10566000000E+00 0.  1.
         22   -1    0    0    0    0 -0.00000000000E+00 -0.00000000000E+00 -0.16084433879E+02  0.16084433879E+02  0.00000000000E+00 0. -1.
         13    1    1    2    0    0 -0.22589720933E+02  0.10133358221E+01  0.11926368225E+02  0.25565049666E+02  0.10566000000E+00 0. -1.
        996    1    1    2    0    0  0.22589720933E+02 -0.10133358221E+01  0.71989142068E+02  0.90519384206E+02  0.50000000000E+02 0.  0.
<mgrwt>
<rscale>  0 0.54875517E+02</rscale>
<asrwt>0</asrwt>
<pdfrwt beam="1">  1       13 0.10000000E+01 0.54875517E+02</pdfrwt>
<pdfrwt beam="2">  1       22 0.16084457E+00 0.54875517E+02</pdfrwt>
<totfact> 0.67291128E-01</totfact>
</mgrwt>
</event>
<event>
 4    1  0.2505250E+000  0.5108127E+02  0.7957747E-01  0.1439595E+00
         13   -1    0    0    0    0  0.00000000000E+00  0.00000000000E+00  0.99999944176E+02  0.99999999996E+02  0.10566000000E+00 0.  1.
         22   -1    0    0    0    0 -0.00000000000E+00 -0.00000000000E+00 -0.14549056333E+02  0.14549056333E+02  0.00000000000E+00 0. -1.
         13    1    1    2    0    0  0.11919144829E+01  0.10386312484E+02 -0.42801037916E+01  0.11297194327E+02  0.10566000000E+00 0. -1.
        996    1    1    2    0    0 -0.11919144829E+01 -0.10386312484E+02  0.89730991635E+02  0.10325186200E+03  0.50000000000E+02 0.  0.
<mgrwt>
<rscale>  0 0.51081270E+02</rscale>
<asrwt>0</asrwt>
<pdfrwt beam="1">  1       13 0.10000000E+01 0.51081270E+02</pdfrwt>
<pdfrwt beam="2">  1       22 0.14549080E+00 0.51081270E+02</pdfrwt>
<totfact> 0.79041970E-01</totfact>
</mgrwt>
</event>
<event>
 4    1  0.2505250E+000  0.5241200E+02  0.7957747E-01  0.1432750E+00
         13   -1    0    0    0    0  0.00000000000E+00  0.00000000000E+00  0.99999944180E+02  0.10000000000E+03  0.10566000000E+00 0. -1.
         22   -1    0    0    0    0 -0.00000000000E+00 -0.00000000000E+00 -0.24073261264E+02  0.24073261264E+02  0.00000000000E+00 0. -1.
         13    1    1    2    0    0 -0.93652752499E+01 -0.12621764527E+02 -0.13301652859E+02  0.20590348543E+02  0.10566000000E+00 0.  1.
        996    1    1    2    0    0  0.93652752499E+01  0.12621764527E+02  0.89228335775E+02  0.10348291272E+03  0.50000000000E+02 0.  0.
<mgrwt>
<rscale>  0 0.52411996E+02</rscale>
<asrwt>0</asrwt>
<pdfrwt beam="1">  1       13 0.10000000E+01 0.52411996E+02</pdfrwt>
<pdfrwt beam="2">  1       22 0.24073282E+00 0.52411996E+02</pdfrwt>
<totfact> 0.31770427E-01</totfact>
</mgrwt>
</event>
<event>
 4    1  0.2505250E+000  0.5102647E+02  0.7957747E-01  0.1439882E+00
         13   -1    0    0    0    0  0.00000000000E+00  0.00000000000E+00  0.99999944180E+02  0.10000000000E+03  0.10566000000E+00 0. -1.
         22   -1    0    0    0    0 -0.00000000000E+00 -0.00000000000E+00 -0.26241759818E+02  0.26241759818E+02  0.00000000000E+00 0.  1.
         13    1    1    2    0    0  0.81270696171E+00  0.10150872177E+02 -0.18325683307E+02  0.20965269644E+02  0.10566000000E+00 0.  1.
        996    1    1    2    0    0 -0.81270696171E+00 -0.10150872177E+02  0.92083867669E+02  0.10527649017E+03  0.50000000000E+02 0.  0.
<mgrwt>
<rscale>  0 0.51026471E+02</rscale>
<asrwt>0</asrwt>
<pdfrwt beam="1">  1       13 0.10000000E+01 0.51026471E+02</pdfrwt>
<pdfrwt beam="2">  1       22 0.26241780E+00 0.51026471E+02</pdfrwt>
<totfact> 0.26758069E-01</totfact>
</mgrwt>
</event>
<event>
 4    1  0.2505250E+000  0.5936090E+02  0.7957747E-01  0.1400533E+00
         13   -1    0    0    0    0  0.00000000000E+00  0.00000000000E+00  0.99999944181E+02  0.10000000000E+03  0.10566000000E+00 0.  1.
         22   -1    0    0    0    0 -0.00000000000E+00 -0.00000000000E+00 -0.36527310649E+02  0.36527310649E+02  0.00000000000E+00 0. -1.
         13    1    1    2    0    0 -0.29251489765E+02 -0.12964080605E+02 -0.17233314670E+02  0.36341647431E+02  0.10566000000E+00 0. -1.
        996    1    1    2    0    0  0.29251489765E+02  0.12964080605E+02  0.80705948202E+02  0.10018566322E+03  0.50000000000E+02 0.  0.
<mgrwt>
<rscale>  0 0.59360905E+02</rscale>
<asrwt>0</asrwt>
<pdfrwt beam="1">  1       13 0.10000000E+01 0.59360905E+02</pdfrwt>
<pdfrwt beam="2">  1       22 0.36527328E+00 0.59360905E+02</pdfrwt>
<totfact> 0.14679557E-01</totfact>
</mgrwt>
</event>
<event>
 4    1  0.2505250E+000  0.6304278E+02  0.7957747E-01  0.1385489E+00
         13   -1    0    0    0    0  0.00000000000E+00  0.00000000000E+00  0.99999944176E+02  0.99999999996E+02  0.10566000000E+00 0. -1.
         22   -1    0    0    0    0 -0.00000000000E+00 -0.00000000000E+00 -0.26696142487E+02  0.26696142487E+02  0.00000000000E+00 0. -1.
         13    1    1    2    0    0 -0.38000873443E+02  0.55068697449E+01  0.16340701979E+02  0.41730345098E+02  0.10566000000E+00 0.  1.
        996    1    1    2    0    0  0.38000873443E+02 -0.55068697449E+01  0.56963099709E+02  0.84965797385E+02  0.50000000000E+02 0.  0.
<mgrwt>
<rscale>  0 0.63042779E+02</rscale>
<asrwt>0</asrwt>
<pdfrwt beam="1">  1       13 0.10000000E+01 0.63042779E+02</pdfrwt>
<pdfrwt beam="2">  1       22 0.26696163E+00 0.63042779E+02</pdfrwt>
<totfact> 0.26296686E-01</totfact>
</mgrwt>
</event>
<event>
 4    1  0.2505250E+000  0.5104560E+02  0.7957747E-01  0.1439782E+00
         13   -1    0    0    0    0  0.00000000000E+00  0.00000000000E+00  0.99999944182E+02  0.10000000000E+03  0.10566000000E+00 0.  1.
         22   -1    0    0    0    0 -0.00000000000E+00 -0.00000000000E+00 -0.94041514480E+01  0.94041514480E+01  0.00000000000E+00 0.  1.
         13    1    1    2    0    0  0.90309884316E+01  0.49085978455E+01  0.15834403689E+02  0.18878362987E+02  0.10566000000E+00 0. -1.
        996    1    1    2    0    0 -0.90309884316E+01 -0.49085978455E+01  0.74761389045E+02  0.90525788462E+02  0.50000000000E+02 0.  0.
<mgrwt>
<rscale>  0 0.51045598E+02</rscale>
<asrwt>0</asrwt>
<pdfrwt beam="1">  1       13 0.10000000E+01 0.51045598E+02</pdfrwt>
<pdfrwt beam="2">  1       22 0.94041767E-01 0.51045598E+02</pdfrwt>
<totfact> 0.15362808E+00</totfact>
</mgrwt>
</event>
<event>
 4    1  0.2505250E+000  0.6035043E+02  0.7957747E-01  0.1396367E+00
         13   -1    0    0    0    0  0.00000000000E+00  0.00000000000E+00  0.99999944193E+02  0.10000000001E+03  0.10566000000E+00 0. -1.
         22   -1    0    0    0    0 -0.00000000000E+00 -0.00000000000E+00 -0.24811822354E+02  0.24811822354E+02  0.00000000000E+00 0. -1.
         13    1    1    2    0    0  0.10193218921E+02 -0.32222242757E+02  0.47791840402E+02  0.58534142287E+02  0.10566000000E+00 0.  1.
        996    1    1    2    0    0 -0.10193218921E+02  0.32222242757E+02  0.27396281436E+02  0.66277680080E+02  0.50000000000E+02 0.  0.
<mgrwt>
<rscale>  0 0.60350432E+02</rscale>
<asrwt>0</asrwt>
<pdfrwt beam="1">  1       13 0.10000000E+01 0.60350432E+02</pdfrwt>
<pdfrwt beam="2">  1       22 0.24811843E+00 0.60350432E+02</pdfrwt>
<totfact> 0.30286619E-01</totfact>
</mgrwt>
</event>
<event>
 4    1  0.2505250E+000  0.6380215E+02  0.7957747E-01  0.1382535E+00
         13   -1    0    0    0    0  0.00000000000E+00  0.00000000000E+00  0.99999944191E+02  0.10000000001E+03  0.10566000000E+00 0. -1.
         22   -1    0    0    0    0 -0.00000000000E+00 -0.00000000000E+00 -0.45520657848E+02  0.45520657848E+02  0.00000000000E+00 0.  1.
         13    1    1    2    0    0  0.37984851268E+02  0.11307735990E+02 -0.22471659721E+02  0.45559855945E+02  0.10566000000E+00 0.  1.
        996    1    1    2    0    0 -0.37984851268E+02 -0.11307735990E+02  0.76950946064E+02  0.99960801914E+02  0.50000000000E+02 0.  0.
<mgrwt>
<rscale>  0 0.63802146E+02</rscale>
<asrwt>0</asrwt>
<pdfrwt beam="1">  1       13 0.10000000E+01 0.63802146E+02</pdfrwt>
<pdfrwt beam="2">  1       22 0.45520673E+00 0.63802146E+02</pdfrwt>
<totfact> 0.94601524E-02</totfact>
</mgrwt>
</event>
<event>
 4    1  0.2505250E+000  0.5172176E+02  0.7957747E-01  0.1436270E+00
         13   -1    0    0    0    0  0.00000000000E+00  0.00000000000E+00  0.99999944175E+02  0.99999999995E+02  0.10566000000E+00 0. -1.
         22   -1    0    0    0    0 -0.00000000000E+00 -0.00000000000E+00 -0.10952031630E+02  0.10952031630E+02  0.00000000000E+00 0. -1.
         13    1    1    2    0    0  0.10705316578E+02  0.77805325846E+01  0.27781506210E+02  0.30772775983E+02  0.10566000000E+00 0.  1.
        996    1    1    2    0    0 -0.10705316578E+02 -0.77805325846E+01  0.61266406334E+02  0.80179255643E+02  0.50000000000E+02 0.  0.
<mgrwt>
<rscale>  0 0.51721760E+02</rscale>
<asrwt>0</asrwt>
<pdfrwt beam="1">  1       13 0.10000000E+01 0.51721760E+02</pdfrwt>
<pdfrwt beam="2">  1       22 0.10952056E+00 0.51721760E+02</pdfrwt>
<totfact> 0.12329193E+00</totfact>
</mgrwt>
</event>
<event>
 4    1  0.2505250E+000  0.5299989E+02  0.7957747E-01  0.1429801E+00
         13   -1    0    0    0    0  0.00000000000E+00  0.00000000000E+00  0.99999944178E+02  0.99999999998E+02  0.10566000000E+00 0.  1.
         22   -1    0    0    0    0 -0.00000000000E+00 -0.00000000000E+00 -0.12582966209E+02  0.12582966209E+02  0.00000000000E+00 0.  1.
         13    1    1    2    0    0 -0.16667697720E+02 -0.55835776208E+01  0.17045625198E+02  0.24485771149E+02  0.10566000000E+00 0. -1.
        996    1    1    2    0    0  0.16667697720E+02  0.55835776208E+01  0.70371352771E+02  0.88097195058E+02  0.50000000000E+02 0.  0.
<mgrwt>
<rscale>  0 0.52999891E+02</rscale>
<asrwt>0</asrwt>
<pdfrwt beam="1">  1       13 0.10000000E+01 0.52999891E+02</pdfrwt>
<pdfrwt beam="2">  1       22 0.12582991E+00 0.52999891E+02</pdfrwt>
<totfact> 0.10011737E+00</totfact>
</mgrwt>
</event>
<event>
 4    1  0.2505250E+000  0.5730511E+02  0.7957747E-01  0.1409502E+00
         13   -1    0    0    0    0  0.00000000000E+00  0.00000000000E+00  0.99999944176E+02  0.99999999996E+02  0.10566000000E+00 0. -1.
         22   -1    0    0    0    0 -0.00000000000E+00 -0.00000000000E+00 -0.23214780005E+02  0.23214780005E+02  0.00000000000E+00 0.  1.
         13    1    1    2    0    0  0.27917590706E+02 -0.21174309123E+01  0.75608367260E+00  0.28008181145E+02  0.10566000000E+00 0.  1.
        996    1    1    2    0    0 -0.27917590706E+02  0.21174309123E+01  0.76029080498E+02  0.95206598857E+02  0.50000000000E+02 0.  0.
<mgrwt>
<rscale>  0 0.57305108E+02</rscale>
<asrwt>0</asrwt>
<pdfrwt beam="1">  1       13 0.10000000E+01 0.57305108E+02</pdfrwt>
<pdfrwt beam="2">  1       22 0.23214801E+00 0.57305108E+02</pdfrwt>
<totfact> 0.34368580E-01</totfact>
</mgrwt>
</event>
<event>
 4    1  0.2505250E+000  0.5549329E+02  0.7957747E-01  0.1417780E+00
         13   -1    0    0    0    0  0.00000000000E+00  0.00000000000E+00  0.99999944180E+02  0.10000000000E+03  0.10566000000E+00 0.  1.
         22   -1    0    0    0    0 -0.00000000000E+00 -0.00000000000E+00 -0.37279599780E+02  0.37279599780E+02  0.00000000000E+00 0. -1.
         13    1    1    2    0    0  0.23482295430E+02 -0.52997122136E+01 -0.24213381538E+02  0.34143874381E+02  0.10566000000E+00 0. -1.
        996    1    1    2    0    0 -0.23482295430E+02  0.52997122136E+01  0.86933725937E+02  0.10313572540E+03  0.50000000000E+02 0.  0.
<mgrwt>
<rscale>  0 0.55493289E+02</rscale>
<asrwt>0</asrwt>
<pdfrwt beam="1">  1       13 0.10000000E+01 0.55493289E+02</pdfrwt>
<pdfrwt beam="2">  1       22 0.37279617E+00 0.55493289E+02</pdfrwt>
<totfact> 0.14111308E-01</totfact>
</mgrwt>
</event>
<event>
 4    1  0.2505250E+000  0.5379706E+02  0.7957747E-01  0.1425875E+00
         13   -1    0    0    0    0  0.00000000000E+00  0.00000000000E+00  0.99999944191E+02  0.10000000001E+03  0.10566000000E+00 0. -1.
         22   -1    0    0    0    0 -0.00000000000E+00 -0.00000000000E+00 -0.22939520705E+02  0.22939520705E+02  0.00000000000E+00 0.  1.
         13    1    1    2    0    0 -0.10793218489E+02  0.16662246815E+02 -0.87214992559E+01  0.21684089734E+02  0.10566000000E+00 0.  1.
        996    1    1    2    0    0  0.10793218489E+02 -0.16662246815E+02  0.85781922741E+02  0.10125543098E+03  0.50000000000E+02 0.  0.
<mgrwt>
<rscale>  0 0.53797063E+02</rscale>
<asrwt>0</asrwt>
<pdfrwt beam="1">  1       13 0.10000000E+01 0.53797063E+02</pdfrwt>
<pdfrwt beam="2">  1       22 0.22939542E+00 0.53797063E+02</pdfrwt>
<totfact> 0.34986756E-01</totfact>
</mgrwt>
</event>
<event>
 4    1  0.2505250E+000  0.5170806E+02  0.7957747E-01  0.1436341E+00
         13   -1    0    0    0    0  0.00000000000E+00  0.00000000000E+00  0.99999944175E+02  0.99999999995E+02  0.10566000000E+00 0. -1.
         22   -1    0    0    0    0 -0.00000000000E+00 -0.00000000000E+00 -0.23961358215E+02  0.23961358215E+02  0.00000000000E+00 0.  1.
         13    1    1    2    0    0  0.10750222325E+02  0.76260103232E+01 -0.14563354662E+02  0.19642448334E+02  0.10566000000E+00 0.  1.
        996    1    1    2    0    0 -0.10750222325E+02 -0.76260103232E+01  0.90601940621E+02  0.10431890988E+03  0.50000000000E+02 0.  0.
<mgrwt>
<rscale>  0 0.51708058E+02</rscale>
<asrwt>0</asrwt>
<pdfrwt beam="1">  1       13 0.10000000E+01 0.51708058E+02</pdfrwt>
<pdfrwt beam="2">  1       22 0.23961379E+00 0.51708058E+02</pdfrwt>
<totfact> 0.32025362E-01</totfact>
</mgrwt>
</event>
<event>
 4    1  0.2505250E+000  0.5233796E+02  0.7957747E-01  0.1433124E+00
         13   -1    0    0    0    0  0.00000000000E+00  0.00000000000E+00  0.99999944176E+02  0.99999999996E+02  0.10566000000E+00 0.  1.
         22   -1    0    0    0    0 -0.00000000000E+00 -0.00000000000E+00 -0.16617811399E+02  0.16617811399E+02  0.00000000000E+00 0. -1.
         13    1    1    2    0    0 -0.12950837973E+02 -0.84580016138E+01 -0.28660018350E+01  0.15731723556E+02  0.10566000000E+00 0. -1.
        996    1    1    2    0    0  0.12950837973E+02  0.84580016138E+01  0.86248134612E+02  0.10088608784E+03  0.50000000000E+02 0.  0.
<mgrwt>
<rscale>  0 0.52337959E+02</rscale>
<asrwt>0</asrwt>
<pdfrwt beam="1">  1       13 0.10000000E+01 0.52337959E+02</pdfrwt>
<pdfrwt beam="2">  1       22 0.16617835E+00 0.52337959E+02</pdfrwt>
<totfact> 0.63299822E-01</totfact>
</mgrwt>
</event>
<event>
 4    1  0.2505250E+000  0.5132821E+02  0.7957747E-01  0.1438306E+00
         13   -1    0    0    0    0  0.00000000000E+00  0.00000000000E+00  0.99999944183E+02  0.10000000000E+03  0.10566000000E+00 0. -1.
         22   -1    0    0    0    0 -0.00000000000E+00 -0.00000000000E+00 -0.10367946836E+02  0.10367946836E+02  0.00000000000E+00 0.  1.
         13    1    1    2    0    0  0.10667509634E+02 -0.45595859435E+01  0.85767538365E+01  0.14427662880E+02  0.10566000000E+00 0.  1.
        996    1    1    2    0    0 -0.10667509634E+02  0.45595859435E+01  0.81055243510E+02  0.95940283960E+02  0.50000000000E+02 0.  0.
<mgrwt>
<rscale>  0 0.51328214E+02</rscale>
<asrwt>0</asrwt>
<pdfrwt beam="1">  1       13 0.10000000E+01 0.51328214E+02</pdfrwt>
<pdfrwt beam="2">  1       22 0.10367972E+00 0.51328214E+02</pdfrwt>
<totfact> 0.13354048E+00</totfact>
</mgrwt>
</event>
<event>
 4    1  0.2505250E+000  0.5144112E+02  0.7957747E-01  0.1437720E+00
         13   -1    0    0    0    0  0.00000000000E+00  0.00000000000E+00  0.99999944182E+02  0.10000000000E+03  0.10566000000E+00 0. -1.
         22   -1    0    0    0    0 -0.00000000000E+00 -0.00000000000E+00 -0.78254570759E+02  0.78254570759E+02  0.00000000000E+00 0.  1.
         13    1    1    2    0    0  0.66795642705E+01  0.10078286230E+02 -0.71094748209E+02  0.72115621187E+02  0.10566000000E+00 0.  1.
        996    1    1    2    0    0 -0.66795642705E+01 -0.10078286230E+02  0.92840121632E+02  0.10613894957E+03  0.50000000000E+02 0.  0.
<mgrwt>
<rscale>  0 0.51441116E+02</rscale>
<asrwt>0</asrwt>
<pdfrwt beam="1">  1       13 0.10000000E+01 0.51441116E+02</pdfrwt>
<pdfrwt beam="2">  1       22 0.78254577E+00 0.51441116E+02</pdfrwt>
<totfact> 0.36253429E-02</totfact>
</mgrwt>
</event>
<event>
 4    1  0.2505250E+000  0.5366840E+02  0.7957747E-01  0.1426503E+00
         13   -1    0    0    0    0  0.00000000000E+00  0.00000000000E+00  0.99999944181E+02  0.10000000000E+03  0.10566000000E+00 0. -1.
         22   -1    0    0    0    0 -0.00000000000E+00 -0.00000000000E+00 -0.25355369223E+02  0.25355369223E+02  0.00000000000E+00 0.  1.
         13    1    1    2    0    0  0.59889584919E+01  0.18558813227E+02 -0.12389699409E+02  0.23104393255E+02  0.10566000000E+00 0.  1.
        996    1    1    2    0    0 -0.59889584919E+01 -0.18558813227E+02  0.87034274366E+02  0.10225097597E+03  0.50000000000E+02 0.  0.
<mgrwt>
<rscale>  0 0.53668400E+02</rscale>
<asrwt>0</asrwt>
<pdfrwt beam="1">  1       13 0.10000000E+01 0.53668400E+02</pdfrwt>
<pdfrwt beam="2">  1       22 0.25355390E+00 0.53668400E+02</pdfrwt>
<totfact> 0.28745005E-01</totfact>
</mgrwt>
</event>
<event>
 4    1  0.2505250E+000  0.5231923E+02  0.7957747E-01  0.1433219E+00
         13   -1    0    0    0    0  0.00000000000E+00  0.00000000000E+00  0.99999944177E+02  0.99999999997E+02  0.10566000000E+00 0. -1.
         22   -1    0    0    0    0 -0.00000000000E+00 -0.00000000000E+00 -0.15308048046E+02  0.15308048046E+02  0.00000000000E+00 0. -1.
         13    1    1    2    0    0 -0.27111244940E+01 -0.15164147441E+02 -0.40944851518E+00  0.15410398300E+02  0.10566000000E+00 0.  1.
        996    1    1    2    0    0  0.27111244940E+01  0.15164147441E+02  0.85101344646E+02  0.99897649744E+02  0.50000000000E+02 0.  0.
<mgrwt>
<rscale>  0 0.52319227E+02</rscale>
<asrwt>0</asrwt>
<pdfrwt beam="1">  1       13 0.10000000E+01 0.52319227E+02</pdfrwt>
<pdfrwt beam="2">  1       22 0.15308072E+00 0.52319227E+02</pdfrwt>
<totfact> 0.72823470E-01</totfact>
</mgrwt>
</event>
<event>
 4    1  0.2505250E+000  0.5128148E+02  0.7957747E-01  0.1438550E+00
         13   -1    0    0    0    0  0.00000000000E+00  0.00000000000E+00  0.99999944181E+02  0.10000000000E+03  0.10566000000E+00 0.  1.
         22   -1    0    0    0    0 -0.00000000000E+00 -0.00000000000E+00 -0.10573635366E+02  0.10573635366E+02  0.00000000000E+00 0.  1.
         13    1    1    2    0    0  0.39858475215E+01 -0.10672552092E+02  0.66276178455E+01  0.13180547445E+02  0.10566000000E+00 0. -1.
        996    1    1    2    0    0 -0.39858475215E+01  0.10672552092E+02  0.82798690970E+02  0.97393087922E+02  0.50000000000E+02 0.  0.
<mgrwt>
<rscale>  0 0.51281482E+02</rscale>
<asrwt>0</asrwt>
<pdfrwt beam="1">  1       13 0.10000000E+01 0.51281482E+02</pdfrwt>
<pdfrwt beam="2">  1       22 0.10573660E+00 0.51281482E+02</pdfrwt>
<totfact> 0.12973418E+00</totfact>
</mgrwt>
</event>
<event>
 4    1  0.2505250E+000  0.5372446E+02  0.7957747E-01  0.1426229E+00
         13   -1    0    0    0    0  0.00000000000E+00  0.00000000000E+00  0.99999944181E+02  0.10000000000E+03  0.10566000000E+00 0.  1.
         22   -1    0    0    0    0 -0.00000000000E+00 -0.00000000000E+00 -0.40778080422E+02  0.40778080422E+02  0.00000000000E+00 0. -1.
         13    1    1    2    0    0 -0.11698244680E+01  0.19620108479E+02 -0.30450824382E+02  0.36243358228E+02  0.10566000000E+00 0. -1.
        996    1    1    2    0    0  0.11698244680E+01 -0.19620108479E+02  0.89672688141E+02  0.10453472220E+03  0.50000000000E+02 0.  0.
<mgrwt>
<rscale>  0 0.53724456E+02</rscale>
<asrwt>0</asrwt>
<pdfrwt beam="1">  1       13 0.10000000E+01 0.53724456E+02</pdfrwt>
<pdfrwt beam="2">  1       22 0.40778097E+00 0.53724456E+02</pdfrwt>
<totfact> 0.11933054E-01</totfact>
</mgrwt>
</event>
<event>
 4    1  0.2505250E+000  0.5206078E+02  0.7957747E-01  0.1434533E+00
         13   -1    0    0    0    0  0.00000000000E+00  0.00000000000E+00  0.99999944179E+02  0.10000000000E+03  0.10566000000E+00 0.  1.
         22   -1    0    0    0    0 -0.00000000000E+00 -0.00000000000E+00 -0.16689814102E+02  0.16689814102E+02  0.00000000000E+00 0. -1.
         13    1    1    2    0    0  0.17114123626E+01  0.14401251353E+02 -0.39929655812E+01  0.15042603198E+02  0.10566000000E+00 0. -1.
        996    1    1    2    0    0 -0.17114123626E+01 -0.14401251353E+02  0.87303095659E+02  0.10164721090E+03  0.50000000000E+02 0.  0.
<mgrwt>
<rscale>  0 0.52060782E+02</rscale>
<asrwt>0</asrwt>
<pdfrwt beam="1">  1       13 0.10000000E+01 0.52060782E+02</pdfrwt>
<pdfrwt beam="2">  1       22 0.16689837E+00 0.52060782E+02</pdfrwt>
<totfact> 0.62792098E-01</totfact>
</mgrwt>
</event>
<event>
 4    1  0.2505250E+000  0.5170736E+02  0.7957747E-01  0.1436344E+00
         13   -1    0    0    0    0  0.00000000000E+00  0.00000000000E+00  0.99999944171E+02  0.99999999992E+02  0.10566000000E+00 0. -1.
         22   -1    0    0    0    0 -0.00000000000E+00 -0.00000000000E+00 -0.13951113536E+02  0.13951113536E+02  0.00000000000E+00 0.  1.
         13    1    1    2    0    0  0.13160360699E+02  0.67517278650E+00 -0.43862564191E+00  0.13185389965E+02  0.10566000000E+00 0.  1.
        996    1    1    2    0    0 -0.13160360699E+02 -0.67517278650E+00  0.86487456277E+02  0.10076572356E+03  0.50000000000E+02 0.  0.
<mgrwt>
<rscale>  0 0.51707359E+02</rscale>
<asrwt>0</asrwt>
<pdfrwt beam="1">  1       13 0.10000000E+01 0.51707359E+02</pdfrwt>
<pdfrwt beam="2">  1       22 0.13951138E+00 0.51707359E+02</pdfrwt>
<totfact> 0.84754257E-01</totfact>
</mgrwt>
</event>
<event>
 4    1  0.2505250E+000  0.5117763E+02  0.7957747E-01  0.1439091E+00
         13   -1    0    0    0    0  0.00000000000E+00  0.00000000000E+00  0.99999944178E+02  0.99999999998E+02  0.10566000000E+00 0.  1.
         22   -1    0    0    0    0 -0.00000000000E+00 -0.00000000000E+00 -0.12625277703E+02  0.12625277703E+02  0.00000000000E+00 0. -1.
         13    1    1    2    0    0 -0.13348547756E+01  0.10833657412E+02 -0.50714549053E+00  0.10927869453E+02  0.10566000000E+00 0. -1.
        996    1    1    2    0    0  0.13348547756E+01 -0.10833657412E+02  0.87881811965E+02  0.10169740825E+03  0.50000000000E+02 0.  0.
<mgrwt>
<rscale>  0 0.51177632E+02</rscale>
<asrwt>0</asrwt>
<pdfrwt beam="1">  1       13 0.10000000E+01 0.51177632E+02</pdfrwt>
<pdfrwt beam="2">  1       22 0.12625302E+00 0.51177632E+02</pdfrwt>
<totfact> 0.99198687E-01</totfact>
</mgrwt>
</event>
<event>
 4    1  0.2505250E+000  0.5104722E+02  0.7957747E-01  0.1439774E+00
         13   -1    0    0    0    0  0.00000000000E+00  0.00000000000E+00  0.99999944183E+02  0.10000000000E+03  0.10566000000E+00 0. -1.
         22   -1    0    0    0    0 -0.00000000000E+00 -0.00000000000E+00 -0.40323158607E+02  0.40323158607E+02  0.00000000000E+00 0.  1.
         13    1    1    2    0    0  0.91291398102E+01 -0.47410881410E+01 -0.32973413713E+02  0.34540936385E+02  0.10566000000E+00 0.  1.
        996    1    1    2    0    0 -0.91291398102E+01  0.47410881410E+01  0.92650199289E+02  0.10578222222E+03  0.50000000000E+02 0.  0.
<mgrwt>
<rscale>  0 0.51047224E+02</rscale>
<asrwt>0</asrwt>
<pdfrwt beam="1">  1       13 0.10000000E+01 0.51047224E+02</pdfrwt>
<pdfrwt beam="2">  1       22 0.40323175E+00 0.51047224E+02</pdfrwt>
<totfact> 0.12170145E-01</totfact>
</mgrwt>
</event>
<event>
 4    1  0.2505250E+000  0.6119040E+02  0.7957747E-01  0.1392903E+00
         13   -1    0    0    0    0  0.00000000000E+00  0.00000000000E+00  0.99999944171E+02  0.99999999992E+02  0.10566000000E+00 0. -1.
         22   -1    0    0    0    0 -0.00000000000E+00 -0.00000000000E+00 -0.41976878879E+02  0.41976878879E+02  0.00000000000E+00 0.  1.
         13    1    1    2    0    0  0.34156959491E+02  0.88072036316E+01 -0.21748114432E+02  0.41439792022E+02  0.10566000000E+00 0.  1.
        996    1    1    2    0    0 -0.34156959491E+02 -0.88072036316E+01  0.79771179724E+02  0.10053708685E+03  0.50000000000E+02 0.  0.
<mgrwt>
<rscale>  0 0.61190397E+02</rscale>
<asrwt>0</asrwt>
<pdfrwt beam="1">  1       13 0.10000000E+01 0.61190397E+02</pdfrwt>
<pdfrwt beam="2">  1       22 0.41976895E+00 0.61190397E+02</pdfrwt>
<totfact> 0.11315059E-01</totfact>
</mgrwt>
</event>
<event>
 4    1  0.2505250E+000  0.5701276E+02  0.7957747E-01  0.1410813E+00
         13   -1    0    0    0    0  0.00000000000E+00  0.00000000000E+00  0.99999944179E+02  0.99999999999E+02  0.10566000000E+00 0.  1.
         22   -1    0    0    0    0 -0.00000000000E+00 -0.00000000000E+00 -0.17842817120E+02  0.17842817120E+02  0.00000000000E+00 0.  1.
         13    1    1    2    0    0  0.27253204595E+02  0.27780743281E+01  0.24377714940E+02  0.36670683215E+02  0.10566000000E+00 0. -1.
        996    1    1    2    0    0 -0.27253204595E+02 -0.27780743281E+01  0.57779412119E+02  0.81172133904E+02  0.50000000000E+02 0.  0.
<mgrwt>
<rscale>  0 0.57012760E+02</rscale>
<asrwt>0</asrwt>
<pdfrwt beam="1">  1       13 0.10000000E+01 0.57012760E+02</pdfrwt>
<pdfrwt beam="2">  1       22 0.17842840E+00 0.57012760E+02</pdfrwt>
<totfact> 0.56316305E-01</totfact>
</mgrwt>
</event>
<event>
 4    1  0.2505250E+000  0.5312873E+02  0.7957747E-01  0.1429161E+00
         13   -1    0    0    0    0  0.00000000000E+00  0.00000000000E+00  0.99999944179E+02  0.99999999999E+02  0.10566000000E+00 0.  1.
         22   -1    0    0    0    0 -0.00000000000E+00 -0.00000000000E+00 -0.14016934030E+02  0.14016934030E+02  0.00000000000E+00 0. -1.
         13    1    1    2    0    0 -0.27570480621E+01  0.17749934331E+02  0.80193931427E+01  0.19671891449E+02  0.10566000000E+00 0. -1.
        996    1    1    2    0    0  0.27570480621E+01 -0.17749934331E+02  0.77963617006E+02  0.94345042580E+02  0.50000000000E+02 0.  0.
<mgrwt>
<rscale>  0 0.53128726E+02</rscale>
<asrwt>0</asrwt>
<pdfrwt beam="1">  1       13 0.10000000E+01 0.53128726E+02</pdfrwt>
<pdfrwt beam="2">  1       22 0.14016958E+00 0.53128726E+02</pdfrwt>
<totfact> 0.84360053E-01</totfact>
</mgrwt>
</event>
<event>
 4    1  0.2505250E+000  0.5135450E+02  0.7957747E-01  0.1438170E+00
         13   -1    0    0    0    0  0.00000000000E+00  0.00000000000E+00  0.99999944180E+02  0.10000000000E+03  0.10566000000E+00 0.  1.
         22   -1    0    0    0    0 -0.00000000000E+00 -0.00000000000E+00 -0.14002032285E+02  0.14002032285E+02  0.00000000000E+00 0.  1.
         13    1    1    2    0    0 -0.89814455849E+01 -0.75244952405E+01 -0.22194367913E+01  0.11925663802E+02  0.10566000000E+00 0. -1.
        996    1    1    2    0    0  0.89814455849E+01  0.75244952405E+01  0.88217348687E+02  0.10207636848E+03  0.50000000000E+02 0.  0.
<mgrwt>
<rscale>  0 0.51354497E+02</rscale>
<asrwt>0</asrwt>
<pdfrwt beam="1">  1       13 0.10000000E+01 0.51354497E+02</pdfrwt>
<pdfrwt beam="2">  1       22 0.14002056E+00 0.51354497E+02</pdfrwt>
<totfact> 0.84192681E-01</totfact>
</mgrwt>
</event>
<event>
 4    1  0.2505250E+000  0.5569924E+02  0.7957747E-01  0.1416821E+00
         13   -1    0    0    0    0  0.00000000000E+00  0.00000000000E+00  0.99999944182E+02  0.10000000000E+03  0.10566000000E+00 0.  1.
         22   -1    0    0    0    0 -0.00000000000E+00 -0.00000000000E+00 -0.20633013405E+02  0.20633013405E+02  0.00000000000E+00 0. -1.
         13    1    1    2    0    0  0.36008106534E+01 -0.24278371652E+02  0.10985539929E+01  0.24568743401E+02  0.10566000000E+00 0. -1.
        996    1    1    2    0    0 -0.36008106534E+01  0.24278371652E+02  0.78268376784E+02  0.96064270006E+02  0.50000000000E+02 0.  0.
<mgrwt>
<rscale>  0 0.55699238E+02</rscale>
<asrwt>0</asrwt>
<pdfrwt beam="1">  1       13 0.10000000E+01 0.55699238E+02</pdfrwt>
<pdfrwt beam="2">  1       22 0.20633036E+00 0.55699238E+02</pdfrwt>
<totfact> 0.43005927E-01</totfact>
</mgrwt>
</event>
<event>
 4    1  0.2505250E+000  0.5197484E+02  0.7957747E-01  0.1434972E+00
         13   -1    0    0    0    0  0.00000000000E+00  0.00000000000E+00  0.99999944178E+02  0.99999999999E+02  0.10566000000E+00 0.  1.
         22   -1    0    0    0    0 -0.00000000000E+00 -0.00000000000E+00 -0.11026019211E+02  0.11026019211E+02  0.00000000000E+00 0.  1.
         13    1    1    2    0    0 -0.14743486544E+01 -0.14114195700E+02  0.23185925403E+02  0.27184233022E+02  0.10566000000E+00 0. -1.
        996    1    1    2    0    0  0.14743486544E+01  0.14114195700E+02  0.65787999565E+02  0.83841786187E+02  0.50000000000E+02 0.  0.
<mgrwt>
<rscale>  0 0.51974842E+02</rscale>
<asrwt>0</asrwt>
<pdfrwt beam="1">  1       13 0.10000000E+01 0.51974842E+02</pdfrwt>
<pdfrwt beam="2">  1       22 0.11026044E+00 0.51974842E+02</pdfrwt>
<totfact> 0.12213506E+00</totfact>
</mgrwt>
</event>
<event>
 4    1  0.2505250E+000  0.5552495E+02  0.7957747E-01  0.1417633E+00
         13   -1    0    0    0    0  0.00000000000E+00  0.00000000000E+00  0.99999944173E+02  0.99999999993E+02  0.10566000000E+00 0.  1.
         22   -1    0    0    0    0 -0.00000000000E+00 -0.00000000000E+00 -0.27012890100E+02  0.27012890100E+02  0.00000000000E+00 0. -1.
         13    1    1    2    0    0 -0.23417864873E+02  0.58841768605E+01 -0.10837398490E+02  0.26466588421E+02  0.10566000000E+00 0. -1.
        996    1    1    2    0    0  0.23417864873E+02 -0.58841768605E+01  0.83824452563E+02  0.10054630167E+03  0.50000000000E+02 0.  0.
<mgrwt>
<rscale>  0 0.55524949E+02</rscale>
<asrwt>0</asrwt>
<pdfrwt beam="1">  1       13 0.10000000E+01 0.55524949E+02</pdfrwt>
<pdfrwt beam="2">  1       22 0.27012910E+00 0.55524949E+02</pdfrwt>
<totfact> 0.25446123E-01</totfact>
</mgrwt>
</event>
<event>
 4    1  0.2505250E+000  0.5900712E+02  0.7957747E-01  0.1402046E+00
         13   -1    0    0    0    0  0.00000000000E+00  0.00000000000E+00  0.99999944181E+02  0.10000000000E+03  0.10566000000E+00 0. -1.
         22   -1    0    0    0    0 -0.00000000000E+00 -0.00000000000E+00 -0.20559569914E+02  0.20559569914E+02  0.00000000000E+00 0.  1.
         13    1    1    2    0    0  0.30719735452E+02 -0.61756145455E+01  0.22652111391E+02  0.38664837718E+02  0.10566000000E+00 0.  1.
        996    1    1    2    0    0 -0.30719735452E+02  0.61756145455E+01  0.56788262875E+02  0.81894732197E+02  0.50000000000E+02 0.  0.
<mgrwt>
<rscale>  0 0.59007121E+02</rscale>
<asrwt>0</asrwt>
<pdfrwt beam="1">  1       13 0.10000000E+01 0.59007121E+02</pdfrwt>
<pdfrwt beam="2">  1       22 0.20559592E+00 0.59007121E+02</pdfrwt>
<totfact> 0.43524998E-01</totfact>
</mgrwt>
</event>
<event>
 4    1  0.2505250E+000  0.5099281E+02  0.7957747E-01  0.1440059E+00
         13   -1    0    0    0    0  0.00000000000E+00  0.00000000000E+00  0.99999944178E+02  0.99999999999E+02  0.10566000000E+00 0.  1.
         22   -1    0    0    0    0 -0.00000000000E+00 -0.00000000000E+00 -0.11902333708E+02  0.11902333708E+02  0.00000000000E+00 0.  1.
         13    1    1    2    0    0 -0.33305014058E+01 -0.94432417889E+01 -0.11156684426E+00  0.10014522769E+02  0.10566000000E+00 0. -1.
        996    1    1    2    0    0  0.33305014058E+01  0.94432417889E+01  0.88209177315E+02  0.10188781094E+03  0.50000000000E+02 0.  0.
<mgrwt>
<rscale>  0 0.50992814E+02</rscale>
<asrwt>0</asrwt>
<pdfrwt beam="1">  1       13 0.10000000E+01 0.50992814E+02</pdfrwt>
<pdfrwt beam="2">  1       22 0.11902358E+00 0.50992814E+02</pdfrwt>
<totfact> 0.10859814E+00</totfact>
</mgrwt>
</event>
<event>
 4    1  0.2505250E+000  0.5649856E+02  0.7957747E-01  0.1413142E+00
         13   -1    0    0    0    0  0.00000000000E+00  0.00000000000E+00  0.99999944184E+02  0.10000000000E+03  0.10566000000E+00 0.  1.
         22   -1    0    0    0    0 -0.00000000000E+00 -0.00000000000E+00 -0.43969718234E+02  0.43969718234E+02  0.00000000000E+00 0. -1.
         13    1    1    2    0    0 -0.16491618723E+02 -0.20496675126E+02 -0.30718882859E+02  0.40444382892E+02  0.10566000000E+00 0. -1.
        996    1    1    2    0    0  0.16491618723E+02  0.20496675126E+02  0.86749108809E+02  0.10352533535E+03  0.50000000000E+02 0.  0.
<mgrwt>
<rscale>  0 0.56498559E+02</rscale>
<asrwt>0</asrwt>
<pdfrwt beam="1">  1       13 0.10000000E+01 0.56498559E+02</pdfrwt>
<pdfrwt beam="2">  1       22 0.43969734E+00 0.56498559E+02</pdfrwt>
<totfact> 0.10214848E-01</totfact>
</mgrwt>
</event>
<event>
 4    1  0.2505250E+000  0.5309606E+02  0.7957747E-01  0.1429323E+00
         13   -1    0    0    0    0  0.00000000000E+00  0.00000000000E+00  0.99999944181E+02  0.10000000000E+03  0.10566000000E+00 0. -1.
         22   -1    0    0    0    0 -0.00000000000E+00 -0.00000000000E+00 -0.15386692363E+02  0.15386692363E+02  0.00000000000E+00 0. -1.
         13    1    1    2    0    0 -0.12030637292E+02 -0.13208174901E+02  0.31414024563E+01  0.18140333274E+02  0.10566000000E+00 0.  1.
        996    1    1    2    0    0  0.12030637292E+02  0.13208174901E+02  0.81471849362E+02  0.97246359090E+02  0.50000000000E+02 0.  0.
<mgrwt>
<rscale>  0 0.53096065E+02</rscale>
<asrwt>0</asrwt>
<pdfrwt beam="1">  1       13 0.10000000E+01 0.53096065E+02</pdfrwt>
<pdfrwt beam="2">  1       22 0.15386716E+00 0.53096065E+02</pdfrwt>
<totfact> 0.72310854E-01</totfact>
</mgrwt>
</event>
<event>
 4    1  0.2505250E+000  0.5244577E+02  0.7957747E-01  0.1432579E+00
         13   -1    0    0    0    0  0.00000000000E+00  0.00000000000E+00  0.99999944182E+02  0.10000000000E+03  0.10566000000E+00 0.  1.
         22   -1    0    0    0    0 -0.00000000000E+00 -0.00000000000E+00 -0.18301822108E+02  0.18301822108E+02  0.00000000000E+00 0.  1.
         13    1    1    2    0    0 -0.10168505699E+02 -0.12130950041E+02 -0.53213720320E+01  0.16699898843E+02  0.10566000000E+00 0. -1.
        996    1    1    2    0    0  0.10168505699E+02  0.12130950041E+02  0.87019494106E+02  0.10160192327E+03  0.50000000000E+02 0.  0.
<mgrwt>
<rscale>  0 0.52445767E+02</rscale>
<asrwt>0</asrwt>
<pdfrwt beam="1">  1       13 0.10000000E+01 0.52445767E+02</pdfrwt>
<pdfrwt beam="2">  1       22 0.18301845E+00 0.52445767E+02</pdfrwt>
<totfact> 0.53365761E-01</totfact>
</mgrwt>
</event>
<event>
 4    1  0.2505250E+000  0.5109227E+02  0.7957747E-01  0.1439538E+00
         13   -1    0    0    0    0  0.00000000000E+00  0.00000000000E+00  0.99999944175E+02  0.99999999996E+02  0.10566000000E+00 0. -1.
         22   -1    0    0    0    0 -0.00000000000E+00 -0.00000000000E+00 -0.25084517978E+02  0.25084517978E+02  0.00000000000E+00 0. -1.
         13    1    1    2    0    0  0.70352391642E+01  0.78054896501E+01 -0.16963809841E+02  0.19955006067E+02  0.10566000000E+00 0.  1.
        996    1    1    2    0    0 -0.70352391642E+01 -0.78054896501E+01  0.91879236038E+02  0.10512951191E+03  0.50000000000E+02 0.  0.
<mgrwt>
<rscale>  0 0.51092272E+02</rscale>
<asrwt>0</asrwt>
<pdfrwt beam="1">  1       13 0.10000000E+01 0.51092272E+02</pdfrwt>
<pdfrwt beam="2">  1       22 0.25084539E+00 0.51092272E+02</pdfrwt>
<totfact> 0.29242248E-01</totfact>
</mgrwt>
</event>
<event>
 4    1  0.2505250E+000  0.5112095E+02  0.7957747E-01  0.1439388E+00
         13   -1    0    0    0    0  0.00000000000E+00  0.00000000000E+00  0.99999944174E+02  0.99999999994E+02  0.10566000000E+00 0. -1.
         22   -1    0    0    0    0 -0.00000000000E+00 -0.00000000000E+00 -0.16310484351E+02  0.16310484351E+02  0.00000000000E+00 0. -1.
         13    1    1    2    0    0 -0.67429443053E+01  0.82391707028E+01  0.58239725408E+02  0.59204966104E+02  0.10566000000E+00 0.  1.
        996    1    1    2    0    0  0.67429443053E+01 -0.82391707028E+01  0.25449734415E+02  0.57105518241E+02  0.50000000000E+02 0.  0.
<mgrwt>
<rscale>  0 0.51120947E+02</rscale>
<asrwt>0</asrwt>
<pdfrwt beam="1">  1       13 0.10000000E+01 0.51120947E+02</pdfrwt>
<pdfrwt beam="2">  1       22 0.16310508E+00 0.51120947E+02</pdfrwt>
<totfact> 0.65219542E-01</totfact>
</mgrwt>
</event>
<event>
 4    1  0.2505250E+000  0.5278382E+02  0.7957747E-01  0.1430880E+00
         13   -1    0    0    0    0  0.00000000000E+00  0.00000000000E+00  0.99999944178E+02  0.99999999998E+02  0.10566000000E+00 0.  1.
         22   -1    0    0    0    0 -0.00000000000E+00 -0.00000000000E+00 -0.35062401460E+02  0.35062401460E+02  0.00000000000E+00 0. -1.
         13    1    1    2    0    0 -0.43310388472E+01  0.16351562916E+02 -0.25351175930E+02  0.30476626984E+02  0.10566000000E+00 0. -1.
        996    1    1    2    0    0  0.43310388472E+01 -0.16351562916E+02  0.90288718648E+02  0.10458577447E+03  0.50000000000E+02 0.  0.
<mgrwt>
<rscale>  0 0.52783819E+02</rscale>
<asrwt>0</asrwt>
<pdfrwt beam="1">  1       13 0.10000000E+01 0.52783819E+02</pdfrwt>
<pdfrwt beam="2">  1       22 0.35062420E+00 0.52783819E+02</pdfrwt>
<totfact> 0.15678239E-01</totfact>
</mgrwt>
</event>
<event>
 4    1  0.2505250E+000  0.5356124E+02  0.7957747E-01  0.1427028E+00
         13   -1    0    0    0    0  0.00000000000E+00  0.00000000000E+00  0.99999944177E+02  0.99999999997E+02  0.10566000000E+00 0.  1.
         22   -1    0    0    0    0 -0.00000000000E+00 -0.00000000000E+00 -0.13238210749E+02  0.13238210749E+02  0.00000000000E+00 0.  1.
         13    1    1    2    0    0 -0.10874772973E+02 -0.15828641857E+02  0.23345745318E+02  0.30229812748E+02  0.10566000000E+00 0. -1.
        996    1    1    2    0    0  0.10874772973E+02  0.15828641857E+02  0.63415988110E+02  0.83008397998E+02  0.50000000000E+02 0.  0.
<mgrwt>
<rscale>  0 0.53561241E+02</rscale>
<asrwt>0</asrwt>
<pdfrwt beam="1">  1       13 0.10000000E+01 0.53561241E+02</pdfrwt>
<pdfrwt beam="2">  1       22 0.13238235E+00 0.53561241E+02</pdfrwt>
<totfact> 0.92545745E-01</totfact>
</mgrwt>
</event>
<event>
 4    1  0.2505250E+000  0.5100046E+02  0.7957747E-01  0.1440019E+00
         13   -1    0    0    0    0  0.00000000000E+00  0.00000000000E+00  0.99999944185E+02  0.10000000000E+03  0.10566000000E+00 0.  1.
         22   -1    0    0    0    0 -0.00000000000E+00 -0.00000000000E+00 -0.96814051720E+01  0.96814051720E+01  0.00000000000E+00 0.  1.
         13    1    1    2    0    0 -0.37928183107E+01 -0.93092020246E+01  0.23999040839E+02  0.26019451153E+02  0.10566000000E+00 0. -1.
        996    1    1    2    0    0  0.37928183107E+01  0.93092020246E+01  0.66319498173E+02  0.83661954023E+02  0.50000000000E+02 0.  0.
<mgrwt>
<rscale>  0 0.51000458E+02</rscale>
<asrwt>0</asrwt>
<pdfrwt beam="1">  1       13 0.10000000E+01 0.51000458E+02</pdfrwt>
<pdfrwt beam="2">  1       22 0.96814304E-01 0.51000458E+02</pdfrwt>
<totfact> 0.14735806E+00</totfact>
</mgrwt>
</event>
<event>
 4    1  0.2505250E+000  0.5414713E+02  0.7957747E-01  0.1424176E+00
         13   -1    0    0    0    0  0.00000000000E+00  0.00000000000E+00  0.99999944175E+02  0.99999999995E+02  0.10566000000E+00 0.  1.
         22   -1    0    0    0    0 -0.00000000000E+00 -0.00000000000E+00 -0.14066891958E+02  0.14066891958E+02  0.00000000000E+00 0.  1.
         13    1    1    2    0    0 -0.79336893337E+00  0.20767344619E+02  0.21490316837E+02  0.29895767570E+02  0.10566000000E+00 0. -1.
        996    1    1    2    0    0  0.79336893337E+00 -0.20767344619E+02  0.64442735379E+02  0.84171124383E+02  0.50000000000E+02 0.  0.
<mgrwt>
<rscale>  0 0.54147133E+02</rscale>
<asrwt>0</asrwt>
<pdfrwt beam="1">  1       13 0.10000000E+01 0.54147133E+02</pdfrwt>
<pdfrwt beam="2">  1       22 0.14066916E+00 0.54147133E+02</pdfrwt>
<totfact> 0.84047634E-01</totfact>
</mgrwt>
</event>
<event>
 4    1  0.2505250E+000  0.5381491E+02  0.7957747E-01  0.1425788E+00
         13   -1    0    0    0    0  0.00000000000E+00  0.00000000000E+00  0.99999944181E+02  0.10000000000E+03  0.10566000000E+00 0.  1.
         22   -1    0    0    0    0 -0.00000000000E+00 -0.00000000000E+00 -0.16221668168E+02  0.16221668168E+02  0.00000000000E+00 0. -1.
         13    1    1    2    0    0  0.81999957733E+01  0.18132976762E+02  0.44998552455E+01  0.20403544746E+02  0.10566000000E+00 0. -1.
        996    1    1    2    0    0 -0.81999957733E+01 -0.18132976762E+02  0.79278420768E+02  0.95818123423E+02  0.50000000000E+02 0.  0.
<mgrwt>
<rscale>  0 0.53814912E+02</rscale>
<asrwt>0</asrwt>
<pdfrwt beam="1">  1       13 0.10000000E+01 0.53814912E+02</pdfrwt>
<pdfrwt beam="2">  1       22 0.16221692E+00 0.53814912E+02</pdfrwt>
<totfact> 0.66183356E-01</totfact>
</mgrwt>
</event>
<event>
 4    1  0.2505250E+000  0.5203922E+02  0.7957747E-01  0.1434643E+00
         13   -1    0    0    0    0  0.00000000000E+00  0.00000000000E+00  0.99999944182E+02  0.10000000000E+03  0.10566000000E+00 0. -1.
         22   -1    0    0    0    0 -0.00000000000E+00 -0.00000000000E+00 -0.11454705731E+02  0.11454705731E+02  0.00000000000E+00 0. -1.
         13    1    1    2    0    0  0.83144900931E+01 -0.11787693564E+02  0.11341630494E+02  0.18350046631E+02  0.10566000000E+00 0.  1.
        996    1    1    2    0    0 -0.83144900931E+01  0.11787693564E+02  0.77203607957E+02  0.93104659103E+02  0.50000000000E+02 0.  0.
<mgrwt>
<rscale>  0 0.52039220E+02</rscale>
<asrwt>0</asrwt>
<pdfrwt beam="1">  1       13 0.10000000E+01 0.52039220E+02</pdfrwt>
<pdfrwt beam="2">  1       22 0.11454730E+00 0.52039220E+02</pdfrwt>
<totfact> 0.11537046E+00</totfact>
</mgrwt>
</event>
<event>
 4    1  0.2505250E+000  0.5231390E+02  0.7957747E-01  0.1433246E+00
         13   -1    0    0    0    0  0.00000000000E+00  0.00000000000E+00  0.99999944183E+02  0.10000000000E+03  0.10566000000E+00 0.  1.
         22   -1    0    0    0    0 -0.00000000000E+00 -0.00000000000E+00 -0.11769001872E+02  0.11769001872E+02  0.00000000000E+00 0.  1.
         13    1    1    2    0    0 -0.11342666300E+02 -0.10396541061E+02  0.13036854876E+02  0.20167173672E+02  0.10566000000E+00 0. -1.
        996    1    1    2    0    0  0.11342666300E+02  0.10396541061E+02  0.75194087435E+02  0.91601828203E+02  0.50000000000E+02 0.  0.
<mgrwt>
<rscale>  0 0.52313900E+02</rscale>
<asrwt>0</asrwt>
<pdfrwt beam="1">  1       13 0.10000000E+01 0.52313900E+02</pdfrwt>
<pdfrwt beam="2">  1       22 0.11769027E+00 0.52313900E+02</pdfrwt>
<totfact> 0.11080869E+00</totfact>
</mgrwt>
</event>
<event>
 4    1  0.2505250E+000  0.5261974E+02  0.7957747E-01  0.1431703E+00
         13   -1    0    0    0    0  0.00000000000E+00  0.00000000000E+00  0.99999944180E+02  0.10000000000E+03  0.10566000000E+00 0. -1.
         22   -1    0    0    0    0 -0.00000000000E+00 -0.00000000000E+00 -0.12886331254E+02  0.12886331254E+02  0.00000000000E+00 0. -1.
         13    1    1    2    0    0 -0.16189952782E+02  0.25927302080E+01  0.90046357766E+01  0.18706454782E+02  0.10566000000E+00 0.  1.
        996    1    1    2    0    0  0.16189952782E+02 -0.25927302080E+01  0.78108977149E+02  0.94179876472E+02  0.50000000000E+02 0.  0.
<mgrwt>
<rscale>  0 0.52619738E+02</rscale>
<asrwt>0</asrwt>
<pdfrwt beam="1">  1       13 0.10000000E+01 0.52619738E+02</pdfrwt>
<pdfrwt beam="2">  1       22 0.12886356E+00 0.52619738E+02</pdfrwt>
<totfact> 0.96375815E-01</totfact>
</mgrwt>
</event>
<event>
 4    1  0.2505250E+000  0.5437184E+02  0.7957747E-01  0.1423093E+00
         13   -1    0    0    0    0  0.00000000000E+00  0.00000000000E+00  0.99999944181E+02  0.10000000000E+03  0.10566000000E+00 0. -1.
         22   -1    0    0    0    0 -0.00000000000E+00 -0.00000000000E+00 -0.20047866618E+02  0.20047866618E+02  0.00000000000E+00 0.  1.
         13    1    1    2    0    0 -0.16680593357E+02 -0.13343727862E+02 -0.22620723262E+01  0.21480814772E+02  0.10566000000E+00 0.  1.
        996    1    1    2    0    0  0.16680593357E+02  0.13343727862E+02  0.82214149889E+02  0.98567051847E+02  0.50000000000E+02 0.  0.
<mgrwt>
<rscale>  0 0.54371843E+02</rscale>
<asrwt>0</asrwt>
<pdfrwt beam="1">  1       13 0.10000000E+01 0.54371843E+02</pdfrwt>
<pdfrwt beam="2">  1       22 0.20047889E+00 0.54371843E+02</pdfrwt>
<totfact> 0.45293925E-01</totfact>
</mgrwt>
</event>
<event>
 4    1  0.2505250E+000  0.5149650E+02  0.7957747E-01  0.1437433E+00
         13   -1    0    0    0    0  0.00000000000E+00  0.00000000000E+00  0.99999944179E+02  0.99999999999E+02  0.10566000000E+00 0.  1.
         22   -1    0    0    0    0 -0.00000000000E+00 -0.00000000000E+00 -0.13317500714E+02  0.13317500714E+02  0.00000000000E+00 0. -1.
         13    1    1    2    0    0  0.25312881908E+01 -0.12061608237E+02 -0.19291853670E+00  0.12326321217E+02  0.10566000000E+00 0. -1.
        996    1    1    2    0    0 -0.25312881908E+01  0.12061608237E+02  0.86875362001E+02  0.10099117950E+03  0.50000000000E+02 0.  0.
<mgrwt>
<rscale>  0 0.51496503E+02</rscale>
<asrwt>0</asrwt>
<pdfrwt beam="1">  1       13 0.10000000E+01 0.51496503E+02</pdfrwt>
<pdfrwt beam="2">  1       22 0.13317525E+00 0.51496503E+02</pdfrwt>
<totfact> 0.91270989E-01</totfact>
</mgrwt>
</event>
<event>
 4    1  0.2505250E+000  0.5494594E+02  0.7957747E-01  0.1420355E+00
         13   -1    0    0    0    0  0.00000000000E+00  0.00000000000E+00  0.99999944188E+02  0.10000000001E+03  0.10566000000E+00 0.  1.
         22   -1    0    0    0    0 -0.00000000000E+00 -0.00000000000E+00 -0.20295849144E+02  0.20295849144E+02  0.00000000000E+00 0. -1.
         13    1    1    2    0    0  0.37720332516E+01 -0.22468377968E+02 -0.83595600808E+00  0.22798382176E+02  0.10566000000E+00 0. -1.
        996    1    1    2    0    0 -0.37720332516E+01  0.22468377968E+02  0.80540051052E+02  0.97497466976E+02  0.50000000000E+02 0.  0.
<mgrwt>
<rscale>  0 0.54945939E+02</rscale>
<asrwt>0</asrwt>
<pdfrwt beam="1">  1       13 0.10000000E+01 0.54945939E+02</pdfrwt>
<pdfrwt beam="2">  1       22 0.20295871E+00 0.54945939E+02</pdfrwt>
<totfact> 0.44305779E-01</totfact>
</mgrwt>
</event>
<event>
 4    1  0.2505250E+000  0.5332208E+02  0.7957747E-01  0.1428205E+00
         13   -1    0    0    0    0  0.00000000000E+00  0.00000000000E+00  0.99999944184E+02  0.10000000000E+03  0.10566000000E+00 0.  1.
         22   -1    0    0    0    0 -0.00000000000E+00 -0.00000000000E+00 -0.26881472358E+02  0.26881472358E+02  0.00000000000E+00 0. -1.
         13    1    1    2    0    0 -0.12051246824E+02  0.14071663634E+02 -0.15032107246E+02  0.23858325166E+02  0.10566000000E+00 0. -1.
        996    1    1    2    0    0  0.12051246824E+02 -0.14071663634E+02  0.88150579072E+02  0.10302314720E+03  0.50000000000E+02 0.  0.
<mgrwt>
<rscale>  0 0.53322080E+02</rscale>
<asrwt>0</asrwt>
<pdfrwt beam="1">  1       13 0.10000000E+01 0.53322080E+02</pdfrwt>
<pdfrwt beam="2">  1       22 0.26881493E+00 0.53322080E+02</pdfrwt>
<totfact> 0.25610886E-01</totfact>
</mgrwt>
</event>
<event>
 4    1  0.2505250E+000  0.5131142E+02  0.7957747E-01  0.1438394E+00
         13   -1    0    0    0    0  0.00000000000E+00  0.00000000000E+00  0.99999944179E+02  0.99999999999E+02  0.10566000000E+00 0. -1.
         22   -1    0    0    0    0 -0.00000000000E+00 -0.00000000000E+00 -0.15554370285E+02  0.15554370285E+02  0.00000000000E+00 0.  1.
         13    1    1    2    0    0  0.67302998420E+01  0.93576114645E+01 -0.48980605952E+01  0.12524535517E+02  0.10566000000E+00 0.  1.
        996    1    1    2    0    0 -0.67302998420E+01 -0.93576114645E+01  0.89343634490E+02  0.10302983477E+03  0.50000000000E+02 0.  0.
<mgrwt>
<rscale>  0 0.51311420E+02</rscale>
<asrwt>0</asrwt>
<pdfrwt beam="1">  1       13 0.10000000E+01 0.51311420E+02</pdfrwt>
<pdfrwt beam="2">  1       22 0.15554394E+00 0.51311420E+02</pdfrwt>
<totfact> 0.70747195E-01</totfact>
</mgrwt>
</event>
<event>
 4    1  0.2505250E+000  0.5099516E+02  0.7957747E-01  0.1440047E+00
         13   -1    0    0    0    0  0.00000000000E+00  0.00000000000E+00  0.99999944180E+02  0.10000000000E+03  0.10566000000E+00 0.  1.
         22   -1    0    0    0    0 -0.00000000000E+00 -0.00000000000E+00 -0.45152130865E+02  0.45152130865E+02  0.00000000000E+00 0. -1.
         13    1    1    2    0    0  0.98665109349E+01 -0.17771977487E+01 -0.37957417004E+02  0.39259179048E+02  0.10566000000E+00 0. -1.
        996    1    1    2    0    0 -0.98665109349E+01  0.17771977487E+01  0.92805230319E+02  0.10589295182E+03  0.50000000000E+02 0.  0.
<mgrwt>
<rscale>  0 0.50995161E+02</rscale>
<asrwt>0</asrwt>
<pdfrwt beam="1">  1       13 0.10000000E+01 0.50995161E+02</pdfrwt>
<pdfrwt beam="2">  1       22 0.45152146E+00 0.50995161E+02</pdfrwt>
<totfact> 0.95800084E-02</totfact>
</mgrwt>
</event>
<event>
 4    1  0.2505250E+000  0.5501142E+02  0.7957747E-01  0.1420045E+00
         13   -1    0    0    0    0  0.00000000000E+00  0.00000000000E+00  0.99999944172E+02  0.99999999992E+02  0.10566000000E+00 0.  1.
         22   -1    0    0    0    0 -0.00000000000E+00 -0.00000000000E+00 -0.16306800182E+02  0.16306800182E+02  0.00000000000E+00 0. -1.
         13    1    1    2    0    0 -0.10157918779E+02 -0.20568746812E+02  0.11848281638E+02  0.25819558500E+02  0.10566000000E+00 0. -1.
        996    1    1    2    0    0  0.10157918779E+02  0.20568746812E+02  0.71844862353E+02  0.90487241674E+02  0.50000000000E+02 0.  0.
<mgrwt>
<rscale>  0 0.55011423E+02</rscale>
<asrwt>0</asrwt>
<pdfrwt beam="1">  1       13 0.10000000E+01 0.55011423E+02</pdfrwt>
<pdfrwt beam="2">  1       22 0.16306824E+00 0.55011423E+02</pdfrwt>
<totfact> 0.65736841E-01</totfact>
</mgrwt>
</event>
<event>
 4    1  0.2505250E+000  0.5757663E+02  0.7957747E-01  0.1408292E+00
         13   -1    0    0    0    0  0.00000000000E+00  0.00000000000E+00  0.99999944178E+02  0.99999999998E+02  0.10566000000E+00 0. -1.
         22   -1    0    0    0    0 -0.00000000000E+00 -0.00000000000E+00 -0.30895656362E+02  0.30895656362E+02  0.00000000000E+00 0.  1.
         13    1    1    2    0    0  0.20886579825E+02 -0.19463262706E+02 -0.12383220703E+02  0.31119497602E+02  0.10566000000E+00 0.  1.
        996    1    1    2    0    0 -0.20886579825E+02  0.19463262706E+02  0.81487508519E+02  0.99776158759E+02  0.50000000000E+02 0.  0.
<mgrwt>
<rscale>  0 0.57576626E+02</rscale>
<asrwt>0</asrwt>
<pdfrwt beam="1">  1       13 0.10000000E+01 0.57576626E+02</pdfrwt>
<pdfrwt beam="2">  1       22 0.30895676E+00 0.57576626E+02</pdfrwt>
<totfact> 0.19738602E-01</totfact>
</mgrwt>
</event>
<event>
 4    1  0.2505250E+000  0.5112966E+02  0.7957747E-01  0.1439342E+00
         13   -1    0    0    0    0  0.00000000000E+00  0.00000000000E+00  0.99999944182E+02  0.10000000000E+03  0.10566000000E+00 0.  1.
         22   -1    0    0    0    0 -0.00000000000E+00 -0.00000000000E+00 -0.96846328893E+01  0.96846328893E+01  0.00000000000E+00 0.  1.
         13    1    1    2    0    0 -0.14115304292E+01  0.10594820504E+02  0.11170414205E+02  0.15460658370E+02  0.10566000000E+00 0. -1.
        996    1    1    2    0    0  0.14115304292E+01 -0.10594820504E+02  0.79144897088E+02  0.94223974522E+02  0.50000000000E+02 0.  0.
<mgrwt>
<rscale>  0 0.51129665E+02</rscale>
<asrwt>0</asrwt>
<pdfrwt beam="1">  1       13 0.10000000E+01 0.51129665E+02</pdfrwt>
<pdfrwt beam="2">  1       22 0.96846581E-01 0.51129665E+02</pdfrwt>
<totfact> 0.14733459E+00</totfact>
</mgrwt>
</event>
<event>
 4    1  0.2505250E+000  0.5631099E+02  0.7957747E-01  0.1413999E+00
         13   -1    0    0    0    0  0.00000000000E+00  0.00000000000E+00  0.99999944178E+02  0.99999999998E+02  0.10566000000E+00 0.  1.
         22   -1    0    0    0    0 -0.00000000000E+00 -0.00000000000E+00 -0.16940895070E+02  0.16940895070E+02  0.00000000000E+00 0. -1.
         13    1    1    2    0    0  0.19256445891E+02 -0.17323870014E+02  0.28954605015E+02  0.38849806901E+02  0.10566000000E+00 0. -1.
        996    1    1    2    0    0 -0.19256445891E+02  0.17323870014E+02  0.54104444092E+02  0.78091088167E+02  0.50000000000E+02 0.  0.
<mgrwt>
<rscale>  0 0.56310986E+02</rscale>
<asrwt>0</asrwt>
<pdfrwt beam="1">  1       13 0.10000000E+01 0.56310986E+02</pdfrwt>
<pdfrwt beam="2">  1       22 0.16940918E+00 0.56310986E+02</pdfrwt>
<totfact> 0.61662214E-01</totfact>
</mgrwt>
</event>
<event>
 4    1  0.2505250E+000  0.5196323E+02  0.7957747E-01  0.1435031E+00
         13   -1    0    0    0    0  0.00000000000E+00  0.00000000000E+00  0.99999944185E+02  0.10000000000E+03  0.10566000000E+00 0. -1.
         22   -1    0    0    0    0 -0.00000000000E+00 -0.00000000000E+00 -0.22102248492E+02  0.22102248492E+02  0.00000000000E+00 0.  1.
         13    1    1    2    0    0  0.12432148898E+02 -0.67541575964E+01 -0.11810932513E+02  0.18430579533E+02  0.10566000000E+00 0.  1.
        996    1    1    2    0    0 -0.12432148898E+02  0.67541575964E+01  0.89708628206E+02  0.10367166896E+03  0.50000000000E+02 0.  0.
<mgrwt>
<rscale>  0 0.51963227E+02</rscale>
<asrwt>0</asrwt>
<pdfrwt beam="1">  1       13 0.10000000E+01 0.51963227E+02</pdfrwt>
<pdfrwt beam="2">  1       22 0.22102270E+00 0.51963227E+02</pdfrwt>
<totfact> 0.37482807E-01</totfact>
</mgrwt>
</event>
<event>
 4    1  0.2505250E+000  0.7063757E+02  0.7957747E-01  0.1357938E+00
         13   -1    0    0    0    0  0.00000000000E+00  0.00000000000E+00  0.99999944172E+02  0.99999999992E+02  0.10566000000E+00 0.  1.
         22   -1    0    0    0    0 -0.00000000000E+00 -0.00000000000E+00 -0.66975461578E+02  0.66975461578E+02  0.00000000000E+00 0. -1.
         13    1    1    2    0    0 -0.23628786621E+02  0.43947093961E+02 -0.41055291313E+02  0.64615901554E+02  0.10566000000E+00 0. -1.
        996    1    1    2    0    0  0.23628786621E+02 -0.43947093961E+02  0.74079773906E+02  0.10235956002E+03  0.50000000000E+02 0.  0.
<mgrwt>
<rscale>  0 0.70637572E+02</rscale>
<asrwt>0</asrwt>
<pdfrwt beam="1">  1       13 0.10000000E+01 0.70637572E+02</pdfrwt>
<pdfrwt beam="2">  1       22 0.66975471E+00 0.70637572E+02</pdfrwt>
<totfact> 0.86319746E-02</totfact>
</mgrwt>
</event>
<event>
 4    1  0.2505250E+000  0.5742806E+02  0.7957747E-01  0.1408953E+00
         13   -1    0    0    0    0  0.00000000000E+00  0.00000000000E+00  0.99999944169E+02  0.99999999989E+02  0.10566000000E+00 0. -1.
         22   -1    0    0    0    0 -0.00000000000E+00 -0.00000000000E+00 -0.21109976565E+02  0.21109976565E+02  0.00000000000E+00 0.  1.
         13    1    1    2    0    0 -0.35505613838E+01 -0.28024543404E+02  0.70089536224E+01  0.29105293575E+02  0.10566000000E+00 0.  1.
        996    1    1    2    0    0  0.35505613838E+01  0.28024543404E+02  0.71881013981E+02  0.92004682979E+02  0.50000000000E+02 0.  0.
<mgrwt>
<rscale>  0 0.57428055E+02</rscale>
<asrwt>0</asrwt>
<pdfrwt beam="1">  1       13 0.10000000E+01 0.57428055E+02</pdfrwt>
<pdfrwt beam="2">  1       22 0.21109999E+00 0.57428055E+02</pdfrwt>
<totfact> 0.41296098E-01</totfact>
</mgrwt>
</event>
<event>
 4    1  0.2505250E+000  0.5370592E+02  0.7957747E-01  0.1426320E+00
         13   -1    0    0    0    0  0.00000000000E+00  0.00000000000E+00  0.99999944171E+02  0.99999999991E+02  0.10566000000E+00 0.  1.
         22   -1    0    0    0    0 -0.00000000000E+00 -0.00000000000E+00 -0.14453758436E+02  0.14453758436E+02  0.00000000000E+00 0.  1.
         13    1    1    2    0    0 -0.19138893232E+02 -0.42460094172E+01  0.37850078385E+02  0.42625877444E+02  0.10566000000E+00 0. -1.
        996    1    1    2    0    0  0.19138893232E+02  0.42460094172E+01  0.47696107350E+02  0.71827880983E+02  0.50000000000E+02 0.  0.
<mgrwt>
<rscale>  0 0.53705920E+02</rscale>
<asrwt>0</asrwt>
<pdfrwt beam="1">  1       13 0.10000000E+01 0.53705920E+02</pdfrwt>
<pdfrwt beam="2">  1       22 0.14453782E+00 0.53705920E+02</pdfrwt>
<totfact> 0.80332432E-01</totfact>
</mgrwt>
</event>
<event>
 4    1  0.2505250E+000  0.5144277E+02  0.7957747E-01  0.1437711E+00
         13   -1    0    0    0    0  0.00000000000E+00  0.00000000000E+00  0.99999944176E+02  0.99999999996E+02  0.10566000000E+00 0.  1.
         22   -1    0    0    0    0 -0.00000000000E+00 -0.00000000000E+00 -0.16014830161E+02  0.16014830161E+02  0.00000000000E+00 0.  1.
         13    1    1    2    0    0 -0.74428696920E+01 -0.95374207341E+01 -0.51112535713E+01  0.13133726837E+02  0.10566000000E+00 0. -1.
        996    1    1    2    0    0  0.74428696920E+01  0.95374207341E+01  0.89096367586E+02  0.10288110332E+03  0.50000000000E+02 0.  0.
<mgrwt>
<rscale>  0 0.51442771E+02</rscale>
<asrwt>0</asrwt>
<pdfrwt beam="1">  1       13 0.10000000E+01 0.51442771E+02</pdfrwt>
<pdfrwt beam="2">  1       22 0.16014854E+00 0.51442771E+02</pdfrwt>
<totfact> 0.67342806E-01</totfact>
</mgrwt>
</event>
<event>
 4    1  0.2505250E+000  0.6864528E+02  0.7957747E-01  0.1364761E+00
         13   -1    0    0    0    0  0.00000000000E+00  0.00000000000E+00  0.99999944180E+02  0.10000000000E+03  0.10566000000E+00 0.  1.
         22   -1    0    0    0    0 -0.00000000000E+00 -0.00000000000E+00 -0.41950655163E+02  0.41950655163E+02  0.00000000000E+00 0. -1.
         13    1    1    2    0    0 -0.32882476729E+02 -0.33629121871E+02 -0.67935868608E+01  0.47521985440E+02  0.10566000000E+00 0. -1.
        996    1    1    2    0    0  0.32882476729E+02  0.33629121871E+02  0.64842875878E+02  0.94428669724E+02  0.50000000000E+02 0.  0.
<mgrwt>
<rscale>  0 0.68645285E+02</rscale>
<asrwt>0</asrwt>
<pdfrwt beam="1">  1       13 0.10000000E+01 0.68645285E+02</pdfrwt>
<pdfrwt beam="2">  1       22 0.41950671E+00 0.68645285E+02</pdfrwt>
<totfact> 0.11377148E-01</totfact>
</mgrwt>
</event>
<event>
 4    1  0.2505250E+000  0.5154653E+02  0.7957747E-01  0.1437174E+00
         13   -1    0    0    0    0  0.00000000000E+00  0.00000000000E+00  0.99999944178E+02  0.99999999998E+02  0.10566000000E+00 0. -1.
         22   -1    0    0    0    0 -0.00000000000E+00 -0.00000000000E+00 -0.10341275562E+02  0.10341275562E+02  0.00000000000E+00 0. -1.
         13    1    1    2    0    0  0.74553638271E+01 -0.10072854190E+02  0.13973493392E+02  0.18770043232E+02  0.10566000000E+00 0.  1.
        996    1    1    2    0    0 -0.74553638271E+01  0.10072854190E+02  0.75685175224E+02  0.91571232328E+02  0.50000000000E+02 0.  0.
<mgrwt>
<rscale>  0 0.51546531E+02</rscale>
<asrwt>0</asrwt>
<pdfrwt beam="1">  1       13 0.10000000E+01 0.51546531E+02</pdfrwt>
<pdfrwt beam="2">  1       22 0.10341301E+00 0.51546531E+02</pdfrwt>
<totfact> 0.13411428E+00</totfact>
</mgrwt>
</event>
<event>
 4    1  0.2505250E+000  0.5322251E+02  0.7957747E-01  0.1428697E+00
         13   -1    0    0    0    0  0.00000000000E+00  0.00000000000E+00  0.99999944185E+02  0.10000000001E+03  0.10566000000E+00 0. -1.
         22   -1    0    0    0    0 -0.00000000000E+00 -0.00000000000E+00 -0.13111950745E+02  0.13111950745E+02  0.00000000000E+00 0.  1.
         13    1    1    2    0    0  0.73323897639E+01  0.16699454553E+02  0.14700532993E+02  0.23425468113E+02  0.10566000000E+00 0.  1.
        996    1    1    2    0    0 -0.73323897639E+01 -0.16699454553E+02  0.72187460447E+02  0.89686482637E+02  0.50000000000E+02 0.  0.
<mgrwt>
<rscale>  0 0.53222511E+02</rscale>
<asrwt>0</asrwt>
<pdfrwt beam="1">  1       13 0.10000000E+01 0.53222511E+02</pdfrwt>
<pdfrwt beam="2">  1       22 0.13111975E+00 0.53222511E+02</pdfrwt>
<totfact> 0.93895053E-01</totfact>
</mgrwt>
</event>
<event>
 4    1  0.2505250E+000  0.5498291E+02  0.7957747E-01  0.1420180E+00
         13   -1    0    0    0    0  0.00000000000E+00  0.00000000000E+00  0.99999944178E+02  0.99999999998E+02  0.10566000000E+00 0.  1.
         22   -1    0    0    0    0 -0.00000000000E+00 -0.00000000000E+00 -0.16377569402E+02  0.16377569402E+02  0.00000000000E+00 0.  1.
         13    1    1    2    0    0  0.18363539924E+02  0.13634529979E+02  0.11252555004E+02  0.25490217034E+02  0.10566000000E+00 0. -1.
        996    1    1    2    0    0 -0.18363539924E+02 -0.13634529979E+02  0.72369819772E+02  0.90887352366E+02  0.50000000000E+02 0.  0.
<mgrwt>
<rscale>  0 0.54982906E+02</rscale>
<asrwt>0</asrwt>
<pdfrwt beam="1">  1       13 0.10000000E+01 0.54982906E+02</pdfrwt>
<pdfrwt beam="2">  1       22 0.16377593E+00 0.54982906E+02</pdfrwt>
<totfact> 0.65243653E-01</totfact>
</mgrwt>
</event>
<event>
 4    1  0.2505250E+000  0.5753602E+02  0.7957747E-01  0.1408473E+00
         13   -1    0    0    0    0  0.00000000000E+00  0.00000000000E+00  0.99999944175E+02  0.99999999995E+02  0.10566000000E+00 0. -1.
         22   -1    0    0    0    0 -0.00000000000E+00 -0.00000000000E+00 -0.21133809656E+02  0.21133809656E+02  0.00000000000E+00 0.  1.
         13    1    1    2    0    0  0.24704903313E+02  0.14144316825E+02  0.74540711594E+01  0.29427339109E+02  0.10566000000E+00 0.  1.
        996    1    1    2    0    0 -0.24704903313E+02 -0.14144316825E+02  0.71412063359E+02  0.91706470543E+02  0.50000000000E+02 0.  0.
<mgrwt>
<rscale>  0 0.57536023E+02</rscale>
<asrwt>0</asrwt>
<pdfrwt beam="1">  1       13 0.10000000E+01 0.57536023E+02</pdfrwt>
<pdfrwt beam="2">  1       22 0.21133832E+00 0.57536023E+02</pdfrwt>
<totfact> 0.41214412E-01</totfact>
</mgrwt>
</event>
<event>
 4    1  0.2505250E+000  0.5461320E+02  0.7957747E-01  0.1421937E+00
         13   -1    0    0    0    0  0.00000000000E+00  0.00000000000E+00  0.99999944180E+02  0.10000000000E+03  0.10566000000E+00 0. -1.
         22   -1    0    0    0    0 -0.00000000000E+00 -0.00000000000E+00 -0.33935575749E+02  0.33935575749E+02  0.00000000000E+00 0.  1.
         13    1    1    2    0    0 -0.92522747471E+01 -0.19924775269E+02 -0.21498412873E+02  0.30737504414E+02  0.10566000000E+00 0.  1.
        996    1    1    2    0    0  0.92522747471E+01  0.19924775269E+02  0.87562781304E+02  0.10319807134E+03  0.50000000000E+02 0.  0.
<mgrwt>
<rscale>  0 0.54613197E+02</rscale>
<asrwt>0</asrwt>
<pdfrwt beam="1">  1       13 0.10000000E+01 0.54613197E+02</pdfrwt>
<pdfrwt beam="2">  1       22 0.33935594E+00 0.54613197E+02</pdfrwt>
<totfact> 0.16630994E-01</totfact>
</mgrwt>
</event>
<event>
 4    1  0.2505250E+000  0.5901288E+02  0.7957747E-01  0.1402022E+00
         13   -1    0    0    0    0  0.00000000000E+00  0.00000000000E+00  0.99999944181E+02  0.10000000000E+03  0.10566000000E+00 0.  1.
         22   -1    0    0    0    0 -0.00000000000E+00 -0.00000000000E+00 -0.31391571446E+02  0.31391571446E+02  0.00000000000E+00 0. -1.
         13    1    1    2    0    0  0.18959319989E+02  0.24961265215E+02 -0.10176500205E+02  0.32955923535E+02  0.10566000000E+00 0. -1.
        996    1    1    2    0    0 -0.18959319989E+02 -0.24961265215E+02  0.78784872941E+02  0.98435647912E+02  0.50000000000E+02 0.  0.
<mgrwt>
<rscale>  0 0.59012885E+02</rscale>
<asrwt>0</asrwt>
<pdfrwt beam="1">  1       13 0.10000000E+01 0.59012885E+02</pdfrwt>
<pdfrwt beam="2">  1       22 0.31391591E+00 0.59012885E+02</pdfrwt>
<totfact> 0.19201599E-01</totfact>
</mgrwt>
</event>
<event>
 4    1  0.2505250E+000  0.6048709E+02  0.7957747E-01  0.1395799E+00
         13   -1    0    0    0    0  0.00000000000E+00  0.00000000000E+00  0.99999944180E+02  0.10000000000E+03  0.10566000000E+00 0. -1.
         22   -1    0    0    0    0 -0.00000000000E+00 -0.00000000000E+00 -0.42370338958E+02  0.42370338958E+02  0.00000000000E+00 0.  1.
         13    1    1    2    0    0 -0.33292871575E+01  0.33876308728E+02 -0.23361421952E+02  0.41285053538E+02  0.10566000000E+00 0.  1.
        996    1    1    2    0    0  0.33292871575E+01 -0.33876308728E+02  0.80991027173E+02  0.10108528542E+03  0.50000000000E+02 0.  0.
<mgrwt>
<rscale>  0 0.60487093E+02</rscale>
<asrwt>0</asrwt>
<pdfrwt beam="1">  1       13 0.10000000E+01 0.60487093E+02</pdfrwt>
<pdfrwt beam="2">  1       22 0.42370355E+00 0.60487093E+02</pdfrwt>
<totfact> 0.11093440E-01</totfact>
</mgrwt>
</event>
<event>
 4    1  0.2505250E+000  0.5104337E+02  0.7957747E-01  0.1439794E+00
         13   -1    0    0    0    0  0.00000000000E+00  0.00000000000E+00  0.99999944175E+02  0.99999999996E+02  0.10566000000E+00 0.  1.
         22   -1    0    0    0    0 -0.00000000000E+00 -0.00000000000E+00 -0.10876501886E+02  0.10876501886E+02  0.00000000000E+00 0. -1.
         13    1    1    2    0    0 -0.64311693559E+01  0.80040753254E+01  0.28876367300E+01  0.10666525724E+02  0.10566000000E+00 0. -1.
        996    1    1    2    0    0  0.64311693559E+01 -0.80040753254E+01  0.86235805559E+02  0.10020997616E+03  0.50000000000E+02 0.  0.
<mgrwt>
<rscale>  0 0.51043365E+02</rscale>
<asrwt>0</asrwt>
<pdfrwt beam="1">  1       13 0.10000000E+01 0.51043365E+02</pdfrwt>
<pdfrwt beam="2">  1       22 0.10876527E+00 0.51043365E+02</pdfrwt>
<totfact> 0.12436646E+00</totfact>
</mgrwt>
</event>
<event>
 4    1  0.2505250E+000  0.5670490E+02  0.7957747E-01  0.1412204E+00
         13   -1    0    0    0    0  0.00000000000E+00  0.00000000000E+00  0.99999944177E+02  0.99999999997E+02  0.10566000000E+00 0.  1.
         22   -1    0    0    0    0 -0.00000000000E+00 -0.00000000000E+00 -0.61547298185E+02  0.61547298185E+02  0.00000000000E+00 0. -1.
         13    1    1    2    0    0  0.22468793427E+02  0.14512012618E+02 -0.49868937354E+02  0.56589462492E+02  0.10566000000E+00 0. -1.
        996    1    1    2    0    0 -0.22468793427E+02 -0.14512012618E+02  0.88321583345E+02  0.10495783569E+03  0.50000000000E+02 0.  0.
<mgrwt>
<rscale>  0 0.56704896E+02</rscale>
<asrwt>0</asrwt>
<pdfrwt beam="1">  1       13 0.10000000E+01 0.56704896E+02</pdfrwt>
<pdfrwt beam="2">  1       22 0.61547309E+00 0.56704896E+02</pdfrwt>
<totfact> 0.70311164E-02</totfact>
</mgrwt>
</event>
<event>
 4    1  0.2505250E+000  0.5626895E+02  0.7957747E-01  0.1414192E+00
         13   -1    0    0    0    0  0.00000000000E+00  0.00000000000E+00  0.99999944180E+02  0.10000000000E+03  0.10566000000E+00 0.  1.
         22   -1    0    0    0    0 -0.00000000000E+00 -0.00000000000E+00 -0.18133062164E+02  0.18133062164E+02  0.00000000000E+00 0.  1.
         13    1    1    2    0    0  0.10609865867E+02 -0.23529237047E+02  0.12110649728E+02  0.28510932125E+02  0.10566000000E+00 0. -1.
        996    1    1    2    0    0 -0.10609865867E+02  0.23529237047E+02  0.69756232288E+02  0.89622130040E+02  0.50000000000E+02 0.  0.
<mgrwt>
<rscale>  0 0.56268946E+02</rscale>
<asrwt>0</asrwt>
<pdfrwt beam="1">  1       13 0.10000000E+01 0.56268946E+02</pdfrwt>
<pdfrwt beam="2">  1       22 0.18133085E+00 0.56268946E+02</pdfrwt>
<totfact> 0.54637541E-01</totfact>
</mgrwt>
</event>
<event>
 4    1  0.2505250E+000  0.5161365E+02  0.7957747E-01  0.1436827E+00
         13   -1    0    0    0    0  0.00000000000E+00  0.00000000000E+00  0.99999944179E+02  0.99999999999E+02  0.10566000000E+00 0.  1.
         22   -1    0    0    0    0 -0.00000000000E+00 -0.00000000000E+00 -0.11316332481E+02  0.11316332481E+02  0.00000000000E+00 0.  1.
         13    1    1    2    0    0  0.70895534660E+01  0.10663340842E+02  0.67357821066E+01  0.14468950580E+02  0.10566000000E+00 0. -1.
        996    1    1    2    0    0 -0.70895534660E+01 -0.10663340842E+02  0.81947829591E+02  0.96847381901E+02  0.50000000000E+02 0.  0.
<mgrwt>
<rscale>  0 0.51613647E+02</rscale>
<asrwt>0</asrwt>
<pdfrwt beam="1">  1       13 0.10000000E+01 0.51613647E+02</pdfrwt>
<pdfrwt beam="2">  1       22 0.11316357E+00 0.51613647E+02</pdfrwt>
<totfact> 0.11738367E+00</totfact>
</mgrwt>
</event>
<event>
 4    1  0.2505250E+000  0.5302142E+02  0.7957747E-01  0.1429694E+00
         13   -1    0    0    0    0  0.00000000000E+00  0.00000000000E+00  0.99999944178E+02  0.99999999998E+02  0.10566000000E+00 0.  1.
         22   -1    0    0    0    0 -0.00000000000E+00 -0.00000000000E+00 -0.20200624563E+02  0.20200624563E+02  0.00000000000E+00 0. -1.
         13    1    1    2    0    0  0.13747022520E+02  0.11058486382E+02 -0.65935228435E+01  0.18834979606E+02  0.10566000000E+00 0. -1.
        996    1    1    2    0    0 -0.13747022520E+02 -0.11058486382E+02  0.86392842458E+02  0.10136564496E+03  0.50000000000E+02 0.  0.
<mgrwt>
<rscale>  0 0.53021418E+02</rscale>
<asrwt>0</asrwt>
<pdfrwt beam="1">  1       13 0.10000000E+01 0.53021418E+02</pdfrwt>
<pdfrwt beam="2">  1       22 0.20200647E+00 0.53021418E+02</pdfrwt>
<totfact> 0.44551038E-01</totfact>
</mgrwt>
</event>
<event>
 4    1  0.2505250E+000  0.5165664E+02  0.7957747E-01  0.1436606E+00
         13   -1    0    0    0    0  0.00000000000E+00  0.00000000000E+00  0.99999944192E+02  0.10000000001E+03  0.10566000000E+00 0.  1.
         22   -1    0    0    0    0 -0.00000000000E+00 -0.00000000000E+00 -0.70842313455E+02  0.70842313455E+02  0.00000000000E+00 0. -1.
         13    1    1    2    0    0 -0.12527798290E+02 -0.33856779986E+01 -0.63470643505E+02  0.64783811994E+02  0.10566000000E+00 0. -1.
        996    1    1    2    0    0  0.12527798290E+02  0.33856779986E+01  0.92628274242E+02  0.10605850147E+03  0.50000000000E+02 0.  0.
<mgrwt>
<rscale>  0 0.51656641E+02</rscale>
<asrwt>0</asrwt>
<pdfrwt beam="1">  1       13 0.10000000E+01 0.51656641E+02</pdfrwt>
<pdfrwt beam="2">  1       22 0.70842322E+00 0.51656641E+02</pdfrwt>
<totfact> 0.70249448E-02</totfact>
</mgrwt>
</event>
<event>
 4    1  0.2505250E+000  0.5100832E+02  0.7957747E-01  0.1439978E+00
         13   -1    0    0    0    0  0.00000000000E+00  0.00000000000E+00  0.99999944181E+02  0.10000000000E+03  0.10566000000E+00 0.  1.
         22   -1    0    0    0    0 -0.00000000000E+00 -0.00000000000E+00 -0.11668894754E+02  0.11668894754E+02  0.00000000000E+00 0.  1.
         13    1    1    2    0    0  0.95265412054E+01  0.33306691739E+01  0.50544622239E+00  0.10105195911E+02  0.10566000000E+00 0. -1.
        996    1    1    2    0    0 -0.95265412054E+01 -0.33306691739E+01  0.87825603205E+02  0.10156369884E+03  0.50000000000E+02 0.  0.
<mgrwt>
<rscale>  0 0.51008316E+02</rscale>
<asrwt>0</asrwt>
<pdfrwt beam="1">  1       13 0.10000000E+01 0.51008316E+02</pdfrwt>
<pdfrwt beam="2">  1       22 0.11668919E+00 0.51008316E+02</pdfrwt>
<totfact> 0.11192198E+00</totfact>
</mgrwt>
</event>
<event>
 4    1  0.2505250E+000  0.5100531E+02  0.7957747E-01  0.1439993E+00
         13   -1    0    0    0    0  0.00000000000E+00  0.00000000000E+00  0.99999944177E+02  0.99999999997E+02  0.10566000000E+00 0. -1.
         22   -1    0    0    0    0 -0.00000000000E+00 -0.00000000000E+00 -0.94755890013E+01  0.94755890013E+01  0.00000000000E+00 0. -1.
         13    1    1    2    0    0  0.10065679152E+02 -0.47285470216E+00  0.10299450061E+02  0.14409417891E+02  0.10566000000E+00 0.  1.
        996    1    1    2    0    0 -0.10065679152E+02  0.47285470216E+00  0.80224905115E+02  0.95066171108E+02  0.50000000000E+02 0.  0.
<mgrwt>
<rscale>  0 0.51005308E+02</rscale>
<asrwt>0</asrwt>
<pdfrwt beam="1">  1       13 0.10000000E+01 0.51005308E+02</pdfrwt>
<pdfrwt beam="2">  1       22 0.94756143E-01 0.51005308E+02</pdfrwt>
<totfact> 0.15196345E+00</totfact>
</mgrwt>
</event>
<event>
 4    1  0.2505250E+000  0.5182861E+02  0.7957747E-01  0.1435721E+00
         13   -1    0    0    0    0  0.00000000000E+00  0.00000000000E+00  0.99999944171E+02  0.99999999992E+02  0.10566000000E+00 0. -1.
         22   -1    0    0    0    0 -0.00000000000E+00 -0.00000000000E+00 -0.19364905630E+02  0.19364905630E+02  0.00000000000E+00 0.  1.
         13    1    1    2    0    0 -0.37708526640E+01 -0.13114325734E+02 -0.86289370445E+01  0.16145420026E+02  0.10566000000E+00 0.  1.
        996    1    1    2    0    0  0.37708526640E+01  0.13114325734E+02  0.89263975585E+02  0.10321948560E+03  0.50000000000E+02 0.  0.
<mgrwt>
<rscale>  0 0.51828611E+02</rscale>
<asrwt>0</asrwt>
<pdfrwt beam="1">  1       13 0.10000000E+01 0.51828611E+02</pdfrwt>
<pdfrwt beam="2">  1       22 0.19364928E+00 0.51828611E+02</pdfrwt>
<totfact> 0.48087256E-01</totfact>
</mgrwt>
</event>
<event>
 4    1  0.2505250E+000  0.5194807E+02  0.7957747E-01  0.1435109E+00
         13   -1    0    0    0    0  0.00000000000E+00  0.00000000000E+00  0.99999944174E+02  0.99999999994E+02  0.10566000000E+00 0. -1.
         22   -1    0    0    0    0 -0.00000000000E+00 -0.00000000000E+00 -0.11780042696E+02  0.11780042696E+02  0.00000000000E+00 0. -1.
         13    1    1    2    0    0 -0.13983992686E+02  0.17462871579E+01  0.79895440218E+01  0.16200171233E+02  0.10566000000E+00 0.  1.
        996    1    1    2    0    0  0.13983992686E+02 -0.17462871579E+01  0.80230357456E+02  0.95579871457E+02  0.50000000000E+02 0.  0.
<mgrwt>
<rscale>  0 0.51948066E+02</rscale>
<asrwt>0</asrwt>
<pdfrwt beam="1">  1       13 0.10000000E+01 0.51948066E+02</pdfrwt>
<pdfrwt beam="2">  1       22 0.11780067E+00 0.51948066E+02</pdfrwt>
<totfact> 0.11055996E+00</totfact>
</mgrwt>
</event>
<event>
 4    1  0.2505250E+000  0.5388179E+02  0.7957747E-01  0.1425462E+00
         13   -1    0    0    0    0  0.00000000000E+00  0.00000000000E+00  0.99999944180E+02  0.10000000000E+03  0.10566000000E+00 0. -1.
         22   -1    0    0    0    0 -0.00000000000E+00 -0.00000000000E+00 -0.26627647445E+02  0.26627647445E+02  0.00000000000E+00 0.  1.
         13    1    1    2    0    0  0.20008009960E+02  0.17106936412E+01 -0.13645336164E+02  0.24278659319E+02  0.10566000000E+00 0.  1.
        996    1    1    2    0    0 -0.20008009960E+02 -0.17106936412E+01  0.87017632899E+02  0.10234898813E+03  0.50000000000E+02 0.  0.
<mgrwt>
<rscale>  0 0.53881787E+02</rscale>
<asrwt>0</asrwt>
<pdfrwt beam="1">  1       13 0.10000000E+01 0.53881787E+02</pdfrwt>
<pdfrwt beam="2">  1       22 0.26627668E+00 0.53881787E+02</pdfrwt>
<totfact> 0.26112744E-01</totfact>
</mgrwt>
</event>
<event>
 4    1  0.2505250E+000  0.5328469E+02  0.7957747E-01  0.1428389E+00
         13   -1    0    0    0    0  0.00000000000E+00  0.00000000000E+00  0.99999944173E+02  0.99999999994E+02  0.10566000000E+00 0.  1.
         22   -1    0    0    0    0 -0.00000000000E+00 -0.00000000000E+00 -0.53342083412E+02  0.53342083412E+02  0.00000000000E+00 0. -1.
         13    1    1    2    0    0  0.19552923086E+01  0.18314880700E+02 -0.44271535490E+02  0.47950370611E+02  0.10566000000E+00 0. -1.
        996    1    1    2    0    0 -0.19552923086E+01 -0.18314880700E+02  0.90929396252E+02  0.10539171279E+03  0.50000000000E+02 0.  0.
<mgrwt>
<rscale>  0 0.53284688E+02</rscale>
<asrwt>0</asrwt>
<pdfrwt beam="1">  1       13 0.10000000E+01 0.53284688E+02</pdfrwt>
<pdfrwt beam="2">  1       22 0.53342096E+00 0.53284688E+02</pdfrwt>
<totfact> 0.62218564E-02</totfact>
</mgrwt>
</event>
<event>
 4    1  0.2505250E+000  0.5473850E+02  0.7957747E-01  0.1421340E+00
         13   -1    0    0    0    0  0.00000000000E+00  0.00000000000E+00  0.99999944177E+02  0.99999999997E+02  0.10566000000E+00 0.  1.
         22   -1    0    0    0    0 -0.00000000000E+00 -0.00000000000E+00 -0.28161085879E+02  0.28161085879E+02  0.00000000000E+00 0. -1.
         13    1    1    2    0    0 -0.21348575298E+02 -0.63672276596E+01 -0.14030875090E+02  0.26328309387E+02  0.10566000000E+00 0. -1.
        996    1    1    2    0    0  0.21348575298E+02  0.63672276596E+01  0.85869733388E+02  0.10183277649E+03  0.50000000000E+02 0.  0.
<mgrwt>
<rscale>  0 0.54738499E+02</rscale>
<asrwt>0</asrwt>
<pdfrwt beam="1">  1       13 0.10000000E+01 0.54738499E+02</pdfrwt>
<pdfrwt beam="2">  1       22 0.28161106E+00 0.54738499E+02</pdfrwt>
<totfact> 0.23438646E-01</totfact>
</mgrwt>
</event>
<event>
 4    1  0.2505250E+000  0.5298429E+02  0.7957747E-01  0.1429879E+00
         13   -1    0    0    0    0  0.00000000000E+00  0.00000000000E+00  0.99999944171E+02  0.99999999991E+02  0.10566000000E+00 0.  1.
         22   -1    0    0    0    0 -0.00000000000E+00 -0.00000000000E+00 -0.52424102363E+02  0.52424102363E+02  0.00000000000E+00 0. -1.
         13    1    1    2    0    0  0.13191675139E+02 -0.11546203756E+02 -0.43587905251E+02  0.46981398046E+02  0.10566000000E+00 0. -1.
        996    1    1    2    0    0 -0.13191675139E+02  0.11546203756E+02  0.91163747058E+02  0.10544270431E+03  0.50000000000E+02 0.  0.
<mgrwt>
<rscale>  0 0.52984291E+02</rscale>
<asrwt>0</asrwt>
<pdfrwt beam="1">  1       13 0.10000000E+01 0.52984291E+02</pdfrwt>
<pdfrwt beam="2">  1       22 0.52424116E+00 0.52984291E+02</pdfrwt>
<totfact> 0.64945425E-02</totfact>
</mgrwt>
</event>
<event>
 4    1  0.2505250E+000  0.5431044E+02  0.7957747E-01  0.1423388E+00
         13   -1    0    0    0    0  0.00000000000E+00  0.00000000000E+00  0.99999944174E+02  0.99999999994E+02  0.10566000000E+00 0. -1.
         22   -1    0    0    0    0 -0.00000000000E+00 -0.00000000000E+00 -0.17355680417E+02  0.17355680417E+02  0.00000000000E+00 0.  1.
         13    1    1    2    0    0  0.17393976293E+02  0.12127366932E+02  0.36863726031E+01  0.21522638012E+02  0.10566000000E+00 0.  1.
        996    1    1    2    0    0 -0.17393976293E+02 -0.12127366932E+02  0.78957891154E+02  0.95833042399E+02  0.50000000000E+02 0.  0.
<mgrwt>
<rscale>  0 0.54310436E+02</rscale>
<asrwt>0</asrwt>
<pdfrwt beam="1">  1       13 0.10000000E+01 0.54310436E+02</pdfrwt>
<pdfrwt beam="2">  1       22 0.17355703E+00 0.54310436E+02</pdfrwt>
<totfact> 0.58877752E-01</totfact>
</mgrwt>
</event>
<event>
 4    1  0.2505250E+000  0.5313386E+02  0.7957747E-01  0.1429136E+00
         13   -1    0    0    0    0  0.00000000000E+00  0.00000000000E+00  0.99999944172E+02  0.99999999992E+02  0.10566000000E+00 0.  1.
         22   -1    0    0    0    0 -0.00000000000E+00 -0.00000000000E+00 -0.21020651411E+02  0.21020651411E+02  0.00000000000E+00 0. -1.
         13    1    1    2    0    0 -0.33142472171E+01  0.17669817664E+02 -0.75343867292E+01  0.19493199797E+02  0.10566000000E+00 0. -1.
        996    1    1    2    0    0  0.33142472171E+01 -0.17669817664E+02  0.86513679490E+02  0.10152745161E+03  0.50000000000E+02 0.  0.
<mgrwt>
<rscale>  0 0.53133856E+02</rscale>
<asrwt>0</asrwt>
<pdfrwt beam="1">  1       13 0.10000000E+01 0.53133856E+02</pdfrwt>
<pdfrwt beam="2">  1       22 0.21020673E+00 0.53133856E+02</pdfrwt>
<totfact> 0.41338771E-01</totfact>
</mgrwt>
</event>
<event>
 4    1  0.2505250E+000  0.5769490E+02  0.7957747E-01  0.1407768E+00
         13   -1    0    0    0    0  0.00000000000E+00  0.00000000000E+00  0.99999944180E+02  0.10000000000E+03  0.10566000000E+00 0.  1.
         22   -1    0    0    0    0 -0.00000000000E+00 -0.00000000000E+00 -0.52644990963E+02  0.52644990963E+02  0.00000000000E+00 0. -1.
         13    1    1    2    0    0  0.38252878252E+01 -0.28531888642E+02 -0.39193072674E+02  0.48629308098E+02  0.10566000000E+00 0. -1.
        996    1    1    2    0    0 -0.38252878252E+01  0.28531888642E+02  0.86548025890E+02  0.10401568287E+03  0.50000000000E+02 0.  0.
<mgrwt>
<rscale>  0 0.57694900E+02</rscale>
<asrwt>0</asrwt>
<pdfrwt beam="1">  1       13 0.10000000E+01 0.57694900E+02</pdfrwt>
<pdfrwt beam="2">  1       22 0.52645004E+00 0.57694900E+02</pdfrwt>
<totfact> 0.64349892E-02</totfact>
</mgrwt>
</event>
<event>
 4    1  0.2505250E+000  0.5870677E+02  0.7957747E-01  0.1403340E+00
         13   -1    0    0    0    0  0.00000000000E+00  0.00000000000E+00  0.99999944178E+02  0.99999999998E+02  0.10566000000E+00 0.  1.
         22   -1    0    0    0    0 -0.00000000000E+00 -0.00000000000E+00 -0.67019602553E+02  0.67019602553E+02  0.00000000000E+00 0. -1.
         13    1    1    2    0    0  0.17690049714E+02 -0.25170349275E+02 -0.53960085999E+02  0.62114300983E+02  0.10566000000E+00 0. -1.
        996    1    1    2    0    0 -0.17690049714E+02  0.25170349275E+02  0.86940427624E+02  0.10490530157E+03  0.50000000000E+02 0.  0.
<mgrwt>
<rscale>  0 0.58706766E+02</rscale>
<asrwt>0</asrwt>
<pdfrwt beam="1">  1       13 0.10000000E+01 0.58706766E+02</pdfrwt>
<pdfrwt beam="2">  1       22 0.67019612E+00 0.58706766E+02</pdfrwt>
<totfact> 0.86231904E-02</totfact>
</mgrwt>
</event>
<event>
 4    1  0.2505250E+000  0.8086036E+02  0.7957747E-01  0.1326627E+00
         13   -1    0    0    0    0  0.00000000000E+00  0.00000000000E+00  0.99999944185E+02  0.10000000001E+03  0.10566000000E+00 0.  1.
         22   -1    0    0    0    0 -0.00000000000E+00 -0.00000000000E+00 -0.72857034731E+02  0.72857034731E+02  0.00000000000E+00 0. -1.
         13    1    1    2    0    0  0.46134802983E+02 -0.43703301506E+02 -0.33448647560E+02  0.71813799484E+02  0.10566000000E+00 0. -1.
        996    1    1    2    0    0 -0.46134802983E+02  0.43703301506E+02  0.60591557015E+02  0.10104323525E+03  0.50000000000E+02 0.  0.
<mgrwt>
<rscale>  0 0.80860365E+02</rscale>
<asrwt>0</asrwt>
<pdfrwt beam="1">  1       13 0.10000000E+01 0.80860365E+02</pdfrwt>
<pdfrwt beam="2">  1       22 0.72857042E+00 0.80860365E+02</pdfrwt>
<totfact> 0.59480601E-02</totfact>
</mgrwt>
</event>
<event>
 4    1  0.2505250E+000  0.5658818E+02  0.7957747E-01  0.1412734E+00
         13   -1    0    0    0    0  0.00000000000E+00  0.00000000000E+00  0.99999944165E+02  0.99999999985E+02  0.10566000000E+00 0. -1.
         22   -1    0    0    0    0 -0.00000000000E+00 -0.00000000000E+00 -0.18182321149E+02  0.18182321149E+02  0.00000000000E+00 0.  1.
         13    1    1    2    0    0  0.38027517298E+01  0.26225192477E+02  0.39306882691E+02  0.47405314387E+02  0.10566000000E+00 0.  1.
        996    1    1    2    0    0 -0.38027517298E+01 -0.26225192477E+02  0.42510740325E+02  0.70777006747E+02  0.50000000000E+02 0.  0.
<mgrwt>
<rscale>  0 0.56588176E+02</rscale>
<asrwt>0</asrwt>
<pdfrwt beam="1">  1       13 0.10000000E+01 0.56588176E+02</pdfrwt>
<pdfrwt beam="2">  1       22 0.18182344E+00 0.56588176E+02</pdfrwt>
<totfact> 0.54400863E-01</totfact>
</mgrwt>
</event>
<event>
 4    1  0.2505250E+000  0.5797412E+02  0.7957747E-01  0.1406536E+00
         13   -1    0    0    0    0  0.00000000000E+00  0.00000000000E+00  0.99999944188E+02  0.10000000001E+03  0.10566000000E+00 0. -1.
         22   -1    0    0    0    0 -0.00000000000E+00 -0.00000000000E+00 -0.24688989896E+02  0.24688989896E+02  0.00000000000E+00 0.  1.
         13    1    1    2    0    0  0.23699384603E+02  0.17301391058E+02 -0.38178103976E+00  0.29345457637E+02  0.10566000000E+00 0.  1.
        996    1    1    2    0    0 -0.23699384603E+02 -0.17301391058E+02  0.75692735332E+02  0.95343532267E+02  0.50000000000E+02 0.  0.
<mgrwt>
<rscale>  0 0.57974123E+02</rscale>
<asrwt>0</asrwt>
<pdfrwt beam="1">  1       13 0.10000000E+01 0.57974123E+02</pdfrwt>
<pdfrwt beam="2">  1       22 0.24689011E+00 0.57974123E+02</pdfrwt>
<totfact> 0.30484845E-01</totfact>
</mgrwt>
</event>
<event>
 4    1  0.2505250E+000  0.5294019E+02  0.7957747E-01  0.1430099E+00
         13   -1    0    0    0    0  0.00000000000E+00  0.00000000000E+00  0.99999944172E+02  0.99999999992E+02  0.10566000000E+00 0.  1.
         22   -1    0    0    0    0 -0.00000000000E+00 -0.00000000000E+00 -0.35250501387E+02  0.35250501387E+02  0.00000000000E+00 0.  1.
         13    1    1    2    0    0 -0.50603398527E+01 -0.16645025854E+02 -0.25351933518E+02  0.30747286420E+02  0.10566000000E+00 0. -1.
        996    1    1    2    0    0  0.50603398527E+01  0.16645025854E+02  0.90101376303E+02  0.10450321496E+03  0.50000000000E+02 0.  0.
<mgrwt>
<rscale>  0 0.52940192E+02</rscale>
<asrwt>0</asrwt>
<pdfrwt beam="1">  1       13 0.10000000E+01 0.52940192E+02</pdfrwt>
<pdfrwt beam="2">  1       22 0.35250519E+00 0.52940192E+02</pdfrwt>
<totfact> 0.15535041E-01</totfact>
</mgrwt>
</event>
<event>
 4    1  0.2505250E+000  0.5202167E+02  0.7957747E-01  0.1434733E+00
         13   -1    0    0    0    0  0.00000000000E+00  0.00000000000E+00  0.99999944179E+02  0.10000000000E+03  0.10566000000E+00 0. -1.
         22   -1    0    0    0    0 -0.00000000000E+00 -0.00000000000E+00 -0.12241510955E+02  0.12241510955E+02  0.00000000000E+00 0. -1.
         13    1    1    2    0    0 -0.64617676095E+01 -0.12825739563E+02  0.65162595625E+01  0.15771076016E+02  0.10566000000E+00 0.  1.
        996    1    1    2    0    0  0.64617676095E+01  0.12825739563E+02  0.81242173662E+02  0.96470434939E+02  0.50000000000E+02 0.  0.
<mgrwt>
<rscale>  0 0.52021669E+02</rscale>
<asrwt>0</asrwt>
<pdfrwt beam="1">  1       13 0.10000000E+01 0.52021669E+02</pdfrwt>
<pdfrwt beam="2">  1       22 0.12241535E+00 0.52021669E+02</pdfrwt>
<totfact> 0.10425658E+00</totfact>
</mgrwt>
</event>
<event>
 4    1  0.2505250E+000  0.5146676E+02  0.7957747E-01  0.1437587E+00
         13   -1    0    0    0    0  0.00000000000E+00  0.00000000000E+00  0.99999944179E+02  0.99999999999E+02  0.10566000000E+00 0.  1.
         22   -1    0    0    0    0 -0.00000000000E+00 -0.00000000000E+00 -0.15941512098E+02  0.15941512098E+02  0.00000000000E+00 0.  1.
         13    1    1    2    0    0  0.12119837542E+02  0.13916424446E+01 -0.49166700461E+01  0.13153400288E+02  0.10566000000E+00 0. -1.
        996    1    1    2    0    0 -0.12119837542E+02 -0.13916424446E+01  0.88975102127E+02  0.10278811181E+03  0.50000000000E+02 0.  0.
<mgrwt>
<rscale>  0 0.51466758E+02</rscale>
<asrwt>0</asrwt>
<pdfrwt beam="1">  1       13 0.10000000E+01 0.51466758E+02</pdfrwt>
<pdfrwt beam="2">  1       22 0.15941536E+00 0.51466758E+02</pdfrwt>
<totfact> 0.67875996E-01</totfact>
</mgrwt>
</event>
<event>
 4    1  0.2505250E+000  0.5154382E+02  0.7957747E-01  0.1437188E+00
         13   -1    0    0    0    0  0.00000000000E+00  0.00000000000E+00  0.99999944175E+02  0.99999999995E+02  0.10566000000E+00 0.  1.
         22   -1    0    0    0    0 -0.00000000000E+00 -0.00000000000E+00 -0.17976127281E+02  0.17976127281E+02  0.00000000000E+00 0. -1.
         13    1    1    2    0    0 -0.10067260170E+01  0.12480079063E+02 -0.75570161867E+01  0.14624825755E+02  0.10566000000E+00 0. -1.
        996    1    1    2    0    0  0.10067260170E+01 -0.12480079063E+02  0.89580833080E+02  0.10335130152E+03  0.50000000000E+02 0.  0.
<mgrwt>
<rscale>  0 0.51543825E+02</rscale>
<asrwt>0</asrwt>
<pdfrwt beam="1">  1       13 0.10000000E+01 0.51543825E+02</pdfrwt>
<pdfrwt beam="2">  1       22 0.17976150E+00 0.51543825E+02</pdfrwt>
<totfact> 0.55023560E-01</totfact>
</mgrwt>
</event>
<event>
 4    1  0.2505250E+000  0.6013387E+02  0.7957747E-01  0.1397271E+00
         13   -1    0    0    0    0  0.00000000000E+00  0.00000000000E+00  0.99999944188E+02  0.10000000001E+03  0.10566000000E+00 0. -1.
         22   -1    0    0    0    0 -0.00000000000E+00 -0.00000000000E+00 -0.45862970987E+02  0.45862970987E+02  0.00000000000E+00 0.  1.
         13    1    1    2    0    0 -0.33334847424E+02 -0.22067376652E+01 -0.28327990214E+02  0.43801460450E+02  0.10566000000E+00 0.  1.
        996    1    1    2    0    0  0.33334847424E+02  0.22067376652E+01  0.82464963414E+02  0.10206151055E+03  0.50000000000E+02 0.  0.
<mgrwt>
<rscale>  0 0.60133865E+02</rscale>
<asrwt>0</asrwt>
<pdfrwt beam="1">  1       13 0.10000000E+01 0.60133865E+02</pdfrwt>
<pdfrwt beam="2">  1       22 0.45862986E+00 0.60133865E+02</pdfrwt>
<totfact> 0.92735279E-02</totfact>
</mgrwt>
</event>
<event>
 4    1  0.2505250E+000  0.5101226E+02  0.7957747E-01  0.1439957E+00
         13   -1    0    0    0    0  0.00000000000E+00  0.00000000000E+00  0.99999944180E+02  0.10000000000E+03  0.10566000000E+00 0. -1.
         22   -1    0    0    0    0 -0.00000000000E+00 -0.00000000000E+00 -0.10536464958E+02  0.10536464958E+02  0.00000000000E+00 0.  1.
         13    1    1    2    0    0  0.44710400822E+01  0.90697722214E+01  0.37380050330E+01  0.10781225034E+02  0.10566000000E+00 0.  1.
        996    1    1    2    0    0 -0.44710400822E+01 -0.90697722214E+01  0.85725474188E+02  0.99755239925E+02  0.50000000000E+02 0.  0.
<mgrwt>
<rscale>  0 0.51012263E+02</rscale>
<asrwt>0</asrwt>
<pdfrwt beam="1">  1       13 0.10000000E+01 0.51012263E+02</pdfrwt>
<pdfrwt beam="2">  1       22 0.10536490E+00 0.51012263E+02</pdfrwt>
<totfact> 0.13032344E+00</totfact>
</mgrwt>
</event>
<event>
 4    1  0.2505250E+000  0.5474383E+02  0.7957747E-01  0.1421314E+00
         13   -1    0    0    0    0  0.00000000000E+00  0.00000000000E+00  0.99999944184E+02  0.10000000000E+03  0.10566000000E+00 0. -1.
         22   -1    0    0    0    0 -0.00000000000E+00 -0.00000000000E+00 -0.49580414424E+02  0.49580414424E+02  0.00000000000E+00 0.  1.
         13    1    1    2    0    0 -0.21048277599E+02  0.73387033398E+01 -0.38891396331E+02  0.44826760191E+02  0.10566000000E+00 0.  1.
        996    1    1    2    0    0  0.21048277599E+02 -0.73387033398E+01  0.89310926091E+02  0.10475365424E+03  0.50000000000E+02 0.  0.
<mgrwt>
<rscale>  0 0.54743827E+02</rscale>
<asrwt>0</asrwt>
<pdfrwt beam="1">  1       13 0.10000000E+01 0.54743827E+02</pdfrwt>
<pdfrwt beam="2">  1       22 0.49580429E+00 0.54743827E+02</pdfrwt>
<totfact> 0.75433869E-02</totfact>
</mgrwt>
</event>
<event>
 4    1  0.2505250E+000  0.5275832E+02  0.7957747E-01  0.1431007E+00
         13   -1    0    0    0    0  0.00000000000E+00  0.00000000000E+00  0.99999944180E+02  0.10000000000E+03  0.10566000000E+00 0. -1.
         22   -1    0    0    0    0 -0.00000000000E+00 -0.00000000000E+00 -0.23034430495E+02  0.23034430495E+02  0.00000000000E+00 0.  1.
         13    1    1    2    0    0 -0.16833664311E+02 -0.26097211716E+00 -0.11248169519E+02  0.20247786105E+02  0.10566000000E+00 0.  1.
        996    1    1    2    0    0  0.16833664311E+02  0.26097211716E+00  0.88213683204E+02  0.10278664439E+03  0.50000000000E+02 0.  0.
<mgrwt>
<rscale>  0 0.52758320E+02</rscale>
<asrwt>0</asrwt>
<pdfrwt beam="1">  1       13 0.10000000E+01 0.52758320E+02</pdfrwt>
<pdfrwt beam="2">  1       22 0.23034452E+00 0.52758320E+02</pdfrwt>
<totfact> 0.34648599E-01</totfact>
</mgrwt>
</event>
<event>
 4    1  0.2505250E+000  0.5481126E+02  0.7957747E-01  0.1420994E+00
         13   -1    0    0    0    0  0.00000000000E+00  0.00000000000E+00  0.99999944187E+02  0.10000000001E+03  0.10566000000E+00 0.  1.
         22   -1    0    0    0    0 -0.00000000000E+00 -0.00000000000E+00 -0.61880616339E+02  0.61880616339E+02  0.00000000000E+00 0. -1.
         13    1    1    2    0    0 -0.11206751265E+02  0.19459785601E+02 -0.51864638876E+02  0.56517488084E+02  0.10566000000E+00 0. -1.
        996    1    1    2    0    0  0.11206751265E+02 -0.19459785601E+02  0.89983966724E+02  0.10536312826E+03  0.50000000000E+02 0.  0.
<mgrwt>
<rscale>  0 0.54811263E+02</rscale>
<asrwt>0</asrwt>
<pdfrwt beam="1">  1       13 0.10000000E+01 0.54811263E+02</pdfrwt>
<pdfrwt beam="2">  1       22 0.61880627E+00 0.54811263E+02</pdfrwt>
<totfact> 0.72224378E-02</totfact>
</mgrwt>
</event>
<event>
 4    1  0.2505250E+000  0.6116495E+02  0.7957747E-01  0.1393007E+00
         13   -1    0    0    0    0  0.00000000000E+00  0.00000000000E+00  0.99999944173E+02  0.99999999993E+02  0.10566000000E+00 0. -1.
         22   -1    0    0    0    0 -0.00000000000E+00 -0.00000000000E+00 -0.23316193081E+02  0.23316193081E+02  0.00000000000E+00 0. -1.
         13    1    1    2    0    0  0.31678164272E+02  0.15415758857E+02  0.31675050713E+02  0.47375855818E+02  0.10566000000E+00 0.  1.
        996    1    1    2    0    0 -0.31678164272E+02 -0.15415758857E+02  0.45008700379E+02  0.75940337256E+02  0.50000000000E+02 0.  0.
<mgrwt>
<rscale>  0 0.61164955E+02</rscale>
<asrwt>0</asrwt>
<pdfrwt beam="1">  1       13 0.10000000E+01 0.61164955E+02</pdfrwt>
<pdfrwt beam="2">  1       22 0.23316214E+00 0.61164955E+02</pdfrwt>
<totfact> 0.34265888E-01</totfact>
</mgrwt>
</event>
<event>
 4    1  0.2505250E+000  0.5191918E+02  0.7957747E-01  0.1435257E+00
         13   -1    0    0    0    0  0.00000000000E+00  0.00000000000E+00  0.99999944175E+02  0.99999999995E+02  0.10566000000E+00 0. -1.
         22   -1    0    0    0    0 -0.00000000000E+00 -0.00000000000E+00 -0.12085647519E+02  0.12085647519E+02  0.00000000000E+00 0. -1.
         13    1    1    2    0    0 -0.13693159544E+02 -0.28457862800E+01  0.62605981634E+01  0.15323425572E+02  0.10566000000E+00 0.  1.
        996    1    1    2    0    0  0.13693159544E+02  0.28457862800E+01  0.81653698492E+02  0.96762221943E+02  0.50000000000E+02 0.  0.
<mgrwt>
<rscale>  0 0.51919179E+02</rscale>
<asrwt>0</asrwt>
<pdfrwt beam="1">  1       13 0.10000000E+01 0.51919179E+02</pdfrwt>
<pdfrwt beam="2">  1       22 0.12085672E+00 0.51919179E+02</pdfrwt>
<totfact> 0.10630865E+00</totfact>
</mgrwt>
</event>
<event>
 4    1  0.2505250E+000  0.5292207E+02  0.7957747E-01  0.1430189E+00
         13   -1    0    0    0    0  0.00000000000E+00  0.00000000000E+00  0.99999944177E+02  0.99999999997E+02  0.10566000000E+00 0.  1.
         22   -1    0    0    0    0 -0.00000000000E+00 -0.00000000000E+00 -0.12641132348E+02  0.12641132348E+02  0.00000000000E+00 0. -1.
         13    1    1    2    0    0 -0.10493603031E+02  0.13806875423E+02  0.14591132916E+02  0.22664020766E+02  0.10566000000E+00 0. -1.
        996    1    1    2    0    0  0.10493603031E+02 -0.13806875423E+02  0.72767678913E+02  0.89977111578E+02  0.50000000000E+02 0.  0.
<mgrwt>
<rscale>  0 0.52922070E+02</rscale>
<asrwt>0</asrwt>
<pdfrwt beam="1">  1       13 0.10000000E+01 0.52922070E+02</pdfrwt>
<pdfrwt beam="2">  1       22 0.12641157E+00 0.52922070E+02</pdfrwt>
<totfact> 0.99383343E-01</totfact>
</mgrwt>
</event>
<event>
 4    1  0.2505250E+000  0.5939359E+02  0.7957747E-01  0.1400394E+00
         13   -1    0    0    0    0  0.00000000000E+00  0.00000000000E+00  0.99999944177E+02  0.99999999998E+02  0.10566000000E+00 0. -1.
         22   -1    0    0    0    0 -0.00000000000E+00 -0.00000000000E+00 -0.52666443031E+02  0.52666443031E+02  0.00000000000E+00 0.  1.
         13    1    1    2    0    0  0.29310834065E+02  0.12979748271E+02 -0.37356807092E+02  0.49225410703E+02  0.10566000000E+00 0.  1.
        996    1    1    2    0    0 -0.29310834065E+02 -0.12979748271E+02  0.84690308239E+02  0.10344103232E+03  0.50000000000E+02 0.  0.
<mgrwt>
<rscale>  0 0.59393593E+02</rscale>
<asrwt>0</asrwt>
<pdfrwt beam="1">  1       13 0.10000000E+01 0.59393593E+02</pdfrwt>
<pdfrwt beam="2">  1       22 0.52666456E+00 0.59393593E+02</pdfrwt>
<totfact> 0.64319291E-02</totfact>
</mgrwt>
</event>
<event>
 4    1  0.2505250E+000  0.5279901E+02  0.7957747E-01  0.1430804E+00
         13   -1    0    0    0    0  0.00000000000E+00  0.00000000000E+00  0.99999944181E+02  0.10000000000E+03  0.10566000000E+00 0.  1.
         22   -1    0    0    0    0 -0.00000000000E+00 -0.00000000000E+00 -0.13562198006E+02  0.13562198006E+02  0.00000000000E+00 0.  1.
         13    1    1    2    0    0 -0.42171035166E+01  0.16430213027E+02  0.39213786683E+02  0.42725496980E+02  0.10566000000E+00 0. -1.
        996    1    1    2    0    0  0.42171035166E+01 -0.16430213027E+02  0.47223959492E+02  0.70836701027E+02  0.50000000000E+02 0.  0.
<mgrwt>
<rscale>  0 0.52799014E+02</rscale>
<asrwt>0</asrwt>
<pdfrwt beam="1">  1       13 0.10000000E+01 0.52799014E+02</pdfrwt>
<pdfrwt beam="2">  1       22 0.13562222E+00 0.52799014E+02</pdfrwt>
<totfact> 0.88904906E-01</totfact>
</mgrwt>
</event>
<event>
 4    1  0.2505250E+000  0.5202006E+02  0.7957747E-01  0.1434741E+00
         13   -1    0    0    0    0  0.00000000000E+00  0.00000000000E+00  0.99999944181E+02  0.10000000000E+03  0.10566000000E+00 0.  1.
         22   -1    0    0    0    0 -0.00000000000E+00 -0.00000000000E+00 -0.11979219282E+02  0.11979219282E+02  0.00000000000E+00 0.  1.
         13    1    1    2    0    0  0.12544366830E+02  0.69803297599E+01  0.77173288424E+01  0.16298910124E+02  0.10566000000E+00 0. -1.
        996    1    1    2    0    0 -0.12544366830E+02 -0.69803297599E+01  0.80303396056E+02  0.95680309159E+02  0.50000000000E+02 0.  0.
<mgrwt>
<rscale>  0 0.52020055E+02</rscale>
<asrwt>0</asrwt>
<pdfrwt beam="1">  1       13 0.10000000E+01 0.52020055E+02</pdfrwt>
<pdfrwt beam="2">  1       22 0.11979244E+00 0.52020055E+02</pdfrwt>
<totfact> 0.10778447E+00</totfact>
</mgrwt>
</event>
<event>
 4    1  0.2505250E+000  0.5723052E+02  0.7957747E-01  0.1409836E+00
         13   -1    0    0    0    0  0.00000000000E+00  0.00000000000E+00  0.99999944178E+02  0.99999999998E+02  0.10566000000E+00 0. -1.
         22   -1    0    0    0    0 -0.00000000000E+00 -0.00000000000E+00 -0.21679530980E+02  0.21679530980E+02  0.00000000000E+00 0.  1.
         13    1    1    2    0    0 -0.27428185598E+02  0.47986272955E+01  0.51346928335E+02  0.58411046922E+02  0.10566000000E+00 0.  1.
        996    1    1    2    0    0  0.27428185598E+02 -0.47986272955E+01  0.26973484863E+02  0.63268484056E+02  0.50000000000E+02 0.  0.
<mgrwt>
<rscale>  0 0.57230518E+02</rscale>
<asrwt>0</asrwt>
<pdfrwt beam="1">  1       13 0.10000000E+01 0.57230518E+02</pdfrwt>
<pdfrwt beam="2">  1       22 0.21679553E+00 0.57230518E+02</pdfrwt>
<totfact> 0.39234645E-01</totfact>
</mgrwt>
</event>
<event>
 4    1  0.2505250E+000  0.5169053E+02  0.7957747E-01  0.1436431E+00
         13   -1    0    0    0    0  0.00000000000E+00  0.00000000000E+00  0.99999944178E+02  0.99999999998E+02  0.10566000000E+00 0. -1.
         22   -1    0    0    0    0 -0.00000000000E+00 -0.00000000000E+00 -0.14954739744E+02  0.14954739744E+02  0.00000000000E+00 0. -1.
         13    1    1    2    0    0  0.10452401514E+02 -0.79157013408E+01 -0.24427869994E+01  0.13337518415E+02  0.10566000000E+00 0.  1.
        996    1    1    2    0    0 -0.10452401514E+02  0.79157013408E+01  0.87487991434E+02  0.10161722133E+03  0.50000000000E+02 0.  0.
<mgrwt>
<rscale>  0 0.51690531E+02</rscale>
<asrwt>0</asrwt>
<pdfrwt beam="1">  1       13 0.10000000E+01 0.51690531E+02</pdfrwt>
<pdfrwt beam="2">  1       22 0.14954763E+00 0.51690531E+02</pdfrwt>
<totfact> 0.75623954E-01</totfact>
</mgrwt>
</event>
<event>
 4    1  0.2505250E+000  0.5929111E+02  0.7957747E-01  0.1400831E+00
         13   -1    0    0    0    0  0.00000000000E+00  0.00000000000E+00  0.99999944174E+02  0.99999999994E+02  0.10566000000E+00 0.  1.
         22   -1    0    0    0    0 -0.00000000000E+00 -0.00000000000E+00 -0.53718257057E+02  0.53718257057E+02  0.00000000000E+00 0. -1.
         13    1    1    2    0    0  0.19363009181E+02  0.25308287056E+02 -0.38678648629E+02  0.50114713828E+02  0.10566000000E+00 0. -1.
        996    1    1    2    0    0 -0.19363009181E+02 -0.25308287056E+02  0.84960335746E+02  0.10360354322E+03  0.50000000000E+02 0.  0.
<mgrwt>
<rscale>  0 0.59291108E+02</rscale>
<asrwt>0</asrwt>
<pdfrwt beam="1">  1       13 0.10000000E+01 0.59291108E+02</pdfrwt>
<pdfrwt beam="2">  1       22 0.53718270E+00 0.59291108E+02</pdfrwt>
<totfact> 0.61385816E-02</totfact>
</mgrwt>
</event>
<event>
 4    1  0.2505250E+000  0.5555288E+02  0.7957747E-01  0.1417502E+00
         13   -1    0    0    0    0  0.00000000000E+00  0.00000000000E+00  0.99999944175E+02  0.99999999996E+02  0.10566000000E+00 0.  1.
         22   -1    0    0    0    0 -0.00000000000E+00 -0.00000000000E+00 -0.23694399019E+02  0.23694399019E+02  0.00000000000E+00 0. -1.
         13    1    1    2    0    0  0.10605547936E+01  0.24186716542E+02 -0.54830242098E+01  0.24823310659E+02  0.10566000000E+00 0. -1.
        996    1    1    2    0    0 -0.10605547936E+01 -0.24186716542E+02  0.81788569366E+02  0.98871088355E+02  0.50000000000E+02 0.  0.
<mgrwt>
<rscale>  0 0.55552876E+02</rscale>
<asrwt>0</asrwt>
<pdfrwt beam="1">  1       13 0.10000000E+01 0.55552876E+02</pdfrwt>
<pdfrwt beam="2">  1       22 0.23694420E+00 0.55552876E+02</pdfrwt>
<totfact> 0.32934255E-01</totfact>
</mgrwt>
</event>
<event>
 4    1  0.2505250E+000  0.5112696E+02  0.7957747E-01  0.1439356E+00
         13   -1    0    0    0    0  0.00000000000E+00  0.00000000000E+00  0.99999944177E+02  0.99999999997E+02  0.10566000000E+00 0.  1.
         22   -1    0    0    0    0 -0.00000000000E+00 -0.00000000000E+00 -0.11290122952E+02  0.11290122952E+02  0.00000000000E+00 0.  1.
         13    1    1    2    0    0  0.10383644529E+02  0.24791783886E+01  0.23511862355E+01  0.10931863516E+02  0.10566000000E+00 0. -1.
        996    1    1    2    0    0 -0.10383644529E+02 -0.24791783886E+01  0.86358634989E+02  0.10035825943E+03  0.50000000000E+02 0.  0.
<mgrwt>
<rscale>  0 0.51126964E+02</rscale>
<asrwt>0</asrwt>
<pdfrwt beam="1">  1       13 0.10000000E+01 0.51126964E+02</pdfrwt>
<pdfrwt beam="2">  1       22 0.11290148E+00 0.51126964E+02</pdfrwt>
<totfact> 0.11765989E+00</totfact>
</mgrwt>
</event>
<event>
 4    1  0.2505250E+000  0.5201545E+02  0.7957747E-01  0.1434764E+00
         13   -1    0    0    0    0  0.00000000000E+00  0.00000000000E+00  0.99999944182E+02  0.10000000000E+03  0.10566000000E+00 0. -1.
         22   -1    0    0    0    0 -0.00000000000E+00 -0.00000000000E+00 -0.17661041864E+02  0.17661041864E+02  0.00000000000E+00 0.  1.
         13    1    1    2    0    0 -0.90236380423E+01  0.11143659448E+02 -0.56784262425E+01  0.15422803832E+02  0.10566000000E+00 0.  1.
        996    1    1    2    0    0  0.90236380423E+01 -0.11143659448E+02  0.88017328560E+02  0.10223823803E+03  0.50000000000E+02 0.  0.
<mgrwt>
<rscale>  0 0.52015451E+02</rscale>
<asrwt>0</asrwt>
<pdfrwt beam="1">  1       13 0.10000000E+01 0.52015451E+02</pdfrwt>
<pdfrwt beam="2">  1       22 0.17661065E+00 0.52015451E+02</pdfrwt>
<totfact> 0.56839606E-01</totfact>
</mgrwt>
</event>
<event>
 4    1  0.2505250E+000  0.5363793E+02  0.7957747E-01  0.1426652E+00
         13   -1    0    0    0    0  0.00000000000E+00  0.00000000000E+00  0.99999944175E+02  0.99999999995E+02  0.10566000000E+00 0.  1.
         22   -1    0    0    0    0 -0.00000000000E+00 -0.00000000000E+00 -0.14804499609E+02  0.14804499609E+02  0.00000000000E+00 0. -1.
         13    1    1    2    0    0  0.74071357051E+00  0.19403060920E+02  0.84585716732E+01  0.21179849585E+02  0.10566000000E+00 0. -1.
        996    1    1    2    0    0 -0.74071357051E+00 -0.19403060920E+02  0.76736872893E+02  0.93624650019E+02  0.50000000000E+02 0.  0.
<mgrwt>
<rscale>  0 0.53637929E+02</rscale>
<asrwt>0</asrwt>
<pdfrwt beam="1">  1       13 0.10000000E+01 0.53637929E+02</pdfrwt>
<pdfrwt beam="2">  1       22 0.14804523E+00 0.53637929E+02</pdfrwt>
<totfact> 0.77205955E-01</totfact>
</mgrwt>
</event>
<event>
 4    1  0.2505250E+000  0.5100074E+02  0.7957747E-01  0.1440017E+00
         13   -1    0    0    0    0  0.00000000000E+00  0.00000000000E+00  0.99999944179E+02  0.99999999999E+02  0.10566000000E+00 0. -1.
         22   -1    0    0    0    0 -0.00000000000E+00 -0.00000000000E+00 -0.11228633369E+02  0.11228633369E+02  0.00000000000E+00 0. -1.
         13    1    1    2    0    0  0.94689528541E+01  0.33784958637E+01  0.15248588026E+01  0.10169152416E+02  0.10566000000E+00 0.  1.
        996    1    1    2    0    0 -0.94689528541E+01 -0.33784958637E+01  0.87246452007E+02  0.10105948095E+03  0.50000000000E+02 0.  0.
<mgrwt>
<rscale>  0 0.51000738E+02</rscale>
<asrwt>0</asrwt>
<pdfrwt beam="1">  1       13 0.10000000E+01 0.51000738E+02</pdfrwt>
<pdfrwt beam="2">  1       22 0.11228658E+00 0.51000738E+02</pdfrwt>
<totfact> 0.11859124E+00</totfact>
</mgrwt>
</event>
<event>
 4    1  0.2505250E+000  0.5932485E+02  0.7957747E-01  0.1400687E+00
         13   -1    0    0    0    0  0.00000000000E+00  0.00000000000E+00  0.99999944180E+02  0.10000000000E+03  0.10566000000E+00 0. -1.
         22   -1    0    0    0    0 -0.00000000000E+00 -0.00000000000E+00 -0.36110659232E+02  0.36110659232E+02  0.00000000000E+00 0.  1.
         13    1    1    2    0    0 -0.29403278737E+02 -0.12445284353E+02 -0.16706192732E+02  0.36035342967E+02  0.10566000000E+00 0.  1.
        996    1    1    2    0    0  0.29403278737E+02  0.12445284353E+02  0.80595477680E+02  0.10007531627E+03  0.50000000000E+02 0.  0.
<mgrwt>
<rscale>  0 0.59324851E+02</rscale>
<asrwt>0</asrwt>
<pdfrwt beam="1">  1       13 0.10000000E+01 0.59324851E+02</pdfrwt>
<pdfrwt beam="2">  1       22 0.36110677E+00 0.59324851E+02</pdfrwt>
<totfact> 0.14979967E-01</totfact>
</mgrwt>
</event>
<event>
 4    1  0.2505250E+000  0.6240093E+02  0.7957747E-01  0.1388024E+00
         13   -1    0    0    0    0  0.00000000000E+00  0.00000000000E+00  0.99999944177E+02  0.99999999997E+02  0.10566000000E+00 0.  1.
         22   -1    0    0    0    0 -0.00000000000E+00 -0.00000000000E+00 -0.26770593943E+02  0.26770593943E+02  0.00000000000E+00 0. -1.
         13    1    1    2    0    0 -0.36153734442E+02 -0.93157671659E+01  0.11671900845E+02  0.39116754280E+02  0.10566000000E+00 0. -1.
        996    1    1    2    0    0  0.36153734442E+02  0.93157671659E+01  0.61557449389E+02  0.87653839661E+02  0.50000000000E+02 0.  0.
<mgrwt>
<rscale>  0 0.62400930E+02</rscale>
<asrwt>0</asrwt>
<pdfrwt beam="1">  1       13 0.10000000E+01 0.62400930E+02</pdfrwt>
<pdfrwt beam="2">  1       22 0.26770614E+00 0.62400930E+02</pdfrwt>
<totfact> 0.26132279E-01</totfact>
</mgrwt>
</event>
<event>
 4    1  0.2505250E+000  0.5451033E+02  0.7957747E-01  0.1422429E+00
         13   -1    0    0    0    0  0.00000000000E+00  0.00000000000E+00  0.99999944186E+02  0.10000000001E+03  0.10566000000E+00 0.  1.
         22   -1    0    0    0    0 -0.00000000000E+00 -0.00000000000E+00 -0.26705868969E+02  0.26705868969E+02  0.00000000000E+00 0. -1.
         13    1    1    2    0    0  0.17988003174E+02  0.12157635850E+02 -0.12505010315E+02  0.25055195363E+02  0.10566000000E+00 0. -1.
        996    1    1    2    0    0 -0.17988003174E+02 -0.12157635850E+02  0.85799085532E+02  0.10165067361E+03  0.50000000000E+02 0.  0.
<mgrwt>
<rscale>  0 0.54510333E+02</rscale>
<asrwt>0</asrwt>
<pdfrwt beam="1">  1       13 0.10000000E+01 0.54510333E+02</pdfrwt>
<pdfrwt beam="2">  1       22 0.26705889E+00 0.54510333E+02</pdfrwt>
<totfact> 0.25986149E-01</totfact>
</mgrwt>
</event>
<event>
 4    1  0.2505250E+000  0.5303811E+02  0.7957747E-01  0.1429611E+00
         13   -1    0    0    0    0  0.00000000000E+00  0.00000000000E+00  0.99999944179E+02  0.99999999999E+02  0.10566000000E+00 0.  1.
         22   -1    0    0    0    0 -0.00000000000E+00 -0.00000000000E+00 -0.37367182832E+02  0.37367182832E+02  0.00000000000E+00 0. -1.
         13    1    1    2    0    0 -0.10671234393E+02  0.14112603612E+02 -0.27551141107E+02  0.32743203333E+02  0.10566000000E+00 0. -1.
        996    1    1    2    0    0  0.10671234393E+02 -0.14112603612E+02  0.90183902454E+02  0.10462397950E+03  0.50000000000E+02 0.  0.
<mgrwt>
<rscale>  0 0.53038107E+02</rscale>
<asrwt>0</asrwt>
<pdfrwt beam="1">  1       13 0.10000000E+01 0.53038107E+02</pdfrwt>
<pdfrwt beam="2">  1       22 0.37367200E+00 0.53038107E+02</pdfrwt>
<totfact> 0.14022278E-01</totfact>
</mgrwt>
</event>
<event>
 4    1  0.2505250E+000  0.5449349E+02  0.7957747E-01  0.1422510E+00
         13   -1    0    0    0    0  0.00000000000E+00  0.00000000000E+00  0.99999944177E+02  0.99999999997E+02  0.10566000000E+00 0. -1.
         22   -1    0    0    0    0 -0.00000000000E+00 -0.00000000000E+00 -0.17373428783E+02  0.17373428783E+02  0.00000000000E+00 0.  1.
         13    1    1    2    0    0 -0.24369943319E+01 -0.21531400795E+02  0.45192388891E+01  0.22135375437E+02  0.10566000000E+00 0.  1.
        996    1    1    2    0    0  0.24369943319E+01  0.21531400795E+02  0.78107276505E+02  0.95238053343E+02  0.50000000000E+02 0.  0.
<mgrwt>
<rscale>  0 0.54493487E+02</rscale>
<asrwt>0</asrwt>
<pdfrwt beam="1">  1       13 0.10000000E+01 0.54493487E+02</pdfrwt>
<pdfrwt beam="2">  1       22 0.17373452E+00 0.54493487E+02</pdfrwt>
<totfact> 0.58791034E-01</totfact>
</mgrwt>
</event>
<event>
 4    1  0.2505250E+000  0.5207071E+02  0.7957747E-01  0.1434482E+00
         13   -1    0    0    0    0  0.00000000000E+00  0.00000000000E+00  0.99999944181E+02  0.10000000000E+03  0.10566000000E+00 0.  1.
         22   -1    0    0    0    0 -0.00000000000E+00 -0.00000000000E+00 -0.27966295643E+02  0.27966295643E+02  0.00000000000E+00 0. -1.
         13    1    1    2    0    0 -0.71526964010E+01  0.12656908061E+02 -0.18498330316E+02  0.23527808568E+02  0.10566000000E+00 0. -1.
        996    1    1    2    0    0  0.71526964010E+01 -0.12656908061E+02  0.90531978855E+02  0.10443848708E+03  0.50000000000E+02 0.  0.
<mgrwt>
<rscale>  0 0.52070706E+02</rscale>
<asrwt>0</asrwt>
<pdfrwt beam="1">  1       13 0.10000000E+01 0.52070706E+02</pdfrwt>
<pdfrwt beam="2">  1       22 0.27966316E+00 0.52070706E+02</pdfrwt>
<totfact> 0.23668311E-01</totfact>
</mgrwt>
</event>
<event>
 4    1  0.2505250E+000  0.5225839E+02  0.7957747E-01  0.1433528E+00
         13   -1    0    0    0    0  0.00000000000E+00  0.00000000000E+00  0.99999944183E+02  0.10000000000E+03  0.10566000000E+00 0. -1.
         22   -1    0    0    0    0 -0.00000000000E+00 -0.00000000000E+00 -0.13915559099E+02  0.13915559099E+02  0.00000000000E+00 0. -1.
         13    1    1    2    0    0 -0.13861710727E+02 -0.62283316456E+01  0.25909149867E+01  0.15416327185E+02  0.10566000000E+00 0.  1.
        996    1    1    2    0    0  0.13861710727E+02  0.62283316456E+01  0.83493470097E+02  0.98499231917E+02  0.50000000000E+02 0.  0.
<mgrwt>
<rscale>  0 0.52258388E+02</rscale>
<asrwt>0</asrwt>
<pdfrwt beam="1">  1       13 0.10000000E+01 0.52258388E+02</pdfrwt>
<pdfrwt beam="2">  1       22 0.13915583E+00 0.52258388E+02</pdfrwt>
<totfact> 0.85203724E-01</totfact>
</mgrwt>
</event>
<event>
 4    1  0.2505250E+000  0.5253438E+02  0.7957747E-01  0.1432132E+00
         13   -1    0    0    0    0  0.00000000000E+00  0.00000000000E+00  0.99999944177E+02  0.99999999997E+02  0.10566000000E+00 0.  1.
         22   -1    0    0    0    0 -0.00000000000E+00 -0.00000000000E+00 -0.13598391741E+02  0.13598391741E+02  0.00000000000E+00 0.  1.
         13    1    1    2    0    0  0.14803200132E+02 -0.63817005406E+01  0.53016589145E+01  0.16969961320E+02  0.10566000000E+00 0. -1.
        996    1    1    2    0    0 -0.14803200132E+02  0.63817005406E+01  0.81099893521E+02  0.96628430418E+02  0.50000000000E+02 0.  0.
<mgrwt>
<rscale>  0 0.52534378E+02</rscale>
<asrwt>0</asrwt>
<pdfrwt beam="1">  1       13 0.10000000E+01 0.52534378E+02</pdfrwt>
<pdfrwt beam="2">  1       22 0.13598416E+00 0.52534378E+02</pdfrwt>
<totfact> 0.88477027E-01</totfact>
</mgrwt>
</event>
<event>
 4    1  0.2505250E+000  0.5212740E+02  0.7957747E-01  0.1434193E+00
         13   -1    0    0    0    0  0.00000000000E+00  0.00000000000E+00  0.99999944177E+02  0.99999999998E+02  0.10566000000E+00 0. -1.
         22   -1    0    0    0    0 -0.00000000000E+00 -0.00000000000E+00 -0.11327579714E+02  0.11327579714E+02  0.00000000000E+00 0. -1.
         13    1    1    2    0    0 -0.14545406615E+02 -0.23867879114E+01  0.14558307174E+02  0.20717651458E+02  0.10566000000E+00 0.  1.
        996    1    1    2    0    0  0.14545406615E+02  0.23867879114E+01  0.74114057290E+02  0.90609928253E+02  0.50000000000E+02 0.  0.
<mgrwt>
<rscale>  0 0.52127398E+02</rscale>
<asrwt>0</asrwt>
<pdfrwt beam="1">  1       13 0.10000000E+01 0.52127398E+02</pdfrwt>
<pdfrwt beam="2">  1       22 0.11327604E+00 0.52127398E+02</pdfrwt>
<totfact> 0.11734687E+00</totfact>
</mgrwt>
</event>
<event>
 4    1  0.2505250E+000  0.5323561E+02  0.7957747E-01  0.1428632E+00
         13   -1    0    0    0    0  0.00000000000E+00  0.00000000000E+00  0.99999944180E+02  0.10000000000E+03  0.10566000000E+00 0. -1.
         22   -1    0    0    0    0 -0.00000000000E+00 -0.00000000000E+00 -0.12811001714E+02  0.12811001714E+02  0.00000000000E+00 0. -1.
         13    1    1    2    0    0  0.18062432749E+02  0.27889865047E+01  0.20110430269E+02  0.27174813563E+02  0.10566000000E+00 0.  1.
        996    1    1    2    0    0 -0.18062432749E+02 -0.27889865047E+01  0.67078512197E+02  0.85636188151E+02  0.50000000000E+02 0.  0.
<mgrwt>
<rscale>  0 0.53235608E+02</rscale>
<asrwt>0</asrwt>
<pdfrwt beam="1">  1       13 0.10000000E+01 0.53235608E+02</pdfrwt>
<pdfrwt beam="2">  1       22 0.12811026E+00 0.53235608E+02</pdfrwt>
<totfact> 0.97394741E-01</totfact>
</mgrwt>
</event>
<event>
 4    1  0.2505250E+000  0.5372822E+02  0.7957747E-01  0.1426211E+00
         13   -1    0    0    0    0  0.00000000000E+00  0.00000000000E+00  0.99999944177E+02  0.99999999997E+02  0.10566000000E+00 0. -1.
         22   -1    0    0    0    0 -0.00000000000E+00 -0.00000000000E+00 -0.18140755170E+02  0.18140755170E+02  0.00000000000E+00 0. -1.
         13    1    1    2    0    0  0.14023344259E+02 -0.13786513003E+02 -0.65446225902E+00  0.19676422690E+02  0.10566000000E+00 0.  1.
        996    1    1    2    0    0 -0.14023344259E+02  0.13786513003E+02  0.82513651266E+02  0.98464332478E+02  0.50000000000E+02 0.  0.
<mgrwt>
<rscale>  0 0.53728225E+02</rscale>
<asrwt>0</asrwt>
<pdfrwt beam="1">  1       13 0.10000000E+01 0.53728225E+02</pdfrwt>
<pdfrwt beam="2">  1       22 0.18140778E+00 0.53728225E+02</pdfrwt>
<totfact> 0.54350720E-01</totfact>
</mgrwt>
</event>
<event>
 4    1  0.2505250E+000  0.5110695E+02  0.7957747E-01  0.1439461E+00
         13   -1    0    0    0    0  0.00000000000E+00  0.00000000000E+00  0.99999944176E+02  0.99999999996E+02  0.10566000000E+00 0. -1.
         22   -1    0    0    0    0 -0.00000000000E+00 -0.00000000000E+00 -0.12547478903E+02  0.12547478903E+02  0.00000000000E+00 0. -1.
         13    1    1    2    0    0 -0.10541497521E+02  0.89297249475E+00 -0.75210857744E+00  0.10606479209E+02  0.10566000000E+00 0.  1.
        996    1    1    2    0    0  0.10541497521E+02 -0.89297249475E+00  0.88204573850E+02  0.10194099969E+03  0.50000000000E+02 0.  0.
<mgrwt>
<rscale>  0 0.51106952E+02</rscale>
<asrwt>0</asrwt>
<pdfrwt beam="1">  1       13 0.10000000E+01 0.51106952E+02</pdfrwt>
<pdfrwt beam="2">  1       22 0.12547503E+00 0.51106952E+02</pdfrwt>
<totfact> 0.10014196E+00</totfact>
</mgrwt>
</event>
<event>
 4    1  0.2505250E+000  0.5115381E+02  0.7957747E-01  0.1439216E+00
         13   -1    0    0    0    0  0.00000000000E+00  0.00000000000E+00  0.99999944178E+02  0.99999999998E+02  0.10566000000E+00 0.  1.
         22   -1    0    0    0    0 -0.00000000000E+00 -0.00000000000E+00 -0.14192627183E+02  0.14192627183E+02  0.00000000000E+00 0.  1.
         13    1    1    2    0    0  0.10464759297E+02 -0.26835791140E+01 -0.34284206704E+01  0.11334814349E+02  0.10566000000E+00 0. -1.
        996    1    1    2    0    0 -0.10464759297E+02  0.26835791140E+01  0.89235737665E+02  0.10285781283E+03  0.50000000000E+02 0.  0.
<mgrwt>
<rscale>  0 0.51153815E+02</rscale>
<asrwt>0</asrwt>
<pdfrwt beam="1">  1       13 0.10000000E+01 0.51153815E+02</pdfrwt>
<pdfrwt beam="2">  1       22 0.14192651E+00 0.51153815E+02</pdfrwt>
<totfact> 0.82328716E-01</totfact>
</mgrwt>
</event>
<event>
 4    1  0.2505250E+000  0.5138007E+02  0.7957747E-01  0.1438037E+00
         13   -1    0    0    0    0  0.00000000000E+00  0.00000000000E+00  0.99999944179E+02  0.99999999999E+02  0.10566000000E+00 0.  1.
         22   -1    0    0    0    0 -0.00000000000E+00 -0.00000000000E+00 -0.15584898898E+02  0.15584898898E+02  0.00000000000E+00 0.  1.
         13    1    1    2    0    0  0.11438015629E+02  0.30139258483E+01  0.55254667735E+02  0.56506649353E+02  0.10566000000E+00 0. -1.
        996    1    1    2    0    0 -0.11438015629E+02 -0.30139258483E+01  0.29160377546E+02  0.59078249544E+02  0.50000000000E+02 0.  0.
<mgrwt>
<rscale>  0 0.51380073E+02</rscale>
<asrwt>0</asrwt>
<pdfrwt beam="1">  1       13 0.10000000E+01 0.51380073E+02</pdfrwt>
<pdfrwt beam="2">  1       22 0.15584922E+00 0.51380073E+02</pdfrwt>
<totfact> 0.70522992E-01</totfact>
</mgrwt>
</event>
<event>
 4    1  0.2505250E+000  0.5135691E+02  0.7957747E-01  0.1438157E+00
         13   -1    0    0    0    0  0.00000000000E+00  0.00000000000E+00  0.99999944181E+02  0.10000000000E+03  0.10566000000E+00 0.  1.
         22   -1    0    0    0    0 -0.00000000000E+00 -0.00000000000E+00 -0.54968132542E+02  0.54968132542E+02  0.00000000000E+00 0. -1.
         13    1    1    2    0    0 -0.12331583247E+00 -0.11726774504E+02 -0.47615549912E+02  0.49038599129E+02  0.10566000000E+00 0. -1.
        996    1    1    2    0    0  0.12331583247E+00  0.11726774504E+02  0.92647361551E+02  0.10592953341E+03  0.50000000000E+02 0.  0.
<mgrwt>
<rscale>  0 0.51356912E+02</rscale>
<asrwt>0</asrwt>
<pdfrwt beam="1">  1       13 0.10000000E+01 0.51356912E+02</pdfrwt>
<pdfrwt beam="2">  1       22 0.54968145E+00 0.51356912E+02</pdfrwt>
<totfact> 0.59236265E-02</totfact>
</mgrwt>
</event>
<event>
 4    1  0.2505250E+000  0.5198275E+02  0.7957747E-01  0.1434931E+00
         13   -1    0    0    0    0  0.00000000000E+00  0.00000000000E+00  0.99999944181E+02  0.10000000000E+03  0.10566000000E+00 0. -1.
         22   -1    0    0    0    0 -0.00000000000E+00 -0.00000000000E+00 -0.13698744504E+02  0.13698744504E+02  0.00000000000E+00 0. -1.
         13    1    1    2    0    0 -0.13458588792E+02 -0.45904834837E+01  0.15890351530E+01  0.14308820624E+02  0.10566000000E+00 0.  1.
        996    1    1    2    0    0  0.13458588792E+02  0.45904834837E+01  0.84712164524E+02  0.99389923882E+02  0.50000000000E+02 0.  0.
<mgrwt>
<rscale>  0 0.51982749E+02</rscale>
<asrwt>0</asrwt>
<pdfrwt beam="1">  1       13 0.10000000E+01 0.51982749E+02</pdfrwt>
<pdfrwt beam="2">  1       22 0.13698769E+00 0.51982749E+02</pdfrwt>
<totfact> 0.87337433E-01</totfact>
</mgrwt>
</event>
<event>
 4    1  0.2505250E+000  0.5129330E+02  0.7957747E-01  0.1438488E+00
         13   -1    0    0    0    0  0.00000000000E+00  0.00000000000E+00  0.99999944175E+02  0.99999999996E+02  0.10566000000E+00 0.  1.
         22   -1    0    0    0    0 -0.00000000000E+00 -0.00000000000E+00 -0.12665182703E+02  0.12665182703E+02  0.00000000000E+00 0. -1.
         13    1    1    2    0    0  0.10894292004E+02  0.35095754406E+01  0.75125383257E-01  0.11446376104E+02  0.10566000000E+00 0. -1.
        996    1    1    2    0    0 -0.10894292004E+02 -0.35095754406E+01  0.87259636089E+02  0.10121880659E+03  0.50000000000E+02 0.  0.
<mgrwt>
<rscale>  0 0.51293301E+02</rscale>
<asrwt>0</asrwt>
<pdfrwt beam="1">  1       13 0.10000000E+01 0.51293301E+02</pdfrwt>
<pdfrwt beam="2">  1       22 0.12665207E+00 0.51293301E+02</pdfrwt>
<totfact> 0.98737158E-01</totfact>
</mgrwt>
</event>
<event>
 4    1  0.2505250E+000  0.5099492E+02  0.7957747E-01  0.1440048E+00
         13   -1    0    0    0    0  0.00000000000E+00  0.00000000000E+00  0.99999944180E+02  0.10000000000E+03  0.10566000000E+00 0.  1.
         22   -1    0    0    0    0 -0.00000000000E+00 -0.00000000000E+00 -0.99744930866E+01  0.99744930866E+01  0.00000000000E+00 0.  1.
         13    1    1    2    0    0  0.52676490934E+00 -0.10010194206E+02  0.59931709970E+01  0.11679500501E+02  0.10566000000E+00 0. -1.
        996    1    1    2    0    0 -0.52676490934E+00  0.10010194206E+02  0.84032280097E+02  0.98294992586E+02  0.50000000000E+02 0.  0.
<mgrwt>
<rscale>  0 0.50994916E+02</rscale>
<asrwt>0</asrwt>
<pdfrwt beam="1">  1       13 0.10000000E+01 0.50994916E+02</pdfrwt>
<pdfrwt beam="2">  1       22 0.99745182E-01 0.50994916E+02</pdfrwt>
<totfact> 0.14115648E+00</totfact>
</mgrwt>
</event>
<event>
 4    1  0.2505250E+000  0.5858894E+02  0.7957747E-01  0.1403851E+00
         13   -1    0    0    0    0  0.00000000000E+00  0.00000000000E+00  0.99999944185E+02  0.10000000001E+03  0.10566000000E+00 0. -1.
         22   -1    0    0    0    0 -0.00000000000E+00 -0.00000000000E+00 -0.19980965583E+02  0.19980965583E+02  0.00000000000E+00 0. -1.
         13    1    1    2    0    0  0.30465103547E+02 -0.21310445835E+01  0.31930799038E+02  0.44184284269E+02  0.10566000000E+00 0.  1.
        996    1    1    2    0    0 -0.30465103547E+02  0.21310445835E+01  0.48088179564E+02  0.75796681319E+02  0.50000000000E+02 0.  0.
<mgrwt>
<rscale>  0 0.58588940E+02</rscale>
<asrwt>0</asrwt>
<pdfrwt beam="1">  1       13 0.10000000E+01 0.58588940E+02</pdfrwt>
<pdfrwt beam="2">  1       22 0.19980988E+00 0.58588940E+02</pdfrwt>
<totfact> 0.45894526E-01</totfact>
</mgrwt>
</event>
<event>
 4    1  0.2505250E+000  0.5138338E+02  0.7957747E-01  0.1438020E+00
         13   -1    0    0    0    0  0.00000000000E+00  0.00000000000E+00  0.99999944175E+02  0.99999999995E+02  0.10566000000E+00 0.  1.
         22   -1    0    0    0    0 -0.00000000000E+00 -0.00000000000E+00 -0.39972814582E+02  0.39972814582E+02  0.00000000000E+00 0. -1.
         13    1    1    2    0    0 -0.71041425416E+01  0.94753988281E+01 -0.32249003934E+02  0.34354933313E+02  0.10566000000E+00 0. -1.
        996    1    1    2    0    0  0.71041425416E+01 -0.94753988281E+01  0.92276133526E+02  0.10561788126E+03  0.50000000000E+02 0.  0.
<mgrwt>
<rscale>  0 0.51383383E+02</rscale>
<asrwt>0</asrwt>
<pdfrwt beam="1">  1       13 0.10000000E+01 0.51383383E+02</pdfrwt>
<pdfrwt beam="2">  1       22 0.39972831E+00 0.51383383E+02</pdfrwt>
<totfact> 0.12377574E-01</totfact>
</mgrwt>
</event>
<event>
 4    1  0.2505250E+000  0.5217092E+02  0.7957747E-01  0.1433972E+00
         13   -1    0    0    0    0  0.00000000000E+00  0.00000000000E+00  0.99999944181E+02  0.10000000000E+03  0.10566000000E+00 0.  1.
         22   -1    0    0    0    0 -0.00000000000E+00 -0.00000000000E+00 -0.14656067492E+02  0.14656067492E+02  0.00000000000E+00 0.  1.
         13    1    1    2    0    0  0.14105199947E+01 -0.14826183074E+02  0.31385711452E+00  0.14896809777E+02  0.10566000000E+00 0. -1.
        996    1    1    2    0    0 -0.14105199947E+01  0.14826183074E+02  0.85030019575E+02  0.99759257716E+02  0.50000000000E+02 0.  0.
<mgrwt>
<rscale>  0 0.52170924E+02</rscale>
<asrwt>0</asrwt>
<pdfrwt beam="1">  1       13 0.10000000E+01 0.52170924E+02</pdfrwt>
<pdfrwt beam="2">  1       22 0.14656091E+00 0.52170924E+02</pdfrwt>
<totfact> 0.78270997E-01</totfact>
</mgrwt>
</event>
<event>
 4    1  0.2505250E+000  0.5187806E+02  0.7957747E-01  0.1435467E+00
         13   -1    0    0    0    0  0.00000000000E+00  0.00000000000E+00  0.99999944180E+02  0.10000000000E+03  0.10566000000E+00 0. -1.
         22   -1    0    0    0    0 -0.00000000000E+00 -0.00000000000E+00 -0.11648805430E+02  0.11648805430E+02  0.00000000000E+00 0. -1.
         13    1    1    2    0    0 -0.10195445106E+02  0.93480349743E+01  0.79237483155E+01  0.15941449438E+02  0.10566000000E+00 0.  1.
        996    1    1    2    0    0  0.10195445106E+02 -0.93480349743E+01  0.80427390435E+02  0.95707355992E+02  0.50000000000E+02 0.  0.
<mgrwt>
<rscale>  0 0.51878058E+02</rscale>
<asrwt>0</asrwt>
<pdfrwt beam="1">  1       13 0.10000000E+01 0.51878058E+02</pdfrwt>
<pdfrwt beam="2">  1       22 0.11648830E+00 0.51878058E+02</pdfrwt>
<totfact> 0.11243775E+00</totfact>
</mgrwt>
</event>
<event>
 4    1  0.2505250E+000  0.5330020E+02  0.7957747E-01  0.1428313E+00
         13   -1    0    0    0    0  0.00000000000E+00  0.00000000000E+00  0.99999944180E+02  0.10000000000E+03  0.10566000000E+00 0.  1.
         22   -1    0    0    0    0 -0.00000000000E+00 -0.00000000000E+00 -0.13744843500E+02  0.13744843500E+02  0.00000000000E+00 0. -1.
         13    1    1    2    0    0  0.17473443681E+02 -0.59657009172E+01  0.10888915867E+02  0.21435728920E+02  0.10566000000E+00 0. -1.
        996    1    1    2    0    0 -0.17473443681E+02  0.59657009172E+01  0.75366184812E+02  0.92309114581E+02  0.50000000000E+02 0.  0.
<mgrwt>
<rscale>  0 0.53300195E+02</rscale>
<asrwt>0</asrwt>
<pdfrwt beam="1">  1       13 0.10000000E+01 0.53300195E+02</pdfrwt>
<pdfrwt beam="2">  1       22 0.13744868E+00 0.53300195E+02</pdfrwt>
<totfact> 0.87106403E-01</totfact>
</mgrwt>
</event>
<event>
 4    1  0.2505250E+000  0.5252731E+02  0.7957747E-01  0.1432168E+00
         13   -1    0    0    0    0  0.00000000000E+00  0.00000000000E+00  0.99999944176E+02  0.99999999996E+02  0.10566000000E+00 0.  1.
         22   -1    0    0    0    0 -0.00000000000E+00 -0.00000000000E+00 -0.16714253867E+02  0.16714253867E+02  0.00000000000E+00 0.  1.
         13    1    1    2    0    0  0.25786301401E-01  0.16097132502E+02 -0.23341857986E+01  0.16265851564E+02  0.10566000000E+00 0. -1.
        996    1    1    2    0    0 -0.25786301401E-01 -0.16097132502E+02  0.85619876108E+02  0.10044840230E+03  0.50000000000E+02 0.  0.
<mgrwt>
<rscale>  0 0.52527310E+02</rscale>
<asrwt>0</asrwt>
<pdfrwt beam="1">  1       13 0.10000000E+01 0.52527310E+02</pdfrwt>
<pdfrwt beam="2">  1       22 0.16714277E+00 0.52527310E+02</pdfrwt>
<totfact> 0.62689187E-01</totfact>
</mgrwt>
</event>
<event>
 4    1  0.2505250E+000  0.5380108E+02  0.7957747E-01  0.1425855E+00
         13   -1    0    0    0    0  0.00000000000E+00  0.00000000000E+00  0.99999944178E+02  0.99999999998E+02  0.10566000000E+00 0.  1.
         22   -1    0    0    0    0 -0.00000000000E+00 -0.00000000000E+00 -0.13568965288E+02  0.13568965288E+02  0.00000000000E+00 0.  1.
         13    1    1    2    0    0 -0.10697992719E+02 -0.16736448644E+02  0.22594160189E+02  0.30084264992E+02  0.10566000000E+00 0. -1.
        996    1    1    2    0    0  0.10697992719E+02  0.16736448644E+02  0.63836818700E+02  0.83484700294E+02  0.50000000000E+02 0.  0.
<mgrwt>
<rscale>  0 0.53801076E+02</rscale>
<asrwt>0</asrwt>
<pdfrwt beam="1">  1       13 0.10000000E+01 0.53801076E+02</pdfrwt>
<pdfrwt beam="2">  1       22 0.13568989E+00 0.53801076E+02</pdfrwt>
<totfact> 0.89018590E-01</totfact>
</mgrwt>
</event>
<event>
 4    1  0.2505250E+000  0.5184065E+02  0.7957747E-01  0.1435659E+00
         13   -1    0    0    0    0  0.00000000000E+00  0.00000000000E+00  0.99999944172E+02  0.99999999992E+02  0.10566000000E+00 0. -1.
         22   -1    0    0    0    0 -0.00000000000E+00 -0.00000000000E+00 -0.21892311940E+02  0.21892311940E+02  0.00000000000E+00 0.  1.
         13    1    1    2    0    0 -0.13607123888E+02  0.15162162629E+01  0.67631788078E+02  0.69003787251E+02  0.10566000000E+00 0.  1.
        996    1    1    2    0    0  0.13607123888E+02 -0.15162162629E+01  0.10475844153E+02  0.52888524681E+02  0.50000000000E+02 0.  0.
<mgrwt>
<rscale>  0 0.51840647E+02</rscale>
<asrwt>0</asrwt>
<pdfrwt beam="1">  1       13 0.10000000E+01 0.51840647E+02</pdfrwt>
<pdfrwt beam="2">  1       22 0.21892334E+00 0.51840647E+02</pdfrwt>
<totfact> 0.38168840E-01</totfact>
</mgrwt>
</event>
<event>
 4    1  0.2505250E+000  0.5161848E+02  0.7957747E-01  0.1436802E+00
         13   -1    0    0    0    0  0.00000000000E+00  0.00000000000E+00  0.99999944171E+02  0.99999999991E+02  0.10566000000E+00 0.  1.
         22   -1    0    0    0    0 -0.00000000000E+00 -0.00000000000E+00 -0.44551474084E+02  0.44551474084E+02  0.00000000000E+00 0. -1.
         13    1    1    2    0    0  0.26242591191E+01 -0.12553131530E+02 -0.36729773128E+02  0.38904437346E+02  0.10566000000E+00 0. -1.
        996    1    1    2    0    0 -0.26242591191E+01  0.12553131530E+02  0.92178243216E+02  0.10564703673E+03  0.50000000000E+02 0.  0.
<mgrwt>
<rscale>  0 0.51618484E+02</rscale>
<asrwt>0</asrwt>
<pdfrwt beam="1">  1       13 0.10000000E+01 0.51618484E+02</pdfrwt>
<pdfrwt beam="2">  1       22 0.44551490E+00 0.51618484E+02</pdfrwt>
<totfact> 0.98864240E-02</totfact>
</mgrwt>
</event>
<event>
 4    1  0.2505250E+000  0.5179673E+02  0.7957747E-01  0.1435885E+00
         13   -1    0    0    0    0  0.00000000000E+00  0.00000000000E+00  0.99999944175E+02  0.99999999995E+02  0.10566000000E+00 0. -1.
         22   -1    0    0    0    0 -0.00000000000E+00 -0.00000000000E+00 -0.17435455982E+02  0.17435455982E+02  0.00000000000E+00 0. -1.
         13    1    1    2    0    0  0.13477428071E+02  0.11226615340E+01 -0.60320448138E+01  0.14808719222E+02  0.10566000000E+00 0.  1.
        996    1    1    2    0    0 -0.13477428071E+02 -0.11226615340E+01  0.88596533007E+02  0.10262673676E+03  0.50000000000E+02 0.  0.
<mgrwt>
<rscale>  0 0.51796732E+02</rscale>
<asrwt>0</asrwt>
<pdfrwt beam="1">  1       13 0.10000000E+01 0.51796732E+02</pdfrwt>
<pdfrwt beam="2">  1       22 0.17435479E+00 0.51796732E+02</pdfrwt>
<totfact> 0.58126933E-01</totfact>
</mgrwt>
</event>
<event>
 4    1  0.2505250E+000  0.5234176E+02  0.7957747E-01  0.1433105E+00
         13   -1    0    0    0    0  0.00000000000E+00  0.00000000000E+00  0.99999944179E+02  0.99999999999E+02  0.10566000000E+00 0. -1.
         22   -1    0    0    0    0 -0.00000000000E+00 -0.00000000000E+00 -0.41700720260E+02  0.41700720260E+02  0.00000000000E+00 0.  1.
         13    1    1    2    0    0  0.86515811701E+01 -0.12837848266E+02 -0.33006181478E+02  0.36456541040E+02  0.10566000000E+00 0.  1.
        996    1    1    2    0    0 -0.86515811701E+01  0.12837848266E+02  0.91305405397E+02  0.10524417922E+03  0.50000000000E+02 0.  0.
<mgrwt>
<rscale>  0 0.52341763E+02</rscale>
<asrwt>0</asrwt>
<pdfrwt beam="1">  1       13 0.10000000E+01 0.52341763E+02</pdfrwt>
<pdfrwt beam="2">  1       22 0.41700737E+00 0.52341763E+02</pdfrwt>
<totfact> 0.11402838E-01</totfact>
</mgrwt>
</event>
<event>
 4    1  0.2505250E+000  0.5656466E+02  0.7957747E-01  0.1412841E+00
         13   -1    0    0    0    0  0.00000000000E+00  0.00000000000E+00  0.99999944172E+02  0.99999999992E+02  0.10566000000E+00 0. -1.
         22   -1    0    0    0    0 -0.00000000000E+00 -0.00000000000E+00 -0.17251935023E+02  0.17251935023E+02  0.00000000000E+00 0. -1.
         13    1    1    2    0    0 -0.10471117231E+02  0.24288204796E+02  0.24363986045E+02  0.35960758729E+02  0.10566000000E+00 0.  1.
        996    1    1    2    0    0  0.10471117231E+02 -0.24288204796E+02  0.58384023103E+02  0.81291176286E+02  0.50000000000E+02 0.  0.
<mgrwt>
<rscale>  0 0.56564664E+02</rscale>
<asrwt>0</asrwt>
<pdfrwt beam="1">  1       13 0.10000000E+01 0.56564664E+02</pdfrwt>
<pdfrwt beam="2">  1       22 0.17251958E+00 0.56564664E+02</pdfrwt>
<totfact> 0.59746028E-01</totfact>
</mgrwt>
</event>
<event>
 4    1  0.2505250E+000  0.5335376E+02  0.7957747E-01  0.1428048E+00
         13   -1    0    0    0    0  0.00000000000E+00  0.00000000000E+00  0.99999944177E+02  0.99999999997E+02  0.10566000000E+00 0.  1.
         22   -1    0    0    0    0 -0.00000000000E+00 -0.00000000000E+00 -0.15282598922E+02  0.15282598922E+02  0.00000000000E+00 0.  1.
         13    1    1    2    0    0 -0.15705409626E+02 -0.99981862867E+01  0.45211196007E+02  0.48894652356E+02  0.10566000000E+00 0. -1.
        996    1    1    2    0    0  0.15705409626E+02  0.99981862867E+01  0.39506149247E+02  0.66387946563E+02  0.50000000000E+02 0.  0.
<mgrwt>
<rscale>  0 0.53353759E+02</rscale>
<asrwt>0</asrwt>
<pdfrwt beam="1">  1       13 0.10000000E+01 0.53353759E+02</pdfrwt>
<pdfrwt beam="2">  1       22 0.15282623E+00 0.53353759E+02</pdfrwt>
<totfact> 0.73177876E-01</totfact>
</mgrwt>
</event>
<event>
 4    1  0.2505250E+000  0.5286348E+02  0.7957747E-01  0.1430481E+00
         13   -1    0    0    0    0  0.00000000000E+00  0.00000000000E+00  0.99999944173E+02  0.99999999993E+02  0.10566000000E+00 0. -1.
         22   -1    0    0    0    0 -0.00000000000E+00 -0.00000000000E+00 -0.24503045414E+02  0.24503045414E+02  0.00000000000E+00 0.  1.
         13    1    1    2    0    0 -0.17064583666E+02  0.18296866989E+01 -0.12923979272E+02  0.21484603170E+02  0.10566000000E+00 0.  1.
        996    1    1    2    0    0  0.17064583666E+02 -0.18296866989E+01  0.88420878032E+02  0.10301844224E+03  0.50000000000E+02 0.  0.
<mgrwt>
<rscale>  0 0.52863482E+02</rscale>
<asrwt>0</asrwt>
<pdfrwt beam="1">  1       13 0.10000000E+01 0.52863482E+02</pdfrwt>
<pdfrwt beam="2">  1       22 0.24503066E+00 0.52863482E+02</pdfrwt>
<totfact> 0.30707935E-01</totfact>
</mgrwt>
</event>
<event>
 4    1  0.2505250E+000  0.5175886E+02  0.7957747E-01  0.1436079E+00
         13   -1    0    0    0    0  0.00000000000E+00  0.00000000000E+00  0.99999944185E+02  0.10000000001E+03  0.10566000000E+00 0.  1.
         22   -1    0    0    0    0 -0.00000000000E+00 -0.00000000000E+00 -0.13111962282E+02  0.13111962282E+02  0.00000000000E+00 0.  1.
         13    1    1    2    0    0 -0.13375365318E+02 -0.28170515814E+00  0.17740003479E+01  0.13495851083E+02  0.10566000000E+00 0. -1.
        996    1    1    2    0    0  0.13375365318E+02  0.28170515814E+00  0.85113981556E+02  0.99616111204E+02  0.50000000000E+02 0.  0.
<mgrwt>
<rscale>  0 0.51758862E+02</rscale>
<asrwt>0</asrwt>
<pdfrwt beam="1">  1       13 0.10000000E+01 0.51758862E+02</pdfrwt>
<pdfrwt beam="2">  1       22 0.13111987E+00 0.51758862E+02</pdfrwt>
<totfact> 0.93601714E-01</totfact>
</mgrwt>
</event>
<event>
 4    1  0.2505250E+000  0.5110570E+02  0.7957747E-01  0.1439467E+00
         13   -1    0    0    0    0  0.00000000000E+00  0.00000000000E+00  0.99999944181E+02  0.10000000000E+03  0.10566000000E+00 0. -1.
         22   -1    0    0    0    0 -0.00000000000E+00 -0.00000000000E+00 -0.16989165007E+02  0.16989165007E+02  0.00000000000E+00 0.  1.
         13    1    1    2    0    0 -0.89847174719E+01 -0.55737760849E+01 -0.75574614438E+01  0.12996865599E+02  0.10566000000E+00 0.  1.
        996    1    1    2    0    0  0.89847174719E+01  0.55737760849E+01  0.90568240618E+02  0.10399229941E+03  0.50000000000E+02 0.  0.
<mgrwt>
<rscale>  0 0.51105696E+02</rscale>
<asrwt>0</asrwt>
<pdfrwt beam="1">  1       13 0.10000000E+01 0.51105696E+02</pdfrwt>
<pdfrwt beam="2">  1       22 0.16989188E+00 0.51105696E+02</pdfrwt>
<totfact> 0.60760052E-01</totfact>
</mgrwt>
</event>
<event>
 4    1  0.2505250E+000  0.5863111E+02  0.7957747E-01  0.1403668E+00
         13   -1    0    0    0    0  0.00000000000E+00  0.00000000000E+00  0.99999944183E+02  0.10000000000E+03  0.10566000000E+00 0.  1.
         22   -1    0    0    0    0 -0.00000000000E+00 -0.00000000000E+00 -0.32462554570E+02  0.32462554570E+02  0.00000000000E+00 0. -1.
         13    1    1    2    0    0 -0.90668165837E+00 -0.30606943839E+02 -0.12646614980E+02  0.33129369407E+02  0.10566000000E+00 0. -1.
        996    1    1    2    0    0  0.90668165837E+00  0.30606943839E+02  0.80184004593E+02  0.99333185167E+02  0.50000000000E+02 0.  0.
<mgrwt>
<rscale>  0 0.58631110E+02</rscale>
<asrwt>0</asrwt>
<pdfrwt beam="1">  1       13 0.10000000E+01 0.58631110E+02</pdfrwt>
<pdfrwt beam="2">  1       22 0.32462573E+00 0.58631110E+02</pdfrwt>
<totfact> 0.18065001E-01</totfact>
</mgrwt>
</event>
<event>
 4    1  0.2505250E+000  0.5102644E+02  0.7957747E-01  0.1439883E+00
         13   -1    0    0    0    0  0.00000000000E+00  0.00000000000E+00  0.99999944173E+02  0.99999999993E+02  0.10566000000E+00 0. -1.
         22   -1    0    0    0    0 -0.00000000000E+00 -0.00000000000E+00 -0.30787984098E+02  0.30787984098E+02  0.00000000000E+00 0.  1.
         13    1    1    2    0    0 -0.85285560047E+01 -0.55642555781E+01 -0.23137298184E+02  0.25279298625E+02  0.10566000000E+00 0.  1.
        996    1    1    2    0    0  0.85285560047E+01  0.55642555781E+01  0.92349258260E+02  0.10550868547E+03  0.50000000000E+02 0.  0.
<mgrwt>
<rscale>  0 0.51026436E+02</rscale>
<asrwt>0</asrwt>
<pdfrwt beam="1">  1       13 0.10000000E+01 0.51026436E+02</pdfrwt>
<pdfrwt beam="2">  1       22 0.30788003E+00 0.51026436E+02</pdfrwt>
<totfact> 0.19707919E-01</totfact>
</mgrwt>
</event>
<event>
 4    1  0.2505250E+000  0.5420506E+02  0.7957747E-01  0.1423896E+00
         13   -1    0    0    0    0  0.00000000000E+00  0.00000000000E+00  0.99999944171E+02  0.99999999991E+02  0.10566000000E+00 0. -1.
         22   -1    0    0    0    0 -0.00000000000E+00 -0.00000000000E+00 -0.17175225524E+02  0.17175225524E+02  0.00000000000E+00 0.  1.
         13    1    1    2    0    0  0.20316302274E+02 -0.50433989158E+01  0.36898693945E+01  0.21255924137E+02  0.10566000000E+00 0.  1.
        996    1    1    2    0    0 -0.20316302274E+02  0.50433989158E+01  0.79134849252E+02  0.95919301378E+02  0.50000000000E+02 0.  0.
<mgrwt>
<rscale>  0 0.54205055E+02</rscale>
<asrwt>0</asrwt>
<pdfrwt beam="1">  1       13 0.10000000E+01 0.54205055E+02</pdfrwt>
<pdfrwt beam="2">  1       22 0.17175249E+00 0.54205055E+02</pdfrwt>
<totfact> 0.59962412E-01</totfact>
</mgrwt>
</event>
<event>
 4    1  0.2505250E+000  0.5352347E+02  0.7957747E-01  0.1427213E+00
         13   -1    0    0    0    0  0.00000000000E+00  0.00000000000E+00  0.99999944176E+02  0.99999999996E+02  0.10566000000E+00 0.  1.
         22   -1    0    0    0    0 -0.00000000000E+00 -0.00000000000E+00 -0.13185860069E+02  0.13185860069E+02  0.00000000000E+00 0.  1.
         13    1    1    2    0    0  0.18237012147E+02  0.56721039763E+01  0.23225756857E+02  0.30070056887E+02  0.10566000000E+00 0. -1.
        996    1    1    2    0    0 -0.18237012147E+02 -0.56721039763E+01  0.63588327250E+02  0.83115803179E+02  0.50000000000E+02 0.  0.
<mgrwt>
<rscale>  0 0.53523466E+02</rscale>
<asrwt>0</asrwt>
<pdfrwt beam="1">  1       13 0.10000000E+01 0.53523466E+02</pdfrwt>
<pdfrwt beam="2">  1       22 0.13185884E+00 0.53523466E+02</pdfrwt>
<totfact> 0.93121877E-01</totfact>
</mgrwt>
</event>
<event>
 4    1  0.2505250E+000  0.5239412E+02  0.7957747E-01  0.1432840E+00
         13   -1    0    0    0    0  0.00000000000E+00  0.00000000000E+00  0.99999944188E+02  0.10000000001E+03  0.10566000000E+00 0.  1.
         22   -1    0    0    0    0 -0.00000000000E+00 -0.00000000000E+00 -0.19635119860E+02  0.19635119860E+02  0.00000000000E+00 0. -1.
         13    1    1    2    0    0  0.14852285935E+02  0.49551753771E+01 -0.74796127724E+01  0.17352231320E+02  0.10566000000E+00 0. -1.
        996    1    1    2    0    0 -0.14852285935E+02 -0.49551753771E+01  0.87844437100E+02  0.10228288855E+03  0.50000000000E+02 0.  0.
<mgrwt>
<rscale>  0 0.52394123E+02</rscale>
<asrwt>0</asrwt>
<pdfrwt beam="1">  1       13 0.10000000E+01 0.52394123E+02</pdfrwt>
<pdfrwt beam="2">  1       22 0.19635142E+00 0.52394123E+02</pdfrwt>
<totfact> 0.46919207E-01</totfact>
</mgrwt>
</event>
<event>
 4    1  0.2505250E+000  0.5179140E+02  0.7957747E-01  0.1435912E+00
         13   -1    0    0    0    0  0.00000000000E+00  0.00000000000E+00  0.99999944181E+02  0.10000000000E+03  0.10566000000E+00 0.  1.
         22   -1    0    0    0    0 -0.00000000000E+00 -0.00000000000E+00 -0.19977796909E+02  0.19977796909E+02  0.00000000000E+00 0. -1.
         13    1    1    2    0    0 -0.12766776878E+02 -0.43998008338E+01 -0.95296188320E+01  0.16527965342E+02  0.10566000000E+00 0. -1.
        996    1    1    2    0    0  0.12766776878E+02  0.43998008338E+01  0.89551766104E+02  0.10344983157E+03  0.50000000000E+02 0.  0.
<mgrwt>
<rscale>  0 0.51791397E+02</rscale>
<asrwt>0</asrwt>
<pdfrwt beam="1">  1       13 0.10000000E+01 0.51791397E+02</pdfrwt>
<pdfrwt beam="2">  1       22 0.19977819E+00 0.51791397E+02</pdfrwt>
<totfact> 0.45384773E-01</totfact>
</mgrwt>
</event>
<event>
 4    1  0.2505250E+000  0.5176022E+02  0.7957747E-01  0.1436072E+00
         13   -1    0    0    0    0  0.00000000000E+00  0.00000000000E+00  0.99999944181E+02  0.10000000000E+03  0.10566000000E+00 0.  1.
         22   -1    0    0    0    0 -0.00000000000E+00 -0.00000000000E+00 -0.17228040250E+02  0.17228040250E+02  0.00000000000E+00 0. -1.
         13    1    1    2    0    0 -0.99379292882E+01  0.89642404792E+01 -0.58430278650E+01  0.14603841432E+02  0.10566000000E+00 0. -1.
        996    1    1    2    0    0  0.99379292882E+01 -0.89642404792E+01  0.88614931796E+02  0.10262419882E+03  0.50000000000E+02 0.  0.
<mgrwt>
<rscale>  0 0.51760217E+02</rscale>
<asrwt>0</asrwt>
<pdfrwt beam="1">  1       13 0.10000000E+01 0.51760217E+02</pdfrwt>
<pdfrwt beam="2">  1       22 0.17228063E+00 0.51760217E+02</pdfrwt>
<totfact> 0.59364138E-01</totfact>
</mgrwt>
</event>
<event>
 4    1  0.2505250E+000  0.5278197E+02  0.7957747E-01  0.1430889E+00
         13   -1    0    0    0    0  0.00000000000E+00  0.00000000000E+00  0.99999944181E+02  0.10000000000E+03  0.10566000000E+00 0. -1.
         22   -1    0    0    0    0 -0.00000000000E+00 -0.00000000000E+00 -0.14253390556E+02  0.14253390556E+02  0.00000000000E+00 0.  1.
         13    1    1    2    0    0  0.30485688077E+01  0.16632589464E+02  0.47284242147E+01  0.17558643559E+02  0.10566000000E+00 0.  1.
        996    1    1    2    0    0 -0.30485688077E+01 -0.16632589464E+02  0.81018129410E+02  0.96694746999E+02  0.50000000000E+02 0.  0.
<mgrwt>
<rscale>  0 0.52781974E+02</rscale>
<asrwt>0</asrwt>
<pdfrwt beam="1">  1       13 0.10000000E+01 0.52781974E+02</pdfrwt>
<pdfrwt beam="2">  1       22 0.14253414E+00 0.52781974E+02</pdfrwt>
<totfact> 0.82035916E-01</totfact>
</mgrwt>
</event>
<event>
 4    1  0.2505250E+000  0.5678266E+02  0.7957747E-01  0.1411852E+00
         13   -1    0    0    0    0  0.00000000000E+00  0.00000000000E+00  0.99999944180E+02  0.10000000000E+03  0.10566000000E+00 0.  1.
         22   -1    0    0    0    0 -0.00000000000E+00 -0.00000000000E+00 -0.28116164428E+02  0.28116164428E+02  0.00000000000E+00 0. -1.
         13    1    1    2    0    0  0.26569725377E+02  0.42801740999E+01 -0.97945898075E+01  0.28639402062E+02  0.10566000000E+00 0. -1.
        996    1    1    2    0    0 -0.26569725377E+02 -0.42801740999E+01  0.81678369559E+02  0.99476762366E+02  0.50000000000E+02 0.  0.
<mgrwt>
<rscale>  0 0.56782658E+02</rscale>
<asrwt>0</asrwt>
<pdfrwt beam="1">  1       13 0.10000000E+01 0.56782658E+02</pdfrwt>
<pdfrwt beam="2">  1       22 0.28116185E+00 0.56782658E+02</pdfrwt>
<totfact> 0.23574554E-01</totfact>
</mgrwt>
</event>
<event>
 4    1  0.2505250E+000  0.5391069E+02  0.7957747E-01  0.1425322E+00
         13   -1    0    0    0    0  0.00000000000E+00  0.00000000000E+00  0.99999944174E+02  0.99999999995E+02  0.10566000000E+00 0.  1.
         22   -1    0    0    0    0 -0.00000000000E+00 -0.00000000000E+00 -0.17585602064E+02  0.17585602064E+02  0.00000000000E+00 0. -1.
         13    1    1    2    0    0 -0.51779986923E+01  0.19482067607E+02  0.13137576195E+01  0.20201478951E+02  0.10566000000E+00 0. -1.
        996    1    1    2    0    0  0.51779986923E+01 -0.19482067607E+02  0.81100584491E+02  0.97384123108E+02  0.50000000000E+02 0.  0.
<mgrwt>
<rscale>  0 0.53910691E+02</rscale>
<asrwt>0</asrwt>
<pdfrwt beam="1">  1       13 0.10000000E+01 0.53910691E+02</pdfrwt>
<pdfrwt beam="2">  1       22 0.17585625E+00 0.53910691E+02</pdfrwt>
<totfact> 0.57477362E-01</totfact>
</mgrwt>
</event>
<event>
 4    1  0.2505250E+000  0.5361312E+02  0.7957747E-01  0.1426774E+00
         13   -1    0    0    0    0  0.00000000000E+00  0.00000000000E+00  0.99999944178E+02  0.99999999998E+02  0.10566000000E+00 0.  1.
         22   -1    0    0    0    0 -0.00000000000E+00 -0.00000000000E+00 -0.14998258852E+02  0.14998258852E+02  0.00000000000E+00 0. -1.
         13    1    1    2    0    0 -0.28272799129E+01 -0.19140887154E+02  0.74820912850E+01  0.20745118143E+02  0.10566000000E+00 0. -1.
        996    1    1    2    0    0  0.28272799129E+01  0.19140887154E+02  0.77519594041E+02  0.94253140707E+02  0.50000000000E+02 0.  0.
<mgrwt>
<rscale>  0 0.53613124E+02</rscale>
<asrwt>0</asrwt>
<pdfrwt beam="1">  1       13 0.10000000E+01 0.53613124E+02</pdfrwt>
<pdfrwt beam="2">  1       22 0.14998283E+00 0.53613124E+02</pdfrwt>
<totfact> 0.75551606E-01</totfact>
</mgrwt>
</event>
<event>
 4    1  0.2505250E+000  0.5270976E+02  0.7957747E-01  0.1431251E+00
         13   -1    0    0    0    0  0.00000000000E+00  0.00000000000E+00  0.99999944178E+02  0.99999999999E+02  0.10566000000E+00 0.  1.
         22   -1    0    0    0    0 -0.00000000000E+00 -0.00000000000E+00 -0.14545494450E+02  0.14545494450E+02  0.00000000000E+00 0.  1.
         13    1    1    2    0    0 -0.10313849355E+02 -0.13112700483E+02  0.45326254750E+02  0.48299057301E+02  0.10566000000E+00 0. -1.
        996    1    1    2    0    0  0.10313849355E+02  0.13112700483E+02  0.40128194978E+02  0.66246437147E+02  0.50000000000E+02 0.  0.
<mgrwt>
<rscale>  0 0.52709756E+02</rscale>
<asrwt>0</asrwt>
<pdfrwt beam="1">  1       13 0.10000000E+01 0.52709756E+02</pdfrwt>
<pdfrwt beam="2">  1       22 0.14545518E+00 0.52709756E+02</pdfrwt>
<totfact> 0.79341340E-01</totfact>
</mgrwt>
</event>
<event>
 4    1  0.2505250E+000  0.5121273E+02  0.7957747E-01  0.1438908E+00
         13   -1    0    0    0    0  0.00000000000E+00  0.00000000000E+00  0.99999944183E+02  0.10000000000E+03  0.10566000000E+00 0. -1.
         22   -1    0    0    0    0 -0.00000000000E+00 -0.00000000000E+00 -0.10439847986E+02  0.10439847986E+02  0.00000000000E+00 0. -1.
         13    1    1    2    0    0 -0.66941062877E+01 -0.88279302894E+01  0.64563631598E+01  0.12823384946E+02  0.10566000000E+00 0.  1.
        996    1    1    2    0    0  0.66941062877E+01  0.88279302894E+01  0.83103733038E+02  0.97616463043E+02  0.50000000000E+02 0.  0.
<mgrwt>
<rscale>  0 0.51212727E+02</rscale>
<asrwt>0</asrwt>
<pdfrwt beam="1">  1       13 0.10000000E+01 0.51212727E+02</pdfrwt>
<pdfrwt beam="2">  1       22 0.10439873E+00 0.51212727E+02</pdfrwt>
<totfact> 0.13215989E+00</totfact>
</mgrwt>
</event>
<event>
 4    1  0.2505250E+000  0.5123813E+02  0.7957747E-01  0.1438776E+00
         13   -1    0    0    0    0  0.00000000000E+00  0.00000000000E+00  0.99999944178E+02  0.99999999998E+02  0.10566000000E+00 0. -1.
         22   -1    0    0    0    0 -0.00000000000E+00 -0.00000000000E+00 -0.97453199787E+01  0.97453199787E+01  0.00000000000E+00 0. -1.
         13    1    1    2    0    0 -0.98803513741E+01 -0.52654434604E+01  0.16374417551E+02  0.19836303897E+02  0.10566000000E+00 0.  1.
        996    1    1    2    0    0  0.98803513741E+01  0.52654434604E+01  0.73880206648E+02  0.89909016080E+02  0.50000000000E+02 0.  0.
<mgrwt>
<rscale>  0 0.51238133E+02</rscale>
<asrwt>0</asrwt>
<pdfrwt beam="1">  1       13 0.10000000E+01 0.51238133E+02</pdfrwt>
<pdfrwt beam="2">  1       22 0.97453452E-01 0.51238133E+02</pdfrwt>
<totfact> 0.14605691E+00</totfact>
</mgrwt>
</event>
<event>
 4    1  0.2505250E+000  0.5262223E+02  0.7957747E-01  0.1431690E+00
         13   -1    0    0    0    0  0.00000000000E+00  0.00000000000E+00  0.99999944176E+02  0.99999999996E+02  0.10566000000E+00 0.  1.
         22   -1    0    0    0    0 -0.00000000000E+00 -0.00000000000E+00 -0.12883536746E+02  0.12883536746E+02  0.00000000000E+00 0.  1.
         13    1    1    2    0    0  0.16189816064E+02  0.26437124754E+01  0.90435693324E+01  0.18732236122E+02  0.10566000000E+00 0. -1.
        996    1    1    2    0    0 -0.16189816064E+02 -0.26437124754E+01  0.78072838098E+02  0.94151300620E+02  0.50000000000E+02 0.  0.
<mgrwt>
<rscale>  0 0.52622233E+02</rscale>
<asrwt>0</asrwt>
<pdfrwt beam="1">  1       13 0.10000000E+01 0.52622233E+02</pdfrwt>
<pdfrwt beam="2">  1       22 0.12883561E+00 0.52622233E+02</pdfrwt>
<totfact> 0.96409173E-01</totfact>
</mgrwt>
</event>
<event>
 4    1  0.2505250E+000  0.5177079E+02  0.7957747E-01  0.1436018E+00
         13   -1    0    0    0    0  0.00000000000E+00  0.00000000000E+00  0.99999944180E+02  0.10000000000E+03  0.10566000000E+00 0. -1.
         22   -1    0    0    0    0 -0.00000000000E+00 -0.00000000000E+00 -0.14698812676E+02  0.14698812676E+02  0.00000000000E+00 0. -1.
         13    1    1    2    0    0  0.12217826908E+02  0.55623387421E+01 -0.16260797790E+01  0.13522951088E+02  0.10566000000E+00 0.  1.
        996    1    1    2    0    0 -0.12217826908E+02 -0.55623387421E+01  0.86927211284E+02  0.10117586159E+03  0.50000000000E+02 0.  0.
<mgrwt>
<rscale>  0 0.51770792E+02</rscale>
<asrwt>0</asrwt>
<pdfrwt beam="1">  1       13 0.10000000E+01 0.51770792E+02</pdfrwt>
<pdfrwt beam="2">  1       22 0.14698836E+00 0.51770792E+02</pdfrwt>
<totfact> 0.77831305E-01</totfact>
</mgrwt>
</event>
<event>
 4    1  0.2505250E+000  0.5150335E+02  0.7957747E-01  0.1437398E+00
         13   -1    0    0    0    0  0.00000000000E+00  0.00000000000E+00  0.99999944175E+02  0.99999999995E+02  0.10566000000E+00 0.  1.
         22   -1    0    0    0    0 -0.00000000000E+00 -0.00000000000E+00 -0.13637568621E+02  0.13637568621E+02  0.00000000000E+00 0.  1.
         13    1    1    2    0    0 -0.89820052250E+01  0.84804730269E+01 -0.81797193206E+00  0.12380431444E+02  0.10566000000E+00 0. -1.
        996    1    1    2    0    0  0.89820052250E+01 -0.84804730269E+01  0.87180347486E+02  0.10125713717E+03  0.50000000000E+02 0.  0.
<mgrwt>
<rscale>  0 0.51503348E+02</rscale>
<asrwt>0</asrwt>
<pdfrwt beam="1">  1       13 0.10000000E+01 0.51503348E+02</pdfrwt>
<pdfrwt beam="2">  1       22 0.13637593E+00 0.51503348E+02</pdfrwt>
<totfact> 0.87877223E-01</totfact>
</mgrwt>
</event>
<event>
 4    1  0.2505250E+000  0.5181711E+02  0.7957747E-01  0.1435780E+00
         13   -1    0    0    0    0  0.00000000000E+00  0.00000000000E+00  0.99999944178E+02  0.99999999998E+02  0.10566000000E+00 0.  1.
         22   -1    0    0    0    0 -0.00000000000E+00 -0.00000000000E+00 -0.46045025936E+02  0.46045025936E+02  0.00000000000E+00 0. -1.
         13    1    1    2    0    0 -0.81213820688E+00 -0.13577669653E+02 -0.38074053511E+02  0.40430896558E+02  0.10566000000E+00 0. -1.
        996    1    1    2    0    0  0.81213820688E+00  0.13577669653E+02  0.92028971754E+02  0.10561412938E+03  0.50000000000E+02 0.  0.
<mgrwt>
<rscale>  0 0.51817108E+02</rscale>
<asrwt>0</asrwt>
<pdfrwt beam="1">  1       13 0.10000000E+01 0.51817108E+02</pdfrwt>
<pdfrwt beam="2">  1       22 0.46045041E+00 0.51817108E+02</pdfrwt>
<totfact> 0.91442375E-02</totfact>
</mgrwt>
</event>
<event>
 4    1  0.2505250E+000  0.5359890E+02  0.7957747E-01  0.1426843E+00
         13   -1    0    0    0    0  0.00000000000E+00  0.00000000000E+00  0.99999944183E+02  0.10000000000E+03  0.10566000000E+00 0. -1.
         22   -1    0    0    0    0 -0.00000000000E+00 -0.00000000000E+00 -0.13876433196E+02  0.13876433196E+02  0.00000000000E+00 0. -1.
         13    1    1    2    0    0  0.18268813739E+02  0.62523856139E+01  0.34066955041E+02  0.39158785362E+02  0.10566000000E+00 0.  1.
        996    1    1    2    0    0 -0.18268813739E+02 -0.62523856139E+01  0.52056555946E+02  0.74717647837E+02  0.50000000000E+02 0.  0.
<mgrwt>
<rscale>  0 0.53598898E+02</rscale>
<asrwt>0</asrwt>
<pdfrwt beam="1">  1       13 0.10000000E+01 0.53598898E+02</pdfrwt>
<pdfrwt beam="2">  1       22 0.13876457E+00 0.53598898E+02</pdfrwt>
<totfact> 0.85830157E-01</totfact>
</mgrwt>
</event>
<event>
 4    1  0.2505250E+000  0.5477534E+02  0.7957747E-01  0.1421164E+00
         13   -1    0    0    0    0  0.00000000000E+00  0.00000000000E+00  0.99999944178E+02  0.99999999998E+02  0.10566000000E+00 0.  1.
         22   -1    0    0    0    0 -0.00000000000E+00 -0.00000000000E+00 -0.21640073290E+02  0.21640073290E+02  0.00000000000E+00 0. -1.
         13    1    1    2    0    0  0.10602304372E+02 -0.19695907493E+02 -0.40052121578E+01  0.22724227565E+02  0.10566000000E+00 0. -1.
        996    1    1    2    0    0 -0.10602304372E+02  0.19695907493E+02  0.82365083045E+02  0.98915845723E+02  0.50000000000E+02 0.  0.
<mgrwt>
<rscale>  0 0.54775338E+02</rscale>
<asrwt>0</asrwt>
<pdfrwt beam="1">  1       13 0.10000000E+01 0.54775338E+02</pdfrwt>
<pdfrwt beam="2">  1       22 0.21640095E+00 0.54775338E+02</pdfrwt>
<totfact> 0.39218691E-01</totfact>
</mgrwt>
</event>
<event>
 4    1  0.2505250E+000  0.5888885E+02  0.7957747E-01  0.1402555E+00
         13   -1    0    0    0    0  0.00000000000E+00  0.00000000000E+00  0.99999944171E+02  0.99999999991E+02  0.10566000000E+00 0.  1.
         22   -1    0    0    0    0 -0.00000000000E+00 -0.00000000000E+00 -0.32684993641E+02  0.32684993641E+02  0.00000000000E+00 0. -1.
         13    1    1    2    0    0 -0.71871930922E+01  0.30269478398E+02 -0.12472986053E+02  0.33518407065E+02  0.10566000000E+00 0. -1.
        996    1    1    2    0    0  0.71871930922E+01 -0.30269478398E+02  0.79787936583E+02  0.99166586567E+02  0.50000000000E+02 0.  0.
<mgrwt>
<rscale>  0 0.58888854E+02</rscale>
<asrwt>0</asrwt>
<pdfrwt beam="1">  1       13 0.10000000E+01 0.58888854E+02</pdfrwt>
<pdfrwt beam="2">  1       22 0.32685012E+00 0.58888854E+02</pdfrwt>
<totfact> 0.17850662E-01</totfact>
</mgrwt>
</event>
<event>
 4    1  0.2505250E+000  0.5272108E+02  0.7957747E-01  0.1431194E+00
         13   -1    0    0    0    0  0.00000000000E+00  0.00000000000E+00  0.99999944177E+02  0.99999999997E+02  0.10566000000E+00 0.  1.
         22   -1    0    0    0    0 -0.00000000000E+00 -0.00000000000E+00 -0.62315828699E+02  0.62315828699E+02  0.00000000000E+00 0. -1.
         13    1    1    2    0    0 -0.13286551306E+02  0.10147892031E+02 -0.54013936883E+02  0.56542273565E+02  0.10566000000E+00 0. -1.
        996    1    1    2    0    0  0.13286551306E+02 -0.10147892031E+02  0.91698052361E+02  0.10577355513E+03  0.50000000000E+02 0.  0.
<mgrwt>
<rscale>  0 0.52721079E+02</rscale>
<asrwt>0</asrwt>
<pdfrwt beam="1">  1       13 0.10000000E+01 0.52721079E+02</pdfrwt>
<pdfrwt beam="2">  1       22 0.62315839E+00 0.52721079E+02</pdfrwt>
<totfact> 0.74778523E-02</totfact>
</mgrwt>
</event>
<event>
 4    1  0.2505250E+000  0.5276237E+02  0.7957747E-01  0.1430987E+00
         13   -1    0    0    0    0  0.00000000000E+00  0.00000000000E+00  0.99999944174E+02  0.99999999994E+02  0.10566000000E+00 0.  1.
         22   -1    0    0    0    0 -0.00000000000E+00 -0.00000000000E+00 -0.38887490079E+02  0.38887490079E+02  0.00000000000E+00 0. -1.
         13    1    1    2    0    0 -0.59100046935E+00 -0.16837993698E+02 -0.29534880929E+02  0.34002759724E+02  0.10566000000E+00 0. -1.
        996    1    1    2    0    0  0.59100046935E+00  0.16837993698E+02  0.90647335024E+02  0.10488473035E+03  0.50000000000E+02 0.  0.
<mgrwt>
<rscale>  0 0.52762366E+02</rscale>
<asrwt>0</asrwt>
<pdfrwt beam="1">  1       13 0.10000000E+01 0.52762366E+02</pdfrwt>
<pdfrwt beam="2">  1       22 0.38887507E+00 0.52762366E+02</pdfrwt>
<totfact> 0.13044333E-01</totfact>
</mgrwt>
</event>
<event>
 4    1  0.2505250E+000  0.5530914E+02  0.7957747E-01  0.1418643E+00
         13   -1    0    0    0    0  0.00000000000E+00  0.00000000000E+00  0.99999944180E+02  0.10000000000E+03  0.10566000000E+00 0. -1.
         22   -1    0    0    0    0 -0.00000000000E+00 -0.00000000000E+00 -0.17715625876E+02  0.17715625876E+02  0.00000000000E+00 0. -1.
         13    1    1    2    0    0  0.11623606256E+02  0.20591096624E+02  0.77129369537E+01  0.24871711704E+02  0.10566000000E+00 0.  1.
        996    1    1    2    0    0 -0.11623606256E+02 -0.20591096624E+02  0.74571381350E+02  0.92843914173E+02  0.50000000000E+02 0.  0.
<mgrwt>
<rscale>  0 0.55309145E+02</rscale>
<asrwt>0</asrwt>
<pdfrwt beam="1">  1       13 0.10000000E+01 0.55309145E+02</pdfrwt>
<pdfrwt beam="2">  1       22 0.17715649E+00 0.55309145E+02</pdfrwt>
<totfact> 0.56871649E-01</totfact>
</mgrwt>
</event>
<event>
 4    1  0.2505250E+000  0.5162166E+02  0.7957747E-01  0.1436786E+00
         13   -1    0    0    0    0  0.00000000000E+00  0.00000000000E+00  0.99999944177E+02  0.99999999998E+02  0.10566000000E+00 0.  1.
         22   -1    0    0    0    0 -0.00000000000E+00 -0.00000000000E+00 -0.11605020590E+02  0.11605020590E+02  0.00000000000E+00 0.  1.
         13    1    1    2    0    0 -0.38420125422E+00  0.12831511189E+02  0.55342478880E+01  0.13979783750E+02  0.10566000000E+00 0. -1.
        996    1    1    2    0    0  0.38420125422E+00 -0.12831511189E+02  0.82860675700E+02  0.97625236837E+02  0.50000000000E+02 0.  0.
<mgrwt>
<rscale>  0 0.51621655E+02</rscale>
<asrwt>0</asrwt>
<pdfrwt beam="1">  1       13 0.10000000E+01 0.51621655E+02</pdfrwt>
<pdfrwt beam="2">  1       22 0.11605045E+00 0.51621655E+02</pdfrwt>
<totfact> 0.11301456E+00</totfact>
</mgrwt>
</event>
<event>
 4    1  0.2505250E+000  0.5146906E+02  0.7957747E-01  0.1437575E+00
         13   -1    0    0    0    0  0.00000000000E+00  0.00000000000E+00  0.99999944180E+02  0.10000000000E+03  0.10566000000E+00 0.  1.
         22   -1    0    0    0    0 -0.00000000000E+00 -0.00000000000E+00 -0.13368055213E+02  0.13368055213E+02  0.00000000000E+00 0. -1.
         13    1    1    2    0    0  0.46548443459E+01 -0.11287022160E+02 -0.44463305889E+00  0.12217745607E+02  0.10566000000E+00 0. -1.
        996    1    1    2    0    0 -0.46548443459E+01  0.11287022160E+02  0.87076522027E+02  0.10115030961E+03  0.50000000000E+02 0.  0.
<mgrwt>
<rscale>  0 0.51469063E+02</rscale>
<asrwt>0</asrwt>
<pdfrwt beam="1">  1       13 0.10000000E+01 0.51469063E+02</pdfrwt>
<pdfrwt beam="2">  1       22 0.13368079E+00 0.51469063E+02</pdfrwt>
<totfact> 0.90717346E-01</totfact>
</mgrwt>
</event>
<event>
 4    1  0.2505250E+000  0.5515938E+02  0.7957747E-01  0.1419347E+00
         13   -1    0    0    0    0  0.00000000000E+00  0.00000000000E+00  0.99999944179E+02  0.10000000000E+03  0.10566000000E+00 0. -1.
         22   -1    0    0    0    0 -0.00000000000E+00 -0.00000000000E+00 -0.33087605890E+02  0.33087605890E+02  0.00000000000E+00 0.  1.
         13    1    1    2    0    0 -0.92642067710E-01  0.23292666251E+02 -0.19629927259E+02  0.30461485385E+02  0.10566000000E+00 0.  1.
        996    1    1    2    0    0  0.92642067710E-01 -0.23292666251E+02  0.86542265548E+02  0.10262612050E+03  0.50000000000E+02 0.  0.
<mgrwt>
<rscale>  0 0.55159377E+02</rscale>
<asrwt>0</asrwt>
<pdfrwt beam="1">  1       13 0.10000000E+01 0.55159377E+02</pdfrwt>
<pdfrwt beam="2">  1       22 0.33087625E+00 0.55159377E+02</pdfrwt>
<totfact> 0.17398467E-01</totfact>
</mgrwt>
</event>
<event>
 4    1  0.2505250E+000  0.5378222E+02  0.7957747E-01  0.1425947E+00
         13   -1    0    0    0    0  0.00000000000E+00  0.00000000000E+00  0.99999944178E+02  0.99999999998E+02  0.10566000000E+00 0. -1.
         22   -1    0    0    0    0 -0.00000000000E+00 -0.00000000000E+00 -0.22570920825E+02  0.22570920825E+02  0.00000000000E+00 0.  1.
         13    1    1    2    0    0  0.19740730493E+02 -0.16823535756E+01 -0.82085049486E+01  0.21445686547E+02  0.10566000000E+00 0.  1.
        996    1    1    2    0    0 -0.19740730493E+02  0.16823535756E+01  0.85637528301E+02  0.10112523428E+03  0.50000000000E+02 0.  0.
<mgrwt>
<rscale>  0 0.53782216E+02</rscale>
<asrwt>0</asrwt>
<pdfrwt beam="1">  1       13 0.10000000E+01 0.53782216E+02</pdfrwt>
<pdfrwt beam="2">  1       22 0.22570942E+00 0.53782216E+02</pdfrwt>
<totfact> 0.36103320E-01</totfact>
</mgrwt>
</event>
<event>
 4    1  0.2505250E+000  0.6164462E+02  0.7957747E-01  0.1391057E+00
         13   -1    0    0    0    0  0.00000000000E+00  0.00000000000E+00  0.99999944173E+02  0.99999999993E+02  0.10566000000E+00 0. -1.
         22   -1    0    0    0    0 -0.00000000000E+00 -0.00000000000E+00 -0.29149429624E+02  0.29149429624E+02  0.00000000000E+00 0.  1.
         13    1    1    2    0    0  0.65989465137E+00 -0.36050288778E+02  0.11150955979E+01  0.36073721518E+02  0.10566000000E+00 0.  1.
        996    1    1    2    0    0 -0.65989465137E+00  0.36050288778E+02  0.69735418951E+02  0.93075708099E+02  0.50000000000E+02 0.  0.
<mgrwt>
<rscale>  0 0.61644617E+02</rscale>
<asrwt>0</asrwt>
<pdfrwt beam="1">  1       13 0.10000000E+01 0.61644617E+02</pdfrwt>
<pdfrwt beam="2">  1       22 0.29149449E+00 0.61644617E+02</pdfrwt>
<totfact> 0.22120911E-01</totfact>
</mgrwt>
</event>
<event>
 4    1  0.2505250E+000  0.5245092E+02  0.7957747E-01  0.1432553E+00
         13   -1    0    0    0    0  0.00000000000E+00  0.00000000000E+00  0.99999944178E+02  0.99999999998E+02  0.10566000000E+00 0. -1.
         22   -1    0    0    0    0 -0.00000000000E+00 -0.00000000000E+00 -0.11719245225E+02  0.11719245225E+02  0.00000000000E+00 0. -1.
         13    1    1    2    0    0 -0.20785079010E+00 -0.15844736470E+02  0.23919291578E+02  0.28692203635E+02  0.10566000000E+00 0.  1.
        996    1    1    2    0    0  0.20785079010E+00  0.15844736470E+02  0.64361407375E+02  0.83027041589E+02  0.50000000000E+02 0.  0.
<mgrwt>
<rscale>  0 0.52450919E+02</rscale>
<asrwt>0</asrwt>
<pdfrwt beam="1">  1       13 0.10000000E+01 0.52450919E+02</pdfrwt>
<pdfrwt beam="2">  1       22 0.11719270E+00 0.52450919E+02</pdfrwt>
<totfact> 0.11155834E+00</totfact>
</mgrwt>
</event>
<event>
 4    1  0.2505250E+000  0.5383297E+02  0.7957747E-01  0.1425700E+00
         13   -1    0    0    0    0  0.00000000000E+00  0.00000000000E+00  0.99999944174E+02  0.99999999994E+02  0.10566000000E+00 0. -1.
         22   -1    0    0    0    0 -0.00000000000E+00 -0.00000000000E+00 -0.14839137290E+02  0.14839137290E+02  0.00000000000E+00 0. -1.
         13    1    1    2    0    0 -0.19636603198E+02 -0.35202579496E+01  0.98033573220E+01  0.22228481280E+02  0.10566000000E+00 0.  1.
        996    1    1    2    0    0  0.19636603198E+02  0.35202579496E+01  0.75357449562E+02  0.92610656005E+02  0.50000000000E+02 0.  0.
<mgrwt>
<rscale>  0 0.53832968E+02</rscale>
<asrwt>0</asrwt>
<pdfrwt beam="1">  1       13 0.10000000E+01 0.53832968E+02</pdfrwt>
<pdfrwt beam="2">  1       22 0.14839161E+00 0.53832968E+02</pdfrwt>
<totfact> 0.76937004E-01</totfact>
</mgrwt>
</event>
<event>
 4    1  0.2505250E+000  0.5124884E+02  0.7957747E-01  0.1438720E+00
         13   -1    0    0    0    0  0.00000000000E+00  0.00000000000E+00  0.99999944184E+02  0.10000000000E+03  0.10566000000E+00 0. -1.
         22   -1    0    0    0    0 -0.00000000000E+00 -0.00000000000E+00 -0.98751720624E+01  0.98751720624E+01  0.00000000000E+00 0. -1.
         13    1    1    2    0    0 -0.81206234963E+01  0.77781070371E+01  0.12041514642E+02  0.16475822103E+02  0.10566000000E+00 0.  1.
        996    1    1    2    0    0  0.81206234963E+01 -0.77781070371E+01  0.78083257479E+02  0.93399349964E+02  0.50000000000E+02 0.  0.
<mgrwt>
<rscale>  0 0.51248839E+02</rscale>
<asrwt>0</asrwt>
<pdfrwt beam="1">  1       13 0.10000000E+01 0.51248839E+02</pdfrwt>
<pdfrwt beam="2">  1       22 0.98751972E-01 0.51248839E+02</pdfrwt>
<totfact> 0.14330164E+00</totfact>
</mgrwt>
</event>
<event>
 4    1  0.2505250E+000  0.5131210E+02  0.7957747E-01  0.1438390E+00
         13   -1    0    0    0    0  0.00000000000E+00  0.00000000000E+00  0.99999944181E+02  0.10000000000E+03  0.10566000000E+00 0.  1.
         22   -1    0    0    0    0 -0.00000000000E+00 -0.00000000000E+00 -0.10071805149E+02  0.10071805149E+02  0.00000000000E+00 0.  1.
         13    1    1    2    0    0 -0.10728372823E+02 -0.42230323282E+01  0.11034453649E+02  0.15959395880E+02  0.10566000000E+00 0. -1.
        996    1    1    2    0    0  0.10728372823E+02  0.42230323282E+01  0.78893685382E+02  0.94112409271E+02  0.50000000000E+02 0.  0.
<mgrwt>
<rscale>  0 0.51312104E+02</rscale>
<asrwt>0</asrwt>
<pdfrwt beam="1">  1       13 0.10000000E+01 0.51312104E+02</pdfrwt>
<pdfrwt beam="2">  1       22 0.10071830E+00 0.51312104E+02</pdfrwt>
<totfact> 0.13929237E+00</totfact>
</mgrwt>
</event>
<event>
 4    1  0.2505250E+000  0.5397886E+02  0.7957747E-01  0.1424991E+00
         13   -1    0    0    0    0  0.00000000000E+00  0.00000000000E+00  0.99999944184E+02  0.10000000000E+03  0.10566000000E+00 0. -1.
         22   -1    0    0    0    0 -0.00000000000E+00 -0.00000000000E+00 -0.15967990493E+02  0.15967990493E+02  0.00000000000E+00 0.  1.
         13    1    1    2    0    0  0.19776437832E+02  0.47550246650E+01  0.62272667683E+01  0.21272229980E+02  0.10566000000E+00 0.  1.
        996    1    1    2    0    0 -0.19776437832E+02 -0.47550246650E+01  0.77804686922E+02  0.94695760517E+02  0.50000000000E+02 0.  0.
<mgrwt>
<rscale>  0 0.53978864E+02</rscale>
<asrwt>0</asrwt>
<pdfrwt beam="1">  1       13 0.10000000E+01 0.53978864E+02</pdfrwt>
<pdfrwt beam="2">  1       22 0.15968014E+00 0.53978864E+02</pdfrwt>
<totfact> 0.68018318E-01</totfact>
</mgrwt>
</event>
<event>
 4    1  0.2505250E+000  0.5712629E+02  0.7957747E-01  0.1410303E+00
         13   -1    0    0    0    0  0.00000000000E+00  0.00000000000E+00  0.99999944177E+02  0.99999999998E+02  0.10566000000E+00 0. -1.
         22   -1    0    0    0    0 -0.00000000000E+00 -0.00000000000E+00 -0.18711204483E+02  0.18711204483E+02  0.00000000000E+00 0. -1.
         13    1    1    2    0    0 -0.27464574208E+02 -0.30183415488E+01  0.15881226648E+02  0.31869071935E+02  0.10566000000E+00 0.  1.
        996    1    1    2    0    0  0.27464574208E+02  0.30183415488E+01  0.65407513046E+02  0.86842132545E+02  0.50000000000E+02 0.  0.
<mgrwt>
<rscale>  0 0.57126292E+02</rscale>
<asrwt>0</asrwt>
<pdfrwt beam="1">  1       13 0.10000000E+01 0.57126292E+02</pdfrwt>
<pdfrwt beam="2">  1       22 0.18711227E+00 0.57126292E+02</pdfrwt>
<totfact> 0.51690598E-01</totfact>
</mgrwt>
</event>
<event>
 4    1  0.2505250E+000  0.5477932E+02  0.7957747E-01  0.1421145E+00
         13   -1    0    0    0    0  0.00000000000E+00  0.00000000000E+00  0.99999944175E+02  0.99999999995E+02  0.10566000000E+00 0. -1.
         22   -1    0    0    0    0 -0.00000000000E+00 -0.00000000000E+00 -0.14903178987E+02  0.14903178987E+02  0.00000000000E+00 0. -1.
         13    1    1    2    0    0  0.16823868300E+02 -0.14755740572E+02  0.26614144271E+02  0.34772090298E+02  0.10566000000E+00 0.  1.
        996    1    1    2    0    0 -0.16823868300E+02  0.14755740572E+02  0.58482620917E+02  0.80131088684E+02  0.50000000000E+02 0.  0.
<mgrwt>
<rscale>  0 0.54779325E+02</rscale>
<asrwt>0</asrwt>
<pdfrwt beam="1">  1       13 0.10000000E+01 0.54779325E+02</pdfrwt>
<pdfrwt beam="2">  1       22 0.14903203E+00 0.54779325E+02</pdfrwt>
<totfact> 0.76530064E-01</totfact>
</mgrwt>
</event>
<event>
 4    1  0.2505250E+000  0.6369300E+02  0.7957747E-01  0.1382956E+00
         13   -1    0    0    0    0  0.00000000000E+00  0.00000000000E+00  0.99999944183E+02  0.10000000000E+03  0.10566000000E+00 0.  1.
         22   -1    0    0    0    0 -0.00000000000E+00 -0.00000000000E+00 -0.40876166005E+02  0.40876166005E+02  0.00000000000E+00 0. -1.
         13    1    1    2    0    0  0.21022914160E+02  0.33389145487E+02 -0.15831552511E+02  0.42514082080E+02  0.10566000000E+00 0. -1.
        996    1    1    2    0    0 -0.21022914160E+02 -0.33389145487E+02  0.74955330688E+02  0.98362083928E+02  0.50000000000E+02 0.  0.
<mgrwt>
<rscale>  0 0.63692998E+02</rscale>
<asrwt>0</asrwt>
<pdfrwt beam="1">  1       13 0.10000000E+01 0.63692998E+02</pdfrwt>
<pdfrwt beam="2">  1       22 0.40876183E+00 0.63692998E+02</pdfrwt>
<totfact> 0.11955811E-01</totfact>
</mgrwt>
</event>
<event>
 4    1  0.2505250E+000  0.5420788E+02  0.7957747E-01  0.1423882E+00
         13   -1    0    0    0    0  0.00000000000E+00  0.00000000000E+00  0.99999944191E+02  0.10000000001E+03  0.10566000000E+00 0. -1.
         22   -1    0    0    0    0 -0.00000000000E+00 -0.00000000000E+00 -0.72230407652E+02  0.72230407652E+02  0.00000000000E+00 0.  1.
         13    1    1    2    0    0  0.25358487842E+01 -0.20786131201E+02 -0.63064827309E+02  0.66450563481E+02  0.10566000000E+00 0.  1.
        996    1    1    2    0    0 -0.25358487842E+01  0.20786131201E+02  0.90834363849E+02  0.10577984418E+03  0.50000000000E+02 0.  0.
<mgrwt>
<rscale>  0 0.54207876E+02</rscale>
<asrwt>0</asrwt>
<pdfrwt beam="1">  1       13 0.10000000E+01 0.54207876E+02</pdfrwt>
<pdfrwt beam="2">  1       22 0.72230415E+00 0.54207876E+02</pdfrwt>
<totfact> 0.62812084E-02</totfact>
</mgrwt>
</event>
<event>
 4    1  0.2505250E+000  0.5103362E+02  0.7957747E-01  0.1439845E+00
         13   -1    0    0    0    0  0.00000000000E+00  0.00000000000E+00  0.99999944179E+02  0.10000000000E+03  0.10566000000E+00 0.  1.
         22   -1    0    0    0    0 -0.00000000000E+00 -0.00000000000E+00 -0.10106456290E+02  0.10106456290E+02  0.00000000000E+00 0.  1.
         13    1    1    2    0    0 -0.88578988307E+01 -0.50959167940E+01  0.58326740974E+01  0.11766987330E+02  0.10566000000E+00 0. -1.
        996    1    1    2    0    0  0.88578988307E+01  0.50959167940E+01  0.84060813792E+02  0.98339468959E+02  0.50000000000E+02 0.  0.
<mgrwt>
<rscale>  0 0.51033624E+02</rscale>
<asrwt>0</asrwt>
<pdfrwt beam="1">  1       13 0.10000000E+01 0.51033624E+02</pdfrwt>
<pdfrwt beam="2">  1       22 0.10106481E+00 0.51033624E+02</pdfrwt>
<totfact> 0.13850606E+00</totfact>
</mgrwt>
</event>
<event>
 4    1  0.2505250E+000  0.5645915E+02  0.7957747E-01  0.1413322E+00
         13   -1    0    0    0    0  0.00000000000E+00  0.00000000000E+00  0.99999944175E+02  0.99999999996E+02  0.10566000000E+00 0.  1.
         22   -1    0    0    0    0 -0.00000000000E+00 -0.00000000000E+00 -0.19786514996E+02  0.19786514996E+02  0.00000000000E+00 0.  1.
         13    1    1    2    0    0  0.10973809920E+02 -0.23816205654E+02  0.66473080964E+01  0.27052431035E+02  0.10566000000E+00 0. -1.
        996    1    1    2    0    0 -0.10973809920E+02  0.23816205654E+02  0.73566121083E+02  0.92734083956E+02  0.50000000000E+02 0.  0.
<mgrwt>
<rscale>  0 0.56459155E+02</rscale>
<asrwt>0</asrwt>
<pdfrwt beam="1">  1       13 0.10000000E+01 0.56459155E+02</pdfrwt>
<pdfrwt beam="2">  1       22 0.19786537E+00 0.56459155E+02</pdfrwt>
<totfact> 0.46579465E-01</totfact>
</mgrwt>
</event>
<event>
 4    1  0.2505250E+000  0.5230861E+02  0.7957747E-01  0.1433273E+00
         13   -1    0    0    0    0  0.00000000000E+00  0.00000000000E+00  0.99999944182E+02  0.10000000000E+03  0.10566000000E+00 0. -1.
         22   -1    0    0    0    0 -0.00000000000E+00 -0.00000000000E+00 -0.12831445101E+02  0.12831445101E+02  0.00000000000E+00 0.  1.
         13    1    1    2    0    0 -0.75740588137E+01  0.13372509478E+02  0.64978863609E+01  0.16686044104E+02  0.10566000000E+00 0.  1.
        996    1    1    2    0    0  0.75740588137E+01 -0.13372509478E+02  0.80670612720E+02  0.96145400999E+02  0.50000000000E+02 0.  0.
<mgrwt>
<rscale>  0 0.52308607E+02</rscale>
<asrwt>0</asrwt>
<pdfrwt beam="1">  1       13 0.10000000E+01 0.52308607E+02</pdfrwt>
<pdfrwt beam="2">  1       22 0.12831469E+00 0.52308607E+02</pdfrwt>
<totfact> 0.96958680E-01</totfact>
</mgrwt>
</event>
<event>
 4    1  0.2505250E+000  0.5113094E+02  0.7957747E-01  0.1439335E+00
         13   -1    0    0    0    0  0.00000000000E+00  0.00000000000E+00  0.99999944180E+02  0.10000000000E+03  0.10566000000E+00 0. -1.
         22   -1    0    0    0    0 -0.00000000000E+00 -0.00000000000E+00 -0.14776106060E+02  0.14776106060E+02  0.00000000000E+00 0.  1.
         13    1    1    2    0    0  0.10264692042E+02 -0.30015528895E+01 -0.44223666480E+01  0.11573319025E+02  0.10566000000E+00 0.  1.
        996    1    1    2    0    0 -0.10264692042E+02  0.30015528895E+01  0.89646204768E+02  0.10320278703E+03  0.50000000000E+02 0.  0.
<mgrwt>
<rscale>  0 0.51130942E+02</rscale>
<asrwt>0</asrwt>
<pdfrwt beam="1">  1       13 0.10000000E+01 0.51130942E+02</pdfrwt>
<pdfrwt beam="2">  1       22 0.14776130E+00 0.51130942E+02</pdfrwt>
<totfact> 0.77056809E-01</totfact>
</mgrwt>
</event>
<event>
 4    1  0.2505250E+000  0.5408476E+02  0.7957747E-01  0.1424477E+00
         13   -1    0    0    0    0  0.00000000000E+00  0.00000000000E+00  0.99999944187E+02  0.10000000001E+03  0.10566000000E+00 0.  1.
         22   -1    0    0    0    0 -0.00000000000E+00 -0.00000000000E+00 -0.61498999014E+02  0.61498999014E+02  0.00000000000E+00 0. -1.
         13    1    1    2    0    0 -0.19587733445E+02  0.64406850467E+01 -0.52072434524E+02  0.56006350770E+02  0.10566000000E+00 0. -1.
        996    1    1    2    0    0  0.19587733445E+02 -0.64406850467E+01  0.90573379697E+02  0.10549264825E+03  0.50000000000E+02 0.  0.
<mgrwt>
<rscale>  0 0.54084764E+02</rscale>
<asrwt>0</asrwt>
<pdfrwt beam="1">  1       13 0.10000000E+01 0.54084764E+02</pdfrwt>
<pdfrwt beam="2">  1       22 0.61499010E+00 0.54084764E+02</pdfrwt>
<totfact> 0.70023998E-02</totfact>
</mgrwt>
</event>
<event>
 4    1  0.2505250E+000  0.5262156E+02  0.7957747E-01  0.1431694E+00
         13   -1    0    0    0    0  0.00000000000E+00  0.00000000000E+00  0.99999944186E+02  0.10000000001E+03  0.10566000000E+00 0. -1.
         22   -1    0    0    0    0 -0.00000000000E+00 -0.00000000000E+00 -0.24337423984E+02  0.24337423984E+02  0.00000000000E+00 0.  1.
         13    1    1    2    0    0  0.11558969528E+02 -0.11636943340E+02 -0.13206015781E+02  0.21057973399E+02  0.10566000000E+00 0.  1.
        996    1    1    2    0    0 -0.11558969528E+02  0.11636943340E+02  0.88868535982E+02  0.10327945059E+03  0.50000000000E+02 0.  0.
<mgrwt>
<rscale>  0 0.52621557E+02</rscale>
<asrwt>0</asrwt>
<pdfrwt beam="1">  1       13 0.10000000E+01 0.52621557E+02</pdfrwt>
<pdfrwt beam="2">  1       22 0.24337445E+00 0.52621557E+02</pdfrwt>
<totfact> 0.31107856E-01</totfact>
</mgrwt>
</event>
<event>
 4    1  0.2505250E+000  0.5123759E+02  0.7957747E-01  0.1438778E+00
         13   -1    0    0    0    0  0.00000000000E+00  0.00000000000E+00  0.99999944183E+02  0.10000000000E+03  0.10566000000E+00 0. -1.
         22   -1    0    0    0    0 -0.00000000000E+00 -0.00000000000E+00 -0.11828375141E+02  0.11828375141E+02  0.00000000000E+00 0. -1.
         13    1    1    2    0    0 -0.91990699420E+01  0.63771335319E+01  0.17079111941E+01  0.11323376023E+02  0.10566000000E+00 0.  1.
        996    1    1    2    0    0  0.91990699420E+01 -0.63771335319E+01  0.86463657847E+02  0.10050499912E+03  0.50000000000E+02 0.  0.
<mgrwt>
<rscale>  0 0.51237591E+02</rscale>
<asrwt>0</asrwt>
<pdfrwt beam="1">  1       13 0.10000000E+01 0.51237591E+02</pdfrwt>
<pdfrwt beam="2">  1       22 0.11828400E+00 0.51237591E+02</pdfrwt>
<totfact> 0.10969670E+00</totfact>
</mgrwt>
</event>
<event>
 4    1  0.2505250E+000  0.5445816E+02  0.7957747E-01  0.1422679E+00
         13   -1    0    0    0    0  0.00000000000E+00  0.00000000000E+00  0.99999944172E+02  0.99999999992E+02  0.10566000000E+00 0. -1.
         22   -1    0    0    0    0 -0.00000000000E+00 -0.00000000000E+00 -0.17264073778E+02  0.17264073778E+02  0.00000000000E+00 0. -1.
         13    1    1    2    0    0  0.62219298287E+01  0.20663471206E+02  0.48114584023E+02  0.52732492951E+02  0.10566000000E+00 0.  1.
        996    1    1    2    0    0 -0.62219298287E+01 -0.20663471206E+02  0.34621286371E+02  0.64531580819E+02  0.50000000000E+02 0.  0.
<mgrwt>
<rscale>  0 0.54458162E+02</rscale>
<asrwt>0</asrwt>
<pdfrwt beam="1">  1       13 0.10000000E+01 0.54458162E+02</pdfrwt>
<pdfrwt beam="2">  1       22 0.17264097E+00 0.54458162E+02</pdfrwt>
<totfact> 0.59446991E-01</totfact>
</mgrwt>
</event>
<event>
 4    1  0.2505250E+000  0.5886824E+02  0.7957747E-01  0.1402644E+00
         13   -1    0    0    0    0  0.00000000000E+00  0.00000000000E+00  0.99999944173E+02  0.99999999993E+02  0.10566000000E+00 0. -1.
         22   -1    0    0    0    0 -0.00000000000E+00 -0.00000000000E+00 -0.91014819306E+02  0.91014819306E+02  0.00000000000E+00 0.  1.
         13    1    1    2    0    0 -0.10981659903E+02 -0.29066692649E+02 -0.79148353160E+02  0.85029068252E+02  0.10566000000E+00 0.  1.
        996    1    1    2    0    0  0.10981659903E+02  0.29066692649E+02  0.88133478028E+02  0.10598575105E+03  0.50000000000E+02 0.  0.
<mgrwt>
<rscale>  0 0.58868238E+02</rscale>
<asrwt>0</asrwt>
<pdfrwt beam="1">  1       13 0.10000000E+01 0.58868238E+02</pdfrwt>
<pdfrwt beam="2">  1       22 0.91014822E+00 0.58868238E+02</pdfrwt>
<totfact> 0.89679094E-03</totfact>
</mgrwt>
</event>
<event>
 4    1  0.2505250E+000  0.5355092E+02  0.7957747E-01  0.1427079E+00
         13   -1    0    0    0    0  0.00000000000E+00  0.00000000000E+00  0.99999944182E+02  0.10000000000E+03  0.10566000000E+00 0.  1.
         22   -1    0    0    0    0 -0.00000000000E+00 -0.00000000000E+00 -0.13418249869E+02  0.13418249869E+02  0.00000000000E+00 0. -1.
         13    1    1    2    0    0  0.19093529652E+02  0.17714236907E+01  0.17084658037E+02  0.25682630721E+02  0.10566000000E+00 0. -1.
        996    1    1    2    0    0 -0.19093529652E+02 -0.17714236907E+01  0.69497036276E+02  0.87735619150E+02  0.50000000000E+02 0.  0.
<mgrwt>
<rscale>  0 0.53550918E+02</rscale>
<asrwt>0</asrwt>
<pdfrwt beam="1">  1       13 0.10000000E+01 0.53550918E+02</pdfrwt>
<pdfrwt beam="2">  1       22 0.13418274E+00 0.53550918E+02</pdfrwt>
<totfact> 0.90575733E-01</totfact>
</mgrwt>
</event>
<event>
 4    1  0.2505250E+000  0.5108047E+02  0.7957747E-01  0.1439599E+00
         13   -1    0    0    0    0  0.00000000000E+00  0.00000000000E+00  0.99999944173E+02  0.99999999993E+02  0.10566000000E+00 0. -1.
         22   -1    0    0    0    0 -0.00000000000E+00 -0.00000000000E+00 -0.17987817373E+02  0.17987817373E+02  0.00000000000E+00 0. -1.
         13    1    1    2    0    0 -0.20058139351E+01  0.10256285763E+02 -0.88875318126E+01  0.13719113417E+02  0.10566000000E+00 0.  1.
        996    1    1    2    0    0  0.20058139351E+01 -0.10256285763E+02  0.90899658613E+02  0.10426870395E+03  0.50000000000E+02 0.  0.
<mgrwt>
<rscale>  0 0.51080473E+02</rscale>
<asrwt>0</asrwt>
<pdfrwt beam="1">  1       13 0.10000000E+01 0.51080473E+02</pdfrwt>
<pdfrwt beam="2">  1       22 0.17987840E+00 0.51080473E+02</pdfrwt>
<totfact> 0.54910751E-01</totfact>
</mgrwt>
</event>
<event>
 4    1  0.2505250E+000  0.5159492E+02  0.7957747E-01  0.1436924E+00
         13   -1    0    0    0    0  0.00000000000E+00  0.00000000000E+00  0.99999944178E+02  0.99999999998E+02  0.10566000000E+00 0.  1.
         22   -1    0    0    0    0 -0.00000000000E+00 -0.00000000000E+00 -0.16154818978E+02  0.16154818978E+02  0.00000000000E+00 0.  1.
         13    1    1    2    0    0  0.91333761777E+01 -0.88666179778E+01 -0.47861447789E+01  0.13599772816E+02  0.10566000000E+00 0. -1.
        996    1    1    2    0    0 -0.91333761777E+01  0.88666179778E+01  0.88631269979E+02  0.10255504616E+03  0.50000000000E+02 0.  0.
<mgrwt>
<rscale>  0 0.51594917E+02</rscale>
<asrwt>0</asrwt>
<pdfrwt beam="1">  1       13 0.10000000E+01 0.51594917E+02</pdfrwt>
<pdfrwt beam="2">  1       22 0.16154842E+00 0.51594917E+02</pdfrwt>
<totfact> 0.66366583E-01</totfact>
</mgrwt>
</event>
<event>
 4    1  0.2505250E+000  0.5250603E+02  0.7957747E-01  0.1432275E+00
         13   -1    0    0    0    0  0.00000000000E+00  0.00000000000E+00  0.99999944175E+02  0.99999999996E+02  0.10566000000E+00 0. -1.
         22   -1    0    0    0    0 -0.00000000000E+00 -0.00000000000E+00 -0.17653344399E+02  0.17653344399E+02  0.00000000000E+00 0.  1.
         13    1    1    2    0    0 -0.12433977099E+02  0.10113307343E+02 -0.40694895167E+01  0.16536465186E+02  0.10566000000E+00 0.  1.
        996    1    1    2    0    0  0.12433977099E+02 -0.10113307343E+02  0.86416089294E+02  0.10111687921E+03  0.50000000000E+02 0.  0.
<mgrwt>
<rscale>  0 0.52506026E+02</rscale>
<asrwt>0</asrwt>
<pdfrwt beam="1">  1       13 0.10000000E+01 0.52506026E+02</pdfrwt>
<pdfrwt beam="2">  1       22 0.17653367E+00 0.52506026E+02</pdfrwt>
<totfact> 0.56936640E-01</totfact>
</mgrwt>
</event>
<event>
 4    1  0.2505250E+000  0.5122763E+02  0.7957747E-01  0.1438830E+00
         13   -1    0    0    0    0  0.00000000000E+00  0.00000000000E+00  0.99999944180E+02  0.10000000000E+03  0.10566000000E+00 0.  1.
         22   -1    0    0    0    0 -0.00000000000E+00 -0.00000000000E+00 -0.97274567646E+01  0.97274567646E+01  0.00000000000E+00 0.  1.
         13    1    1    2    0    0  0.96645082422E+01  0.55558605654E+01  0.15796689227E+02  0.19334344074E+02  0.10566000000E+00 0. -1.
        996    1    1    2    0    0 -0.96645082422E+01 -0.55558605654E+01  0.74475798188E+02  0.90393112691E+02  0.50000000000E+02 0.  0.
<mgrwt>
<rscale>  0 0.51227632E+02</rscale>
<asrwt>0</asrwt>
<pdfrwt beam="1">  1       13 0.10000000E+01 0.51227632E+02</pdfrwt>
<pdfrwt beam="2">  1       22 0.97274820E-01 0.51227632E+02</pdfrwt>
<totfact> 0.14643896E+00</totfact>
</mgrwt>
</event>
<event>
 4    1  0.2505250E+000  0.5144546E+02  0.7957747E-01  0.1437697E+00
         13   -1    0    0    0    0  0.00000000000E+00  0.00000000000E+00  0.99999944174E+02  0.99999999994E+02  0.10566000000E+00 0.  1.
         22   -1    0    0    0    0 -0.00000000000E+00 -0.00000000000E+00 -0.10135390077E+02  0.10135390077E+02  0.00000000000E+00 0.  1.
         13    1    1    2    0    0  0.91084705574E+01 -0.79794138974E+01  0.19850021142E+02  0.23252307098E+02  0.10566000000E+00 0. -1.
        996    1    1    2    0    0 -0.91084705574E+01  0.79794138974E+01  0.70014532955E+02  0.86883082973E+02  0.50000000000E+02 0.  0.
<mgrwt>
<rscale>  0 0.51445459E+02</rscale>
<asrwt>0</asrwt>
<pdfrwt beam="1">  1       13 0.10000000E+01 0.51445459E+02</pdfrwt>
<pdfrwt beam="2">  1       22 0.10135415E+00 0.51445459E+02</pdfrwt>
<totfact> 0.13806971E+00</totfact>
</mgrwt>
</event>
<event>
 4    1  0.2505250E+000  0.5905431E+02  0.7957747E-01  0.1401844E+00
         13   -1    0    0    0    0  0.00000000000E+00  0.00000000000E+00  0.99999944178E+02  0.99999999998E+02  0.10566000000E+00 0. -1.
         22   -1    0    0    0    0 -0.00000000000E+00 -0.00000000000E+00 -0.31703556869E+02  0.31703556869E+02  0.00000000000E+00 0.  1.
         13    1    1    2    0    0  0.16069194218E+02  0.27003568673E+02 -0.10591822193E+02  0.33160361657E+02  0.10566000000E+00 0.  1.
        996    1    1    2    0    0 -0.16069194218E+02 -0.27003568673E+02  0.78888209501E+02  0.98543195210E+02  0.50000000000E+02 0.  0.
<mgrwt>
<rscale>  0 0.59054312E+02</rscale>
<asrwt>0</asrwt>
<pdfrwt beam="1">  1       13 0.10000000E+01 0.59054312E+02</pdfrwt>
<pdfrwt beam="2">  1       22 0.31703576E+00 0.59054312E+02</pdfrwt>
<totfact> 0.18860035E-01</totfact>
</mgrwt>
</event>
<event>
 4    1  0.2505250E+000  0.5208658E+02  0.7957747E-01  0.1434401E+00
         13   -1    0    0    0    0  0.00000000000E+00  0.00000000000E+00  0.99999944177E+02  0.99999999997E+02  0.10566000000E+00 0.  1.
         22   -1    0    0    0    0 -0.00000000000E+00 -0.00000000000E+00 -0.11374317960E+02  0.11374317960E+02  0.00000000000E+00 0.  1.
         13    1    1    2    0    0  0.12773947639E+02 -0.70595951712E+01  0.26938019267E+02  0.30637879632E+02  0.10566000000E+00 0. -1.
        996    1    1    2    0    0 -0.12773947639E+02  0.70595951712E+01  0.61687606950E+02  0.80736438325E+02  0.50000000000E+02 0.  0.
<mgrwt>
<rscale>  0 0.52086578E+02</rscale>
<asrwt>0</asrwt>
<pdfrwt beam="1">  1       13 0.10000000E+01 0.52086578E+02</pdfrwt>
<pdfrwt beam="2">  1       22 0.11374343E+00 0.52086578E+02</pdfrwt>
<totfact> 0.11661233E+00</totfact>
</mgrwt>
</event>
<event>
 4    1  0.2505250E+000  0.5104963E+02  0.7957747E-01  0.1439761E+00
         13   -1    0    0    0    0  0.00000000000E+00  0.00000000000E+00  0.99999944181E+02  0.10000000000E+03  0.10566000000E+00 0.  1.
         22   -1    0    0    0    0 -0.00000000000E+00 -0.00000000000E+00 -0.11029954203E+02  0.11029954203E+02  0.00000000000E+00 0.  1.
         13    1    1    2    0    0 -0.19720521474E+01  0.10108180498E+02  0.24731417322E+01  0.10592067631E+02  0.10566000000E+00 0. -1.
        996    1    1    2    0    0  0.19720521474E+01 -0.10108180498E+02  0.86496848246E+02  0.10043788657E+03  0.50000000000E+02 0.  0.
<mgrwt>
<rscale>  0 0.51049626E+02</rscale>
<asrwt>0</asrwt>
<pdfrwt beam="1">  1       13 0.10000000E+01 0.51049626E+02</pdfrwt>
<pdfrwt beam="2">  1       22 0.11029979E+00 0.51049626E+02</pdfrwt>
<totfact> 0.12180715E+00</totfact>
</mgrwt>
</event>
<event>
 4    1  0.2505250E+000  0.5187327E+02  0.7957747E-01  0.1435492E+00
         13   -1    0    0    0    0  0.00000000000E+00  0.00000000000E+00  0.99999944180E+02  0.10000000000E+03  0.10566000000E+00 0.  1.
         22   -1    0    0    0    0 -0.00000000000E+00 -0.00000000000E+00 -0.11011738977E+02  0.11011738977E+02  0.00000000000E+00 0.  1.
         13    1    1    2    0    0  0.55084974195E+01  0.12668586481E+02  0.12748176496E+02  0.18797973169E+02  0.10566000000E+00 0. -1.
        996    1    1    2    0    0 -0.55084974195E+01 -0.12668586481E+02  0.76240028707E+02  0.92213765808E+02  0.50000000000E+02 0.  0.
<mgrwt>
<rscale>  0 0.51873275E+02</rscale>
<asrwt>0</asrwt>
<pdfrwt beam="1">  1       13 0.10000000E+01 0.51873275E+02</pdfrwt>
<pdfrwt beam="2">  1       22 0.11011764E+00 0.51873275E+02</pdfrwt>
<totfact> 0.12234216E+00</totfact>
</mgrwt>
</event>
<event>
 4    1  0.2505250E+000  0.5114343E+02  0.7957747E-01  0.1439270E+00
         13   -1    0    0    0    0  0.00000000000E+00  0.00000000000E+00  0.99999944174E+02  0.99999999994E+02  0.10566000000E+00 0. -1.
         22   -1    0    0    0    0 -0.00000000000E+00 -0.00000000000E+00 -0.11297219124E+02  0.11297219124E+02  0.00000000000E+00 0. -1.
         13    1    1    2    0    0 -0.10012384436E+02  0.39245587759E+01  0.24632397094E+01  0.11033073804E+02  0.10566000000E+00 0.  1.
        996    1    1    2    0    0  0.10012384436E+02 -0.39245587759E+01  0.86239485341E+02  0.10026414531E+03  0.50000000000E+02 0.  0.
<mgrwt>
<rscale>  0 0.51143426E+02</rscale>
<asrwt>0</asrwt>
<pdfrwt beam="1">  1       13 0.10000000E+01 0.51143426E+02</pdfrwt>
<pdfrwt beam="2">  1       22 0.11297244E+00 0.51143426E+02</pdfrwt>
<totfact> 0.11755362E+00</totfact>
</mgrwt>
</event>
<event>
 4    1  0.2505250E+000  0.5135761E+02  0.7957747E-01  0.1438154E+00
         13   -1    0    0    0    0  0.00000000000E+00  0.00000000000E+00  0.99999944176E+02  0.99999999996E+02  0.10566000000E+00 0. -1.
         22   -1    0    0    0    0 -0.00000000000E+00 -0.00000000000E+00 -0.10659832645E+02  0.10659832645E+02  0.00000000000E+00 0.  1.
         13    1    1    2    0    0  0.88658522853E+01  0.76811978551E+01  0.71344826875E+01  0.13730118153E+02  0.10566000000E+00 0.  1.
        996    1    1    2    0    0 -0.88658522853E+01 -0.76811978551E+01  0.82205628843E+02  0.96929714488E+02  0.50000000000E+02 0.  0.
<mgrwt>
<rscale>  0 0.51357610E+02</rscale>
<asrwt>0</asrwt>
<pdfrwt beam="1">  1       13 0.10000000E+01 0.51357610E+02</pdfrwt>
<pdfrwt beam="2">  1       22 0.10659858E+00 0.51357610E+02</pdfrwt>
<totfact> 0.12821601E+00</totfact>
</mgrwt>
</event>
<event>
 4    1  0.2505250E+000  0.5110579E+02  0.7957747E-01  0.1439467E+00
         13   -1    0    0    0    0  0.00000000000E+00  0.00000000000E+00  0.99999944173E+02  0.99999999993E+02  0.10566000000E+00 0.  1.
         22   -1    0    0    0    0 -0.00000000000E+00 -0.00000000000E+00 -0.12166164500E+02  0.12166164500E+02  0.00000000000E+00 0.  1.
         13    1    1    2    0    0  0.10433340563E+02  0.17168267931E+01  0.32187720074E-01  0.10574227614E+02  0.10566000000E+00 0. -1.
        996    1    1    2    0    0 -0.10433340563E+02 -0.17168267931E+01  0.87801591952E+02  0.10159193688E+03  0.50000000000E+02 0.  0.
<mgrwt>
<rscale>  0 0.51105793E+02</rscale>
<asrwt>0</asrwt>
<pdfrwt beam="1">  1       13 0.10000000E+01 0.51105793E+02</pdfrwt>
<pdfrwt beam="2">  1       22 0.12166189E+00 0.51105793E+02</pdfrwt>
<totfact> 0.10503709E+00</totfact>
</mgrwt>
</event>
<event>
 4    1  0.2505250E+000  0.5134322E+02  0.7957747E-01  0.1438228E+00
         13   -1    0    0    0    0  0.00000000000E+00  0.00000000000E+00  0.99999944176E+02  0.99999999996E+02  0.10566000000E+00 0.  1.
         22   -1    0    0    0    0 -0.00000000000E+00 -0.00000000000E+00 -0.46784723233E+02  0.46784723233E+02  0.00000000000E+00 0. -1.
         13    1    1    2    0    0  0.87219023651E+01  0.77495137418E+01 -0.39290139759E+02  0.40986007251E+02  0.10566000000E+00 0. -1.
        996    1    1    2    0    0 -0.87219023651E+01 -0.77495137418E+01  0.92505360702E+02  0.10579871598E+03  0.50000000000E+02 0.  0.
<mgrwt>
<rscale>  0 0.51343223E+02</rscale>
<asrwt>0</asrwt>
<pdfrwt beam="1">  1       13 0.10000000E+01 0.51343223E+02</pdfrwt>
<pdfrwt beam="2">  1       22 0.46784738E+00 0.51343223E+02</pdfrwt>
<totfact> 0.87867078E-02</totfact>
</mgrwt>
</event>
<event>
 4    1  0.2505250E+000  0.5184569E+02  0.7957747E-01  0.1435633E+00
         13   -1    0    0    0    0  0.00000000000E+00  0.00000000000E+00  0.99999944180E+02  0.10000000000E+03  0.10566000000E+00 0.  1.
         22   -1    0    0    0    0 -0.00000000000E+00 -0.00000000000E+00 -0.23778184079E+02  0.23778184079E+02  0.00000000000E+00 0.  1.
         13    1    1    2    0    0 -0.12933854394E+02 -0.45487362293E+01 -0.14079117419E+02  0.19652183139E+02  0.10566000000E+00 0. -1.
        996    1    1    2    0    0  0.12933854394E+02  0.45487362293E+01  0.90300877521E+02  0.10412600094E+03  0.50000000000E+02 0.  0.
<mgrwt>
<rscale>  0 0.51845690E+02</rscale>
<asrwt>0</asrwt>
<pdfrwt beam="1">  1       13 0.10000000E+01 0.51845690E+02</pdfrwt>
<pdfrwt beam="2">  1       22 0.23778205E+00 0.51845690E+02</pdfrwt>
<totfact> 0.32517247E-01</totfact>
</mgrwt>
</event>
<event>
 4    1  0.2505250E+000  0.5440330E+02  0.7957747E-01  0.1422942E+00
         13   -1    0    0    0    0  0.00000000000E+00  0.00000000000E+00  0.99999944182E+02  0.10000000000E+03  0.10566000000E+00 0.  1.
         22   -1    0    0    0    0 -0.00000000000E+00 -0.00000000000E+00 -0.23482362836E+02  0.23482362836E+02  0.00000000000E+00 0. -1.
         13    1    1    2    0    0 -0.18161871232E+02  0.11395845257E+02 -0.80703343452E+01  0.22909830123E+02  0.10566000000E+00 0. -1.
        996    1    1    2    0    0  0.18161871232E+02 -0.11395845257E+02  0.84587915691E+02  0.10057253272E+03  0.50000000000E+02 0.  0.
<mgrwt>
<rscale>  0 0.54403298E+02</rscale>
<asrwt>0</asrwt>
<pdfrwt beam="1">  1       13 0.10000000E+01 0.54403298E+02</pdfrwt>
<pdfrwt beam="2">  1       22 0.23482384E+00 0.54403298E+02</pdfrwt>
<totfact> 0.33459343E-01</totfact>
</mgrwt>
</event>
<event>
 4    1  0.2505250E+000  0.5118984E+02  0.7957747E-01  0.1439028E+00
         13   -1    0    0    0    0  0.00000000000E+00  0.00000000000E+00  0.99999944178E+02  0.99999999998E+02  0.10566000000E+00 0.  1.
         22   -1    0    0    0    0 -0.00000000000E+00 -0.00000000000E+00 -0.38799263992E+02  0.38799263992E+02  0.00000000000E+00 0. -1.
         13    1    1    2    0    0  0.16775694531E+01  0.10843690861E+02 -0.31251180858E+02  0.33121704966E+02  0.10566000000E+00 0. -1.
        996    1    1    2    0    0 -0.16775694531E+01 -0.10843690861E+02  0.92451861044E+02  0.10567755902E+03  0.50000000000E+02 0.  0.
<mgrwt>
<rscale>  0 0.51189841E+02</rscale>
<asrwt>0</asrwt>
<pdfrwt beam="1">  1       13 0.10000000E+01 0.51189841E+02</pdfrwt>
<pdfrwt beam="2">  1       22 0.38799281E+00 0.51189841E+02</pdfrwt>
<totfact> 0.13081477E-01</totfact>
</mgrwt>
</event>
<event>
 4    1  0.2505250E+000  0.5196094E+02  0.7957747E-01  0.1435043E+00
         13   -1    0    0    0    0  0.00000000000E+00  0.00000000000E+00  0.99999944176E+02  0.99999999996E+02  0.10566000000E+00 0. -1.
         22   -1    0    0    0    0 -0.00000000000E+00 -0.00000000000E+00 -0.15665283168E+02  0.15665283168E+02  0.00000000000E+00 0.  1.
         13    1    1    2    0    0  0.13745698415E+02  0.33159210252E+01 -0.26078491687E+01  0.14378859429E+02  0.10566000000E+00 0.  1.
        996    1    1    2    0    0 -0.13745698415E+02 -0.33159210252E+01  0.86942510176E+02  0.10128642373E+03  0.50000000000E+02 0.  0.
<mgrwt>
<rscale>  0 0.51960943E+02</rscale>
<asrwt>0</asrwt>
<pdfrwt beam="1">  1       13 0.10000000E+01 0.51960943E+02</pdfrwt>
<pdfrwt beam="2">  1       22 0.15665307E+00 0.51960943E+02</pdfrwt>
<totfact> 0.69993627E-01</totfact>
</mgrwt>
</event>
<event>
 4    1  0.2505250E+000  0.5831152E+02  0.7957747E-01  0.1405057E+00
         13   -1    0    0    0    0  0.00000000000E+00  0.00000000000E+00  0.99999944180E+02  0.10000000000E+03  0.10566000000E+00 0. -1.
         22   -1    0    0    0    0 -0.00000000000E+00 -0.00000000000E+00 -0.50528603733E+02  0.50528603733E+02  0.00000000000E+00 0.  1.
         13    1    1    2    0    0 -0.16783312630E+02  0.24870732415E+02 -0.36123334039E+02  0.46958911187E+02  0.10566000000E+00 0.  1.
        996    1    1    2    0    0  0.16783312630E+02 -0.24870732415E+02  0.85594674486E+02  0.10356969255E+03  0.50000000000E+02 0.  0.
<mgrwt>
<rscale>  0 0.58311516E+02</rscale>
<asrwt>0</asrwt>
<pdfrwt beam="1">  1       13 0.10000000E+01 0.58311516E+02</pdfrwt>
<pdfrwt beam="2">  1       22 0.50528618E+00 0.58311516E+02</pdfrwt>
<totfact> 0.71709766E-02</totfact>
</mgrwt>
</event>
<event>
 4    1  0.2505250E+000  0.5290341E+02  0.7957747E-01  0.1430282E+00
         13   -1    0    0    0    0  0.00000000000E+00  0.00000000000E+00  0.99999944178E+02  0.99999999999E+02  0.10566000000E+00 0.  1.
         22   -1    0    0    0    0 -0.00000000000E+00 -0.00000000000E+00 -0.21077555081E+02  0.21077555081E+02  0.00000000000E+00 0. -1.
         13    1    1    2    0    0  0.15289204723E+02  0.80629099009E+01 -0.82148215635E+01  0.19138044688E+02  0.10566000000E+00 0. -1.
        996    1    1    2    0    0 -0.15289204723E+02 -0.80629099009E+01  0.87137210661E+02  0.10193951039E+03  0.50000000000E+02 0.  0.
<mgrwt>
<rscale>  0 0.52903405E+02</rscale>
<asrwt>0</asrwt>
<pdfrwt beam="1">  1       13 0.10000000E+01 0.52903405E+02</pdfrwt>
<pdfrwt beam="2">  1       22 0.21077577E+00 0.52903405E+02</pdfrwt>
<totfact> 0.41110913E-01</totfact>
</mgrwt>
</event>
<event>
 4    1  0.2505250E+000  0.5971503E+02  0.7957747E-01  0.1399032E+00
         13   -1    0    0    0    0  0.00000000000E+00  0.00000000000E+00  0.99999944179E+02  0.99999999999E+02  0.10566000000E+00 0.  1.
         22   -1    0    0    0    0 -0.00000000000E+00 -0.00000000000E+00 -0.21531557308E+02  0.21531557308E+02  0.00000000000E+00 0. -1.
         13    1    1    2    0    0  0.26120919245E+02 -0.19585270660E+02  0.22185008030E+02  0.39472408013E+02  0.10566000000E+00 0. -1.
        996    1    1    2    0    0 -0.26120919245E+02  0.19585270660E+02  0.56283378841E+02  0.82059149293E+02  0.50000000000E+02 0.  0.
<mgrwt>
<rscale>  0 0.59715034E+02</rscale>
<asrwt>0</asrwt>
<pdfrwt beam="1">  1       13 0.10000000E+01 0.59715034E+02</pdfrwt>
<pdfrwt beam="2">  1       22 0.21531579E+00 0.59715034E+02</pdfrwt>
<totfact> 0.39903785E-01</totfact>
</mgrwt>
</event>
<event>
 4    1  0.2505250E+000  0.5474141E+02  0.7957747E-01  0.1421326E+00
         13   -1    0    0    0    0  0.00000000000E+00  0.00000000000E+00  0.99999944178E+02  0.99999999998E+02  0.10566000000E+00 0. -1.
         22   -1    0    0    0    0 -0.00000000000E+00 -0.00000000000E+00 -0.17365165339E+02  0.17365165339E+02  0.00000000000E+00 0.  1.
         13    1    1    2    0    0  0.17639122945E+02  0.13619243198E+02  0.58060568488E+01  0.23029196766E+02  0.10566000000E+00 0.  1.
        996    1    1    2    0    0 -0.17639122945E+02 -0.13619243198E+02  0.76828721990E+02  0.94335968571E+02  0.50000000000E+02 0.  0.
<mgrwt>
<rscale>  0 0.54741414E+02</rscale>
<asrwt>0</asrwt>
<pdfrwt beam="1">  1       13 0.10000000E+01 0.54741414E+02</pdfrwt>
<pdfrwt beam="2">  1       22 0.17365188E+00 0.54741414E+02</pdfrwt>
<totfact> 0.58867099E-01</totfact>
</mgrwt>
</event>
<event>
 4    1  0.2505250E+000  0.5126167E+02  0.7957747E-01  0.1438653E+00
         13   -1    0    0    0    0  0.00000000000E+00  0.00000000000E+00  0.99999944183E+02  0.10000000000E+03  0.10566000000E+00 0.  1.
         22   -1    0    0    0    0 -0.00000000000E+00 -0.00000000000E+00 -0.17973253950E+02  0.17973253950E+02  0.00000000000E+00 0. -1.
         13    1    1    2    0    0  0.91214955090E+01 -0.66751167402E+01 -0.83620662289E+01  0.14060376221E+02  0.10566000000E+00 0. -1.
        996    1    1    2    0    0 -0.91214955090E+01  0.66751167402E+01  0.90388756462E+02  0.10391287773E+03  0.50000000000E+02 0.  0.
<mgrwt>
<rscale>  0 0.51261671E+02</rscale>
<asrwt>0</asrwt>
<pdfrwt beam="1">  1       13 0.10000000E+01 0.51261671E+02</pdfrwt>
<pdfrwt beam="2">  1       22 0.17973277E+00 0.51261671E+02</pdfrwt>
<totfact> 0.55009630E-01</totfact>
</mgrwt>
</event>
<event>
 4    1  0.2505250E+000  0.7229872E+02  0.7957747E-01  0.1352446E+00
         13   -1    0    0    0    0  0.00000000000E+00  0.00000000000E+00  0.99999944179E+02  0.99999999999E+02  0.10566000000E+00 0. -1.
         22   -1    0    0    0    0 -0.00000000000E+00 -0.00000000000E+00 -0.39091758250E+02  0.39091758250E+02  0.00000000000E+00 0. -1.
         13    1    1    2    0    0  0.43468167125E+02 -0.28941728053E+02  0.19293778141E+02  0.55671951779E+02  0.10566000000E+00 0.  1.
        996    1    1    2    0    0 -0.43468167125E+02  0.28941728053E+02  0.41614407788E+02  0.83419806470E+02  0.50000000000E+02 0.  0.
<mgrwt>
<rscale>  0 0.72298722E+02</rscale>
<asrwt>0</asrwt>
<pdfrwt beam="1">  1       13 0.10000000E+01 0.72298722E+02</pdfrwt>
<pdfrwt beam="2">  1       22 0.39091775E+00 0.72298722E+02</pdfrwt>
<totfact> 0.13094475E-01</totfact>
</mgrwt>
</event>
<event>
 4    1  0.2505250E+000  0.5286784E+02  0.7957747E-01  0.1430460E+00
         13   -1    0    0    0    0  0.00000000000E+00  0.00000000000E+00  0.99999944178E+02  0.99999999999E+02  0.10566000000E+00 0. -1.
         22   -1    0    0    0    0 -0.00000000000E+00 -0.00000000000E+00 -0.18782897729E+02  0.18782897729E+02  0.00000000000E+00 0.  1.
         13    1    1    2    0    0 -0.50512764993E+01  0.16416245317E+02 -0.47853866823E+01  0.17830299894E+02  0.10566000000E+00 0.  1.
        996    1    1    2    0    0  0.50512764993E+01 -0.16416245317E+02  0.86002433132E+02  0.10095259783E+03  0.50000000000E+02 0.  0.
<mgrwt>
<rscale>  0 0.52867840E+02</rscale>
<asrwt>0</asrwt>
<pdfrwt beam="1">  1       13 0.10000000E+01 0.52867840E+02</pdfrwt>
<pdfrwt beam="2">  1       22 0.18782920E+00 0.52867840E+02</pdfrwt>
<totfact> 0.50951314E-01</totfact>
</mgrwt>
</event>
<event>
 4    1  0.2505250E+000  0.5275712E+02  0.7957747E-01  0.1431013E+00
         13   -1    0    0    0    0  0.00000000000E+00  0.00000000000E+00  0.99999944174E+02  0.99999999994E+02  0.10566000000E+00 0.  1.
         22   -1    0    0    0    0 -0.00000000000E+00 -0.00000000000E+00 -0.16635101229E+02  0.16635101229E+02  0.00000000000E+00 0. -1.
         13    1    1    2    0    0 -0.80086325934E+01  0.14804559832E+02 -0.12954454461E+01  0.16882017971E+02  0.10566000000E+00 0. -1.
        996    1    1    2    0    0  0.80086325934E+01 -0.14804559832E+02  0.84660288391E+02  0.99753083252E+02  0.50000000000E+02 0.  0.
<mgrwt>
<rscale>  0 0.52757115E+02</rscale>
<asrwt>0</asrwt>
<pdfrwt beam="1">  1       13 0.10000000E+01 0.52757115E+02</pdfrwt>
<pdfrwt beam="2">  1       22 0.16635125E+00 0.52757115E+02</pdfrwt>
<totfact> 0.63236858E-01</totfact>
</mgrwt>
</event>
<event>
 4    1  0.2505250E+000  0.5269900E+02  0.7957747E-01  0.1431305E+00
         13   -1    0    0    0    0  0.00000000000E+00  0.00000000000E+00  0.99999944172E+02  0.99999999992E+02  0.10566000000E+00 0.  1.
         22   -1    0    0    0    0 -0.00000000000E+00 -0.00000000000E+00 -0.32895617654E+02  0.32895617654E+02  0.00000000000E+00 0. -1.
         13    1    1    2    0    0 -0.74616463423E+01  0.14883162616E+02 -0.23070646637E+02  0.28450845258E+02  0.10566000000E+00 0. -1.
        996    1    1    2    0    0  0.74616463423E+01 -0.14883162616E+02  0.90174973155E+02  0.10444477239E+03  0.50000000000E+02 0.  0.
<mgrwt>
<rscale>  0 0.52699001E+02</rscale>
<asrwt>0</asrwt>
<pdfrwt beam="1">  1       13 0.10000000E+01 0.52699001E+02</pdfrwt>
<pdfrwt beam="2">  1       22 0.32895636E+00 0.52699001E+02</pdfrwt>
<totfact> 0.17530571E-01</totfact>
</mgrwt>
</event>
<event>
 4    1  0.2505250E+000  0.5385779E+02  0.7957747E-01  0.1425579E+00
         13   -1    0    0    0    0  0.00000000000E+00  0.00000000000E+00  0.99999944177E+02  0.99999999997E+02  0.10566000000E+00 0.  1.
         22   -1    0    0    0    0 -0.00000000000E+00 -0.00000000000E+00 -0.14429400038E+02  0.14429400038E+02  0.00000000000E+00 0. -1.
         13    1    1    2    0    0 -0.72230055519E+01 -0.18667885321E+02  0.12299368582E+02  0.23493560460E+02  0.10566000000E+00 0. -1.
        996    1    1    2    0    0  0.72230055519E+01  0.18667885321E+02  0.73271175557E+02  0.90935839574E+02  0.50000000000E+02 0.  0.
<mgrwt>
<rscale>  0 0.53857792E+02</rscale>
<asrwt>0</asrwt>
<pdfrwt beam="1">  1       13 0.10000000E+01 0.53857792E+02</pdfrwt>
<pdfrwt beam="2">  1       22 0.14429424E+00 0.53857792E+02</pdfrwt>
<totfact> 0.80579674E-01</totfact>
</mgrwt>
</event>
<event>
 4    1  0.2505250E+000  0.7703161E+02  0.7957747E-01  0.1337693E+00
         13   -1    0    0    0    0  0.00000000000E+00  0.00000000000E+00  0.99999944172E+02  0.99999999992E+02  0.10566000000E+00 0.  1.
         22   -1    0    0    0    0 -0.00000000000E+00 -0.00000000000E+00 -0.49431773650E+02  0.49431773650E+02  0.00000000000E+00 0. -1.
         13    1    1    2    0    0  0.50794484028E+02 -0.29219683253E+02  0.25403767200E+01  0.58654361944E+02  0.10566000000E+00 0. -1.
        996    1    1    2    0    0 -0.50794484028E+02  0.29219683253E+02  0.48027793802E+02  0.90777411698E+02  0.50000000000E+02 0.  0.
<mgrwt>
<rscale>  0 0.77031614E+02</rscale>
<asrwt>0</asrwt>
<pdfrwt beam="1">  1       13 0.10000000E+01 0.77031614E+02</pdfrwt>
<pdfrwt beam="2">  1       22 0.49431788E+00 0.77031614E+02</pdfrwt>
<totfact> 0.76687839E-02</totfact>
</mgrwt>
</event>
<event>
 4    1  0.2505250E+000  0.5274707E+02  0.7957747E-01  0.1431064E+00
         13   -1    0    0    0    0  0.00000000000E+00  0.00000000000E+00  0.99999944179E+02  0.10000000000E+03  0.10566000000E+00 0.  1.
         22   -1    0    0    0    0 -0.00000000000E+00 -0.00000000000E+00 -0.15093056122E+02  0.15093056122E+02  0.00000000000E+00 0.  1.
         13    1    1    2    0    0 -0.13013604472E+02 -0.10625427286E+02  0.47622278046E+02  0.50498971640E+02  0.10566000000E+00 0. -1.
        996    1    1    2    0    0  0.13013604472E+02  0.10625427286E+02  0.37284610012E+02  0.64594084482E+02  0.50000000000E+02 0.  0.
<mgrwt>
<rscale>  0 0.52747072E+02</rscale>
<asrwt>0</asrwt>
<pdfrwt beam="1">  1       13 0.10000000E+01 0.52747072E+02</pdfrwt>
<pdfrwt beam="2">  1       22 0.15093080E+00 0.52747072E+02</pdfrwt>
<totfact> 0.74632853E-01</totfact>
</mgrwt>
</event>
<event>
 4    1  0.2505250E+000  0.5121627E+02  0.7957747E-01  0.1438890E+00
         13   -1    0    0    0    0  0.00000000000E+00  0.00000000000E+00  0.99999944184E+02  0.10000000000E+03  0.10566000000E+00 0.  1.
         22   -1    0    0    0    0 -0.00000000000E+00 -0.00000000000E+00 -0.17951448165E+02  0.17951448165E+02  0.00000000000E+00 0. -1.
         13    1    1    2    0    0  0.47072781054E+01  0.10047293841E+02 -0.84624725291E+01  0.13954611640E+02  0.10566000000E+00 0. -1.
        996    1    1    2    0    0 -0.47072781054E+01 -0.10047293841E+02  0.90510968547E+02  0.10399683653E+03  0.50000000000E+02 0.  0.
<mgrwt>
<rscale>  0 0.51216273E+02</rscale>
<asrwt>0</asrwt>
<pdfrwt beam="1">  1       13 0.10000000E+01 0.51216273E+02</pdfrwt>
<pdfrwt beam="2">  1       22 0.17951471E+00 0.51216273E+02</pdfrwt>
<totfact> 0.55124541E-01</totfact>
</mgrwt>
</event>
<event>
 4    1  0.2505250E+000  0.6037567E+02  0.7957747E-01  0.1396262E+00
         13   -1    0    0    0    0  0.00000000000E+00  0.00000000000E+00  0.99999944189E+02  0.10000000001E+03  0.10566000000E+00 0.  1.
         22   -1    0    0    0    0 -0.00000000000E+00 -0.00000000000E+00 -0.36974977275E+02  0.36974977275E+02  0.00000000000E+00 0. -1.
         13    1    1    2    0    0  0.49815358631E+01  0.33472466521E+02 -0.16075724507E+02  0.37465474734E+02  0.10566000000E+00 0. -1.
        996    1    1    2    0    0 -0.49815358631E+01 -0.33472466521E+02  0.79100691421E+02  0.99509502550E+02  0.50000000000E+02 0.  0.
<mgrwt>
<rscale>  0 0.60375672E+02</rscale>
<asrwt>0</asrwt>
<pdfrwt beam="1">  1       13 0.10000000E+01 0.60375672E+02</pdfrwt>
<pdfrwt beam="2">  1       22 0.36974995E+00 0.60375672E+02</pdfrwt>
<totfact> 0.14377099E-01</totfact>
</mgrwt>
</event>
<event>
 4    1  0.2505250E+000  0.5116020E+02  0.7957747E-01  0.1439182E+00
         13   -1    0    0    0    0  0.00000000000E+00  0.00000000000E+00  0.99999944173E+02  0.99999999993E+02  0.10566000000E+00 0. -1.
         22   -1    0    0    0    0 -0.00000000000E+00 -0.00000000000E+00 -0.25888324153E+02  0.25888324153E+02  0.00000000000E+00 0.  1.
         13    1    1    2    0    0 -0.71919026623E+01  0.81020399405E+01 -0.17718717055E+02  0.20768500505E+02  0.10566000000E+00 0.  1.
        996    1    1    2    0    0  0.71919026623E+01 -0.81020399405E+01  0.91830337075E+02  0.10511982364E+03  0.50000000000E+02 0.  0.
<mgrwt>
<rscale>  0 0.51160204E+02</rscale>
<asrwt>0</asrwt>
<pdfrwt beam="1">  1       13 0.10000000E+01 0.51160204E+02</pdfrwt>
<pdfrwt beam="2">  1       22 0.25888345E+00 0.51160204E+02</pdfrwt>
<totfact> 0.27486312E-01</totfact>
</mgrwt>
</event>
<event>
 4    1  0.2505250E+000  0.5175406E+02  0.7957747E-01  0.1436104E+00
         13   -1    0    0    0    0  0.00000000000E+00  0.00000000000E+00  0.99999944178E+02  0.99999999998E+02  0.10566000000E+00 0. -1.
         22   -1    0    0    0    0 -0.00000000000E+00 -0.00000000000E+00 -0.32252474843E+02  0.32252474843E+02  0.00000000000E+00 0.  1.
         13    1    1    2    0    0  0.92232098444E+01 -0.96651251343E+01 -0.23682438601E+02  0.27191015167E+02  0.10566000000E+00 0.  1.
        996    1    1    2    0    0 -0.92232098444E+01  0.96651251343E+01  0.91429907936E+02  0.10506145967E+03  0.50000000000E+02 0.  0.
<mgrwt>
<rscale>  0 0.51754055E+02</rscale>
<asrwt>0</asrwt>
<pdfrwt beam="1">  1       13 0.10000000E+01 0.51754055E+02</pdfrwt>
<pdfrwt beam="2">  1       22 0.32252494E+00 0.51754055E+02</pdfrwt>
<totfact> 0.18136063E-01</totfact>
</mgrwt>
</event>
<event>
 4    1  0.2505250E+000  0.6153965E+02  0.7957747E-01  0.1391482E+00
         13   -1    0    0    0    0  0.00000000000E+00  0.00000000000E+00  0.99999944175E+02  0.99999999995E+02  0.10566000000E+00 0. -1.
         22   -1    0    0    0    0 -0.00000000000E+00 -0.00000000000E+00 -0.42349936619E+02  0.42349936619E+02  0.00000000000E+00 0.  1.
         13    1    1    2    0    0 -0.35869901711E+02 -0.69229570295E+00 -0.21703188426E+02  0.41930521985E+02  0.10566000000E+00 0.  1.
        996    1    1    2    0    0  0.35869901711E+02  0.69229570295E+00  0.79353195981E+02  0.10041941463E+03  0.50000000000E+02 0.  0.
<mgrwt>
<rscale>  0 0.61539655E+02</rscale>
<asrwt>0</asrwt>
<pdfrwt beam="1">  1       13 0.10000000E+01 0.61539655E+02</pdfrwt>
<pdfrwt beam="2">  1       22 0.42349953E+00 0.61539655E+02</pdfrwt>
<totfact> 0.11111450E-01</totfact>
</mgrwt>
</event>
<event>
 4    1  0.2505250E+000  0.5148517E+02  0.7957747E-01  0.1437492E+00
         13   -1    0    0    0    0  0.00000000000E+00  0.00000000000E+00  0.99999944175E+02  0.99999999995E+02  0.10566000000E+00 0. -1.
         22   -1    0    0    0    0 -0.00000000000E+00 -0.00000000000E+00 -0.11650931752E+02  0.11650931752E+02  0.00000000000E+00 0. -1.
         13    1    1    2    0    0 -0.12145711358E+02 -0.17900569124E+01  0.41524314190E+01  0.12960573246E+02  0.10566000000E+00 0.  1.
        996    1    1    2    0    0  0.12145711358E+02  0.17900569124E+01  0.84196581004E+02  0.98690358501E+02  0.50000000000E+02 0.  0.
<mgrwt>
<rscale>  0 0.51485169E+02</rscale>
<asrwt>0</asrwt>
<pdfrwt beam="1">  1       13 0.10000000E+01 0.51485169E+02</pdfrwt>
<pdfrwt beam="2">  1       22 0.11650956E+00 0.51485169E+02</pdfrwt>
<totfact> 0.11230626E+00</totfact>
</mgrwt>
</event>
<event>
 4    1  0.2505250E+000  0.6413073E+02  0.7957747E-01  0.1381271E+00
         13   -1    0    0    0    0  0.00000000000E+00  0.00000000000E+00  0.99999944182E+02  0.10000000000E+03  0.10566000000E+00 0.  1.
         22   -1    0    0    0    0 -0.00000000000E+00 -0.00000000000E+00 -0.53233228430E+02  0.53233228430E+02  0.00000000000E+00 0. -1.
         13    1    1    2    0    0  0.28215979269E+02 -0.28576381839E+02 -0.32222394489E+02  0.51488299212E+02  0.10566000000E+00 0. -1.
        996    1    1    2    0    0 -0.28215979269E+02  0.28576381839E+02  0.78989110241E+02  0.10174492922E+03  0.50000000000E+02 0.  0.
<mgrwt>
<rscale>  0 0.64130734E+02</rscale>
<asrwt>0</asrwt>
<pdfrwt beam="1">  1       13 0.10000000E+01 0.64130734E+02</pdfrwt>
<pdfrwt beam="2">  1       22 0.53233242E+00 0.64130734E+02</pdfrwt>
<totfact> 0.62732572E-02</totfact>
</mgrwt>
</event>
<event>
 4    1  0.2505250E+000  0.5119560E+02  0.7957747E-01  0.1438997E+00
         13   -1    0    0    0    0  0.00000000000E+00  0.00000000000E+00  0.99999944187E+02  0.10000000001E+03  0.10566000000E+00 0. -1.
         22   -1    0    0    0    0 -0.00000000000E+00 -0.00000000000E+00 -0.33403526989E+02  0.33403526989E+02  0.00000000000E+00 0.  1.
         13    1    1    2    0    0 -0.94573808302E+01 -0.56167396535E+01 -0.25646462974E+02  0.27905949968E+02  0.10566000000E+00 0.  1.
        996    1    1    2    0    0  0.94573808302E+01  0.56167396535E+01  0.92242880172E+02  0.10549757703E+03  0.50000000000E+02 0.  0.
<mgrwt>
<rscale>  0 0.51195603E+02</rscale>
<asrwt>0</asrwt>
<pdfrwt beam="1">  1       13 0.10000000E+01 0.51195603E+02</pdfrwt>
<pdfrwt beam="2">  1       22 0.33403546E+00 0.51195603E+02</pdfrwt>
<totfact> 0.17034546E-01</totfact>
</mgrwt>
</event>
<event>
 4    1  0.2505250E+000  0.5294613E+02  0.7957747E-01  0.1430069E+00
         13   -1    0    0    0    0  0.00000000000E+00  0.00000000000E+00  0.99999944183E+02  0.10000000000E+03  0.10566000000E+00 0. -1.
         22   -1    0    0    0    0 -0.00000000000E+00 -0.00000000000E+00 -0.16713680596E+02  0.16713680596E+02  0.00000000000E+00 0. -1.
         13    1    1    2    0    0 -0.12862545849E+02  0.11740867263E+02  0.52843795286E+02  0.55639652354E+02  0.10566000000E+00 0.  1.
        996    1    1    2    0    0  0.12862545849E+02 -0.11740867263E+02  0.30442468302E+02  0.61074028245E+02  0.50000000000E+02 0.  0.
<mgrwt>
<rscale>  0 0.52946133E+02</rscale>
<asrwt>0</asrwt>
<pdfrwt beam="1">  1       13 0.10000000E+01 0.52946133E+02</pdfrwt>
<pdfrwt beam="2">  1       22 0.16713704E+00 0.52946133E+02</pdfrwt>
<totfact> 0.62743441E-01</totfact>
</mgrwt>
</event>
<event>
 4    1  0.2505250E+000  0.5449619E+02  0.7957747E-01  0.1422497E+00
         13   -1    0    0    0    0  0.00000000000E+00  0.00000000000E+00  0.99999944177E+02  0.99999999997E+02  0.10566000000E+00 0. -1.
         22   -1    0    0    0    0 -0.00000000000E+00 -0.00000000000E+00 -0.35829739184E+02  0.35829739184E+02  0.00000000000E+00 0.  1.
         13    1    1    2    0    0 -0.21659649405E+02  0.83301246649E+00 -0.23898115050E+02  0.32263995244E+02  0.10566000000E+00 0.  1.
        996    1    1    2    0    0  0.21659649405E+02 -0.83301246649E+00  0.88068320043E+02  0.10356574394E+03  0.50000000000E+02 0.  0.
<mgrwt>
<rscale>  0 0.54496186E+02</rscale>
<asrwt>0</asrwt>
<pdfrwt beam="1">  1       13 0.10000000E+01 0.54496186E+02</pdfrwt>
<pdfrwt beam="2">  1       22 0.35829757E+00 0.54496186E+02</pdfrwt>
<totfact> 0.15121567E-01</totfact>
</mgrwt>
</event>
<event>
 4    1  0.2505250E+000  0.6505475E+02  0.7957747E-01  0.1377766E+00
         13   -1    0    0    0    0  0.00000000000E+00  0.00000000000E+00  0.99999944184E+02  0.10000000000E+03  0.10566000000E+00 0. -1.
         22   -1    0    0    0    0 -0.00000000000E+00 -0.00000000000E+00 -0.58788479615E+02  0.58788479615E+02  0.00000000000E+00 0.  1.
         13    1    1    2    0    0  0.39949325967E+02 -0.11669285014E+02 -0.37951408864E+02  0.56324430372E+02  0.10566000000E+00 0.  1.
        996    1    1    2    0    0 -0.39949325967E+02  0.11669285014E+02  0.79162873433E+02  0.10246404925E+03  0.50000000000E+02 0.  0.
<mgrwt>
<rscale>  0 0.65054753E+02</rscale>
<asrwt>0</asrwt>
<pdfrwt beam="1">  1       13 0.10000000E+01 0.65054753E+02</pdfrwt>
<pdfrwt beam="2">  1       22 0.58788491E+00 0.65054753E+02</pdfrwt>
<totfact> 0.59989934E-02</totfact>
</mgrwt>
</event>
<event>
 4    1  0.2505250E+000  0.5254506E+02  0.7957747E-01  0.1432078E+00
         13   -1    0    0    0    0  0.00000000000E+00  0.00000000000E+00  0.99999944181E+02  0.10000000000E+03  0.10566000000E+00 0.  1.
         22   -1    0    0    0    0 -0.00000000000E+00 -0.00000000000E+00 -0.13312994919E+02  0.13312994919E+02  0.00000000000E+00 0. -1.
         13    1    1    2    0    0  0.78950525928E+01 -0.14094359509E+02  0.64359856086E+01  0.17390109264E+02  0.10566000000E+00 0. -1.
        996    1    1    2    0    0 -0.78950525928E+01  0.14094359509E+02  0.80250963653E+02  0.95922885657E+02  0.50000000000E+02 0.  0.
<mgrwt>
<rscale>  0 0.52545055E+02</rscale>
<asrwt>0</asrwt>
<pdfrwt beam="1">  1       13 0.10000000E+01 0.52545055E+02</pdfrwt>
<pdfrwt beam="2">  1       22 0.13313019E+00 0.52545055E+02</pdfrwt>
<totfact> 0.91525647E-01</totfact>
</mgrwt>
</event>
<event>
 4    1  0.2505250E+000  0.5233397E+02  0.7957747E-01  0.1433144E+00
         13   -1    0    0    0    0  0.00000000000E+00  0.00000000000E+00  0.99999944183E+02  0.10000000000E+03  0.10566000000E+00 0. -1.
         22   -1    0    0    0    0 -0.00000000000E+00 -0.00000000000E+00 -0.23958033305E+02  0.23958033305E+02  0.00000000000E+00 0.  1.
         13    1    1    2    0    0 -0.14792567270E+02  0.44748422453E+01 -0.13317683610E+02  0.20401375451E+02  0.10566000000E+00 0.  1.
        996    1    1    2    0    0  0.14792567270E+02 -0.44748422453E+01  0.89359594488E+02  0.10355665786E+03  0.50000000000E+02 0.  0.
<mgrwt>
<rscale>  0 0.52333969E+02</rscale>
<asrwt>0</asrwt>
<pdfrwt beam="1">  1       13 0.10000000E+01 0.52333969E+02</pdfrwt>
<pdfrwt beam="2">  1       22 0.23958055E+00 0.52333969E+02</pdfrwt>
<totfact> 0.32066516E-01</totfact>
</mgrwt>
</event>
<event>
 4    1  0.2505250E+000  0.5397937E+02  0.7957747E-01  0.1424988E+00
         13   -1    0    0    0    0  0.00000000000E+00  0.00000000000E+00  0.99999944168E+02  0.99999999989E+02  0.10566000000E+00 0. -1.
         22   -1    0    0    0    0 -0.00000000000E+00 -0.00000000000E+00 -0.41221883848E+02  0.41221883848E+02  0.00000000000E+00 0.  1.
         13    1    1    2    0    0  0.20061346938E+01  0.20242235045E+02 -0.30637851378E+02  0.36775831155E+02  0.10566000000E+00 0.  1.
        996    1    1    2    0    0 -0.20061346938E+01 -0.20242235045E+02  0.89415911698E+02  0.10444605268E+03  0.50000000000E+02 0.  0.
<mgrwt>
<rscale>  0 0.53979373E+02</rscale>
<asrwt>0</asrwt>
<pdfrwt beam="1">  1       13 0.10000000E+01 0.53979373E+02</pdfrwt>
<pdfrwt beam="2">  1       22 0.41221900E+00 0.53979373E+02</pdfrwt>
<totfact> 0.11683600E-01</totfact>
</mgrwt>
</event>
<event>
 4    1  0.2505250E+000  0.5176880E+02  0.7957747E-01  0.1436028E+00
         13   -1    0    0    0    0  0.00000000000E+00  0.00000000000E+00  0.99999944178E+02  0.99999999998E+02  0.10566000000E+00 0. -1.
         22   -1    0    0    0    0 -0.00000000000E+00 -0.00000000000E+00 -0.10918577116E+02  0.10918577116E+02  0.00000000000E+00 0.  1.
         13    1    1    2    0    0  0.94158436956E+01 -0.95577580226E+01  0.11613735463E+02  0.17745390003E+02  0.10566000000E+00 0.  1.
        996    1    1    2    0    0 -0.94158436956E+01  0.95577580226E+01  0.77467631599E+02  0.93173187111E+02  0.50000000000E+02 0.  0.
<mgrwt>
<rscale>  0 0.51768802E+02</rscale>
<asrwt>0</asrwt>
<pdfrwt beam="1">  1       13 0.10000000E+01 0.51768802E+02</pdfrwt>
<pdfrwt beam="2">  1       22 0.10918602E+00 0.51768802E+02</pdfrwt>
<totfact> 0.12386694E+00</totfact>
</mgrwt>
</event>
<event>
 4    1  0.2505250E+000  0.6415097E+02  0.7957747E-01  0.1381194E+00
         13   -1    0    0    0    0  0.00000000000E+00  0.00000000000E+00  0.99999944168E+02  0.99999999988E+02  0.10566000000E+00 0. -1.
         22   -1    0    0    0    0 -0.00000000000E+00 -0.00000000000E+00 -0.27455350035E+02  0.27455350035E+02  0.00000000000E+00 0.  1.
         13    1    1    2    0    0 -0.17599288014E+02 -0.36133249105E+02  0.22251304435E+02  0.45939942779E+02  0.10566000000E+00 0.  1.
        996    1    1    2    0    0  0.17599288014E+02  0.36133249105E+02  0.50293289699E+02  0.81515407244E+02  0.50000000000E+02 0.  0.
<mgrwt>
<rscale>  0 0.64150967E+02</rscale>
<asrwt>0</asrwt>
<pdfrwt beam="1">  1       13 0.10000000E+01 0.64150967E+02</pdfrwt>
<pdfrwt beam="2">  1       22 0.27455370E+00 0.64150967E+02</pdfrwt>
<totfact> 0.24917810E-01</totfact>
</mgrwt>
</event>
<event>
 4    1  0.2505250E+000  0.5147106E+02  0.7957747E-01  0.1437565E+00
         13   -1    0    0    0    0  0.00000000000E+00  0.00000000000E+00  0.99999944179E+02  0.10000000000E+03  0.10566000000E+00 0.  1.
         22   -1    0    0    0    0 -0.00000000000E+00 -0.00000000000E+00 -0.10335587648E+02  0.10335587648E+02  0.00000000000E+00 0.  1.
         13    1    1    2    0    0  0.22472129318E+01  0.12009162951E+02  0.11722618764E+02  0.16932244844E+02  0.10566000000E+00 0. -1.
        996    1    1    2    0    0 -0.22472129318E+01 -0.12009162951E+02  0.77941737767E+02  0.93403342804E+02  0.50000000000E+02 0.  0.
<mgrwt>
<rscale>  0 0.51471059E+02</rscale>
<asrwt>0</asrwt>
<pdfrwt beam="1">  1       13 0.10000000E+01 0.51471059E+02</pdfrwt>
<pdfrwt beam="2">  1       22 0.10335613E+00 0.51471059E+02</pdfrwt>
<totfact> 0.13419795E+00</totfact>
</mgrwt>
</event>
<event>
 4    1  0.2505250E+000  0.5327493E+02  0.7957747E-01  0.1428438E+00
         13   -1    0    0    0    0  0.00000000000E+00  0.00000000000E+00  0.99999944178E+02  0.99999999998E+02  0.10566000000E+00 0.  1.
         22   -1    0    0    0    0 -0.00000000000E+00 -0.00000000000E+00 -0.68127261919E+02  0.68127261919E+02  0.00000000000E+00 0. -1.
         13    1    1    2    0    0 -0.12457485559E+02  0.13528819977E+02 -0.59544155762E+02  0.62319624244E+02  0.10566000000E+00 0. -1.
        996    1    1    2    0    0  0.12457485559E+02 -0.13528819977E+02  0.91416838020E+02  0.10580763767E+03  0.50000000000E+02 0.  0.
<mgrwt>
<rscale>  0 0.53274928E+02</rscale>
<asrwt>0</asrwt>
<pdfrwt beam="1">  1       13 0.10000000E+01 0.53274928E+02</pdfrwt>
<pdfrwt beam="2">  1       22 0.68127271E+00 0.53274928E+02</pdfrwt>
<totfact> 0.83020294E-02</totfact>
</mgrwt>
</event>
<event>
 4    1  0.2505250E+000  0.5152132E+02  0.7957747E-01  0.1437305E+00
         13   -1    0    0    0    0  0.00000000000E+00  0.00000000000E+00  0.99999944183E+02  0.10000000000E+03  0.10566000000E+00 0. -1.
         22   -1    0    0    0    0 -0.00000000000E+00 -0.00000000000E+00 -0.10500187136E+02  0.10500187136E+02  0.00000000000E+00 0. -1.
         13    1    1    2    0    0 -0.10904457202E+02  0.59614928453E+01  0.10964323866E+02  0.16573296163E+02  0.10566000000E+00 0.  1.
        996    1    1    2    0    0  0.10904457202E+02 -0.59614928453E+01  0.78535433180E+02  0.93926890977E+02  0.50000000000E+02 0.  0.
<mgrwt>
<rscale>  0 0.51521322E+02</rscale>
<asrwt>0</asrwt>
<pdfrwt beam="1">  1       13 0.10000000E+01 0.51521322E+02</pdfrwt>
<pdfrwt beam="2">  1       22 0.10500212E+00 0.51521322E+02</pdfrwt>
<totfact> 0.13114422E+00</totfact>
</mgrwt>
</event>
<event>
 4    1  0.2505250E+000  0.5138712E+02  0.7957747E-01  0.1438000E+00
         13   -1    0    0    0    0  0.00000000000E+00  0.00000000000E+00  0.99999944177E+02  0.99999999997E+02  0.10566000000E+00 0.  1.
         22   -1    0    0    0    0 -0.00000000000E+00 -0.00000000000E+00 -0.23939284243E+02  0.23939284243E+02  0.00000000000E+00 0.  1.
         13    1    1    2    0    0  0.41193437564E+01 -0.11120572827E+02 -0.15155648829E+02  0.19244245593E+02  0.10566000000E+00 0. -1.
        996    1    1    2    0    0 -0.41193437564E+01  0.11120572827E+02  0.91216308763E+02  0.10469503865E+03  0.50000000000E+02 0.  0.
<mgrwt>
<rscale>  0 0.51387120E+02</rscale>
<asrwt>0</asrwt>
<pdfrwt beam="1">  1       13 0.10000000E+01 0.51387120E+02</pdfrwt>
<pdfrwt beam="2">  1       22 0.23939305E+00 0.51387120E+02</pdfrwt>
<totfact> 0.32066399E-01</totfact>
</mgrwt>
</event>
<event>
 4    1  0.2505250E+000  0.7599227E+02  0.7957747E-01  0.1340826E+00
         13   -1    0    0    0    0  0.00000000000E+00  0.00000000000E+00  0.99999944173E+02  0.99999999993E+02  0.10566000000E+00 0. -1.
         22   -1    0    0    0    0 -0.00000000000E+00 -0.00000000000E+00 -0.72499311716E+02  0.72499311716E+02  0.00000000000E+00 0.  1.
         13    1    1    2    0    0  0.53221147492E+02 -0.21031759892E+02 -0.40834062971E+02  0.70301190084E+02  0.10566000000E+00 0.  1.
        996    1    1    2    0    0 -0.53221147492E+02  0.21031759892E+02  0.68334695427E+02  0.10219812163E+03  0.50000000000E+02 0.  0.
<mgrwt>
<rscale>  0 0.75992272E+02</rscale>
<asrwt>0</asrwt>
<pdfrwt beam="1">  1       13 0.10000000E+01 0.75992272E+02</pdfrwt>
<pdfrwt beam="2">  1       22 0.72499319E+00 0.75992272E+02</pdfrwt>
<totfact> 0.61355100E-02</totfact>
</mgrwt>
</event>
<event>
 4    1  0.2505250E+000  0.5118973E+02  0.7957747E-01  0.1439028E+00
         13   -1    0    0    0    0  0.00000000000E+00  0.00000000000E+00  0.99999944184E+02  0.10000000000E+03  0.10566000000E+00 0. -1.
         22   -1    0    0    0    0 -0.00000000000E+00 -0.00000000000E+00 -0.15725743986E+02  0.15725743986E+02  0.00000000000E+00 0.  1.
         13    1    1    2    0    0  0.15842003374E+01 -0.10857198379E+02 -0.55823808213E+01  0.12311075787E+02  0.10566000000E+00 0.  1.
        996    1    1    2    0    0 -0.15842003374E+01  0.10857198379E+02  0.89856581019E+02  0.10341466820E+03  0.50000000000E+02 0.  0.
<mgrwt>
<rscale>  0 0.51189730E+02</rscale>
<asrwt>0</asrwt>
<pdfrwt beam="1">  1       13 0.10000000E+01 0.51189730E+02</pdfrwt>
<pdfrwt beam="2">  1       22 0.15725768E+00 0.51189730E+02</pdfrwt>
<totfact> 0.69429493E-01</totfact>
</mgrwt>
</event>
<event>
 4    1  0.2505250E+000  0.5108026E+02  0.7957747E-01  0.1439601E+00
         13   -1    0    0    0    0  0.00000000000E+00  0.00000000000E+00  0.99999944172E+02  0.99999999992E+02  0.10566000000E+00 0.  1.
         22   -1    0    0    0    0 -0.00000000000E+00 -0.00000000000E+00 -0.96666659798E+01  0.96666659798E+01  0.00000000000E+00 0. -1.
         13    1    1    2    0    0 -0.56328454179E+01  0.88013849421E+01  0.99678521367E+01  0.14441695353E+02  0.10566000000E+00 0. -1.
        996    1    1    2    0    0  0.56328454179E+01 -0.88013849421E+01  0.80365426056E+02  0.95224970620E+02  0.50000000000E+02 0.  0.
<mgrwt>
<rscale>  0 0.51080264E+02</rscale>
<asrwt>0</asrwt>
<pdfrwt beam="1">  1       13 0.10000000E+01 0.51080264E+02</pdfrwt>
<pdfrwt beam="2">  1       22 0.96666912E-01 0.51080264E+02</pdfrwt>
<totfact> 0.14770982E+00</totfact>
</mgrwt>
</event>
<event>
 4    1  0.2505250E+000  0.5296517E+02  0.7957747E-01  0.1429974E+00
         13   -1    0    0    0    0  0.00000000000E+00  0.00000000000E+00  0.99999944178E+02  0.99999999998E+02  0.10566000000E+00 0.  1.
         22   -1    0    0    0    0 -0.00000000000E+00 -0.00000000000E+00 -0.16598021005E+02  0.16598021005E+02  0.00000000000E+00 0.  1.
         13    1    1    2    0    0  0.17148529725E+02  0.33521555776E+01 -0.38086731300E+00  0.17477563980E+02  0.10566000000E+00 0. -1.
        996    1    1    2    0    0 -0.17148529725E+02 -0.33521555776E+01  0.83782790486E+02  0.99120457023E+02  0.50000000000E+02 0.  0.
<mgrwt>
<rscale>  0 0.52965168E+02</rscale>
<asrwt>0</asrwt>
<pdfrwt beam="1">  1       13 0.10000000E+01 0.52965168E+02</pdfrwt>
<pdfrwt beam="2">  1       22 0.16598044E+00 0.52965168E+02</pdfrwt>
<totfact> 0.63507819E-01</totfact>
</mgrwt>
</event>
<event>
 4    1  0.2505250E+000  0.5158651E+02  0.7957747E-01  0.1436967E+00
         13   -1    0    0    0    0  0.00000000000E+00  0.00000000000E+00  0.99999944189E+02  0.10000000001E+03  0.10566000000E+00 0. -1.
         22   -1    0    0    0    0 -0.00000000000E+00 -0.00000000000E+00 -0.54752978576E+02  0.54752978576E+02  0.00000000000E+00 0.  1.
         13    1    1    2    0    0  0.21721993956E+01  0.12507969808E+02 -0.47205106711E+02  0.48882522670E+02  0.10566000000E+00 0.  1.
        996    1    1    2    0    0 -0.21721993956E+01 -0.12507969808E+02  0.92452072323E+02  0.10587045592E+03  0.50000000000E+02 0.  0.
<mgrwt>
<rscale>  0 0.51586508E+02</rscale>
<asrwt>0</asrwt>
<pdfrwt beam="1">  1       13 0.10000000E+01 0.51586508E+02</pdfrwt>
<pdfrwt beam="2">  1       22 0.54752991E+00 0.51586508E+02</pdfrwt>
<totfact> 0.59472816E-02</totfact>
</mgrwt>
</event>
<event>
 4    1  0.2505250E+000  0.5099261E+02  0.7957747E-01  0.1440060E+00
         13   -1    0    0    0    0  0.00000000000E+00  0.00000000000E+00  0.99999944176E+02  0.99999999996E+02  0.10566000000E+00 0. -1.
         22   -1    0    0    0    0 -0.00000000000E+00 -0.00000000000E+00 -0.22843412810E+02  0.22843412810E+02  0.00000000000E+00 0.  1.
         13    1    1    2    0    0  0.97604428274E+01  0.22315942598E+01 -0.14697644275E+02  0.17784211211E+02  0.10566000000E+00 0.  1.
        996    1    1    2    0    0 -0.97604428274E+01 -0.22315942598E+01  0.91854175641E+02  0.10505920159E+03  0.50000000000E+02 0.  0.
<mgrwt>
<rscale>  0 0.50992610E+02</rscale>
<asrwt>0</asrwt>
<pdfrwt beam="1">  1       13 0.10000000E+01 0.50992610E+02</pdfrwt>
<pdfrwt beam="2">  1       22 0.22843434E+00 0.50992610E+02</pdfrwt>
<totfact> 0.35110064E-01</totfact>
</mgrwt>
</event>
<event>
 4    1  0.2505250E+000  0.5569484E+02  0.7957747E-01  0.1416841E+00
         13   -1    0    0    0    0  0.00000000000E+00  0.00000000000E+00  0.99999944178E+02  0.99999999998E+02  0.10566000000E+00 0.  1.
         22   -1    0    0    0    0 -0.00000000000E+00 -0.00000000000E+00 -0.48957643906E+02  0.48957643906E+02  0.00000000000E+00 0. -1.
         13    1    1    2    0    0  0.55576294357E+01 -0.23896201044E+02 -0.37228057812E+02  0.44585368920E+02  0.10566000000E+00 0. -1.
        996    1    1    2    0    0 -0.55576294357E+01  0.23896201044E+02  0.88270358084E+02  0.10437227498E+03  0.50000000000E+02 0.  0.
<mgrwt>
<rscale>  0 0.55694844E+02</rscale>
<asrwt>0</asrwt>
<pdfrwt beam="1">  1       13 0.10000000E+01 0.55694844E+02</pdfrwt>
<pdfrwt beam="2">  1       22 0.48957658E+00 0.55694844E+02</pdfrwt>
<totfact> 0.78134634E-02</totfact>
</mgrwt>
</event>
<event>
 4    1  0.2505250E+000  0.5744861E+02  0.7957747E-01  0.1408862E+00
         13   -1    0    0    0    0  0.00000000000E+00  0.00000000000E+00  0.99999944174E+02  0.99999999994E+02  0.10566000000E+00 0. -1.
         22   -1    0    0    0    0 -0.00000000000E+00 -0.00000000000E+00 -0.26032254895E+02  0.26032254895E+02  0.00000000000E+00 0.  1.
         13    1    1    2    0    0  0.25551257324E+02 -0.12143985896E+02 -0.46409820971E+01  0.28668676690E+02  0.10566000000E+00 0.  1.
        996    1    1    2    0    0 -0.25551257324E+02  0.12143985896E+02  0.78608671376E+02  0.97363578199E+02  0.50000000000E+02 0.  0.
<mgrwt>
<rscale>  0 0.57448613E+02</rscale>
<asrwt>0</asrwt>
<pdfrwt beam="1">  1       13 0.10000000E+01 0.57448613E+02</pdfrwt>
<pdfrwt beam="2">  1       22 0.26032276E+00 0.57448613E+02</pdfrwt>
<totfact> 0.27438133E-01</totfact>
</mgrwt>
</event>
<event>
 4    1  0.2505250E+000  0.5271968E+02  0.7957747E-01  0.1431201E+00
         13   -1    0    0    0    0  0.00000000000E+00  0.00000000000E+00  0.99999944179E+02  0.99999999999E+02  0.10566000000E+00 0.  1.
         22   -1    0    0    0    0 -0.00000000000E+00 -0.00000000000E+00 -0.12370477791E+02  0.12370477791E+02  0.00000000000E+00 0. -1.
         13    1    1    2    0    0 -0.11780438131E+02 -0.11856897737E+02  0.13942688850E+02  0.21766361269E+02  0.10566000000E+00 0. -1.
        996    1    1    2    0    0  0.11780438131E+02  0.11856897737E+02  0.73686777538E+02  0.90604116521E+02  0.50000000000E+02 0.  0.
<mgrwt>
<rscale>  0 0.52719681E+02</rscale>
<asrwt>0</asrwt>
<pdfrwt beam="1">  1       13 0.10000000E+01 0.52719681E+02</pdfrwt>
<pdfrwt beam="2">  1       22 0.12370502E+00 0.52719681E+02</pdfrwt>
<totfact> 0.10273900E+00</totfact>
</mgrwt>
</event>
<event>
 4    1  0.2505250E+000  0.5254782E+02  0.7957747E-01  0.1432065E+00
         13   -1    0    0    0    0  0.00000000000E+00  0.00000000000E+00  0.99999944179E+02  0.10000000000E+03  0.10566000000E+00 0.  1.
         22   -1    0    0    0    0 -0.00000000000E+00 -0.00000000000E+00 -0.14684890563E+02  0.14684890563E+02  0.00000000000E+00 0. -1.
         13    1    1    2    0    0  0.11320465446E+02 -0.11537769313E+02  0.21458716622E+01  0.16306102779E+02  0.10566000000E+00 0. -1.
        996    1    1    2    0    0 -0.11320465446E+02  0.11537769313E+02  0.83169181954E+02  0.98378787783E+02  0.50000000000E+02 0.  0.
<mgrwt>
<rscale>  0 0.52547817E+02</rscale>
<asrwt>0</asrwt>
<pdfrwt beam="1">  1       13 0.10000000E+01 0.52547817E+02</pdfrwt>
<pdfrwt beam="2">  1       22 0.14684914E+00 0.52547817E+02</pdfrwt>
<totfact> 0.78077791E-01</totfact>
</mgrwt>
</event>
<event>
 4    1  0.2505250E+000  0.7016324E+02  0.7957747E-01  0.1359539E+00
         13   -1    0    0    0    0  0.00000000000E+00  0.00000000000E+00  0.99999944181E+02  0.10000000000E+03  0.10566000000E+00 0. -1.
         22   -1    0    0    0    0 -0.00000000000E+00 -0.00000000000E+00 -0.66837852790E+02  0.66837852790E+02  0.00000000000E+00 0.  1.
         13    1    1    2    0    0  0.37586818772E+02 -0.31782241254E+02 -0.41499063484E+02  0.64382165532E+02  0.10566000000E+00 0.  1.
        996    1    1    2    0    0 -0.37586818772E+02  0.31782241254E+02  0.74661154875E+02  0.10245568726E+03  0.50000000000E+02 0.  0.
<mgrwt>
<rscale>  0 0.70163237E+02</rscale>
<asrwt>0</asrwt>
<pdfrwt beam="1">  1       13 0.10000000E+01 0.70163237E+02</pdfrwt>
<pdfrwt beam="2">  1       22 0.66837862E+00 0.70163237E+02</pdfrwt>
<totfact> 0.86560968E-02</totfact>
</mgrwt>
</event>
<event>
 4    1  0.2505250E+000  0.5100327E+02  0.7957747E-01  0.1440004E+00
         13   -1    0    0    0    0  0.00000000000E+00  0.00000000000E+00  0.99999944176E+02  0.99999999996E+02  0.10566000000E+00 0. -1.
         22   -1    0    0    0    0 -0.00000000000E+00 -0.00000000000E+00 -0.10529706766E+02  0.10529706766E+02  0.00000000000E+00 0.  1.
         13    1    1    2    0    0 -0.93757257707E+01 -0.36645878476E+01  0.36705783846E+01  0.10715304360E+02  0.10566000000E+00 0.  1.
        996    1    1    2    0    0  0.93757257707E+01  0.36645878476E+01  0.85799659026E+02  0.99814402401E+02  0.50000000000E+02 0.  0.
<mgrwt>
<rscale>  0 0.51003269E+02</rscale>
<asrwt>0</asrwt>
<pdfrwt beam="1">  1       13 0.10000000E+01 0.51003269E+02</pdfrwt>
<pdfrwt beam="2">  1       22 0.10529732E+00 0.51003269E+02</pdfrwt>
<totfact> 0.13044348E+00</totfact>
</mgrwt>
</event>
<event>
 4    1  0.2505250E+000  0.5147637E+02  0.7957747E-01  0.1437537E+00
         13   -1    0    0    0    0  0.00000000000E+00  0.00000000000E+00  0.99999944182E+02  0.10000000000E+03  0.10566000000E+00 0.  1.
         22   -1    0    0    0    0 -0.00000000000E+00 -0.00000000000E+00 -0.10282744501E+02  0.10282744501E+02  0.00000000000E+00 0.  1.
         13    1    1    2    0    0 -0.10849724894E+02  0.56657135274E+01  0.12628825338E+02  0.17587360049E+02  0.10566000000E+00 0. -1.
        996    1    1    2    0    0  0.10849724894E+02 -0.56657135274E+01  0.77088374344E+02  0.92695384454E+02  0.50000000000E+02 0.  0.
<mgrwt>
<rscale>  0 0.51476372E+02</rscale>
<asrwt>0</asrwt>
<pdfrwt beam="1">  1       13 0.10000000E+01 0.51476372E+02</pdfrwt>
<pdfrwt beam="2">  1       22 0.10282770E+00 0.51476372E+02</pdfrwt>
<totfact> 0.13520786E+00</totfact>
</mgrwt>
</event>
<event>
 4    1  0.2505250E+000  0.5222374E+02  0.7957747E-01  0.1433704E+00
         13   -1    0    0    0    0  0.00000000000E+00  0.00000000000E+00  0.99999944179E+02  0.10000000000E+03  0.10566000000E+00 0.  1.
         22   -1    0    0    0    0 -0.00000000000E+00 -0.00000000000E+00 -0.29003336365E+02  0.29003336365E+02  0.00000000000E+00 0. -1.
         13    1    1    2    0    0  0.15045676065E+02  0.97278185882E+00 -0.19421504962E+02  0.24587083842E+02  0.10566000000E+00 0. -1.
        996    1    1    2    0    0 -0.15045676065E+02 -0.97278185882E+00  0.90418112777E+02  0.10441625252E+03  0.50000000000E+02 0.  0.
<mgrwt>
<rscale>  0 0.52223737E+02</rscale>
<asrwt>0</asrwt>
<pdfrwt beam="1">  1       13 0.10000000E+01 0.52223737E+02</pdfrwt>
<pdfrwt beam="2">  1       22 0.29003356E+00 0.52223737E+02</pdfrwt>
<totfact> 0.22073706E-01</totfact>
</mgrwt>
</event>
<event>
 4    1  0.2505250E+000  0.5202120E+02  0.7957747E-01  0.1434735E+00
         13   -1    0    0    0    0  0.00000000000E+00  0.00000000000E+00  0.99999944174E+02  0.99999999994E+02  0.10566000000E+00 0. -1.
         22   -1    0    0    0    0 -0.00000000000E+00 -0.00000000000E+00 -0.23531985662E+02  0.23531985662E+02  0.00000000000E+00 0.  1.
         13    1    1    2    0    0  0.78865613569E+01  0.12000307865E+02 -0.13433711774E+02  0.19664206441E+02  0.10566000000E+00 0.  1.
        996    1    1    2    0    0 -0.78865613569E+01 -0.12000307865E+02  0.89901670286E+02  0.10386777922E+03  0.50000000000E+02 0.  0.
<mgrwt>
<rscale>  0 0.52021200E+02</rscale>
<asrwt>0</asrwt>
<pdfrwt beam="1">  1       13 0.10000000E+01 0.52021200E+02</pdfrwt>
<pdfrwt beam="2">  1       22 0.23532007E+00 0.52021200E+02</pdfrwt>
<totfact> 0.33194970E-01</totfact>
</mgrwt>
</event>
<event>
 4    1  0.2505250E+000  0.5227089E+02  0.7957747E-01  0.1433464E+00
         13   -1    0    0    0    0  0.00000000000E+00  0.00000000000E+00  0.99999944182E+02  0.10000000000E+03  0.10566000000E+00 0.  1.
         22   -1    0    0    0    0 -0.00000000000E+00 -0.00000000000E+00 -0.19478534808E+02  0.19478534808E+02  0.00000000000E+00 0. -1.
         13    1    1    2    0    0  0.46776619267E+01  0.14503995175E+02 -0.75928755240E+01  0.17026723699E+02  0.10566000000E+00 0. -1.
        996    1    1    2    0    0 -0.46776619267E+01 -0.14503995175E+02  0.88114284898E+02  0.10245181111E+03  0.50000000000E+02 0.  0.
<mgrwt>
<rscale>  0 0.52270894E+02</rscale>
<asrwt>0</asrwt>
<pdfrwt beam="1">  1       13 0.10000000E+01 0.52270894E+02</pdfrwt>
<pdfrwt beam="2">  1       22 0.19478557E+00 0.52270894E+02</pdfrwt>
<totfact> 0.47609074E-01</totfact>
</mgrwt>
</event>
<event>
 4    1  0.2505250E+000  0.5156857E+02  0.7957747E-01  0.1437060E+00
         13   -1    0    0    0    0  0.00000000000E+00  0.00000000000E+00  0.99999944187E+02  0.10000000001E+03  0.10566000000E+00 0.  1.
         22   -1    0    0    0    0 -0.00000000000E+00 -0.00000000000E+00 -0.33340880186E+02  0.33340880186E+02  0.00000000000E+00 0. -1.
         13    1    1    2    0    0  0.10752526785E+02 -0.66106782138E+01 -0.25093578403E+02  0.28089441786E+02  0.10566000000E+00 0. -1.
        996    1    1    2    0    0 -0.10752526785E+02  0.66106782138E+01  0.91752642405E+02  0.10525143841E+03  0.50000000000E+02 0.  0.
<mgrwt>
<rscale>  0 0.51568575E+02</rscale>
<asrwt>0</asrwt>
<pdfrwt beam="1">  1       13 0.10000000E+01 0.51568575E+02</pdfrwt>
<pdfrwt beam="2">  1       22 0.33340899E+00 0.51568575E+02</pdfrwt>
<totfact> 0.17098060E-01</totfact>
</mgrwt>
</event>
<event>
 4    1  0.2505250E+000  0.5176787E+02  0.7957747E-01  0.1436033E+00
         13   -1    0    0    0    0  0.00000000000E+00  0.00000000000E+00  0.99999944180E+02  0.10000000000E+03  0.10566000000E+00 0.  1.
         22   -1    0    0    0    0 -0.00000000000E+00 -0.00000000000E+00 -0.10699521781E+02  0.10699521781E+02  0.00000000000E+00 0.  1.
         13    1    1    2    0    0 -0.90293128325E+01 -0.99188706372E+01  0.14740054915E+02  0.19929698138E+02  0.10566000000E+00 0. -1.
        996    1    1    2    0    0  0.90293128325E+01  0.99188706372E+01  0.74560367483E+02  0.90769823643E+02  0.50000000000E+02 0.  0.
<mgrwt>
<rscale>  0 0.51767871E+02</rscale>
<asrwt>0</asrwt>
<pdfrwt beam="1">  1       13 0.10000000E+01 0.51767871E+02</pdfrwt>
<pdfrwt beam="2">  1       22 0.10699547E+00 0.51767871E+02</pdfrwt>
<totfact> 0.12763856E+00</totfact>
</mgrwt>
</event>
<event>
 4    1  0.2505250E+000  0.5102464E+02  0.7957747E-01  0.1439892E+00
         13   -1    0    0    0    0  0.00000000000E+00  0.00000000000E+00  0.99999944184E+02  0.10000000000E+03  0.10566000000E+00 0.  1.
         22   -1    0    0    0    0 -0.00000000000E+00 -0.00000000000E+00 -0.16933561319E+02  0.16933561319E+02  0.00000000000E+00 0. -1.
         13    1    1    2    0    0 -0.92540096382E+01 -0.42281023024E+01 -0.77328659227E+01  0.12779746589E+02  0.10566000000E+00 0. -1.
        996    1    1    2    0    0  0.92540096382E+01  0.42281023024E+01  0.90799248787E+02  0.10415381473E+03  0.50000000000E+02 0.  0.
<mgrwt>
<rscale>  0 0.51024637E+02</rscale>
<asrwt>0</asrwt>
<pdfrwt beam="1">  1       13 0.10000000E+01 0.51024637E+02</pdfrwt>
<pdfrwt beam="2">  1       22 0.16933585E+00 0.51024637E+02</pdfrwt>
<totfact> 0.61099796E-01</totfact>
</mgrwt>
</event>
<event>
 4    1  0.2505250E+000  0.5144700E+02  0.7957747E-01  0.1437689E+00
         13   -1    0    0    0    0  0.00000000000E+00  0.00000000000E+00  0.99999944183E+02  0.10000000000E+03  0.10566000000E+00 0. -1.
         22   -1    0    0    0    0 -0.00000000000E+00 -0.00000000000E+00 -0.11108621366E+02  0.11108621366E+02  0.00000000000E+00 0. -1.
         13    1    1    2    0    0 -0.74816637863E+01 -0.95298836043E+01  0.59288391460E+01  0.13489116805E+02  0.10566000000E+00 0.  1.
        996    1    1    2    0    0  0.74816637863E+01  0.95298836043E+01  0.82962483671E+02  0.97619504564E+02  0.50000000000E+02 0.  0.
<mgrwt>
<rscale>  0 0.51447002E+02</rscale>
<asrwt>0</asrwt>
<pdfrwt beam="1">  1       13 0.10000000E+01 0.51447002E+02</pdfrwt>
<pdfrwt beam="2">  1       22 0.11108646E+00 0.51447002E+02</pdfrwt>
<totfact> 0.12063620E+00</totfact>
</mgrwt>
</event>
<event>
 4    1  0.2505250E+000  0.7381121E+02  0.7957747E-01  0.1347592E+00
         13   -1    0    0    0    0  0.00000000000E+00  0.00000000000E+00  0.99999944175E+02  0.99999999995E+02  0.10566000000E+00 0. -1.
         22   -1    0    0    0    0 -0.00000000000E+00 -0.00000000000E+00 -0.49023144458E+02  0.49023144458E+02  0.00000000000E+00 0.  1.
         13    1    1    2    0    0  0.53394483955E+02  0.98551432699E+01 -0.75567431584E+01  0.54819798403E+02  0.10566000000E+00 0.  1.
        996    1    1    2    0    0 -0.53394483955E+02 -0.98551432699E+01  0.58533542875E+02  0.94203346051E+02  0.50000000000E+02 0.  0.
<mgrwt>
<rscale>  0 0.73811210E+02</rscale>
<asrwt>0</asrwt>
<pdfrwt beam="1">  1       13 0.10000000E+01 0.73811210E+02</pdfrwt>
<pdfrwt beam="2">  1       22 0.49023159E+00 0.73811210E+02</pdfrwt>
<totfact> 0.78390346E-02</totfact>
</mgrwt>
</event>
<event>
 4    1  0.2505250E+000  0.5110863E+02  0.7957747E-01  0.1439452E+00
         13   -1    0    0    0    0  0.00000000000E+00  0.00000000000E+00  0.99999944176E+02  0.99999999997E+02  0.10566000000E+00 0.  1.
         22   -1    0    0    0    0 -0.00000000000E+00 -0.00000000000E+00 -0.25878273566E+02  0.25878273566E+02  0.00000000000E+00 0. -1.
         13    1    1    2    0    0 -0.10507571892E+02  0.12973356366E+01 -0.17795833825E+02  0.20707366138E+02  0.10566000000E+00 0. -1.
        996    1    1    2    0    0  0.10507571892E+02 -0.12973356366E+01  0.91917504435E+02  0.10517090742E+03  0.50000000000E+02 0.  0.
<mgrwt>
<rscale>  0 0.51108631E+02</rscale>
<asrwt>0</asrwt>
<pdfrwt beam="1">  1       13 0.10000000E+01 0.51108631E+02</pdfrwt>
<pdfrwt beam="2">  1       22 0.25878294E+00 0.51108631E+02</pdfrwt>
<totfact> 0.27505098E-01</totfact>
</mgrwt>
</event>
<event>
 4    1  0.2505250E+000  0.5224740E+02  0.7957747E-01  0.1433583E+00
         13   -1    0    0    0    0  0.00000000000E+00  0.00000000000E+00  0.99999944180E+02  0.10000000000E+03  0.10566000000E+00 0.  1.
         22   -1    0    0    0    0 -0.00000000000E+00 -0.00000000000E+00 -0.11941609232E+02  0.11941609232E+02  0.00000000000E+00 0.  1.
         13    1    1    2    0    0  0.84748966273E+01 -0.12568510322E+02  0.10554352442E+02  0.18471514396E+02  0.10566000000E+00 0. -1.
        996    1    1    2    0    0 -0.84748966273E+01  0.12568510322E+02  0.77503982505E+02  0.93470094837E+02  0.50000000000E+02 0.  0.
<mgrwt>
<rscale>  0 0.52247405E+02</rscale>
<asrwt>0</asrwt>
<pdfrwt beam="1">  1       13 0.10000000E+01 0.52247405E+02</pdfrwt>
<pdfrwt beam="2">  1       22 0.11941634E+00 0.52247405E+02</pdfrwt>
<totfact> 0.10835935E+00</totfact>
</mgrwt>
</event>
<event>
 4    1  0.2505250E+000  0.5112471E+02  0.7957747E-01  0.1439368E+00
         13   -1    0    0    0    0  0.00000000000E+00  0.00000000000E+00  0.99999944175E+02  0.99999999995E+02  0.10566000000E+00 0.  1.
         22   -1    0    0    0    0 -0.00000000000E+00 -0.00000000000E+00 -0.11321563950E+02  0.11321563950E+02  0.00000000000E+00 0. -1.
         13    1    1    2    0    0 -0.30315102401E+01 -0.10224794371E+02  0.22432464708E+01  0.10898614271E+02  0.10566000000E+00 0. -1.
        996    1    1    2    0    0  0.30315102401E+01  0.10224794371E+02  0.86435133754E+02  0.10042294967E+03  0.50000000000E+02 0.  0.
<mgrwt>
<rscale>  0 0.51124715E+02</rscale>
<asrwt>0</asrwt>
<pdfrwt beam="1">  1       13 0.10000000E+01 0.51124715E+02</pdfrwt>
<pdfrwt beam="2">  1       22 0.11321589E+00 0.51124715E+02</pdfrwt>
<totfact> 0.11716961E+00</totfact>
</mgrwt>
</event>
<event>
 4    1  0.2505250E+000  0.5958441E+02  0.7957747E-01  0.1399584E+00
         13   -1    0    0    0    0  0.00000000000E+00  0.00000000000E+00  0.99999944166E+02  0.99999999986E+02  0.10566000000E+00 0.  1.
         22   -1    0    0    0    0 -0.00000000000E+00 -0.00000000000E+00 -0.33595785688E+02  0.33595785688E+02  0.00000000000E+00 0. -1.
         13    1    1    2    0    0  0.98264729570E+01 -0.30882723632E+02 -0.12487610362E+02  0.34731164195E+02  0.10566000000E+00 0. -1.
        996    1    1    2    0    0 -0.98264729570E+01  0.30882723632E+02  0.78891768840E+02  0.98864621480E+02  0.50000000000E+02 0.  0.
<mgrwt>
<rscale>  0 0.59584412E+02</rscale>
<asrwt>0</asrwt>
<pdfrwt beam="1">  1       13 0.10000000E+01 0.59584412E+02</pdfrwt>
<pdfrwt beam="2">  1       22 0.33595804E+00 0.59584412E+02</pdfrwt>
<totfact> 0.17012787E-01</totfact>
</mgrwt>
</event>
<event>
 4    1  0.2505250E+000  0.5184504E+02  0.7957747E-01  0.1435637E+00
         13   -1    0    0    0    0  0.00000000000E+00  0.00000000000E+00  0.99999944178E+02  0.99999999998E+02  0.10566000000E+00 0.  1.
         22   -1    0    0    0    0 -0.00000000000E+00 -0.00000000000E+00 -0.11102196335E+02  0.11102196335E+02  0.00000000000E+00 0.  1.
         13    1    1    2    0    0  0.89131306314E+00 -0.13678948769E+02  0.11233526091E+02  0.17723186815E+02  0.10566000000E+00 0. -1.
        996    1    1    2    0    0 -0.89131306314E+00  0.13678948769E+02  0.77664221751E+02  0.93379009518E+02  0.50000000000E+02 0.  0.
<mgrwt>
<rscale>  0 0.51845039E+02</rscale>
<asrwt>0</asrwt>
<pdfrwt beam="1">  1       13 0.10000000E+01 0.51845039E+02</pdfrwt>
<pdfrwt beam="2">  1       22 0.11102221E+00 0.51845039E+02</pdfrwt>
<totfact> 0.12085184E+00</totfact>
</mgrwt>
</event>
<event>
 4    1  0.2505250E+000  0.5467118E+02  0.7957747E-01  0.1421660E+00
         13   -1    0    0    0    0  0.00000000000E+00  0.00000000000E+00  0.99999944191E+02  0.10000000001E+03  0.10566000000E+00 0.  1.
         22   -1    0    0    0    0 -0.00000000000E+00 -0.00000000000E+00 -0.18025169202E+02  0.18025169202E+02  0.00000000000E+00 0.  1.
         13    1    1    2    0    0 -0.35103284490E+01 -0.21831517862E+02  0.35051808903E+01  0.22388278966E+02  0.10566000000E+00 0. -1.
        996    1    1    2    0    0  0.35103284490E+01  0.21831517862E+02  0.78469594099E+02  0.95636890246E+02  0.50000000000E+02 0.  0.
<mgrwt>
<rscale>  0 0.54671177E+02</rscale>
<asrwt>0</asrwt>
<pdfrwt beam="1">  1       13 0.10000000E+01 0.54671177E+02</pdfrwt>
<pdfrwt beam="2">  1       22 0.18025192E+00 0.54671177E+02</pdfrwt>
<totfact> 0.55072447E-01</totfact>
</mgrwt>
</event>
<event>
 4    1  0.2505250E+000  0.5340692E+02  0.7957747E-01  0.1427786E+00
         13   -1    0    0    0    0  0.00000000000E+00  0.00000000000E+00  0.99999944173E+02  0.99999999993E+02  0.10566000000E+00 0.  1.
         22   -1    0    0    0    0 -0.00000000000E+00 -0.00000000000E+00 -0.13521482336E+02  0.13521482336E+02  0.00000000000E+00 0.  1.
         13    1    1    2    0    0  0.10624468345E+02 -0.15473185483E+02  0.32860025520E+02  0.37842981355E+02  0.10566000000E+00 0. -1.
        996    1    1    2    0    0 -0.10624468345E+02  0.15473185483E+02  0.53618436317E+02  0.75678500974E+02  0.50000000000E+02 0.  0.
<mgrwt>
<rscale>  0 0.53406917E+02</rscale>
<asrwt>0</asrwt>
<pdfrwt beam="1">  1       13 0.10000000E+01 0.53406917E+02</pdfrwt>
<pdfrwt beam="2">  1       22 0.13521506E+00 0.53406917E+02</pdfrwt>
<totfact> 0.89446892E-01</totfact>
</mgrwt>
</event>
<event>
 4    1  0.2505250E+000  0.5211756E+02  0.7957747E-01  0.1434244E+00
         13   -1    0    0    0    0  0.00000000000E+00  0.00000000000E+00  0.99999944172E+02  0.99999999992E+02  0.10566000000E+00 0. -1.
         22   -1    0    0    0    0 -0.00000000000E+00 -0.00000000000E+00 -0.20053583950E+02  0.20053583950E+02  0.00000000000E+00 0. -1.
         13    1    1    2    0    0  0.12298081697E+02  0.80621054628E+01 -0.87985092191E+01  0.17136664974E+02  0.10566000000E+00 0.  1.
        996    1    1    2    0    0 -0.12298081697E+02 -0.80621054628E+01  0.88744869441E+02  0.10291691897E+03  0.50000000000E+02 0.  0.
<mgrwt>
<rscale>  0 0.52117563E+02</rscale>
<asrwt>0</asrwt>
<pdfrwt beam="1">  1       13 0.10000000E+01 0.52117563E+02</pdfrwt>
<pdfrwt beam="2">  1       22 0.20053606E+00 0.52117563E+02</pdfrwt>
<totfact> 0.45091691E-01</totfact>
</mgrwt>
</event>
<event>
 4    1  0.2505250E+000  0.5305494E+02  0.7957747E-01  0.1429528E+00
         13   -1    0    0    0    0  0.00000000000E+00  0.00000000000E+00  0.99999944174E+02  0.99999999994E+02  0.10566000000E+00 0.  1.
         22   -1    0    0    0    0 -0.00000000000E+00 -0.00000000000E+00 -0.20246947489E+02  0.20246947489E+02  0.00000000000E+00 0. -1.
         13    1    1    2    0    0 -0.17398912495E+02 -0.34790776327E+01 -0.65719449178E+01  0.18921621528E+02  0.10566000000E+00 0. -1.
        996    1    1    2    0    0  0.17398912495E+02  0.34790776327E+01  0.86324941603E+02  0.10132532596E+03  0.50000000000E+02 0.  0.
<mgrwt>
<rscale>  0 0.53054935E+02</rscale>
<asrwt>0</asrwt>
<pdfrwt beam="1">  1       13 0.10000000E+01 0.53054935E+02</pdfrwt>
<pdfrwt beam="2">  1       22 0.20246970E+00 0.53054935E+02</pdfrwt>
<totfact> 0.44362854E-01</totfact>
</mgrwt>
</event>
<event>
 4    1  0.2505250E+000  0.5101415E+02  0.7957747E-01  0.1439947E+00
         13   -1    0    0    0    0  0.00000000000E+00  0.00000000000E+00  0.99999944185E+02  0.10000000001E+03  0.10566000000E+00 0.  1.
         22   -1    0    0    0    0 -0.00000000000E+00 -0.00000000000E+00 -0.20911690838E+02  0.20911690838E+02  0.00000000000E+00 0. -1.
         13    1    1    2    0    0 -0.10038904490E+02  0.12899730199E+01 -0.12494017478E+02  0.16079653931E+02  0.10566000000E+00 0. -1.
        996    1    1    2    0    0  0.10038904490E+02 -0.12899730199E+01  0.91582270825E+02  0.10483203691E+03  0.50000000000E+02 0.  0.
<mgrwt>
<rscale>  0 0.51014151E+02</rscale>
<asrwt>0</asrwt>
<pdfrwt beam="1">  1       13 0.10000000E+01 0.51014151E+02</pdfrwt>
<pdfrwt beam="2">  1       22 0.20911713E+00 0.51014151E+02</pdfrwt>
<totfact> 0.41593421E-01</totfact>
</mgrwt>
</event>
<event>
 4    1  0.2505250E+000  0.5156476E+02  0.7957747E-01  0.1437080E+00
         13   -1    0    0    0    0  0.00000000000E+00  0.00000000000E+00  0.99999944179E+02  0.99999999999E+02  0.10566000000E+00 0. -1.
         22   -1    0    0    0    0 -0.00000000000E+00 -0.00000000000E+00 -0.14596543167E+02  0.14596543167E+02  0.00000000000E+00 0.  1.
         13    1    1    2    0    0  0.53205969285E+01  0.11428733368E+02 -0.23407843290E+01  0.12822446466E+02  0.10566000000E+00 0.  1.
        996    1    1    2    0    0 -0.53205969285E+01 -0.11428733368E+02  0.87744185341E+02  0.10177409670E+03  0.50000000000E+02 0.  0.
<mgrwt>
<rscale>  0 0.51564762E+02</rscale>
<asrwt>0</asrwt>
<pdfrwt beam="1">  1       13 0.10000000E+01 0.51564762E+02</pdfrwt>
<pdfrwt beam="2">  1       22 0.14596567E+00 0.51564762E+02</pdfrwt>
<totfact> 0.78698994E-01</totfact>
</mgrwt>
</event>
<event>
 4    1  0.2505250E+000  0.5806718E+02  0.7957747E-01  0.1406127E+00
         13   -1    0    0    0    0  0.00000000000E+00  0.00000000000E+00  0.99999944182E+02  0.10000000000E+03  0.10566000000E+00 0. -1.
         22   -1    0    0    0    0 -0.00000000000E+00 -0.00000000000E+00 -0.20227404202E+02  0.20227404202E+02  0.00000000000E+00 0.  1.
         13    1    1    2    0    0  0.26669912225E+02  0.12669394343E+02  0.40524605131E+02  0.50140328641E+02  0.10566000000E+00 0.  1.
        996    1    1    2    0    0 -0.26669912225E+02 -0.12669394343E+02  0.39247934850E+02  0.70087075564E+02  0.50000000000E+02 0.  0.
<mgrwt>
<rscale>  0 0.58067183E+02</rscale>
<asrwt>0</asrwt>
<pdfrwt beam="1">  1       13 0.10000000E+01 0.58067183E+02</pdfrwt>
<pdfrwt beam="2">  1       22 0.20227426E+00 0.58067183E+02</pdfrwt>
<totfact> 0.44815183E-01</totfact>
</mgrwt>
</event>
<event>
 4    1  0.2505250E+000  0.5223477E+02  0.7957747E-01  0.1433647E+00
         13   -1    0    0    0    0  0.00000000000E+00  0.00000000000E+00  0.99999944180E+02  0.10000000000E+03  0.10566000000E+00 0. -1.
         22   -1    0    0    0    0 -0.00000000000E+00 -0.00000000000E+00 -0.12913202455E+02  0.12913202455E+02  0.00000000000E+00 0. -1.
         13    1    1    2    0    0  0.38085862479E+01  0.14627563950E+02  0.55954282205E+01  0.16118031435E+02  0.10566000000E+00 0.  1.
        996    1    1    2    0    0 -0.38085862479E+01 -0.14627563950E+02  0.81491313503E+02  0.96795171020E+02  0.50000000000E+02 0.  0.
<mgrwt>
<rscale>  0 0.52234768E+02</rscale>
<asrwt>0</asrwt>
<pdfrwt beam="1">  1       13 0.10000000E+01 0.52234768E+02</pdfrwt>
<pdfrwt beam="2">  1       22 0.12913227E+00 0.52234768E+02</pdfrwt>
<totfact> 0.95981243E-01</totfact>
</mgrwt>
</event>
<event>
 4    1  0.2505250E+000  0.5369412E+02  0.7957747E-01  0.1426377E+00
         13   -1    0    0    0    0  0.00000000000E+00  0.00000000000E+00  0.99999944176E+02  0.99999999996E+02  0.10566000000E+00 0. -1.
         22   -1    0    0    0    0 -0.00000000000E+00 -0.00000000000E+00 -0.16086302788E+02  0.16086302788E+02  0.00000000000E+00 0.  1.
         13    1    1    2    0    0  0.13038228801E+02 -0.14596685520E+02  0.42686743645E+01  0.20032258567E+02  0.10566000000E+00 0.  1.
        996    1    1    2    0    0 -0.13038228801E+02  0.14596685520E+02  0.79644967023E+02  0.96054044217E+02  0.50000000000E+02 0.  0.
<mgrwt>
<rscale>  0 0.53694121E+02</rscale>
<asrwt>0</asrwt>
<pdfrwt beam="1">  1       13 0.10000000E+01 0.53694121E+02</pdfrwt>
<pdfrwt beam="2">  1       22 0.16086326E+00 0.53694121E+02</pdfrwt>
<totfact> 0.67127385E-01</totfact>
</mgrwt>
</event>
<event>
 4    1  0.2505250E+000  0.5363020E+02  0.7957747E-01  0.1426690E+00
         13   -1    0    0    0    0  0.00000000000E+00  0.00000000000E+00  0.99999944181E+02  0.10000000000E+03  0.10566000000E+00 0. -1.
         22   -1    0    0    0    0 -0.00000000000E+00 -0.00000000000E+00 -0.57540206396E+02  0.57540206396E+02  0.00000000000E+00 0.  1.
         13    1    1    2    0    0 -0.61850379091E+01  0.18383238189E+02 -0.48339395174E+02  0.52085568347E+02  0.10566000000E+00 0.  1.
        996    1    1    2    0    0  0.61850379091E+01 -0.18383238189E+02  0.90799132958E+02  0.10545463805E+03  0.50000000000E+02 0.  0.
<mgrwt>
<rscale>  0 0.53630198E+02</rscale>
<asrwt>0</asrwt>
<pdfrwt beam="1">  1       13 0.10000000E+01 0.53630198E+02</pdfrwt>
<pdfrwt beam="2">  1       22 0.57540218E+00 0.53630198E+02</pdfrwt>
<totfact> 0.57882359E-02</totfact>
</mgrwt>
</event>
<event>
 4    1  0.2505250E+000  0.5299119E+02  0.7957747E-01  0.1429845E+00
         13   -1    0    0    0    0  0.00000000000E+00  0.00000000000E+00  0.99999944179E+02  0.10000000000E+03  0.10566000000E+00 0.  1.
         22   -1    0    0    0    0 -0.00000000000E+00 -0.00000000000E+00 -0.29542882644E+02  0.29542882644E+02  0.00000000000E+00 0. -1.
         13    1    1    2    0    0  0.91694798344E+01  0.14966184029E+02 -0.18813038109E+02  0.25729508191E+02  0.10566000000E+00 0. -1.
        996    1    1    2    0    0 -0.91694798344E+01 -0.14966184029E+02  0.89270099644E+02  0.10381337445E+03  0.50000000000E+02 0.  0.
<mgrwt>
<rscale>  0 0.52991188E+02</rscale>
<asrwt>0</asrwt>
<pdfrwt beam="1">  1       13 0.10000000E+01 0.52991188E+02</pdfrwt>
<pdfrwt beam="2">  1       22 0.29542902E+00 0.52991188E+02</pdfrwt>
<totfact> 0.21337126E-01</totfact>
</mgrwt>
</event>
<event>
 4    1  0.2505250E+000  0.5107599E+02  0.7957747E-01  0.1439623E+00
         13   -1    0    0    0    0  0.00000000000E+00  0.00000000000E+00  0.99999944182E+02  0.10000000000E+03  0.10566000000E+00 0.  1.
         22   -1    0    0    0    0 -0.00000000000E+00 -0.00000000000E+00 -0.94931269333E+01  0.94931269333E+01  0.00000000000E+00 0. -1.
         13    1    1    2    0    0 -0.10403370093E+02 -0.72586524820E+00  0.12928592378E+02  0.16610739133E+02  0.10566000000E+00 0. -1.
        996    1    1    2    0    0  0.10403370093E+02  0.72586524820E+00  0.77578224871E+02  0.92882387802E+02  0.50000000000E+02 0.  0.
<mgrwt>
<rscale>  0 0.51075992E+02</rscale>
<asrwt>0</asrwt>
<pdfrwt beam="1">  1       13 0.10000000E+01 0.51075992E+02</pdfrwt>
<pdfrwt beam="2">  1       22 0.94931522E-01 0.51075992E+02</pdfrwt>
<totfact> 0.15158940E+00</totfact>
</mgrwt>
</event>
<event>
 4    1  0.2505250E+000  0.5335270E+02  0.7957747E-01  0.1428054E+00
         13   -1    0    0    0    0  0.00000000000E+00  0.00000000000E+00  0.99999944181E+02  0.10000000000E+03  0.10566000000E+00 0. -1.
         22   -1    0    0    0    0 -0.00000000000E+00 -0.00000000000E+00 -0.16506178873E+02  0.16506178873E+02  0.00000000000E+00 0.  1.
         13    1    1    2    0    0 -0.32762306064E+01  0.18324223265E+02  0.14907952322E+01  0.18674701597E+02  0.10566000000E+00 0.  1.
        996    1    1    2    0    0  0.32762306064E+01 -0.18324223265E+02  0.82002970075E+02  0.97831477278E+02  0.50000000000E+02 0.  0.
<mgrwt>
<rscale>  0 0.53352702E+02</rscale>
<asrwt>0</asrwt>
<pdfrwt beam="1">  1       13 0.10000000E+01 0.53352702E+02</pdfrwt>
<pdfrwt beam="2">  1       22 0.16506202E+00 0.53352702E+02</pdfrwt>
<totfact> 0.64169488E-01</totfact>
</mgrwt>
</event>
<event>
 4    1  0.2505250E+000  0.5249006E+02  0.7957747E-01  0.1432356E+00
         13   -1    0    0    0    0  0.00000000000E+00  0.00000000000E+00  0.99999944177E+02  0.99999999997E+02  0.10566000000E+00 0. -1.
         22   -1    0    0    0    0 -0.00000000000E+00 -0.00000000000E+00 -0.11721196586E+02  0.11721196586E+02  0.00000000000E+00 0. -1.
         13    1    1    2    0    0  0.45328195122E+01 -0.15318616407E+02  0.19930395559E+02  0.25542871658E+02  0.10566000000E+00 0.  1.
        996    1    1    2    0    0 -0.45328195122E+01  0.15318616407E+02  0.68348352032E+02  0.86178324925E+02  0.50000000000E+02 0.  0.
<mgrwt>
<rscale>  0 0.52490061E+02</rscale>
<asrwt>0</asrwt>
<pdfrwt beam="1">  1       13 0.10000000E+01 0.52490061E+02</pdfrwt>
<pdfrwt beam="2">  1       22 0.11721221E+00 0.52490061E+02</pdfrwt>
<totfact> 0.11153989E+00</totfact>
</mgrwt>
</event>
<event>
 4    1  0.2505250E+000  0.5598266E+02  0.7957747E-01  0.1415508E+00
         13   -1    0    0    0    0  0.00000000000E+00  0.00000000000E+00  0.99999944181E+02  0.10000000000E+03  0.10566000000E+00 0.  1.
         22   -1    0    0    0    0 -0.00000000000E+00 -0.00000000000E+00 -0.16545840675E+02  0.16545840675E+02  0.00000000000E+00 0.  1.
         13    1    1    2    0    0 -0.11520552887E+02 -0.22390520145E+02  0.22283066926E+02  0.33624466789E+02  0.10566000000E+00 0. -1.
        996    1    1    2    0    0  0.11520552887E+02  0.22390520145E+02  0.61171036580E+02  0.82921373888E+02  0.50000000000E+02 0.  0.
<mgrwt>
<rscale>  0 0.55982663E+02</rscale>
<asrwt>0</asrwt>
<pdfrwt beam="1">  1       13 0.10000000E+01 0.55982663E+02</pdfrwt>
<pdfrwt beam="2">  1       22 0.16545864E+00 0.55982663E+02</pdfrwt>
<totfact> 0.64215912E-01</totfact>
</mgrwt>
</event>
<event>
 4    1  0.2505250E+000  0.5167627E+02  0.7957747E-01  0.1436504E+00
         13   -1    0    0    0    0  0.00000000000E+00  0.00000000000E+00  0.99999944179E+02  0.99999999999E+02  0.10566000000E+00 0. -1.
         22   -1    0    0    0    0 -0.00000000000E+00 -0.00000000000E+00 -0.12644902353E+02  0.12644902353E+02  0.00000000000E+00 0.  1.
         13    1    1    2    0    0 -0.91378279822E+01  0.93240229554E+01  0.24998089114E+01  0.13292761674E+02  0.10566000000E+00 0.  1.
        996    1    1    2    0    0  0.91378279822E+01 -0.93240229554E+01  0.84855232915E+02  0.99352140678E+02  0.50000000000E+02 0.  0.
<mgrwt>
<rscale>  0 0.51676274E+02</rscale>
<asrwt>0</asrwt>
<pdfrwt beam="1">  1       13 0.10000000E+01 0.51676274E+02</pdfrwt>
<pdfrwt beam="2">  1       22 0.12644927E+00 0.51676274E+02</pdfrwt>
<totfact> 0.99068144E-01</totfact>
</mgrwt>
</event>
<event>
 4    1  0.2505250E+000  0.5290157E+02  0.7957747E-01  0.1430291E+00
         13   -1    0    0    0    0  0.00000000000E+00  0.00000000000E+00  0.99999944177E+02  0.99999999997E+02  0.10566000000E+00 0. -1.
         22   -1    0    0    0    0 -0.00000000000E+00 -0.00000000000E+00 -0.19494139047E+02  0.19494139047E+02  0.00000000000E+00 0.  1.
         13    1    1    2    0    0 -0.95000958236E+01  0.14433445045E+02 -0.58326414106E+01  0.18237517002E+02  0.10566000000E+00 0.  1.
        996    1    1    2    0    0  0.95000958236E+01 -0.14433445045E+02  0.86338446540E+02  0.10125662204E+03  0.50000000000E+02 0.  0.
<mgrwt>
<rscale>  0 0.52901570E+02</rscale>
<asrwt>0</asrwt>
<pdfrwt beam="1">  1       13 0.10000000E+01 0.52901570E+02</pdfrwt>
<pdfrwt beam="2">  1       22 0.19494162E+00 0.52901570E+02</pdfrwt>
<totfact> 0.47592584E-01</totfact>
</mgrwt>
</event>
<event>
 4    1  0.2505250E+000  0.5610286E+02  0.7957747E-01  0.1414954E+00
         13   -1    0    0    0    0  0.00000000000E+00  0.00000000000E+00  0.99999944178E+02  0.99999999998E+02  0.10566000000E+00 0. -1.
         22   -1    0    0    0    0 -0.00000000000E+00 -0.00000000000E+00 -0.24766236878E+02  0.24766236878E+02  0.00000000000E+00 0. -1.
         13    1    1    2    0    0 -0.11232810502E+02  0.22833199933E+02 -0.59024228606E+01  0.26122419693E+02  0.10566000000E+00 0.  1.
        996    1    1    2    0    0  0.11232810502E+02 -0.22833199933E+02  0.81136130161E+02  0.98643817183E+02  0.50000000000E+02 0.  0.
<mgrwt>
<rscale>  0 0.56102861E+02</rscale>
<asrwt>0</asrwt>
<pdfrwt beam="1">  1       13 0.10000000E+01 0.56102861E+02</pdfrwt>
<pdfrwt beam="2">  1       22 0.24766258E+00 0.56102861E+02</pdfrwt>
<totfact> 0.30216578E-01</totfact>
</mgrwt>
</event>
<event>
 4    1  0.2505250E+000  0.5116781E+02  0.7957747E-01  0.1439143E+00
         13   -1    0    0    0    0  0.00000000000E+00  0.00000000000E+00  0.99999944177E+02  0.99999999997E+02  0.10566000000E+00 0.  1.
         22   -1    0    0    0    0 -0.00000000000E+00 -0.00000000000E+00 -0.10747789410E+02  0.10747789410E+02  0.00000000000E+00 0. -1.
         13    1    1    2    0    0 -0.10591871996E+01  0.10817720867E+02  0.45364057418E+01  0.11778586646E+02  0.10566000000E+00 0. -1.
        996    1    1    2    0    0  0.10591871996E+01 -0.10817720867E+02  0.84715749025E+02  0.98969202761E+02  0.50000000000E+02 0.  0.
<mgrwt>
<rscale>  0 0.51167812E+02</rscale>
<asrwt>0</asrwt>
<pdfrwt beam="1">  1       13 0.10000000E+01 0.51167812E+02</pdfrwt>
<pdfrwt beam="2">  1       22 0.10747814E+00 0.51167812E+02</pdfrwt>
<totfact> 0.12661385E+00</totfact>
</mgrwt>
</event>
<event>
 4    1  0.2505250E+000  0.5193305E+02  0.7957747E-01  0.1435186E+00
         13   -1    0    0    0    0  0.00000000000E+00  0.00000000000E+00  0.99999944189E+02  0.10000000001E+03  0.10566000000E+00 0.  1.
         22   -1    0    0    0    0 -0.00000000000E+00 -0.00000000000E+00 -0.70414687846E+02  0.70414687846E+02  0.00000000000E+00 0. -1.
         13    1    1    2    0    0  0.10667647986E+02  0.91237342645E+01 -0.62845152911E+02  0.64393832382E+02  0.10566000000E+00 0. -1.
        996    1    1    2    0    0 -0.10667647986E+02 -0.91237342645E+01  0.92430409253E+02  0.10602085547E+03  0.50000000000E+02 0.  0.
<mgrwt>
<rscale>  0 0.51933046E+02</rscale>
<asrwt>0</asrwt>
<pdfrwt beam="1">  1       13 0.10000000E+01 0.51933046E+02</pdfrwt>
<pdfrwt beam="2">  1       22 0.70414696E+00 0.51933046E+02</pdfrwt>
<totfact> 0.72503836E-02</totfact>
</mgrwt>
</event>
<event>
 4    1  0.2505250E+000  0.5200743E+02  0.7957747E-01  0.1434805E+00
         13   -1    0    0    0    0  0.00000000000E+00  0.00000000000E+00  0.99999944183E+02  0.10000000000E+03  0.10566000000E+00 0.  1.
         22   -1    0    0    0    0 -0.00000000000E+00 -0.00000000000E+00 -0.11984519812E+02  0.11984519812E+02  0.00000000000E+00 0.  1.
         13    1    1    2    0    0 -0.13901849973E+02 -0.33927813637E+01  0.34552360859E+02  0.37398518728E+02  0.10566000000E+00 0. -1.
        996    1    1    2    0    0  0.13901849973E+02  0.33927813637E+01  0.53463063512E+02  0.74586001087E+02  0.50000000000E+02 0.  0.
<mgrwt>
<rscale>  0 0.52007426E+02</rscale>
<asrwt>0</asrwt>
<pdfrwt beam="1">  1       13 0.10000000E+01 0.52007426E+02</pdfrwt>
<pdfrwt beam="2">  1       22 0.11984544E+00 0.52007426E+02</pdfrwt>
<totfact> 0.10770845E+00</totfact>
</mgrwt>
</event>
<event>
 4    1  0.2505250E+000  0.5176895E+02  0.7957747E-01  0.1436027E+00
         13   -1    0    0    0    0  0.00000000000E+00  0.00000000000E+00  0.99999944174E+02  0.99999999994E+02  0.10566000000E+00 0. -1.
         22   -1    0    0    0    0 -0.00000000000E+00 -0.00000000000E+00 -0.15480875736E+02  0.15480875736E+02  0.00000000000E+00 0.  1.
         13    1    1    2    0    0 -0.29579698368E+01 -0.13087192953E+02 -0.30444075843E+01  0.13758771258E+02  0.10566000000E+00 0.  1.
        996    1    1    2    0    0  0.29579698368E+01  0.13087192953E+02  0.87563476022E+02  0.10172210447E+03  0.50000000000E+02 0.  0.
<mgrwt>
<rscale>  0 0.51768950E+02</rscale>
<asrwt>0</asrwt>
<pdfrwt beam="1">  1       13 0.10000000E+01 0.51768950E+02</pdfrwt>
<pdfrwt beam="2">  1       22 0.15480899E+00 0.51768950E+02</pdfrwt>
<totfact> 0.71381377E-01</totfact>
</mgrwt>
</event>
<event>
 4    1  0.2505250E+000  0.5119297E+02  0.7957747E-01  0.1439011E+00
         13   -1    0    0    0    0  0.00000000000E+00  0.00000000000E+00  0.99999944176E+02  0.99999999996E+02  0.10566000000E+00 0.  1.
         22   -1    0    0    0    0 -0.00000000000E+00 -0.00000000000E+00 -0.19720989247E+02  0.19720989247E+02  0.00000000000E+00 0.  1.
         13    1    1    2    0    0  0.68680398219E+01  0.85761185103E+01 -0.10694337526E+02  0.15332964451E+02  0.10566000000E+00 0. -1.
        996    1    1    2    0    0 -0.68680398219E+01 -0.85761185103E+01  0.90973292455E+02  0.10438802479E+03  0.50000000000E+02 0.  0.
<mgrwt>
<rscale>  0 0.51192966E+02</rscale>
<asrwt>0</asrwt>
<pdfrwt beam="1">  1       13 0.10000000E+01 0.51192966E+02</pdfrwt>
<pdfrwt beam="2">  1       22 0.19721012E+00 0.51192966E+02</pdfrwt>
<totfact> 0.46439536E-01</totfact>
</mgrwt>
</event>
<event>
 4    1  0.2505250E+000  0.5318597E+02  0.7957747E-01  0.1428878E+00
         13   -1    0    0    0    0  0.00000000000E+00  0.00000000000E+00  0.99999944179E+02  0.99999999999E+02  0.10566000000E+00 0.  1.
         22   -1    0    0    0    0 -0.00000000000E+00 -0.00000000000E+00 -0.19992750164E+02  0.19992750164E+02  0.00000000000E+00 0.  1.
         13    1    1    2    0    0 -0.15117176693E+02  0.10010937947E+02  0.60798099496E+02  0.63444211526E+02  0.10566000000E+00 0. -1.
        996    1    1    2    0    0  0.15117176693E+02 -0.10010937947E+02  0.19209094519E+02  0.56548538637E+02  0.50000000000E+02 0.  0.
<mgrwt>
<rscale>  0 0.53185975E+02</rscale>
<asrwt>0</asrwt>
<pdfrwt beam="1">  1       13 0.10000000E+01 0.53185975E+02</pdfrwt>
<pdfrwt beam="2">  1       22 0.19992773E+00 0.53185975E+02</pdfrwt>
<totfact> 0.45434059E-01</totfact>
</mgrwt>
</event>
<event>
 4    1  0.2505250E+000  0.5448024E+02  0.7957747E-01  0.1422573E+00
         13   -1    0    0    0    0  0.00000000000E+00  0.00000000000E+00  0.99999944177E+02  0.99999999997E+02  0.10566000000E+00 0. -1.
         22   -1    0    0    0    0 -0.00000000000E+00 -0.00000000000E+00 -0.15789684918E+02  0.15789684918E+02  0.00000000000E+00 0.  1.
         13    1    1    2    0    0 -0.21615603134E+02  0.92836985897E+00  0.10279337217E+02  0.23953540596E+02  0.10566000000E+00 0.  1.
        996    1    1    2    0    0  0.21615603134E+02 -0.92836985897E+00  0.73930922042E+02  0.91836144319E+02  0.50000000000E+02 0.  0.
<mgrwt>
<rscale>  0 0.54480237E+02</rscale>
<asrwt>0</asrwt>
<pdfrwt beam="1">  1       13 0.10000000E+01 0.54480237E+02</pdfrwt>
<pdfrwt beam="2">  1       22 0.15789708E+00 0.54480237E+02</pdfrwt>
<totfact> 0.69400303E-01</totfact>
</mgrwt>
</event>
<event>
 4    1  0.2505250E+000  0.5107270E+02  0.7957747E-01  0.1439640E+00
         13   -1    0    0    0    0  0.00000000000E+00  0.00000000000E+00  0.99999944176E+02  0.99999999996E+02  0.10566000000E+00 0. -1.
         22   -1    0    0    0    0 -0.00000000000E+00 -0.00000000000E+00 -0.15628287256E+02  0.15628287256E+02  0.00000000000E+00 0. -1.
         13    1    1    2    0    0 -0.83947450199E+01 -0.61602747967E+01 -0.58574609602E+01  0.11947457573E+02  0.10566000000E+00 0.  1.
        996    1    1    2    0    0  0.83947450199E+01  0.61602747967E+01  0.90229117880E+02  0.10368082968E+03  0.50000000000E+02 0.  0.
<mgrwt>
<rscale>  0 0.51072700E+02</rscale>
<asrwt>0</asrwt>
<pdfrwt beam="1">  1       13 0.10000000E+01 0.51072700E+02</pdfrwt>
<pdfrwt beam="2">  1       22 0.15628311E+00 0.51072700E+02</pdfrwt>
<totfact> 0.70148053E-01</totfact>
</mgrwt>
</event>
<event>
 4    1  0.2505250E+000  0.5612829E+02  0.7957747E-01  0.1414837E+00
         13   -1    0    0    0    0  0.00000000000E+00  0.00000000000E+00  0.99999944182E+02  0.10000000000E+03  0.10566000000E+00 0.  1.
         22   -1    0    0    0    0 -0.00000000000E+00 -0.00000000000E+00 -0.66678720283E+02  0.66678720283E+02  0.00000000000E+00 0. -1.
         13    1    1    2    0    0  0.14158323292E+01 -0.25463322720E+02 -0.55802146634E+02  0.61353696857E+02  0.10566000000E+00 0. -1.
        996    1    1    2    0    0 -0.14158323292E+01  0.25463322720E+02  0.89123370532E+02  0.10532502343E+03  0.50000000000E+02 0.  0.
<mgrwt>
<rscale>  0 0.56128294E+02</rscale>
<asrwt>0</asrwt>
<pdfrwt beam="1">  1       13 0.10000000E+01 0.56128294E+02</pdfrwt>
<pdfrwt beam="2">  1       22 0.66678730E+00 0.56128294E+02</pdfrwt>
<totfact> 0.86791830E-02</totfact>
</mgrwt>
</event>
<event>
 4    1  0.2505250E+000  0.5107732E+02  0.7957747E-01  0.1439616E+00
         13   -1    0    0    0    0  0.00000000000E+00  0.00000000000E+00  0.99999944184E+02  0.10000000000E+03  0.10566000000E+00 0.  1.
         22   -1    0    0    0    0 -0.00000000000E+00 -0.00000000000E+00 -0.14731080489E+02  0.14731080489E+02  0.00000000000E+00 0. -1.
         13    1    1    2    0    0 -0.24405349318E+01  0.10145747692E+02 -0.45660148308E+01  0.11390876281E+02  0.10566000000E+00 0. -1.
        996    1    1    2    0    0  0.24405349318E+01 -0.10145747692E+02  0.89834878525E+02  0.10334020421E+03  0.50000000000E+02 0.  0.
<mgrwt>
<rscale>  0 0.51077318E+02</rscale>
<asrwt>0</asrwt>
<pdfrwt beam="1">  1       13 0.10000000E+01 0.51077318E+02</pdfrwt>
<pdfrwt beam="2">  1       22 0.14731104E+00 0.51077318E+02</pdfrwt>
<totfact> 0.77437907E-01</totfact>
</mgrwt>
</event>
<event>
 4    1  0.2505250E+000  0.5315864E+02  0.7957747E-01  0.1429013E+00
         13   -1    0    0    0    0  0.00000000000E+00  0.00000000000E+00  0.99999944171E+02  0.99999999991E+02  0.10566000000E+00 0. -1.
         22   -1    0    0    0    0 -0.00000000000E+00 -0.00000000000E+00 -0.32342885965E+02  0.32342885965E+02  0.00000000000E+00 0.  1.
         13    1    1    2    0    0 -0.16317243240E+02 -0.77193795288E+01 -0.21787532369E+02  0.28293974235E+02  0.10566000000E+00 0.  1.
        996    1    1    2    0    0  0.16317243240E+02  0.77193795288E+01  0.89444590575E+02  0.10404891172E+03  0.50000000000E+02 0.  0.
<mgrwt>
<rscale>  0 0.53158642E+02</rscale>
<asrwt>0</asrwt>
<pdfrwt beam="1">  1       13 0.10000000E+01 0.53158642E+02</pdfrwt>
<pdfrwt beam="2">  1       22 0.32342905E+00 0.53158642E+02</pdfrwt>
<totfact> 0.18075651E-01</totfact>
</mgrwt>
</event>
<event>
 4    1  0.2505250E+000  0.5834731E+02  0.7957747E-01  0.1404901E+00
         13   -1    0    0    0    0  0.00000000000E+00  0.00000000000E+00  0.99999944182E+02  0.10000000000E+03  0.10566000000E+00 0. -1.
         22   -1    0    0    0    0 -0.00000000000E+00 -0.00000000000E+00 -0.33376406702E+02  0.33376406702E+02  0.00000000000E+00 0.  1.
         13    1    1    2    0    0 -0.19523206095E+02  0.22874731239E+02 -0.14550185010E+02  0.33408501214E+02  0.10566000000E+00 0.  1.
        996    1    1    2    0    0  0.19523206095E+02 -0.22874731239E+02  0.81173722490E+02  0.99967905491E+02  0.50000000000E+02 0.  0.
<mgrwt>
<rscale>  0 0.58347313E+02</rscale>
<asrwt>0</asrwt>
<pdfrwt beam="1">  1       13 0.10000000E+01 0.58347313E+02</pdfrwt>
<pdfrwt beam="2">  1       22 0.33376425E+00 0.58347313E+02</pdfrwt>
<totfact> 0.17189939E-01</totfact>
</mgrwt>
</event>
<event>
 4    1  0.2505250E+000  0.5165534E+02  0.7957747E-01  0.1436612E+00
         13   -1    0    0    0    0  0.00000000000E+00  0.00000000000E+00  0.99999944172E+02  0.99999999992E+02  0.10566000000E+00 0. -1.
         22   -1    0    0    0    0 -0.00000000000E+00 -0.00000000000E+00 -0.44319414379E+02  0.44319414379E+02  0.00000000000E+00 0.  1.
         13    1    1    2    0    0  0.26633354715E+01  0.12695687369E+02 -0.36453503629E+02  0.38692931195E+02  0.10566000000E+00 0.  1.
        996    1    1    2    0    0 -0.26633354715E+01 -0.12695687369E+02  0.92134033422E+02  0.10562648318E+03  0.50000000000E+02 0.  0.
<mgrwt>
<rscale>  0 0.51655337E+02</rscale>
<asrwt>0</asrwt>
<pdfrwt beam="1">  1       13 0.10000000E+01 0.51655337E+02</pdfrwt>
<pdfrwt beam="2">  1       22 0.44319430E+00 0.51655337E+02</pdfrwt>
<totfact> 0.10005033E-01</totfact>
</mgrwt>
</event>
<event>
 4    1  0.2505250E+000  0.5188883E+02  0.7957747E-01  0.1435412E+00
         13   -1    0    0    0    0  0.00000000000E+00  0.00000000000E+00  0.99999944178E+02  0.99999999998E+02  0.10566000000E+00 0.  1.
         22   -1    0    0    0    0 -0.00000000000E+00 -0.00000000000E+00 -0.13809321370E+02  0.13809321370E+02  0.00000000000E+00 0.  1.
         13    1    1    2    0    0 -0.54194576775E+01  0.12770276684E+02  0.80852695866E+00  0.13896595554E+02  0.10566000000E+00 0. -1.
        996    1    1    2    0    0  0.54194576775E+01 -0.12770276684E+02  0.85382095849E+02  0.99912725815E+02  0.50000000000E+02 0.  0.
<mgrwt>
<rscale>  0 0.51888828E+02</rscale>
<asrwt>0</asrwt>
<pdfrwt beam="1">  1       13 0.10000000E+01 0.51888828E+02</pdfrwt>
<pdfrwt beam="2">  1       22 0.13809345E+00 0.51888828E+02</pdfrwt>
<totfact> 0.86197350E-01</totfact>
</mgrwt>
</event>
<event>
 4    1  0.2505250E+000  0.5940900E+02  0.7957747E-01  0.1400329E+00
         13   -1    0    0    0    0  0.00000000000E+00  0.00000000000E+00  0.99999944180E+02  0.10000000000E+03  0.10566000000E+00 0. -1.
         22   -1    0    0    0    0 -0.00000000000E+00 -0.00000000000E+00 -0.41550731561E+02  0.41550731561E+02  0.00000000000E+00 0.  1.
         13    1    1    2    0    0 -0.31002638405E+00  0.32083213798E+02 -0.23900279200E+02  0.40008289564E+02  0.10566000000E+00 0.  1.
        996    1    1    2    0    0  0.31002638405E+00 -0.32083213798E+02  0.82349491819E+02  0.10154244200E+03  0.50000000000E+02 0.  0.
<mgrwt>
<rscale>  0 0.59408995E+02</rscale>
<asrwt>0</asrwt>
<pdfrwt beam="1">  1       13 0.10000000E+01 0.59408995E+02</pdfrwt>
<pdfrwt beam="2">  1       22 0.41550748E+00 0.59408995E+02</pdfrwt>
<totfact> 0.11540581E-01</totfact>
</mgrwt>
</event>
<event>
 4    1  0.2505250E+000  0.5134663E+02  0.7957747E-01  0.1438211E+00
         13   -1    0    0    0    0  0.00000000000E+00  0.00000000000E+00  0.99999944179E+02  0.99999999999E+02  0.10566000000E+00 0.  1.
         22   -1    0    0    0    0 -0.00000000000E+00 -0.00000000000E+00 -0.10727577443E+02  0.10727577443E+02  0.00000000000E+00 0.  1.
         13    1    1    2    0    0  0.69923425613E+01  0.93586323678E+01  0.66299812402E+01  0.13432969499E+02  0.10566000000E+00 0. -1.
        996    1    1    2    0    0 -0.69923425613E+01 -0.93586323678E+01  0.82642385496E+02  0.97294607943E+02  0.50000000000E+02 0.  0.
<mgrwt>
<rscale>  0 0.51346634E+02</rscale>
<asrwt>0</asrwt>
<pdfrwt beam="1">  1       13 0.10000000E+01 0.51346634E+02</pdfrwt>
<pdfrwt beam="2">  1       22 0.10727602E+00 0.51346634E+02</pdfrwt>
<totfact> 0.12702008E+00</totfact>
</mgrwt>
</event>
<event>
 4    1  0.2505250E+000  0.5469576E+02  0.7957747E-01  0.1421543E+00
         13   -1    0    0    0    0  0.00000000000E+00  0.00000000000E+00  0.99999944176E+02  0.99999999996E+02  0.10566000000E+00 0. -1.
         22   -1    0    0    0    0 -0.00000000000E+00 -0.00000000000E+00 -0.18678685181E+02  0.18678685181E+02  0.00000000000E+00 0.  1.
         13    1    1    2    0    0  0.22114881077E+02  0.15995403229E+01  0.19117619817E+01  0.22255167764E+02  0.10566000000E+00 0.  1.
        996    1    1    2    0    0 -0.22114881077E+02 -0.15995403229E+01  0.79409497013E+02  0.96423517413E+02  0.50000000000E+02 0.  0.
<mgrwt>
<rscale>  0 0.54695763E+02</rscale>
<asrwt>0</asrwt>
<pdfrwt beam="1">  1       13 0.10000000E+01 0.54695763E+02</pdfrwt>
<pdfrwt beam="2">  1       22 0.18678708E+00 0.54695763E+02</pdfrwt>
<totfact> 0.51639048E-01</totfact>
</mgrwt>
</event>
<event>
 4    1  0.2505250E+000  0.5179908E+02  0.7957747E-01  0.1435873E+00
         13   -1    0    0    0    0  0.00000000000E+00  0.00000000000E+00  0.99999944177E+02  0.99999999997E+02  0.10566000000E+00 0. -1.
         22   -1    0    0    0    0 -0.00000000000E+00 -0.00000000000E+00 -0.13176759129E+02  0.13176759129E+02  0.00000000000E+00 0.  1.
         13    1    1    2    0    0  0.40993648861E+01 -0.12897285285E+02  0.18491360436E+01  0.13659254311E+02  0.10566000000E+00 0.  1.
        996    1    1    2    0    0 -0.40993648861E+01  0.12897285285E+02  0.84974049005E+02  0.99517504814E+02  0.50000000000E+02 0.  0.
<mgrwt>
<rscale>  0 0.51799081E+02</rscale>
<asrwt>0</asrwt>
<pdfrwt beam="1">  1       13 0.10000000E+01 0.51799081E+02</pdfrwt>
<pdfrwt beam="2">  1       22 0.13176783E+00 0.51799081E+02</pdfrwt>
<totfact> 0.92882825E-01</totfact>
</mgrwt>
</event>
<event>
 4    1  0.2505250E+000  0.8428201E+02  0.7957747E-01  0.1317321E+00
         13   -1    0    0    0    0  0.00000000000E+00  0.00000000000E+00  0.99999944182E+02  0.10000000000E+03  0.10566000000E+00 0.  1.
         22   -1    0    0    0    0 -0.00000000000E+00 -0.00000000000E+00 -0.66205199762E+02  0.66205199762E+02  0.00000000000E+00 0. -1.
         13    1    1    2    0    0  0.66925671998E+02  0.11154029938E+02  0.44656667137E+02  0.81226147514E+02  0.10566000000E+00 0. -1.
        996    1    1    2    0    0 -0.66925671998E+02 -0.11154029938E+02 -0.10861922717E+02  0.84979052250E+02  0.50000000000E+02 0.  0.
<mgrwt>
<rscale>  0 0.84282014E+02</rscale>
<asrwt>0</asrwt>
<pdfrwt beam="1">  1       13 0.10000000E+01 0.84282014E+02</pdfrwt>
<pdfrwt beam="2">  1       22 0.66205209E+00 0.84282014E+02</pdfrwt>
<totfact> 0.87216633E-02</totfact>
</mgrwt>
</event>
<event>
 4    1  0.2505250E+000  0.5145373E+02  0.7957747E-01  0.1437655E+00
         13   -1    0    0    0    0  0.00000000000E+00  0.00000000000E+00  0.99999944174E+02  0.99999999994E+02  0.10566000000E+00 0. -1.
         22   -1    0    0    0    0 -0.00000000000E+00 -0.00000000000E+00 -0.57998455512E+02  0.57998455512E+02  0.00000000000E+00 0.  1.
         13    1    1    2    0    0 -0.48397075576E+01 -0.11138390812E+02 -0.50613522194E+02  0.52050228741E+02  0.10566000000E+00 0.  1.
        996    1    1    2    0    0  0.48397075576E+01  0.11138390812E+02  0.92615010855E+02  0.10594822677E+03  0.50000000000E+02 0.  0.
<mgrwt>
<rscale>  0 0.51453732E+02</rscale>
<asrwt>0</asrwt>
<pdfrwt beam="1">  1       13 0.10000000E+01 0.51453732E+02</pdfrwt>
<pdfrwt beam="2">  1       22 0.57998467E+00 0.51453732E+02</pdfrwt>
<totfact> 0.58293428E-02</totfact>
</mgrwt>
</event>
<event>
 4    1  0.2505250E+000  0.5260897E+02  0.7957747E-01  0.1431757E+00
         13   -1    0    0    0    0  0.00000000000E+00  0.00000000000E+00  0.99999944187E+02  0.10000000001E+03  0.10566000000E+00 0.  1.
         22   -1    0    0    0    0 -0.00000000000E+00 -0.00000000000E+00 -0.20310106385E+02  0.20310106385E+02  0.00000000000E+00 0. -1.
         13    1    1    2    0    0 -0.16047514242E+02  0.31907255371E+01 -0.78736783041E+01  0.18157902326E+02  0.10566000000E+00 0. -1.
        996    1    1    2    0    0  0.16047514242E+02 -0.31907255371E+01  0.87563516106E+02  0.10215220407E+03  0.50000000000E+02 0.  0.
<mgrwt>
<rscale>  0 0.52608967E+02</rscale>
<asrwt>0</asrwt>
<pdfrwt beam="1">  1       13 0.10000000E+01 0.52608967E+02</pdfrwt>
<pdfrwt beam="2">  1       22 0.20310129E+00 0.52608967E+02</pdfrwt>
<totfact> 0.44070040E-01</totfact>
</mgrwt>
</event>
<event>
 4    1  0.2505250E+000  0.5104904E+02  0.7957747E-01  0.1439764E+00
         13   -1    0    0    0    0  0.00000000000E+00  0.00000000000E+00  0.99999944176E+02  0.99999999997E+02  0.10566000000E+00 0.  1.
         22   -1    0    0    0    0 -0.00000000000E+00 -0.00000000000E+00 -0.15264002524E+02  0.15264002524E+02  0.00000000000E+00 0. -1.
         13    1    1    2    0    0  0.93670607526E+00  0.10253142605E+02 -0.54369884400E+01  0.11643726159E+02  0.10566000000E+00 0. -1.
        996    1    1    2    0    0 -0.93670607526E+00 -0.10253142605E+02  0.90172930093E+02  0.10362027636E+03  0.50000000000E+02 0.  0.
<mgrwt>
<rscale>  0 0.51049039E+02</rscale>
<asrwt>0</asrwt>
<pdfrwt beam="1">  1       13 0.10000000E+01 0.51049039E+02</pdfrwt>
<pdfrwt beam="2">  1       22 0.15264026E+00 0.51049039E+02</pdfrwt>
<totfact> 0.72986874E-01</totfact>
</mgrwt>
</event>
<event>
 4    1  0.2505250E+000  0.5164961E+02  0.7957747E-01  0.1436642E+00
         13   -1    0    0    0    0  0.00000000000E+00  0.00000000000E+00  0.99999944177E+02  0.99999999998E+02  0.10566000000E+00 0. -1.
         22   -1    0    0    0    0 -0.00000000000E+00 -0.00000000000E+00 -0.13893920767E+02  0.13893920767E+02  0.00000000000E+00 0.  1.
         13    1    1    2    0    0 -0.53551000798E+01  0.11790064334E+02 -0.60722352649E+00  0.12963895954E+02  0.10566000000E+00 0.  1.
        996    1    1    2    0    0  0.53551000798E+01 -0.11790064334E+02  0.86713246937E+02  0.10093002481E+03  0.50000000000E+02 0.  0.
<mgrwt>
<rscale>  0 0.51649615E+02</rscale>
<asrwt>0</asrwt>
<pdfrwt beam="1">  1       13 0.10000000E+01 0.51649615E+02</pdfrwt>
<pdfrwt beam="2">  1       22 0.13893945E+00 0.51649615E+02</pdfrwt>
<totfact> 0.85308635E-01</totfact>
</mgrwt>
</event>
<event>
 4    1  0.2505250E+000  0.6467108E+02  0.7957747E-01  0.1379213E+00
         13   -1    0    0    0    0  0.00000000000E+00  0.00000000000E+00  0.99999944171E+02  0.99999999991E+02  0.10566000000E+00 0.  1.
         22   -1    0    0    0    0 -0.00000000000E+00 -0.00000000000E+00 -0.65426435932E+02  0.65426435932E+02  0.00000000000E+00 0. -1.
         13    1    1    2    0    0 -0.11821820172E+02  0.39275851611E+02 -0.46313119710E+02  0.61864886432E+02  0.10566000000E+00 0. -1.
        996    1    1    2    0    0  0.11821820172E+02 -0.39275851611E+02  0.80886627949E+02  0.10356154949E+03  0.50000000000E+02 0.  0.
<mgrwt>
<rscale>  0 0.64671075E+02</rscale>
<asrwt>0</asrwt>
<pdfrwt beam="1">  1       13 0.10000000E+01 0.64671075E+02</pdfrwt>
<pdfrwt beam="2">  1       22 0.65426446E+00 0.64671075E+02</pdfrwt>
<totfact> 0.87019147E-02</totfact>
</mgrwt>
</event>
<event>
 4    1  0.2505250E+000  0.5568789E+02  0.7957747E-01  0.1416874E+00
         13   -1    0    0    0    0  0.00000000000E+00  0.00000000000E+00  0.99999944177E+02  0.99999999997E+02  0.10566000000E+00 0. -1.
         22   -1    0    0    0    0 -0.00000000000E+00 -0.00000000000E+00 -0.53107129965E+02  0.53107129965E+02  0.00000000000E+00 0.  1.
         13    1    1    2    0    0  0.31053717429E+01 -0.24320722102E+02 -0.41753675635E+02  0.48420258677E+02  0.10566000000E+00 0.  1.
        996    1    1    2    0    0 -0.31053717429E+01  0.24320722102E+02  0.88646489847E+02  0.10468687129E+03  0.50000000000E+02 0.  0.
<mgrwt>
<rscale>  0 0.55687888E+02</rscale>
<asrwt>0</asrwt>
<pdfrwt beam="1">  1       13 0.10000000E+01 0.55687888E+02</pdfrwt>
<pdfrwt beam="2">  1       22 0.53107143E+00 0.55687888E+02</pdfrwt>
<totfact> 0.62920087E-02</totfact>
</mgrwt>
</event>
<event>
 4    1  0.2505250E+000  0.5112434E+02  0.7957747E-01  0.1439370E+00
         13   -1    0    0    0    0  0.00000000000E+00  0.00000000000E+00  0.99999944180E+02  0.10000000000E+03  0.10566000000E+00 0.  1.
         22   -1    0    0    0    0 -0.00000000000E+00 -0.00000000000E+00 -0.24583854922E+02  0.24583854922E+02  0.00000000000E+00 0. -1.
         13    1    1    2    0    0  0.85198397070E+01 -0.64117129321E+01 -0.16360277663E+02  0.19528634888E+02  0.10566000000E+00 0. -1.
        996    1    1    2    0    0 -0.85198397070E+01  0.64117129321E+01  0.91776366920E+02  0.10505522003E+03  0.50000000000E+02 0.  0.
<mgrwt>
<rscale>  0 0.51124336E+02</rscale>
<asrwt>0</asrwt>
<pdfrwt beam="1">  1       13 0.10000000E+01 0.51124336E+02</pdfrwt>
<pdfrwt beam="2">  1       22 0.24583876E+00 0.51124336E+02</pdfrwt>
<totfact> 0.30425666E-01</totfact>
</mgrwt>
</event>
<event>
 4    1  0.2505250E+000  0.5392590E+02  0.7957747E-01  0.1425248E+00
         13   -1    0    0    0    0  0.00000000000E+00  0.00000000000E+00  0.99999944191E+02  0.10000000001E+03  0.10566000000E+00 0. -1.
         22   -1    0    0    0    0 -0.00000000000E+00 -0.00000000000E+00 -0.19468862908E+02  0.19468862908E+02  0.00000000000E+00 0.  1.
         13    1    1    2    0    0 -0.58416073275E+01  0.19335938148E+02 -0.26135535308E+01  0.20367736898E+02  0.10566000000E+00 0.  1.
        996    1    1    2    0    0  0.58416073275E+01 -0.19335938148E+02  0.83144634814E+02  0.99101126021E+02  0.50000000000E+02 0.  0.
<mgrwt>
<rscale>  0 0.53925902E+02</rscale>
<asrwt>0</asrwt>
<pdfrwt beam="1">  1       13 0.10000000E+01 0.53925902E+02</pdfrwt>
<pdfrwt beam="2">  1       22 0.19468885E+00 0.53925902E+02</pdfrwt>
<totfact> 0.47793360E-01</totfact>
</mgrwt>
</event>
<event>
 4    1  0.2505250E+000  0.5507284E+02  0.7957747E-01  0.1419755E+00
         13   -1    0    0    0    0  0.00000000000E+00  0.00000000000E+00  0.99999944185E+02  0.10000000000E+03  0.10566000000E+00 0. -1.
         22   -1    0    0    0    0 -0.00000000000E+00 -0.00000000000E+00 -0.30917846264E+02  0.30917846264E+02  0.00000000000E+00 0.  1.
         13    1    1    2    0    0 -0.31318455021E+01  0.22873772092E+02 -0.17038367620E+02  0.28693815381E+02  0.10566000000E+00 0.  1.
        996    1    1    2    0    0  0.31318455021E+01 -0.22873772092E+02  0.86120465541E+02  0.10222403089E+03  0.50000000000E+02 0.  0.
<mgrwt>
<rscale>  0 0.55072842E+02</rscale>
<asrwt>0</asrwt>
<pdfrwt beam="1">  1       13 0.10000000E+01 0.55072842E+02</pdfrwt>
<pdfrwt beam="2">  1       22 0.30917866E+00 0.55072842E+02</pdfrwt>
<totfact> 0.19655130E-01</totfact>
</mgrwt>
</event>
<event>
 4    1  0.2505250E+000  0.5129579E+02  0.7957747E-01  0.1438475E+00
         13   -1    0    0    0    0  0.00000000000E+00  0.00000000000E+00  0.99999944176E+02  0.99999999996E+02  0.10566000000E+00 0. -1.
         22   -1    0    0    0    0 -0.00000000000E+00 -0.00000000000E+00 -0.10518263363E+02  0.10518263363E+02  0.00000000000E+00 0. -1.
         13    1    1    2    0    0  0.19304020723E+00  0.11455168956E+02  0.71216528602E+01  0.13490265521E+02  0.10566000000E+00 0.  1.
        996    1    1    2    0    0 -0.19304020723E+00 -0.11455168956E+02  0.82360027953E+02  0.97027997839E+02  0.50000000000E+02 0.  0.
<mgrwt>
<rscale>  0 0.51295791E+02</rscale>
<asrwt>0</asrwt>
<pdfrwt beam="1">  1       13 0.10000000E+01 0.51295791E+02</pdfrwt>
<pdfrwt beam="2">  1       22 0.10518288E+00 0.51295791E+02</pdfrwt>
<totfact> 0.13074334E+00</totfact>
</mgrwt>
</event>
<event>
 4    1  0.2505250E+000  0.5569100E+02  0.7957747E-01  0.1416859E+00
         13   -1    0    0    0    0  0.00000000000E+00  0.00000000000E+00  0.99999944185E+02  0.10000000001E+03  0.10566000000E+00 0.  1.
         22   -1    0    0    0    0 -0.00000000000E+00 -0.00000000000E+00 -0.56358990360E+02  0.56358990360E+02  0.00000000000E+00 0.  1.
         13    1    1    2    0    0 -0.20717129750E+02  0.13125856526E+02 -0.45246726093E+02  0.51466153546E+02  0.10566000000E+00 0. -1.
        996    1    1    2    0    0  0.20717129750E+02 -0.13125856526E+02  0.88887679918E+02  0.10489283682E+03  0.50000000000E+02 0.  0.
<mgrwt>
<rscale>  0 0.55691001E+02</rscale>
<asrwt>0</asrwt>
<pdfrwt beam="1">  1       13 0.10000000E+01 0.55691001E+02</pdfrwt>
<pdfrwt beam="2">  1       22 0.56359003E+00 0.55691001E+02</pdfrwt>
<totfact> 0.58206694E-02</totfact>
</mgrwt>
</event>
<event>
 4    1  0.2505250E+000  0.5120367E+02  0.7957747E-01  0.1438955E+00
         13   -1    0    0    0    0  0.00000000000E+00  0.00000000000E+00  0.99999944183E+02  0.10000000000E+03  0.10566000000E+00 0.  1.
         22   -1    0    0    0    0 -0.00000000000E+00 -0.00000000000E+00 -0.30262984585E+02  0.30262984585E+02  0.00000000000E+00 0.  1.
         13    1    1    2    0    0 -0.67715006761E+01 -0.87156281911E+01 -0.22333574923E+02  0.24912148222E+02  0.10566000000E+00 0. -1.
        996    1    1    2    0    0  0.67715006761E+01  0.87156281911E+01  0.92070534521E+02  0.10535083637E+03  0.50000000000E+02 0.  0.
<mgrwt>
<rscale>  0 0.51203666E+02</rscale>
<asrwt>0</asrwt>
<pdfrwt beam="1">  1       13 0.10000000E+01 0.51203666E+02</pdfrwt>
<pdfrwt beam="2">  1       22 0.30263004E+00 0.51203666E+02</pdfrwt>
<totfact> 0.20347671E-01</totfact>
</mgrwt>
</event>
<event>
 4    1  0.2505250E+000  0.5212656E+02  0.7957747E-01  0.1434198E+00
         13   -1    0    0    0    0  0.00000000000E+00  0.00000000000E+00  0.99999944178E+02  0.99999999999E+02  0.10566000000E+00 0.  1.
         22   -1    0    0    0    0 -0.00000000000E+00 -0.00000000000E+00 -0.11745355655E+02  0.11745355655E+02  0.00000000000E+00 0. -1.
         13    1    1    2    0    0 -0.39472064375E+01 -0.14198522765E+02  0.10344529354E+02  0.18005525234E+02  0.10566000000E+00 0. -1.
        996    1    1    2    0    0  0.39472064375E+01  0.14198522765E+02  0.77910059169E+02  0.93739830420E+02  0.50000000000E+02 0.  0.
<mgrwt>
<rscale>  0 0.52126562E+02</rscale>
<asrwt>0</asrwt>
<pdfrwt beam="1">  1       13 0.10000000E+01 0.52126562E+02</pdfrwt>
<pdfrwt beam="2">  1       22 0.11745380E+00 0.52126562E+02</pdfrwt>
<totfact> 0.11110115E+00</totfact>
</mgrwt>
</event>
<event>
 4    1  0.2505250E+000  0.5107220E+02  0.7957747E-01  0.1439643E+00
         13   -1    0    0    0    0  0.00000000000E+00  0.00000000000E+00  0.99999944191E+02  0.10000000001E+03  0.10566000000E+00 0.  1.
         22   -1    0    0    0    0 -0.00000000000E+00 -0.00000000000E+00 -0.19164249705E+02  0.19164249705E+02  0.00000000000E+00 0. -1.
         13    1    1    2    0    0 -0.30550228650E+01  0.99517179284E+01 -0.10331038274E+02  0.14666675502E+02  0.10566000000E+00 0. -1.
        996    1    1    2    0    0  0.30550228650E+01 -0.99517179284E+01  0.91166732761E+02  0.10449757421E+03  0.50000000000E+02 0.  0.
<mgrwt>
<rscale>  0 0.51072202E+02</rscale>
<asrwt>0</asrwt>
<pdfrwt beam="1">  1       13 0.10000000E+01 0.51072202E+02</pdfrwt>
<pdfrwt beam="2">  1       22 0.19164272E+00 0.51072202E+02</pdfrwt>
<totfact> 0.48949104E-01</totfact>
</mgrwt>
</event>
<event>
 4    1  0.2505250E+000  0.5267071E+02  0.7957747E-01  0.1431447E+00
         13   -1    0    0    0    0  0.00000000000E+00  0.00000000000E+00  0.99999944177E+02  0.99999999997E+02  0.10566000000E+00 0.  1.
         22   -1    0    0    0    0 -0.00000000000E+00 -0.00000000000E+00 -0.12058932843E+02  0.12058932843E+02  0.00000000000E+00 0.  1.
         13    1    1    2    0    0 -0.43650214019E+01 -0.15973413255E+02  0.17358580920E+02  0.23990307177E+02  0.10566000000E+00 0. -1.
        996    1    1    2    0    0  0.43650214019E+01  0.15973413255E+02  0.70582430414E+02  0.88068625662E+02  0.50000000000E+02 0.  0.
<mgrwt>
<rscale>  0 0.52670707E+02</rscale>
<asrwt>0</asrwt>
<pdfrwt beam="1">  1       13 0.10000000E+01 0.52670707E+02</pdfrwt>
<pdfrwt beam="2">  1       22 0.12058957E+00 0.52670707E+02</pdfrwt>
<totfact> 0.10684827E+00</totfact>
</mgrwt>
</event>
<event>
 4    1  0.2505250E+000  0.5336199E+02  0.7957747E-01  0.1428008E+00
         13   -1    0    0    0    0  0.00000000000E+00  0.00000000000E+00  0.99999944176E+02  0.99999999996E+02  0.10566000000E+00 0.  1.
         22   -1    0    0    0    0 -0.00000000000E+00 -0.00000000000E+00 -0.21360637761E+02  0.21360637761E+02  0.00000000000E+00 0. -1.
         13    1    1    2    0    0  0.17277282416E+02  0.69998574878E+01 -0.74494182714E+01  0.20075046430E+02  0.10566000000E+00 0. -1.
        996    1    1    2    0    0 -0.17277282416E+02 -0.69998574878E+01  0.86088724686E+02  0.10128559133E+03  0.50000000000E+02 0.  0.
<mgrwt>
<rscale>  0 0.53361995E+02</rscale>
<asrwt>0</asrwt>
<pdfrwt beam="1">  1       13 0.10000000E+01 0.53361995E+02</pdfrwt>
<pdfrwt beam="2">  1       22 0.21360660E+00 0.53361995E+02</pdfrwt>
<totfact> 0.40111379E-01</totfact>
</mgrwt>
</event>
<event>
 4    1  0.2505250E+000  0.5100689E+02  0.7957747E-01  0.1439985E+00
         13   -1    0    0    0    0  0.00000000000E+00  0.00000000000E+00  0.99999944183E+02  0.10000000000E+03  0.10566000000E+00 0.  1.
         22   -1    0    0    0    0 -0.00000000000E+00 -0.00000000000E+00 -0.15681025138E+02  0.15681025138E+02  0.00000000000E+00 0. -1.
         13    1    1    2    0    0 -0.33601173275E+01  0.95085345693E+01 -0.61580673801E+01  0.11816749807E+02  0.10566000000E+00 0. -1.
        996    1    1    2    0    0  0.33601173275E+01 -0.95085345693E+01  0.90476986425E+02  0.10386427533E+03  0.50000000000E+02 0.  0.
<mgrwt>
<rscale>  0 0.51006888E+02</rscale>
<asrwt>0</asrwt>
<pdfrwt beam="1">  1       13 0.10000000E+01 0.51006888E+02</pdfrwt>
<pdfrwt beam="2">  1       22 0.15681049E+00 0.51006888E+02</pdfrwt>
<totfact> 0.69739556E-01</totfact>
</mgrwt>
</event>
<event>
 4    1  0.2505250E+000  0.5147099E+02  0.7957747E-01  0.1437565E+00
         13   -1    0    0    0    0  0.00000000000E+00  0.00000000000E+00  0.99999944181E+02  0.10000000000E+03  0.10566000000E+00 0.  1.
         22   -1    0    0    0    0 -0.00000000000E+00 -0.00000000000E+00 -0.14704616789E+02  0.14704616789E+02  0.00000000000E+00 0.  1.
         13    1    1    2    0    0  0.73017298840E+01  0.97952967004E+01 -0.29286296432E+01  0.12563882058E+02  0.10566000000E+00 0. -1.
        996    1    1    2    0    0 -0.73017298840E+01 -0.97952967004E+01  0.88223957034E+02  0.10214073473E+03  0.50000000000E+02 0.  0.
<mgrwt>
<rscale>  0 0.51470993E+02</rscale>
<asrwt>0</asrwt>
<pdfrwt beam="1">  1       13 0.10000000E+01 0.51470993E+02</pdfrwt>
<pdfrwt beam="2">  1       22 0.14704641E+00 0.51470993E+02</pdfrwt>
<totfact> 0.77732194E-01</totfact>
</mgrwt>
</event>
<event>
 4    1  0.2505250E+000  0.5182303E+02  0.7957747E-01  0.1435750E+00
         13   -1    0    0    0    0  0.00000000000E+00  0.00000000000E+00  0.99999944173E+02  0.99999999993E+02  0.10566000000E+00 0.  1.
         22   -1    0    0    0    0 -0.00000000000E+00 -0.00000000000E+00 -0.19469193704E+02  0.19469193704E+02  0.00000000000E+00 0. -1.
         13    1    1    2    0    0 -0.10091160910E+02  0.91539673159E+01 -0.87822914140E+01  0.16210072568E+02  0.10566000000E+00 0. -1.
        996    1    1    2    0    0  0.10091160910E+02 -0.91539673159E+01  0.89313041883E+02  0.10325912113E+03  0.50000000000E+02 0.  0.
<mgrwt>
<rscale>  0 0.51823032E+02</rscale>
<asrwt>0</asrwt>
<pdfrwt beam="1">  1       13 0.10000000E+01 0.51823032E+02</pdfrwt>
<pdfrwt beam="2">  1       22 0.19469216E+00 0.51823032E+02</pdfrwt>
<totfact> 0.47612488E-01</totfact>
</mgrwt>
</event>
<event>
 4    1  0.2505250E+000  0.5133666E+02  0.7957747E-01  0.1438263E+00
         13   -1    0    0    0    0  0.00000000000E+00  0.00000000000E+00  0.99999944184E+02  0.10000000000E+03  0.10566000000E+00 0. -1.
         22   -1    0    0    0    0 -0.00000000000E+00 -0.00000000000E+00 -0.15713556151E+02  0.15713556151E+02  0.00000000000E+00 0. -1.
         13    1    1    2    0    0  0.11245556411E+02  0.29982804860E+01  0.55804288678E+02  0.57005105243E+02  0.10566000000E+00 0.  1.
        996    1    1    2    0    0 -0.11245556411E+02 -0.29982804860E+01  0.28482099354E+02  0.58708450912E+02  0.50000000000E+02 0.  0.
<mgrwt>
<rscale>  0 0.51336656E+02</rscale>
<asrwt>0</asrwt>
<pdfrwt beam="1">  1       13 0.10000000E+01 0.51336656E+02</pdfrwt>
<pdfrwt beam="2">  1       22 0.15713580E+00 0.51336656E+02</pdfrwt>
<totfact> 0.69541666E-01</totfact>
</mgrwt>
</event>
<event>
 4    1  0.2505250E+000  0.5184069E+02  0.7957747E-01  0.1435659E+00
         13   -1    0    0    0    0  0.00000000000E+00  0.00000000000E+00  0.99999944172E+02  0.99999999992E+02  0.10566000000E+00 0. -1.
         22   -1    0    0    0    0 -0.00000000000E+00 -0.00000000000E+00 -0.11441505464E+02  0.11441505464E+02  0.00000000000E+00 0. -1.
         13    1    1    2    0    0 -0.12486741947E+02 -0.56158959141E+01  0.86671267515E+01  0.16204544471E+02  0.10566000000E+00 0.  1.
        996    1    1    2    0    0  0.12486741947E+02  0.56158959141E+01  0.79891311957E+02  0.95236960984E+02  0.50000000000E+02 0.  0.
<mgrwt>
<rscale>  0 0.51840689E+02</rscale>
<asrwt>0</asrwt>
<pdfrwt beam="1">  1       13 0.10000000E+01 0.51840689E+02</pdfrwt>
<pdfrwt beam="2">  1       22 0.11441530E+00 0.51840689E+02</pdfrwt>
<totfact> 0.11551871E+00</totfact>
</mgrwt>
</event>
<event>
 4    1  0.2505250E+000  0.5248964E+02  0.7957747E-01  0.1432358E+00
         13   -1    0    0    0    0  0.00000000000E+00  0.00000000000E+00  0.99999944175E+02  0.99999999995E+02  0.10566000000E+00 0. -1.
         22   -1    0    0    0    0 -0.00000000000E+00 -0.00000000000E+00 -0.14554593324E+02  0.14554593324E+02  0.00000000000E+00 0.  1.
         13    1    1    2    0    0  0.58371663763E+00 -0.15963139973E+02  0.21753553371E+01  0.16121597247E+02  0.10566000000E+00 0.  1.
        996    1    1    2    0    0 -0.58371663763E+00  0.15963139973E+02  0.83269995513E+02  0.98432996072E+02  0.50000000000E+02 0.  0.
<mgrwt>
<rscale>  0 0.52489642E+02</rscale>
<asrwt>0</asrwt>
<pdfrwt beam="1">  1       13 0.10000000E+01 0.52489642E+02</pdfrwt>
<pdfrwt beam="2">  1       22 0.14554617E+00 0.52489642E+02</pdfrwt>
<totfact> 0.79224076E-01</totfact>
</mgrwt>
</event>
<event>
 4    1  0.2505250E+000  0.5117343E+02  0.7957747E-01  0.1439113E+00
         13   -1    0    0    0    0  0.00000000000E+00  0.00000000000E+00  0.99999944180E+02  0.10000000000E+03  0.10566000000E+00 0.  1.
         22   -1    0    0    0    0 -0.00000000000E+00 -0.00000000000E+00 -0.10002775206E+02  0.10002775206E+02  0.00000000000E+00 0.  1.
         13    1    1    2    0    0  0.22466028547E-01  0.10895864187E+02  0.87133146445E+01  0.13951823438E+02  0.10566000000E+00 0. -1.
        996    1    1    2    0    0 -0.22466028547E-01 -0.10895864187E+02  0.81283854329E+02  0.96050951769E+02  0.50000000000E+02 0.  0.
<mgrwt>
<rscale>  0 0.51173434E+02</rscale>
<asrwt>0</asrwt>
<pdfrwt beam="1">  1       13 0.10000000E+01 0.51173434E+02</pdfrwt>
<pdfrwt beam="2">  1       22 0.10002800E+00 0.51173434E+02</pdfrwt>
<totfact> 0.14064044E+00</totfact>
</mgrwt>
</event>
<event>
 4    1  0.2505250E+000  0.5262474E+02  0.7957747E-01  0.1431678E+00
         13   -1    0    0    0    0  0.00000000000E+00  0.00000000000E+00  0.99999944176E+02  0.99999999996E+02  0.10566000000E+00 0.  1.
         22   -1    0    0    0    0 -0.00000000000E+00 -0.00000000000E+00 -0.14647137776E+02  0.14647137776E+02  0.00000000000E+00 0.  1.
         13    1    1    2    0    0 -0.36503203397E+01 -0.16001186452E+02  0.46276545178E+02  0.49100841175E+02  0.10566000000E+00 0. -1.
        996    1    1    2    0    0  0.36503203397E+01  0.16001186452E+02  0.39076261221E+02  0.65546296596E+02  0.50000000000E+02 0.  0.
<mgrwt>
<rscale>  0 0.52624736E+02</rscale>
<asrwt>0</asrwt>
<pdfrwt beam="1">  1       13 0.10000000E+01 0.52624736E+02</pdfrwt>
<pdfrwt beam="2">  1       22 0.14647162E+00 0.52624736E+02</pdfrwt>
<totfact> 0.78422569E-01</totfact>
</mgrwt>
</event>
<event>
 4    1  0.2505250E+000  0.5218813E+02  0.7957747E-01  0.1433884E+00
         13   -1    0    0    0    0  0.00000000000E+00  0.00000000000E+00  0.99999944180E+02  0.10000000000E+03  0.10566000000E+00 0.  1.
         22   -1    0    0    0    0 -0.00000000000E+00 -0.00000000000E+00 -0.18669511815E+02  0.18669511815E+02  0.00000000000E+00 0. -1.
         13    1    1    2    0    0  0.73718902950E+01  0.13009848223E+02 -0.66574175881E+01  0.16368667944E+02  0.10566000000E+00 0. -1.
        996    1    1    2    0    0 -0.73718902950E+01 -0.13009848223E+02  0.87987849953E+02  0.10230084387E+03  0.50000000000E+02 0.  0.
<mgrwt>
<rscale>  0 0.52188130E+02</rscale>
<asrwt>0</asrwt>
<pdfrwt beam="1">  1       13 0.10000000E+01 0.52188130E+02</pdfrwt>
<pdfrwt beam="2">  1       22 0.18669535E+00 0.52188130E+02</pdfrwt>
<totfact> 0.51452067E-01</totfact>
</mgrwt>
</event>
<event>
 4    1  0.2505250E+000  0.5135952E+02  0.7957747E-01  0.1438144E+00
         13   -1    0    0    0    0  0.00000000000E+00  0.00000000000E+00  0.99999944178E+02  0.99999999998E+02  0.10566000000E+00 0. -1.
         22   -1    0    0    0    0 -0.00000000000E+00 -0.00000000000E+00 -0.11656674907E+02  0.11656674907E+02  0.00000000000E+00 0. -1.
         13    1    1    2    0    0  0.48702234632E+01  0.10680885813E+02  0.31082836984E+01  0.12143845763E+02  0.10566000000E+00 0.  1.
        996    1    1    2    0    0 -0.48702234632E+01 -0.10680885813E+02  0.85234985572E+02  0.99512829142E+02  0.50000000000E+02 0.  0.
<mgrwt>
<rscale>  0 0.51359521E+02</rscale>
<asrwt>0</asrwt>
<pdfrwt beam="1">  1       13 0.10000000E+01 0.51359521E+02</pdfrwt>
<pdfrwt beam="2">  1       22 0.11656700E+00 0.51359521E+02</pdfrwt>
<totfact> 0.11219024E+00</totfact>
</mgrwt>
</event>
<event>
 4    1  0.2505250E+000  0.5138308E+02  0.7957747E-01  0.1438021E+00
         13   -1    0    0    0    0  0.00000000000E+00  0.00000000000E+00  0.99999944186E+02  0.10000000001E+03  0.10566000000E+00 0.  1.
         22   -1    0    0    0    0 -0.00000000000E+00 -0.00000000000E+00 -0.10746814422E+02  0.10746814422E+02  0.00000000000E+00 0.  1.
         13    1    1    2    0    0  0.59711910990E+01 -0.10225745255E+02  0.69789572171E+01  0.13745471874E+02  0.10566000000E+00 0. -1.
        996    1    1    2    0    0 -0.59711910990E+01  0.10225745255E+02  0.82274172546E+02  0.97001342554E+02  0.50000000000E+02 0.  0.
<mgrwt>
<rscale>  0 0.51383081E+02</rscale>
<asrwt>0</asrwt>
<pdfrwt beam="1">  1       13 0.10000000E+01 0.51383081E+02</pdfrwt>
<pdfrwt beam="2">  1       22 0.10746839E+00 0.51383081E+02</pdfrwt>
<totfact> 0.12669533E+00</totfact>
</mgrwt>
</event>
<event>
 4    1  0.2505250E+000  0.6267031E+02  0.7957747E-01  0.1386955E+00
         13   -1    0    0    0    0  0.00000000000E+00  0.00000000000E+00  0.99999944175E+02  0.99999999995E+02  0.10566000000E+00 0.  1.
         22   -1    0    0    0    0 -0.00000000000E+00 -0.00000000000E+00 -0.48739360943E+02  0.48739360943E+02  0.00000000000E+00 0. -1.
         13    1    1    2    0    0  0.10810238014E+02 -0.36203683042E+02 -0.28482893599E+02  0.47316533089E+02  0.10566000000E+00 0. -1.
        996    1    1    2    0    0 -0.10810238014E+02  0.36203683042E+02  0.79743476831E+02  0.10142282785E+03  0.50000000000E+02 0.  0.
<mgrwt>
<rscale>  0 0.62670311E+02</rscale>
<asrwt>0</asrwt>
<pdfrwt beam="1">  1       13 0.10000000E+01 0.62670311E+02</pdfrwt>
<pdfrwt beam="2">  1       22 0.48739375E+00 0.62670311E+02</pdfrwt>
<totfact> 0.79328504E-02</totfact>
</mgrwt>
</event>
<event>
 4    1  0.2505250E+000  0.6547524E+02  0.7957747E-01  0.1376193E+00
         13   -1    0    0    0    0  0.00000000000E+00  0.00000000000E+00  0.99999944172E+02  0.99999999992E+02  0.10566000000E+00 0. -1.
         22   -1    0    0    0    0 -0.00000000000E+00 -0.00000000000E+00 -0.62977075887E+02  0.62977075887E+02  0.00000000000E+00 0.  1.
         13    1    1    2    0    0 -0.36006444649E+02  0.22148202266E+02 -0.42516211059E+02  0.59955369123E+02  0.10566000000E+00 0.  1.
        996    1    1    2    0    0  0.36006444649E+02 -0.22148202266E+02  0.79539079344E+02  0.10302170676E+03  0.50000000000E+02 0.  0.
<mgrwt>
<rscale>  0 0.65475239E+02</rscale>
<asrwt>0</asrwt>
<pdfrwt beam="1">  1       13 0.10000000E+01 0.65475239E+02</pdfrwt>
<pdfrwt beam="2">  1       22 0.62977086E+00 0.65475239E+02</pdfrwt>
<totfact> 0.78627690E-02</totfact>
</mgrwt>
</event>
<event>
 4    1  0.2505250E+000  0.5548009E+02  0.7957747E-01  0.1417842E+00
         13   -1    0    0    0    0  0.00000000000E+00  0.00000000000E+00  0.99999944185E+02  0.10000000001E+03  0.10566000000E+00 0. -1.
         22   -1    0    0    0    0 -0.00000000000E+00 -0.00000000000E+00 -0.59697929020E+02  0.59697929020E+02  0.00000000000E+00 0.  1.
         13    1    1    2    0    0 -0.48701603038E+01 -0.23544051491E+02 -0.48991132670E+02  0.54572731893E+02  0.10566000000E+00 0.  1.
        996    1    1    2    0    0  0.48701603038E+01  0.23544051491E+02  0.89293147834E+02  0.10512519713E+03  0.50000000000E+02 0.  0.
<mgrwt>
<rscale>  0 0.55480094E+02</rscale>
<asrwt>0</asrwt>
<pdfrwt beam="1">  1       13 0.10000000E+01 0.55480094E+02</pdfrwt>
<pdfrwt beam="2">  1       22 0.59697940E+00 0.55480094E+02</pdfrwt>
<totfact> 0.62567713E-02</totfact>
</mgrwt>
</event>
<event>
 4    1  0.2505250E+000  0.5205819E+02  0.7957747E-01  0.1434546E+00
         13   -1    0    0    0    0  0.00000000000E+00  0.00000000000E+00  0.99999944180E+02  0.10000000000E+03  0.10566000000E+00 0. -1.
         22   -1    0    0    0    0 -0.00000000000E+00 -0.00000000000E+00 -0.16295802471E+02  0.16295802471E+02  0.00000000000E+00 0. -1.
         13    1    1    2    0    0  0.13395874049E+02  0.55322491216E+01 -0.33388111985E+01  0.14873266155E+02  0.10566000000E+00 0.  1.
        996    1    1    2    0    0 -0.13395874049E+02 -0.55322491216E+01  0.87042952907E+02  0.10142253632E+03  0.50000000000E+02 0.  0.
<mgrwt>
<rscale>  0 0.52058191E+02</rscale>
<asrwt>0</asrwt>
<pdfrwt beam="1">  1       13 0.10000000E+01 0.52058191E+02</pdfrwt>
<pdfrwt beam="2">  1       22 0.16295826E+00 0.52058191E+02</pdfrwt>
<totfact> 0.65442687E-01</totfact>
</mgrwt>
</event>
<event>
 4    1  0.2505250E+000  0.6050833E+02  0.7957747E-01  0.1395711E+00
         13   -1    0    0    0    0  0.00000000000E+00  0.00000000000E+00  0.99999944187E+02  0.10000000001E+03  0.10566000000E+00 0.  1.
         22   -1    0    0    0    0 -0.00000000000E+00 -0.00000000000E+00 -0.29601346451E+02  0.29601346451E+02  0.00000000000E+00 0.  1.
         13    1    1    2    0    0  0.21454270244E+02 -0.26475877587E+02 -0.33099761311E+01  0.34237770251E+02  0.10566000000E+00 0. -1.
        996    1    1    2    0    0 -0.21454270244E+02  0.26475877587E+02  0.73708573867E+02  0.95363576208E+02  0.50000000000E+02 0.  0.
<mgrwt>
<rscale>  0 0.60508328E+02</rscale>
<asrwt>0</asrwt>
<pdfrwt beam="1">  1       13 0.10000000E+01 0.60508328E+02</pdfrwt>
<pdfrwt beam="2">  1       22 0.29601366E+00 0.60508328E+02</pdfrwt>
<totfact> 0.21453983E-01</totfact>
</mgrwt>
</event>
<event>
 4    1  0.2505250E+000  0.5452105E+02  0.7957747E-01  0.1422378E+00
         13   -1    0    0    0    0  0.00000000000E+00  0.00000000000E+00  0.99999944169E+02  0.99999999989E+02  0.10566000000E+00 0. -1.
         22   -1    0    0    0    0 -0.00000000000E+00 -0.00000000000E+00 -0.14597121033E+02  0.14597121033E+02  0.00000000000E+00 0. -1.
         13    1    1    2    0    0  0.20633695951E+02  0.68407475282E+01  0.21144492918E+02  0.30325665369E+02  0.10566000000E+00 0.  1.
        996    1    1    2    0    0 -0.20633695951E+02 -0.68407475282E+01  0.64258330219E+02  0.84271455653E+02  0.50000000000E+02 0.  0.
<mgrwt>
<rscale>  0 0.54521053E+02</rscale>
<asrwt>0</asrwt>
<pdfrwt beam="1">  1       13 0.10000000E+01 0.54521053E+02</pdfrwt>
<pdfrwt beam="2">  1       22 0.14597145E+00 0.54521053E+02</pdfrwt>
<totfact> 0.79165923E-01</totfact>
</mgrwt>
</event>
<event>
 4    1  0.2505250E+000  0.5596353E+02  0.7957747E-01  0.1415596E+00
         13   -1    0    0    0    0  0.00000000000E+00  0.00000000000E+00  0.99999944180E+02  0.10000000000E+03  0.10566000000E+00 0.  1.
         22   -1    0    0    0    0 -0.00000000000E+00 -0.00000000000E+00 -0.16519085568E+02  0.16519085568E+02  0.00000000000E+00 0.  1.
         13    1    1    2    0    0 -0.35490861425E+01  0.24886156939E+02  0.29589852312E+02  0.38826374328E+02  0.10566000000E+00 0. -1.
        996    1    1    2    0    0  0.35490861425E+01 -0.24886156939E+02  0.53891006301E+02  0.77692711240E+02  0.50000000000E+02 0.  0.
<mgrwt>
<rscale>  0 0.55963531E+02</rscale>
<asrwt>0</asrwt>
<pdfrwt beam="1">  1       13 0.10000000E+01 0.55963531E+02</pdfrwt>
<pdfrwt beam="2">  1       22 0.16519109E+00 0.55963531E+02</pdfrwt>
<totfact> 0.64394317E-01</totfact>
</mgrwt>
</event>
<event>
 4    1  0.2505250E+000  0.5197342E+02  0.7957747E-01  0.1434979E+00
         13   -1    0    0    0    0  0.00000000000E+00  0.00000000000E+00  0.99999944182E+02  0.10000000000E+03  0.10566000000E+00 0.  1.
         22   -1    0    0    0    0 -0.00000000000E+00 -0.00000000000E+00 -0.11100164602E+02  0.11100164602E+02  0.00000000000E+00 0.  1.
         13    1    1    2    0    0  0.85503399266E+01 -0.11319387474E+02  0.13973029863E+02  0.19912146375E+02  0.10566000000E+00 0. -1.
        996    1    1    2    0    0 -0.85503399266E+01  0.11319387474E+02  0.74926749716E+02  0.91188018230E+02  0.50000000000E+02 0.  0.
<mgrwt>
<rscale>  0 0.51973424E+02</rscale>
<asrwt>0</asrwt>
<pdfrwt beam="1">  1       13 0.10000000E+01 0.51973424E+02</pdfrwt>
<pdfrwt beam="2">  1       22 0.11100189E+00 0.51973424E+02</pdfrwt>
<totfact> 0.12092068E+00</totfact>
</mgrwt>
</event>
<event>
 4    1  0.2505250E+000  0.5109355E+02  0.7957747E-01  0.1439531E+00
         13   -1    0    0    0    0  0.00000000000E+00  0.00000000000E+00  0.99999944178E+02  0.99999999998E+02  0.10566000000E+00 0. -1.
         22   -1    0    0    0    0 -0.00000000000E+00 -0.00000000000E+00 -0.12087877380E+02  0.12087877380E+02  0.00000000000E+00 0. -1.
         13    1    1    2    0    0  0.79347246835E+01 -0.68986588488E+01  0.12613064477E+00  0.10515627546E+02  0.10566000000E+00 0.  1.
        996    1    1    2    0    0 -0.79347246835E+01  0.68986588488E+01  0.87785936153E+02  0.10157224983E+03  0.50000000000E+02 0.  0.
<mgrwt>
<rscale>  0 0.51093555E+02</rscale>
<asrwt>0</asrwt>
<pdfrwt beam="1">  1       13 0.10000000E+01 0.51093555E+02</pdfrwt>
<pdfrwt beam="2">  1       22 0.12087902E+00 0.51093555E+02</pdfrwt>
<totfact> 0.10608123E+00</totfact>
</mgrwt>
</event>
<event>
 4    1  0.2505250E+000  0.5476249E+02  0.7957747E-01  0.1421225E+00
         13   -1    0    0    0    0  0.00000000000E+00  0.00000000000E+00  0.99999944168E+02  0.99999999988E+02  0.10566000000E+00 0.  1.
         22   -1    0    0    0    0 -0.00000000000E+00 -0.00000000000E+00 -0.48978611256E+02  0.48978611256E+02  0.00000000000E+00 0. -1.
         13    1    1    2    0    0 -0.21760888279E+02  0.50392395420E+01 -0.38223448008E+02  0.44271586097E+02  0.10566000000E+00 0. -1.
        996    1    1    2    0    0  0.21760888279E+02 -0.50392395420E+01  0.89244780920E+02  0.10470702515E+03  0.50000000000E+02 0.  0.
<mgrwt>
<rscale>  0 0.54762489E+02</rscale>
<asrwt>0</asrwt>
<pdfrwt beam="1">  1       13 0.10000000E+01 0.54762489E+02</pdfrwt>
<pdfrwt beam="2">  1       22 0.48978626E+00 0.54762489E+02</pdfrwt>
<totfact> 0.78010453E-02</totfact>
</mgrwt>
</event>
<event>
 4    1  0.2505250E+000  0.5175442E+02  0.7957747E-01  0.1436102E+00
         13   -1    0    0    0    0  0.00000000000E+00  0.00000000000E+00  0.99999944171E+02  0.99999999992E+02  0.10566000000E+00 0.  1.
         22   -1    0    0    0    0 -0.00000000000E+00 -0.00000000000E+00 -0.15179180841E+02  0.15179180841E+02  0.00000000000E+00 0.  1.
         13    1    1    2    0    0 -0.12614651817E+02 -0.44034414213E+01 -0.25763414197E+01  0.13607660929E+02  0.10566000000E+00 0. -1.
        996    1    1    2    0    0  0.12614651817E+02  0.44034414213E+01  0.87397104750E+02  0.10157151990E+03  0.50000000000E+02 0.  0.
<mgrwt>
<rscale>  0 0.51754418E+02</rscale>
<asrwt>0</asrwt>
<pdfrwt beam="1">  1       13 0.10000000E+01 0.51754418E+02</pdfrwt>
<pdfrwt beam="2">  1       22 0.15179205E+00 0.51754418E+02</pdfrwt>
<totfact> 0.73777945E-01</totfact>
</mgrwt>
</event>
<event>
 4    1  0.2505250E+000  0.5499131E+02  0.7957747E-01  0.1420140E+00
         13   -1    0    0    0    0  0.00000000000E+00  0.00000000000E+00  0.99999944177E+02  0.99999999998E+02  0.10566000000E+00 0.  1.
         22   -1    0    0    0    0 -0.00000000000E+00 -0.00000000000E+00 -0.21503231971E+02  0.21503231971E+02  0.00000000000E+00 0. -1.
         13    1    1    2    0    0 -0.10784859028E+02 -0.20192363360E+02 -0.31046925491E+01  0.23101839801E+02  0.10566000000E+00 0. -1.
        996    1    1    2    0    0  0.10784859028E+02  0.20192363360E+02  0.81601404756E+02  0.98401392167E+02  0.50000000000E+02 0.  0.
<mgrwt>
<rscale>  0 0.54991315E+02</rscale>
<asrwt>0</asrwt>
<pdfrwt beam="1">  1       13 0.10000000E+01 0.54991315E+02</pdfrwt>
<pdfrwt beam="2">  1       22 0.21503254E+00 0.54991315E+02</pdfrwt>
<totfact> 0.39711864E-01</totfact>
</mgrwt>
</event>
<event>
 4    1  0.2505250E+000  0.5213692E+02  0.7957747E-01  0.1434145E+00
         13   -1    0    0    0    0  0.00000000000E+00  0.00000000000E+00  0.99999944177E+02  0.99999999997E+02  0.10566000000E+00 0.  1.
         22   -1    0    0    0    0 -0.00000000000E+00 -0.00000000000E+00 -0.12111439330E+02  0.12111439330E+02  0.00000000000E+00 0.  1.
         13    1    1    2    0    0  0.13435019211E+02 -0.61448377030E+01  0.82409641201E+01  0.16916956738E+02  0.10566000000E+00 0. -1.
        996    1    1    2    0    0 -0.13435019211E+02  0.61448377030E+01  0.79647540727E+02  0.95194482589E+02  0.50000000000E+02 0.  0.
<mgrwt>
<rscale>  0 0.52136923E+02</rscale>
<asrwt>0</asrwt>
<pdfrwt beam="1">  1       13 0.10000000E+01 0.52136923E+02</pdfrwt>
<pdfrwt beam="2">  1       22 0.12111464E+00 0.52136923E+02</pdfrwt>
<totfact> 0.10601249E+00</totfact>
</mgrwt>
</event>
<event>
 4    1  0.2505250E+000  0.5439723E+02  0.7957747E-01  0.1422971E+00
         13   -1    0    0    0    0  0.00000000000E+00  0.00000000000E+00  0.99999944175E+02  0.99999999996E+02  0.10566000000E+00 0. -1.
         22   -1    0    0    0    0 -0.00000000000E+00 -0.00000000000E+00 -0.55979419763E+02  0.55979419763E+02  0.00000000000E+00 0.  1.
         13    1    1    2    0    0 -0.17392195276E+02  0.12512791418E+02 -0.46031009433E+02  0.50773254762E+02  0.10566000000E+00 0.  1.
        996    1    1    2    0    0  0.17392195276E+02 -0.12512791418E+02  0.90051533845E+02  0.10520616500E+03  0.50000000000E+02 0.  0.
<mgrwt>
<rscale>  0 0.54397228E+02</rscale>
<asrwt>0</asrwt>
<pdfrwt beam="1">  1       13 0.10000000E+01 0.54397228E+02</pdfrwt>
<pdfrwt beam="2">  1       22 0.55979432E+00 0.54397228E+02</pdfrwt>
<totfact> 0.58524183E-02</totfact>
</mgrwt>
</event>
<event>
 4    1  0.2505250E+000  0.5111765E+02  0.7957747E-01  0.1439405E+00
         13   -1    0    0    0    0  0.00000000000E+00  0.00000000000E+00  0.99999944177E+02  0.99999999998E+02  0.10566000000E+00 0. -1.
         22   -1    0    0    0    0 -0.00000000000E+00 -0.00000000000E+00 -0.11143135426E+02  0.11143135426E+02  0.00000000000E+00 0.  1.
         13    1    1    2    0    0 -0.97451335097E+01  0.42481134131E+01  0.27091006650E+01  0.10971074931E+02  0.10566000000E+00 0.  1.
        996    1    1    2    0    0  0.97451335097E+01 -0.42481134131E+01  0.86147708087E+02  0.10017206049E+03  0.50000000000E+02 0.  0.
<mgrwt>
<rscale>  0 0.51117650E+02</rscale>
<asrwt>0</asrwt>
<pdfrwt beam="1">  1       13 0.10000000E+01 0.51117650E+02</pdfrwt>
<pdfrwt beam="2">  1       22 0.11143160E+00 0.51117650E+02</pdfrwt>
<totfact> 0.11998668E+00</totfact>
</mgrwt>
</event>
<event>
 4    1  0.2505250E+000  0.5272355E+02  0.7957747E-01  0.1431182E+00
         13   -1    0    0    0    0  0.00000000000E+00  0.00000000000E+00  0.99999944180E+02  0.10000000000E+03  0.10566000000E+00 0.  1.
         22   -1    0    0    0    0 -0.00000000000E+00 -0.00000000000E+00 -0.16436625676E+02  0.16436625676E+02  0.00000000000E+00 0. -1.
         13    1    1    2    0    0 -0.15376613728E+02  0.65827721423E+01 -0.10296619759E+01  0.16758415994E+02  0.10566000000E+00 0. -1.
        996    1    1    2    0    0  0.15376613728E+02 -0.65827721423E+01  0.84592980480E+02  0.99678209681E+02  0.50000000000E+02 0.  0.
<mgrwt>
<rscale>  0 0.52723554E+02</rscale>
<asrwt>0</asrwt>
<pdfrwt beam="1">  1       13 0.10000000E+01 0.52723554E+02</pdfrwt>
<pdfrwt beam="2">  1       22 0.16436649E+00 0.52723554E+02</pdfrwt>
<totfact> 0.64562023E-01</totfact>
</mgrwt>
</event>
<event>
 4    1  0.2505250E+000  0.5110845E+02  0.7957747E-01  0.1439453E+00
         13   -1    0    0    0    0  0.00000000000E+00  0.00000000000E+00  0.99999944176E+02  0.99999999997E+02  0.10566000000E+00 0. -1.
         22   -1    0    0    0    0 -0.00000000000E+00 -0.00000000000E+00 -0.96452935029E+01  0.96452935029E+01  0.00000000000E+00 0. -1.
         13    1    1    2    0    0  0.54017852425E+01  0.91046356909E+01  0.11088999388E+02  0.15331364790E+02  0.10566000000E+00 0.  1.
        996    1    1    2    0    0 -0.54017852425E+01 -0.91046356909E+01  0.79265651286E+02  0.94313928709E+02  0.50000000000E+02 0.  0.
<mgrwt>
<rscale>  0 0.51108450E+02</rscale>
<asrwt>0</asrwt>
<pdfrwt beam="1">  1       13 0.10000000E+01 0.51108450E+02</pdfrwt>
<pdfrwt beam="2">  1       22 0.96453187E-01 0.51108450E+02</pdfrwt>
<totfact> 0.14818994E+00</totfact>
</mgrwt>
</event>
<event>
 4    1  0.2505250E+000  0.5801743E+02  0.7957747E-01  0.1406345E+00
         13   -1    0    0    0    0  0.00000000000E+00  0.00000000000E+00  0.99999944173E+02  0.99999999994E+02  0.10566000000E+00 0.  1.
         22   -1    0    0    0    0 -0.00000000000E+00 -0.00000000000E+00 -0.27537978960E+02  0.27537978960E+02  0.00000000000E+00 0. -1.
         13    1    1    2    0    0 -0.13875589358E+02 -0.25951689638E+02 -0.59220157527E+01  0.30018387860E+02  0.10566000000E+00 0. -1.
        996    1    1    2    0    0  0.13875589358E+02  0.25951689638E+02  0.78383980966E+02  0.97519591094E+02  0.50000000000E+02 0.  0.
<mgrwt>
<rscale>  0 0.58017430E+02</rscale>
<asrwt>0</asrwt>
<pdfrwt beam="1">  1       13 0.10000000E+01 0.58017430E+02</pdfrwt>
<pdfrwt beam="2">  1       22 0.27537999E+00 0.58017430E+02</pdfrwt>
<totfact> 0.24586765E-01</totfact>
</mgrwt>
</event>
<event>
 4    1  0.2505250E+000  0.5112558E+02  0.7957747E-01  0.1439363E+00
         13   -1    0    0    0    0  0.00000000000E+00  0.00000000000E+00  0.99999944182E+02  0.10000000000E+03  0.10566000000E+00 0. -1.
         22   -1    0    0    0    0 -0.00000000000E+00 -0.00000000000E+00 -0.17657087377E+02  0.17657087377E+02  0.00000000000E+00 0.  1.
         13    1    1    2    0    0  0.40625619231E+01  0.98651408120E+01 -0.83487071768E+01  0.13547600827E+02  0.10566000000E+00 0.  1.
        996    1    1    2    0    0 -0.40625619231E+01 -0.98651408120E+01  0.90691563982E+02  0.10410948655E+03  0.50000000000E+02 0.  0.
<mgrwt>
<rscale>  0 0.51125585E+02</rscale>
<asrwt>0</asrwt>
<pdfrwt beam="1">  1       13 0.10000000E+01 0.51125585E+02</pdfrwt>
<pdfrwt beam="2">  1       22 0.17657110E+00 0.51125585E+02</pdfrwt>
<totfact> 0.56765108E-01</totfact>
</mgrwt>
</event>
<event>
 4    1  0.2505250E+000  0.5331689E+02  0.7957747E-01  0.1428230E+00
         13   -1    0    0    0    0  0.00000000000E+00  0.00000000000E+00  0.99999944179E+02  0.99999999999E+02  0.10566000000E+00 0.  1.
         22   -1    0    0    0    0 -0.00000000000E+00 -0.00000000000E+00 -0.30487850646E+02  0.30487850646E+02  0.00000000000E+00 0. -1.
         13    1    1    2    0    0  0.17628847436E+02  0.56492885464E+01 -0.19399818738E+02  0.26815198192E+02  0.10566000000E+00 0. -1.
        996    1    1    2    0    0 -0.17628847436E+02 -0.56492885464E+01  0.88911912271E+02  0.10367265245E+03  0.50000000000E+02 0.  0.
<mgrwt>
<rscale>  0 0.53316890E+02</rscale>
<asrwt>0</asrwt>
<pdfrwt beam="1">  1       13 0.10000000E+01 0.53316890E+02</pdfrwt>
<pdfrwt beam="2">  1       22 0.30487870E+00 0.53316890E+02</pdfrwt>
<totfact> 0.20125504E-01</totfact>
</mgrwt>
</event>
<event>
 4    1  0.2505250E+000  0.5337599E+02  0.7957747E-01  0.1427939E+00
         13   -1    0    0    0    0  0.00000000000E+00  0.00000000000E+00  0.99999944179E+02  0.10000000000E+03  0.10566000000E+00 0. -1.
         22   -1    0    0    0    0 -0.00000000000E+00 -0.00000000000E+00 -0.13111846916E+02  0.13111846916E+02  0.00000000000E+00 0. -1.
         13    1    1    2    0    0  0.17803300488E+02 -0.56602946276E+01  0.17772201239E+02  0.25784854943E+02  0.10566000000E+00 0.  1.
        996    1    1    2    0    0 -0.17803300488E+02  0.56602946276E+01  0.69115896025E+02  0.87326991972E+02  0.50000000000E+02 0.  0.
<mgrwt>
<rscale>  0 0.53375991E+02</rscale>
<asrwt>0</asrwt>
<pdfrwt beam="1">  1       13 0.10000000E+01 0.53375991E+02</pdfrwt>
<pdfrwt beam="2">  1       22 0.13111871E+00 0.53375991E+02</pdfrwt>
<totfact> 0.93926509E-01</totfact>
</mgrwt>
</event>
<event>
 4    1  0.2505250E+000  0.5241017E+02  0.7957747E-01  0.1432759E+00
         13   -1    0    0    0    0  0.00000000000E+00  0.00000000000E+00  0.99999944175E+02  0.99999999995E+02  0.10566000000E+00 0.  1.
         22   -1    0    0    0    0 -0.00000000000E+00 -0.00000000000E+00 -0.11649014151E+02  0.11649014151E+02  0.00000000000E+00 0.  1.
         13    1    1    2    0    0 -0.15464311632E+02  0.27713817977E+01  0.17459342911E+02  0.23487556498E+02  0.10566000000E+00 0. -1.
        996    1    1    2    0    0  0.15464311632E+02 -0.27713817977E+01  0.70891587113E+02  0.88161457648E+02  0.50000000000E+02 0.  0.
<mgrwt>
<rscale>  0 0.52410166E+02</rscale>
<asrwt>0</asrwt>
<pdfrwt beam="1">  1       13 0.10000000E+01 0.52410166E+02</pdfrwt>
<pdfrwt beam="2">  1       22 0.11649039E+00 0.52410166E+02</pdfrwt>
<totfact> 0.11256968E+00</totfact>
</mgrwt>
</event>
<event>
 4    1  0.2505250E+000  0.5138270E+02  0.7957747E-01  0.1438023E+00
         13   -1    0    0    0    0  0.00000000000E+00  0.00000000000E+00  0.99999944182E+02  0.10000000000E+03  0.10566000000E+00 0.  1.
         22   -1    0    0    0    0 -0.00000000000E+00 -0.00000000000E+00 -0.10133805013E+02  0.10133805013E+02  0.00000000000E+00 0.  1.
         13    1    1    2    0    0  0.88337269148E+01 -0.78833740514E+01  0.22310828954E+02  0.25258000125E+02  0.10566000000E+00 0. -1.
        996    1    1    2    0    0 -0.88337269148E+01  0.78833740514E+01  0.67555310215E+02  0.84875804891E+02  0.50000000000E+02 0.  0.
<mgrwt>
<rscale>  0 0.51382704E+02</rscale>
<asrwt>0</asrwt>
<pdfrwt beam="1">  1       13 0.10000000E+01 0.51382704E+02</pdfrwt>
<pdfrwt beam="2">  1       22 0.10133830E+00 0.51382704E+02</pdfrwt>
<totfact> 0.13808020E+00</totfact>
</mgrwt>
</event>
<event>
 4    1  0.2505250E+000  0.5120794E+02  0.7957747E-01  0.1438933E+00
         13   -1    0    0    0    0  0.00000000000E+00  0.00000000000E+00  0.99999944178E+02  0.99999999998E+02  0.10566000000E+00 0.  1.
         22   -1    0    0    0    0 -0.00000000000E+00 -0.00000000000E+00 -0.12685886140E+02  0.12685886140E+02  0.00000000000E+00 0.  1.
         13    1    1    2    0    0 -0.75993509221E+00 -0.11030646223E+02 -0.45939271017E+00  0.11066836184E+02  0.10566000000E+00 0. -1.
        996    1    1    2    0    0  0.75993509221E+00  0.11030646223E+02  0.87773450747E+02  0.10161904995E+03  0.50000000000E+02 0.  0.
<mgrwt>
<rscale>  0 0.51207935E+02</rscale>
<asrwt>0</asrwt>
<pdfrwt beam="1">  1       13 0.10000000E+01 0.51207935E+02</pdfrwt>
<pdfrwt beam="2">  1       22 0.12685911E+00 0.51207935E+02</pdfrwt>
<totfact> 0.98467129E-01</totfact>
</mgrwt>
</event>
<event>
 4    1  0.2505250E+000  0.5190295E+02  0.7957747E-01  0.1435340E+00
         13   -1    0    0    0    0  0.00000000000E+00  0.00000000000E+00  0.99999944180E+02  0.10000000000E+03  0.10566000000E+00 0. -1.
         22   -1    0    0    0    0 -0.00000000000E+00 -0.00000000000E+00 -0.15342435783E+02  0.15342435783E+02  0.00000000000E+00 0.  1.
         13    1    1    2    0    0  0.97110118149E+01 -0.99805817653E+01 -0.22592733532E+01  0.14107843314E+02  0.10566000000E+00 0.  1.
        996    1    1    2    0    0 -0.97110118149E+01  0.99805817653E+01  0.86916781750E+02  0.10123459247E+03  0.50000000000E+02 0.  0.
<mgrwt>
<rscale>  0 0.51902946E+02</rscale>
<asrwt>0</asrwt>
<pdfrwt beam="1">  1       13 0.10000000E+01 0.51902946E+02</pdfrwt>
<pdfrwt beam="2">  1       22 0.15342459E+00 0.51902946E+02</pdfrwt>
<totfact> 0.72488508E-01</totfact>
</mgrwt>
</event>
<event>
 4    1  0.2505250E+000  0.5268320E+02  0.7957747E-01  0.1431384E+00
         13   -1    0    0    0    0  0.00000000000E+00  0.00000000000E+00  0.99999944187E+02  0.10000000001E+03  0.10566000000E+00 0.  1.
         22   -1    0    0    0    0 -0.00000000000E+00 -0.00000000000E+00 -0.18842146250E+02  0.18842146250E+02  0.00000000000E+00 0. -1.
         13    1    1    2    0    0 -0.16221949377E+02  0.35168339362E+01 -0.54487011204E+01  0.17470525764E+02  0.10566000000E+00 0. -1.
        996    1    1    2    0    0  0.16221949377E+02 -0.35168339362E+01  0.86606499057E+02  0.10137162049E+03  0.50000000000E+02 0.  0.
<mgrwt>
<rscale>  0 0.52683202E+02</rscale>
<asrwt>0</asrwt>
<pdfrwt beam="1">  1       13 0.10000000E+01 0.52683202E+02</pdfrwt>
<pdfrwt beam="2">  1       22 0.18842169E+00 0.52683202E+02</pdfrwt>
<totfact> 0.50642329E-01</totfact>
</mgrwt>
</event>
<event>
 4    1  0.2505250E+000  0.5404295E+02  0.7957747E-01  0.1424680E+00
         13   -1    0    0    0    0  0.00000000000E+00  0.00000000000E+00  0.99999944185E+02  0.10000000000E+03  0.10566000000E+00 0. -1.
         22   -1    0    0    0    0 -0.00000000000E+00 -0.00000000000E+00 -0.20855075920E+02  0.20855075920E+02  0.00000000000E+00 0. -1.
         13    1    1    2    0    0  0.28922267689E+01 -0.20304571303E+02 -0.47572056916E+01  0.21054281310E+02  0.10566000000E+00 0.  1.
        996    1    1    2    0    0 -0.28922267689E+01  0.20304571303E+02  0.83902073957E+02  0.99800794614E+02  0.50000000000E+02 0.  0.
<mgrwt>
<rscale>  0 0.54042951E+02</rscale>
<asrwt>0</asrwt>
<pdfrwt beam="1">  1       13 0.10000000E+01 0.54042951E+02</pdfrwt>
<pdfrwt beam="2">  1       22 0.20855098E+00 0.54042951E+02</pdfrwt>
<totfact> 0.42028048E-01</totfact>
</mgrwt>
</event>
<event>
 4    1  0.2505250E+000  0.5104034E+02  0.7957747E-01  0.1439810E+00
         13   -1    0    0    0    0  0.00000000000E+00  0.00000000000E+00  0.99999944181E+02  0.10000000000E+03  0.10566000000E+00 0.  1.
         22   -1    0    0    0    0 -0.00000000000E+00 -0.00000000000E+00 -0.41788885926E+02  0.41788885926E+02  0.00000000000E+00 0. -1.
         13    1    1    2    0    0 -0.77126056442E+01 -0.67551422176E+01 -0.34481098704E+02  0.35973233995E+02  0.10566000000E+00 0. -1.
        996    1    1    2    0    0  0.77126056442E+01  0.67551422176E+01  0.92692156958E+02  0.10581565193E+03  0.50000000000E+02 0.  0.
<mgrwt>
<rscale>  0 0.51040339E+02</rscale>
<asrwt>0</asrwt>
<pdfrwt beam="1">  1       13 0.10000000E+01 0.51040339E+02</pdfrwt>
<pdfrwt beam="2">  1       22 0.41788902E+00 0.51040339E+02</pdfrwt>
<totfact> 0.11343557E-01</totfact>
</mgrwt>
</event>
<event>
 4    1  0.2505250E+000  0.5197868E+02  0.7957747E-01  0.1434952E+00
         13   -1    0    0    0    0  0.00000000000E+00  0.00000000000E+00  0.99999944178E+02  0.99999999998E+02  0.10566000000E+00 0. -1.
         22   -1    0    0    0    0 -0.00000000000E+00 -0.00000000000E+00 -0.12436554741E+02  0.12436554741E+02  0.00000000000E+00 0. -1.
         13    1    1    2    0    0 -0.50721378965E+01  0.13268649974E+02  0.53697508468E+01  0.15186475666E+02  0.10566000000E+00 0.  1.
        996    1    1    2    0    0  0.50721378965E+01 -0.13268649974E+02  0.82193638590E+02  0.97250079073E+02  0.50000000000E+02 0.  0.
<mgrwt>
<rscale>  0 0.51978685E+02</rscale>
<asrwt>0</asrwt>
<pdfrwt beam="1">  1       13 0.10000000E+01 0.51978685E+02</pdfrwt>
<pdfrwt beam="2">  1       22 0.12436579E+00 0.51978685E+02</pdfrwt>
<totfact> 0.10172905E+00</totfact>
</mgrwt>
</event>
<event>
 4    1  0.2505250E+000  0.5102493E+02  0.7957747E-01  0.1439890E+00
         13   -1    0    0    0    0  0.00000000000E+00  0.00000000000E+00  0.99999944173E+02  0.99999999993E+02  0.10566000000E+00 0.  1.
         22   -1    0    0    0    0 -0.00000000000E+00 -0.00000000000E+00 -0.95267876663E+01  0.95267876663E+01  0.00000000000E+00 0.  1.
         13    1    1    2    0    0 -0.19716390165E+01  0.99827973680E+01  0.10191040600E+02  0.14401808090E+02  0.10566000000E+00 0. -1.
        996    1    1    2    0    0  0.19716390165E+01 -0.99827973680E+01  0.80282115906E+02  0.95124979570E+02  0.50000000000E+02 0.  0.
<mgrwt>
<rscale>  0 0.51024931E+02</rscale>
<asrwt>0</asrwt>
<pdfrwt beam="1">  1       13 0.10000000E+01 0.51024931E+02</pdfrwt>
<pdfrwt beam="2">  1       22 0.95268129E-01 0.51024931E+02</pdfrwt>
<totfact> 0.15080541E+00</totfact>
</mgrwt>
</event>
<event>
 4    1  0.2505250E+000  0.5421121E+02  0.7957747E-01  0.1423866E+00
         13   -1    0    0    0    0  0.00000000000E+00  0.00000000000E+00  0.99999944178E+02  0.99999999998E+02  0.10566000000E+00 0. -1.
         22   -1    0    0    0    0 -0.00000000000E+00 -0.00000000000E+00 -0.24299512174E+02  0.24299512174E+02  0.00000000000E+00 0.  1.
         13    1    1    2    0    0  0.20941080331E+02  0.57151760787E+00 -0.97473138366E+01  0.23105773497E+02  0.10566000000E+00 0.  1.
        996    1    1    2    0    0 -0.20941080331E+02 -0.57151760787E+00  0.85447745840E+02  0.10119373867E+03  0.50000000000E+02 0.  0.
<mgrwt>
<rscale>  0 0.54211212E+02</rscale>
<asrwt>0</asrwt>
<pdfrwt beam="1">  1       13 0.10000000E+01 0.54211212E+02</pdfrwt>
<pdfrwt beam="2">  1       22 0.24299533E+00 0.54211212E+02</pdfrwt>
<totfact> 0.31280532E-01</totfact>
</mgrwt>
</event>
<event>
 4    1  0.2505250E+000  0.5562455E+02  0.7957747E-01  0.1417168E+00
         13   -1    0    0    0    0  0.00000000000E+00  0.00000000000E+00  0.99999944177E+02  0.99999999997E+02  0.10566000000E+00 0.  1.
         22   -1    0    0    0    0 -0.00000000000E+00 -0.00000000000E+00 -0.16272991454E+02  0.16272991454E+02  0.00000000000E+00 0. -1.
         13    1    1    2    0    0 -0.22480801367E+02 -0.94183004980E+01  0.32733686010E+02  0.40811716188E+02  0.10566000000E+00 0. -1.
        996    1    1    2    0    0  0.22480801367E+02  0.94183004980E+01  0.50993266713E+02  0.75461275264E+02  0.50000000000E+02 0.  0.
<mgrwt>
<rscale>  0 0.55624552E+02</rscale>
<asrwt>0</asrwt>
<pdfrwt beam="1">  1       13 0.10000000E+01 0.55624552E+02</pdfrwt>
<pdfrwt beam="2">  1       22 0.16273015E+00 0.55624552E+02</pdfrwt>
<totfact> 0.66047239E-01</totfact>
</mgrwt>
</event>
<event>
 4    1  0.2505250E+000  0.5369468E+02  0.7957747E-01  0.1426375E+00
         13   -1    0    0    0    0  0.00000000000E+00  0.00000000000E+00  0.99999944176E+02  0.99999999996E+02  0.10566000000E+00 0. -1.
         22   -1    0    0    0    0 -0.00000000000E+00 -0.00000000000E+00 -0.19828114339E+02  0.19828114339E+02  0.00000000000E+00 0.  1.
         13    1    1    2    0    0 -0.16493612141E+02  0.10539435379E+02 -0.40095083942E+01  0.19980146675E+02  0.10566000000E+00 0.  1.
        996    1    1    2    0    0  0.16493612141E+02 -0.10539435379E+02  0.84181338231E+02  0.99847967660E+02  0.50000000000E+02 0.  0.
<mgrwt>
<rscale>  0 0.53694683E+02</rscale>
<asrwt>0</asrwt>
<pdfrwt beam="1">  1       13 0.10000000E+01 0.53694683E+02</pdfrwt>
<pdfrwt beam="2">  1       22 0.19828137E+00 0.53694683E+02</pdfrwt>
<totfact> 0.46180703E-01</totfact>
</mgrwt>
</event>
<event>
 4    1  0.2505250E+000  0.5153656E+02  0.7957747E-01  0.1437226E+00
         13   -1    0    0    0    0  0.00000000000E+00  0.00000000000E+00  0.99999944181E+02  0.10000000000E+03  0.10566000000E+00 0.  1.
         22   -1    0    0    0    0 -0.00000000000E+00 -0.00000000000E+00 -0.11630432309E+02  0.11630432309E+02  0.00000000000E+00 0.  1.
         13    1    1    2    0    0  0.86511045154E+01  0.90097441661E+01  0.46673977448E+01  0.13334649040E+02  0.10566000000E+00 0. -1.
        996    1    1    2    0    0 -0.86511045154E+01 -0.90097441661E+01  0.83702114128E+02  0.98295783270E+02  0.50000000000E+02 0.  0.
<mgrwt>
<rscale>  0 0.51536561E+02</rscale>
<asrwt>0</asrwt>
<pdfrwt beam="1">  1       13 0.10000000E+01 0.51536561E+02</pdfrwt>
<pdfrwt beam="2">  1       22 0.11630457E+00 0.51536561E+02</pdfrwt>
<totfact> 0.11261929E+00</totfact>
</mgrwt>
</event>
<event>
 4    1  0.2505250E+000  0.5110669E+02  0.7957747E-01  0.1439462E+00
         13   -1    0    0    0    0  0.00000000000E+00  0.00000000000E+00  0.99999944181E+02  0.10000000000E+03  0.10566000000E+00 0.  1.
         22   -1    0    0    0    0 -0.00000000000E+00 -0.00000000000E+00 -0.15810001273E+02  0.15810001273E+02  0.00000000000E+00 0. -1.
         13    1    1    2    0    0  0.24854374893E+01 -0.10281852540E+02 -0.59889117605E+01  0.12156155613E+02  0.10566000000E+00 0. -1.
        996    1    1    2    0    0 -0.24854374893E+01  0.10281852540E+02  0.90178854668E+02  0.10365384566E+03  0.50000000000E+02 0.  0.
<mgrwt>
<rscale>  0 0.51106691E+02</rscale>
<asrwt>0</asrwt>
<pdfrwt beam="1">  1       13 0.10000000E+01 0.51106691E+02</pdfrwt>
<pdfrwt beam="2">  1       22 0.15810025E+00 0.51106691E+02</pdfrwt>
<totfact> 0.68790481E-01</totfact>
</mgrwt>
</event>
<event>
 4    1  0.2505250E+000  0.5390103E+02  0.7957747E-01  0.1425369E+00
         13   -1    0    0    0    0  0.00000000000E+00  0.00000000000E+00  0.99999944172E+02  0.99999999992E+02  0.10566000000E+00 0.  1.
         22   -1    0    0    0    0 -0.00000000000E+00 -0.00000000000E+00 -0.23775870571E+02  0.23775870571E+02  0.00000000000E+00 0. -1.
         13    1    1    2    0    0 -0.20084524261E+02  0.13903460974E+01 -0.96976688874E+01  0.22346747480E+02  0.10566000000E+00 0. -1.
        996    1    1    2    0    0  0.20084524261E+02 -0.13903460974E+01  0.85921742488E+02  0.10142912308E+03  0.50000000000E+02 0.  0.
<mgrwt>
<rscale>  0 0.53901031E+02</rscale>
<asrwt>0</asrwt>
<pdfrwt beam="1">  1       13 0.10000000E+01 0.53901031E+02</pdfrwt>
<pdfrwt beam="2">  1       22 0.23775892E+00 0.53901031E+02</pdfrwt>
<totfact> 0.32630435E-01</totfact>
</mgrwt>
</event>
<event>
 4    1  0.2505250E+000  0.6259761E+02  0.7957747E-01  0.1387243E+00
         13   -1    0    0    0    0  0.00000000000E+00  0.00000000000E+00  0.99999944174E+02  0.99999999994E+02  0.10566000000E+00 0.  1.
         22   -1    0    0    0    0 -0.00000000000E+00 -0.00000000000E+00 -0.27402281404E+02  0.27402281404E+02  0.00000000000E+00 0. -1.
         13    1    1    2    0    0 -0.35337109331E+00 -0.37660802908E+02  0.10204991880E+02  0.39020686438E+02  0.10566000000E+00 0. -1.
        996    1    1    2    0    0  0.35337109331E+00  0.37660802908E+02  0.62392670890E+02  0.88381594960E+02  0.50000000000E+02 0.  0.
<mgrwt>
<rscale>  0 0.62597611E+02</rscale>
<asrwt>0</asrwt>
<pdfrwt beam="1">  1       13 0.10000000E+01 0.62597611E+02</pdfrwt>
<pdfrwt beam="2">  1       22 0.27402302E+00 0.62597611E+02</pdfrwt>
<totfact> 0.24966886E-01</totfact>
</mgrwt>
</event>
<event>
 4    1  0.2505250E+000  0.5113552E+02  0.7957747E-01  0.1439311E+00
         13   -1    0    0    0    0  0.00000000000E+00  0.00000000000E+00  0.99999944173E+02  0.99999999993E+02  0.10566000000E+00 0. -1.
         22   -1    0    0    0    0 -0.00000000000E+00 -0.00000000000E+00 -0.39781676069E+02  0.39781676069E+02  0.00000000000E+00 0.  1.
         13    1    1    2    0    0 -0.10441614343E+02 -0.24112707852E+01 -0.32322367826E+02  0.34052726217E+02  0.10566000000E+00 0.  1.
        996    1    1    2    0    0  0.10441614343E+02  0.24112707852E+01  0.92540635930E+02  0.10572894984E+03  0.50000000000E+02 0.  0.
<mgrwt>
<rscale>  0 0.51135521E+02</rscale>
<asrwt>0</asrwt>
<pdfrwt beam="1">  1       13 0.10000000E+01 0.51135521E+02</pdfrwt>
<pdfrwt beam="2">  1       22 0.39781693E+00 0.51135521E+02</pdfrwt>
<totfact> 0.12487707E-01</totfact>
</mgrwt>
</event>
<event>
 4    1  0.2505250E+000  0.7063103E+02  0.7957747E-01  0.1357960E+00
         13   -1    0    0    0    0  0.00000000000E+00  0.00000000000E+00  0.99999944173E+02  0.99999999993E+02  0.10566000000E+00 0.  1.
         22   -1    0    0    0    0 -0.00000000000E+00 -0.00000000000E+00 -0.36501385109E+02  0.36501385109E+02  0.00000000000E+00 0. -1.
         13    1    1    2    0    0  0.46538056186E+02 -0.17970838228E+02  0.21466123661E+02  0.54309735124E+02  0.10566000000E+00 0. -1.
        996    1    1    2    0    0 -0.46538056186E+02  0.17970838228E+02  0.42032435403E+02  0.82191649978E+02  0.50000000000E+02 0.  0.
<mgrwt>
<rscale>  0 0.70631025E+02</rscale>
<asrwt>0</asrwt>
<pdfrwt beam="1">  1       13 0.10000000E+01 0.70631025E+02</pdfrwt>
<pdfrwt beam="2">  1       22 0.36501403E+00 0.70631025E+02</pdfrwt>
<totfact> 0.14824583E-01</totfact>
</mgrwt>
</event>
<event>
 4    1  0.2505250E+000  0.5279402E+02  0.7957747E-01  0.1430829E+00
         13   -1    0    0    0    0  0.00000000000E+00  0.00000000000E+00  0.99999944178E+02  0.99999999998E+02  0.10566000000E+00 0.  1.
         22   -1    0    0    0    0 -0.00000000000E+00 -0.00000000000E+00 -0.13679769260E+02  0.13679769260E+02  0.00000000000E+00 0.  1.
         13    1    1    2    0    0 -0.16653993581E+02  0.31389450306E+01  0.40015180893E+02  0.43456119754E+02  0.10566000000E+00 0. -1.
        996    1    1    2    0    0  0.16653993581E+02 -0.31389450306E+01  0.46304994024E+02  0.70223649504E+02  0.50000000000E+02 0.  0.
<mgrwt>
<rscale>  0 0.52794019E+02</rscale>
<asrwt>0</asrwt>
<pdfrwt beam="1">  1       13 0.10000000E+01 0.52794019E+02</pdfrwt>
<pdfrwt beam="2">  1       22 0.13679793E+00 0.52794019E+02</pdfrwt>
<totfact> 0.87681814E-01</totfact>
</mgrwt>
</event>
<event>
 4    1  0.2505250E+000  0.5483424E+02  0.7957747E-01  0.1420884E+00
         13   -1    0    0    0    0  0.00000000000E+00  0.00000000000E+00  0.99999944182E+02  0.10000000000E+03  0.10566000000E+00 0.  1.
         22   -1    0    0    0    0 -0.00000000000E+00 -0.00000000000E+00 -0.28575007775E+02  0.28575007775E+02  0.00000000000E+00 0. -1.
         13    1    1    2    0    0  0.14248971304E+02 -0.17428719068E+02 -0.14403352703E+02  0.26725664906E+02  0.10566000000E+00 0. -1.
        996    1    1    2    0    0 -0.14248971304E+02  0.17428719068E+02  0.85828289110E+02  0.10184934287E+03  0.50000000000E+02 0.  0.
<mgrwt>
<rscale>  0 0.54834236E+02</rscale>
<asrwt>0</asrwt>
<pdfrwt beam="1">  1       13 0.10000000E+01 0.54834236E+02</pdfrwt>
<pdfrwt beam="2">  1       22 0.28575028E+00 0.54834236E+02</pdfrwt>
<totfact> 0.22791037E-01</totfact>
</mgrwt>
</event>
<event>
 4    1  0.2505250E+000  0.5108197E+02  0.7957747E-01  0.1439592E+00
         13   -1    0    0    0    0  0.00000000000E+00  0.00000000000E+00  0.99999944179E+02  0.99999999999E+02  0.10566000000E+00 0.  1.
         22   -1    0    0    0    0 -0.00000000000E+00 -0.00000000000E+00 -0.11047315201E+02  0.11047315201E+02  0.00000000000E+00 0.  1.
         13    1    1    2    0    0  0.97647147285E+01 -0.37440946788E+01  0.26969730342E+01  0.10800589163E+02  0.10566000000E+00 0. -1.
        996    1    1    2    0    0 -0.97647147285E+01  0.37440946788E+01  0.86255655944E+02  0.10024672604E+03  0.50000000000E+02 0.  0.
<mgrwt>
<rscale>  0 0.51081972E+02</rscale>
<asrwt>0</asrwt>
<pdfrwt beam="1">  1       13 0.10000000E+01 0.51081972E+02</pdfrwt>
<pdfrwt beam="2">  1       22 0.11047340E+00 0.51081972E+02</pdfrwt>
<totfact> 0.12153154E+00</totfact>
</mgrwt>
</event>
<event>
 4    1  0.2505250E+000  0.5289366E+02  0.7957747E-01  0.1430331E+00
         13   -1    0    0    0    0  0.00000000000E+00  0.00000000000E+00  0.99999944177E+02  0.99999999997E+02  0.10566000000E+00 0. -1.
         22   -1    0    0    0    0 -0.00000000000E+00 -0.00000000000E+00 -0.22714265985E+02  0.22714265985E+02  0.00000000000E+00 0. -1.
         13    1    1    2    0    0 -0.54406961032E+01  0.16374913458E+02 -0.10518824084E+02  0.20208804739E+02  0.10566000000E+00 0.  1.
        996    1    1    2    0    0  0.54406961032E+01 -0.16374913458E+02  0.87804502275E+02  0.10250546124E+03  0.50000000000E+02 0.  0.
<mgrwt>
<rscale>  0 0.52893657E+02</rscale>
<asrwt>0</asrwt>
<pdfrwt beam="1">  1       13 0.10000000E+01 0.52893657E+02</pdfrwt>
<pdfrwt beam="2">  1       22 0.22714288E+00 0.52893657E+02</pdfrwt>
<totfact> 0.35611354E-01</totfact>
</mgrwt>
</event>
<event>
 4    1  0.2505250E+000  0.5340569E+02  0.7957747E-01  0.1427792E+00
         13   -1    0    0    0    0  0.00000000000E+00  0.00000000000E+00  0.99999944173E+02  0.99999999993E+02  0.10566000000E+00 0. -1.
         22   -1    0    0    0    0 -0.00000000000E+00 -0.00000000000E+00 -0.13330856560E+02  0.13330856560E+02  0.00000000000E+00 0. -1.
         13    1    1    2    0    0 -0.35150564783E+01 -0.18433985871E+02  0.30610702173E+02  0.35905343734E+02  0.10566000000E+00 0.  1.
        996    1    1    2    0    0  0.35150564783E+01  0.18433985871E+02  0.56058385440E+02  0.77425512819E+02  0.50000000000E+02 0.  0.
<mgrwt>
<rscale>  0 0.53405687E+02</rscale>
<asrwt>0</asrwt>
<pdfrwt beam="1">  1       13 0.10000000E+01 0.53405687E+02</pdfrwt>
<pdfrwt beam="2">  1       22 0.13330881E+00 0.53405687E+02</pdfrwt>
<totfact> 0.91496032E-01</totfact>
</mgrwt>
</event>
<event>
 4    1  0.2505250E+000  0.6733607E+02  0.7957747E-01  0.1369394E+00
         13   -1    0    0    0    0  0.00000000000E+00  0.00000000000E+00  0.99999944184E+02  0.10000000000E+03  0.10566000000E+00 0. -1.
         22   -1    0    0    0    0 -0.00000000000E+00 -0.00000000000E+00 -0.41670433968E+02  0.41670433968E+02  0.00000000000E+00 0.  1.
         13    1    1    2    0    0 -0.27630602594E+02 -0.35646829606E+02 -0.95021818352E+01  0.46091748549E+02  0.10566000000E+00 0.  1.
        996    1    1    2    0    0  0.27630602594E+02  0.35646829606E+02  0.67831692051E+02  0.95578685423E+02  0.50000000000E+02 0.  0.
<mgrwt>
<rscale>  0 0.67336073E+02</rscale>
<asrwt>0</asrwt>
<pdfrwt beam="1">  1       13 0.10000000E+01 0.67336073E+02</pdfrwt>
<pdfrwt beam="2">  1       22 0.41670450E+00 0.67336073E+02</pdfrwt>
<totfact> 0.11526789E-01</totfact>
</mgrwt>
</event>
<event>
 4    1  0.2505250E+000  0.5119477E+02  0.7957747E-01  0.1439002E+00
         13   -1    0    0    0    0  0.00000000000E+00  0.00000000000E+00  0.99999944179E+02  0.99999999999E+02  0.10566000000E+00 0. -1.
         22   -1    0    0    0    0 -0.00000000000E+00 -0.00000000000E+00 -0.18729764826E+02  0.18729764826E+02  0.00000000000E+00 0.  1.
         13    1    1    2    0    0  0.22514201720E+00 -0.10993332514E+02 -0.94910105656E+01  0.14525649531E+02  0.10566000000E+00 0.  1.
        996    1    1    2    0    0 -0.22514201720E+00  0.10993332514E+02  0.90761189919E+02  0.10420411529E+03  0.50000000000E+02 0.  0.
<mgrwt>
<rscale>  0 0.51194766E+02</rscale>
<asrwt>0</asrwt>
<pdfrwt beam="1">  1       13 0.10000000E+01 0.51194766E+02</pdfrwt>
<pdfrwt beam="2">  1       22 0.18729788E+00 0.51194766E+02</pdfrwt>
<totfact> 0.51056524E-01</totfact>
</mgrwt>
</event>
<event>
 4    1  0.2505250E+000  0.5397821E+02  0.7957747E-01  0.1424994E+00
         13   -1    0    0    0    0  0.00000000000E+00  0.00000000000E+00  0.99999944179E+02  0.99999999999E+02  0.10566000000E+00 0.  1.
         22   -1    0    0    0    0 -0.00000000000E+00 -0.00000000000E+00 -0.52502203841E+02  0.52502203841E+02  0.00000000000E+00 0. -1.
         13    1    1    2    0    0 -0.19632326215E+02  0.53121405818E+01 -0.42751255370E+02  0.47342666485E+02  0.10566000000E+00 0. -1.
        996    1    1    2    0    0  0.19632326215E+02 -0.53121405818E+01  0.90248995709E+02  0.10515953735E+03  0.50000000000E+02 0.  0.
<mgrwt>
<rscale>  0 0.53978209E+02</rscale>
<asrwt>0</asrwt>
<pdfrwt beam="1">  1       13 0.10000000E+01 0.53978209E+02</pdfrwt>
<pdfrwt beam="2">  1       22 0.52502217E+00 0.53978209E+02</pdfrwt>
<totfact> 0.64717839E-02</totfact>
</mgrwt>
</event>
<event>
 4    1  0.2505250E+000  0.5333941E+02  0.7957747E-01  0.1428119E+00
         13   -1    0    0    0    0  0.00000000000E+00  0.00000000000E+00  0.99999944181E+02  0.10000000000E+03  0.10566000000E+00 0. -1.
         22   -1    0    0    0    0 -0.00000000000E+00 -0.00000000000E+00 -0.28851596796E+02  0.28851596796E+02  0.00000000000E+00 0.  1.
         13    1    1    2    0    0  0.17962151820E+02 -0.47385531133E+01 -0.17416739551E+02  0.25464617889E+02  0.10566000000E+00 0.  1.
        996    1    1    2    0    0 -0.17962151820E+02  0.47385531133E+01  0.88565086937E+02  0.10338697891E+03  0.50000000000E+02 0.  0.
<mgrwt>
<rscale>  0 0.53339411E+02</rscale>
<asrwt>0</asrwt>
<pdfrwt beam="1">  1       13 0.10000000E+01 0.53339411E+02</pdfrwt>
<pdfrwt beam="2">  1       22 0.28851617E+00 0.53339411E+02</pdfrwt>
<totfact> 0.22329545E-01</totfact>
</mgrwt>
</event>
<event>
 4    1  0.2505250E+000  0.5119443E+02  0.7957747E-01  0.1439004E+00
         13   -1    0    0    0    0  0.00000000000E+00  0.00000000000E+00  0.99999944181E+02  0.10000000000E+03  0.10566000000E+00 0. -1.
         22   -1    0    0    0    0 -0.00000000000E+00 -0.00000000000E+00 -0.12386167489E+02  0.12386167489E+02  0.00000000000E+00 0.  1.
         13    1    1    2    0    0 -0.51683225657E+01 -0.97035104905E+01  0.96359766409E-01  0.10995004467E+02  0.10566000000E+00 0.  1.
        996    1    1    2    0    0  0.51683225657E+01  0.97035104905E+01  0.87517416926E+02  0.10139116302E+03  0.50000000000E+02 0.  0.
<mgrwt>
<rscale>  0 0.51194430E+02</rscale>
<asrwt>0</asrwt>
<pdfrwt beam="1">  1       13 0.10000000E+01 0.51194430E+02</pdfrwt>
<pdfrwt beam="2">  1       22 0.12386192E+00 0.51194430E+02</pdfrwt>
<totfact> 0.10219256E+00</totfact>
</mgrwt>
</event>
<event>
 4    1  0.2505250E+000  0.5448806E+02  0.7957747E-01  0.1422536E+00
         13   -1    0    0    0    0  0.00000000000E+00  0.00000000000E+00  0.99999944182E+02  0.10000000000E+03  0.10566000000E+00 0. -1.
         22   -1    0    0    0    0 -0.00000000000E+00 -0.00000000000E+00 -0.62288812697E+02  0.62288812697E+02  0.00000000000E+00 0.  1.
         13    1    1    2    0    0 -0.46107190418E+01 -0.21158689072E+02 -0.52560733839E+02  0.56847082239E+02  0.10566000000E+00 0.  1.
        996    1    1    2    0    0  0.46107190418E+01  0.21158689072E+02  0.90271865324E+02  0.10544173046E+03  0.50000000000E+02 0.  0.
<mgrwt>
<rscale>  0 0.54488062E+02</rscale>
<asrwt>0</asrwt>
<pdfrwt beam="1">  1       13 0.10000000E+01 0.54488062E+02</pdfrwt>
<pdfrwt beam="2">  1       22 0.62288823E+00 0.54488062E+02</pdfrwt>
<totfact> 0.74627192E-02</totfact>
</mgrwt>
</event>
<event>
 4    1  0.2505250E+000  0.5263023E+02  0.7957747E-01  0.1431650E+00
         13   -1    0    0    0    0  0.00000000000E+00  0.00000000000E+00  0.99999944179E+02  0.99999999999E+02  0.10566000000E+00 0.  1.
         22   -1    0    0    0    0 -0.00000000000E+00 -0.00000000000E+00 -0.13580592499E+02  0.13580592499E+02  0.00000000000E+00 0. -1.
         13    1    1    2    0    0  0.19819032252E+01  0.16309911010E+02  0.60432884101E+01  0.17506388445E+02  0.10566000000E+00 0. -1.
        996    1    1    2    0    0 -0.19819032252E+01 -0.16309911010E+02  0.80376063270E+02  0.96074204053E+02  0.50000000000E+02 0.  0.
<mgrwt>
<rscale>  0 0.52630230E+02</rscale>
<asrwt>0</asrwt>
<pdfrwt beam="1">  1       13 0.10000000E+01 0.52630230E+02</pdfrwt>
<pdfrwt beam="2">  1       22 0.13580617E+00 0.52630230E+02</pdfrwt>
<totfact> 0.88680746E-01</totfact>
</mgrwt>
</event>
<event>
 4    1  0.2505250E+000  0.5175558E+02  0.7957747E-01  0.1436096E+00
         13   -1    0    0    0    0  0.00000000000E+00  0.00000000000E+00  0.99999944185E+02  0.10000000001E+03  0.10566000000E+00 0. -1.
         22   -1    0    0    0    0 -0.00000000000E+00 -0.00000000000E+00 -0.13948237743E+02  0.13948237743E+02  0.00000000000E+00 0. -1.
         13    1    1    2    0    0 -0.73182467958E+01  0.11184066738E+02 -0.19132966037E+00  0.13367417703E+02  0.10566000000E+00 0.  1.
        996    1    1    2    0    0  0.73182467958E+01 -0.11184066738E+02  0.86243036102E+02  0.10058082005E+03  0.50000000000E+02 0.  0.
<mgrwt>
<rscale>  0 0.51755580E+02</rscale>
<asrwt>0</asrwt>
<pdfrwt beam="1">  1       13 0.10000000E+01 0.51755580E+02</pdfrwt>
<pdfrwt beam="2">  1       22 0.13948262E+00 0.51755580E+02</pdfrwt>
<totfact> 0.84791184E-01</totfact>
</mgrwt>
</event>
<event>
 4    1  0.2505250E+000  0.5424066E+02  0.7957747E-01  0.1423724E+00
         13   -1    0    0    0    0  0.00000000000E+00  0.00000000000E+00  0.99999944179E+02  0.99999999999E+02  0.10566000000E+00 0.  1.
         22   -1    0    0    0    0 -0.00000000000E+00 -0.00000000000E+00 -0.52836272488E+02  0.52836272488E+02  0.00000000000E+00 0. -1.
         13    1    1    2    0    0  0.19861400108E+02  0.68973848715E+01 -0.42857464288E+02  0.47737014377E+02  0.10566000000E+00 0. -1.
        996    1    1    2    0    0 -0.19861400108E+02 -0.68973848715E+01  0.90021135980E+02  0.10509925811E+03  0.50000000000E+02 0.  0.
<mgrwt>
<rscale>  0 0.54240659E+02</rscale>
<asrwt>0</asrwt>
<pdfrwt beam="1">  1       13 0.10000000E+01 0.54240659E+02</pdfrwt>
<pdfrwt beam="2">  1       22 0.52836286E+00 0.54240659E+02</pdfrwt>
<totfact> 0.63683495E-02</totfact>
</mgrwt>
</event>
<event>
 4    1  0.2505250E+000  0.5321720E+02  0.7957747E-01  0.1428723E+00
         13   -1    0    0    0    0  0.00000000000E+00  0.00000000000E+00  0.99999944179E+02  0.99999999999E+02  0.10566000000E+00 0.  1.
         22   -1    0    0    0    0 -0.00000000000E+00 -0.00000000000E+00 -0.24031620815E+02  0.24031620815E+02  0.00000000000E+00 0. -1.
         13    1    1    2    0    0  0.73048814428E+01  0.16694581699E+02 -0.11570419231E+02  0.21586016682E+02  0.10566000000E+00 0. -1.
        996    1    1    2    0    0 -0.73048814428E+01 -0.16694581699E+02  0.87538742594E+02  0.10244560413E+03  0.50000000000E+02 0.  0.
<mgrwt>
<rscale>  0 0.53217200E+02</rscale>
<asrwt>0</asrwt>
<pdfrwt beam="1">  1       13 0.10000000E+01 0.53217200E+02</pdfrwt>
<pdfrwt beam="2">  1       22 0.24031642E+00 0.53217200E+02</pdfrwt>
<totfact> 0.31919207E-01</totfact>
</mgrwt>
</event>
<event>
 4    1  0.2505250E+000  0.6795608E+02  0.7957747E-01  0.1367185E+00
         13   -1    0    0    0    0  0.00000000000E+00  0.00000000000E+00  0.99999944171E+02  0.99999999991E+02  0.10566000000E+00 0. -1.
         22   -1    0    0    0    0 -0.00000000000E+00 -0.00000000000E+00 -0.34411842557E+02  0.34411842557E+02  0.00000000000E+00 0.  1.
         13    1    1    2    0    0 -0.15195980096E+02 -0.43440890026E+02  0.11185350076E+02  0.47361925189E+02  0.10566000000E+00 0.  1.
        996    1    1    2    0    0  0.15195980096E+02  0.43440890026E+02  0.54402751538E+02  0.87049917359E+02  0.50000000000E+02 0.  0.
<mgrwt>
<rscale>  0 0.67956079E+02</rscale>
<asrwt>0</asrwt>
<pdfrwt beam="1">  1       13 0.10000000E+01 0.67956079E+02</pdfrwt>
<pdfrwt beam="2">  1       22 0.34411861E+00 0.67956079E+02</pdfrwt>
<totfact> 0.16426973E-01</totfact>
</mgrwt>
</event>
<event>
 4    1  0.2505250E+000  0.5177135E+02  0.7957747E-01  0.1436015E+00
         13   -1    0    0    0    0  0.00000000000E+00  0.00000000000E+00  0.99999944175E+02  0.99999999995E+02  0.10566000000E+00 0.  1.
         22   -1    0    0    0    0 -0.00000000000E+00 -0.00000000000E+00 -0.12822243298E+02  0.12822243298E+02  0.00000000000E+00 0.  1.
         13    1    1    2    0    0 -0.52277661699E+01  0.12367011348E+02  0.26286516973E+01  0.13681866927E+02  0.10566000000E+00 0. -1.
        996    1    1    2    0    0  0.52277661699E+01 -0.12367011348E+02  0.84549049180E+02  0.99140376366E+02  0.50000000000E+02 0.  0.
<mgrwt>
<rscale>  0 0.51771348E+02</rscale>
<asrwt>0</asrwt>
<pdfrwt beam="1">  1       13 0.10000000E+01 0.51771348E+02</pdfrwt>
<pdfrwt beam="2">  1       22 0.12822268E+00 0.51771348E+02</pdfrwt>
<totfact> 0.96954381E-01</totfact>
</mgrwt>
</event>
<event>
 4    1  0.2505250E+000  0.5404521E+02  0.7957747E-01  0.1424669E+00
         13   -1    0    0    0    0  0.00000000000E+00  0.00000000000E+00  0.99999944183E+02  0.10000000000E+03  0.10566000000E+00 0. -1.
         22   -1    0    0    0    0 -0.00000000000E+00 -0.00000000000E+00 -0.24083063631E+02  0.24083063631E+02  0.00000000000E+00 0.  1.
         13    1    1    2    0    0 -0.14687200597E+02  0.14323773576E+02 -0.98112635354E+01  0.22741073129E+02  0.10566000000E+00 0.  1.
        996    1    1    2    0    0  0.14687200597E+02 -0.14323773576E+02  0.85728144087E+02  0.10134199050E+03  0.50000000000E+02 0.  0.
<mgrwt>
<rscale>  0 0.54045207E+02</rscale>
<asrwt>0</asrwt>
<pdfrwt beam="1">  1       13 0.10000000E+01 0.54045207E+02</pdfrwt>
<pdfrwt beam="2">  1       22 0.24083085E+00 0.54045207E+02</pdfrwt>
<totfact> 0.31826731E-01</totfact>
</mgrwt>
</event>
<event>
 4    1  0.2505250E+000  0.5149951E+02  0.7957747E-01  0.1437417E+00
         13   -1    0    0    0    0  0.00000000000E+00  0.00000000000E+00  0.99999944171E+02  0.99999999991E+02  0.10566000000E+00 0. -1.
         22   -1    0    0    0    0 -0.00000000000E+00 -0.00000000000E+00 -0.13019308558E+02  0.13019308558E+02  0.00000000000E+00 0. -1.
         13    1    1    2    0    0 -0.83297250433E+01 -0.91002922009E+01  0.47750068590E+00  0.12346611210E+02  0.10566000000E+00 0.  1.
        996    1    1    2    0    0  0.83297250433E+01  0.91002922009E+01  0.86503134927E+02  0.10067269734E+03  0.50000000000E+02 0.  0.
<mgrwt>
<rscale>  0 0.51499511E+02</rscale>
<asrwt>0</asrwt>
<pdfrwt beam="1">  1       13 0.10000000E+01 0.51499511E+02</pdfrwt>
<pdfrwt beam="2">  1       22 0.13019333E+00 0.51499511E+02</pdfrwt>
<totfact> 0.94601650E-01</totfact>
</mgrwt>
</event>
<event>
 4    1  0.2505250E+000  0.5103168E+02  0.7957747E-01  0.1439855E+00
         13   -1    0    0    0    0  0.00000000000E+00  0.00000000000E+00  0.99999944178E+02  0.99999999998E+02  0.10566000000E+00 0.  1.
         22   -1    0    0    0    0 -0.00000000000E+00 -0.00000000000E+00 -0.14556969876E+02  0.14556969876E+02  0.00000000000E+00 0. -1.
         13    1    1    2    0    0 -0.81081805700E+01  0.62039717622E+01 -0.44903121311E+01  0.11153740397E+02  0.10566000000E+00 0. -1.
        996    1    1    2    0    0  0.81081805700E+01 -0.62039717622E+01  0.89933286433E+02  0.10340322948E+03  0.50000000000E+02 0.  0.
<mgrwt>
<rscale>  0 0.51031675E+02</rscale>
<asrwt>0</asrwt>
<pdfrwt beam="1">  1       13 0.10000000E+01 0.51031675E+02</pdfrwt>
<pdfrwt beam="2">  1       22 0.14556994E+00 0.51031675E+02</pdfrwt>
<totfact> 0.78963060E-01</totfact>
</mgrwt>
</event>
<event>
 4    1  0.2505250E+000  0.5614755E+02  0.7957747E-01  0.1414749E+00
         13   -1    0    0    0    0  0.00000000000E+00  0.00000000000E+00  0.99999944175E+02  0.99999999995E+02  0.10566000000E+00 0. -1.
         22   -1    0    0    0    0 -0.00000000000E+00 -0.00000000000E+00 -0.27335776525E+02  0.27335776525E+02  0.00000000000E+00 0.  1.
         13    1    1    2    0    0  0.21646565702E+02  0.13563667490E+02 -0.99777166615E+01  0.27424676411E+02  0.10566000000E+00 0.  1.
        996    1    1    2    0    0 -0.21646565702E+02 -0.13563667490E+02  0.82641884312E+02  0.99911100109E+02  0.50000000000E+02 0.  0.
<mgrwt>
<rscale>  0 0.56147546E+02</rscale>
<asrwt>0</asrwt>
<pdfrwt beam="1">  1       13 0.10000000E+01 0.56147546E+02</pdfrwt>
<pdfrwt beam="2">  1       22 0.27335797E+00 0.56147546E+02</pdfrwt>
<totfact> 0.24882191E-01</totfact>
</mgrwt>
</event>
<event>
 4    1  0.2505250E+000  0.5188685E+02  0.7957747E-01  0.1435422E+00
         13   -1    0    0    0    0  0.00000000000E+00  0.00000000000E+00  0.99999944176E+02  0.99999999997E+02  0.10566000000E+00 0.  1.
         22   -1    0    0    0    0 -0.00000000000E+00 -0.00000000000E+00 -0.13424911332E+02  0.13424911332E+02  0.00000000000E+00 0.  1.
         13    1    1    2    0    0 -0.31667042771E+01  0.13498792047E+02  0.17319031835E+01  0.13973405290E+02  0.10566000000E+00 0. -1.
        996    1    1    2    0    0  0.31667042771E+01 -0.13498792047E+02  0.84843129661E+02  0.99451506039E+02  0.50000000000E+02 0.  0.
<mgrwt>
<rscale>  0 0.51886852E+02</rscale>
<asrwt>0</asrwt>
<pdfrwt beam="1">  1       13 0.10000000E+01 0.51886852E+02</pdfrwt>
<pdfrwt beam="2">  1       22 0.13424936E+00 0.51886852E+02</pdfrwt>
<totfact> 0.90187293E-01</totfact>
</mgrwt>
</event>
<event>
 4    1  0.2505250E+000  0.5583575E+02  0.7957747E-01  0.1416187E+00
         13   -1    0    0    0    0  0.00000000000E+00  0.00000000000E+00  0.99999944181E+02  0.10000000000E+03  0.10566000000E+00 0. -1.
         22   -1    0    0    0    0 -0.00000000000E+00 -0.00000000000E+00 -0.62574220694E+02  0.62574220694E+02  0.00000000000E+00 0.  1.
         13    1    1    2    0    0  0.21773095768E+02  0.11981783923E+02 -0.51722674112E+02  0.57383595449E+02  0.10566000000E+00 0.  1.
        996    1    1    2    0    0 -0.21773095768E+02 -0.11981783923E+02  0.89148397599E+02  0.10519062525E+03  0.50000000000E+02 0.  0.
<mgrwt>
<rscale>  0 0.55835749E+02</rscale>
<asrwt>0</asrwt>
<pdfrwt beam="1">  1       13 0.10000000E+01 0.55835749E+02</pdfrwt>
<pdfrwt beam="2">  1       22 0.62574231E+00 0.55835749E+02</pdfrwt>
<totfact> 0.76305757E-02</totfact>
</mgrwt>
</event>
<event>
 4    1  0.2505250E+000  0.5119214E+02  0.7957747E-01  0.1439016E+00
         13   -1    0    0    0    0  0.00000000000E+00  0.00000000000E+00  0.99999944179E+02  0.99999999999E+02  0.10566000000E+00 0.  1.
         22   -1    0    0    0    0 -0.00000000000E+00 -0.00000000000E+00 -0.10429239428E+02  0.10429239428E+02  0.00000000000E+00 0. -1.
         13    1    1    2    0    0 -0.10275859277E+02  0.38784050659E+01  0.62467215487E+01  0.12635980527E+02  0.10566000000E+00 0. -1.
        996    1    1    2    0    0  0.10275859277E+02 -0.38784050659E+01  0.83323983202E+02  0.97793258900E+02  0.50000000000E+02 0.  0.
<mgrwt>
<rscale>  0 0.51192141E+02</rscale>
<asrwt>0</asrwt>
<pdfrwt beam="1">  1       13 0.10000000E+01 0.51192141E+02</pdfrwt>
<pdfrwt beam="2">  1       22 0.10429264E+00 0.51192141E+02</pdfrwt>
<totfact> 0.13235032E+00</totfact>
</mgrwt>
</event>
<event>
 4    1  0.2505250E+000  0.5214420E+02  0.7957747E-01  0.1434108E+00
         13   -1    0    0    0    0  0.00000000000E+00  0.00000000000E+00  0.99999944179E+02  0.99999999999E+02  0.10566000000E+00 0. -1.
         22   -1    0    0    0    0 -0.00000000000E+00 -0.00000000000E+00 -0.17593814348E+02  0.17593814348E+02  0.00000000000E+00 0.  1.
         13    1    1    2    0    0  0.41417268485E+00  0.14793437402E+02 -0.51638609293E+01  0.15674627680E+02  0.10566000000E+00 0.  1.
        996    1    1    2    0    0 -0.41417268485E+00 -0.14793437402E+02  0.87569990760E+02  0.10191918667E+03  0.50000000000E+02 0.  0.
<mgrwt>
<rscale>  0 0.52144197E+02</rscale>
<asrwt>0</asrwt>
<pdfrwt beam="1">  1       13 0.10000000E+01 0.52144197E+02</pdfrwt>
<pdfrwt beam="2">  1       22 0.17593837E+00 0.52144197E+02</pdfrwt>
<totfact> 0.57240393E-01</totfact>
</mgrwt>
</event>
<event>
 4    1  0.2505250E+000  0.5106313E+02  0.7957747E-01  0.1439690E+00
         13   -1    0    0    0    0  0.00000000000E+00  0.00000000000E+00  0.99999944182E+02  0.10000000000E+03  0.10566000000E+00 0.  1.
         22   -1    0    0    0    0 -0.00000000000E+00 -0.00000000000E+00 -0.10768604163E+02  0.10768604163E+02  0.00000000000E+00 0.  1.
         13    1    1    2    0    0 -0.85803605689E+01 -0.58155766966E+01  0.34018833604E+02  0.35563123086E+02  0.10566000000E+00 0. -1.
        996    1    1    2    0    0  0.85803605689E+01  0.58155766966E+01  0.55212506415E+02  0.75205481080E+02  0.50000000000E+02 0.  0.
<mgrwt>
<rscale>  0 0.51063133E+02</rscale>
<asrwt>0</asrwt>
<pdfrwt beam="1">  1       13 0.10000000E+01 0.51063133E+02</pdfrwt>
<pdfrwt beam="2">  1       22 0.10768629E+00 0.51063133E+02</pdfrwt>
<totfact> 0.12622106E+00</totfact>
</mgrwt>
</event>
<event>
 4    1  0.2505250E+000  0.5354288E+02  0.7957747E-01  0.1427118E+00
         13   -1    0    0    0    0  0.00000000000E+00  0.00000000000E+00  0.99999944184E+02  0.10000000000E+03  0.10566000000E+00 0.  1.
         22   -1    0    0    0    0 -0.00000000000E+00 -0.00000000000E+00 -0.64989083682E+02  0.64989083682E+02  0.00000000000E+00 0. -1.
         13    1    1    2    0    0 -0.17622131751E+02 -0.75033852692E+01 -0.56116956707E+02  0.59295567390E+02  0.10566000000E+00 0. -1.
        996    1    1    2    0    0  0.17622131751E+02  0.75033852692E+01  0.91127817209E+02  0.10569351630E+03  0.50000000000E+02 0.  0.
<mgrwt>
<rscale>  0 0.53542883E+02</rscale>
<asrwt>0</asrwt>
<pdfrwt beam="1">  1       13 0.10000000E+01 0.53542883E+02</pdfrwt>
<pdfrwt beam="2">  1       22 0.64989093E+00 0.53542883E+02</pdfrwt>
<totfact> 0.86358491E-02</totfact>
</mgrwt>
</event>
<event>
 4    1  0.2505250E+000  0.5099946E+02  0.7957747E-01  0.1440024E+00
         13   -1    0    0    0    0  0.00000000000E+00  0.00000000000E+00  0.99999944181E+02  0.10000000000E+03  0.10566000000E+00 0. -1.
         22   -1    0    0    0    0 -0.00000000000E+00 -0.00000000000E+00 -0.11884018323E+02  0.11884018323E+02  0.00000000000E+00 0.  1.
         13    1    1    2    0    0 -0.46961828206E+01 -0.88820312780E+01 -0.29902785138E-01  0.10047719688E+02  0.10566000000E+00 0.  1.
        996    1    1    2    0    0  0.46961828206E+01  0.88820312780E+01  0.88145828643E+02  0.10183629864E+03  0.50000000000E+02 0.  0.
<mgrwt>
<rscale>  0 0.50999457E+02</rscale>
<asrwt>0</asrwt>
<pdfrwt beam="1">  1       13 0.10000000E+01 0.50999457E+02</pdfrwt>
<pdfrwt beam="2">  1       22 0.11884043E+00 0.50999457E+02</pdfrwt>
<totfact> 0.10885536E+00</totfact>
</mgrwt>
</event>
<event>
 4    1  0.2505250E+000  0.5524768E+02  0.7957747E-01  0.1418931E+00
         13   -1    0    0    0    0  0.00000000000E+00  0.00000000000E+00  0.99999944182E+02  0.10000000000E+03  0.10566000000E+00 0.  1.
         22   -1    0    0    0    0 -0.00000000000E+00 -0.00000000000E+00 -0.15775067894E+02  0.15775067894E+02  0.00000000000E+00 0.  1.
         13    1    1    2    0    0  0.16923034712E+02  0.16306959759E+02  0.18465945534E+02  0.29888264402E+02  0.10566000000E+00 0. -1.
        996    1    1    2    0    0 -0.16923034712E+02 -0.16306959759E+02  0.65758930754E+02  0.85886803494E+02  0.50000000000E+02 0.  0.
<mgrwt>
<rscale>  0 0.55247679E+02</rscale>
<asrwt>0</asrwt>
<pdfrwt beam="1">  1       13 0.10000000E+01 0.55247679E+02</pdfrwt>
<pdfrwt beam="2">  1       22 0.15775091E+00 0.55247679E+02</pdfrwt>
<totfact> 0.69610528E-01</totfact>
</mgrwt>
</event>
<event>
 4    1  0.2505250E+000  0.5388722E+02  0.7957747E-01  0.1425436E+00
         13   -1    0    0    0    0  0.00000000000E+00  0.00000000000E+00  0.99999944185E+02  0.10000000000E+03  0.10566000000E+00 0.  1.
         22   -1    0    0    0    0 -0.00000000000E+00 -0.00000000000E+00 -0.27439784366E+02  0.27439784366E+02  0.00000000000E+00 0. -1.
         13    1    1    2    0    0  0.10872170442E+02  0.16900548634E+02 -0.14688337694E+02  0.24891586179E+02  0.10566000000E+00 0. -1.
        996    1    1    2    0    0 -0.10872170442E+02 -0.16900548634E+02  0.87248497512E+02  0.10254819819E+03  0.50000000000E+02 0.  0.
<mgrwt>
<rscale>  0 0.53887221E+02</rscale>
<asrwt>0</asrwt>
<pdfrwt beam="1">  1       13 0.10000000E+01 0.53887221E+02</pdfrwt>
<pdfrwt beam="2">  1       22 0.27439805E+00 0.53887221E+02</pdfrwt>
<totfact> 0.24621992E-01</totfact>
</mgrwt>
</event>
<event>
 4    1  0.2505250E+000  0.5161310E+02  0.7957747E-01  0.1436830E+00
         13   -1    0    0    0    0  0.00000000000E+00  0.00000000000E+00  0.99999944184E+02  0.10000000000E+03  0.10566000000E+00 0. -1.
         22   -1    0    0    0    0 -0.00000000000E+00 -0.00000000000E+00 -0.10499563010E+02  0.10499563010E+02  0.00000000000E+00 0. -1.
         13    1    1    2    0    0 -0.12216683087E+02 -0.38294286746E+01  0.22957920408E+02  0.26286672348E+02  0.10566000000E+00 0.  1.
        996    1    1    2    0    0  0.12216683087E+02  0.38294286746E+01  0.66542460766E+02  0.84212890667E+02  0.50000000000E+02 0.  0.
<mgrwt>
<rscale>  0 0.51613098E+02</rscale>
<asrwt>0</asrwt>
<pdfrwt beam="1">  1       13 0.10000000E+01 0.51613098E+02</pdfrwt>
<pdfrwt beam="2">  1       22 0.10499588E+00 0.51613098E+02</pdfrwt>
<totfact> 0.13118422E+00</totfact>
</mgrwt>
</event>
<event>
 4    1  0.2505250E+000  0.5113110E+02  0.7957747E-01  0.1439334E+00
         13   -1    0    0    0    0  0.00000000000E+00  0.00000000000E+00  0.99999944177E+02  0.99999999998E+02  0.10566000000E+00 0.  1.
         22   -1    0    0    0    0 -0.00000000000E+00 -0.00000000000E+00 -0.15860977541E+02  0.15860977541E+02  0.00000000000E+00 0.  1.
         13    1    1    2    0    0  0.10563963558E+02  0.16709060951E+01 -0.59749732008E+01  0.12251559983E+02  0.10566000000E+00 0. -1.
        996    1    1    2    0    0 -0.10563963558E+02 -0.16709060951E+01  0.90113939837E+02  0.10360941756E+03  0.50000000000E+02 0.  0.
<mgrwt>
<rscale>  0 0.51131099E+02</rscale>
<asrwt>0</asrwt>
<pdfrwt beam="1">  1       13 0.10000000E+01 0.51131099E+02</pdfrwt>
<pdfrwt beam="2">  1       22 0.15861001E+00 0.51131099E+02</pdfrwt>
<totfact> 0.68418087E-01</totfact>
</mgrwt>
</event>
<event>
 4    1  0.2505250E+000  0.5502705E+02  0.7957747E-01  0.1419971E+00
         13   -1    0    0    0    0  0.00000000000E+00  0.00000000000E+00  0.99999944193E+02  0.10000000001E+03  0.10566000000E+00 0.  1.
         22   -1    0    0    0    0 -0.00000000000E+00 -0.00000000000E+00 -0.23693837132E+02  0.23693837132E+02  0.00000000000E+00 0. -1.
         13    1    1    2    0    0 -0.15174207165E+02 -0.17254557922E+02 -0.68521367369E+01  0.23977891360E+02  0.10566000000E+00 0. -1.
        996    1    1    2    0    0  0.15174207165E+02  0.17254557922E+02  0.83158243798E+02  0.99715945785E+02  0.50000000000E+02 0.  0.
<mgrwt>
<rscale>  0 0.55027051E+02</rscale>
<asrwt>0</asrwt>
<pdfrwt beam="1">  1       13 0.10000000E+01 0.55027051E+02</pdfrwt>
<pdfrwt beam="2">  1       22 0.23693858E+00 0.55027051E+02</pdfrwt>
<totfact> 0.32909373E-01</totfact>
</mgrwt>
</event>
<event>
 4    1  0.2505250E+000  0.5194774E+02  0.7957747E-01  0.1435110E+00
         13   -1    0    0    0    0  0.00000000000E+00  0.00000000000E+00  0.99999944180E+02  0.10000000000E+03  0.10566000000E+00 0. -1.
         22   -1    0    0    0    0 -0.00000000000E+00 -0.00000000000E+00 -0.30167038995E+02  0.30167038995E+02  0.00000000000E+00 0.  1.
         13    1    1    2    0    0 -0.12174258132E+02 -0.70961705025E+01 -0.21140503455E+02  0.25406696898E+02  0.10566000000E+00 0.  1.
        996    1    1    2    0    0  0.12174258132E+02  0.70961705025E+01  0.90973408640E+02  0.10476034210E+03  0.50000000000E+02 0.  0.
<mgrwt>
<rscale>  0 0.51947745E+02</rscale>
<asrwt>0</asrwt>
<pdfrwt beam="1">  1       13 0.10000000E+01 0.51947745E+02</pdfrwt>
<pdfrwt beam="2">  1       22 0.30167058E+00 0.51947745E+02</pdfrwt>
<totfact> 0.20488182E-01</totfact>
</mgrwt>
</event>
<event>
 4    1  0.2505250E+000  0.5351825E+02  0.7957747E-01  0.1427239E+00
         13   -1    0    0    0    0  0.00000000000E+00  0.00000000000E+00  0.99999944182E+02  0.10000000000E+03  0.10566000000E+00 0. -1.
         22   -1    0    0    0    0 -0.00000000000E+00 -0.00000000000E+00 -0.21104138571E+02  0.21104138571E+02  0.00000000000E+00 0.  1.
         13    1    1    2    0    0 -0.51853508496E+01 -0.18366151229E+02 -0.66389408539E+01  0.20206189005E+02  0.10566000000E+00 0.  1.
        996    1    1    2    0    0  0.51853508496E+01  0.18366151229E+02  0.85534746464E+02  0.10089794957E+03  0.50000000000E+02 0.  0.
<mgrwt>
<rscale>  0 0.53518253E+02</rscale>
<asrwt>0</asrwt>
<pdfrwt beam="1">  1       13 0.10000000E+01 0.53518253E+02</pdfrwt>
<pdfrwt beam="2">  1       22 0.21104161E+00 0.53518253E+02</pdfrwt>
<totfact> 0.41055578E-01</totfact>
</mgrwt>
</event>
<event>
 4    1  0.2505250E+000  0.5143141E+02  0.7957747E-01  0.1437770E+00
         13   -1    0    0    0    0  0.00000000000E+00  0.00000000000E+00  0.99999944173E+02  0.99999999993E+02  0.10566000000E+00 0. -1.
         22   -1    0    0    0    0 -0.00000000000E+00 -0.00000000000E+00 -0.53365745881E+02  0.53365745881E+02  0.00000000000E+00 0.  1.
         13    1    1    2    0    0  0.49351941475E+01  0.10992457330E+02 -0.45923698345E+02  0.47478284438E+02  0.10566000000E+00 0.  1.
        996    1    1    2    0    0 -0.49351941475E+01 -0.10992457330E+02  0.92557896637E+02  0.10588746144E+03  0.50000000000E+02 0.  0.
<mgrwt>
<rscale>  0 0.51431413E+02</rscale>
<asrwt>0</asrwt>
<pdfrwt beam="1">  1       13 0.10000000E+01 0.51431413E+02</pdfrwt>
<pdfrwt beam="2">  1       22 0.53365759E+00 0.51431413E+02</pdfrwt>
<totfact> 0.62114414E-02</totfact>
</mgrwt>
</event>
<event>
 4    1  0.2505250E+000  0.5940905E+02  0.7957747E-01  0.1400329E+00
         13   -1    0    0    0    0  0.00000000000E+00  0.00000000000E+00  0.99999944174E+02  0.99999999994E+02  0.10566000000E+00 0. -1.
         22   -1    0    0    0    0 -0.00000000000E+00 -0.00000000000E+00 -0.24827633579E+02  0.24827633579E+02  0.00000000000E+00 0.  1.
         13    1    1    2    0    0  0.51834474522E+01 -0.31663331770E+02  0.43362672650E+01  0.32376675001E+02  0.10566000000E+00 0.  1.
        996    1    1    2    0    0 -0.51834474522E+01  0.31663331770E+02  0.70836043330E+02  0.92450958572E+02  0.50000000000E+02 0.  0.
<mgrwt>
<rscale>  0 0.59409046E+02</rscale>
<asrwt>0</asrwt>
<pdfrwt beam="1">  1       13 0.10000000E+01 0.59409046E+02</pdfrwt>
<pdfrwt beam="2">  1       22 0.24827655E+00 0.59409046E+02</pdfrwt>
<totfact> 0.30209966E-01</totfact>
</mgrwt>
</event>
<event>
 4    1  0.2505250E+000  0.5147367E+02  0.7957747E-01  0.1437551E+00
         13   -1    0    0    0    0  0.00000000000E+00  0.00000000000E+00  0.99999944182E+02  0.10000000000E+03  0.10566000000E+00 0. -1.
         22   -1    0    0    0    0 -0.00000000000E+00 -0.00000000000E+00 -0.10335157222E+02  0.10335157222E+02  0.00000000000E+00 0. -1.
         13    1    1    2    0    0 -0.12076296105E+02  0.19239240429E+01  0.23647496724E+02  0.26622428077E+02  0.10566000000E+00 0.  1.
        996    1    1    2    0    0  0.12076296105E+02 -0.19239240429E+01  0.66017290236E+02  0.83712729148E+02  0.50000000000E+02 0.  0.
<mgrwt>
<rscale>  0 0.51473667E+02</rscale>
<asrwt>0</asrwt>
<pdfrwt beam="1">  1       13 0.10000000E+01 0.51473667E+02</pdfrwt>
<pdfrwt beam="2">  1       22 0.10335182E+00 0.51473667E+02</pdfrwt>
<totfact> 0.13420695E+00</totfact>
</mgrwt>
</event>
<event>
 4    1  0.2505250E+000  0.5322972E+02  0.7957747E-01  0.1428661E+00
         13   -1    0    0    0    0  0.00000000000E+00  0.00000000000E+00  0.99999944176E+02  0.99999999996E+02  0.10566000000E+00 0.  1.
         22   -1    0    0    0    0 -0.00000000000E+00 -0.00000000000E+00 -0.14185054332E+02  0.14185054332E+02  0.00000000000E+00 0. -1.
         13    1    1    2    0    0 -0.17484102443E+02 -0.52640074195E+01  0.80695258736E+01  0.19963266873E+02  0.10566000000E+00 0. -1.
        996    1    1    2    0    0  0.17484102443E+02  0.52640074195E+01  0.77745363971E+02  0.94221787456E+02  0.50000000000E+02 0.  0.
<mgrwt>
<rscale>  0 0.53229725E+02</rscale>
<asrwt>0</asrwt>
<pdfrwt beam="1">  1       13 0.10000000E+01 0.53229725E+02</pdfrwt>
<pdfrwt beam="2">  1       22 0.14185078E+00 0.53229725E+02</pdfrwt>
<totfact> 0.82757355E-01</totfact>
</mgrwt>
</event>
<event>
 4    1  0.2505250E+000  0.5331972E+02  0.7957747E-01  0.1428216E+00
         13   -1    0    0    0    0  0.00000000000E+00  0.00000000000E+00  0.99999944176E+02  0.99999999996E+02  0.10566000000E+00 0. -1.
         22   -1    0    0    0    0 -0.00000000000E+00 -0.00000000000E+00 -0.13118228797E+02  0.13118228797E+02  0.00000000000E+00 0. -1.
         13    1    1    2    0    0 -0.18318826918E+02 -0.27227814535E+01  0.29105830223E+02  0.34498601065E+02  0.10566000000E+00 0.  1.
        996    1    1    2    0    0  0.18318826918E+02  0.27227814535E+01  0.57775885156E+02  0.78619627727E+02  0.50000000000E+02 0.  0.
<mgrwt>
<rscale>  0 0.53319724E+02</rscale>
<asrwt>0</asrwt>
<pdfrwt beam="1">  1       13 0.10000000E+01 0.53319724E+02</pdfrwt>
<pdfrwt beam="2">  1       22 0.13118253E+00 0.53319724E+02</pdfrwt>
<totfact> 0.93843164E-01</totfact>
</mgrwt>
</event>
<event>
 4    1  0.2505250E+000  0.5281591E+02  0.7957747E-01  0.1430719E+00
         13   -1    0    0    0    0  0.00000000000E+00  0.00000000000E+00  0.99999944179E+02  0.99999999999E+02  0.10566000000E+00 0.  1.
         22   -1    0    0    0    0 -0.00000000000E+00 -0.00000000000E+00 -0.12249069354E+02  0.12249069354E+02  0.00000000000E+00 0.  1.
         13    1    1    2    0    0  0.91143577955E+01  0.14368345485E+02  0.18170389782E+02  0.24893675881E+02  0.10566000000E+00 0. -1.
        996    1    1    2    0    0 -0.91143577955E+01 -0.14368345485E+02  0.69580485042E+02  0.87355393472E+02  0.50000000000E+02 0.  0.
<mgrwt>
<rscale>  0 0.52815915E+02</rscale>
<asrwt>0</asrwt>
<pdfrwt beam="1">  1       13 0.10000000E+01 0.52815915E+02</pdfrwt>
<pdfrwt beam="2">  1       22 0.12249094E+00 0.52815915E+02</pdfrwt>
<totfact> 0.10433938E+00</totfact>
</mgrwt>
</event>
<event>
 4    1  0.2505250E+000  0.5159785E+02  0.7957747E-01  0.1436909E+00
         13   -1    0    0    0    0  0.00000000000E+00  0.00000000000E+00  0.99999944176E+02  0.99999999996E+02  0.10566000000E+00 0.  1.
         22   -1    0    0    0    0 -0.00000000000E+00 -0.00000000000E+00 -0.18284944961E+02  0.18284944961E+02  0.00000000000E+00 0.  1.
         13    1    1    2    0    0 -0.73654932793E+01 -0.10396535590E+02 -0.78174220785E+01  0.14948635239E+02  0.10566000000E+00 0. -1.
        996    1    1    2    0    0  0.73654932793E+01  0.10396535590E+02  0.89532421293E+02  0.10333630972E+03  0.50000000000E+02 0.  0.
<mgrwt>
<rscale>  0 0.51597853E+02</rscale>
<asrwt>0</asrwt>
<pdfrwt beam="1">  1       13 0.10000000E+01 0.51597853E+02</pdfrwt>
<pdfrwt beam="2">  1       22 0.18284968E+00 0.51597853E+02</pdfrwt>
<totfact> 0.53369792E-01</totfact>
</mgrwt>
</event>
<event>
 4    1  0.2505250E+000  0.5266286E+02  0.7957747E-01  0.1431486E+00
         13   -1    0    0    0    0  0.00000000000E+00  0.00000000000E+00  0.99999944178E+02  0.99999999998E+02  0.10566000000E+00 0.  1.
         22   -1    0    0    0    0 -0.00000000000E+00 -0.00000000000E+00 -0.13333793843E+02  0.13333793843E+02  0.00000000000E+00 0. -1.
         13    1    1    2    0    0 -0.74560745172E+01  0.14757488010E+02  0.72753049369E+01  0.18064266538E+02  0.10566000000E+00 0. -1.
        996    1    1    2    0    0  0.74560745172E+01 -0.14757488010E+02  0.79390845398E+02  0.95269527303E+02  0.50000000000E+02 0.  0.
<mgrwt>
<rscale>  0 0.52662857E+02</rscale>
<asrwt>0</asrwt>
<pdfrwt beam="1">  1       13 0.10000000E+01 0.52662857E+02</pdfrwt>
<pdfrwt beam="2">  1       22 0.13333818E+00 0.52662857E+02</pdfrwt>
<totfact> 0.91321497E-01</totfact>
</mgrwt>
</event>
<event>
 4    1  0.2505250E+000  0.5266266E+02  0.7957747E-01  0.1431487E+00
         13   -1    0    0    0    0  0.00000000000E+00  0.00000000000E+00  0.99999944180E+02  0.10000000000E+03  0.10566000000E+00 0. -1.
         22   -1    0    0    0    0 -0.00000000000E+00 -0.00000000000E+00 -0.70544710047E+02  0.70544710047E+02  0.00000000000E+00 0.  1.
         13    1    1    2    0    0  0.15406227116E+02  0.60003200918E+01 -0.62460319383E+02  0.64611595992E+02  0.10566000000E+00 0.  1.
        996    1    1    2    0    0 -0.15406227116E+02 -0.60003200918E+01  0.91915553517E+02  0.10593311406E+03  0.50000000000E+02 0.  0.
<mgrwt>
<rscale>  0 0.52662659E+02</rscale>
<asrwt>0</asrwt>
<pdfrwt beam="1">  1       13 0.10000000E+01 0.52662659E+02</pdfrwt>
<pdfrwt beam="2">  1       22 0.70544718E+00 0.52662659E+02</pdfrwt>
<totfact> 0.71817929E-02</totfact>
</mgrwt>
</event>
<event>
 4    1  0.2505250E+000  0.5146153E+02  0.7957747E-01  0.1437614E+00
         13   -1    0    0    0    0  0.00000000000E+00  0.00000000000E+00  0.99999944182E+02  0.10000000000E+03  0.10566000000E+00 0. -1.
         22   -1    0    0    0    0 -0.00000000000E+00 -0.00000000000E+00 -0.11119428690E+02  0.11119428690E+02  0.00000000000E+00 0.  1.
         13    1    1    2    0    0  0.11991019869E+02 -0.21224650754E+01  0.60340043890E+01  0.13590797935E+02  0.10566000000E+00 0.  1.
        996    1    1    2    0    0 -0.11991019869E+02  0.21224650754E+01  0.82846511102E+02  0.97528630757E+02  0.50000000000E+02 0.  0.
<mgrwt>
<rscale>  0 0.51461533E+02</rscale>
<asrwt>0</asrwt>
<pdfrwt beam="1">  1       13 0.10000000E+01 0.51461533E+02</pdfrwt>
<pdfrwt beam="2">  1       22 0.11119454E+00 0.51461533E+02</pdfrwt>
<totfact> 0.12046537E+00</totfact>
</mgrwt>
</event>
<event>
 4    1  0.2505250E+000  0.5365678E+02  0.7957747E-01  0.1426560E+00
         13   -1    0    0    0    0  0.00000000000E+00  0.00000000000E+00  0.99999944183E+02  0.10000000000E+03  0.10566000000E+00 0.  1.
         22   -1    0    0    0    0 -0.00000000000E+00 -0.00000000000E+00 -0.13370060049E+02  0.13370060049E+02  0.00000000000E+00 0.  1.
         13    1    1    2    0    0  0.16494884273E+02  0.10342586882E+02  0.23588952318E+02  0.30585946872E+02  0.10566000000E+00 0. -1.
        996    1    1    2    0    0 -0.16494884273E+02 -0.10342586882E+02  0.63040931816E+02  0.82784113179E+02  0.50000000000E+02 0.  0.
<mgrwt>
<rscale>  0 0.53656783E+02</rscale>
<asrwt>0</asrwt>
<pdfrwt beam="1">  1       13 0.10000000E+01 0.53656783E+02</pdfrwt>
<pdfrwt beam="2">  1       22 0.13370084E+00 0.53656783E+02</pdfrwt>
<totfact> 0.91116711E-01</totfact>
</mgrwt>
</event>
<event>
 4    1  0.2505250E+000  0.5274857E+02  0.7957747E-01  0.1431056E+00
         13   -1    0    0    0    0  0.00000000000E+00  0.00000000000E+00  0.99999944182E+02  0.10000000000E+03  0.10566000000E+00 0.  1.
         22   -1    0    0    0    0 -0.00000000000E+00 -0.00000000000E+00 -0.12662821638E+02  0.12662821638E+02  0.00000000000E+00 0.  1.
         13    1    1    2    0    0 -0.65141227266E+01  0.15491232851E+02  0.11813965065E+02  0.20542468808E+02  0.10566000000E+00 0. -1.
        996    1    1    2    0    0  0.65141227266E+01 -0.15491232851E+02  0.75523157479E+02  0.92120352831E+02  0.50000000000E+02 0.  0.
<mgrwt>
<rscale>  0 0.52748574E+02</rscale>
<asrwt>0</asrwt>
<pdfrwt beam="1">  1       13 0.10000000E+01 0.52748574E+02</pdfrwt>
<pdfrwt beam="2">  1       22 0.12662846E+00 0.52748574E+02</pdfrwt>
<totfact> 0.99080766E-01</totfact>
</mgrwt>
</event>
<event>
 4    1  0.2505250E+000  0.5229326E+02  0.7957747E-01  0.1433351E+00
         13   -1    0    0    0    0  0.00000000000E+00  0.00000000000E+00  0.99999944176E+02  0.99999999996E+02  0.10566000000E+00 0. -1.
         22   -1    0    0    0    0 -0.00000000000E+00 -0.00000000000E+00 -0.11885366677E+02  0.11885366677E+02  0.00000000000E+00 0. -1.
         13    1    1    2    0    0  0.10188830393E+02 -0.11435588785E+02  0.30155388224E+02  0.33822234678E+02  0.10566000000E+00 0.  1.
        996    1    1    2    0    0 -0.10188830393E+02  0.11435588785E+02  0.57959189274E+02  0.78063131996E+02  0.50000000000E+02 0.  0.
<mgrwt>
<rscale>  0 0.52293259E+02</rscale>
<asrwt>0</asrwt>
<pdfrwt beam="1">  1       13 0.10000000E+01 0.52293259E+02</pdfrwt>
<pdfrwt beam="2">  1       22 0.11885391E+00 0.52293259E+02</pdfrwt>
<totfact> 0.10915515E+00</totfact>
</mgrwt>
</event>
<event>
 4    1  0.2505250E+000  0.5122242E+02  0.7957747E-01  0.1438858E+00
         13   -1    0    0    0    0  0.00000000000E+00  0.00000000000E+00  0.99999944180E+02  0.10000000000E+03  0.10566000000E+00 0. -1.
         22   -1    0    0    0    0 -0.00000000000E+00 -0.00000000000E+00 -0.38291660098E+02  0.38291660098E+02  0.00000000000E+00 0.  1.
         13    1    1    2    0    0 -0.10964175620E+02 -0.18769944772E+01 -0.30690710097E+02  0.32644557059E+02  0.10566000000E+00 0.  1.
        996    1    1    2    0    0  0.10964175620E+02  0.18769944772E+01  0.92398994179E+02  0.10564710304E+03  0.50000000000E+02 0.  0.
<mgrwt>
<rscale>  0 0.51222419E+02</rscale>
<asrwt>0</asrwt>
<pdfrwt beam="1">  1       13 0.10000000E+01 0.51222419E+02</pdfrwt>
<pdfrwt beam="2">  1       22 0.38291677E+00 0.51222419E+02</pdfrwt>
<totfact> 0.13399118E-01</totfact>
</mgrwt>
</event>
<event>
 4    1  0.2505250E+000  0.6452867E+02  0.7957747E-01  0.1379753E+00
         13   -1    0    0    0    0  0.00000000000E+00  0.00000000000E+00  0.99999944178E+02  0.99999999998E+02  0.10566000000E+00 0. -1.
         22   -1    0    0    0    0 -0.00000000000E+00 -0.00000000000E+00 -0.43412825687E+02  0.43412825687E+02  0.00000000000E+00 0.  1.
         13    1    1    2    0    0  0.31382119466E+02  0.26059778702E+02 -0.18171923784E+02  0.44656236589E+02  0.10566000000E+00 0.  1.
        996    1    1    2    0    0 -0.31382119466E+02 -0.26059778702E+02  0.74759042275E+02  0.98756589097E+02  0.50000000000E+02 0.  0.
<mgrwt>
<rscale>  0 0.64528672E+02</rscale>
<asrwt>0</asrwt>
<pdfrwt beam="1">  1       13 0.10000000E+01 0.64528672E+02</pdfrwt>
<pdfrwt beam="2">  1       22 0.43412842E+00 0.64528672E+02</pdfrwt>
<totfact> 0.10554067E-01</totfact>
</mgrwt>
</event>
<event>
 4    1  0.2505250E+000  0.5896636E+02  0.7957747E-01  0.1402221E+00
         13   -1    0    0    0    0  0.00000000000E+00  0.00000000000E+00  0.99999944178E+02  0.99999999998E+02  0.10566000000E+00 0.  1.
         22   -1    0    0    0    0 -0.00000000000E+00 -0.00000000000E+00 -0.69893106475E+02  0.69893106475E+02  0.00000000000E+00 0. -1.
         13    1    1    2    0    0  0.80870268280E+01  0.30193232501E+02 -0.56821942868E+02  0.64851951760E+02  0.10566000000E+00 0. -1.
        996    1    1    2    0    0 -0.80870268280E+01 -0.30193232501E+02  0.86928780571E+02  0.10504115471E+03  0.50000000000E+02 0.  0.
<mgrwt>
<rscale>  0 0.58966357E+02</rscale>
<asrwt>0</asrwt>
<pdfrwt beam="1">  1       13 0.10000000E+01 0.58966357E+02</pdfrwt>
<pdfrwt beam="2">  1       22 0.69893115E+00 0.58966357E+02</pdfrwt>
<totfact> 0.75183282E-02</totfact>
</mgrwt>
</event>
<event>
 4    1  0.2505250E+000  0.5127487E+02  0.7957747E-01  0.1438584E+00
         13   -1    0    0    0    0  0.00000000000E+00  0.00000000000E+00  0.99999944177E+02  0.99999999997E+02  0.10566000000E+00 0.  1.
         22   -1    0    0    0    0 -0.00000000000E+00 -0.00000000000E+00 -0.98126301576E+01  0.98126301576E+01  0.00000000000E+00 0.  1.
         13    1    1    2    0    0  0.11024975592E+02 -0.27499569742E+01  0.17207117119E+02  0.20620581799E+02  0.10566000000E+00 0. -1.
        996    1    1    2    0    0 -0.11024975592E+02  0.27499569742E+01  0.72980196900E+02  0.89192048355E+02  0.50000000000E+02 0.  0.
<mgrwt>
<rscale>  0 0.51274871E+02</rscale>
<asrwt>0</asrwt>
<pdfrwt beam="1">  1       13 0.10000000E+01 0.51274871E+02</pdfrwt>
<pdfrwt beam="2">  1       22 0.98126553E-01 0.51274871E+02</pdfrwt>
<totfact> 0.14462983E+00</totfact>
</mgrwt>
</event>
<event>
 4    1  0.2505250E+000  0.5114493E+02  0.7957747E-01  0.1439262E+00
         13   -1    0    0    0    0  0.00000000000E+00  0.00000000000E+00  0.99999944177E+02  0.99999999997E+02  0.10566000000E+00 0. -1.
         22   -1    0    0    0    0 -0.00000000000E+00 -0.00000000000E+00 -0.31882979712E+02  0.31882979712E+02  0.00000000000E+00 0.  1.
         13    1    1    2    0    0 -0.64712783033E+01  0.85980566532E+01 -0.24121809892E+02  0.26413574117E+02  0.10566000000E+00 0.  1.
        996    1    1    2    0    0  0.64712783033E+01 -0.85980566532E+01  0.92238774357E+02  0.10546940559E+03  0.50000000000E+02 0.  0.
<mgrwt>
<rscale>  0 0.51144932E+02</rscale>
<asrwt>0</asrwt>
<pdfrwt beam="1">  1       13 0.10000000E+01 0.51144932E+02</pdfrwt>
<pdfrwt beam="2">  1       22 0.31882999E+00 0.51144932E+02</pdfrwt>
<totfact> 0.18500147E-01</totfact>
</mgrwt>
</event>
<event>
 4    1  0.2505250E+000  0.5657920E+02  0.7957747E-01  0.1412775E+00
         13   -1    0    0    0    0  0.00000000000E+00  0.00000000000E+00  0.99999944174E+02  0.99999999994E+02  0.10566000000E+00 0.  1.
         22   -1    0    0    0    0 -0.00000000000E+00 -0.00000000000E+00 -0.25414009608E+02  0.25414009608E+02  0.00000000000E+00 0. -1.
         13    1    1    2    0    0  0.24691337864E+02  0.95678575382E+01 -0.58045243298E+01  0.27109218545E+02  0.10566000000E+00 0. -1.
        996    1    1    2    0    0 -0.24691337864E+02 -0.95678575382E+01  0.80390458896E+02  0.98304791057E+02  0.50000000000E+02 0.  0.
<mgrwt>
<rscale>  0 0.56579202E+02</rscale>
<asrwt>0</asrwt>
<pdfrwt beam="1">  1       13 0.10000000E+01 0.56579202E+02</pdfrwt>
<pdfrwt beam="2">  1       22 0.25414030E+00 0.56579202E+02</pdfrwt>
<totfact> 0.28736099E-01</totfact>
</mgrwt>
</event>
<event>
 4    1  0.2505250E+000  0.5265974E+02  0.7957747E-01  0.1431502E+00
         13   -1    0    0    0    0  0.00000000000E+00  0.00000000000E+00  0.99999944182E+02  0.10000000000E+03  0.10566000000E+00 0.  1.
         22   -1    0    0    0    0 -0.00000000000E+00 -0.00000000000E+00 -0.15536609385E+02  0.15536609385E+02  0.00000000000E+00 0. -1.
         13    1    1    2    0    0 -0.15102661133E+00 -0.16523467161E+02  0.63033841631E+00  0.16536513133E+02  0.10566000000E+00 0. -1.
        996    1    1    2    0    0  0.15102661133E+00  0.16523467161E+02  0.83832996381E+02  0.99000096254E+02  0.50000000000E+02 0.  0.
<mgrwt>
<rscale>  0 0.52659736E+02</rscale>
<asrwt>0</asrwt>
<pdfrwt beam="1">  1       13 0.10000000E+01 0.52659736E+02</pdfrwt>
<pdfrwt beam="2">  1       22 0.15536633E+00 0.52659736E+02</pdfrwt>
<totfact> 0.71076659E-01</totfact>
</mgrwt>
</event>
<event>
 4    1  0.2505250E+000  0.5262665E+02  0.7957747E-01  0.1431668E+00
         13   -1    0    0    0    0  0.00000000000E+00  0.00000000000E+00  0.99999944179E+02  0.99999999999E+02  0.10566000000E+00 0.  1.
         22   -1    0    0    0    0 -0.00000000000E+00 -0.00000000000E+00 -0.19223614344E+02  0.19223614344E+02  0.00000000000E+00 0.  1.
         13    1    1    2    0    0 -0.32623550515E+01 -0.16091024164E+02 -0.62122199194E+01  0.17554681982E+02  0.10566000000E+00 0. -1.
        996    1    1    2    0    0  0.32623550515E+01  0.16091024164E+02  0.86988549754E+02  0.10166893236E+03  0.50000000000E+02 0.  0.
<mgrwt>
<rscale>  0 0.52626647E+02</rscale>
<asrwt>0</asrwt>
<pdfrwt beam="1">  1       13 0.10000000E+01 0.52626647E+02</pdfrwt>
<pdfrwt beam="2">  1       22 0.19223637E+00 0.52626647E+02</pdfrwt>
<totfact> 0.48810968E-01</totfact>
</mgrwt>
</event>
<event>
 4    1  0.2505250E+000  0.5362222E+02  0.7957747E-01  0.1426729E+00
         13   -1    0    0    0    0  0.00000000000E+00  0.00000000000E+00  0.99999944177E+02  0.99999999997E+02  0.10566000000E+00 0.  1.
         22   -1    0    0    0    0 -0.00000000000E+00 -0.00000000000E+00 -0.13450994390E+02  0.13450994390E+02  0.00000000000E+00 0. -1.
         13    1    1    2    0    0  0.17088173844E+02 -0.91289083276E+01  0.28096299501E+02  0.34128519779E+02  0.10566000000E+00 0. -1.
        996    1    1    2    0    0 -0.17088173844E+02  0.91289083276E+01  0.58452650285E+02  0.79322474608E+02  0.50000000000E+02 0.  0.
<mgrwt>
<rscale>  0 0.53622222E+02</rscale>
<asrwt>0</asrwt>
<pdfrwt beam="1">  1       13 0.10000000E+01 0.53622222E+02</pdfrwt>
<pdfrwt beam="2">  1       22 0.13451019E+00 0.53622222E+02</pdfrwt>
<totfact> 0.90237385E-01</totfact>
</mgrwt>
</event>
<event>
 4    1  0.2505250E+000  0.5191539E+02  0.7957747E-01  0.1435276E+00
         13   -1    0    0    0    0  0.00000000000E+00  0.00000000000E+00  0.99999944176E+02  0.99999999997E+02  0.10566000000E+00 0. -1.
         22   -1    0    0    0    0 -0.00000000000E+00 -0.00000000000E+00 -0.12496713414E+02  0.12496713414E+02  0.00000000000E+00 0.  1.
         13    1    1    2    0    0  0.12604154891E+02  0.60284938326E+01  0.46563538765E+01  0.14727533869E+02  0.10566000000E+00 0.  1.
        996    1    1    2    0    0 -0.12604154891E+02 -0.60284938326E+01  0.82846876886E+02  0.97769179542E+02  0.50000000000E+02 0.  0.
<mgrwt>
<rscale>  0 0.51915387E+02</rscale>
<asrwt>0</asrwt>
<pdfrwt beam="1">  1       13 0.10000000E+01 0.51915387E+02</pdfrwt>
<pdfrwt beam="2">  1       22 0.12496738E+00 0.51915387E+02</pdfrwt>
<totfact> 0.10095588E+00</totfact>
</mgrwt>
</event>
<event>
 4    1  0.2505250E+000  0.5208619E+02  0.7957747E-01  0.1434403E+00
         13   -1    0    0    0    0  0.00000000000E+00  0.00000000000E+00  0.99999944176E+02  0.99999999996E+02  0.10566000000E+00 0. -1.
         22   -1    0    0    0    0 -0.00000000000E+00 -0.00000000000E+00 -0.12931746180E+02  0.12931746180E+02  0.00000000000E+00 0.  1.
         13    1    1    2    0    0  0.13025395022E+02  0.65810584233E+01  0.44355900431E+01  0.15253093736E+02  0.10566000000E+00 0.  1.
        996    1    1    2    0    0 -0.13025395022E+02 -0.65810584233E+01  0.82632607953E+02  0.97678652441E+02  0.50000000000E+02 0.  0.
<mgrwt>
<rscale>  0 0.52086191E+02</rscale>
<asrwt>0</asrwt>
<pdfrwt beam="1">  1       13 0.10000000E+01 0.52086191E+02</pdfrwt>
<pdfrwt beam="2">  1       22 0.12931770E+00 0.52086191E+02</pdfrwt>
<totfact> 0.95734151E-01</totfact>
</mgrwt>
</event>
<event>
 4    1  0.2505250E+000  0.5211433E+02  0.7957747E-01  0.1434260E+00
         13   -1    0    0    0    0  0.00000000000E+00  0.00000000000E+00  0.99999944176E+02  0.99999999996E+02  0.10566000000E+00 0. -1.
         22   -1    0    0    0    0 -0.00000000000E+00 -0.00000000000E+00 -0.14791939797E+02  0.14791939797E+02  0.00000000000E+00 0. -1.
         13    1    1    2    0    0 -0.97087537376E+01 -0.11029210264E+02 -0.25110000026E+00  0.14696176150E+02  0.10566000000E+00 0.  1.
        996    1    1    2    0    0  0.97087537376E+01  0.11029210264E+02  0.85459104379E+02  0.10009576364E+03  0.50000000000E+02 0.  0.
<mgrwt>
<rscale>  0 0.52114330E+02</rscale>
<asrwt>0</asrwt>
<pdfrwt beam="1">  1       13 0.10000000E+01 0.52114330E+02</pdfrwt>
<pdfrwt beam="2">  1       22 0.14791964E+00 0.52114330E+02</pdfrwt>
<totfact> 0.77077190E-01</totfact>
</mgrwt>
</event>
<event>
 4    1  0.2505250E+000  0.5841071E+02  0.7957747E-01  0.1404625E+00
         13   -1    0    0    0    0  0.00000000000E+00  0.00000000000E+00  0.99999944178E+02  0.99999999998E+02  0.10566000000E+00 0. -1.
         22   -1    0    0    0    0 -0.00000000000E+00 -0.00000000000E+00 -0.56568647437E+02  0.56568647437E+02  0.00000000000E+00 0.  1.
         13    1    1    2    0    0 -0.28161480120E+02 -0.10896906864E+02 -0.42822259726E+02  0.52398173955E+02  0.10566000000E+00 0.  1.
        996    1    1    2    0    0  0.28161480120E+02  0.10896906864E+02  0.86253556467E+02  0.10417047348E+03  0.50000000000E+02 0.  0.
<mgrwt>
<rscale>  0 0.58410714E+02</rscale>
<asrwt>0</asrwt>
<pdfrwt beam="1">  1       13 0.10000000E+01 0.58410714E+02</pdfrwt>
<pdfrwt beam="2">  1       22 0.56568660E+00 0.58410714E+02</pdfrwt>
<totfact> 0.58095794E-02</totfact>
</mgrwt>
</event>
<event>
 4    1  0.2505250E+000  0.6800733E+02  0.7957747E-01  0.1367003E+00
         13   -1    0    0    0    0  0.00000000000E+00  0.00000000000E+00  0.99999944184E+02  0.10000000000E+03  0.10566000000E+00 0. -1.
         22   -1    0    0    0    0 -0.00000000000E+00 -0.00000000000E+00 -0.42215947799E+02  0.42215947799E+02  0.00000000000E+00 0.  1.
         13    1    1    2    0    0 -0.38938055964E+02 -0.24674361414E+02 -0.89237186578E+01  0.46953596584E+02  0.10566000000E+00 0.  1.
        996    1    1    2    0    0  0.38938055964E+02  0.24674361414E+02  0.66707715043E+02  0.95262351219E+02  0.50000000000E+02 0.  0.
<mgrwt>
<rscale>  0 0.68007325E+02</rscale>
<asrwt>0</asrwt>
<pdfrwt beam="1">  1       13 0.10000000E+01 0.68007325E+02</pdfrwt>
<pdfrwt beam="2">  1       22 0.42215964E+00 0.68007325E+02</pdfrwt>
<totfact> 0.11225312E-01</totfact>
</mgrwt>
</event>
<event>
 4    1  0.2505250E+000  0.5174500E+02  0.7957747E-01  0.1436151E+00
         13   -1    0    0    0    0  0.00000000000E+00  0.00000000000E+00  0.99999944178E+02  0.99999999998E+02  0.10566000000E+00 0. -1.
         22   -1    0    0    0    0 -0.00000000000E+00 -0.00000000000E+00 -0.13413892151E+02  0.13413892151E+02  0.00000000000E+00 0.  1.
         13    1    1    2    0    0  0.52857608178E+01 -0.12231329800E+02  0.95039990270E+00  0.13358859237E+02  0.10566000000E+00 0.  1.
        996    1    1    2    0    0 -0.52857608178E+01  0.12231329800E+02  0.85635652124E+02  0.10005503291E+03  0.50000000000E+02 0.  0.
<mgrwt>
<rscale>  0 0.51744997E+02</rscale>
<asrwt>0</asrwt>
<pdfrwt beam="1">  1       13 0.10000000E+01 0.51744997E+02</pdfrwt>
<pdfrwt beam="2">  1       22 0.13413916E+00 0.51744997E+02</pdfrwt>
<totfact> 0.90277908E-01</totfact>
</mgrwt>
</event>
<event>
 4    1  0.2505250E+000  0.5812263E+02  0.7957747E-01  0.1405883E+00
         13   -1    0    0    0    0  0.00000000000E+00  0.00000000000E+00  0.99999944180E+02  0.10000000000E+03  0.10566000000E+00 0.  1.
         22   -1    0    0    0    0 -0.00000000000E+00 -0.00000000000E+00 -0.32313937551E+02  0.32313937551E+02  0.00000000000E+00 0. -1.
         13    1    1    2    0    0 -0.25096258042E+02  0.15761267772E+02 -0.13419840999E+02  0.32532184464E+02  0.10566000000E+00 0. -1.
        996    1    1    2    0    0  0.25096258042E+02 -0.15761267772E+02  0.81105847629E+02  0.99781753087E+02  0.50000000000E+02 0.  0.
<mgrwt>
<rscale>  0 0.58122627E+02</rscale>
<asrwt>0</asrwt>
<pdfrwt beam="1">  1       13 0.10000000E+01 0.58122627E+02</pdfrwt>
<pdfrwt beam="2">  1       22 0.32313956E+00 0.58122627E+02</pdfrwt>
<totfact> 0.18204393E-01</totfact>
</mgrwt>
</event>
<event>
 4    1  0.2505250E+000  0.5934857E+02  0.7957747E-01  0.1400586E+00
         13   -1    0    0    0    0  0.00000000000E+00  0.00000000000E+00  0.99999944172E+02  0.99999999993E+02  0.10566000000E+00 0. -1.
         22   -1    0    0    0    0 -0.00000000000E+00 -0.00000000000E+00 -0.22418920459E+02  0.22418920459E+02  0.00000000000E+00 0.  1.
         13    1    1    2    0    0 -0.19643624183E+02 -0.25226585574E+02  0.12470412370E+02  0.34318725785E+02  0.10566000000E+00 0.  1.
        996    1    1    2    0    0  0.19643624183E+02  0.25226585574E+02  0.65110611343E+02  0.88100194667E+02  0.50000000000E+02 0.  0.
<mgrwt>
<rscale>  0 0.59348569E+02</rscale>
<asrwt>0</asrwt>
<pdfrwt beam="1">  1       13 0.10000000E+01 0.59348569E+02</pdfrwt>
<pdfrwt beam="2">  1       22 0.22418942E+00 0.59348569E+02</pdfrwt>
<totfact> 0.36893872E-01</totfact>
</mgrwt>
</event>
<event>
 4    1  0.2505250E+000  0.5302968E+02  0.7957747E-01  0.1429653E+00
         13   -1    0    0    0    0  0.00000000000E+00  0.00000000000E+00  0.99999944179E+02  0.99999999999E+02  0.10566000000E+00 0. -1.
         22   -1    0    0    0    0 -0.00000000000E+00 -0.00000000000E+00 -0.14655060487E+02  0.14655060487E+02  0.00000000000E+00 0. -1.
         13    1    1    2    0    0 -0.17611022771E+02  0.14136182506E+01  0.49545183642E+01  0.18349519227E+02  0.10566000000E+00 0.  1.
        996    1    1    2    0    0  0.17611022771E+02 -0.14136182506E+01  0.80390365328E+02  0.96305541259E+02  0.50000000000E+02 0.  0.
<mgrwt>
<rscale>  0 0.53029675E+02</rscale>
<asrwt>0</asrwt>
<pdfrwt beam="1">  1       13 0.10000000E+01 0.53029675E+02</pdfrwt>
<pdfrwt beam="2">  1       22 0.14655084E+00 0.53029675E+02</pdfrwt>
<totfact> 0.78417010E-01</totfact>
</mgrwt>
</event>
<event>
 4    1  0.2505250E+000  0.5872427E+02  0.7957747E-01  0.1403265E+00
         13   -1    0    0    0    0  0.00000000000E+00  0.00000000000E+00  0.99999944183E+02  0.10000000000E+03  0.10566000000E+00 0.  1.
         22   -1    0    0    0    0 -0.00000000000E+00 -0.00000000000E+00 -0.24789001848E+02  0.24789001848E+02  0.00000000000E+00 0. -1.
         13    1    1    2    0    0  0.17400559957E+02  0.25411810978E+02  0.18987576951E+01  0.30857026248E+02  0.10566000000E+00 0. -1.
        996    1    1    2    0    0 -0.17400559957E+02 -0.25411810978E+02  0.73312184640E+02  0.93931975603E+02  0.50000000000E+02 0.  0.
<mgrwt>
<rscale>  0 0.58724268E+02</rscale>
<asrwt>0</asrwt>
<pdfrwt beam="1">  1       13 0.10000000E+01 0.58724268E+02</pdfrwt>
<pdfrwt beam="2">  1       22 0.24789023E+00 0.58724268E+02</pdfrwt>
<totfact> 0.30274419E-01</totfact>
</mgrwt>
</event>
<event>
 4    1  0.2505250E+000  0.5316267E+02  0.7957747E-01  0.1428993E+00
         13   -1    0    0    0    0  0.00000000000E+00  0.00000000000E+00  0.99999944179E+02  0.99999999999E+02  0.10566000000E+00 0. -1.
         22   -1    0    0    0    0 -0.00000000000E+00 -0.00000000000E+00 -0.37023335009E+02  0.37023335009E+02  0.00000000000E+00 0.  1.
         13    1    1    2    0    0  0.11052088089E+02  0.14287087603E+02 -0.27017487450E+02  0.32499620236E+02  0.10566000000E+00 0.  1.
        996    1    1    2    0    0 -0.11052088089E+02 -0.14287087603E+02  0.89994096620E+02  0.10452371477E+03  0.50000000000E+02 0.  0.
<mgrwt>
<rscale>  0 0.53162670E+02</rscale>
<asrwt>0</asrwt>
<pdfrwt beam="1">  1       13 0.10000000E+01 0.53162670E+02</pdfrwt>
<pdfrwt beam="2">  1       22 0.37023353E+00 0.53162670E+02</pdfrwt>
<totfact> 0.14255927E-01</totfact>
</mgrwt>
</event>
<event>
 4    1  0.2505250E+000  0.5213981E+02  0.7957747E-01  0.1434130E+00
         13   -1    0    0    0    0  0.00000000000E+00  0.00000000000E+00  0.99999944178E+02  0.99999999998E+02  0.10566000000E+00 0.  1.
         22   -1    0    0    0    0 -0.00000000000E+00 -0.00000000000E+00 -0.11797389068E+02  0.11797389068E+02  0.00000000000E+00 0.  1.
         13    1    1    2    0    0  0.27777129488E+01 -0.14520462289E+02  0.31320231725E+02  0.34634196882E+02  0.10566000000E+00 0. -1.
        996    1    1    2    0    0 -0.27777129488E+01  0.14520462289E+02  0.56882323386E+02  0.77163192184E+02  0.50000000000E+02 0.  0.
<mgrwt>
<rscale>  0 0.52139807E+02</rscale>
<asrwt>0</asrwt>
<pdfrwt beam="1">  1       13 0.10000000E+01 0.52139807E+02</pdfrwt>
<pdfrwt beam="2">  1       22 0.11797414E+00 0.52139807E+02</pdfrwt>
<totfact> 0.11036043E+00</totfact>
</mgrwt>
</event>
<event>
 4    1  0.2505250E+000  0.5809053E+02  0.7957747E-01  0.1406024E+00
         13   -1    0    0    0    0  0.00000000000E+00  0.00000000000E+00  0.99999944175E+02  0.99999999995E+02  0.10566000000E+00 0.  1.
         22   -1    0    0    0    0 -0.00000000000E+00 -0.00000000000E+00 -0.20313110975E+02  0.20313110975E+02  0.00000000000E+00 0. -1.
         13    1    1    2    0    0 -0.15816366088E+02  0.24987030114E+02  0.14297299475E+02  0.32847116258E+02  0.10566000000E+00 0. -1.
        996    1    1    2    0    0  0.15816366088E+02 -0.24987030114E+02  0.65389533725E+02  0.87465994712E+02  0.50000000000E+02 0.  0.
<mgrwt>
<rscale>  0 0.58090525E+02</rscale>
<asrwt>0</asrwt>
<pdfrwt beam="1">  1       13 0.10000000E+01 0.58090525E+02</pdfrwt>
<pdfrwt beam="2">  1       22 0.20313133E+00 0.58090525E+02</pdfrwt>
<totfact> 0.44462117E-01</totfact>
</mgrwt>
</event>
<event>
 4    1  0.2505250E+000  0.5104033E+02  0.7957747E-01  0.1439810E+00
         13   -1    0    0    0    0  0.00000000000E+00  0.00000000000E+00  0.99999944175E+02  0.99999999995E+02  0.10566000000E+00 0.  1.
         22   -1    0    0    0    0 -0.00000000000E+00 -0.00000000000E+00 -0.22838451055E+02  0.22838451055E+02  0.00000000000E+00 0. -1.
         13    1    1    2    0    0 -0.84878711659E+00  0.10217390261E+02 -0.14597927820E+02  0.17838894696E+02  0.10566000000E+00 0. -1.
        996    1    1    2    0    0  0.84878711659E+00 -0.10217390261E+02  0.91759420940E+02  0.10499955635E+03  0.50000000000E+02 0.  0.
<mgrwt>
<rscale>  0 0.51040332E+02</rscale>
<asrwt>0</asrwt>
<pdfrwt beam="1">  1       13 0.10000000E+01 0.51040332E+02</pdfrwt>
<pdfrwt beam="2">  1       22 0.22838473E+00 0.51040332E+02</pdfrwt>
<totfact> 0.35127714E-01</totfact>
</mgrwt>
</event>
<event>
 4    1  0.2505250E+000  0.5113936E+02  0.7957747E-01  0.1439291E+00
         13   -1    0    0    0    0  0.00000000000E+00  0.00000000000E+00  0.99999944170E+02  0.99999999990E+02  0.10566000000E+00 0. -1.
         22   -1    0    0    0    0 -0.00000000000E+00 -0.00000000000E+00 -0.54347948770E+02  0.54347948770E+02  0.00000000000E+00 0.  1.
         13    1    1    2    0    0 -0.10730816293E+02  0.28931871568E+00 -0.47167094445E+02  0.48373340654E+02  0.10566000000E+00 0.  1.
        996    1    1    2    0    0  0.10730816293E+02 -0.28931871568E+00  0.92819089845E+02  0.10597460811E+03  0.50000000000E+02 0.  0.
<mgrwt>
<rscale>  0 0.51139360E+02</rscale>
<asrwt>0</asrwt>
<pdfrwt beam="1">  1       13 0.10000000E+01 0.51139360E+02</pdfrwt>
<pdfrwt beam="2">  1       22 0.54347962E+00 0.51139360E+02</pdfrwt>
<totfact> 0.59995001E-02</totfact>
</mgrwt>
</event>
<event>
 4    1  0.2505250E+000  0.8159748E+02  0.7957747E-01  0.1324578E+00
         13   -1    0    0    0    0  0.00000000000E+00  0.00000000000E+00  0.99999944181E+02  0.10000000000E+03  0.10566000000E+00 0. -1.
         22   -1    0    0    0    0 -0.00000000000E+00 -0.00000000000E+00 -0.69135179501E+02  0.69135179501E+02  0.00000000000E+00 0.  1.
         13    1    1    2    0    0  0.21270197054E+02 -0.60874685150E+02 -0.26158127360E+02  0.69587408098E+02  0.10566000000E+00 0.  1.
        996    1    1    2    0    0 -0.21270197054E+02  0.60874685150E+02  0.57022892041E+02  0.99547771404E+02  0.50000000000E+02 0.  0.
<mgrwt>
<rscale>  0 0.81597479E+02</rscale>
<asrwt>0</asrwt>
<pdfrwt beam="1">  1       13 0.10000000E+01 0.81597479E+02</pdfrwt>
<pdfrwt beam="2">  1       22 0.69135188E+00 0.81597479E+02</pdfrwt>
<totfact> 0.78821620E-02</totfact>
</mgrwt>
</event>
<event>
 4    1  0.2505250E+000  0.5153816E+02  0.7957747E-01  0.1437217E+00
         13   -1    0    0    0    0  0.00000000000E+00  0.00000000000E+00  0.99999944176E+02  0.99999999996E+02  0.10566000000E+00 0. -1.
         22   -1    0    0    0    0 -0.00000000000E+00 -0.00000000000E+00 -0.10946950845E+02  0.10946950845E+02  0.00000000000E+00 0. -1.
         13    1    1    2    0    0  0.88308989502E+01 -0.88429374779E+01  0.30394559294E+02  0.32863699095E+02  0.10566000000E+00 0.  1.
        996    1    1    2    0    0 -0.88308989502E+01  0.88429374779E+01  0.58658434038E+02  0.78083251746E+02  0.50000000000E+02 0.  0.
<mgrwt>
<rscale>  0 0.51538164E+02</rscale>
<asrwt>0</asrwt>
<pdfrwt beam="1">  1       13 0.10000000E+01 0.51538164E+02</pdfrwt>
<pdfrwt beam="2">  1       22 0.10946976E+00 0.51538164E+02</pdfrwt>
<totfact> 0.12332416E+00</totfact>
</mgrwt>
</event>
<event>
 4    1  0.2505250E+000  0.5242553E+02  0.7957747E-01  0.1432681E+00
         13   -1    0    0    0    0  0.00000000000E+00  0.00000000000E+00  0.99999944182E+02  0.10000000000E+03  0.10566000000E+00 0.  1.
         22   -1    0    0    0    0 -0.00000000000E+00 -0.00000000000E+00 -0.12393708612E+02  0.12393708612E+02  0.00000000000E+00 0.  1.
         13    1    1    2    0    0 -0.14024307732E+02 -0.71941113195E+01  0.97568466789E+01  0.18537628387E+02  0.10566000000E+00 0. -1.
        996    1    1    2    0    0  0.14024307732E+02  0.71941113195E+01  0.77849388891E+02  0.93856080228E+02  0.50000000000E+02 0.  0.
<mgrwt>
<rscale>  0 0.52425532E+02</rscale>
<asrwt>0</asrwt>
<pdfrwt beam="1">  1       13 0.10000000E+01 0.52425532E+02</pdfrwt>
<pdfrwt beam="2">  1       22 0.12393733E+00 0.52425532E+02</pdfrwt>
<totfact> 0.10237515E+00</totfact>
</mgrwt>
</event>
<event>
 4    1  0.2505250E+000  0.5748056E+02  0.7957747E-01  0.1408719E+00
         13   -1    0    0    0    0  0.00000000000E+00  0.00000000000E+00  0.99999944183E+02  0.10000000000E+03  0.10566000000E+00 0. -1.
         22   -1    0    0    0    0 -0.00000000000E+00 -0.00000000000E+00 -0.49093314931E+02  0.49093314931E+02  0.00000000000E+00 0.  1.
         13    1    1    2    0    0 -0.16784617483E+02  0.22853707079E+02 -0.35425512192E+02  0.45376132376E+02  0.10566000000E+00 0.  1.
        996    1    1    2    0    0  0.16784617483E+02 -0.22853707079E+02  0.86332141445E+02  0.10371718256E+03  0.50000000000E+02 0.  0.
<mgrwt>
<rscale>  0 0.57480565E+02</rscale>
<asrwt>0</asrwt>
<pdfrwt beam="1">  1       13 0.10000000E+01 0.57480565E+02</pdfrwt>
<pdfrwt beam="2">  1       22 0.49093329E+00 0.57480565E+02</pdfrwt>
<totfact> 0.77604202E-02</totfact>
</mgrwt>
</event>
<event>
 4    1  0.2505250E+000  0.5133584E+02  0.7957747E-01  0.1438267E+00
         13   -1    0    0    0    0  0.00000000000E+00  0.00000000000E+00  0.99999944181E+02  0.10000000000E+03  0.10566000000E+00 0. -1.
         22   -1    0    0    0    0 -0.00000000000E+00 -0.00000000000E+00 -0.10082186832E+02  0.10082186832E+02  0.00000000000E+00 0.  1.
         13    1    1    2    0    0 -0.11229511274E+02 -0.30441047350E+01  0.11530065578E+02  0.16380539471E+02  0.10566000000E+00 0.  1.
        996    1    1    2    0    0  0.11229511274E+02  0.30441047350E+01  0.78387691771E+02  0.93701647362E+02  0.50000000000E+02 0.  0.
<mgrwt>
<rscale>  0 0.51335840E+02</rscale>
<asrwt>0</asrwt>
<pdfrwt beam="1">  1       13 0.10000000E+01 0.51335840E+02</pdfrwt>
<pdfrwt beam="2">  1       22 0.10082212E+00 0.51335840E+02</pdfrwt>
<totfact> 0.13909230E+00</totfact>
</mgrwt>
</event>
<event>
 4    1  0.2505250E+000  0.5838410E+02  0.7957747E-01  0.1404741E+00
         13   -1    0    0    0    0  0.00000000000E+00  0.00000000000E+00  0.99999944182E+02  0.10000000000E+03  0.10566000000E+00 0.  1.
         22   -1    0    0    0    0 -0.00000000000E+00 -0.00000000000E+00 -0.40298948134E+02  0.40298948134E+02  0.00000000000E+00 0. -1.
         13    1    1    2    0    0 -0.19148571574E+02 -0.23281651714E+02 -0.23802384917E+02  0.38409214931E+02  0.10566000000E+00 0. -1.
        996    1    1    2    0    0  0.19148571574E+02  0.23281651714E+02  0.83503380965E+02  0.10188973320E+03  0.50000000000E+02 0.  0.
<mgrwt>
<rscale>  0 0.58384100E+02</rscale>
<asrwt>0</asrwt>
<pdfrwt beam="1">  1       13 0.10000000E+01 0.58384100E+02</pdfrwt>
<pdfrwt beam="2">  1       22 0.40298965E+00 0.58384100E+02</pdfrwt>
<totfact> 0.12250091E-01</totfact>
</mgrwt>
</event>
<event>
 4    1  0.2505250E+000  0.5266578E+02  0.7957747E-01  0.1431471E+00
         13   -1    0    0    0    0  0.00000000000E+00  0.00000000000E+00  0.99999944178E+02  0.99999999998E+02  0.10566000000E+00 0.  1.
         22   -1    0    0    0    0 -0.00000000000E+00 -0.00000000000E+00 -0.12181968822E+02  0.12181968822E+02  0.00000000000E+00 0.  1.
         13    1    1    2    0    0  0.25433347068E+01  0.16346750712E+02  0.15123450345E+02  0.22414609625E+02  0.10566000000E+00 0. -1.
        996    1    1    2    0    0 -0.25433347068E+01 -0.16346750712E+02  0.72694525010E+02  0.89767359195E+02  0.50000000000E+02 0.  0.
<mgrwt>
<rscale>  0 0.52665784E+02</rscale>
<asrwt>0</asrwt>
<pdfrwt beam="1">  1       13 0.10000000E+01 0.52665784E+02</pdfrwt>
<pdfrwt beam="2">  1       22 0.12181993E+00 0.52665784E+02</pdfrwt>
<totfact> 0.10519231E+00</totfact>
</mgrwt>
</event>
<event>
 4    1  0.2505250E+000  0.5100376E+02  0.7957747E-01  0.1440002E+00
         13   -1    0    0    0    0  0.00000000000E+00  0.00000000000E+00  0.99999944179E+02  0.99999999999E+02  0.10566000000E+00 0. -1.
         22   -1    0    0    0    0 -0.00000000000E+00 -0.00000000000E+00 -0.17380749684E+02  0.17380749684E+02  0.00000000000E+00 0.  1.
         13    1    1    2    0    0 -0.10047441226E+02 -0.65778217469E+00 -0.83551439895E+01  0.13084469714E+02  0.10566000000E+00 0.  1.
        996    1    1    2    0    0  0.10047441226E+02  0.65778217469E+00  0.90974338485E+02  0.10429627997E+03  0.50000000000E+02 0.  0.
<mgrwt>
<rscale>  0 0.51003762E+02</rscale>
<asrwt>0</asrwt>
<pdfrwt beam="1">  1       13 0.10000000E+01 0.51003762E+02</pdfrwt>
<pdfrwt beam="2">  1       22 0.17380773E+00 0.51003762E+02</pdfrwt>
<totfact> 0.58361036E-01</totfact>
</mgrwt>
</event>
<event>
 4    1  0.2505250E+000  0.5290660E+02  0.7957747E-01  0.1430266E+00
         13   -1    0    0    0    0  0.00000000000E+00  0.00000000000E+00  0.99999944179E+02  0.99999999999E+02  0.10566000000E+00 0. -1.
         22   -1    0    0    0    0 -0.00000000000E+00 -0.00000000000E+00 -0.13135651597E+02  0.13135651597E+02  0.00000000000E+00 0.  1.
         13    1    1    2    0    0 -0.11586269144E+02 -0.12840056842E+02  0.35039634915E+02  0.39075514986E+02  0.10566000000E+00 0.  1.
        996    1    1    2    0    0  0.11586269144E+02  0.12840056842E+02  0.51824657667E+02  0.74060136610E+02  0.50000000000E+02 0.  0.
<mgrwt>
<rscale>  0 0.52906603E+02</rscale>
<asrwt>0</asrwt>
<pdfrwt beam="1">  1       13 0.10000000E+01 0.52906603E+02</pdfrwt>
<pdfrwt beam="2">  1       22 0.13135676E+00 0.52906603E+02</pdfrwt>
<totfact> 0.93564806E-01</totfact>
</mgrwt>
</event>
<event>
 4    1  0.2505250E+000  0.5296435E+02  0.7957747E-01  0.1429978E+00
         13   -1    0    0    0    0  0.00000000000E+00  0.00000000000E+00  0.99999944177E+02  0.99999999997E+02  0.10566000000E+00 0.  1.
         22   -1    0    0    0    0 -0.00000000000E+00 -0.00000000000E+00 -0.13252482216E+02  0.13252482216E+02  0.00000000000E+00 0.  1.
         13    1    1    2    0    0 -0.16820028981E+02 -0.47232838277E+01  0.10399284206E+02  0.20331725482E+02  0.10566000000E+00 0. -1.
        996    1    1    2    0    0  0.16820028981E+02  0.47232838277E+01  0.76348177755E+02  0.92920756731E+02  0.50000000000E+02 0.  0.
<mgrwt>
<rscale>  0 0.52964354E+02</rscale>
<asrwt>0</asrwt>
<pdfrwt beam="1">  1       13 0.10000000E+01 0.52964354E+02</pdfrwt>
<pdfrwt beam="2">  1       22 0.13252506E+00 0.52964354E+02</pdfrwt>
<totfact> 0.92272196E-01</totfact>
</mgrwt>
</event>
<event>
 4    1  0.2505250E+000  0.5203358E+02  0.7957747E-01  0.1434672E+00
         13   -1    0    0    0    0  0.00000000000E+00  0.00000000000E+00  0.99999944185E+02  0.10000000001E+03  0.10566000000E+00 0.  1.
         22   -1    0    0    0    0 -0.00000000000E+00 -0.00000000000E+00 -0.25692364834E+02  0.25692364834E+02  0.00000000000E+00 0. -1.
         13    1    1    2    0    0 -0.14368860595E+02  0.10146517527E+01 -0.15961293215E+02  0.21500412045E+02  0.10566000000E+00 0. -1.
        996    1    1    2    0    0  0.14368860595E+02 -0.10146517527E+01  0.90268872566E+02  0.10419195279E+03  0.50000000000E+02 0.  0.
<mgrwt>
<rscale>  0 0.52033582E+02</rscale>
<asrwt>0</asrwt>
<pdfrwt beam="1">  1       13 0.10000000E+01 0.52033582E+02</pdfrwt>
<pdfrwt beam="2">  1       22 0.25692386E+00 0.52033582E+02</pdfrwt>
<totfact> 0.27937864E-01</totfact>
</mgrwt>
</event>
<event>
 4    1  0.2505250E+000  0.5108932E+02  0.7957747E-01  0.1439553E+00
         13   -1    0    0    0    0  0.00000000000E+00  0.00000000000E+00  0.99999944185E+02  0.10000000000E+03  0.10566000000E+00 0. -1.
         22   -1    0    0    0    0 -0.00000000000E+00 -0.00000000000E+00 -0.12696170710E+02  0.12696170710E+02  0.00000000000E+00 0.  1.
         13    1    1    2    0    0  0.60807298557E+01 -0.85524087544E+01 -0.11409481317E+01  0.10556130814E+02  0.10566000000E+00 0.  1.
        996    1    1    2    0    0 -0.60807298557E+01  0.85524087544E+01  0.88444721606E+02  0.10214003990E+03  0.50000000000E+02 0.  0.
<mgrwt>
<rscale>  0 0.51089323E+02</rscale>
<asrwt>0</asrwt>
<pdfrwt beam="1">  1       13 0.10000000E+01 0.51089323E+02</pdfrwt>
<pdfrwt beam="2">  1       22 0.12696195E+00 0.51089323E+02</pdfrwt>
<totfact> 0.98316684E-01</totfact>
</mgrwt>
</event>
<event>
 4    1  0.2505250E+000  0.5402754E+02  0.7957747E-01  0.1424754E+00
         13   -1    0    0    0    0  0.00000000000E+00  0.00000000000E+00  0.99999944186E+02  0.10000000001E+03  0.10566000000E+00 0.  1.
         22   -1    0    0    0    0 -0.00000000000E+00 -0.00000000000E+00 -0.66044748326E+02  0.66044748326E+02  0.00000000000E+00 0. -1.
         13    1    1    2    0    0  0.12399473257E+02  0.16285830874E+02 -0.56827514295E+02  0.60401595751E+02  0.10566000000E+00 0. -1.
        996    1    1    2    0    0 -0.12399473257E+02 -0.16285830874E+02  0.90782710154E+02  0.10564315258E+03  0.50000000000E+02 0.  0.
<mgrwt>
<rscale>  0 0.54027541E+02</rscale>
<asrwt>0</asrwt>
<pdfrwt beam="1">  1       13 0.10000000E+01 0.54027541E+02</pdfrwt>
<pdfrwt beam="2">  1       22 0.66044758E+00 0.54027541E+02</pdfrwt>
<totfact> 0.87261062E-02</totfact>
</mgrwt>
</event>
<event>
 4    1  0.2505250E+000  0.6134037E+02  0.7957747E-01  0.1392291E+00
         13   -1    0    0    0    0  0.00000000000E+00  0.00000000000E+00  0.99999944179E+02  0.99999999999E+02  0.10566000000E+00 0. -1.
         22   -1    0    0    0    0 -0.00000000000E+00 -0.00000000000E+00 -0.23540390142E+02  0.23540390142E+02  0.00000000000E+00 0.  1.
         13    1    1    2    0    0  0.29279247353E+02 -0.20133716254E+02  0.31526945949E+02  0.47503687653E+02  0.10566000000E+00 0.  1.
        996    1    1    2    0    0 -0.29279247353E+02  0.20133716254E+02  0.44932608088E+02  0.76036702488E+02  0.50000000000E+02 0.  0.
<mgrwt>
<rscale>  0 0.61340369E+02</rscale>
<asrwt>0</asrwt>
<pdfrwt beam="1">  1       13 0.10000000E+01 0.61340369E+02</pdfrwt>
<pdfrwt beam="2">  1       22 0.23540411E+00 0.61340369E+02</pdfrwt>
<totfact> 0.33637298E-01</totfact>
</mgrwt>
</event>
<event>
 4    1  0.2505250E+000  0.5156296E+02  0.7957747E-01  0.1437089E+00
         13   -1    0    0    0    0  0.00000000000E+00  0.00000000000E+00  0.99999944177E+02  0.99999999997E+02  0.10566000000E+00 0.  1.
         22   -1    0    0    0    0 -0.00000000000E+00 -0.00000000000E+00 -0.10753647978E+02  0.10753647978E+02  0.00000000000E+00 0.  1.
         13    1    1    2    0    0 -0.44048617031E+01  0.11804048968E+02  0.27917403412E+02  0.30628923520E+02  0.10566000000E+00 0. -1.
        996    1    1    2    0    0  0.44048617031E+01 -0.11804048968E+02  0.61328892787E+02  0.80124724456E+02  0.50000000000E+02 0.  0.
<mgrwt>
<rscale>  0 0.51562955E+02</rscale>
<asrwt>0</asrwt>
<pdfrwt beam="1">  1       13 0.10000000E+01 0.51562955E+02</pdfrwt>
<pdfrwt beam="2">  1       22 0.10753673E+00 0.51562955E+02</pdfrwt>
<totfact> 0.12663004E+00</totfact>
</mgrwt>
</event>
<event>
 4    1  0.2505250E+000  0.5591778E+02  0.7957747E-01  0.1415808E+00
         13   -1    0    0    0    0  0.00000000000E+00  0.00000000000E+00  0.99999944181E+02  0.10000000000E+03  0.10566000000E+00 0.  1.
         22   -1    0    0    0    0 -0.00000000000E+00 -0.00000000000E+00 -0.19184177869E+02  0.19184177869E+02  0.00000000000E+00 0.  1.
         13    1    1    2    0    0 -0.24533952325E+02 -0.49883514702E+01  0.59373231991E+01  0.25730554559E+02  0.10566000000E+00 0. -1.
        996    1    1    2    0    0  0.24533952325E+02  0.49883514702E+01  0.74878443113E+02  0.93453623312E+02  0.50000000000E+02 0.  0.
<mgrwt>
<rscale>  0 0.55917783E+02</rscale>
<asrwt>0</asrwt>
<pdfrwt beam="1">  1       13 0.10000000E+01 0.55917783E+02</pdfrwt>
<pdfrwt beam="2">  1       22 0.19184200E+00 0.55917783E+02</pdfrwt>
<totfact> 0.49278723E-01</totfact>
</mgrwt>
</event>
<event>
 4    1  0.2505250E+000  0.5203431E+02  0.7957747E-01  0.1434668E+00
         13   -1    0    0    0    0  0.00000000000E+00  0.00000000000E+00  0.99999944177E+02  0.99999999997E+02  0.10566000000E+00 0.  1.
         22   -1    0    0    0    0 -0.00000000000E+00 -0.00000000000E+00 -0.13006965524E+02  0.13006965524E+02  0.00000000000E+00 0.  1.
         13    1    1    2    0    0  0.12549420238E+01 -0.14352508205E+02  0.38321547200E+01  0.14908586287E+02  0.10566000000E+00 0. -1.
        996    1    1    2    0    0 -0.12549420238E+01  0.14352508205E+02  0.83160823933E+02  0.98098379234E+02  0.50000000000E+02 0.  0.
<mgrwt>
<rscale>  0 0.52034310E+02</rscale>
<asrwt>0</asrwt>
<pdfrwt beam="1">  1       13 0.10000000E+01 0.52034310E+02</pdfrwt>
<pdfrwt beam="2">  1       22 0.13006990E+00 0.52034310E+02</pdfrwt>
<totfact> 0.94853419E-01</totfact>
</mgrwt>
</event>
<event>
 4    1  0.2505250E+000  0.5106927E+02  0.7957747E-01  0.1439658E+00
         13   -1    0    0    0    0  0.00000000000E+00  0.00000000000E+00  0.99999944175E+02  0.99999999996E+02  0.10566000000E+00 0.  1.
         22   -1    0    0    0    0 -0.00000000000E+00 -0.00000000000E+00 -0.18369538310E+02  0.18369538310E+02  0.00000000000E+00 0. -1.
         13    1    1    2    0    0 -0.22361390556E+01 -0.10152353134E+02 -0.93847932603E+01  0.14005573912E+02  0.10566000000E+00 0. -1.
        996    1    1    2    0    0  0.22361390556E+01  0.10152353134E+02  0.91015199126E+02  0.10436396439E+03  0.50000000000E+02 0.  0.
<mgrwt>
<rscale>  0 0.51069272E+02</rscale>
<asrwt>0</asrwt>
<pdfrwt beam="1">  1       13 0.10000000E+01 0.51069272E+02</pdfrwt>
<pdfrwt beam="2">  1       22 0.18369561E+00 0.51069272E+02</pdfrwt>
<totfact> 0.52873914E-01</totfact>
</mgrwt>
</event>
<event>
 4    1  0.2505250E+000  0.5116272E+02  0.7957747E-01  0.1439169E+00
         13   -1    0    0    0    0  0.00000000000E+00  0.00000000000E+00  0.99999944183E+02  0.10000000000E+03  0.10566000000E+00 0. -1.
         22   -1    0    0    0    0 -0.00000000000E+00 -0.00000000000E+00 -0.96441794695E+01  0.96441794695E+01  0.00000000000E+00 0. -1.
         13    1    1    2    0    0 -0.17938054017E+01  0.10696103972E+02  0.13516717854E+02  0.17330239570E+02  0.10566000000E+00 0.  1.
        996    1    1    2    0    0  0.17938054017E+01 -0.10696103972E+02  0.76839046860E+02  0.92313939903E+02  0.50000000000E+02 0.  0.
<mgrwt>
<rscale>  0 0.51162724E+02</rscale>
<asrwt>0</asrwt>
<pdfrwt beam="1">  1       13 0.10000000E+01 0.51162724E+02</pdfrwt>
<pdfrwt beam="2">  1       22 0.96442047E-01 0.51162724E+02</pdfrwt>
<totfact> 0.14823438E+00</totfact>
</mgrwt>
</event>
<event>
 4    1  0.2505250E+000  0.5141402E+02  0.7957747E-01  0.1437861E+00
         13   -1    0    0    0    0  0.00000000000E+00  0.00000000000E+00  0.99999944171E+02  0.99999999992E+02  0.10566000000E+00 0.  1.
         22   -1    0    0    0    0 -0.00000000000E+00 -0.00000000000E+00 -0.10349536143E+02  0.10349536143E+02  0.00000000000E+00 0.  1.
         13    1    1    2    0    0  0.11604214231E+02 -0.29569552914E+01  0.10284516479E+02  0.15785557189E+02  0.10566000000E+00 0. -1.
        996    1    1    2    0    0 -0.11604214231E+02  0.29569552914E+01  0.79365891550E+02  0.94563978945E+02  0.50000000000E+02 0.  0.
<mgrwt>
<rscale>  0 0.51414019E+02</rscale>
<asrwt>0</asrwt>
<pdfrwt beam="1">  1       13 0.10000000E+01 0.51414019E+02</pdfrwt>
<pdfrwt beam="2">  1       22 0.10349561E+00 0.51414019E+02</pdfrwt>
<totfact> 0.13391544E+00</totfact>
</mgrwt>
</event>
<event>
 4    1  0.2505250E+000  0.5237343E+02  0.7957747E-01  0.1432945E+00
         13   -1    0    0    0    0  0.00000000000E+00  0.00000000000E+00  0.99999944179E+02  0.10000000000E+03  0.10566000000E+00 0. -1.
         22   -1    0    0    0    0 -0.00000000000E+00 -0.00000000000E+00 -0.19680741730E+02  0.19680741730E+02  0.00000000000E+00 0.  1.
         13    1    1    2    0    0  0.15263827823E+02 -0.31609083447E+01 -0.76016736297E+01  0.17342790646E+02  0.10566000000E+00 0.  1.
        996    1    1    2    0    0 -0.15263827823E+02  0.31609083447E+01  0.87920876079E+02  0.10233795108E+03  0.50000000000E+02 0.  0.
<mgrwt>
<rscale>  0 0.52373426E+02</rscale>
<asrwt>0</asrwt>
<pdfrwt beam="1">  1       13 0.10000000E+01 0.52373426E+02</pdfrwt>
<pdfrwt beam="2">  1       22 0.19680764E+00 0.52373426E+02</pdfrwt>
<totfact> 0.46715990E-01</totfact>
</mgrwt>
</event>
<event>
 4    1  0.2505250E+000  0.5216539E+02  0.7957747E-01  0.1434000E+00
         13   -1    0    0    0    0  0.00000000000E+00  0.00000000000E+00  0.99999944180E+02  0.10000000000E+03  0.10566000000E+00 0. -1.
         22   -1    0    0    0    0 -0.00000000000E+00 -0.00000000000E+00 -0.54901296365E+02  0.54901296365E+02  0.00000000000E+00 0.  1.
         13    1    1    2    0    0  0.14805784364E+02 -0.14199427944E+01 -0.46867151618E+02  0.49170809969E+02  0.10566000000E+00 0.  1.
        996    1    1    2    0    0 -0.14805784364E+02  0.14199427944E+01  0.91965799433E+02  0.10573048640E+03  0.50000000000E+02 0.  0.
<mgrwt>
<rscale>  0 0.52165386E+02</rscale>
<asrwt>0</asrwt>
<pdfrwt beam="1">  1       13 0.10000000E+01 0.52165386E+02</pdfrwt>
<pdfrwt beam="2">  1       22 0.54901309E+00 0.52165386E+02</pdfrwt>
<totfact> 0.59319889E-02</totfact>
</mgrwt>
</event>
<event>
 4    1  0.2505250E+000  0.5250550E+02  0.7957747E-01  0.1432278E+00
         13   -1    0    0    0    0  0.00000000000E+00  0.00000000000E+00  0.99999944179E+02  0.99999999999E+02  0.10566000000E+00 0. -1.
         22   -1    0    0    0    0 -0.00000000000E+00 -0.00000000000E+00 -0.11758011469E+02  0.11758011469E+02  0.00000000000E+00 0. -1.
         13    1    1    2    0    0 -0.24863540492E+00  0.16023904917E+02  0.18892838747E+02  0.24774540729E+02  0.10566000000E+00 0.  1.
        996    1    1    2    0    0  0.24863540492E+00 -0.16023904917E+02  0.69349093963E+02  0.86983470739E+02  0.50000000000E+02 0.  0.
<mgrwt>
<rscale>  0 0.52505498E+02</rscale>
<asrwt>0</asrwt>
<pdfrwt beam="1">  1       13 0.10000000E+01 0.52505498E+02</pdfrwt>
<pdfrwt beam="2">  1       22 0.11758036E+00 0.52505498E+02</pdfrwt>
<totfact> 0.11101365E+00</totfact>
</mgrwt>
</event>
<event>
 4    1  0.2505250E+000  0.5123891E+02  0.7957747E-01  0.1438772E+00
         13   -1    0    0    0    0  0.00000000000E+00  0.00000000000E+00  0.99999944182E+02  0.10000000000E+03  0.10566000000E+00 0. -1.
         22   -1    0    0    0    0 -0.00000000000E+00 -0.00000000000E+00 -0.24219854568E+02  0.24219854568E+02  0.00000000000E+00 0.  1.
         13    1    1    2    0    0  0.71258469659E+01  0.86399004071E+01 -0.15748618505E+02  0.19325002533E+02  0.10566000000E+00 0.  1.
        996    1    1    2    0    0 -0.71258469659E+01 -0.86399004071E+01  0.91528708119E+02  0.10489485204E+03  0.50000000000E+02 0.  0.
<mgrwt>
<rscale>  0 0.51238907E+02</rscale>
<asrwt>0</asrwt>
<pdfrwt beam="1">  1       13 0.10000000E+01 0.51238907E+02</pdfrwt>
<pdfrwt beam="2">  1       22 0.24219876E+00 0.51238907E+02</pdfrwt>
<totfact> 0.31335145E-01</totfact>
</mgrwt>
</event>
<event>
 4    1  0.2505250E+000  0.6438193E+02  0.7957747E-01  0.1380312E+00
         13   -1    0    0    0    0  0.00000000000E+00  0.00000000000E+00  0.99999944187E+02  0.10000000001E+03  0.10566000000E+00 0.  1.
         22   -1    0    0    0    0 -0.00000000000E+00 -0.00000000000E+00 -0.51131867839E+02  0.51131867839E+02  0.00000000000E+00 0. -1.
         13    1    1    2    0    0  0.35774360955E-01 -0.40558989813E+02 -0.29173323788E+02  0.49961254181E+02  0.10566000000E+00 0. -1.
        996    1    1    2    0    0 -0.35774360955E-01  0.40558989813E+02  0.78041400136E+02  0.10117061367E+03  0.50000000000E+02 0.  0.
<mgrwt>
<rscale>  0 0.64381930E+02</rscale>
<asrwt>0</asrwt>
<pdfrwt beam="1">  1       13 0.10000000E+01 0.64381930E+02</pdfrwt>
<pdfrwt beam="2">  1       22 0.51131882E+00 0.64381930E+02</pdfrwt>
<totfact> 0.69600880E-02</totfact>
</mgrwt>
</event>
<event>
 4    1  0.2505250E+000  0.5374000E+02  0.7957747E-01  0.1426153E+00
         13   -1    0    0    0    0  0.00000000000E+00  0.00000000000E+00  0.99999944175E+02  0.99999999995E+02  0.10566000000E+00 0. -1.
         22   -1    0    0    0    0 -0.00000000000E+00 -0.00000000000E+00 -0.14203094406E+02  0.14203094406E+02  0.00000000000E+00 0.  1.
         13    1    1    2    0    0 -0.10963416425E+02  0.16364339909E+02  0.12547766738E+02  0.23354779693E+02  0.10566000000E+00 0.  1.
        996    1    1    2    0    0  0.10963416425E+02 -0.16364339909E+02  0.73249083031E+02  0.90848314708E+02  0.50000000000E+02 0.  0.
<mgrwt>
<rscale>  0 0.53740005E+02</rscale>
<asrwt>0</asrwt>
<pdfrwt beam="1">  1       13 0.10000000E+01 0.53740005E+02</pdfrwt>
<pdfrwt beam="2">  1       22 0.14203118E+00 0.53740005E+02</pdfrwt>
<totfact> 0.82671507E-01</totfact>
</mgrwt>
</event>
<event>
 4    1  0.2505250E+000  0.5446718E+02  0.7957747E-01  0.1422636E+00
         13   -1    0    0    0    0  0.00000000000E+00  0.00000000000E+00  0.99999944172E+02  0.99999999993E+02  0.10566000000E+00 0. -1.
         22   -1    0    0    0    0 -0.00000000000E+00 -0.00000000000E+00 -0.67169976386E+02  0.67169976386E+02  0.00000000000E+00 0.  1.
         13    1    1    2    0    0  0.11363697801E+02 -0.18372253822E+02 -0.57647849589E+02  0.61562643417E+02  0.10566000000E+00 0.  1.
        996    1    1    2    0    0 -0.11363697801E+02  0.18372253822E+02  0.90477817376E+02  0.10560733296E+03  0.50000000000E+02 0.  0.
<mgrwt>
<rscale>  0 0.54467177E+02</rscale>
<asrwt>0</asrwt>
<pdfrwt beam="1">  1       13 0.10000000E+01 0.54467177E+02</pdfrwt>
<pdfrwt beam="2">  1       22 0.67169986E+00 0.54467177E+02</pdfrwt>
<totfact> 0.85902526E-02</totfact>
</mgrwt>
</event>
<event>
 4    1  0.2505250E+000  0.5117616E+02  0.7957747E-01  0.1439099E+00
         13   -1    0    0    0    0  0.00000000000E+00  0.00000000000E+00  0.99999944182E+02  0.10000000000E+03  0.10566000000E+00 0.  1.
         22   -1    0    0    0    0 -0.00000000000E+00 -0.00000000000E+00 -0.10608150115E+02  0.10608150115E+02  0.00000000000E+00 0.  1.
         13    1    1    2    0    0 -0.91317495423E+01  0.59674603388E+01  0.52056728127E+01  0.12087581481E+02  0.10566000000E+00 0. -1.
        996    1    1    2    0    0  0.91317495423E+01 -0.59674603388E+01  0.84186121254E+02  0.98520568636E+02  0.50000000000E+02 0.  0.
<mgrwt>
<rscale>  0 0.51176161E+02</rscale>
<asrwt>0</asrwt>
<pdfrwt beam="1">  1       13 0.10000000E+01 0.51176161E+02</pdfrwt>
<pdfrwt beam="2">  1       22 0.10608175E+00 0.51176161E+02</pdfrwt>
<totfact> 0.12908136E+00</totfact>
</mgrwt>
</event>
<event>
 4    1  0.2505250E+000  0.5107542E+02  0.7957747E-01  0.1439626E+00
         13   -1    0    0    0    0  0.00000000000E+00  0.00000000000E+00  0.99999944181E+02  0.10000000000E+03  0.10566000000E+00 0. -1.
         22   -1    0    0    0    0 -0.00000000000E+00 -0.00000000000E+00 -0.30971978037E+02  0.30971978037E+02  0.00000000000E+00 0.  1.
         13    1    1    2    0    0  0.63122412423E+01  0.82978375290E+01 -0.23261835779E+02  0.25491619506E+02  0.10566000000E+00 0.  1.
        996    1    1    2    0    0 -0.63122412423E+01 -0.82978375290E+01  0.92289801923E+02  0.10548035853E+03  0.50000000000E+02 0.  0.
<mgrwt>
<rscale>  0 0.51075420E+02</rscale>
<asrwt>0</asrwt>
<pdfrwt beam="1">  1       13 0.10000000E+01 0.51075420E+02</pdfrwt>
<pdfrwt beam="2">  1       22 0.30971997E+00 0.51075420E+02</pdfrwt>
<totfact> 0.19495409E-01</totfact>
</mgrwt>
</event>
<event>
 4    1  0.2505250E+000  0.5306325E+02  0.7957747E-01  0.1429486E+00
         13   -1    0    0    0    0  0.00000000000E+00  0.00000000000E+00  0.99999944173E+02  0.99999999993E+02  0.10566000000E+00 0. -1.
         22   -1    0    0    0    0 -0.00000000000E+00 -0.00000000000E+00 -0.15683377724E+02  0.15683377724E+02  0.00000000000E+00 0. -1.
         13    1    1    2    0    0 -0.12128977479E+02 -0.12984467640E+02  0.48529455060E+02  0.51680050958E+02  0.10566000000E+00 0.  1.
        996    1    1    2    0    0  0.12128977479E+02  0.12984467640E+02  0.35787111390E+02  0.64003326759E+02  0.50000000000E+02 0.  0.
<mgrwt>
<rscale>  0 0.53063250E+02</rscale>
<asrwt>0</asrwt>
<pdfrwt beam="1">  1       13 0.10000000E+01 0.53063250E+02</pdfrwt>
<pdfrwt beam="2">  1       22 0.15683401E+00 0.53063250E+02</pdfrwt>
<totfact> 0.70009828E-01</totfact>
</mgrwt>
</event>
<event>
 4    1  0.2505250E+000  0.5261382E+02  0.7957747E-01  0.1431732E+00
         13   -1    0    0    0    0  0.00000000000E+00  0.00000000000E+00  0.99999944172E+02  0.99999999993E+02  0.10566000000E+00 0. -1.
         22   -1    0    0    0    0 -0.00000000000E+00 -0.00000000000E+00 -0.31786205145E+02  0.31786205145E+02  0.00000000000E+00 0.  1.
         13    1    1    2    0    0  0.75583108547E+01  0.14528789839E+02 -0.21954480538E+02  0.27390220461E+02  0.10566000000E+00 0.  1.
        996    1    1    2    0    0 -0.75583108547E+01 -0.14528789839E+02  0.90168219565E+02  0.10439598468E+03  0.50000000000E+02 0.  0.
<mgrwt>
<rscale>  0 0.52613818E+02</rscale>
<asrwt>0</asrwt>
<pdfrwt beam="1">  1       13 0.10000000E+01 0.52613818E+02</pdfrwt>
<pdfrwt beam="2">  1       22 0.31786224E+00 0.52613818E+02</pdfrwt>
<totfact> 0.18634875E-01</totfact>
</mgrwt>
</event>
<event>
 4    1  0.2505250E+000  0.5175603E+02  0.7957747E-01  0.1436094E+00
         13   -1    0    0    0    0  0.00000000000E+00  0.00000000000E+00  0.99999944183E+02  0.10000000000E+03  0.10566000000E+00 0.  1.
         22   -1    0    0    0    0 -0.00000000000E+00 -0.00000000000E+00 -0.25067333527E+02  0.25067333527E+02  0.00000000000E+00 0. -1.
         13    1    1    2    0    0 -0.11316059020E+02  0.71157215930E+01 -0.15747794955E+02  0.20656497659E+02  0.10566000000E+00 0. -1.
        996    1    1    2    0    0  0.11316059020E+02 -0.71157215930E+01  0.90680405611E+02  0.10441083587E+03  0.50000000000E+02 0.  0.
<mgrwt>
<rscale>  0 0.51756030E+02</rscale>
<asrwt>0</asrwt>
<pdfrwt beam="1">  1       13 0.10000000E+01 0.51756030E+02</pdfrwt>
<pdfrwt beam="2">  1       22 0.25067354E+00 0.51756030E+02</pdfrwt>
<totfact> 0.29312493E-01</totfact>
</mgrwt>
</event>
<event>
 4    1  0.2505250E+000  0.5156919E+02  0.7957747E-01  0.1437057E+00
         13   -1    0    0    0    0  0.00000000000E+00  0.00000000000E+00  0.99999944177E+02  0.99999999997E+02  0.10566000000E+00 0. -1.
         22   -1    0    0    0    0 -0.00000000000E+00 -0.00000000000E+00 -0.22770263114E+02  0.22770263114E+02  0.00000000000E+00 0.  1.
         13    1    1    2    0    0  0.11874577095E+02  0.42867065050E+01 -0.13453414233E+02  0.18449578651E+02  0.10566000000E+00 0.  1.
        996    1    1    2    0    0 -0.11874577095E+02 -0.42867065050E+01  0.90683095296E+02  0.10432068446E+03  0.50000000000E+02 0.  0.
<mgrwt>
<rscale>  0 0.51569191E+02</rscale>
<asrwt>0</asrwt>
<pdfrwt beam="1">  1       13 0.10000000E+01 0.51569191E+02</pdfrwt>
<pdfrwt beam="2">  1       22 0.22770285E+00 0.51569191E+02</pdfrwt>
<totfact> 0.35363655E-01</totfact>
</mgrwt>
</event>
<event>
 4    1  0.2505250E+000  0.5103033E+02  0.7957747E-01  0.1439862E+00
         13   -1    0    0    0    0  0.00000000000E+00  0.00000000000E+00  0.99999944178E+02  0.99999999999E+02  0.10566000000E+00 0.  1.
         22   -1    0    0    0    0 -0.00000000000E+00 -0.00000000000E+00 -0.13650852249E+02  0.13650852249E+02  0.00000000000E+00 0. -1.
         13    1    1    2    0    0 -0.81360151514E+01 -0.61562875261E+01 -0.31046329785E+01  0.10665107998E+02  0.10566000000E+00 0. -1.
        996    1    1    2    0    0  0.81360151514E+01  0.61562875261E+01  0.89453724908E+02  0.10298574425E+03  0.50000000000E+02 0.  0.
<mgrwt>
<rscale>  0 0.51030330E+02</rscale>
<asrwt>0</asrwt>
<pdfrwt beam="1">  1       13 0.10000000E+01 0.51030330E+02</pdfrwt>
<pdfrwt beam="2">  1       22 0.13650876E+00 0.51030330E+02</pdfrwt>
<totfact> 0.87650723E-01</totfact>
</mgrwt>
</event>
<event>
 4    1  0.2505250E+000  0.5175960E+02  0.7957747E-01  0.1436075E+00
         13   -1    0    0    0    0  0.00000000000E+00  0.00000000000E+00  0.99999944183E+02  0.10000000000E+03  0.10566000000E+00 0.  1.
         22   -1    0    0    0    0 -0.00000000000E+00 -0.00000000000E+00 -0.12612820962E+02  0.12612820962E+02  0.00000000000E+00 0.  1.
         13    1    1    2    0    0 -0.12939388513E+02  0.34100500117E+01  0.31546257965E+01  0.13748419695E+02  0.10566000000E+00 0. -1.
        996    1    1    2    0    0  0.12939388513E+02 -0.34100500117E+01  0.84232497425E+02  0.98864401270E+02  0.50000000000E+02 0.  0.
<mgrwt>
<rscale>  0 0.51759600E+02</rscale>
<asrwt>0</asrwt>
<pdfrwt beam="1">  1       13 0.10000000E+01 0.51759600E+02</pdfrwt>
<pdfrwt beam="2">  1       22 0.12612845E+00 0.51759600E+02</pdfrwt>
<totfact> 0.99479509E-01</totfact>
</mgrwt>
</event>
<event>
 4    1  0.2505250E+000  0.5857124E+02  0.7957747E-01  0.1403927E+00
         13   -1    0    0    0    0  0.00000000000E+00  0.00000000000E+00  0.99999944183E+02  0.10000000000E+03  0.10566000000E+00 0.  1.
         22   -1    0    0    0    0 -0.00000000000E+00 -0.00000000000E+00 -0.22113835687E+02  0.22113835687E+02  0.00000000000E+00 0. -1.
         13    1    1    2    0    0 -0.17102405668E+02  0.25260588442E+02  0.92367628159E+01  0.31873477366E+02  0.10566000000E+00 0. -1.
        996    1    1    2    0    0  0.17102405668E+02 -0.25260588442E+02  0.68649345681E+02  0.90240358324E+02  0.50000000000E+02 0.  0.
<mgrwt>
<rscale>  0 0.58571235E+02</rscale>
<asrwt>0</asrwt>
<pdfrwt beam="1">  1       13 0.10000000E+01 0.58571235E+02</pdfrwt>
<pdfrwt beam="2">  1       22 0.22113857E+00 0.58571235E+02</pdfrwt>
<totfact> 0.37841674E-01</totfact>
</mgrwt>
</event>
<event>
 4    1  0.2505250E+000  0.5220958E+02  0.7957747E-01  0.1433775E+00
         13   -1    0    0    0    0  0.00000000000E+00  0.00000000000E+00  0.99999944183E+02  0.10000000000E+03  0.10566000000E+00 0.  1.
         22   -1    0    0    0    0 -0.00000000000E+00 -0.00000000000E+00 -0.12158034729E+02  0.12158034729E+02  0.00000000000E+00 0.  1.
         13    1    1    2    0    0 -0.13016295557E+02 -0.75110865317E+01  0.87563811957E+01  0.17393267278E+02  0.10566000000E+00 0. -1.
        996    1    1    2    0    0  0.13016295557E+02  0.75110865317E+01  0.79085528258E+02  0.94764767455E+02  0.50000000000E+02 0.  0.
<mgrwt>
<rscale>  0 0.52209581E+02</rscale>
<asrwt>0</asrwt>
<pdfrwt beam="1">  1       13 0.10000000E+01 0.52209581E+02</pdfrwt>
<pdfrwt beam="2">  1       22 0.12158059E+00 0.52209581E+02</pdfrwt>
<totfact> 0.10540531E+00</totfact>
</mgrwt>
</event>
<event>
 4    1  0.2505250E+000  0.5434240E+02  0.7957747E-01  0.1423235E+00
         13   -1    0    0    0    0  0.00000000000E+00  0.00000000000E+00  0.99999944176E+02  0.99999999996E+02  0.10566000000E+00 0.  1.
         22   -1    0    0    0    0 -0.00000000000E+00 -0.00000000000E+00 -0.16545872543E+02  0.16545872543E+02  0.00000000000E+00 0. -1.
         13    1    1    2    0    0 -0.21207456824E+02 -0.18275089433E+01  0.63449681462E+01  0.22211839156E+02  0.10566000000E+00 0. -1.
        996    1    1    2    0    0  0.21207456824E+02  0.18275089433E+01  0.77109103486E+02  0.94334033383E+02  0.50000000000E+02 0.  0.
<mgrwt>
<rscale>  0 0.54342396E+02</rscale>
<asrwt>0</asrwt>
<pdfrwt beam="1">  1       13 0.10000000E+01 0.54342396E+02</pdfrwt>
<pdfrwt beam="2">  1       22 0.16545896E+00 0.54342396E+02</pdfrwt>
<totfact> 0.64022376E-01</totfact>
</mgrwt>
</event>
<event>
 4    1  0.2505250E+000  0.5174970E+02  0.7957747E-01  0.1436126E+00
         13   -1    0    0    0    0  0.00000000000E+00  0.00000000000E+00  0.99999944180E+02  0.10000000000E+03  0.10566000000E+00 0.  1.
         22   -1    0    0    0    0 -0.00000000000E+00 -0.00000000000E+00 -0.11222304886E+02  0.11222304886E+02  0.00000000000E+00 0. -1.
         13    1    1    2    0    0 -0.12017280375E+02  0.57980075264E+01  0.88747212112E+01  0.16025097800E+02  0.10566000000E+00 0. -1.
        996    1    1    2    0    0  0.12017280375E+02 -0.57980075264E+01  0.79902918083E+02  0.95197207086E+02  0.50000000000E+02 0.  0.
<mgrwt>
<rscale>  0 0.51749705E+02</rscale>
<asrwt>0</asrwt>
<pdfrwt beam="1">  1       13 0.10000000E+01 0.51749705E+02</pdfrwt>
<pdfrwt beam="2">  1       22 0.11222330E+00 0.51749705E+02</pdfrwt>
<totfact> 0.11889794E+00</totfact>
</mgrwt>
</event>
<event>
 4    1  0.2505250E+000  0.5130637E+02  0.7957747E-01  0.1438420E+00
         13   -1    0    0    0    0  0.00000000000E+00  0.00000000000E+00  0.99999944184E+02  0.10000000000E+03  0.10566000000E+00 0.  1.
         22   -1    0    0    0    0 -0.00000000000E+00 -0.00000000000E+00 -0.18101755988E+02  0.18101755988E+02  0.00000000000E+00 0. -1.
         13    1    1    2    0    0  0.67437055779E+01  0.93201912829E+01 -0.84005223167E+01  0.14245120909E+02  0.10566000000E+00 0. -1.
        996    1    1    2    0    0 -0.67437055779E+01 -0.93201912829E+01  0.90298710513E+02  0.10385663508E+03  0.50000000000E+02 0.  0.
<mgrwt>
<rscale>  0 0.51306369E+02</rscale>
<asrwt>0</asrwt>
<pdfrwt beam="1">  1       13 0.10000000E+01 0.51306369E+02</pdfrwt>
<pdfrwt beam="2">  1       22 0.18101779E+00 0.51306369E+02</pdfrwt>
<totfact> 0.54315793E-01</totfact>
</mgrwt>
</event>
<event>
 4    1  0.2505250E+000  0.5223014E+02  0.7957747E-01  0.1433671E+00
         13   -1    0    0    0    0  0.00000000000E+00  0.00000000000E+00  0.99999944180E+02  0.10000000000E+03  0.10566000000E+00 0.  1.
         22   -1    0    0    0    0 -0.00000000000E+00 -0.00000000000E+00 -0.21988292291E+02  0.21988292291E+02  0.00000000000E+00 0. -1.
         13    1    1    2    0    0 -0.68237123484E+01  0.13469408156E+02 -0.11070761318E+02  0.18723272323E+02  0.10566000000E+00 0. -1.
        996    1    1    2    0    0  0.68237123484E+01 -0.13469408156E+02  0.89082413207E+02  0.10326501997E+03  0.50000000000E+02 0.  0.
<mgrwt>
<rscale>  0 0.52230145E+02</rscale>
<asrwt>0</asrwt>
<pdfrwt beam="1">  1       13 0.10000000E+01 0.52230145E+02</pdfrwt>
<pdfrwt beam="2">  1       22 0.21988314E+00 0.52230145E+02</pdfrwt>
<totfact> 0.37874594E-01</totfact>
</mgrwt>
</event>
<event>
 4    1  0.2505250E+000  0.5261427E+02  0.7957747E-01  0.1431730E+00
         13   -1    0    0    0    0  0.00000000000E+00  0.00000000000E+00  0.99999944187E+02  0.10000000001E+03  0.10566000000E+00 0.  1.
         22   -1    0    0    0    0 -0.00000000000E+00 -0.00000000000E+00 -0.19183946445E+02  0.19183946445E+02  0.00000000000E+00 0.  1.
         13    1    1    2    0    0 -0.16075368788E+02  0.31375373795E+01 -0.61873614971E+01  0.17508747208E+02  0.10566000000E+00 0. -1.
        996    1    1    2    0    0  0.16075368788E+02 -0.31375373795E+01  0.87003359239E+02  0.10167519924E+03  0.50000000000E+02 0.  0.
<mgrwt>
<rscale>  0 0.52614272E+02</rscale>
<asrwt>0</asrwt>
<pdfrwt beam="1">  1       13 0.10000000E+01 0.52614272E+02</pdfrwt>
<pdfrwt beam="2">  1       22 0.19183969E+00 0.52614272E+02</pdfrwt>
<totfact> 0.48995604E-01</totfact>
</mgrwt>
</event>
<event>
 4    1  0.2505250E+000  0.5221426E+02  0.7957747E-01  0.1433752E+00
         13   -1    0    0    0    0  0.00000000000E+00  0.00000000000E+00  0.99999944172E+02  0.99999999992E+02  0.10566000000E+00 0. -1.
         22   -1    0    0    0    0 -0.00000000000E+00 -0.00000000000E+00 -0.75177239462E+02  0.75177239462E+02  0.00000000000E+00 0.  1.
         13    1    1    2    0    0 -0.14545664329E+02 -0.38409382406E+01 -0.67476083159E+02  0.69132930792E+02  0.10566000000E+00 0.  1.
        996    1    1    2    0    0  0.14545664329E+02  0.38409382406E+01  0.92298787870E+02  0.10604430866E+03  0.50000000000E+02 0.  0.
<mgrwt>
<rscale>  0 0.52214262E+02</rscale>
<asrwt>0</asrwt>
<pdfrwt beam="1">  1       13 0.10000000E+01 0.52214262E+02</pdfrwt>
<pdfrwt beam="2">  1       22 0.75177246E+00 0.52214262E+02</pdfrwt>
<totfact> 0.48236605E-02</totfact>
</mgrwt>
</event>
<event>
 4    1  0.2505250E+000  0.7156748E+02  0.7957747E-01  0.1354842E+00
         13   -1    0    0    0    0  0.00000000000E+00  0.00000000000E+00  0.99999944178E+02  0.99999999998E+02  0.10566000000E+00 0.  1.
         22   -1    0    0    0    0 -0.00000000000E+00 -0.00000000000E+00 -0.68766939315E+02  0.68766939315E+02  0.00000000000E+00 0. -1.
         13    1    1    2    0    0  0.51133834609E+02  0.26897754366E+01 -0.42107043194E+02  0.66294179114E+02  0.10566000000E+00 0. -1.
        996    1    1    2    0    0 -0.51133834609E+02 -0.26897754366E+01  0.73340048057E+02  0.10247276020E+03  0.50000000000E+02 0.  0.
<mgrwt>
<rscale>  0 0.71567478E+02</rscale>
<asrwt>0</asrwt>
<pdfrwt beam="1">  1       13 0.10000000E+01 0.71567478E+02</pdfrwt>
<pdfrwt beam="2">  1       22 0.68766948E+00 0.71567478E+02</pdfrwt>
<totfact> 0.80459594E-02</totfact>
</mgrwt>
</event>
<event>
 4    1  0.2505250E+000  0.5867698E+02  0.7957747E-01  0.1403469E+00
         13   -1    0    0    0    0  0.00000000000E+00  0.00000000000E+00  0.99999944170E+02  0.99999999991E+02  0.10566000000E+00 0. -1.
         22   -1    0    0    0    0 -0.00000000000E+00 -0.00000000000E+00 -0.34161482511E+02  0.34161482511E+02  0.00000000000E+00 0.  1.
         13    1    1    2    0    0 -0.24982413254E+02 -0.17856838028E+02 -0.15077106672E+02  0.34209910055E+02  0.10566000000E+00 0.  1.
        996    1    1    2    0    0  0.24982413254E+02  0.17856838028E+02  0.80915568331E+02  0.99951572447E+02  0.50000000000E+02 0.  0.
<mgrwt>
<rscale>  0 0.58676977E+02</rscale>
<asrwt>0</asrwt>
<pdfrwt beam="1">  1       13 0.10000000E+01 0.58676977E+02</pdfrwt>
<pdfrwt beam="2">  1       22 0.34161501E+00 0.58676977E+02</pdfrwt>
<totfact> 0.16505043E-01</totfact>
</mgrwt>
</event>
<event>
 4    1  0.2505250E+000  0.5197837E+02  0.7957747E-01  0.1434954E+00
         13   -1    0    0    0    0  0.00000000000E+00  0.00000000000E+00  0.99999944173E+02  0.99999999993E+02  0.10566000000E+00 0.  1.
         22   -1    0    0    0    0 -0.00000000000E+00 -0.00000000000E+00 -0.81752876521E+02  0.81752876521E+02  0.00000000000E+00 0. -1.
         13    1    1    2    0    0 -0.10948997891E+01 -0.14161657462E+02 -0.74279795973E+02  0.75625727113E+02  0.10566000000E+00 0. -1.
        996    1    1    2    0    0  0.10948997891E+01  0.14161657462E+02  0.92526863625E+02  0.10612714940E+03  0.50000000000E+02 0.  0.
<mgrwt>
<rscale>  0 0.51978374E+02</rscale>
<asrwt>0</asrwt>
<pdfrwt beam="1">  1       13 0.10000000E+01 0.51978374E+02</pdfrwt>
<pdfrwt beam="2">  1       22 0.81752882E+00 0.51978374E+02</pdfrwt>
<totfact> 0.26220520E-02</totfact>
</mgrwt>
</event>
<event>
 4    1  0.2505250E+000  0.5144644E+02  0.7957747E-01  0.1437692E+00
         13   -1    0    0    0    0  0.00000000000E+00  0.00000000000E+00  0.99999944177E+02  0.99999999997E+02  0.10566000000E+00 0. -1.
         22   -1    0    0    0    0 -0.00000000000E+00 -0.00000000000E+00 -0.10743504850E+02  0.10743504850E+02  0.00000000000E+00 0. -1.
         13    1    1    2    0    0  0.98551534502E+01  0.70436207977E+01  0.78229282897E+01  0.14420333371E+02  0.10566000000E+00 0.  1.
        996    1    1    2    0    0 -0.98551534502E+01 -0.70436207977E+01  0.81433511037E+02  0.96323171477E+02  0.50000000000E+02 0.  0.
<mgrwt>
<rscale>  0 0.51446444E+02</rscale>
<asrwt>0</asrwt>
<pdfrwt beam="1">  1       13 0.10000000E+01 0.51446444E+02</pdfrwt>
<pdfrwt beam="2">  1       22 0.10743530E+00 0.51446444E+02</pdfrwt>
<totfact> 0.12677194E+00</totfact>
</mgrwt>
</event>
<event>
 4    1  0.2505250E+000  0.5208194E+02  0.7957747E-01  0.1434425E+00
         13   -1    0    0    0    0  0.00000000000E+00  0.00000000000E+00  0.99999944179E+02  0.99999999999E+02  0.10566000000E+00 0.  1.
         22   -1    0    0    0    0 -0.00000000000E+00 -0.00000000000E+00 -0.12992848612E+02  0.12992848612E+02  0.00000000000E+00 0. -1.
         13    1    1    2    0    0 -0.38931363632E+01  0.14048896621E+02  0.42050038029E+01  0.15173042807E+02  0.10566000000E+00 0. -1.
        996    1    1    2    0    0  0.38931363632E+01 -0.14048896621E+02  0.82802091764E+02  0.97819805804E+02  0.50000000000E+02 0.  0.
<mgrwt>
<rscale>  0 0.52081936E+02</rscale>
<asrwt>0</asrwt>
<pdfrwt beam="1">  1       13 0.10000000E+01 0.52081936E+02</pdfrwt>
<pdfrwt beam="2">  1       22 0.12992873E+00 0.52081936E+02</pdfrwt>
<totfact> 0.95025636E-01</totfact>
</mgrwt>
</event>
<event>
 4    1  0.2505250E+000  0.5854548E+02  0.7957747E-01  0.1404039E+00
         13   -1    0    0    0    0  0.00000000000E+00  0.00000000000E+00  0.99999944182E+02  0.10000000000E+03  0.10566000000E+00 0.  1.
         22   -1    0    0    0    0 -0.00000000000E+00 -0.00000000000E+00 -0.30769881865E+02  0.30769881865E+02  0.00000000000E+00 0. -1.
         13    1    1    2    0    0 -0.19694259570E+02  0.23231638743E+02 -0.10178809245E+02  0.32112181806E+02  0.10566000000E+00 0. -1.
        996    1    1    2    0    0  0.19694259570E+02 -0.23231638743E+02  0.79408871561E+02  0.98657700061E+02  0.50000000000E+02 0.  0.
<mgrwt>
<rscale>  0 0.58545477E+02</rscale>
<asrwt>0</asrwt>
<pdfrwt beam="1">  1       13 0.10000000E+01 0.58545477E+02</pdfrwt>
<pdfrwt beam="2">  1       22 0.30769901E+00 0.58545477E+02</pdfrwt>
<totfact> 0.19909411E-01</totfact>
</mgrwt>
</event>
<event>
 4    1  0.2505250E+000  0.5200029E+02  0.7957747E-01  0.1434842E+00
         13   -1    0    0    0    0  0.00000000000E+00  0.00000000000E+00  0.99999944182E+02  0.10000000000E+03  0.10566000000E+00 0.  1.
         22   -1    0    0    0    0 -0.00000000000E+00 -0.00000000000E+00 -0.41055336020E+02  0.41055336020E+02  0.00000000000E+00 0. -1.
         13    1    1    2    0    0 -0.91930251357E+01  0.10932455165E+02 -0.32701069057E+02  0.35684749804E+02  0.10566000000E+00 0. -1.
        996    1    1    2    0    0  0.91930251357E+01 -0.10932455165E+02  0.91645677219E+02  0.10537058622E+03  0.50000000000E+02 0.  0.
<mgrwt>
<rscale>  0 0.52000291E+02</rscale>
<asrwt>0</asrwt>
<pdfrwt beam="1">  1       13 0.10000000E+01 0.52000291E+02</pdfrwt>
<pdfrwt beam="2">  1       22 0.41055352E+00 0.52000291E+02</pdfrwt>
<totfact> 0.11760637E-01</totfact>
</mgrwt>
</event>
<event>
 4    1  0.2505250E+000  0.5144840E+02  0.7957747E-01  0.1437682E+00
         13   -1    0    0    0    0  0.00000000000E+00  0.00000000000E+00  0.99999944172E+02  0.99999999993E+02  0.10566000000E+00 0.  1.
         22   -1    0    0    0    0 -0.00000000000E+00 -0.00000000000E+00 -0.12262634610E+02  0.12262634610E+02  0.00000000000E+00 0. -1.
         13    1    1    2    0    0 -0.97683072183E+01  0.71776020599E+01  0.20181772412E+01  0.12289100889E+02  0.10566000000E+00 0. -1.
        996    1    1    2    0    0  0.97683072183E+01 -0.71776020599E+01  0.85719132322E+02  0.99973533714E+02  0.50000000000E+02 0.  0.
<mgrwt>
<rscale>  0 0.51448399E+02</rscale>
<asrwt>0</asrwt>
<pdfrwt beam="1">  1       13 0.10000000E+01 0.51448399E+02</pdfrwt>
<pdfrwt beam="2">  1       22 0.12262659E+00 0.51448399E+02</pdfrwt>
<totfact> 0.10384693E+00</totfact>
</mgrwt>
</event>
<event>
 4    1  0.2505250E+000  0.5130487E+02  0.7957747E-01  0.1438428E+00
         13   -1    0    0    0    0  0.00000000000E+00  0.00000000000E+00  0.99999944178E+02  0.99999999998E+02  0.10566000000E+00 0.  1.
         22   -1    0    0    0    0 -0.00000000000E+00 -0.00000000000E+00 -0.15229243068E+02  0.15229243068E+02  0.00000000000E+00 0.  1.
         13    1    1    2    0    0 -0.10663259499E+02  0.42994128907E+01 -0.44339299098E+01  0.12323187609E+02  0.10566000000E+00 0. -1.
        996    1    1    2    0    0  0.10663259499E+02 -0.42994128907E+01  0.89204631020E+02  0.10290605546E+03  0.50000000000E+02 0.  0.
<mgrwt>
<rscale>  0 0.51304874E+02</rscale>
<asrwt>0</asrwt>
<pdfrwt beam="1">  1       13 0.10000000E+01 0.51304874E+02</pdfrwt>
<pdfrwt beam="2">  1       22 0.15229267E+00 0.51304874E+02</pdfrwt>
<totfact> 0.73304865E-01</totfact>
</mgrwt>
</event>
<event>
 4    1  0.2505250E+000  0.5873142E+02  0.7957747E-01  0.1403234E+00
         13   -1    0    0    0    0  0.00000000000E+00  0.00000000000E+00  0.99999944185E+02  0.10000000001E+03  0.10566000000E+00 0. -1.
         22   -1    0    0    0    0 -0.00000000000E+00 -0.00000000000E+00 -0.25476125444E+02  0.25476125444E+02  0.00000000000E+00 0.  1.
         13    1    1    2    0    0  0.10974580379E+02  0.28791285602E+02  0.28342943586E+00  0.30813487913E+02  0.10566000000E+00 0.  1.
        996    1    1    2    0    0 -0.10974580379E+02 -0.28791285602E+02  0.74240389305E+02  0.94662637536E+02  0.50000000000E+02 0.  0.
<mgrwt>
<rscale>  0 0.58731419E+02</rscale>
<asrwt>0</asrwt>
<pdfrwt beam="1">  1       13 0.10000000E+01 0.58731419E+02</pdfrwt>
<pdfrwt beam="2">  1       22 0.25476146E+00 0.58731419E+02</pdfrwt>
<totfact> 0.28683393E-01</totfact>
</mgrwt>
</event>
<event>
 4    1  0.2505250E+000  0.5136035E+02  0.7957747E-01  0.1438139E+00
         13   -1    0    0    0    0  0.00000000000E+00  0.00000000000E+00  0.99999944182E+02  0.10000000000E+03  0.10566000000E+00 0. -1.
         22   -1    0    0    0    0 -0.00000000000E+00 -0.00000000000E+00 -0.10018652906E+02  0.10018652906E+02  0.00000000000E+00 0. -1.
         13    1    1    2    0    0  0.32589638076E+01 -0.11281159957E+02  0.20342974247E+02  0.23489001263E+02  0.10566000000E+00 0.  1.
        996    1    1    2    0    0 -0.32589638076E+01  0.11281159957E+02  0.69638317029E+02  0.86529651644E+02  0.50000000000E+02 0.  0.
<mgrwt>
<rscale>  0 0.51360349E+02</rscale>
<asrwt>0</asrwt>
<pdfrwt beam="1">  1       13 0.10000000E+01 0.51360349E+02</pdfrwt>
<pdfrwt beam="2">  1       22 0.10018678E+00 0.51360349E+02</pdfrwt>
<totfact> 0.14038147E+00</totfact>
</mgrwt>
</event>
<event>
 4    1  0.2505250E+000  0.5403225E+02  0.7957747E-01  0.1424732E+00
         13   -1    0    0    0    0  0.00000000000E+00  0.00000000000E+00  0.99999944183E+02  0.10000000000E+03  0.10566000000E+00 0.  1.
         22   -1    0    0    0    0 -0.00000000000E+00 -0.00000000000E+00 -0.50515282023E+02  0.50515282023E+02  0.00000000000E+00 0. -1.
         13    1    1    2    0    0  0.92459364709E+01 -0.18275576424E+02 -0.40597304114E+02  0.45471268953E+02  0.10566000000E+00 0. -1.
        996    1    1    2    0    0 -0.92459364709E+01  0.18275576424E+02  0.90081966273E+02  0.10504401307E+03  0.50000000000E+02 0.  0.
<mgrwt>
<rscale>  0 0.54032250E+02</rscale>
<asrwt>0</asrwt>
<pdfrwt beam="1">  1       13 0.10000000E+01 0.54032250E+02</pdfrwt>
<pdfrwt beam="2">  1       22 0.50515296E+00 0.54032250E+02</pdfrwt>
<totfact> 0.71637514E-02</totfact>
</mgrwt>
</event>
<event>
 4    1  0.2505250E+000  0.5390073E+02  0.7957747E-01  0.1425370E+00
         13   -1    0    0    0    0  0.00000000000E+00  0.00000000000E+00  0.99999944176E+02  0.99999999996E+02  0.10566000000E+00 0.  1.
         22   -1    0    0    0    0 -0.00000000000E+00 -0.00000000000E+00 -0.16054215384E+02  0.16054215384E+02  0.00000000000E+00 0. -1.
         13    1    1    2    0    0  0.12791279317E+02 -0.15545800806E+02  0.54902071603E+01  0.20867253963E+02  0.10566000000E+00 0. -1.
        996    1    1    2    0    0 -0.12791279317E+02  0.15545800806E+02  0.78455521632E+02  0.95186961417E+02  0.50000000000E+02 0.  0.
<mgrwt>
<rscale>  0 0.53900731E+02</rscale>
<asrwt>0</asrwt>
<pdfrwt beam="1">  1       13 0.10000000E+01 0.53900731E+02</pdfrwt>
<pdfrwt beam="2">  1       22 0.16054239E+00 0.53900731E+02</pdfrwt>
<totfact> 0.67384156E-01</totfact>
</mgrwt>
</event>
<event>
 4    1  0.2505250E+000  0.5894888E+02  0.7957747E-01  0.1402296E+00
         13   -1    0    0    0    0  0.00000000000E+00  0.00000000000E+00  0.99999944175E+02  0.99999999995E+02  0.10566000000E+00 0.  1.
         22   -1    0    0    0    0 -0.00000000000E+00 -0.00000000000E+00 -0.24151538192E+02  0.24151538192E+02  0.00000000000E+00 0. -1.
         13    1    1    2    0    0 -0.30508655789E+02  0.66477582604E+01  0.44144165843E+01  0.31535202644E+02  0.10566000000E+00 0. -1.
        996    1    1    2    0    0  0.30508655789E+02 -0.66477582604E+01  0.71433989399E+02  0.92616335543E+02  0.50000000000E+02 0.  0.
<mgrwt>
<rscale>  0 0.58948883E+02</rscale>
<asrwt>0</asrwt>
<pdfrwt beam="1">  1       13 0.10000000E+01 0.58948883E+02</pdfrwt>
<pdfrwt beam="2">  1       22 0.24151559E+00 0.58948883E+02</pdfrwt>
<totfact> 0.31879255E-01</totfact>
</mgrwt>
</event>
<event>
 4    1  0.2505250E+000  0.5324980E+02  0.7957747E-01  0.1428562E+00
         13   -1    0    0    0    0  0.00000000000E+00  0.00000000000E+00  0.99999944179E+02  0.99999999999E+02  0.10566000000E+00 0.  1.
         22   -1    0    0    0    0 -0.00000000000E+00 -0.00000000000E+00 -0.15929527565E+02  0.15929527565E+02  0.00000000000E+00 0.  1.
         13    1    1    2    0    0 -0.16298847300E+02  0.83599238205E+01  0.24591360969E+01  0.18482404172E+02  0.10566000000E+00 0. -1.
        996    1    1    2    0    0  0.16298847300E+02 -0.83599238205E+01  0.81611280517E+02  0.97447123392E+02  0.50000000000E+02 0.  0.
<mgrwt>
<rscale>  0 0.53249796E+02</rscale>
<asrwt>0</asrwt>
<pdfrwt beam="1">  1       13 0.10000000E+01 0.53249796E+02</pdfrwt>
<pdfrwt beam="2">  1       22 0.15929551E+00 0.53249796E+02</pdfrwt>
<totfact> 0.68203316E-01</totfact>
</mgrwt>
</event>
<event>
 4    1  0.2505250E+000  0.5102414E+02  0.7957747E-01  0.1439895E+00
         13   -1    0    0    0    0  0.00000000000E+00  0.00000000000E+00  0.99999944178E+02  0.99999999998E+02  0.10566000000E+00 0. -1.
         22   -1    0    0    0    0 -0.00000000000E+00 -0.00000000000E+00 -0.93634414184E+01  0.93634414184E+01  0.00000000000E+00 0. -1.
         13    1    1    2    0    0 -0.59526297308E+01  0.82480040992E+01  0.14654207748E+02  0.17838731488E+02  0.10566000000E+00 0.  1.
        996    1    1    2    0    0  0.59526297308E+01 -0.82480040992E+01  0.75982295011E+02  0.91524709928E+02  0.50000000000E+02 0.  0.
<mgrwt>
<rscale>  0 0.51024145E+02</rscale>
<asrwt>0</asrwt>
<pdfrwt beam="1">  1       13 0.10000000E+01 0.51024145E+02</pdfrwt>
<pdfrwt beam="2">  1       22 0.93634667E-01 0.51024145E+02</pdfrwt>
<totfact> 0.15457193E+00</totfact>
</mgrwt>
</event>
<event>
 4    1  0.2505250E+000  0.6648291E+02  0.7957747E-01  0.1372479E+00
         13   -1    0    0    0    0  0.00000000000E+00  0.00000000000E+00  0.99999944174E+02  0.99999999994E+02  0.10566000000E+00 0. -1.
         22   -1    0    0    0    0 -0.00000000000E+00 -0.00000000000E+00 -0.32734883295E+02  0.32734883295E+02  0.00000000000E+00 0.  1.
         13    1    1    2    0    0  0.43767818675E+02  0.20870584012E+01  0.98954050928E+01  0.44921130555E+02  0.10566000000E+00 0.  1.
        996    1    1    2    0    0 -0.43767818675E+02 -0.20870584012E+01  0.57369655787E+02  0.87813752735E+02  0.50000000000E+02 0.  0.
<mgrwt>
<rscale>  0 0.66482913E+02</rscale>
<asrwt>0</asrwt>
<pdfrwt beam="1">  1       13 0.10000000E+01 0.66482913E+02</pdfrwt>
<pdfrwt beam="2">  1       22 0.32734902E+00 0.66482913E+02</pdfrwt>
<totfact> 0.17932156E-01</totfact>
</mgrwt>
</event>
<event>
 4    1  0.2505250E+000  0.5114149E+02  0.7957747E-01  0.1439280E+00
         13   -1    0    0    0    0  0.00000000000E+00  0.00000000000E+00  0.99999944177E+02  0.99999999998E+02  0.10566000000E+00 0.  1.
         22   -1    0    0    0    0 -0.00000000000E+00 -0.00000000000E+00 -0.15700094899E+02  0.15700094899E+02  0.00000000000E+00 0. -1.
         13    1    1    2    0    0 -0.45784968524E+01 -0.97205683136E+01 -0.57158039972E+01  0.12171017260E+02  0.10566000000E+00 0. -1.
        996    1    1    2    0    0  0.45784968524E+01  0.97205683136E+01  0.90015653276E+02  0.10352907764E+03  0.50000000000E+02 0.  0.
<mgrwt>
<rscale>  0 0.51141491E+02</rscale>
<asrwt>0</asrwt>
<pdfrwt beam="1">  1       13 0.10000000E+01 0.51141491E+02</pdfrwt>
<pdfrwt beam="2">  1       22 0.15700118E+00 0.51141491E+02</pdfrwt>
<totfact> 0.69615164E-01</totfact>
</mgrwt>
</event>
<event>
 4    1  0.2505250E+000  0.5174319E+02  0.7957747E-01  0.1436160E+00
         13   -1    0    0    0    0  0.00000000000E+00  0.00000000000E+00  0.99999944178E+02  0.99999999998E+02  0.10566000000E+00 0.  1.
         22   -1    0    0    0    0 -0.00000000000E+00 -0.00000000000E+00 -0.10602271815E+02  0.10602271815E+02  0.00000000000E+00 0.  1.
         13    1    1    2    0    0  0.75346891218E+01  0.10981186690E+02  0.16414913845E+02  0.21138083212E+02  0.10566000000E+00 0. -1.
        996    1    1    2    0    0 -0.75346891218E+01 -0.10981186690E+02  0.72982758518E+02  0.89464188602E+02  0.50000000000E+02 0.  0.
<mgrwt>
<rscale>  0 0.51743193E+02</rscale>
<asrwt>0</asrwt>
<pdfrwt beam="1">  1       13 0.10000000E+01 0.51743193E+02</pdfrwt>
<pdfrwt beam="2">  1       22 0.10602297E+00 0.51743193E+02</pdfrwt>
<totfact> 0.12936032E+00</totfact>
</mgrwt>
</event>
<event>
 4    1  0.2505250E+000  0.6654454E+02  0.7957747E-01  0.1372254E+00
         13   -1    0    0    0    0  0.00000000000E+00  0.00000000000E+00  0.99999944179E+02  0.99999999999E+02  0.10566000000E+00 0. -1.
         22   -1    0    0    0    0 -0.00000000000E+00 -0.00000000000E+00 -0.32087214139E+02  0.32087214139E+02  0.00000000000E+00 0.  1.
         13    1    1    2    0    0  0.37677928001E+02  0.22551035018E+02  0.12954813938E+02  0.45782243360E+02  0.10566000000E+00 0.  1.
        996    1    1    2    0    0 -0.37677928001E+02 -0.22551035018E+02  0.54957916102E+02  0.86304970779E+02  0.50000000000E+02 0.  0.
<mgrwt>
<rscale>  0 0.66544537E+02</rscale>
<asrwt>0</asrwt>
<pdfrwt beam="1">  1       13 0.10000000E+01 0.66544537E+02</pdfrwt>
<pdfrwt beam="2">  1       22 0.32087233E+00 0.66544537E+02</pdfrwt>
<totfact> 0.18591102E-01</totfact>
</mgrwt>
</event>
<event>
 4    1  0.2505250E+000  0.5274388E+02  0.7957747E-01  0.1431080E+00
         13   -1    0    0    0    0  0.00000000000E+00  0.00000000000E+00  0.99999944185E+02  0.10000000001E+03  0.10566000000E+00 0.  1.
         22   -1    0    0    0    0 -0.00000000000E+00 -0.00000000000E+00 -0.12159778510E+02  0.12159778510E+02  0.00000000000E+00 0. -1.
         13    1    1    2    0    0 -0.15497035376E+02 -0.64621182227E+01  0.17644198834E+02  0.24356641679E+02  0.10566000000E+00 0. -1.
        996    1    1    2    0    0  0.15497035376E+02  0.64621182227E+01  0.70195966842E+02  0.87803136836E+02  0.50000000000E+02 0.  0.
<mgrwt>
<rscale>  0 0.52743882E+02</rscale>
<asrwt>0</asrwt>
<pdfrwt beam="1">  1       13 0.10000000E+01 0.52743882E+02</pdfrwt>
<pdfrwt beam="2">  1       22 0.12159803E+00 0.52743882E+02</pdfrwt>
<totfact> 0.10550610E+00</totfact>
</mgrwt>
</event>
<event>
 4    1  0.2505250E+000  0.5125306E+02  0.7957747E-01  0.1438698E+00
         13   -1    0    0    0    0  0.00000000000E+00  0.00000000000E+00  0.99999944180E+02  0.10000000000E+03  0.10566000000E+00 0. -1.
         22   -1    0    0    0    0 -0.00000000000E+00 -0.00000000000E+00 -0.99444717914E+01  0.99444717914E+01  0.00000000000E+00 0. -1.
         13    1    1    2    0    0  0.54107697136E+01 -0.98792568565E+01  0.22341960296E+02  0.25021001156E+02  0.10566000000E+00 0.  1.
        996    1    1    2    0    0 -0.54107697136E+01  0.98792568565E+01  0.67713512092E+02  0.84923470636E+02  0.50000000000E+02 0.  0.
<mgrwt>
<rscale>  0 0.51253060E+02</rscale>
<asrwt>0</asrwt>
<pdfrwt beam="1">  1       13 0.10000000E+01 0.51253060E+02</pdfrwt>
<pdfrwt beam="2">  1       22 0.99444969E-01 0.51253060E+02</pdfrwt>
<totfact> 0.14186271E+00</totfact>
</mgrwt>
</event>
<event>
 4    1  0.2505250E+000  0.5162610E+02  0.7957747E-01  0.1436763E+00
         13   -1    0    0    0    0  0.00000000000E+00  0.00000000000E+00  0.99999944186E+02  0.10000000001E+03  0.10566000000E+00 0.  1.
         22   -1    0    0    0    0 -0.00000000000E+00 -0.00000000000E+00 -0.14126517197E+02  0.14126517197E+02  0.00000000000E+00 0.  1.
         13    1    1    2    0    0 -0.44997160597E+01 -0.12041856281E+02 -0.11868253603E+01  0.12910207813E+02  0.10566000000E+00 0. -1.
        996    1    1    2    0    0  0.44997160597E+01  0.12041856281E+02  0.87060252349E+02  0.10121630939E+03  0.50000000000E+02 0.  0.
<mgrwt>
<rscale>  0 0.51626096E+02</rscale>
<asrwt>0</asrwt>
<pdfrwt beam="1">  1       13 0.10000000E+01 0.51626096E+02</pdfrwt>
<pdfrwt beam="2">  1       22 0.14126541E+00 0.51626096E+02</pdfrwt>
<totfact> 0.83039605E-01</totfact>
</mgrwt>
</event>
<event>
 4    1  0.2505250E+000  0.5135178E+02  0.7957747E-01  0.1438184E+00
         13   -1    0    0    0    0  0.00000000000E+00  0.00000000000E+00  0.99999944179E+02  0.99999999999E+02  0.10566000000E+00 0.  1.
         22   -1    0    0    0    0 -0.00000000000E+00 -0.00000000000E+00 -0.25881907135E+02  0.25881907135E+02  0.00000000000E+00 0. -1.
         13    1    1    2    0    0  0.11373962224E+02 -0.27637451392E+01 -0.17382564745E+02  0.20956383873E+02  0.10566000000E+00 0. -1.
        996    1    1    2    0    0 -0.11373962224E+02  0.27637451392E+01  0.91500601789E+02  0.10492552326E+03  0.50000000000E+02 0.  0.
<mgrwt>
<rscale>  0 0.51351780E+02</rscale>
<asrwt>0</asrwt>
<pdfrwt beam="1">  1       13 0.10000000E+01 0.51351780E+02</pdfrwt>
<pdfrwt beam="2">  1       22 0.25881928E+00 0.51351780E+02</pdfrwt>
<totfact> 0.27507886E-01</totfact>
</mgrwt>
</event>
<event>
 4    1  0.2505250E+000  0.5281308E+02  0.7957747E-01  0.1430733E+00
         13   -1    0    0    0    0  0.00000000000E+00  0.00000000000E+00  0.99999944177E+02  0.99999999997E+02  0.10566000000E+00 0.  1.
         22   -1    0    0    0    0 -0.00000000000E+00 -0.00000000000E+00 -0.31138070889E+02  0.31138070889E+02  0.00000000000E+00 0. -1.
         13    1    1    2    0    0  0.16678641365E+02 -0.33233207826E+01 -0.20928554466E+02  0.26967333848E+02  0.10566000000E+00 0. -1.
        996    1    1    2    0    0 -0.16678641365E+02  0.33233207826E+01  0.89790427754E+02  0.10417073704E+03  0.50000000000E+02 0.  0.
<mgrwt>
<rscale>  0 0.52813081E+02</rscale>
<asrwt>0</asrwt>
<pdfrwt beam="1">  1       13 0.10000000E+01 0.52813081E+02</pdfrwt>
<pdfrwt beam="2">  1       22 0.31138090E+00 0.52813081E+02</pdfrwt>
<totfact> 0.19348390E-01</totfact>
</mgrwt>
</event>
<event>
 4    1  0.2505250E+000  0.6938568E+02  0.7957747E-01  0.1362195E+00
         13   -1    0    0    0    0  0.00000000000E+00  0.00000000000E+00  0.99999944184E+02  0.10000000000E+03  0.10566000000E+00 0.  1.
         22   -1    0    0    0    0 -0.00000000000E+00 -0.00000000000E+00 -0.35329913111E+02  0.35329913111E+02  0.00000000000E+00 0.  1.
         13    1    1    2    0    0  0.20365656286E+02  0.43584546144E+02  0.16485145195E+02  0.50854142355E+02  0.10566000000E+00 0. -1.
        996    1    1    2    0    0 -0.20365656286E+02 -0.43584546144E+02  0.48184885878E+02  0.84475770761E+02  0.50000000000E+02 0.  0.
<mgrwt>
<rscale>  0 0.69385680E+02</rscale>
<asrwt>0</asrwt>
<pdfrwt beam="1">  1       13 0.10000000E+01 0.69385680E+02</pdfrwt>
<pdfrwt beam="2">  1       22 0.35329931E+00 0.69385680E+02</pdfrwt>
<totfact> 0.15696212E-01</totfact>
</mgrwt>
</event>
<event>
 4    1  0.2505250E+000  0.5627266E+02  0.7957747E-01  0.1414174E+00
         13   -1    0    0    0    0  0.00000000000E+00  0.00000000000E+00  0.99999944176E+02  0.99999999996E+02  0.10566000000E+00 0. -1.
         22   -1    0    0    0    0 -0.00000000000E+00 -0.00000000000E+00 -0.36414681292E+02  0.36414681292E+02  0.00000000000E+00 0.  1.
         13    1    1    2    0    0  0.21633145589E+02 -0.14093240495E+02 -0.22044497922E+02  0.33949719709E+02  0.10566000000E+00 0.  1.
        996    1    1    2    0    0 -0.21633145589E+02  0.14093240495E+02  0.85629760805E+02  0.10246496158E+03  0.50000000000E+02 0.  0.
<mgrwt>
<rscale>  0 0.56272661E+02</rscale>
<asrwt>0</asrwt>
<pdfrwt beam="1">  1       13 0.10000000E+01 0.56272661E+02</pdfrwt>
<pdfrwt beam="2">  1       22 0.36414699E+00 0.56272661E+02</pdfrwt>
<totfact> 0.14720847E-01</totfact>
</mgrwt>
</event>
<event>
 4    1  0.2505250E+000  0.5263810E+02  0.7957747E-01  0.1431610E+00
         13   -1    0    0    0    0  0.00000000000E+00  0.00000000000E+00  0.99999944178E+02  0.99999999999E+02  0.10566000000E+00 0.  1.
         22   -1    0    0    0    0 -0.00000000000E+00 -0.00000000000E+00 -0.15154693422E+02  0.15154693422E+02  0.00000000000E+00 0. -1.
         13    1    1    2    0    0  0.10223660007E+02 -0.12893667643E+02  0.14271086383E+01  0.16517193839E+02  0.10566000000E+00 0. -1.
        996    1    1    2    0    0 -0.10223660007E+02  0.12893667643E+02  0.83418142118E+02  0.98637499581E+02  0.50000000000E+02 0.  0.
<mgrwt>
<rscale>  0 0.52638103E+02</rscale>
<asrwt>0</asrwt>
<pdfrwt beam="1">  1       13 0.10000000E+01 0.52638103E+02</pdfrwt>
<pdfrwt beam="2">  1       22 0.15154717E+00 0.52638103E+02</pdfrwt>
<totfact> 0.74110059E-01</totfact>
</mgrwt>
</event>
<event>
 4    1  0.2505250E+000  0.5101117E+02  0.7957747E-01  0.1439963E+00
         13   -1    0    0    0    0  0.00000000000E+00  0.00000000000E+00  0.99999944178E+02  0.99999999999E+02  0.10566000000E+00 0.  1.
         22   -1    0    0    0    0 -0.00000000000E+00 -0.00000000000E+00 -0.10237043082E+02  0.10237043082E+02  0.00000000000E+00 0.  1.
         13    1    1    2    0    0 -0.83237142653E+01 -0.57319879305E+01  0.49226289780E+01  0.11242034731E+02  0.10566000000E+00 0. -1.
        996    1    1    2    0    0  0.83237142653E+01  0.57319879305E+01  0.84840272119E+02  0.98995008349E+02  0.50000000000E+02 0.  0.
<mgrwt>
<rscale>  0 0.51011174E+02</rscale>
<asrwt>0</asrwt>
<pdfrwt beam="1">  1       13 0.10000000E+01 0.51011174E+02</pdfrwt>
<pdfrwt beam="2">  1       22 0.10237068E+00 0.51011174E+02</pdfrwt>
<totfact> 0.13593640E+00</totfact>
</mgrwt>
</event>
<event>
 4    1  0.2505250E+000  0.5282232E+02  0.7957747E-01  0.1430687E+00
         13   -1    0    0    0    0  0.00000000000E+00  0.00000000000E+00  0.99999944175E+02  0.99999999996E+02  0.10566000000E+00 0. -1.
         22   -1    0    0    0    0 -0.00000000000E+00 -0.00000000000E+00 -0.26032311331E+02  0.26032311331E+02  0.00000000000E+00 0.  1.
         13    1    1    2    0    0  0.16841271314E+02 -0.25629313980E+01 -0.14912493357E+02  0.22640465079E+02  0.10566000000E+00 0.  1.
        996    1    1    2    0    0 -0.16841271314E+02  0.25629313980E+01  0.88880126202E+02  0.10339184625E+03  0.50000000000E+02 0.  0.
<mgrwt>
<rscale>  0 0.52822316E+02</rscale>
<asrwt>0</asrwt>
<pdfrwt beam="1">  1       13 0.10000000E+01 0.52822316E+02</pdfrwt>
<pdfrwt beam="2">  1       22 0.26032332E+00 0.52822316E+02</pdfrwt>
<totfact> 0.27257119E-01</totfact>
</mgrwt>
</event>
<event>
 4    1  0.2505250E+000  0.5104113E+02  0.7957747E-01  0.1439806E+00
         13   -1    0    0    0    0  0.00000000000E+00  0.00000000000E+00  0.99999944176E+02  0.99999999996E+02  0.10566000000E+00 0. -1.
         22   -1    0    0    0    0 -0.00000000000E+00 -0.00000000000E+00 -0.95805486887E+01  0.95805486887E+01  0.00000000000E+00 0. -1.
         13    1    1    2    0    0  0.10064902670E+02  0.19733773591E+01  0.99596356519E+01  0.14296922407E+02  0.10566000000E+00 0.  1.
        996    1    1    2    0    0 -0.10064902670E+02 -0.19733773591E+01  0.80459759835E+02  0.95283626278E+02  0.50000000000E+02 0.  0.
<mgrwt>
<rscale>  0 0.51041125E+02</rscale>
<asrwt>0</asrwt>
<pdfrwt beam="1">  1       13 0.10000000E+01 0.51041125E+02</pdfrwt>
<pdfrwt beam="2">  1       22 0.95805739E-01 0.51041125E+02</pdfrwt>
<totfact> 0.14960219E+00</totfact>
</mgrwt>
</event>
<event>
 4    1  0.2505250E+000  0.5113188E+02  0.7957747E-01  0.1439330E+00
         13   -1    0    0    0    0  0.00000000000E+00  0.00000000000E+00  0.99999944174E+02  0.99999999995E+02  0.10566000000E+00 0. -1.
         22   -1    0    0    0    0 -0.00000000000E+00 -0.00000000000E+00 -0.13348822299E+02  0.13348822299E+02  0.00000000000E+00 0. -1.
         13    1    1    2    0    0  0.10332486926E+02 -0.27764157097E+01 -0.21174065975E+01  0.10907031907E+02  0.10566000000E+00 0.  1.
        996    1    1    2    0    0 -0.10332486926E+02  0.27764157097E+01  0.88768528473E+02  0.10244179039E+03  0.50000000000E+02 0.  0.
<mgrwt>
<rscale>  0 0.51131876E+02</rscale>
<asrwt>0</asrwt>
<pdfrwt beam="1">  1       13 0.10000000E+01 0.51131876E+02</pdfrwt>
<pdfrwt beam="2">  1       22 0.13348846E+00 0.51131876E+02</pdfrwt>
<totfact> 0.90858760E-01</totfact>
</mgrwt>
</event>
<event>
 4    1  0.2505250E+000  0.5246741E+02  0.7957747E-01  0.1432470E+00
         13   -1    0    0    0    0  0.00000000000E+00  0.00000000000E+00  0.99999944178E+02  0.99999999998E+02  0.10566000000E+00 0.  1.
         22   -1    0    0    0    0 -0.00000000000E+00 -0.00000000000E+00 -0.16057355900E+02  0.16057355900E+02  0.00000000000E+00 0. -1.
         13    1    1    2    0    0 -0.15896339363E+02 -0.36831455117E+00 -0.13083047023E+01  0.15954688527E+02  0.10566000000E+00 0. -1.
        996    1    1    2    0    0  0.15896339363E+02  0.36831455117E+00  0.85250892980E+02  0.10010266737E+03  0.50000000000E+02 0.  0.
<mgrwt>
<rscale>  0 0.52467411E+02</rscale>
<asrwt>0</asrwt>
<pdfrwt beam="1">  1       13 0.10000000E+01 0.52467411E+02</pdfrwt>
<pdfrwt beam="2">  1       22 0.16057379E+00 0.52467411E+02</pdfrwt>
<totfact> 0.67174689E-01</totfact>
</mgrwt>
</event>
<event>
 4    1  0.2505250E+000  0.5117028E+02  0.7957747E-01  0.1439130E+00
         13   -1    0    0    0    0  0.00000000000E+00  0.00000000000E+00  0.99999944176E+02  0.99999999996E+02  0.10566000000E+00 0. -1.
         22   -1    0    0    0    0 -0.00000000000E+00 -0.00000000000E+00 -0.17318710053E+02  0.17318710053E+02  0.00000000000E+00 0.  1.
         13    1    1    2    0    0 -0.79698376864E+01  0.74080757438E+01 -0.77876128198E+01  0.13381179935E+02  0.10566000000E+00 0.  1.
        996    1    1    2    0    0  0.79698376864E+01 -0.74080757438E+01  0.90468846943E+02  0.10393753011E+03  0.50000000000E+02 0.  0.
<mgrwt>
<rscale>  0 0.51170283E+02</rscale>
<asrwt>0</asrwt>
<pdfrwt beam="1">  1       13 0.10000000E+01 0.51170283E+02</pdfrwt>
<pdfrwt beam="2">  1       22 0.17318733E+00 0.51170283E+02</pdfrwt>
<totfact> 0.58749862E-01</totfact>
</mgrwt>
</event>
<event>
 4    1  0.2505250E+000  0.5139498E+02  0.7957747E-01  0.1437959E+00
         13   -1    0    0    0    0  0.00000000000E+00  0.00000000000E+00  0.99999944178E+02  0.99999999998E+02  0.10566000000E+00 0. -1.
         22   -1    0    0    0    0 -0.00000000000E+00 -0.00000000000E+00 -0.14636298900E+02  0.14636298900E+02  0.00000000000E+00 0.  1.
         13    1    1    2    0    0  0.10161379595E+02  0.61798144222E+01 -0.31320379118E+01  0.12298966098E+02  0.10566000000E+00 0.  1.
        996    1    1    2    0    0 -0.10161379595E+02 -0.61798144222E+01  0.88495683190E+02  0.10233733280E+03  0.50000000000E+02 0.  0.
<mgrwt>
<rscale>  0 0.51394978E+02</rscale>
<asrwt>0</asrwt>
<pdfrwt beam="1">  1       13 0.10000000E+01 0.51394978E+02</pdfrwt>
<pdfrwt beam="2">  1       22 0.14636323E+00 0.51394978E+02</pdfrwt>
<totfact> 0.78319347E-01</totfact>
</mgrwt>
</event>
<event>
 4    1  0.2505250E+000  0.5213749E+02  0.7957747E-01  0.1434142E+00
         13   -1    0    0    0    0  0.00000000000E+00  0.00000000000E+00  0.99999944181E+02  0.10000000000E+03  0.10566000000E+00 0.  1.
         22   -1    0    0    0    0 -0.00000000000E+00 -0.00000000000E+00 -0.11198545616E+02  0.11198545616E+02  0.00000000000E+00 0.  1.
         13    1    1    2    0    0  0.14627809698E+02 -0.20843965512E+01  0.20600111550E+02  0.25351396124E+02  0.10566000000E+00 0. -1.
        996    1    1    2    0    0 -0.14627809698E+02  0.20843965512E+01  0.68201287015E+02  0.85847149493E+02  0.50000000000E+02 0.  0.
<mgrwt>
<rscale>  0 0.52137487E+02</rscale>
<asrwt>0</asrwt>
<pdfrwt beam="1">  1       13 0.10000000E+01 0.52137487E+02</pdfrwt>
<pdfrwt beam="2">  1       22 0.11198570E+00 0.52137487E+02</pdfrwt>
<totfact> 0.11938196E+00</totfact>
</mgrwt>
</event>
<event>
 4    1  0.2505250E+000  0.5148615E+02  0.7957747E-01  0.1437487E+00
         13   -1    0    0    0    0  0.00000000000E+00  0.00000000000E+00  0.99999944173E+02  0.99999999993E+02  0.10566000000E+00 0.  1.
         22   -1    0    0    0    0 -0.00000000000E+00 -0.00000000000E+00 -0.10233606449E+02  0.10233606449E+02  0.00000000000E+00 0.  1.
         13    1    1    2    0    0  0.11975462470E+02  0.27224917435E+01  0.13924986533E+02  0.18567177400E+02  0.10566000000E+00 0. -1.
        996    1    1    2    0    0 -0.11975462470E+02 -0.27224917435E+01  0.75841351191E+02  0.91666429041E+02  0.50000000000E+02 0.  0.
<mgrwt>
<rscale>  0 0.51486150E+02</rscale>
<asrwt>0</asrwt>
<pdfrwt beam="1">  1       13 0.10000000E+01 0.51486150E+02</pdfrwt>
<pdfrwt beam="2">  1       22 0.10233632E+00 0.51486150E+02</pdfrwt>
<totfact> 0.13615878E+00</totfact>
</mgrwt>
</event>
<event>
 4    1  0.2505250E+000  0.5417423E+02  0.7957747E-01  0.1424045E+00
         13   -1    0    0    0    0  0.00000000000E+00  0.00000000000E+00  0.99999944177E+02  0.99999999997E+02  0.10566000000E+00 0.  1.
         22   -1    0    0    0    0 -0.00000000000E+00 -0.00000000000E+00 -0.77267070710E+02  0.77267070710E+02  0.00000000000E+00 0. -1.
         13    1    1    2    0    0 -0.12064768204E+02  0.17008472149E+02 -0.68256714935E+02  0.71371121992E+02  0.10566000000E+00 0. -1.
        996    1    1    2    0    0  0.12064768204E+02 -0.17008472149E+02  0.90989588402E+02  0.10589594872E+03  0.50000000000E+02 0.  0.
<mgrwt>
<rscale>  0 0.54174226E+02</rscale>
<asrwt>0</asrwt>
<pdfrwt beam="1">  1       13 0.10000000E+01 0.54174226E+02</pdfrwt>
<pdfrwt beam="2">  1       22 0.77267077E+00 0.54174226E+02</pdfrwt>
<totfact> 0.39720932E-02</totfact>
</mgrwt>
</event>
<event>
 4    1  0.2505250E+000  0.5192281E+02  0.7957747E-01  0.1435238E+00
         13   -1    0    0    0    0  0.00000000000E+00  0.00000000000E+00  0.99999944178E+02  0.99999999998E+02  0.10566000000E+00 0.  1.
         22   -1    0    0    0    0 -0.00000000000E+00 -0.00000000000E+00 -0.10875734256E+02  0.10875734256E+02  0.00000000000E+00 0.  1.
         13    1    1    2    0    0  0.13986324585E+02 -0.60087888435E+00  0.20418247949E+02  0.24756703015E+02  0.10566000000E+00 0. -1.
        996    1    1    2    0    0 -0.13986324585E+02  0.60087888435E+00  0.68705961972E+02  0.86119031238E+02  0.50000000000E+02 0.  0.
<mgrwt>
<rscale>  0 0.51922811E+02</rscale>
<asrwt>0</asrwt>
<pdfrwt beam="1">  1       13 0.10000000E+01 0.51922811E+02</pdfrwt>
<pdfrwt beam="2">  1       22 0.10875759E+00 0.51922811E+02</pdfrwt>
<totfact> 0.12463627E+00</totfact>
</mgrwt>
</event>
<event>
 4    1  0.2505250E+000  0.6071124E+02  0.7957747E-01  0.1394871E+00
         13   -1    0    0    0    0  0.00000000000E+00  0.00000000000E+00  0.99999944173E+02  0.99999999994E+02  0.10566000000E+00 0.  1.
         22   -1    0    0    0    0 -0.00000000000E+00 -0.00000000000E+00 -0.25678029017E+02  0.25678029017E+02  0.00000000000E+00 0.  1.
         13    1    1    2    0    0  0.22464007746E+02 -0.26100248612E+02  0.72154569680E+01  0.35184209596E+02  0.10566000000E+00 0. -1.
        996    1    1    2    0    0 -0.22464007746E+02  0.26100248612E+02  0.67106458188E+02  0.90493819414E+02  0.50000000000E+02 0.  0.
<mgrwt>
<rscale>  0 0.60711240E+02</rscale>
<asrwt>0</asrwt>
<pdfrwt beam="1">  1       13 0.10000000E+01 0.60711240E+02</pdfrwt>
<pdfrwt beam="2">  1       22 0.25678050E+00 0.60711240E+02</pdfrwt>
<totfact> 0.28313753E-01</totfact>
</mgrwt>
</event>
<event>
 4    1  0.2505250E+000  0.5232965E+02  0.7957747E-01  0.1433166E+00
         13   -1    0    0    0    0  0.00000000000E+00  0.00000000000E+00  0.99999944176E+02  0.99999999997E+02  0.10566000000E+00 0.  1.
         22   -1    0    0    0    0 -0.00000000000E+00 -0.00000000000E+00 -0.66970375136E+02  0.66970375136E+02  0.00000000000E+00 0. -1.
         13    1    1    2    0    0 -0.34788257766E+01 -0.15042942924E+02 -0.59063372840E+02  0.61048223036E+02  0.10566000000E+00 0. -1.
        996    1    1    2    0    0  0.34788257766E+01  0.15042942924E+02  0.92092941880E+02  0.10592215210E+03  0.50000000000E+02 0.  0.
<mgrwt>
<rscale>  0 0.52329651E+02</rscale>
<asrwt>0</asrwt>
<pdfrwt beam="1">  1       13 0.10000000E+01 0.52329651E+02</pdfrwt>
<pdfrwt beam="2">  1       22 0.66970384E+00 0.52329651E+02</pdfrwt>
<totfact> 0.86333360E-02</totfact>
</mgrwt>
</event>
<event>
 4    1  0.2505250E+000  0.6097357E+02  0.7957747E-01  0.1393791E+00
         13   -1    0    0    0    0  0.00000000000E+00  0.00000000000E+00  0.99999944185E+02  0.10000000001E+03  0.10566000000E+00 0.  1.
         22   -1    0    0    0    0 -0.00000000000E+00 -0.00000000000E+00 -0.23173657896E+02  0.23173657896E+02  0.00000000000E+00 0. -1.
         13    1    1    2    0    0 -0.94656362111E+01 -0.33588366247E+02  0.22602917141E+02  0.41577393417E+02  0.10566000000E+00 0. -1.
        996    1    1    2    0    0  0.94656362111E+01  0.33588366247E+02  0.54223369148E+02  0.81596264484E+02  0.50000000000E+02 0.  0.
<mgrwt>
<rscale>  0 0.60973573E+02</rscale>
<asrwt>0</asrwt>
<pdfrwt beam="1">  1       13 0.10000000E+01 0.60973573E+02</pdfrwt>
<pdfrwt beam="2">  1       22 0.23173679E+00 0.60973573E+02</pdfrwt>
<totfact> 0.34670309E-01</totfact>
</mgrwt>
</event>
<event>
 4    1  0.2505250E+000  0.5568750E+02  0.7957747E-01  0.1416875E+00
         13   -1    0    0    0    0  0.00000000000E+00  0.00000000000E+00  0.99999944166E+02  0.99999999987E+02  0.10566000000E+00 0.  1.
         22   -1    0    0    0    0 -0.00000000000E+00 -0.00000000000E+00 -0.16887711257E+02  0.16887711257E+02  0.00000000000E+00 0.  1.
         13    1    1    2    0    0 -0.19624102812E+02 -0.14696678373E+02  0.14365304387E+02  0.28416032456E+02  0.10566000000E+00 0. -1.
        996    1    1    2    0    0  0.19624102812E+02  0.14696678373E+02  0.68746928522E+02  0.88471678788E+02  0.50000000000E+02 0.  0.
<mgrwt>
<rscale>  0 0.55687501E+02</rscale>
<asrwt>0</asrwt>
<pdfrwt beam="1">  1       13 0.10000000E+01 0.55687501E+02</pdfrwt>
<pdfrwt beam="2">  1       22 0.16887734E+00 0.55687501E+02</pdfrwt>
<totfact> 0.61933626E-01</totfact>
</mgrwt>
</event>
<event>
 4    1  0.2505250E+000  0.5160214E+02  0.7957747E-01  0.1436887E+00
         13   -1    0    0    0    0  0.00000000000E+00  0.00000000000E+00  0.99999944182E+02  0.10000000000E+03  0.10566000000E+00 0. -1.
         22   -1    0    0    0    0 -0.00000000000E+00 -0.00000000000E+00 -0.21749134860E+02  0.21749134860E+02  0.00000000000E+00 0. -1.
         13    1    1    2    0    0  0.10747149782E+02 -0.68760435768E+01 -0.12174904942E+02  0.17635778352E+02  0.10566000000E+00 0.  1.
        996    1    1    2    0    0 -0.10747149782E+02  0.68760435768E+01  0.90425714264E+02  0.10411335651E+03  0.50000000000E+02 0.  0.
<mgrwt>
<rscale>  0 0.51602143E+02</rscale>
<asrwt>0</asrwt>
<pdfrwt beam="1">  1       13 0.10000000E+01 0.51602143E+02</pdfrwt>
<pdfrwt beam="2">  1       22 0.21749157E+00 0.51602143E+02</pdfrwt>
<totfact> 0.38636327E-01</totfact>
</mgrwt>
</event>
<event>
 4    1  0.2505250E+000  0.5607161E+02  0.7957747E-01  0.1415098E+00
         13   -1    0    0    0    0  0.00000000000E+00  0.00000000000E+00  0.99999944177E+02  0.99999999997E+02  0.10566000000E+00 0.  1.
         22   -1    0    0    0    0 -0.00000000000E+00 -0.00000000000E+00 -0.24418114279E+02  0.24418114279E+02  0.00000000000E+00 0. -1.
         13    1    1    2    0    0 -0.48335183700E+01 -0.24913099707E+02 -0.53737156016E+01  0.25940574787E+02  0.10566000000E+00 0. -1.
        996    1    1    2    0    0  0.48335183700E+01  0.24913099707E+02  0.80955545499E+02  0.98477539490E+02  0.50000000000E+02 0.  0.
<mgrwt>
<rscale>  0 0.56071610E+02</rscale>
<asrwt>0</asrwt>
<pdfrwt beam="1">  1       13 0.10000000E+01 0.56071610E+02</pdfrwt>
<pdfrwt beam="2">  1       22 0.24418135E+00 0.56071610E+02</pdfrwt>
<totfact> 0.31069229E-01</totfact>
</mgrwt>
</event>
<event>
 4    1  0.2505250E+000  0.5202697E+02  0.7957747E-01  0.1434705E+00
         13   -1    0    0    0    0  0.00000000000E+00  0.00000000000E+00  0.99999944188E+02  0.10000000001E+03  0.10566000000E+00 0.  1.
         22   -1    0    0    0    0 -0.00000000000E+00 -0.00000000000E+00 -0.67191918532E+02  0.67191918532E+02  0.00000000000E+00 0.  1.
         13    1    1    2    0    0  0.13378061688E+02  0.52757512716E+01 -0.59509961457E+02  0.61222975775E+02  0.10566000000E+00 0. -1.
        996    1    1    2    0    0 -0.13378061688E+02 -0.52757512716E+01  0.92317987114E+02  0.10596894277E+03  0.50000000000E+02 0.  0.
<mgrwt>
<rscale>  0 0.52026975E+02</rscale>
<asrwt>0</asrwt>
<pdfrwt beam="1">  1       13 0.10000000E+01 0.52026975E+02</pdfrwt>
<pdfrwt beam="2">  1       22 0.67191928E+00 0.52026975E+02</pdfrwt>
<totfact> 0.85852080E-02</totfact>
</mgrwt>
</event>
<event>
 4    1  0.2505250E+000  0.5207289E+02  0.7957747E-01  0.1434471E+00
         13   -1    0    0    0    0  0.00000000000E+00  0.00000000000E+00  0.99999944181E+02  0.10000000000E+03  0.10566000000E+00 0. -1.
         22   -1    0    0    0    0 -0.00000000000E+00 -0.00000000000E+00 -0.15529290081E+02  0.15529290081E+02  0.00000000000E+00 0. -1.
         13    1    1    2    0    0 -0.14036260721E+02  0.38170288572E+01 -0.19056803614E+01  0.14670688668E+02  0.10566000000E+00 0.  1.
        996    1    1    2    0    0  0.14036260721E+02 -0.38170288572E+01  0.86376334461E+02  0.10085860141E+03  0.50000000000E+02 0.  0.
<mgrwt>
<rscale>  0 0.52072894E+02</rscale>
<asrwt>0</asrwt>
<pdfrwt beam="1">  1       13 0.10000000E+01 0.52072894E+02</pdfrwt>
<pdfrwt beam="2">  1       22 0.15529314E+00 0.52072894E+02</pdfrwt>
<totfact> 0.71049844E-01</totfact>
</mgrwt>
</event>
<event>
 4    1  0.2505250E+000  0.5304382E+02  0.7957747E-01  0.1429583E+00
         13   -1    0    0    0    0  0.00000000000E+00  0.00000000000E+00  0.99999944190E+02  0.10000000001E+03  0.10566000000E+00 0. -1.
         22   -1    0    0    0    0 -0.00000000000E+00 -0.00000000000E+00 -0.13060283355E+02  0.13060283355E+02  0.00000000000E+00 0. -1.
         13    1    1    2    0    0  0.79916691114E+01 -0.15804443294E+02  0.12594375990E+02  0.21731927518E+02  0.10566000000E+00 0.  1.
        996    1    1    2    0    0 -0.79916691114E+01  0.15804443294E+02  0.74345284845E+02  0.91328355847E+02  0.50000000000E+02 0.  0.
<mgrwt>
<rscale>  0 0.53043823E+02</rscale>
<asrwt>0</asrwt>
<pdfrwt beam="1">  1       13 0.10000000E+01 0.53043823E+02</pdfrwt>
<pdfrwt beam="2">  1       22 0.13060308E+00 0.53043823E+02</pdfrwt>
<totfact> 0.94447103E-01</totfact>
</mgrwt>
</event>
<event>
 4    1  0.2505250E+000  0.5188164E+02  0.7957747E-01  0.1435449E+00
         13   -1    0    0    0    0  0.00000000000E+00  0.00000000000E+00  0.99999944178E+02  0.99999999999E+02  0.10566000000E+00 0.  1.
         22   -1    0    0    0    0 -0.00000000000E+00 -0.00000000000E+00 -0.12976839582E+02  0.12976839582E+02  0.00000000000E+00 0.  1.
         13    1    1    2    0    0  0.12534850976E+02 -0.58806723385E+01  0.29076993088E+01  0.14148168625E+02  0.10566000000E+00 0. -1.
        996    1    1    2    0    0 -0.12534850976E+02  0.58806723385E+01  0.84115405288E+02  0.98828670956E+02  0.50000000000E+02 0.  0.
<mgrwt>
<rscale>  0 0.51881642E+02</rscale>
<asrwt>0</asrwt>
<pdfrwt beam="1">  1       13 0.10000000E+01 0.51881642E+02</pdfrwt>
<pdfrwt beam="2">  1       22 0.12976864E+00 0.51881642E+02</pdfrwt>
<totfact> 0.95168972E-01</totfact>
</mgrwt>
</event>
<event>
 4    1  0.2505250E+000  0.5231008E+02  0.7957747E-01  0.1433265E+00
         13   -1    0    0    0    0  0.00000000000E+00  0.00000000000E+00  0.99999944187E+02  0.10000000001E+03  0.10566000000E+00 0. -1.
         22   -1    0    0    0    0 -0.00000000000E+00 -0.00000000000E+00 -0.18273939490E+02  0.18273939490E+02  0.00000000000E+00 0.  1.
         13    1    1    2    0    0 -0.14451054737E+02 -0.52451108693E+01 -0.56974007474E+01  0.16395600335E+02  0.10566000000E+00 0.  1.
        996    1    1    2    0    0  0.14451054737E+02  0.52451108693E+01  0.87423405444E+02  0.10187833916E+03  0.50000000000E+02 0.  0.
<mgrwt>
<rscale>  0 0.52310077E+02</rscale>
<asrwt>0</asrwt>
<pdfrwt beam="1">  1       13 0.10000000E+01 0.52310077E+02</pdfrwt>
<pdfrwt beam="2">  1       22 0.18273962E+00 0.52310077E+02</pdfrwt>
<totfact> 0.53499267E-01</totfact>
</mgrwt>
</event>
<event>
 4    1  0.2505250E+000  0.5166599E+02  0.7957747E-01  0.1436557E+00
         13   -1    0    0    0    0  0.00000000000E+00  0.00000000000E+00  0.99999944184E+02  0.10000000000E+03  0.10566000000E+00 0.  1.
         22   -1    0    0    0    0 -0.00000000000E+00 -0.00000000000E+00 -0.12578656702E+02  0.12578656702E+02  0.00000000000E+00 0.  1.
         13    1    1    2    0    0  0.26415346334E+01 -0.12743513231E+02  0.26169506929E+01  0.13275331622E+02  0.10566000000E+00 0. -1.
        996    1    1    2    0    0 -0.26415346334E+01  0.12743513231E+02  0.84804336789E+02  0.99303325085E+02  0.50000000000E+02 0.  0.
<mgrwt>
<rscale>  0 0.51665993E+02</rscale>
<asrwt>0</asrwt>
<pdfrwt beam="1">  1       13 0.10000000E+01 0.51665993E+02</pdfrwt>
<pdfrwt beam="2">  1       22 0.12578681E+00 0.51665993E+02</pdfrwt>
<totfact> 0.99880046E-01</totfact>
</mgrwt>
</event>
<event>
 4    1  0.2505250E+000  0.5121561E+02  0.7957747E-01  0.1438893E+00
         13   -1    0    0    0    0  0.00000000000E+00  0.00000000000E+00  0.99999944184E+02  0.10000000000E+03  0.10566000000E+00 0. -1.
         22   -1    0    0    0    0 -0.00000000000E+00 -0.00000000000E+00 -0.98584219382E+01  0.98584219382E+01  0.00000000000E+00 0. -1.
         13    1    1    2    0    0 -0.10388351824E+02 -0.38885036598E+01  0.11239819419E+02  0.15791865594E+02  0.10566000000E+00 0.  1.
        996    1    1    2    0    0  0.10388351824E+02  0.38885036598E+01  0.78901702827E+02  0.94066556349E+02  0.50000000000E+02 0.  0.
<mgrwt>
<rscale>  0 0.51215606E+02</rscale>
<asrwt>0</asrwt>
<pdfrwt beam="1">  1       13 0.10000000E+01 0.51215606E+02</pdfrwt>
<pdfrwt beam="2">  1       22 0.98584471E-01 0.51215606E+02</pdfrwt>
<totfact> 0.14364143E+00</totfact>
</mgrwt>
</event>
<event>
 4    1  0.2505250E+000  0.5485558E+02  0.7957747E-01  0.1420783E+00
         13   -1    0    0    0    0  0.00000000000E+00  0.00000000000E+00  0.99999944178E+02  0.99999999999E+02  0.10566000000E+00 0. -1.
         22   -1    0    0    0    0 -0.00000000000E+00 -0.00000000000E+00 -0.15184434061E+02  0.15184434061E+02  0.00000000000E+00 0. -1.
         13    1    1    2    0    0 -0.41570249191E+01 -0.22177785572E+02  0.30966294499E+02  0.38315239633E+02  0.10566000000E+00 0.  1.
        996    1    1    2    0    0  0.41570249191E+01  0.22177785572E+02  0.53849215618E+02  0.76869194427E+02  0.50000000000E+02 0.  0.
<mgrwt>
<rscale>  0 0.54855583E+02</rscale>
<asrwt>0</asrwt>
<pdfrwt beam="1">  1       13 0.10000000E+01 0.54855583E+02</pdfrwt>
<pdfrwt beam="2">  1       22 0.15184458E+00 0.54855583E+02</pdfrwt>
<totfact> 0.74189370E-01</totfact>
</mgrwt>
</event>
<event>
 4    1  0.2505250E+000  0.5262254E+02  0.7957747E-01  0.1431689E+00
         13   -1    0    0    0    0  0.00000000000E+00  0.00000000000E+00  0.99999944184E+02  0.10000000000E+03  0.10566000000E+00 0.  1.
         22   -1    0    0    0    0 -0.00000000000E+00 -0.00000000000E+00 -0.14235162385E+02  0.14235162385E+02  0.00000000000E+00 0. -1.
         13    1    1    2    0    0  0.14752958052E+02  0.71750773620E+01  0.38126977236E+01  0.16842782858E+02  0.10566000000E+00 0. -1.
        996    1    1    2    0    0 -0.14752958052E+02 -0.71750773620E+01  0.81952084075E+02  0.97392379531E+02  0.50000000000E+02 0.  0.
<mgrwt>
<rscale>  0 0.52622538E+02</rscale>
<asrwt>0</asrwt>
<pdfrwt beam="1">  1       13 0.10000000E+01 0.52622538E+02</pdfrwt>
<pdfrwt beam="2">  1       22 0.14235186E+00 0.52622538E+02</pdfrwt>
<totfact> 0.82180469E-01</totfact>
</mgrwt>
</event>
<event>
 4    1  0.2505250E+000  0.5374164E+02  0.7957747E-01  0.1426145E+00
         13   -1    0    0    0    0  0.00000000000E+00  0.00000000000E+00  0.99999944183E+02  0.10000000000E+03  0.10566000000E+00 0.  1.
         22   -1    0    0    0    0 -0.00000000000E+00 -0.00000000000E+00 -0.21544077037E+02  0.21544077037E+02  0.00000000000E+00 0.  1.
         13    1    1    2    0    0 -0.18887914728E+02 -0.56045415499E+01 -0.67323927274E+01  0.20820674452E+02  0.10566000000E+00 0. -1.
        996    1    1    2    0    0  0.18887914728E+02  0.56045415499E+01  0.85188259873E+02  0.10072340259E+03  0.50000000000E+02 0.  0.
<mgrwt>
<rscale>  0 0.53741643E+02</rscale>
<asrwt>0</asrwt>
<pdfrwt beam="1">  1       13 0.10000000E+01 0.53741643E+02</pdfrwt>
<pdfrwt beam="2">  1       22 0.21544099E+00 0.53741643E+02</pdfrwt>
<totfact> 0.39486651E-01</totfact>
</mgrwt>
</event>
<event>
 4    1  0.2505250E+000  0.5407414E+02  0.7957747E-01  0.1424529E+00
         13   -1    0    0    0    0  0.00000000000E+00  0.00000000000E+00  0.99999944181E+02  0.10000000000E+03  0.10566000000E+00 0.  1.
         22   -1    0    0    0    0 -0.00000000000E+00 -0.00000000000E+00 -0.15104483171E+02  0.15104483171E+02  0.00000000000E+00 0.  1.
         13    1    1    2    0    0  0.20567765808E+02 -0.98986410976E+00  0.10446750081E+02  0.23090226776E+02  0.10566000000E+00 0. -1.
        996    1    1    2    0    0 -0.20567765808E+02  0.98986410976E+00  0.74448710929E+02  0.92014256397E+02  0.50000000000E+02 0.  0.
<mgrwt>
<rscale>  0 0.54074142E+02</rscale>
<asrwt>0</asrwt>
<pdfrwt beam="1">  1       13 0.10000000E+01 0.54074142E+02</pdfrwt>
<pdfrwt beam="2">  1       22 0.15104507E+00 0.54074142E+02</pdfrwt>
<totfact> 0.74734633E-01</totfact>
</mgrwt>
</event>
<event>
 4    1  0.2505250E+000  0.5210839E+02  0.7957747E-01  0.1434290E+00
         13   -1    0    0    0    0  0.00000000000E+00  0.00000000000E+00  0.99999944175E+02  0.99999999995E+02  0.10566000000E+00 0.  1.
         22   -1    0    0    0    0 -0.00000000000E+00 -0.00000000000E+00 -0.40829525976E+02  0.40829525976E+02  0.00000000000E+00 0. -1.
         13    1    1    2    0    0  0.43331789823E+01  0.14018135783E+02 -0.32345695446E+02  0.35518160832E+02  0.10566000000E+00 0. -1.
        996    1    1    2    0    0 -0.43331789823E+01 -0.14018135783E+02  0.91516113645E+02  0.10531136514E+03  0.50000000000E+02 0.  0.
<mgrwt>
<rscale>  0 0.52108393E+02</rscale>
<asrwt>0</asrwt>
<pdfrwt beam="1">  1       13 0.10000000E+01 0.52108393E+02</pdfrwt>
<pdfrwt beam="2">  1       22 0.40829543E+00 0.52108393E+02</pdfrwt>
<totfact> 0.11889501E-01</totfact>
</mgrwt>
</event>
<event>
 4    1  0.2505250E+000  0.5126699E+02  0.7957747E-01  0.1438625E+00
         13   -1    0    0    0    0  0.00000000000E+00  0.00000000000E+00  0.99999944183E+02  0.10000000000E+03  0.10566000000E+00 0.  1.
         22   -1    0    0    0    0 -0.00000000000E+00 -0.00000000000E+00 -0.13297332130E+02  0.13297332130E+02  0.00000000000E+00 0. -1.
         13    1    1    2    0    0  0.59183121470E+00  0.11311674191E+02 -0.13495506268E+01  0.11407746847E+02  0.10566000000E+00 0. -1.
        996    1    1    2    0    0 -0.59183121470E+00 -0.11311674191E+02  0.88052162679E+02  0.10188958529E+03  0.50000000000E+02 0.  0.
<mgrwt>
<rscale>  0 0.51266990E+02</rscale>
<asrwt>0</asrwt>
<pdfrwt beam="1">  1       13 0.10000000E+01 0.51266990E+02</pdfrwt>
<pdfrwt beam="2">  1       22 0.13297356E+00 0.51266990E+02</pdfrwt>
<totfact> 0.91445392E-01</totfact>
</mgrwt>
</event>
<event>
 4    1  0.2505250E+000  0.5150012E+02  0.7957747E-01  0.1437414E+00
         13   -1    0    0    0    0  0.00000000000E+00  0.00000000000E+00  0.99999944187E+02  0.10000000001E+03  0.10566000000E+00 0.  1.
         22   -1    0    0    0    0 -0.00000000000E+00 -0.00000000000E+00 -0.11630461288E+02  0.11630461288E+02  0.00000000000E+00 0.  1.
         13    1    1    2    0    0 -0.84980239970E+01  0.89468203638E+01  0.43516120339E+01  0.13084712370E+02  0.10566000000E+00 0. -1.
        996    1    1    2    0    0  0.84980239970E+01 -0.89468203638E+01  0.84017870865E+02  0.98545748925E+02  0.50000000000E+02 0.  0.
<mgrwt>
<rscale>  0 0.51500117E+02</rscale>
<asrwt>0</asrwt>
<pdfrwt beam="1">  1       13 0.10000000E+01 0.51500117E+02</pdfrwt>
<pdfrwt beam="2">  1       22 0.11630486E+00 0.51500117E+02</pdfrwt>
<totfact> 0.11260950E+00</totfact>
</mgrwt>
</event>
<event>
 4    1  0.2505250E+000  0.5830585E+02  0.7957747E-01  0.1405082E+00
         13   -1    0    0    0    0  0.00000000000E+00  0.00000000000E+00  0.99999944175E+02  0.99999999996E+02  0.10566000000E+00 0.  1.
         22   -1    0    0    0    0 -0.00000000000E+00 -0.00000000000E+00 -0.19491734339E+02  0.19491734339E+02  0.00000000000E+00 0.  1.
         13    1    1    2    0    0  0.13663080988E+02  0.26700039483E+02  0.27401689033E+02  0.40625553736E+02  0.10566000000E+00 0. -1.
        996    1    1    2    0    0 -0.13663080988E+02 -0.26700039483E+02  0.53106520803E+02  0.78866180599E+02  0.50000000000E+02 0.  0.
<mgrwt>
<rscale>  0 0.58305848E+02</rscale>
<asrwt>0</asrwt>
<pdfrwt beam="1">  1       13 0.10000000E+01 0.58305848E+02</pdfrwt>
<pdfrwt beam="2">  1       22 0.19491757E+00 0.58305848E+02</pdfrwt>
<totfact> 0.48040893E-01</totfact>
</mgrwt>
</event>
<event>
 4    1  0.2505250E+000  0.5620191E+02  0.7957747E-01  0.1414499E+00
         13   -1    0    0    0    0  0.00000000000E+00  0.00000000000E+00  0.99999944175E+02  0.99999999995E+02  0.10566000000E+00 0.  1.
         22   -1    0    0    0    0 -0.00000000000E+00 -0.00000000000E+00 -0.20605037431E+02  0.20605037431E+02  0.00000000000E+00 0. -1.
         13    1    1    2    0    0 -0.36742189855E+01  0.25399899699E+02  0.31096009781E+01  0.25852186990E+02  0.10566000000E+00 0. -1.
        996    1    1    2    0    0  0.36742189855E+01 -0.25399899699E+02  0.76285305766E+02  0.94752850436E+02  0.50000000000E+02 0.  0.
<mgrwt>
<rscale>  0 0.56201911E+02</rscale>
<asrwt>0</asrwt>
<pdfrwt beam="1">  1       13 0.10000000E+01 0.56201911E+02</pdfrwt>
<pdfrwt beam="2">  1       22 0.20605060E+00 0.56201911E+02</pdfrwt>
<totfact> 0.43151667E-01</totfact>
</mgrwt>
</event>
<event>
 4    1  0.2505250E+000  0.5304549E+02  0.7957747E-01  0.1429575E+00
         13   -1    0    0    0    0  0.00000000000E+00  0.00000000000E+00  0.99999944179E+02  0.99999999999E+02  0.10566000000E+00 0. -1.
         22   -1    0    0    0    0 -0.00000000000E+00 -0.00000000000E+00 -0.13400512860E+02  0.13400512860E+02  0.00000000000E+00 0.  1.
         13    1    1    2    0    0 -0.67436796032E+01  0.16381290705E+02  0.10358497062E+02  0.20521538080E+02  0.10566000000E+00 0.  1.
        996    1    1    2    0    0  0.67436796032E+01 -0.16381290705E+02  0.76240934256E+02  0.92878974779E+02  0.50000000000E+02 0.  0.
<mgrwt>
<rscale>  0 0.53045489E+02</rscale>
<asrwt>0</asrwt>
<pdfrwt beam="1">  1       13 0.10000000E+01 0.53045489E+02</pdfrwt>
<pdfrwt beam="2">  1       22 0.13400537E+00 0.53045489E+02</pdfrwt>
<totfact> 0.90671512E-01</totfact>
</mgrwt>
</event>
<event>
 4    1  0.2505250E+000  0.5183124E+02  0.7957747E-01  0.1435707E+00
         13   -1    0    0    0    0  0.00000000000E+00  0.00000000000E+00  0.99999944185E+02  0.10000000000E+03  0.10566000000E+00 0. -1.
         22   -1    0    0    0    0 -0.00000000000E+00 -0.00000000000E+00 -0.27086294018E+02  0.27086294018E+02  0.00000000000E+00 0.  1.
         13    1    1    2    0    0  0.67894508043E+01  0.11848241540E+02 -0.17904835968E+02  0.22518254481E+02  0.10566000000E+00 0.  1.
        996    1    1    2    0    0 -0.67894508043E+01 -0.11848241540E+02  0.90818486135E+02  0.10456803954E+03  0.50000000000E+02 0.  0.
<mgrwt>
<rscale>  0 0.51831240E+02</rscale>
<asrwt>0</asrwt>
<pdfrwt beam="1">  1       13 0.10000000E+01 0.51831240E+02</pdfrwt>
<pdfrwt beam="2">  1       22 0.27086314E+00 0.51831240E+02</pdfrwt>
<totfact> 0.25178623E-01</totfact>
</mgrwt>
</event>
<event>
 4    1  0.2505250E+000  0.5263170E+02  0.7957747E-01  0.1431643E+00
         13   -1    0    0    0    0  0.00000000000E+00  0.00000000000E+00  0.99999944176E+02  0.99999999996E+02  0.10566000000E+00 0.  1.
         22   -1    0    0    0    0 -0.00000000000E+00 -0.00000000000E+00 -0.14162051948E+02  0.14162051948E+02  0.00000000000E+00 0. -1.
         13    1    1    2    0    0 -0.12741302506E+02 -0.10380492209E+02  0.40895354963E+01  0.16936081975E+02  0.10566000000E+00 0. -1.
        996    1    1    2    0    0  0.12741302506E+02  0.10380492209E+02  0.81748356732E+02  0.97225969969E+02  0.50000000000E+02 0.  0.
<mgrwt>
<rscale>  0 0.52631696E+02</rscale>
<asrwt>0</asrwt>
<pdfrwt beam="1">  1       13 0.10000000E+01 0.52631696E+02</pdfrwt>
<pdfrwt beam="2">  1       22 0.14162076E+00 0.52631696E+02</pdfrwt>
<totfact> 0.82874690E-01</totfact>
</mgrwt>
</event>
<event>
 4    1  0.2505250E+000  0.6610432E+02  0.7957747E-01  0.1373865E+00
         13   -1    0    0    0    0  0.00000000000E+00  0.00000000000E+00  0.99999944186E+02  0.10000000001E+03  0.10566000000E+00 0.  1.
         22   -1    0    0    0    0 -0.00000000000E+00 -0.00000000000E+00 -0.30632390721E+02  0.30632390721E+02  0.00000000000E+00 0. -1.
         13    1    1    2    0    0 -0.12508587979E+02  0.41392224019E+02  0.17665094489E+02  0.46710252727E+02  0.10566000000E+00 0. -1.
        996    1    1    2    0    0  0.12508587979E+02 -0.41392224019E+02  0.51702458976E+02  0.83922138001E+02  0.50000000000E+02 0.  0.
<mgrwt>
<rscale>  0 0.66104319E+02</rscale>
<asrwt>0</asrwt>
<pdfrwt beam="1">  1       13 0.10000000E+01 0.66104319E+02</pdfrwt>
<pdfrwt beam="2">  1       22 0.30632410E+00 0.66104319E+02</pdfrwt>
<totfact> 0.20236560E-01</totfact>
</mgrwt>
</event>
<event>
 4    1  0.2505250E+000  0.5117068E+02  0.7957747E-01  0.1439128E+00
         13   -1    0    0    0    0  0.00000000000E+00  0.00000000000E+00  0.99999944181E+02  0.10000000000E+03  0.10566000000E+00 0. -1.
         22   -1    0    0    0    0 -0.00000000000E+00 -0.00000000000E+00 -0.96274005409E+01  0.96274005409E+01  0.00000000000E+00 0. -1.
         13    1    1    2    0    0  0.10872367781E+02 -0.47944268458E+00  0.15512151225E+02  0.18949307273E+02  0.10566000000E+00 0.  1.
        996    1    1    2    0    0 -0.10872367781E+02  0.47944268458E+00  0.74860392415E+02  0.90678093270E+02  0.50000000000E+02 0.  0.
<mgrwt>
<rscale>  0 0.51170678E+02</rscale>
<asrwt>0</asrwt>
<pdfrwt beam="1">  1       13 0.10000000E+01 0.51170678E+02</pdfrwt>
<pdfrwt beam="2">  1       22 0.96274258E-01 0.51170678E+02</pdfrwt>
<totfact> 0.14860790E+00</totfact>
</mgrwt>
</event>
<event>
 4    1  0.2505250E+000  0.5112294E+02  0.7957747E-01  0.1439377E+00
         13   -1    0    0    0    0  0.00000000000E+00  0.00000000000E+00  0.99999944180E+02  0.10000000000E+03  0.10566000000E+00 0.  1.
         22   -1    0    0    0    0 -0.00000000000E+00 -0.00000000000E+00 -0.97752127219E+01  0.97752127219E+01  0.00000000000E+00 0.  1.
         13    1    1    2    0    0 -0.97193054910E+01 -0.43691835779E+01  0.98028133535E+01  0.14479674653E+02  0.10566000000E+00 0. -1.
        996    1    1    2    0    0  0.97193054910E+01  0.43691835779E+01  0.80421918105E+02  0.95295538070E+02  0.50000000000E+02 0.  0.
<mgrwt>
<rscale>  0 0.51122937E+02</rscale>
<asrwt>0</asrwt>
<pdfrwt beam="1">  1       13 0.10000000E+01 0.51122937E+02</pdfrwt>
<pdfrwt beam="2">  1       22 0.97752379E-01 0.51122937E+02</pdfrwt>
<totfact> 0.14537355E+00</totfact>
</mgrwt>
</event>
<event>
 4    1  0.2505250E+000  0.5541611E+02  0.7957747E-01  0.1418141E+00
         13   -1    0    0    0    0  0.00000000000E+00  0.00000000000E+00  0.99999944185E+02  0.10000000001E+03  0.10566000000E+00 0.  1.
         22   -1    0    0    0    0 -0.00000000000E+00 -0.00000000000E+00 -0.24430017895E+02  0.24430017895E+02  0.00000000000E+00 0.  1.
         13    1    1    2    0    0 -0.20020891230E+02 -0.13042580010E+02 -0.70799293493E+01  0.24921507631E+02  0.10566000000E+00 0. -1.
        996    1    1    2    0    0  0.20020891230E+02  0.13042580010E+02  0.82649855639E+02  0.99508510270E+02  0.50000000000E+02 0.  0.
<mgrwt>
<rscale>  0 0.55416108E+02</rscale>
<asrwt>0</asrwt>
<pdfrwt beam="1">  1       13 0.10000000E+01 0.55416108E+02</pdfrwt>
<pdfrwt beam="2">  1       22 0.24430039E+00 0.55416108E+02</pdfrwt>
<totfact> 0.31009326E-01</totfact>
</mgrwt>
</event>
<event>
 4    1  0.2505250E+000  0.5615471E+02  0.7957747E-01  0.1414716E+00
         13   -1    0    0    0    0  0.00000000000E+00  0.00000000000E+00  0.99999944175E+02  0.99999999995E+02  0.10566000000E+00 0. -1.
         22   -1    0    0    0    0 -0.00000000000E+00 -0.00000000000E+00 -0.27798002216E+02  0.27798002216E+02  0.00000000000E+00 0.  1.
         13    1    1    2    0    0 -0.10987137340E+02 -0.23078866499E+02 -0.10664993966E+02  0.27696651894E+02  0.10566000000E+00 0.  1.
        996    1    1    2    0    0  0.10987137340E+02  0.23078866499E+02  0.82866935924E+02  0.10010135032E+03  0.50000000000E+02 0.  0.
<mgrwt>
<rscale>  0 0.56154708E+02</rscale>
<asrwt>0</asrwt>
<pdfrwt beam="1">  1       13 0.10000000E+01 0.56154708E+02</pdfrwt>
<pdfrwt beam="2">  1       22 0.27798022E+00 0.56154708E+02</pdfrwt>
<totfact> 0.24081773E-01</totfact>
</mgrwt>
</event>
<event>
 4    1  0.2505250E+000  0.5134157E+02  0.7957747E-01  0.1438237E+00
         13   -1    0    0    0    0  0.00000000000E+00  0.00000000000E+00  0.99999944175E+02  0.99999999995E+02  0.10566000000E+00 0.  1.
         22   -1    0    0    0    0 -0.00000000000E+00 -0.00000000000E+00 -0.20349719472E+02  0.20349719472E+02  0.00000000000E+00 0. -1.
         13    1    1    2    0    0 -0.22572461856E+01  0.11439486233E+02 -0.11089698712E+02  0.16091910613E+02  0.10566000000E+00 0. -1.
        996    1    1    2    0    0  0.22572461856E+01 -0.11439486233E+02  0.90739923415E+02  0.10425780885E+03  0.50000000000E+02 0.  0.
<mgrwt>
<rscale>  0 0.51341572E+02</rscale>
<asrwt>0</asrwt>
<pdfrwt beam="1">  1       13 0.10000000E+01 0.51341572E+02</pdfrwt>
<pdfrwt beam="2">  1       22 0.20349742E+00 0.51341572E+02</pdfrwt>
<totfact> 0.43810192E-01</totfact>
</mgrwt>
</event>
<event>
 4    1  0.2505250E+000  0.5117360E+02  0.7957747E-01  0.1439112E+00
         13   -1    0    0    0    0  0.00000000000E+00  0.00000000000E+00  0.99999944175E+02  0.99999999996E+02  0.10566000000E+00 0. -1.
         22   -1    0    0    0    0 -0.00000000000E+00 -0.00000000000E+00 -0.96322477961E+01  0.96322477961E+01  0.00000000000E+00 0. -1.
         13    1    1    2    0    0  0.76700455734E+01 -0.77399934110E+01  0.15624337169E+02  0.19049099010E+02  0.10566000000E+00 0.  1.
        996    1    1    2    0    0 -0.76700455734E+01  0.77399934110E+01  0.74743359211E+02  0.90583148782E+02  0.50000000000E+02 0.  0.
<mgrwt>
<rscale>  0 0.51173598E+02</rscale>
<asrwt>0</asrwt>
<pdfrwt beam="1">  1       13 0.10000000E+01 0.51173598E+02</pdfrwt>
<pdfrwt beam="2">  1       22 0.96322730E-01 0.51173598E+02</pdfrwt>
<totfact> 0.14850176E+00</totfact>
</mgrwt>
</event>
<event>
 4    1  0.2505250E+000  0.5099321E+02  0.7957747E-01  0.1440057E+00
         13   -1    0    0    0    0  0.00000000000E+00  0.00000000000E+00  0.99999944179E+02  0.10000000000E+03  0.10566000000E+00 0. -1.
         22   -1    0    0    0    0 -0.00000000000E+00 -0.00000000000E+00 -0.23204344654E+02  0.23204344654E+02  0.00000000000E+00 0.  1.
         13    1    1    2    0    0  0.27677383088E+01  0.96253193549E+01 -0.15093442655E+02  0.18114367868E+02  0.10566000000E+00 0.  1.
        996    1    1    2    0    0 -0.27677383088E+01 -0.96253193549E+01  0.91889042180E+02  0.10508997679E+03  0.50000000000E+02 0.  0.
<mgrwt>
<rscale>  0 0.50993207E+02</rscale>
<asrwt>0</asrwt>
<pdfrwt beam="1">  1       13 0.10000000E+01 0.50993207E+02</pdfrwt>
<pdfrwt beam="2">  1       22 0.23204366E+00 0.50993207E+02</pdfrwt>
<totfact> 0.34056683E-01</totfact>
</mgrwt>
</event>
<event>
 4    1  0.2505250E+000  0.5169703E+02  0.7957747E-01  0.1436397E+00
         13   -1    0    0    0    0  0.00000000000E+00  0.00000000000E+00  0.99999944182E+02  0.10000000000E+03  0.10566000000E+00 0.  1.
         22   -1    0    0    0    0 -0.00000000000E+00 -0.00000000000E+00 -0.16382689847E+02  0.16382689847E+02  0.00000000000E+00 0. -1.
         13    1    1    2    0    0 -0.10001270886E+02 -0.85180399597E+01 -0.47785505348E+01  0.13979561271E+02  0.10566000000E+00 0. -1.
        996    1    1    2    0    0  0.10001270886E+02  0.85180399597E+01  0.88395804869E+02  0.10240312858E+03  0.50000000000E+02 0.  0.
<mgrwt>
<rscale>  0 0.51697025E+02</rscale>
<asrwt>0</asrwt>
<pdfrwt beam="1">  1       13 0.10000000E+01 0.51697025E+02</pdfrwt>
<pdfrwt beam="2">  1       22 0.16382713E+00 0.51697025E+02</pdfrwt>
<totfact> 0.64799152E-01</totfact>
</mgrwt>
</event>
<event>
 4    1  0.2505250E+000  0.5471317E+02  0.7957747E-01  0.1421460E+00
         13   -1    0    0    0    0  0.00000000000E+00  0.00000000000E+00  0.99999944178E+02  0.99999999998E+02  0.10566000000E+00 0. -1.
         22   -1    0    0    0    0 -0.00000000000E+00 -0.00000000000E+00 -0.21540765809E+02  0.21540765809E+02  0.00000000000E+00 0. -1.
         13    1    1    2    0    0 -0.10777661262E+02  0.19426096391E+02 -0.40078108414E+01  0.22574430558E+02  0.10566000000E+00 0.  1.
        996    1    1    2    0    0  0.10777661262E+02 -0.19426096391E+02  0.82466989210E+02  0.98966335249E+02  0.50000000000E+02 0.  0.
<mgrwt>
<rscale>  0 0.54713172E+02</rscale>
<asrwt>0</asrwt>
<pdfrwt beam="1">  1       13 0.10000000E+01 0.54713172E+02</pdfrwt>
<pdfrwt beam="2">  1       22 0.21540788E+00 0.54713172E+02</pdfrwt>
<totfact> 0.39561637E-01</totfact>
</mgrwt>
</event>
<event>
 4    1  0.2505250E+000  0.6027535E+02  0.7957747E-01  0.1396680E+00
         13   -1    0    0    0    0  0.00000000000E+00  0.00000000000E+00  0.99999944183E+02  0.10000000000E+03  0.10566000000E+00 0.  1.
         22   -1    0    0    0    0 -0.00000000000E+00 -0.00000000000E+00 -0.24081318878E+02  0.24081318878E+02  0.00000000000E+00 0. -1.
         13    1    1    2    0    0 -0.25238768613E+02 -0.22273816931E+02  0.10808892667E+02  0.35354797220E+02  0.10566000000E+00 0. -1.
        996    1    1    2    0    0  0.25238768613E+02  0.22273816931E+02  0.65109732639E+02  0.88726521661E+02  0.50000000000E+02 0.  0.
<mgrwt>
<rscale>  0 0.60275355E+02</rscale>
<asrwt>0</asrwt>
<pdfrwt beam="1">  1       13 0.10000000E+01 0.60275355E+02</pdfrwt>
<pdfrwt beam="2">  1       22 0.24081340E+00 0.60275355E+02</pdfrwt>
<totfact> 0.32121609E-01</totfact>
</mgrwt>
</event>
<event>
 4    1  0.2505250E+000  0.7681602E+02  0.7957747E-01  0.1338338E+00
         13   -1    0    0    0    0  0.00000000000E+00  0.00000000000E+00  0.99999944178E+02  0.99999999998E+02  0.10566000000E+00 0.  1.
         22   -1    0    0    0    0 -0.00000000000E+00 -0.00000000000E+00 -0.76115009354E+02  0.76115009354E+02  0.00000000000E+00 0. -1.
         13    1    1    2    0    0 -0.11093044369E+02  0.57250729228E+02 -0.44432690619E+02  0.73314233203E+02  0.10566000000E+00 0. -1.
        996    1    1    2    0    0  0.11093044369E+02 -0.57250729228E+02  0.68317625443E+02  0.10280077615E+03  0.50000000000E+02 0.  0.
<mgrwt>
<rscale>  0 0.76816025E+02</rscale>
<asrwt>0</asrwt>
<pdfrwt beam="1">  1       13 0.10000000E+01 0.76816025E+02</pdfrwt>
<pdfrwt beam="2">  1       22 0.76115016E+00 0.76816025E+02</pdfrwt>
<totfact> 0.44186615E-02</totfact>
</mgrwt>
</event>
<event>
 4    1  0.2505250E+000  0.5146062E+02  0.7957747E-01  0.1437619E+00
         13   -1    0    0    0    0  0.00000000000E+00  0.00000000000E+00  0.99999944174E+02  0.99999999994E+02  0.10566000000E+00 0.  1.
         22   -1    0    0    0    0 -0.00000000000E+00 -0.00000000000E+00 -0.22184885739E+02  0.22184885739E+02  0.00000000000E+00 0. -1.
         13    1    1    2    0    0  0.66683262521E+01 -0.10184724608E+02 -0.12995468800E+02  0.17806980758E+02  0.10566000000E+00 0. -1.
        996    1    1    2    0    0 -0.66683262521E+01  0.10184724608E+02  0.90810527235E+02  0.10437790498E+03  0.50000000000E+02 0.  0.
<mgrwt>
<rscale>  0 0.51460618E+02</rscale>
<asrwt>0</asrwt>
<pdfrwt beam="1">  1       13 0.10000000E+01 0.51460618E+02</pdfrwt>
<pdfrwt beam="2">  1       22 0.22184907E+00 0.51460618E+02</pdfrwt>
<totfact> 0.37182456E-01</totfact>
</mgrwt>
</event>
<event>
 4    1  0.2505250E+000  0.5141806E+02  0.7957747E-01  0.1437840E+00
         13   -1    0    0    0    0  0.00000000000E+00  0.00000000000E+00  0.99999944180E+02  0.10000000000E+03  0.10566000000E+00 0. -1.
         22   -1    0    0    0    0 -0.00000000000E+00 -0.00000000000E+00 -0.17280042485E+02  0.17280042485E+02  0.00000000000E+00 0. -1.
         13    1    1    2    0    0  0.11970775484E+02  0.71945298160E+00 -0.69887035710E+01  0.13880569870E+02  0.10566000000E+00 0.  1.
        996    1    1    2    0    0 -0.11970775484E+02 -0.71945298160E+00  0.89708605266E+02  0.10339947261E+03  0.50000000000E+02 0.  0.
<mgrwt>
<rscale>  0 0.51418062E+02</rscale>
<asrwt>0</asrwt>
<pdfrwt beam="1">  1       13 0.10000000E+01 0.51418062E+02</pdfrwt>
<pdfrwt beam="2">  1       22 0.17280066E+00 0.51418062E+02</pdfrwt>
<totfact> 0.59010468E-01</totfact>
</mgrwt>
</event>
<event>
 4    1  0.2505250E+000  0.7028386E+02  0.7957747E-01  0.1359130E+00
         13   -1    0    0    0    0  0.00000000000E+00  0.00000000000E+00  0.99999944179E+02  0.99999999999E+02  0.10566000000E+00 0. -1.
         22   -1    0    0    0    0 -0.00000000000E+00 -0.00000000000E+00 -0.37207880390E+02  0.37207880390E+02  0.00000000000E+00 0.  1.
         13    1    1    2    0    0 -0.48162354289E+02  0.10963990728E+02  0.39235697617E+02  0.63081475846E+02  0.10566000000E+00 0.  1.
        996    1    1    2    0    0  0.48162354289E+02 -0.10963990728E+02  0.23556366172E+02  0.74126404544E+02  0.50000000000E+02 0.  0.
<mgrwt>
<rscale>  0 0.70283863E+02</rscale>
<asrwt>0</asrwt>
<pdfrwt beam="1">  1       13 0.10000000E+01 0.70283863E+02</pdfrwt>
<pdfrwt beam="2">  1       22 0.37207898E+00 0.70283863E+02</pdfrwt>
<totfact> 0.14319689E-01</totfact>
</mgrwt>
</event>
<event>
 4    1  0.2505250E+000  0.5103887E+02  0.7957747E-01  0.1439817E+00
         13   -1    0    0    0    0  0.00000000000E+00  0.00000000000E+00  0.99999944176E+02  0.99999999997E+02  0.10566000000E+00 0. -1.
         22   -1    0    0    0    0 -0.00000000000E+00 -0.00000000000E+00 -0.16308544536E+02  0.16308544536E+02  0.00000000000E+00 0.  1.
         13    1    1    2    0    0 -0.70199185371E+01  0.74623523085E+01 -0.68834038542E+01  0.12343353309E+02  0.10566000000E+00 0.  1.
        996    1    1    2    0    0  0.70199185371E+01 -0.74623523085E+01  0.90574803494E+02  0.10396519122E+03  0.50000000000E+02 0.  0.
<mgrwt>
<rscale>  0 0.51038867E+02</rscale>
<asrwt>0</asrwt>
<pdfrwt beam="1">  1       13 0.10000000E+01 0.51038867E+02</pdfrwt>
<pdfrwt beam="2">  1       22 0.16308568E+00 0.51038867E+02</pdfrwt>
<totfact> 0.65222140E-01</totfact>
</mgrwt>
</event>
<event>
 4    1  0.2505250E+000  0.5103231E+02  0.7957747E-01  0.1439852E+00
         13   -1    0    0    0    0  0.00000000000E+00  0.00000000000E+00  0.99999944177E+02  0.99999999997E+02  0.10566000000E+00 0. -1.
         22   -1    0    0    0    0 -0.00000000000E+00 -0.00000000000E+00 -0.93779742673E+01  0.93779742673E+01  0.00000000000E+00 0. -1.
         13    1    1    2    0    0  0.73034582816E+01  0.71383555782E+01  0.15409209832E+02  0.18486523062E+02  0.10566000000E+00 0.  1.
        996    1    1    2    0    0 -0.73034582816E+01 -0.71383555782E+01  0.75212760078E+02  0.90891451203E+02  0.50000000000E+02 0.  0.
<mgrwt>
<rscale>  0 0.51032310E+02</rscale>
<asrwt>0</asrwt>
<pdfrwt beam="1">  1       13 0.10000000E+01 0.51032310E+02</pdfrwt>
<pdfrwt beam="2">  1       22 0.93779996E-01 0.51032310E+02</pdfrwt>
<totfact> 0.15423417E+00</totfact>
</mgrwt>
</event>
<event>
 4    1  0.2505250E+000  0.5118364E+02  0.7957747E-01  0.1439060E+00
         13   -1    0    0    0    0  0.00000000000E+00  0.00000000000E+00  0.99999944174E+02  0.99999999995E+02  0.10566000000E+00 0.  1.
         22   -1    0    0    0    0 -0.00000000000E+00 -0.00000000000E+00 -0.32856464580E+02  0.32856464580E+02  0.00000000000E+00 0. -1.
         13    1    1    2    0    0  0.58829093955E+01 -0.92280234627E+01 -0.25089918657E+02  0.27372983437E+02  0.10566000000E+00 0. -1.
        996    1    1    2    0    0 -0.58829093955E+01  0.92280234627E+01  0.92233398251E+02  0.10548348114E+03  0.50000000000E+02 0.  0.
<mgrwt>
<rscale>  0 0.51183640E+02</rscale>
<asrwt>0</asrwt>
<pdfrwt beam="1">  1       13 0.10000000E+01 0.51183640E+02</pdfrwt>
<pdfrwt beam="2">  1       22 0.32856483E+00 0.51183640E+02</pdfrwt>
<totfact> 0.17536692E-01</totfact>
</mgrwt>
</event>
<event>
 4    1  0.2505250E+000  0.5171086E+02  0.7957747E-01  0.1436326E+00
         13   -1    0    0    0    0  0.00000000000E+00  0.00000000000E+00  0.99999944178E+02  0.99999999998E+02  0.10566000000E+00 0. -1.
         22   -1    0    0    0    0 -0.00000000000E+00 -0.00000000000E+00 -0.13443525906E+02  0.13443525906E+02  0.00000000000E+00 0. -1.
         13    1    1    2    0    0  0.45853398330E+01  0.12368827620E+02  0.69166210258E+00  0.13209950741E+02  0.10566000000E+00 0.  1.
        996    1    1    2    0    0 -0.45853398330E+01 -0.12368827620E+02  0.85864756169E+02  0.10023357516E+03  0.50000000000E+02 0.  0.
<mgrwt>
<rscale>  0 0.51710862E+02</rscale>
<asrwt>0</asrwt>
<pdfrwt beam="1">  1       13 0.10000000E+01 0.51710862E+02</pdfrwt>
<pdfrwt beam="2">  1       22 0.13443550E+00 0.51710862E+02</pdfrwt>
<totfact> 0.89954276E-01</totfact>
</mgrwt>
</event>
<event>
 4    1  0.2505250E+000  0.5437779E+02  0.7957747E-01  0.1423064E+00
         13   -1    0    0    0    0  0.00000000000E+00  0.00000000000E+00  0.99999944185E+02  0.10000000000E+03  0.10566000000E+00 0.  1.
         22   -1    0    0    0    0 -0.00000000000E+00 -0.00000000000E+00 -0.45288245725E+02  0.45288245725E+02  0.00000000000E+00 0. -1.
         13    1    1    2    0    0  0.27575345702E+01 -0.21197652326E+02 -0.34631631906E+02  0.40697734010E+02  0.10566000000E+00 0. -1.
        996    1    1    2    0    0 -0.27575345702E+01  0.21197652326E+02  0.89343330366E+02  0.10459051172E+03  0.50000000000E+02 0.  0.
<mgrwt>
<rscale>  0 0.54377794E+02</rscale>
<asrwt>0</asrwt>
<pdfrwt beam="1">  1       13 0.10000000E+01 0.54377794E+02</pdfrwt>
<pdfrwt beam="2">  1       22 0.45288261E+00 0.54377794E+02</pdfrwt>
<totfact> 0.95307208E-02</totfact>
</mgrwt>
</event>
<event>
 4    1  0.2505250E+000  0.5186420E+02  0.7957747E-01  0.1435538E+00
         13   -1    0    0    0    0  0.00000000000E+00  0.00000000000E+00  0.99999944171E+02  0.99999999991E+02  0.10566000000E+00 0.  1.
         22   -1    0    0    0    0 -0.00000000000E+00 -0.00000000000E+00 -0.19299408310E+02  0.19299408310E+02  0.00000000000E+00 0. -1.
         13    1    1    2    0    0 -0.49990804516E+01  0.12841503891E+02 -0.84464479771E+01  0.16163188887E+02  0.10566000000E+00 0. -1.
        996    1    1    2    0    0  0.49990804516E+01 -0.12841503891E+02  0.89146983838E+02  0.10313621941E+03  0.50000000000E+02 0.  0.
<mgrwt>
<rscale>  0 0.51864198E+02</rscale>
<asrwt>0</asrwt>
<pdfrwt beam="1">  1       13 0.10000000E+01 0.51864198E+02</pdfrwt>
<pdfrwt beam="2">  1       22 0.19299431E+00 0.51864198E+02</pdfrwt>
<totfact> 0.48391532E-01</totfact>
</mgrwt>
</event>
<event>
 4    1  0.2505250E+000  0.5478317E+02  0.7957747E-01  0.1421127E+00
         13   -1    0    0    0    0  0.00000000000E+00  0.00000000000E+00  0.99999944175E+02  0.99999999995E+02  0.10566000000E+00 0. -1.
         22   -1    0    0    0    0 -0.00000000000E+00 -0.00000000000E+00 -0.15058829424E+02  0.15058829424E+02  0.00000000000E+00 0. -1.
         13    1    1    2    0    0  0.44598798004E+01  0.21938671141E+02  0.30406653217E+02  0.37759390132E+02  0.10566000000E+00 0.  1.
        996    1    1    2    0    0 -0.44598798004E+01 -0.21938671141E+02  0.54534461534E+02  0.77299439287E+02  0.50000000000E+02 0.  0.
<mgrwt>
<rscale>  0 0.54783171E+02</rscale>
<asrwt>0</asrwt>
<pdfrwt beam="1">  1       13 0.10000000E+01 0.54783171E+02</pdfrwt>
<pdfrwt beam="2">  1       22 0.15058853E+00 0.54783171E+02</pdfrwt>
<totfact> 0.75216918E-01</totfact>
</mgrwt>
</event>
<event>
 4    1  0.2505250E+000  0.5499362E+02  0.7957747E-01  0.1420129E+00
         13   -1    0    0    0    0  0.00000000000E+00  0.00000000000E+00  0.99999944178E+02  0.99999999998E+02  0.10566000000E+00 0.  1.
         22   -1    0    0    0    0 -0.00000000000E+00 -0.00000000000E+00 -0.49091141702E+02  0.49091141702E+02  0.00000000000E+00 0. -1.
         13    1    1    2    0    0  0.19434914928E+02  0.12107135647E+02 -0.38107349707E+02  0.44457619342E+02  0.10566000000E+00 0. -1.
        996    1    1    2    0    0 -0.19434914928E+02 -0.12107135647E+02  0.89016152182E+02  0.10463352236E+03  0.50000000000E+02 0.  0.
<mgrwt>
<rscale>  0 0.54993624E+02</rscale>
<asrwt>0</asrwt>
<pdfrwt beam="1">  1       13 0.10000000E+01 0.54993624E+02</pdfrwt>
<pdfrwt beam="2">  1       22 0.49091156E+00 0.54993624E+02</pdfrwt>
<totfact> 0.77529301E-02</totfact>
</mgrwt>
</event>
<event>
 4    1  0.2505250E+000  0.5118442E+02  0.7957747E-01  0.1439056E+00
         13   -1    0    0    0    0  0.00000000000E+00  0.00000000000E+00  0.99999944181E+02  0.10000000000E+03  0.10566000000E+00 0.  1.
         22   -1    0    0    0    0 -0.00000000000E+00 -0.00000000000E+00 -0.12088944304E+02  0.12088944304E+02  0.00000000000E+00 0.  1.
         13    1    1    2    0    0 -0.89172029313E+01  0.63504784067E+01  0.41757403422E+02  0.43168703811E+02  0.10566000000E+00 0. -1.
        996    1    1    2    0    0  0.89172029313E+01 -0.63504784067E+01  0.46153596455E+02  0.68920240495E+02  0.50000000000E+02 0.  0.
<mgrwt>
<rscale>  0 0.51184422E+02</rscale>
<asrwt>0</asrwt>
<pdfrwt beam="1">  1       13 0.10000000E+01 0.51184422E+02</pdfrwt>
<pdfrwt beam="2">  1       22 0.12088969E+00 0.51184422E+02</pdfrwt>
<totfact> 0.10608872E+00</totfact>
</mgrwt>
</event>
<event>
 4    1  0.2505250E+000  0.5214485E+02  0.7957747E-01  0.1434105E+00
         13   -1    0    0    0    0  0.00000000000E+00  0.00000000000E+00  0.99999944174E+02  0.99999999995E+02  0.10566000000E+00 0. -1.
         22   -1    0    0    0    0 -0.00000000000E+00 -0.00000000000E+00 -0.38430287519E+02  0.38430287519E+02  0.00000000000E+00 0.  1.
         13    1    1    2    0    0 -0.13340562447E+02 -0.64120852185E+01 -0.29774172926E+02  0.33250533540E+02  0.10566000000E+00 0.  1.
        996    1    1    2    0    0  0.13340562447E+02  0.64120852185E+01  0.91343829582E+02  0.10517975397E+03  0.50000000000E+02 0.  0.
<mgrwt>
<rscale>  0 0.52144851E+02</rscale>
<asrwt>0</asrwt>
<pdfrwt beam="1">  1       13 0.10000000E+01 0.52144851E+02</pdfrwt>
<pdfrwt beam="2">  1       22 0.38430305E+00 0.52144851E+02</pdfrwt>
<totfact> 0.13322300E-01</totfact>
</mgrwt>
</event>
<event>
 4    1  0.2505250E+000  0.5370243E+02  0.7957747E-01  0.1426337E+00
         13   -1    0    0    0    0  0.00000000000E+00  0.00000000000E+00  0.99999944180E+02  0.10000000000E+03  0.10566000000E+00 0.  1.
         22   -1    0    0    0    0 -0.00000000000E+00 -0.00000000000E+00 -0.20066494383E+02  0.20066494383E+02  0.00000000000E+00 0. -1.
         13    1    1    2    0    0  0.13220666249E+02 -0.14462539504E+02 -0.44030143231E+01  0.20083544611E+02  0.10566000000E+00 0. -1.
        996    1    1    2    0    0 -0.13220666249E+02  0.14462539504E+02  0.84336464120E+02  0.99982949772E+02  0.50000000000E+02 0.  0.
<mgrwt>
<rscale>  0 0.53702431E+02</rscale>
<asrwt>0</asrwt>
<pdfrwt beam="1">  1       13 0.10000000E+01 0.53702431E+02</pdfrwt>
<pdfrwt beam="2">  1       22 0.20066517E+00 0.53702431E+02</pdfrwt>
<totfact> 0.45163331E-01</totfact>
</mgrwt>
</event>
<event>
 4    1  0.2505250E+000  0.5243083E+02  0.7957747E-01  0.1432655E+00
         13   -1    0    0    0    0  0.00000000000E+00  0.00000000000E+00  0.99999944176E+02  0.99999999997E+02  0.10566000000E+00 0.  1.
         22   -1    0    0    0    0 -0.00000000000E+00 -0.00000000000E+00 -0.12146773100E+02  0.12146773100E+02  0.00000000000E+00 0.  1.
         13    1    1    2    0    0  0.82733706428E+01 -0.13436633902E+02  0.11503104273E+02  0.19527528373E+02  0.10566000000E+00 0. -1.
        996    1    1    2    0    0 -0.82733706428E+01  0.13436633902E+02  0.76350066803E+02  0.92619244724E+02  0.50000000000E+02 0.  0.
<mgrwt>
<rscale>  0 0.52430829E+02</rscale>
<asrwt>0</asrwt>
<pdfrwt beam="1">  1       13 0.10000000E+01 0.52430829E+02</pdfrwt>
<pdfrwt beam="2">  1       22 0.12146798E+00 0.52430829E+02</pdfrwt>
<totfact> 0.10560734E+00</totfact>
</mgrwt>
</event>
<event>
 4    1  0.2505250E+000  0.5150018E+02  0.7957747E-01  0.1437414E+00
         13   -1    0    0    0    0  0.00000000000E+00  0.00000000000E+00  0.99999944180E+02  0.10000000000E+03  0.10566000000E+00 0.  1.
         22   -1    0    0    0    0 -0.00000000000E+00 -0.00000000000E+00 -0.12276689315E+02  0.12276689315E+02  0.00000000000E+00 0. -1.
         13    1    1    2    0    0  0.83871075583E+01 -0.90512514349E+01  0.23337591183E+01  0.12558914021E+02  0.10566000000E+00 0. -1.
        996    1    1    2    0    0 -0.83871075583E+01  0.90512514349E+01  0.85389495747E+02  0.99717775294E+02  0.50000000000E+02 0.  0.
<mgrwt>
<rscale>  0 0.51500182E+02</rscale>
<asrwt>0</asrwt>
<pdfrwt beam="1">  1       13 0.10000000E+01 0.51500182E+02</pdfrwt>
<pdfrwt beam="2">  1       22 0.12276714E+00 0.51500182E+02</pdfrwt>
<totfact> 0.10367555E+00</totfact>
</mgrwt>
</event>
<event>
 4    1  0.2505250E+000  0.5145367E+02  0.7957747E-01  0.1437655E+00
         13   -1    0    0    0    0  0.00000000000E+00  0.00000000000E+00  0.99999944180E+02  0.10000000000E+03  0.10566000000E+00 0.  1.
         22   -1    0    0    0    0 -0.00000000000E+00 -0.00000000000E+00 -0.11252951794E+02  0.11252951794E+02  0.00000000000E+00 0.  1.
         13    1    1    2    0    0 -0.69520153678E+01  0.99574097431E+01  0.53732480811E+01  0.13280191469E+02  0.10566000000E+00 0. -1.
        996    1    1    2    0    0  0.69520153678E+01 -0.99574097431E+01  0.83373744305E+02  0.97972760326E+02  0.50000000000E+02 0.  0.
<mgrwt>
<rscale>  0 0.51453674E+02</rscale>
<asrwt>0</asrwt>
<pdfrwt beam="1">  1       13 0.10000000E+01 0.51453674E+02</pdfrwt>
<pdfrwt beam="2">  1       22 0.11252977E+00 0.51453674E+02</pdfrwt>
<totfact> 0.11833249E+00</totfact>
</mgrwt>
</event>
<event>
 4    1  0.2505250E+000  0.5102260E+02  0.7957747E-01  0.1439903E+00
         13   -1    0    0    0    0  0.00000000000E+00  0.00000000000E+00  0.99999944182E+02  0.10000000000E+03  0.10566000000E+00 0.  1.
         22   -1    0    0    0    0 -0.00000000000E+00 -0.00000000000E+00 -0.10720416228E+02  0.10720416228E+02  0.00000000000E+00 0. -1.
         13    1    1    2    0    0 -0.96848608656E+01 -0.30837659813E+01  0.32015112824E+01  0.10656780993E+02  0.10566000000E+00 0. -1.
        996    1    1    2    0    0  0.96848608656E+01  0.30837659813E+01  0.86078016671E+02  0.10006363524E+03  0.50000000000E+02 0.  0.
<mgrwt>
<rscale>  0 0.51022604E+02</rscale>
<asrwt>0</asrwt>
<pdfrwt beam="1">  1       13 0.10000000E+01 0.51022604E+02</pdfrwt>
<pdfrwt beam="2">  1       22 0.10720441E+00 0.51022604E+02</pdfrwt>
<totfact> 0.12704764E+00</totfact>
</mgrwt>
</event>
<event>
 4    1  0.2505250E+000  0.5342731E+02  0.7957747E-01  0.1427686E+00
         13   -1    0    0    0    0  0.00000000000E+00  0.00000000000E+00  0.99999944180E+02  0.10000000000E+03  0.10566000000E+00 0. -1.
         22   -1    0    0    0    0 -0.00000000000E+00 -0.00000000000E+00 -0.25919533840E+02  0.25919533840E+02  0.00000000000E+00 0. -1.
         13    1    1    2    0    0 -0.13252616501E+02  0.13373326510E+02 -0.13612249846E+02  0.23233213639E+02  0.10566000000E+00 0.  1.
        996    1    1    2    0    0  0.13252616501E+02 -0.13373326510E+02  0.87692660186E+02  0.10268632020E+03  0.50000000000E+02 0.  0.
<mgrwt>
<rscale>  0 0.53427312E+02</rscale>
<asrwt>0</asrwt>
<pdfrwt beam="1">  1       13 0.10000000E+01 0.53427312E+02</pdfrwt>
<pdfrwt beam="2">  1       22 0.25919555E+00 0.53427312E+02</pdfrwt>
<totfact> 0.27515808E-01</totfact>
</mgrwt>
</event>
<event>
 4    1  0.2505250E+000  0.5388315E+02  0.7957747E-01  0.1425456E+00
         13   -1    0    0    0    0  0.00000000000E+00  0.00000000000E+00  0.99999944184E+02  0.10000000000E+03  0.10566000000E+00 0.  1.
         22   -1    0    0    0    0 -0.00000000000E+00 -0.00000000000E+00 -0.13795887374E+02  0.13795887374E+02  0.00000000000E+00 0.  1.
         13    1    1    2    0    0  0.17011069356E+02  0.10677910720E+02  0.18895318251E+02  0.27576048916E+02  0.10566000000E+00 0. -1.
        996    1    1    2    0    0 -0.17011069356E+02 -0.10677910720E+02  0.67308738559E+02  0.86219838462E+02  0.50000000000E+02 0.  0.
<mgrwt>
<rscale>  0 0.53883154E+02</rscale>
<asrwt>0</asrwt>
<pdfrwt beam="1">  1       13 0.10000000E+01 0.53883154E+02</pdfrwt>
<pdfrwt beam="2">  1       22 0.13795911E+00 0.53883154E+02</pdfrwt>
<totfact> 0.86690979E-01</totfact>
</mgrwt>
</event>
<event>
 4    1  0.2505250E+000  0.5214184E+02  0.7957747E-01  0.1434120E+00
         13   -1    0    0    0    0  0.00000000000E+00  0.00000000000E+00  0.99999944175E+02  0.99999999995E+02  0.10566000000E+00 0. -1.
         22   -1    0    0    0    0 -0.00000000000E+00 -0.00000000000E+00 -0.69482697196E+02  0.69482697196E+02  0.00000000000E+00 0.  1.
         13    1    1    2    0    0 -0.12303249996E+02  0.82098268792E+01 -0.61752539700E+02  0.63499279848E+02  0.10566000000E+00 0.  1.
        996    1    1    2    0    0  0.12303249996E+02 -0.82098268792E+01  0.92269786679E+02  0.10598341734E+03  0.50000000000E+02 0.  0.
<mgrwt>
<rscale>  0 0.52141837E+02</rscale>
<asrwt>0</asrwt>
<pdfrwt beam="1">  1       13 0.10000000E+01 0.52141837E+02</pdfrwt>
<pdfrwt beam="2">  1       22 0.69482706E+00 0.52141837E+02</pdfrwt>
<totfact> 0.77215196E-02</totfact>
</mgrwt>
</event>
<event>
 4    1  0.2505250E+000  0.5160869E+02  0.7957747E-01  0.1436853E+00
         13   -1    0    0    0    0  0.00000000000E+00  0.00000000000E+00  0.99999944175E+02  0.99999999995E+02  0.10566000000E+00 0. -1.
         22   -1    0    0    0    0 -0.00000000000E+00 -0.00000000000E+00 -0.11091989150E+02  0.11091989150E+02  0.00000000000E+00 0. -1.
         13    1    1    2    0    0  0.89356896256E+01 -0.91438560601E+01  0.30949043116E+02  0.33485983434E+02  0.10566000000E+00 0.  1.
        996    1    1    2    0    0 -0.89356896256E+01  0.91438560601E+01  0.57958911909E+02  0.77606005711E+02  0.50000000000E+02 0.  0.
<mgrwt>
<rscale>  0 0.51608688E+02</rscale>
<asrwt>0</asrwt>
<pdfrwt beam="1">  1       13 0.10000000E+01 0.51608688E+02</pdfrwt>
<pdfrwt beam="2">  1       22 0.11092014E+00 0.51608688E+02</pdfrwt>
<totfact> 0.12095157E+00</totfact>
</mgrwt>
</event>
<event>
 4    1  0.2505250E+000  0.5180413E+02  0.7957747E-01  0.1435847E+00
         13   -1    0    0    0    0  0.00000000000E+00  0.00000000000E+00  0.99999944180E+02  0.10000000000E+03  0.10566000000E+00 0. -1.
         22   -1    0    0    0    0 -0.00000000000E+00 -0.00000000000E+00 -0.10681317467E+02  0.10681317467E+02  0.00000000000E+00 0.  1.
         13    1    1    2    0    0 -0.22226169610E+01 -0.13368903822E+02  0.19216789129E+02  0.23515181565E+02  0.10566000000E+00 0.  1.
        996    1    1    2    0    0  0.22226169610E+01  0.13368903822E+02  0.70101837584E+02  0.87166135902E+02  0.50000000000E+02 0.  0.
<mgrwt>
<rscale>  0 0.51804127E+02</rscale>
<asrwt>0</asrwt>
<pdfrwt beam="1">  1       13 0.10000000E+01 0.51804127E+02</pdfrwt>
<pdfrwt beam="2">  1       22 0.10681342E+00 0.51804127E+02</pdfrwt>
<totfact> 0.12797053E+00</totfact>
</mgrwt>
</event>
<event>
 4    1  0.2505250E+000  0.5123503E+02  0.7957747E-01  0.1438792E+00
         13   -1    0    0    0    0  0.00000000000E+00  0.00000000000E+00  0.99999944183E+02  0.10000000000E+03  0.10566000000E+00 0.  1.
         22   -1    0    0    0    0 -0.00000000000E+00 -0.00000000000E+00 -0.98904998913E+01  0.98904998913E+01  0.00000000000E+00 0.  1.
         13    1    1    2    0    0  0.87483946934E+01  0.69637665287E+01  0.21814697612E+02  0.24513682912E+02  0.10566000000E+00 0. -1.
        996    1    1    2    0    0 -0.87483946934E+01 -0.69637665287E+01  0.68294746679E+02  0.85376816982E+02  0.50000000000E+02 0.  0.
<mgrwt>
<rscale>  0 0.51235032E+02</rscale>
<asrwt>0</asrwt>
<pdfrwt beam="1">  1       13 0.10000000E+01 0.51235032E+02</pdfrwt>
<pdfrwt beam="2">  1       22 0.98905250E-01 0.51235032E+02</pdfrwt>
<totfact> 0.14297634E+00</totfact>
</mgrwt>
</event>
<event>
 4    1  0.2505250E+000  0.5179308E+02  0.7957747E-01  0.1435903E+00
         13   -1    0    0    0    0  0.00000000000E+00  0.00000000000E+00  0.99999944180E+02  0.10000000000E+03  0.10566000000E+00 0.  1.
         22   -1    0    0    0    0 -0.00000000000E+00 -0.00000000000E+00 -0.10892906202E+02  0.10892906202E+02  0.00000000000E+00 0. -1.
         13    1    1    2    0    0  0.13277632765E+02 -0.24955858282E+01  0.12405139181E+02  0.18341813504E+02  0.10566000000E+00 0. -1.
        996    1    1    2    0    0 -0.13277632765E+02  0.24955858282E+01  0.76701898797E+02  0.92551092698E+02  0.50000000000E+02 0.  0.
<mgrwt>
<rscale>  0 0.51793083E+02</rscale>
<asrwt>0</asrwt>
<pdfrwt beam="1">  1       13 0.10000000E+01 0.51793083E+02</pdfrwt>
<pdfrwt beam="2">  1       22 0.10892931E+00 0.51793083E+02</pdfrwt>
<totfact> 0.12430741E+00</totfact>
</mgrwt>
</event>
<event>
 4    1  0.2505250E+000  0.5352868E+02  0.7957747E-01  0.1427188E+00
         13   -1    0    0    0    0  0.00000000000E+00  0.00000000000E+00  0.99999944177E+02  0.99999999997E+02  0.10566000000E+00 0.  1.
         22   -1    0    0    0    0 -0.00000000000E+00 -0.00000000000E+00 -0.13193085054E+02  0.13193085054E+02  0.00000000000E+00 0.  1.
         13    1    1    2    0    0 -0.14819691767E+02 -0.12070452221E+02  0.22440972349E+02  0.29477575967E+02  0.10566000000E+00 0. -1.
        996    1    1    2    0    0  0.14819691767E+02  0.12070452221E+02  0.64365886774E+02  0.83715509083E+02  0.50000000000E+02 0.  0.
<mgrwt>
<rscale>  0 0.53528675E+02</rscale>
<asrwt>0</asrwt>
<pdfrwt beam="1">  1       13 0.10000000E+01 0.53528675E+02</pdfrwt>
<pdfrwt beam="2">  1       22 0.13193109E+00 0.53528675E+02</pdfrwt>
<totfact> 0.93042066E-01</totfact>
</mgrwt>
</event>
<event>
 4    1  0.2505250E+000  0.5121017E+02  0.7957747E-01  0.1438921E+00
         13   -1    0    0    0    0  0.00000000000E+00  0.00000000000E+00  0.99999944179E+02  0.99999999999E+02  0.10566000000E+00 0.  1.
         22   -1    0    0    0    0 -0.00000000000E+00 -0.00000000000E+00 -0.97288304145E+01  0.97288304145E+01  0.00000000000E+00 0.  1.
         13    1    1    2    0    0  0.11062426331E+02 -0.32254557763E+00  0.18568700726E+02  0.21616871250E+02  0.10566000000E+00 0. -1.
        996    1    1    2    0    0 -0.11062426331E+02  0.32254557763E+00  0.71702413039E+02  0.88111959163E+02  0.50000000000E+02 0.  0.
<mgrwt>
<rscale>  0 0.51210168E+02</rscale>
<asrwt>0</asrwt>
<pdfrwt beam="1">  1       13 0.10000000E+01 0.51210168E+02</pdfrwt>
<pdfrwt beam="2">  1       22 0.97288556E-01 0.51210168E+02</pdfrwt>
<totfact> 0.14640295E+00</totfact>
</mgrwt>
</event>
<event>
 4    1  0.2505250E+000  0.5112467E+02  0.7957747E-01  0.1439368E+00
         13   -1    0    0    0    0  0.00000000000E+00  0.00000000000E+00  0.99999944181E+02  0.10000000000E+03  0.10566000000E+00 0.  1.
         22   -1    0    0    0    0 -0.00000000000E+00 -0.00000000000E+00 -0.95648733070E+01  0.95648733070E+01  0.00000000000E+00 0.  1.
         13    1    1    2    0    0  0.42189684927E+01  0.97944790821E+01  0.13777041380E+02  0.17422673413E+02  0.10566000000E+00 0. -1.
        996    1    1    2    0    0 -0.42189684927E+01 -0.97944790821E+01  0.76658029494E+02  0.92142199895E+02  0.50000000000E+02 0.  0.
<mgrwt>
<rscale>  0 0.51124666E+02</rscale>
<asrwt>0</asrwt>
<pdfrwt beam="1">  1       13 0.10000000E+01 0.51124666E+02</pdfrwt>
<pdfrwt beam="2">  1       22 0.95648986E-01 0.51124666E+02</pdfrwt>
<totfact> 0.14998435E+00</totfact>
</mgrwt>
</event>
<event>
 4    1  0.2505250E+000  0.5437897E+02  0.7957747E-01  0.1423059E+00
         13   -1    0    0    0    0  0.00000000000E+00  0.00000000000E+00  0.99999944176E+02  0.99999999996E+02  0.10566000000E+00 0.  1.
         22   -1    0    0    0    0 -0.00000000000E+00 -0.00000000000E+00 -0.24161207364E+02  0.24161207364E+02  0.00000000000E+00 0. -1.
         13    1    1    2    0    0 -0.16550832492E+02  0.13532998667E+02 -0.91574516180E+01  0.23258164013E+02  0.10566000000E+00 0. -1.
        996    1    1    2    0    0  0.16550832492E+02 -0.13532998667E+02  0.84996188429E+02  0.10090304335E+03  0.50000000000E+02 0.  0.
<mgrwt>
<rscale>  0 0.54378968E+02</rscale>
<asrwt>0</asrwt>
<pdfrwt beam="1">  1       13 0.10000000E+01 0.54378968E+02</pdfrwt>
<pdfrwt beam="2">  1       22 0.24161229E+00 0.54378968E+02</pdfrwt>
<totfact> 0.31641279E-01</totfact>
</mgrwt>
</event>
<event>
 4    1  0.2505250E+000  0.5197729E+02  0.7957747E-01  0.1434959E+00
         13   -1    0    0    0    0  0.00000000000E+00  0.00000000000E+00  0.99999944178E+02  0.99999999999E+02  0.10566000000E+00 0. -1.
         22   -1    0    0    0    0 -0.00000000000E+00 -0.00000000000E+00 -0.14165661748E+02  0.14165661748E+02  0.00000000000E+00 0.  1.
         13    1    1    2    0    0 -0.81293146379E+01  0.11642729799E+02  0.45290203601E+00  0.14207575372E+02  0.10566000000E+00 0.  1.
        996    1    1    2    0    0  0.81293146379E+01 -0.11642729799E+02  0.85381380395E+02  0.99958086375E+02  0.50000000000E+02 0.  0.
<mgrwt>
<rscale>  0 0.51977292E+02</rscale>
<asrwt>0</asrwt>
<pdfrwt beam="1">  1       13 0.10000000E+01 0.51977292E+02</pdfrwt>
<pdfrwt beam="2">  1       22 0.14165686E+00 0.51977292E+02</pdfrwt>
<totfact> 0.82727636E-01</totfact>
</mgrwt>
</event>
<event>
 4    1  0.2505250E+000  0.5203020E+02  0.7957747E-01  0.1434689E+00
         13   -1    0    0    0    0  0.00000000000E+00  0.00000000000E+00  0.99999944179E+02  0.10000000000E+03  0.10566000000E+00 0. -1.
         22   -1    0    0    0    0 -0.00000000000E+00 -0.00000000000E+00 -0.33385570147E+02  0.33385570147E+02  0.00000000000E+00 0.  1.
         13    1    1    2    0    0  0.12852927253E+02  0.64764415923E+01 -0.24527204351E+02  0.28438300793E+02  0.10566000000E+00 0.  1.
        996    1    1    2    0    0 -0.12852927253E+02 -0.64764415923E+01  0.91141578383E+02  0.10494726935E+03  0.50000000000E+02 0.  0.
<mgrwt>
<rscale>  0 0.52030203E+02</rscale>
<asrwt>0</asrwt>
<pdfrwt beam="1">  1       13 0.10000000E+01 0.52030203E+02</pdfrwt>
<pdfrwt beam="2">  1       22 0.33385589E+00 0.52030203E+02</pdfrwt>
<totfact> 0.17066811E-01</totfact>
</mgrwt>
</event>
<event>
 4    1  0.2505250E+000  0.5145481E+02  0.7957747E-01  0.1437649E+00
         13   -1    0    0    0    0  0.00000000000E+00  0.00000000000E+00  0.99999944178E+02  0.99999999998E+02  0.10566000000E+00 0.  1.
         22   -1    0    0    0    0 -0.00000000000E+00 -0.00000000000E+00 -0.11454192979E+02  0.11454192979E+02  0.00000000000E+00 0.  1.
         13    1    1    2    0    0 -0.11520801595E+02  0.38559761249E+01  0.45949610503E+01  0.12989313005E+02  0.10566000000E+00 0. -1.
        996    1    1    2    0    0  0.11520801595E+02 -0.38559761249E+01  0.83950790149E+02  0.98464879972E+02  0.50000000000E+02 0.  0.
<mgrwt>
<rscale>  0 0.51454810E+02</rscale>
<asrwt>0</asrwt>
<pdfrwt beam="1">  1       13 0.10000000E+01 0.51454810E+02</pdfrwt>
<pdfrwt beam="2">  1       22 0.11454218E+00 0.51454810E+02</pdfrwt>
<totfact> 0.11522413E+00</totfact>
</mgrwt>
</event>
<event>
 4    1  0.2505250E+000  0.5120124E+02  0.7957747E-01  0.1438968E+00
         13   -1    0    0    0    0  0.00000000000E+00  0.00000000000E+00  0.99999944179E+02  0.99999999999E+02  0.10566000000E+00 0. -1.
         22   -1    0    0    0    0 -0.00000000000E+00 -0.00000000000E+00 -0.11429795334E+02  0.11429795334E+02  0.00000000000E+00 0. -1.
         13    1    1    2    0    0  0.90375483764E+01  0.63158495163E+01  0.37600521139E+02  0.39183894520E+02  0.10566000000E+00 0.  1.
        996    1    1    2    0    0 -0.90375483764E+01 -0.63158495163E+01  0.50969627706E+02  0.72245900813E+02  0.50000000000E+02 0.  0.
<mgrwt>
<rscale>  0 0.51201243E+02</rscale>
<asrwt>0</asrwt>
<pdfrwt beam="1">  1       13 0.10000000E+01 0.51201243E+02</pdfrwt>
<pdfrwt beam="2">  1       22 0.11429820E+00 0.51201243E+02</pdfrwt>
<totfact> 0.11552699E+00</totfact>
</mgrwt>
</event>
<event>
 4    1  0.2505250E+000  0.5250153E+02  0.7957747E-01  0.1432298E+00
         13   -1    0    0    0    0  0.00000000000E+00  0.00000000000E+00  0.99999944178E+02  0.99999999998E+02  0.10566000000E+00 0.  1.
         22   -1    0    0    0    0 -0.00000000000E+00 -0.00000000000E+00 -0.12622951921E+02  0.12622951921E+02  0.00000000000E+00 0.  1.
         13    1    1    2    0    0 -0.12631364288E+01 -0.15962927242E+02  0.92460533155E+01  0.18490841672E+02  0.10566000000E+00 0. -1.
        996    1    1    2    0    0  0.12631364288E+01  0.15962927242E+02  0.78130938941E+02  0.94132110247E+02  0.50000000000E+02 0.  0.
<mgrwt>
<rscale>  0 0.52501529E+02</rscale>
<asrwt>0</asrwt>
<pdfrwt beam="1">  1       13 0.10000000E+01 0.52501529E+02</pdfrwt>
<pdfrwt beam="2">  1       22 0.12622976E+00 0.52501529E+02</pdfrwt>
<totfact> 0.99516353E-01</totfact>
</mgrwt>
</event>
<event>
 4    1  0.2505250E+000  0.5163355E+02  0.7957747E-01  0.1436725E+00
         13   -1    0    0    0    0  0.00000000000E+00  0.00000000000E+00  0.99999944175E+02  0.99999999996E+02  0.10566000000E+00 0. -1.
         22   -1    0    0    0    0 -0.00000000000E+00 -0.00000000000E+00 -0.10514533803E+02  0.10514533803E+02  0.00000000000E+00 0. -1.
         13    1    1    2    0    0 -0.89465554132E+01 -0.92726601394E+01  0.13660286115E+02  0.18778649062E+02  0.10566000000E+00 0.  1.
        996    1    1    2    0    0  0.89465554132E+01  0.92726601394E+01  0.75825124257E+02  0.91735884737E+02  0.50000000000E+02 0.  0.
<mgrwt>
<rscale>  0 0.51633546E+02</rscale>
<asrwt>0</asrwt>
<pdfrwt beam="1">  1       13 0.10000000E+01 0.51633546E+02</pdfrwt>
<pdfrwt beam="2">  1       22 0.10514559E+00 0.51633546E+02</pdfrwt>
<totfact> 0.13091644E+00</totfact>
</mgrwt>
</event>
<event>
 4    1  0.2505250E+000  0.5149153E+02  0.7957747E-01  0.1437459E+00
         13   -1    0    0    0    0  0.00000000000E+00  0.00000000000E+00  0.99999944174E+02  0.99999999994E+02  0.10566000000E+00 0.  1.
         22   -1    0    0    0    0 -0.00000000000E+00 -0.00000000000E+00 -0.22965218433E+02  0.22965218433E+02  0.00000000000E+00 0. -1.
         13    1    1    2    0    0  0.90879226622E+01  0.82938090680E+01 -0.13838597843E+02  0.18517439388E+02  0.10566000000E+00 0. -1.
        996    1    1    2    0    0 -0.90879226622E+01 -0.82938090680E+01  0.90873323584E+02  0.10444777904E+03  0.50000000000E+02 0.  0.
<mgrwt>
<rscale>  0 0.51491529E+02</rscale>
<asrwt>0</asrwt>
<pdfrwt beam="1">  1       13 0.10000000E+01 0.51491529E+02</pdfrwt>
<pdfrwt beam="2">  1       22 0.22965240E+00 0.51491529E+02</pdfrwt>
<totfact> 0.34778792E-01</totfact>
</mgrwt>
</event>
<event>
 4    1  0.2505250E+000  0.5119602E+02  0.7957747E-01  0.1438995E+00
         13   -1    0    0    0    0  0.00000000000E+00  0.00000000000E+00  0.99999944181E+02  0.10000000000E+03  0.10566000000E+00 0. -1.
         22   -1    0    0    0    0 -0.00000000000E+00 -0.00000000000E+00 -0.12300241684E+02  0.12300241684E+02  0.00000000000E+00 0.  1.
         13    1    1    2    0    0  0.51444726019E+01  0.97245268591E+01  0.29543592876E+00  0.11005928739E+02  0.10566000000E+00 0.  1.
        996    1    1    2    0    0 -0.51444726019E+01 -0.97245268591E+01  0.87404266568E+02  0.10129431295E+03  0.50000000000E+02 0.  0.
<mgrwt>
<rscale>  0 0.51196016E+02</rscale>
<asrwt>0</asrwt>
<pdfrwt beam="1">  1       13 0.10000000E+01 0.51196016E+02</pdfrwt>
<pdfrwt beam="2">  1       22 0.12300266E+00 0.51196016E+02</pdfrwt>
<totfact> 0.10329873E+00</totfact>
</mgrwt>
</event>
<event>
 4    1  0.2505250E+000  0.5172277E+02  0.7957747E-01  0.1436265E+00
         13   -1    0    0    0    0  0.00000000000E+00  0.00000000000E+00  0.99999944183E+02  0.10000000000E+03  0.10566000000E+00 0. -1.
         22   -1    0    0    0    0 -0.00000000000E+00 -0.00000000000E+00 -0.10786393174E+02  0.10786393174E+02  0.00000000000E+00 0. -1.
         13    1    1    2    0    0  0.58652930765E+01  0.11867739084E+02  0.12112904530E+02  0.17943759752E+02  0.10566000000E+00 0.  1.
        996    1    1    2    0    0 -0.58652930765E+01 -0.11867739084E+02  0.77100646479E+02  0.92842633425E+02  0.50000000000E+02 0.  0.
<mgrwt>
<rscale>  0 0.51722770E+02</rscale>
<asrwt>0</asrwt>
<pdfrwt beam="1">  1       13 0.10000000E+01 0.51722770E+02</pdfrwt>
<pdfrwt beam="2">  1       22 0.10786418E+00 0.51722770E+02</pdfrwt>
<totfact> 0.12610936E+00</totfact>
</mgrwt>
</event>
<event>
 4    1  0.2505250E+000  0.5181619E+02  0.7957747E-01  0.1435785E+00
         13   -1    0    0    0    0  0.00000000000E+00  0.00000000000E+00  0.99999944176E+02  0.99999999996E+02  0.10566000000E+00 0. -1.
         22   -1    0    0    0    0 -0.00000000000E+00 -0.00000000000E+00 -0.16436803357E+02  0.16436803357E+02  0.00000000000E+00 0.  1.
         13    1    1    2    0    0  0.18186379340E+01  0.13476276683E+02 -0.44457181349E+01  0.14307097922E+02  0.10566000000E+00 0.  1.
        996    1    1    2    0    0 -0.18186379340E+01 -0.13476276683E+02  0.88008858953E+02  0.10212970543E+03  0.50000000000E+02 0.  0.
<mgrwt>
<rscale>  0 0.51816189E+02</rscale>
<asrwt>0</asrwt>
<pdfrwt beam="1">  1       13 0.10000000E+01 0.51816189E+02</pdfrwt>
<pdfrwt beam="2">  1       22 0.16436827E+00 0.51816189E+02</pdfrwt>
<totfact> 0.64446336E-01</totfact>
</mgrwt>
</event>
<event>
 4    1  0.2505250E+000  0.5335962E+02  0.7957747E-01  0.1428019E+00
         13   -1    0    0    0    0  0.00000000000E+00  0.00000000000E+00  0.99999944178E+02  0.99999999998E+02  0.10566000000E+00 0. -1.
         22   -1    0    0    0    0 -0.00000000000E+00 -0.00000000000E+00 -0.35118842711E+02  0.35118842711E+02  0.00000000000E+00 0.  1.
         13    1    1    2    0    0  0.16256229249E+02 -0.91095476365E+01 -0.24644948624E+02  0.30897143950E+02  0.10566000000E+00 0.  1.
        996    1    1    2    0    0 -0.16256229249E+02  0.91095476365E+01  0.89526050090E+02  0.10422169876E+03  0.50000000000E+02 0.  0.
<mgrwt>
<rscale>  0 0.53359618E+02</rscale>
<asrwt>0</asrwt>
<pdfrwt beam="1">  1       13 0.10000000E+01 0.53359618E+02</pdfrwt>
<pdfrwt beam="2">  1       22 0.35118861E+00 0.53359618E+02</pdfrwt>
<totfact> 0.15643411E-01</totfact>
</mgrwt>
</event>
<event>
 4    1  0.2505250E+000  0.7256232E+02  0.7957747E-01  0.1351590E+00
         13   -1    0    0    0    0  0.00000000000E+00  0.00000000000E+00  0.99999944169E+02  0.99999999990E+02  0.10566000000E+00 0.  1.
         22   -1    0    0    0    0 -0.00000000000E+00 -0.00000000000E+00 -0.71848259852E+02  0.71848259852E+02  0.00000000000E+00 0. -1.
         13    1    1    2    0    0  0.27100908116E+02  0.45064743825E+02 -0.44705529877E+02  0.69020909313E+02  0.10566000000E+00 0. -1.
        996    1    1    2    0    0 -0.27100908116E+02 -0.45064743825E+02  0.72857214194E+02  0.10282735053E+03  0.50000000000E+02 0.  0.
<mgrwt>
<rscale>  0 0.72562321E+02</rscale>
<asrwt>0</asrwt>
<pdfrwt beam="1">  1       13 0.10000000E+01 0.72562321E+02</pdfrwt>
<pdfrwt beam="2">  1       22 0.71848268E+00 0.72562321E+02</pdfrwt>
<totfact> 0.64839637E-02</totfact>
</mgrwt>
</event>
<event>
 4    1  0.2505250E+000  0.5176106E+02  0.7957747E-01  0.1436068E+00
         13   -1    0    0    0    0  0.00000000000E+00  0.00000000000E+00  0.99999944180E+02  0.10000000000E+03  0.10566000000E+00 0. -1.
         22   -1    0    0    0    0 -0.00000000000E+00 -0.00000000000E+00 -0.12750978021E+02  0.12750978021E+02  0.00000000000E+00 0. -1.
         13    1    1    2    0    0  0.23228411608E+01  0.13183770469E+02  0.27624449932E+01  0.13669296296E+02  0.10566000000E+00 0.  1.
        996    1    1    2    0    0 -0.23228411608E+01 -0.13183770469E+02  0.84486521166E+02  0.99081681726E+02  0.50000000000E+02 0.  0.
<mgrwt>
<rscale>  0 0.51761061E+02</rscale>
<asrwt>0</asrwt>
<pdfrwt beam="1">  1       13 0.10000000E+01 0.51761061E+02</pdfrwt>
<pdfrwt beam="2">  1       22 0.12751002E+00 0.51761061E+02</pdfrwt>
<totfact> 0.97802057E-01</totfact>
</mgrwt>
</event>
<event>
 4    1  0.2505250E+000  0.5172390E+02  0.7957747E-01  0.1436259E+00
         13   -1    0    0    0    0  0.00000000000E+00  0.00000000000E+00  0.99999944186E+02  0.10000000001E+03  0.10566000000E+00 0.  1.
         22   -1    0    0    0    0 -0.00000000000E+00 -0.00000000000E+00 -0.20106221624E+02  0.20106221624E+02  0.00000000000E+00 0.  1.
         13    1    1    2    0    0 -0.10747009037E+02 -0.77371858708E+01 -0.98633079200E+01  0.16512366748E+02  0.10566000000E+00 0. -1.
        996    1    1    2    0    0  0.10747009037E+02  0.77371858708E+01  0.89757030482E+02  0.10359385488E+03  0.50000000000E+02 0.  0.
<mgrwt>
<rscale>  0 0.51723904E+02</rscale>
<asrwt>0</asrwt>
<pdfrwt beam="1">  1       13 0.10000000E+01 0.51723904E+02</pdfrwt>
<pdfrwt beam="2">  1       22 0.20106244E+00 0.51723904E+02</pdfrwt>
<totfact> 0.44839725E-01</totfact>
</mgrwt>
</event>
<event>
 4    1  0.2505250E+000  0.5117161E+02  0.7957747E-01  0.1439123E+00
         13   -1    0    0    0    0  0.00000000000E+00  0.00000000000E+00  0.99999944175E+02  0.99999999995E+02  0.10566000000E+00 0. -1.
         22   -1    0    0    0    0 -0.00000000000E+00 -0.00000000000E+00 -0.11491147533E+02  0.11491147533E+02  0.00000000000E+00 0. -1.
         13    1    1    2    0    0 -0.10805037436E+02  0.13358628299E+01  0.21321178970E+01  0.11094613750E+02  0.10566000000E+00 0.  1.
        996    1    1    2    0    0  0.10805037436E+02 -0.13358628299E+01  0.86376678745E+02  0.10039653378E+03  0.50000000000E+02 0.  0.
<mgrwt>
<rscale>  0 0.51171607E+02</rscale>
<asrwt>0</asrwt>
<pdfrwt beam="1">  1       13 0.10000000E+01 0.51171607E+02</pdfrwt>
<pdfrwt beam="2">  1       22 0.11491172E+00 0.51171607E+02</pdfrwt>
<totfact> 0.11459141E+00</totfact>
</mgrwt>
</event>
<event>
 4    1  0.2505250E+000  0.5373630E+02  0.7957747E-01  0.1426171E+00
         13   -1    0    0    0    0  0.00000000000E+00  0.00000000000E+00  0.99999944178E+02  0.99999999998E+02  0.10566000000E+00 0. -1.
         22   -1    0    0    0    0 -0.00000000000E+00 -0.00000000000E+00 -0.21628747798E+02  0.21628747798E+02  0.00000000000E+00 0.  1.
         13    1    1    2    0    0  0.16643235454E+02 -0.10516282318E+02 -0.68798854774E+01  0.20855058581E+02  0.10566000000E+00 0.  1.
        996    1    1    2    0    0 -0.16643235454E+02  0.10516282318E+02  0.85251081858E+02  0.10077368922E+03  0.50000000000E+02 0.  0.
<mgrwt>
<rscale>  0 0.53736296E+02</rscale>
<asrwt>0</asrwt>
<pdfrwt beam="1">  1       13 0.10000000E+01 0.53736296E+02</pdfrwt>
<pdfrwt beam="2">  1       22 0.21628770E+00 0.53736296E+02</pdfrwt>
<totfact> 0.39190984E-01</totfact>
</mgrwt>
</event>
<event>
 4    1  0.2505250E+000  0.5109183E+02  0.7957747E-01  0.1439540E+00
         13   -1    0    0    0    0  0.00000000000E+00  0.00000000000E+00  0.99999944176E+02  0.99999999997E+02  0.10566000000E+00 0.  1.
         22   -1    0    0    0    0 -0.00000000000E+00 -0.00000000000E+00 -0.25385401049E+02  0.25385401049E+02  0.00000000000E+00 0. -1.
         13    1    1    2    0    0  0.46914410546E+01 -0.94003063927E+01 -0.17291193426E+02  0.20232941298E+02  0.10566000000E+00 0. -1.
        996    1    1    2    0    0 -0.46914410546E+01  0.94003063927E+01  0.91905736554E+02  0.10515245975E+03  0.50000000000E+02 0.  0.
<mgrwt>
<rscale>  0 0.51091833E+02</rscale>
<asrwt>0</asrwt>
<pdfrwt beam="1">  1       13 0.10000000E+01 0.51091833E+02</pdfrwt>
<pdfrwt beam="2">  1       22 0.25385422E+00 0.51091833E+02</pdfrwt>
<totfact> 0.28564462E-01</totfact>
</mgrwt>
</event>
<event>
 4    1  0.2505250E+000  0.5146533E+02  0.7957747E-01  0.1437594E+00
         13   -1    0    0    0    0  0.00000000000E+00  0.00000000000E+00  0.99999944174E+02  0.99999999994E+02  0.10566000000E+00 0.  1.
         22   -1    0    0    0    0 -0.00000000000E+00 -0.00000000000E+00 -0.17506665800E+02  0.17506665800E+02  0.00000000000E+00 0.  1.
         13    1    1    2    0    0 -0.69465243392E+00  0.12173639766E+02 -0.71534895973E+01  0.14137313204E+02  0.10566000000E+00 0. -1.
        996    1    1    2    0    0  0.69465243392E+00 -0.12173639766E+02  0.89646767972E+02  0.10336935259E+03  0.50000000000E+02 0.  0.
<mgrwt>
<rscale>  0 0.51465329E+02</rscale>
<asrwt>0</asrwt>
<pdfrwt beam="1">  1       13 0.10000000E+01 0.51465329E+02</pdfrwt>
<pdfrwt beam="2">  1       22 0.17506689E+00 0.51465329E+02</pdfrwt>
<totfact> 0.57671923E-01</totfact>
</mgrwt>
</event>
<event>
 4    1  0.2505250E+000  0.5171664E+02  0.7957747E-01  0.1436296E+00
         13   -1    0    0    0    0  0.00000000000E+00  0.00000000000E+00  0.99999944181E+02  0.10000000000E+03  0.10566000000E+00 0. -1.
         22   -1    0    0    0    0 -0.00000000000E+00 -0.00000000000E+00 -0.34925925095E+02  0.34925925095E+02  0.00000000000E+00 0.  1.
         13    1    1    2    0    0 -0.57323373131E+01  0.11905913330E+02 -0.26582341427E+02  0.29685728946E+02  0.10566000000E+00 0.  1.
        996    1    1    2    0    0  0.57323373131E+01 -0.11905913330E+02  0.91656360512E+02  0.10524019615E+03  0.50000000000E+02 0.  0.
<mgrwt>
<rscale>  0 0.51716636E+02</rscale>
<asrwt>0</asrwt>
<pdfrwt beam="1">  1       13 0.10000000E+01 0.51716636E+02</pdfrwt>
<pdfrwt beam="2">  1       22 0.34925943E+00 0.51716636E+02</pdfrwt>
<totfact> 0.15767791E-01</totfact>
</mgrwt>
</event>
<event>
 4    1  0.2505250E+000  0.5109646E+02  0.7957747E-01  0.1439516E+00
         13   -1    0    0    0    0  0.00000000000E+00  0.00000000000E+00  0.99999944174E+02  0.99999999994E+02  0.10566000000E+00 0. -1.
         22   -1    0    0    0    0 -0.00000000000E+00 -0.00000000000E+00 -0.11525266017E+02  0.11525266017E+02  0.00000000000E+00 0.  1.
         13    1    1    2    0    0  0.50691056306E+01  0.92277868803E+01  0.14770252765E+01  0.10632057670E+02  0.10566000000E+00 0.  1.
        996    1    1    2    0    0 -0.50691056306E+01 -0.92277868803E+01  0.86997652880E+02  0.10089320834E+03  0.50000000000E+02 0.  0.
<mgrwt>
<rscale>  0 0.51096457E+02</rscale>
<asrwt>0</asrwt>
<pdfrwt beam="1">  1       13 0.10000000E+01 0.51096457E+02</pdfrwt>
<pdfrwt beam="2">  1       22 0.11525291E+00 0.51096457E+02</pdfrwt>
<totfact> 0.11406040E+00</totfact>
</mgrwt>
</event>
<event>
 4    1  0.2505250E+000  0.5210814E+02  0.7957747E-01  0.1434292E+00
         13   -1    0    0    0    0  0.00000000000E+00  0.00000000000E+00  0.99999944181E+02  0.10000000000E+03  0.10566000000E+00 0. -1.
         22   -1    0    0    0    0 -0.00000000000E+00 -0.00000000000E+00 -0.20387058207E+02  0.20387058207E+02  0.00000000000E+00 0.  1.
         13    1    1    2    0    0 -0.32616211313E+01 -0.14304557038E+02 -0.92704867725E+01  0.17355449101E+02  0.10566000000E+00 0.  1.
        996    1    1    2    0    0  0.32616211313E+01  0.14304557038E+02  0.88883372747E+02  0.10303160911E+03  0.50000000000E+02 0.  0.
<mgrwt>
<rscale>  0 0.52108143E+02</rscale>
<asrwt>0</asrwt>
<pdfrwt beam="1">  1       13 0.10000000E+01 0.52108143E+02</pdfrwt>
<pdfrwt beam="2">  1       22 0.20387080E+00 0.52108143E+02</pdfrwt>
<totfact> 0.43719616E-01</totfact>
</mgrwt>
</event>
<event>
 4    1  0.2505250E+000  0.5857399E+02  0.7957747E-01  0.1403915E+00
         13   -1    0    0    0    0  0.00000000000E+00  0.00000000000E+00  0.99999944180E+02  0.10000000000E+03  0.10566000000E+00 0.  1.
         22   -1    0    0    0    0 -0.00000000000E+00 -0.00000000000E+00 -0.22464720914E+02  0.22464720914E+02  0.00000000000E+00 0.  1.
         13    1    1    2    0    0  0.51087766253E+01 -0.30080108313E+02  0.79913241903E+01  0.31540211494E+02  0.10566000000E+00 0. -1.
        996    1    1    2    0    0 -0.51087766253E+01  0.30080108313E+02  0.69543899076E+02  0.90924509421E+02  0.50000000000E+02 0.  0.
<mgrwt>
<rscale>  0 0.58573992E+02</rscale>
<asrwt>0</asrwt>
<pdfrwt beam="1">  1       13 0.10000000E+01 0.58573992E+02</pdfrwt>
<pdfrwt beam="2">  1       22 0.22464743E+00 0.58573992E+02</pdfrwt>
<totfact> 0.36706293E-01</totfact>
</mgrwt>
</event>
<event>
 4    1  0.2505250E+000  0.5607528E+02  0.7957747E-01  0.1415081E+00
         13   -1    0    0    0    0  0.00000000000E+00  0.00000000000E+00  0.99999944172E+02  0.99999999992E+02  0.10566000000E+00 0. -1.
         22   -1    0    0    0    0 -0.00000000000E+00 -0.00000000000E+00 -0.34212605786E+02  0.34212605786E+02  0.00000000000E+00 0.  1.
         13    1    1    2    0    0  0.56335364050E+00  0.25379511380E+02 -0.19590814798E+02  0.32066308701E+02  0.10566000000E+00 0.  1.
        996    1    1    2    0    0 -0.56335364050E+00 -0.25379511380E+02  0.85378153184E+02  0.10214629708E+03  0.50000000000E+02 0.  0.
<mgrwt>
<rscale>  0 0.56075279E+02</rscale>
<asrwt>0</asrwt>
<pdfrwt beam="1">  1       13 0.10000000E+01 0.56075279E+02</pdfrwt>
<pdfrwt beam="2">  1       22 0.34212624E+00 0.56075279E+02</pdfrwt>
<totfact> 0.16419955E-01</totfact>
</mgrwt>
</event>
<event>
 4    1  0.2505250E+000  0.5324824E+02  0.7957747E-01  0.1428569E+00
         13   -1    0    0    0    0  0.00000000000E+00  0.00000000000E+00  0.99999944174E+02  0.99999999994E+02  0.10566000000E+00 0. -1.
         22   -1    0    0    0    0 -0.00000000000E+00 -0.00000000000E+00 -0.52416161459E+02  0.52416161459E+02  0.00000000000E+00 0.  1.
         13    1    1    2    0    0 -0.11415702293E+02 -0.14319790900E+02 -0.43338488815E+02  0.47049021744E+02  0.10566000000E+00 0.  1.
        996    1    1    2    0    0  0.11415702293E+02  0.14319790900E+02  0.90922271531E+02  0.10536713971E+03  0.50000000000E+02 0.  0.
<mgrwt>
<rscale>  0 0.53248236E+02</rscale>
<asrwt>0</asrwt>
<pdfrwt beam="1">  1       13 0.10000000E+01 0.53248236E+02</pdfrwt>
<pdfrwt beam="2">  1       22 0.52416175E+00 0.53248236E+02</pdfrwt>
<totfact> 0.64977621E-02</totfact>
</mgrwt>
</event>
<event>
 4    1  0.2505250E+000  0.5207627E+02  0.7957747E-01  0.1434454E+00
         13   -1    0    0    0    0  0.00000000000E+00  0.00000000000E+00  0.99999944185E+02  0.10000000001E+03  0.10566000000E+00 0.  1.
         22   -1    0    0    0    0 -0.00000000000E+00 -0.00000000000E+00 -0.11183993838E+02  0.11183993838E+02  0.00000000000E+00 0.  1.
         13    1    1    2    0    0  0.13995217961E+02  0.40088996409E+01  0.15613515808E+02  0.21347843966E+02  0.10566000000E+00 0. -1.
        996    1    1    2    0    0 -0.13995217961E+02 -0.40088996409E+01  0.73202434539E+02  0.89836149876E+02  0.50000000000E+02 0.  0.
<mgrwt>
<rscale>  0 0.52076265E+02</rscale>
<asrwt>0</asrwt>
<pdfrwt beam="1">  1       13 0.10000000E+01 0.52076265E+02</pdfrwt>
<pdfrwt beam="2">  1       22 0.11184019E+00 0.52076265E+02</pdfrwt>
<totfact> 0.11959760E+00</totfact>
</mgrwt>
</event>
<event>
 4    1  0.2505250E+000  0.5197998E+02  0.7957747E-01  0.1434946E+00
         13   -1    0    0    0    0  0.00000000000E+00  0.00000000000E+00  0.99999944178E+02  0.99999999999E+02  0.10566000000E+00 0.  1.
         22   -1    0    0    0    0 -0.00000000000E+00 -0.00000000000E+00 -0.25689239653E+02  0.25689239653E+02  0.00000000000E+00 0. -1.
         13    1    1    2    0    0 -0.14205494616E+02 -0.34999274416E+00 -0.16054797165E+02  0.21440294966E+02  0.10566000000E+00 0. -1.
        996    1    1    2    0    0  0.14205494616E+02  0.34999274416E+00  0.90365501690E+02  0.10424894469E+03  0.50000000000E+02 0.  0.
<mgrwt>
<rscale>  0 0.51979982E+02</rscale>
<asrwt>0</asrwt>
<pdfrwt beam="1">  1       13 0.10000000E+01 0.51979982E+02</pdfrwt>
<pdfrwt beam="2">  1       22 0.25689260E+00 0.51979982E+02</pdfrwt>
<totfact> 0.27942248E-01</totfact>
</mgrwt>
</event>
<event>
 4    1  0.2505250E+000  0.5142856E+02  0.7957747E-01  0.1437785E+00
         13   -1    0    0    0    0  0.00000000000E+00  0.00000000000E+00  0.99999944176E+02  0.99999999996E+02  0.10566000000E+00 0. -1.
         22   -1    0    0    0    0 -0.00000000000E+00 -0.00000000000E+00 -0.10106509669E+02  0.10106509669E+02  0.00000000000E+00 0. -1.
         13    1    1    2    0    0 -0.69929622818E+01 -0.97977251498E+01  0.14550856267E+02  0.18884796046E+02  0.10566000000E+00 0.  1.
        996    1    1    2    0    0  0.69929622818E+01  0.97977251498E+01  0.75342578241E+02  0.91221713619E+02  0.50000000000E+02 0.  0.
<mgrwt>
<rscale>  0 0.51428562E+02</rscale>
<asrwt>0</asrwt>
<pdfrwt beam="1">  1       13 0.10000000E+01 0.51428562E+02</pdfrwt>
<pdfrwt beam="2">  1       22 0.10106535E+00 0.51428562E+02</pdfrwt>
<totfact> 0.13863765E+00</totfact>
</mgrwt>
</event>
<event>
 4    1  0.2505250E+000  0.5443408E+02  0.7957747E-01  0.1422794E+00
         13   -1    0    0    0    0  0.00000000000E+00  0.00000000000E+00  0.99999944176E+02  0.99999999996E+02  0.10566000000E+00 0.  1.
         22   -1    0    0    0    0 -0.00000000000E+00 -0.00000000000E+00 -0.28017228870E+02  0.28017228870E+02  0.00000000000E+00 0. -1.
         13    1    1    2    0    0 -0.15427250584E+02 -0.15002317748E+02 -0.14415158090E+02  0.25901303929E+02  0.10566000000E+00 0. -1.
        996    1    1    2    0    0  0.15427250584E+02  0.15002317748E+02  0.86397873396E+02  0.10211592494E+03  0.50000000000E+02 0.  0.
<mgrwt>
<rscale>  0 0.54434085E+02</rscale>
<asrwt>0</asrwt>
<pdfrwt beam="1">  1       13 0.10000000E+01 0.54434085E+02</pdfrwt>
<pdfrwt beam="2">  1       22 0.28017249E+00 0.54434085E+02</pdfrwt>
<totfact> 0.23662597E-01</totfact>
</mgrwt>
</event>
<event>
 4    1  0.2505250E+000  0.5873778E+02  0.7957747E-01  0.1403206E+00
         13   -1    0    0    0    0  0.00000000000E+00  0.00000000000E+00  0.99999944175E+02  0.99999999995E+02  0.10566000000E+00 0.  1.
         22   -1    0    0    0    0 -0.00000000000E+00 -0.00000000000E+00 -0.35582858385E+02  0.35582858385E+02  0.00000000000E+00 0. -1.
         13    1    1    2    0    0  0.30630474420E+02 -0.34497461108E+01 -0.16990647498E+02  0.35196874546E+02  0.10566000000E+00 0. -1.
        996    1    1    2    0    0 -0.30630474420E+02  0.34497461108E+01  0.81407733287E+02  0.10038598383E+03  0.50000000000E+02 0.  0.
<mgrwt>
<rscale>  0 0.58737779E+02</rscale>
<asrwt>0</asrwt>
<pdfrwt beam="1">  1       13 0.10000000E+01 0.58737779E+02</pdfrwt>
<pdfrwt beam="2">  1       22 0.35582876E+00 0.58737779E+02</pdfrwt>
<totfact> 0.15365717E-01</totfact>
</mgrwt>
</event>
<event>
 4    1  0.2505250E+000  0.5275630E+02  0.7957747E-01  0.1431018E+00
         13   -1    0    0    0    0  0.00000000000E+00  0.00000000000E+00  0.99999944181E+02  0.10000000000E+03  0.10566000000E+00 0.  1.
         22   -1    0    0    0    0 -0.00000000000E+00 -0.00000000000E+00 -0.26890658073E+02  0.26890658073E+02  0.00000000000E+00 0. -1.
         13    1    1    2    0    0 -0.92855229209E+01 -0.14035891467E+02 -0.16073457351E+02  0.23272180398E+02  0.10566000000E+00 0. -1.
        996    1    1    2    0    0  0.92855229209E+01  0.14035891467E+02  0.89182743459E+02  0.10361847768E+03  0.50000000000E+02 0.  0.
<mgrwt>
<rscale>  0 0.52756300E+02</rscale>
<asrwt>0</asrwt>
<pdfrwt beam="1">  1       13 0.10000000E+01 0.52756300E+02</pdfrwt>
<pdfrwt beam="2">  1       22 0.26890678E+00 0.52756300E+02</pdfrwt>
<totfact> 0.25572778E-01</totfact>
</mgrwt>
</event>
<event>
 4    1  0.2505250E+000  0.5175646E+02  0.7957747E-01  0.1436092E+00
         13   -1    0    0    0    0  0.00000000000E+00  0.00000000000E+00  0.99999944183E+02  0.10000000000E+03  0.10566000000E+00 0. -1.
         22   -1    0    0    0    0 -0.00000000000E+00 -0.00000000000E+00 -0.13434554150E+02  0.13434554150E+02  0.00000000000E+00 0.  1.
         13    1    1    2    0    0  0.74001883536E+00  0.13348548421E+02  0.96560737562E+00  0.13404287913E+02  0.10566000000E+00 0.  1.
        996    1    1    2    0    0 -0.74001883536E+00 -0.13348548421E+02  0.85599782658E+02  0.10003026624E+03  0.50000000000E+02 0.  0.
<mgrwt>
<rscale>  0 0.51756462E+02</rscale>
<asrwt>0</asrwt>
<pdfrwt beam="1">  1       13 0.10000000E+01 0.51756462E+02</pdfrwt>
<pdfrwt beam="2">  1       22 0.13434578E+00 0.51756462E+02</pdfrwt>
<totfact> 0.90058907E-01</totfact>
</mgrwt>
</event>
<event>
 4    1  0.2505250E+000  0.5432148E+02  0.7957747E-01  0.1423335E+00
         13   -1    0    0    0    0  0.00000000000E+00  0.00000000000E+00  0.99999944179E+02  0.10000000000E+03  0.10566000000E+00 0.  1.
         22   -1    0    0    0    0 -0.00000000000E+00 -0.00000000000E+00 -0.17199199717E+02  0.17199199717E+02  0.00000000000E+00 0. -1.
         13    1    1    2    0    0 -0.12600205194E+02  0.17089691558E+02  0.41846320987E+01  0.21641280884E+02  0.10566000000E+00 0. -1.
        996    1    1    2    0    0  0.12600205194E+02 -0.17089691558E+02  0.78616112363E+02  0.95557918833E+02  0.50000000000E+02 0.  0.
<mgrwt>
<rscale>  0 0.54321476E+02</rscale>
<asrwt>0</asrwt>
<pdfrwt beam="1">  1       13 0.10000000E+01 0.54321476E+02</pdfrwt>
<pdfrwt beam="2">  1       22 0.17199223E+00 0.54321476E+02</pdfrwt>
<totfact> 0.59828052E-01</totfact>
</mgrwt>
</event>
<event>
 4    1  0.2505250E+000  0.5442377E+02  0.7957747E-01  0.1422844E+00
         13   -1    0    0    0    0  0.00000000000E+00  0.00000000000E+00  0.99999944174E+02  0.99999999994E+02  0.10566000000E+00 0.  1.
         22   -1    0    0    0    0 -0.00000000000E+00 -0.00000000000E+00 -0.16496863310E+02  0.16496863310E+02  0.00000000000E+00 0. -1.
         13    1    1    2    0    0 -0.17365565076E+02 -0.12664294952E+02  0.69881126672E+01  0.22600710160E+02  0.10566000000E+00 0. -1.
        996    1    1    2    0    0  0.17365565076E+02  0.12664294952E+02  0.76514968197E+02  0.93896153144E+02  0.50000000000E+02 0.  0.
<mgrwt>
<rscale>  0 0.54423774E+02</rscale>
<asrwt>0</asrwt>
<pdfrwt beam="1">  1       13 0.10000000E+01 0.54423774E+02</pdfrwt>
<pdfrwt beam="2">  1       22 0.16496887E+00 0.54423774E+02</pdfrwt>
<totfact> 0.64362321E-01</totfact>
</mgrwt>
</event>
<event>
 4    1  0.2505250E+000  0.5277246E+02  0.7957747E-01  0.1430937E+00
         13   -1    0    0    0    0  0.00000000000E+00  0.00000000000E+00  0.99999944177E+02  0.99999999997E+02  0.10566000000E+00 0. -1.
         22   -1    0    0    0    0 -0.00000000000E+00 -0.00000000000E+00 -0.13291839587E+02  0.13291839587E+02  0.00000000000E+00 0. -1.
         13    1    1    2    0    0 -0.15778811810E+02  0.59967886118E+01  0.83825987953E+01  0.18847055536E+02  0.10566000000E+00 0.  1.
        996    1    1    2    0    0  0.15778811810E+02 -0.59967886118E+01  0.78325505795E+02  0.94444784048E+02  0.50000000000E+02 0.  0.
<mgrwt>
<rscale>  0 0.52772458E+02</rscale>
<asrwt>0</asrwt>
<pdfrwt beam="1">  1       13 0.10000000E+01 0.52772458E+02</pdfrwt>
<pdfrwt beam="2">  1       22 0.13291864E+00 0.52772458E+02</pdfrwt>
<totfact> 0.91801470E-01</totfact>
</mgrwt>
</event>
<event>
 4    1  0.2505250E+000  0.5318652E+02  0.7957747E-01  0.1428875E+00
         13   -1    0    0    0    0  0.00000000000E+00  0.00000000000E+00  0.99999944178E+02  0.99999999998E+02  0.10566000000E+00 0.  1.
         22   -1    0    0    0    0 -0.00000000000E+00 -0.00000000000E+00 -0.12923399537E+02  0.12923399537E+02  0.00000000000E+00 0. -1.
         13    1    1    2    0    0 -0.97737970393E+01 -0.15273460922E+02  0.16241522011E+02  0.24343457404E+02  0.10566000000E+00 0. -1.
        996    1    1    2    0    0  0.97737970393E+01  0.15273460922E+02  0.70835022630E+02  0.88579942132E+02  0.50000000000E+02 0.  0.
<mgrwt>
<rscale>  0 0.53186518E+02</rscale>
<asrwt>0</asrwt>
<pdfrwt beam="1">  1       13 0.10000000E+01 0.53186518E+02</pdfrwt>
<pdfrwt beam="2">  1       22 0.12923424E+00 0.53186518E+02</pdfrwt>
<totfact> 0.96057580E-01</totfact>
</mgrwt>
</event>
<event>
 4    1  0.2505250E+000  0.5350470E+02  0.7957747E-01  0.1427306E+00
         13   -1    0    0    0    0  0.00000000000E+00  0.00000000000E+00  0.99999944178E+02  0.99999999998E+02  0.10566000000E+00 0.  1.
         22   -1    0    0    0    0 -0.00000000000E+00 -0.00000000000E+00 -0.15550303246E+02  0.15550303246E+02  0.00000000000E+00 0.  1.
         13    1    1    2    0    0  0.61039463987E+01  0.18041473766E+02  0.48749557322E+01  0.19660348286E+02  0.10566000000E+00 0. -1.
        996    1    1    2    0    0 -0.61039463987E+01 -0.18041473766E+02  0.79574685199E+02  0.95889954958E+02  0.50000000000E+02 0.  0.
<mgrwt>
<rscale>  0 0.53504700E+02</rscale>
<asrwt>0</asrwt>
<pdfrwt beam="1">  1       13 0.10000000E+01 0.53504700E+02</pdfrwt>
<pdfrwt beam="2">  1       22 0.15550327E+00 0.53504700E+02</pdfrwt>
<totfact> 0.71089070E-01</totfact>
</mgrwt>
</event>
<event>
 4    1  0.2505250E+000  0.5102651E+02  0.7957747E-01  0.1439882E+00
         13   -1    0    0    0    0  0.00000000000E+00  0.00000000000E+00  0.99999944174E+02  0.99999999994E+02  0.10566000000E+00 0. -1.
         22   -1    0    0    0    0 -0.00000000000E+00 -0.00000000000E+00 -0.93706922446E+01  0.93706922446E+01  0.00000000000E+00 0. -1.
         13    1    1    2    0    0 -0.22720938045E+01  0.99268657790E+01  0.15918493429E+02  0.18897477915E+02  0.10566000000E+00 0.  1.
        996    1    1    2    0    0  0.22720938045E+01 -0.99268657790E+01  0.74710758501E+02  0.90473214325E+02  0.50000000000E+02 0.  0.
<mgrwt>
<rscale>  0 0.51026513E+02</rscale>
<asrwt>0</asrwt>
<pdfrwt beam="1">  1       13 0.10000000E+01 0.51026513E+02</pdfrwt>
<pdfrwt beam="2">  1       22 0.93707175E-01 0.51026513E+02</pdfrwt>
<totfact> 0.15440261E+00</totfact>
</mgrwt>
</event>
<event>
 4    1  0.2505250E+000  0.5151867E+02  0.7957747E-01  0.1437318E+00
         13   -1    0    0    0    0  0.00000000000E+00  0.00000000000E+00  0.99999944176E+02  0.99999999996E+02  0.10566000000E+00 0.  1.
         22   -1    0    0    0    0 -0.00000000000E+00 -0.00000000000E+00 -0.12085532119E+02  0.12085532119E+02  0.00000000000E+00 0.  1.
         13    1    1    2    0    0  0.10039710496E+02  0.73060094694E+01  0.30156479857E+01  0.12778061591E+02  0.10566000000E+00 0. -1.
        996    1    1    2    0    0 -0.10039710496E+02 -0.73060094694E+01  0.84898764071E+02  0.99307470525E+02  0.50000000000E+02 0.  0.
<mgrwt>
<rscale>  0 0.51518672E+02</rscale>
<asrwt>0</asrwt>
<pdfrwt beam="1">  1       13 0.10000000E+01 0.51518672E+02</pdfrwt>
<pdfrwt beam="2">  1       22 0.12085557E+00 0.51518672E+02</pdfrwt>
<totfact> 0.10621483E+00</totfact>
</mgrwt>
</event>
<event>
 4    1  0.2505250E+000  0.5166920E+02  0.7957747E-01  0.1436541E+00
         13   -1    0    0    0    0  0.00000000000E+00  0.00000000000E+00  0.99999944180E+02  0.10000000000E+03  0.10566000000E+00 0. -1.
         22   -1    0    0    0    0 -0.00000000000E+00 -0.00000000000E+00 -0.15323048969E+02  0.15323048969E+02  0.00000000000E+00 0.  1.
         13    1    1    2    0    0  0.12683875379E+02  0.29707059506E+01 -0.31698207873E+01  0.13407636493E+02  0.10566000000E+00 0.  1.
        996    1    1    2    0    0 -0.12683875379E+02 -0.29707059506E+01  0.87846715999E+02  0.10191541248E+03  0.50000000000E+02 0.  0.
<mgrwt>
<rscale>  0 0.51669196E+02</rscale>
<asrwt>0</asrwt>
<pdfrwt beam="1">  1       13 0.10000000E+01 0.51669196E+02</pdfrwt>
<pdfrwt beam="2">  1       22 0.15323073E+00 0.51669196E+02</pdfrwt>
<totfact> 0.72608090E-01</totfact>
</mgrwt>
</event>
<event>
 4    1  0.2505250E+000  0.6161526E+02  0.7957747E-01  0.1391176E+00
         13   -1    0    0    0    0  0.00000000000E+00  0.00000000000E+00  0.99999944183E+02  0.10000000000E+03  0.10566000000E+00 0. -1.
         22   -1    0    0    0    0 -0.00000000000E+00 -0.00000000000E+00 -0.26335425787E+02  0.26335425787E+02  0.00000000000E+00 0.  1.
         13    1    1    2    0    0  0.35993466579E+02 -0.95430254934E+00  0.46977613390E+02  0.59189083906E+02  0.10566000000E+00 0.  1.
        996    1    1    2    0    0 -0.35993466579E+02  0.95430254934E+00  0.26686905006E+02  0.67146341885E+02  0.50000000000E+02 0.  0.
<mgrwt>
<rscale>  0 0.61615261E+02</rscale>
<asrwt>0</asrwt>
<pdfrwt beam="1">  1       13 0.10000000E+01 0.61615261E+02</pdfrwt>
<pdfrwt beam="2">  1       22 0.26335446E+00 0.61615261E+02</pdfrwt>
<totfact> 0.26964850E-01</totfact>
</mgrwt>
</event>
<event>
 4    1  0.2505250E+000  0.5119687E+02  0.7957747E-01  0.1438991E+00
         13   -1    0    0    0    0  0.00000000000E+00  0.00000000000E+00  0.99999944177E+02  0.99999999997E+02  0.10566000000E+00 0.  1.
         22   -1    0    0    0    0 -0.00000000000E+00 -0.00000000000E+00 -0.37472490654E+02  0.37472490654E+02  0.00000000000E+00 0. -1.
         13    1    1    2    0    0  0.18375715538E+00 -0.11003891294E+02 -0.29873310494E+02  0.31836225188E+02  0.10566000000E+00 0. -1.
        996    1    1    2    0    0 -0.18375715538E+00  0.11003891294E+02  0.92400764017E+02  0.10563626546E+03  0.50000000000E+02 0.  0.
<mgrwt>
<rscale>  0 0.51196869E+02</rscale>
<asrwt>0</asrwt>
<pdfrwt beam="1">  1       13 0.10000000E+01 0.51196869E+02</pdfrwt>
<pdfrwt beam="2">  1       22 0.37472508E+00 0.51196869E+02</pdfrwt>
<totfact> 0.13928911E-01</totfact>
</mgrwt>
</event>
<event>
 4    1  0.2505250E+000  0.5429007E+02  0.7957747E-01  0.1423486E+00
         13   -1    0    0    0    0  0.00000000000E+00  0.00000000000E+00  0.99999944179E+02  0.99999999999E+02  0.10566000000E+00 0. -1.
         22   -1    0    0    0    0 -0.00000000000E+00 -0.00000000000E+00 -0.14302540473E+02  0.14302540473E+02  0.00000000000E+00 0. -1.
         13    1    1    2    0    0 -0.47776492386E+01  0.20605470969E+02  0.20437629838E+02  0.29412909471E+02  0.10566000000E+00 0.  1.
        996    1    1    2    0    0  0.47776492386E+01 -0.20605470969E+02  0.65259773868E+02  0.84889631001E+02  0.50000000000E+02 0.  0.
<mgrwt>
<rscale>  0 0.54290067E+02</rscale>
<asrwt>0</asrwt>
<pdfrwt beam="1">  1       13 0.10000000E+01 0.54290067E+02</pdfrwt>
<pdfrwt beam="2">  1       22 0.14302564E+00 0.54290067E+02</pdfrwt>
<totfact> 0.81824623E-01</totfact>
</mgrwt>
</event>
<event>
 4    1  0.2505250E+000  0.5379386E+02  0.7957747E-01  0.1425890E+00
         13   -1    0    0    0    0  0.00000000000E+00  0.00000000000E+00  0.99999944184E+02  0.10000000000E+03  0.10566000000E+00 0. -1.
         22   -1    0    0    0    0 -0.00000000000E+00 -0.00000000000E+00 -0.26372484568E+02  0.26372484568E+02  0.00000000000E+00 0. -1.
         13    1    1    2    0    0  0.38488754002E+01  0.19467024137E+02 -0.13482657186E+02  0.23991083332E+02  0.10566000000E+00 0.  1.
        996    1    1    2    0    0 -0.38488754002E+01 -0.19467024137E+02  0.87110116803E+02  0.10238140124E+03  0.50000000000E+02 0.  0.
<mgrwt>
<rscale>  0 0.53793855E+02</rscale>
<asrwt>0</asrwt>
<pdfrwt beam="1">  1       13 0.10000000E+01 0.53793855E+02</pdfrwt>
<pdfrwt beam="2">  1       22 0.26372505E+00 0.53793855E+02</pdfrwt>
<totfact> 0.26608002E-01</totfact>
</mgrwt>
</event>
<event>
 4    1  0.2505250E+000  0.5478047E+02  0.7957747E-01  0.1421140E+00
         13   -1    0    0    0    0  0.00000000000E+00  0.00000000000E+00  0.99999944179E+02  0.99999999999E+02  0.10566000000E+00 0. -1.
         22   -1    0    0    0    0 -0.00000000000E+00 -0.00000000000E+00 -0.16290211103E+02  0.16290211103E+02  0.00000000000E+00 0.  1.
         13    1    1    2    0    0  0.14980326702E+02 -0.16627983501E+02  0.10153726088E+02  0.24576601493E+02  0.10566000000E+00 0.  1.
        996    1    1    2    0    0 -0.14980326702E+02  0.16627983501E+02  0.73556006988E+02  0.91713609609E+02  0.50000000000E+02 0.  0.
<mgrwt>
<rscale>  0 0.54780471E+02</rscale>
<asrwt>0</asrwt>
<pdfrwt beam="1">  1       13 0.10000000E+01 0.54780471E+02</pdfrwt>
<pdfrwt beam="2">  1       22 0.16290234E+00 0.54780471E+02</pdfrwt>
<totfact> 0.65824071E-01</totfact>
</mgrwt>
</event>
<event>
 4    1  0.2505250E+000  0.5163986E+02  0.7957747E-01  0.1436692E+00
         13   -1    0    0    0    0  0.00000000000E+00  0.00000000000E+00  0.99999944180E+02  0.10000000000E+03  0.10566000000E+00 0.  1.
         22   -1    0    0    0    0 -0.00000000000E+00 -0.00000000000E+00 -0.13799688446E+02  0.13799688446E+02  0.00000000000E+00 0.  1.
         13    1    1    2    0    0  0.12631936784E+02 -0.26663195834E+01 -0.46143726721E+00  0.12918946375E+02  0.10566000000E+00 0. -1.
        996    1    1    2    0    0 -0.12631936784E+02  0.26663195834E+01  0.86661693001E+02  0.10088074207E+03  0.50000000000E+02 0.  0.
<mgrwt>
<rscale>  0 0.51639859E+02</rscale>
<asrwt>0</asrwt>
<pdfrwt beam="1">  1       13 0.10000000E+01 0.51639859E+02</pdfrwt>
<pdfrwt beam="2">  1       22 0.13799713E+00 0.51639859E+02</pdfrwt>
<totfact> 0.86248726E-01</totfact>
</mgrwt>
</event>
<event>
 4    1  0.2505250E+000  0.6095976E+02  0.7957747E-01  0.1393848E+00
         13   -1    0    0    0    0  0.00000000000E+00  0.00000000000E+00  0.99999944163E+02  0.99999999984E+02  0.10566000000E+00 0.  1.
         22   -1    0    0    0    0 -0.00000000000E+00 -0.00000000000E+00 -0.68313224889E+02  0.68313224889E+02  0.00000000000E+00 0. -1.
         13    1    1    2    0    0  0.29589298241E+02  0.18454422810E+02 -0.53318071439E+02  0.63709655451E+02  0.10566000000E+00 0. -1.
        996    1    1    2    0    0 -0.29589298241E+02 -0.18454422810E+02  0.85004790713E+02  0.10460356942E+03  0.50000000000E+02 0.  0.
<mgrwt>
<rscale>  0 0.60959760E+02</rscale>
<asrwt>0</asrwt>
<pdfrwt beam="1">  1       13 0.10000000E+01 0.60959760E+02</pdfrwt>
<pdfrwt beam="2">  1       22 0.68313234E+00 0.60959760E+02</pdfrwt>
<totfact> 0.82318590E-02</totfact>
</mgrwt>
</event>
<event>
 4    1  0.2505250E+000  0.5143251E+02  0.7957747E-01  0.1437765E+00
         13   -1    0    0    0    0  0.00000000000E+00  0.00000000000E+00  0.99999944178E+02  0.99999999998E+02  0.10566000000E+00 0. -1.
         22   -1    0    0    0    0 -0.00000000000E+00 -0.00000000000E+00 -0.13869175172E+02  0.13869175172E+02  0.00000000000E+00 0.  1.
         13    1    1    2    0    0 -0.10507739394E+02 -0.59068112001E+01 -0.16133126574E+01  0.12162111145E+02  0.10566000000E+00 0.  1.
        996    1    1    2    0    0  0.10507739394E+02  0.59068112001E+01  0.87744081664E+02  0.10170706403E+03  0.50000000000E+02 0.  0.
<mgrwt>
<rscale>  0 0.51432509E+02</rscale>
<asrwt>0</asrwt>
<pdfrwt beam="1">  1       13 0.10000000E+01 0.51432509E+02</pdfrwt>
<pdfrwt beam="2">  1       22 0.13869199E+00 0.51432509E+02</pdfrwt>
<totfact> 0.85515057E-01</totfact>
</mgrwt>
</event>
<event>
 4    1  0.2505250E+000  0.6939543E+02  0.7957747E-01  0.1362161E+00
         13   -1    0    0    0    0  0.00000000000E+00  0.00000000000E+00  0.99999944178E+02  0.99999999999E+02  0.10566000000E+00 0.  1.
         22   -1    0    0    0    0 -0.00000000000E+00 -0.00000000000E+00 -0.35044381276E+02  0.35044381276E+02  0.00000000000E+00 0. -1.
         13    1    1    2    0    0  0.27537961811E+02  0.39463735105E+02  0.18606248640E+02  0.51593888995E+02  0.10566000000E+00 0. -1.
        996    1    1    2    0    0 -0.27537961811E+02 -0.39463735105E+02  0.46349314262E+02  0.83450492279E+02  0.50000000000E+02 0.  0.
<mgrwt>
<rscale>  0 0.69395430E+02</rscale>
<asrwt>0</asrwt>
<pdfrwt beam="1">  1       13 0.10000000E+01 0.69395430E+02</pdfrwt>
<pdfrwt beam="2">  1       22 0.35044399E+00 0.69395430E+02</pdfrwt>
<totfact> 0.15923582E-01</totfact>
</mgrwt>
</event>
<event>
 4    1  0.2505250E+000  0.5591049E+02  0.7957747E-01  0.1415842E+00
         13   -1    0    0    0    0  0.00000000000E+00  0.00000000000E+00  0.99999944186E+02  0.10000000001E+03  0.10566000000E+00 0.  1.
         22   -1    0    0    0    0 -0.00000000000E+00 -0.00000000000E+00 -0.54061053922E+02  0.54061053922E+02  0.00000000000E+00 0. -1.
         13    1    1    2    0    0  0.23080175393E+02  0.96585673598E+01 -0.42566394862E+02  0.49375009420E+02  0.10566000000E+00 0. -1.
        996    1    1    2    0    0 -0.23080175393E+02 -0.96585673598E+01  0.88505285126E+02  0.10468604451E+03  0.50000000000E+02 0.  0.
<mgrwt>
<rscale>  0 0.55910486E+02</rscale>
<asrwt>0</asrwt>
<pdfrwt beam="1">  1       13 0.10000000E+01 0.55910486E+02</pdfrwt>
<pdfrwt beam="2">  1       22 0.54061067E+00 0.55910486E+02</pdfrwt>
<totfact> 0.60555943E-02</totfact>
</mgrwt>
</event>
<event>
 4    1  0.2505250E+000  0.5100756E+02  0.7957747E-01  0.1439982E+00
         13   -1    0    0    0    0  0.00000000000E+00  0.00000000000E+00  0.99999944179E+02  0.99999999999E+02  0.10566000000E+00 0. -1.
         22   -1    0    0    0    0 -0.00000000000E+00 -0.00000000000E+00 -0.13405487306E+02  0.13405487306E+02  0.00000000000E+00 0. -1.
         13    1    1    2    0    0 -0.12247927629E+01 -0.10013526473E+02 -0.28109595604E+01  0.10472988466E+02  0.10566000000E+00 0.  1.
        996    1    1    2    0    0  0.12247927629E+01  0.10013526473E+02  0.89405416433E+02  0.10293249884E+03  0.50000000000E+02 0.  0.
<mgrwt>
<rscale>  0 0.51007557E+02</rscale>
<asrwt>0</asrwt>
<pdfrwt beam="1">  1       13 0.10000000E+01 0.51007557E+02</pdfrwt>
<pdfrwt beam="2">  1       22 0.13405511E+00 0.51007557E+02</pdfrwt>
<totfact> 0.90223876E-01</totfact>
</mgrwt>
</event>
<event>
 4    1  0.2505250E+000  0.5900352E+02  0.7957747E-01  0.1402062E+00
         13   -1    0    0    0    0  0.00000000000E+00  0.00000000000E+00  0.99999944184E+02  0.10000000000E+03  0.10566000000E+00 0.  1.
         22   -1    0    0    0    0 -0.00000000000E+00 -0.00000000000E+00 -0.25826347927E+02  0.25826347927E+02  0.00000000000E+00 0. -1.
         13    1    1    2    0    0 -0.47673673341E+01 -0.30962681098E+02  0.36181682950E+00  0.31329817866E+02  0.10566000000E+00 0. -1.
        996    1    1    2    0    0  0.47673673341E+01  0.30962681098E+02  0.73811779427E+02  0.94496530065E+02  0.50000000000E+02 0.  0.
<mgrwt>
<rscale>  0 0.59003520E+02</rscale>
<asrwt>0</asrwt>
<pdfrwt beam="1">  1       13 0.10000000E+01 0.59003520E+02</pdfrwt>
<pdfrwt beam="2">  1       22 0.25826369E+00 0.59003520E+02</pdfrwt>
<totfact> 0.27930294E-01</totfact>
</mgrwt>
</event>
<event>
 4    1  0.2505250E+000  0.5100494E+02  0.7957747E-01  0.1439995E+00
         13   -1    0    0    0    0  0.00000000000E+00  0.00000000000E+00  0.99999944178E+02  0.99999999998E+02  0.10566000000E+00 0. -1.
         22   -1    0    0    0    0 -0.00000000000E+00 -0.00000000000E+00 -0.97655628288E+01  0.97655628288E+01  0.00000000000E+00 0. -1.
         13    1    1    2    0    0 -0.69237971774E+01 -0.73188234983E+01  0.74526930706E+01  0.12532276042E+02  0.10566000000E+00 0.  1.
        996    1    1    2    0    0  0.69237971774E+01  0.73188234983E+01  0.82781688279E+02  0.97233286785E+02  0.50000000000E+02 0.  0.
<mgrwt>
<rscale>  0 0.51004942E+02</rscale>
<asrwt>0</asrwt>
<pdfrwt beam="1">  1       13 0.10000000E+01 0.51004942E+02</pdfrwt>
<pdfrwt beam="2">  1       22 0.97655880E-01 0.51004942E+02</pdfrwt>
<totfact> 0.14553801E+00</totfact>
</mgrwt>
</event>
<event>
 4    1  0.2505250E+000  0.5471466E+02  0.7957747E-01  0.1421453E+00
         13   -1    0    0    0    0  0.00000000000E+00  0.00000000000E+00  0.99999944178E+02  0.99999999999E+02  0.10566000000E+00 0.  1.
         22   -1    0    0    0    0 -0.00000000000E+00 -0.00000000000E+00 -0.18649764076E+02  0.18649764076E+02  0.00000000000E+00 0. -1.
         13    1    1    2    0    0 -0.21064853454E+02 -0.70686408158E+01  0.20613731145E+01  0.22314886447E+02  0.10566000000E+00 0. -1.
        996    1    1    2    0    0  0.21064853454E+02  0.70686408158E+01  0.79288806988E+02  0.96334877628E+02  0.50000000000E+02 0.  0.
<mgrwt>
<rscale>  0 0.54714657E+02</rscale>
<asrwt>0</asrwt>
<pdfrwt beam="1">  1       13 0.10000000E+01 0.54714657E+02</pdfrwt>
<pdfrwt beam="2">  1       22 0.18649787E+00 0.54714657E+02</pdfrwt>
<totfact> 0.51786661E-01</totfact>
</mgrwt>
</event>
<event>
 4    1  0.2505250E+000  0.5160589E+02  0.7957747E-01  0.1436867E+00
         13   -1    0    0    0    0  0.00000000000E+00  0.00000000000E+00  0.99999944172E+02  0.99999999992E+02  0.10566000000E+00 0.  1.
         22   -1    0    0    0    0 -0.00000000000E+00 -0.00000000000E+00 -0.15931350555E+02  0.15931350555E+02  0.00000000000E+00 0. -1.
         13    1    1    2    0    0  0.12374648157E+02  0.31679320433E+01 -0.44005374603E+01  0.13510869862E+02  0.10566000000E+00 0. -1.
        996    1    1    2    0    0 -0.12374648157E+02 -0.31679320433E+01  0.88469131077E+02  0.10242048069E+03  0.50000000000E+02 0.  0.
<mgrwt>
<rscale>  0 0.51605888E+02</rscale>
<asrwt>0</asrwt>
<pdfrwt beam="1">  1       13 0.10000000E+01 0.51605888E+02</pdfrwt>
<pdfrwt beam="2">  1       22 0.15931374E+00 0.51605888E+02</pdfrwt>
<totfact> 0.67968898E-01</totfact>
</mgrwt>
</event>
<event>
 4    1  0.2505250E+000  0.5236650E+02  0.7957747E-01  0.1432980E+00
         13   -1    0    0    0    0  0.00000000000E+00  0.00000000000E+00  0.99999944182E+02  0.10000000000E+03  0.10566000000E+00 0.  1.
         22   -1    0    0    0    0 -0.00000000000E+00 -0.00000000000E+00 -0.19819057947E+02  0.19819057947E+02  0.00000000000E+00 0. -1.
         13    1    1    2    0    0 -0.15463150693E+02 -0.17724457000E+01 -0.78177935579E+01  0.17417797027E+02  0.10566000000E+00 0. -1.
        996    1    1    2    0    0  0.15463150693E+02  0.17724457000E+01  0.87998679794E+02  0.10240126092E+03  0.50000000000E+02 0.  0.
<mgrwt>
<rscale>  0 0.52366503E+02</rscale>
<asrwt>0</asrwt>
<pdfrwt beam="1">  1       13 0.10000000E+01 0.52366503E+02</pdfrwt>
<pdfrwt beam="2">  1       22 0.19819080E+00 0.52366503E+02</pdfrwt>
<totfact> 0.46111663E-01</totfact>
</mgrwt>
</event>
<event>
 4    1  0.2505250E+000  0.5152173E+02  0.7957747E-01  0.1437302E+00
         13   -1    0    0    0    0  0.00000000000E+00  0.00000000000E+00  0.99999944178E+02  0.99999999998E+02  0.10566000000E+00 0. -1.
         22   -1    0    0    0    0 -0.00000000000E+00 -0.00000000000E+00 -0.11174510618E+02  0.11174510618E+02  0.00000000000E+00 0.  1.
         13    1    1    2    0    0 -0.11705800085E+02  0.41789039525E+01  0.32721089264E+02  0.35002426209E+02  0.10566000000E+00 0.  1.
        996    1    1    2    0    0  0.11705800085E+02 -0.41789039525E+01  0.56104344296E+02  0.76172084406E+02  0.50000000000E+02 0.  0.
<mgrwt>
<rscale>  0 0.51521733E+02</rscale>
<asrwt>0</asrwt>
<pdfrwt beam="1">  1       13 0.10000000E+01 0.51521733E+02</pdfrwt>
<pdfrwt beam="2">  1       22 0.11174535E+00 0.51521733E+02</pdfrwt>
<totfact> 0.11959634E+00</totfact>
</mgrwt>
</event>
<event>
 4    1  0.2505250E+000  0.5129275E+02  0.7957747E-01  0.1438491E+00
         13   -1    0    0    0    0  0.00000000000E+00  0.00000000000E+00  0.99999944176E+02  0.99999999996E+02  0.10566000000E+00 0.  1.
         22   -1    0    0    0    0 -0.00000000000E+00 -0.00000000000E+00 -0.57582723828E+02  0.57582723828E+02  0.00000000000E+00 0. -1.
         13    1    1    2    0    0  0.11408399664E+02 -0.89161913784E+00 -0.50320438555E+02  0.51605273646E+02  0.10566000000E+00 0. -1.
        996    1    1    2    0    0 -0.11408399664E+02  0.89161913784E+00  0.92737658903E+02  0.10597745018E+03  0.50000000000E+02 0.  0.
<mgrwt>
<rscale>  0 0.51292754E+02</rscale>
<asrwt>0</asrwt>
<pdfrwt beam="1">  1       13 0.10000000E+01 0.51292754E+02</pdfrwt>
<pdfrwt beam="2">  1       22 0.57582736E+00 0.51292754E+02</pdfrwt>
<totfact> 0.57871317E-02</totfact>
</mgrwt>
</event>
<event>
 4    1  0.2505250E+000  0.5125755E+02  0.7957747E-01  0.1438674E+00
         13   -1    0    0    0    0  0.00000000000E+00  0.00000000000E+00  0.99999944176E+02  0.99999999996E+02  0.10566000000E+00 0.  1.
         22   -1    0    0    0    0 -0.00000000000E+00 -0.00000000000E+00 -0.10637646279E+02  0.10637646279E+02  0.00000000000E+00 0.  1.
         13    1    1    2    0    0 -0.45397210587E+01  0.10330911929E+02  0.60085635334E+01  0.12784788162E+02  0.10566000000E+00 0. -1.
        996    1    1    2    0    0  0.45397210587E+01 -0.10330911929E+02  0.83353734364E+02  0.97852858113E+02  0.50000000000E+02 0.  0.
<mgrwt>
<rscale>  0 0.51257554E+02</rscale>
<asrwt>0</asrwt>
<pdfrwt beam="1">  1       13 0.10000000E+01 0.51257554E+02</pdfrwt>
<pdfrwt beam="2">  1       22 0.10637671E+00 0.51257554E+02</pdfrwt>
<totfact> 0.12857966E+00</totfact>
</mgrwt>
</event>
<event>
 4    1  0.2505250E+000  0.5121482E+02  0.7957747E-01  0.1438897E+00
         13   -1    0    0    0    0  0.00000000000E+00  0.00000000000E+00  0.99999944183E+02  0.10000000000E+03  0.10566000000E+00 0.  1.
         22   -1    0    0    0    0 -0.00000000000E+00 -0.00000000000E+00 -0.98656543061E+01  0.98656543061E+01  0.00000000000E+00 0.  1.
         13    1    1    2    0    0  0.50863473855E+01  0.98532667754E+01  0.11113728670E+02  0.15699806523E+02  0.10566000000E+00 0. -1.
        996    1    1    2    0    0 -0.50863473855E+01 -0.98532667754E+01  0.79020561206E+02  0.94165847786E+02  0.50000000000E+02 0.  0.
<mgrwt>
<rscale>  0 0.51214820E+02</rscale>
<asrwt>0</asrwt>
<pdfrwt beam="1">  1       13 0.10000000E+01 0.51214820E+02</pdfrwt>
<pdfrwt beam="2">  1       22 0.98656795E-01 0.51214820E+02</pdfrwt>
<totfact> 0.14348926E+00</totfact>
</mgrwt>
</event>
<event>
 4    1  0.2505250E+000  0.7933535E+02  0.7957747E-01  0.1330948E+00
         13   -1    0    0    0    0  0.00000000000E+00  0.00000000000E+00  0.99999944185E+02  0.10000000001E+03  0.10566000000E+00 0.  1.
         22   -1    0    0    0    0 -0.00000000000E+00 -0.00000000000E+00 -0.50871652022E+02  0.50871652022E+02  0.00000000000E+00 0. -1.
         13    1    1    2    0    0  0.49582555615E+02 -0.36546794689E+02  0.99676486500E+01  0.62397621806E+02  0.10566000000E+00 0. -1.
        996    1    1    2    0    0 -0.49582555615E+02  0.36546794689E+02  0.39160643513E+02  0.88474030222E+02  0.50000000000E+02 0.  0.
<mgrwt>
<rscale>  0 0.79335352E+02</rscale>
<asrwt>0</asrwt>
<pdfrwt beam="1">  1       13 0.10000000E+01 0.79335352E+02</pdfrwt>
<pdfrwt beam="2">  1       22 0.50871666E+00 0.79335352E+02</pdfrwt>
<totfact> 0.70888374E-02</totfact>
</mgrwt>
</event>
<event>
 4    1  0.2505250E+000  0.5124445E+02  0.7957747E-01  0.1438743E+00
         13   -1    0    0    0    0  0.00000000000E+00  0.00000000000E+00  0.99999944182E+02  0.10000000000E+03  0.10566000000E+00 0.  1.
         22   -1    0    0    0    0 -0.00000000000E+00 -0.00000000000E+00 -0.11784385613E+02  0.11784385613E+02  0.00000000000E+00 0. -1.
         13    1    1    2    0    0  0.68439690253E+01 -0.88968447994E+01  0.18734788830E+01  0.11380458979E+02  0.10566000000E+00 0. -1.
        996    1    1    2    0    0 -0.68439690253E+01  0.88968447994E+01  0.86342079687E+02  0.10040392664E+03  0.50000000000E+02 0.  0.
<mgrwt>
<rscale>  0 0.51244451E+02</rscale>
<asrwt>0</asrwt>
<pdfrwt beam="1">  1       13 0.10000000E+01 0.51244451E+02</pdfrwt>
<pdfrwt beam="2">  1       22 0.11784410E+00 0.51244451E+02</pdfrwt>
<totfact> 0.11032176E+00</totfact>
</mgrwt>
</event>
<event>
 4    1  0.2505250E+000  0.5376868E+02  0.7957747E-01  0.1426013E+00
         13   -1    0    0    0    0  0.00000000000E+00  0.00000000000E+00  0.99999944179E+02  0.99999999999E+02  0.10566000000E+00 0. -1.
         22   -1    0    0    0    0 -0.00000000000E+00 -0.00000000000E+00 -0.14559393588E+02  0.14559393588E+02  0.00000000000E+00 0.  1.
         13    1    1    2    0    0  0.17619479273E+02  0.89791473551E+01  0.10692164097E+02  0.22481207134E+02  0.10566000000E+00 0.  1.
        996    1    1    2    0    0 -0.17619479273E+02 -0.89791473551E+01  0.74748386494E+02  0.92078186454E+02  0.50000000000E+02 0.  0.
<mgrwt>
<rscale>  0 0.53768682E+02</rscale>
<asrwt>0</asrwt>
<pdfrwt beam="1">  1       13 0.10000000E+01 0.53768682E+02</pdfrwt>
<pdfrwt beam="2">  1       22 0.14559417E+00 0.53768682E+02</pdfrwt>
<totfact> 0.79386065E-01</totfact>
</mgrwt>
</event>
<event>
 4    1  0.2505250E+000  0.5137053E+02  0.7957747E-01  0.1438086E+00
         13   -1    0    0    0    0  0.00000000000E+00  0.00000000000E+00  0.99999944180E+02  0.10000000000E+03  0.10566000000E+00 0. -1.
         22   -1    0    0    0    0 -0.00000000000E+00 -0.00000000000E+00 -0.16602306419E+02  0.16602306419E+02  0.00000000000E+00 0.  1.
         13    1    1    2    0    0  0.11451643360E+02 -0.27913077240E+01 -0.62031754714E+01  0.13319988154E+02  0.10566000000E+00 0.  1.
        996    1    1    2    0    0 -0.11451643360E+02  0.27913077240E+01  0.89600813233E+02  0.10328231827E+03  0.50000000000E+02 0.  0.
<mgrwt>
<rscale>  0 0.51370532E+02</rscale>
<asrwt>0</asrwt>
<pdfrwt beam="1">  1       13 0.10000000E+01 0.51370532E+02</pdfrwt>
<pdfrwt beam="2">  1       22 0.16602330E+00 0.51370532E+02</pdfrwt>
<totfact> 0.63282163E-01</totfact>
</mgrwt>
</event>
<event>
 4    1  0.2505250E+000  0.5611433E+02  0.7957747E-01  0.1414901E+00
         13   -1    0    0    0    0  0.00000000000E+00  0.00000000000E+00  0.99999944175E+02  0.99999999995E+02  0.10566000000E+00 0.  1.
         22   -1    0    0    0    0 -0.00000000000E+00 -0.00000000000E+00 -0.16776058061E+02  0.16776058061E+02  0.00000000000E+00 0.  1.
         13    1    1    2    0    0  0.25368411142E+02  0.22939023649E+01  0.30970490693E+02  0.40099884410E+02  0.10566000000E+00 0. -1.
        996    1    1    2    0    0 -0.25368411142E+02 -0.22939023649E+01  0.52253395422E+02  0.76676173646E+02  0.50000000000E+02 0.  0.
<mgrwt>
<rscale>  0 0.56114332E+02</rscale>
<asrwt>0</asrwt>
<pdfrwt beam="1">  1       13 0.10000000E+01 0.56114332E+02</pdfrwt>
<pdfrwt beam="2">  1       22 0.16776081E+00 0.56114332E+02</pdfrwt>
<totfact> 0.62704179E-01</totfact>
</mgrwt>
</event>
<event>
 4    1  0.2505250E+000  0.5118428E+02  0.7957747E-01  0.1439057E+00
         13   -1    0    0    0    0  0.00000000000E+00  0.00000000000E+00  0.99999944175E+02  0.99999999995E+02  0.10566000000E+00 0. -1.
         22   -1    0    0    0    0 -0.00000000000E+00 -0.00000000000E+00 -0.12473416606E+02  0.12473416606E+02  0.00000000000E+00 0. -1.
         13    1    1    2    0    0  0.94175191018E+01  0.55803874222E+01 -0.15200234506E+00  0.10948271944E+02  0.10566000000E+00 0.  1.
        996    1    1    2    0    0 -0.94175191018E+01 -0.55803874222E+01  0.87678529913E+02  0.10152514466E+03  0.50000000000E+02 0.  0.
<mgrwt>
<rscale>  0 0.51184279E+02</rscale>
<asrwt>0</asrwt>
<pdfrwt beam="1">  1       13 0.10000000E+01 0.51184279E+02</pdfrwt>
<pdfrwt beam="2">  1       22 0.12473441E+00 0.51184279E+02</pdfrwt>
<totfact> 0.10108456E+00</totfact>
</mgrwt>
</event>
<event>
 4    1  0.2505250E+000  0.5684648E+02  0.7957747E-01  0.1411563E+00
         13   -1    0    0    0    0  0.00000000000E+00  0.00000000000E+00  0.99999944188E+02  0.10000000001E+03  0.10566000000E+00 0.  1.
         22   -1    0    0    0    0 -0.00000000000E+00 -0.00000000000E+00 -0.17895979567E+02  0.17895979567E+02  0.00000000000E+00 0.  1.
         13    1    1    2    0    0  0.36582137658E+01 -0.26798124010E+02  0.33867359662E+02  0.43342025713E+02  0.10566000000E+00 0. -1.
        996    1    1    2    0    0 -0.36582137658E+01  0.26798124010E+02  0.48236604960E+02  0.74553953862E+02  0.50000000000E+02 0.  0.
<mgrwt>
<rscale>  0 0.56846477E+02</rscale>
<asrwt>0</asrwt>
<pdfrwt beam="1">  1       13 0.10000000E+01 0.56846477E+02</pdfrwt>
<pdfrwt beam="2">  1       22 0.17896002E+00 0.56846477E+02</pdfrwt>
<totfact> 0.56000925E-01</totfact>
</mgrwt>
</event>
<event>
 4    1  0.2505250E+000  0.5170517E+02  0.7957747E-01  0.1436356E+00
         13   -1    0    0    0    0  0.00000000000E+00  0.00000000000E+00  0.99999944182E+02  0.10000000000E+03  0.10566000000E+00 0. -1.
         22   -1    0    0    0    0 -0.00000000000E+00 -0.00000000000E+00 -0.13593727517E+02  0.13593727517E+02  0.00000000000E+00 0.  1.
         13    1    1    2    0    0 -0.61644199578E+01  0.11637188137E+02  0.32008093750E+00  0.13173376067E+02  0.10566000000E+00 0.  1.
        996    1    1    2    0    0  0.61644199578E+01 -0.11637188137E+02  0.86086135728E+02  0.10042035145E+03  0.50000000000E+02 0.  0.
<mgrwt>
<rscale>  0 0.51705166E+02</rscale>
<asrwt>0</asrwt>
<pdfrwt beam="1">  1       13 0.10000000E+01 0.51705166E+02</pdfrwt>
<pdfrwt beam="2">  1       22 0.13593752E+00 0.51705166E+02</pdfrwt>
<totfact> 0.88369994E-01</totfact>
</mgrwt>
</event>
<event>
 4    1  0.2505250E+000  0.5111223E+02  0.7957747E-01  0.1439433E+00
         13   -1    0    0    0    0  0.00000000000E+00  0.00000000000E+00  0.99999944178E+02  0.99999999998E+02  0.10566000000E+00 0.  1.
         22   -1    0    0    0    0 -0.00000000000E+00 -0.00000000000E+00 -0.12594843203E+02  0.12594843203E+02  0.00000000000E+00 0. -1.
         13    1    1    2    0    0  0.13451344831E+01  0.10519072171E+02 -0.81631328325E+00  0.10636625289E+02  0.10566000000E+00 0. -1.
        996    1    1    2    0    0 -0.13451344831E+01 -0.10519072171E+02  0.88221414258E+02  0.10195821791E+03  0.50000000000E+02 0.  0.
<mgrwt>
<rscale>  0 0.51112232E+02</rscale>
<asrwt>0</asrwt>
<pdfrwt beam="1">  1       13 0.10000000E+01 0.51112232E+02</pdfrwt>
<pdfrwt beam="2">  1       22 0.12594868E+00 0.51112232E+02</pdfrwt>
<totfact> 0.99557793E-01</totfact>
</mgrwt>
</event>
<event>
 4    1  0.2505250E+000  0.5845475E+02  0.7957747E-01  0.1404433E+00
         13   -1    0    0    0    0  0.00000000000E+00  0.00000000000E+00  0.99999944180E+02  0.10000000000E+03  0.10566000000E+00 0. -1.
         22   -1    0    0    0    0 -0.00000000000E+00 -0.00000000000E+00 -0.61514407345E+02  0.61514407345E+02  0.00000000000E+00 0.  1.
         13    1    1    2    0    0 -0.29168482929E+02  0.81337210422E+01 -0.48222986582E+02  0.56942298982E+02  0.10566000000E+00 0.  1.
        996    1    1    2    0    0  0.29168482929E+02 -0.81337210422E+01  0.86708523418E+02  0.10457210836E+03  0.50000000000E+02 0.  0.
<mgrwt>
<rscale>  0 0.58454750E+02</rscale>
<asrwt>0</asrwt>
<pdfrwt beam="1">  1       13 0.10000000E+01 0.58454750E+02</pdfrwt>
<pdfrwt beam="2">  1       22 0.61514418E+00 0.58454750E+02</pdfrwt>
<totfact> 0.70134498E-02</totfact>
</mgrwt>
</event>
<event>
 4    1  0.2505250E+000  0.5289633E+02  0.7957747E-01  0.1430317E+00
         13   -1    0    0    0    0  0.00000000000E+00  0.00000000000E+00  0.99999944176E+02  0.99999999996E+02  0.10566000000E+00 0.  1.
         22   -1    0    0    0    0 -0.00000000000E+00 -0.00000000000E+00 -0.22100576111E+02  0.22100576111E+02  0.00000000000E+00 0.  1.
         13    1    1    2    0    0 -0.71533112147E+01  0.15711532157E+02 -0.96756862790E+01  0.19790203967E+02  0.10566000000E+00 0. -1.
        996    1    1    2    0    0  0.71533112147E+01 -0.15711532157E+02  0.87575054344E+02  0.10231037214E+03  0.50000000000E+02 0.  0.
<mgrwt>
<rscale>  0 0.52896334E+02</rscale>
<asrwt>0</asrwt>
<pdfrwt beam="1">  1       13 0.10000000E+01 0.52896334E+02</pdfrwt>
<pdfrwt beam="2">  1       22 0.22100598E+00 0.52896334E+02</pdfrwt>
<totfact> 0.37547331E-01</totfact>
</mgrwt>
</event>
<event>
 4    1  0.2505250E+000  0.5157708E+02  0.7957747E-01  0.1437016E+00
         13   -1    0    0    0    0  0.00000000000E+00  0.00000000000E+00  0.99999944182E+02  0.10000000000E+03  0.10566000000E+00 0. -1.
         22   -1    0    0    0    0 -0.00000000000E+00 -0.00000000000E+00 -0.10330481190E+02  0.10330481190E+02  0.00000000000E+00 0. -1.
         13    1    1    2    0    0 -0.55895332624E+01  0.11355712801E+02  0.19403721901E+02  0.23167017136E+02  0.10566000000E+00 0.  1.
        996    1    1    2    0    0  0.55895332624E+01 -0.11355712801E+02  0.70265741091E+02  0.87163464057E+02  0.50000000000E+02 0.  0.
<mgrwt>
<rscale>  0 0.51577079E+02</rscale>
<asrwt>0</asrwt>
<pdfrwt beam="1">  1       13 0.10000000E+01 0.51577079E+02</pdfrwt>
<pdfrwt beam="2">  1       22 0.10330506E+00 0.51577079E+02</pdfrwt>
<totfact> 0.13432890E+00</totfact>
</mgrwt>
</event>
<event>
 4    1  0.2505250E+000  0.5322420E+02  0.7957747E-01  0.1428688E+00
         13   -1    0    0    0    0  0.00000000000E+00  0.00000000000E+00  0.99999944175E+02  0.99999999995E+02  0.10566000000E+00 0.  1.
         22   -1    0    0    0    0 -0.00000000000E+00 -0.00000000000E+00 -0.15768806750E+02  0.15768806750E+02  0.00000000000E+00 0. -1.
         13    1    1    2    0    0  0.10280709171E+02  0.15070566629E+02  0.27572242674E+01  0.18450702135E+02  0.10566000000E+00 0. -1.
        996    1    1    2    0    0 -0.10280709171E+02 -0.15070566629E+02  0.81473913158E+02  0.97318104610E+02  0.50000000000E+02 0.  0.
<mgrwt>
<rscale>  0 0.53224195E+02</rscale>
<asrwt>0</asrwt>
<pdfrwt beam="1">  1       13 0.10000000E+01 0.53224195E+02</pdfrwt>
<pdfrwt beam="2">  1       22 0.15768830E+00 0.53224195E+02</pdfrwt>
<totfact> 0.69388658E-01</totfact>
</mgrwt>
</event>
<event>
 4    1  0.2505250E+000  0.5399322E+02  0.7957747E-01  0.1424921E+00
         13   -1    0    0    0    0  0.00000000000E+00  0.00000000000E+00  0.99999944182E+02  0.10000000000E+03  0.10566000000E+00 0.  1.
         22   -1    0    0    0    0 -0.00000000000E+00 -0.00000000000E+00 -0.14671912355E+02  0.14671912355E+02  0.00000000000E+00 0. -1.
         13    1    1    2    0    0  0.44276160529E+01 -0.19891303801E+02  0.12132168365E+02  0.23716416763E+02  0.10566000000E+00 0. -1.
        996    1    1    2    0    0 -0.44276160529E+01  0.19891303801E+02  0.73195863462E+02  0.90955495594E+02  0.50000000000E+02 0.  0.
<mgrwt>
<rscale>  0 0.53993219E+02</rscale>
<asrwt>0</asrwt>
<pdfrwt beam="1">  1       13 0.10000000E+01 0.53993219E+02</pdfrwt>
<pdfrwt beam="2">  1       22 0.14671936E+00 0.53993219E+02</pdfrwt>
<totfact> 0.78419258E-01</totfact>
</mgrwt>
</event>
<event>
 4    1  0.2505250E+000  0.5128116E+02  0.7957747E-01  0.1438551E+00
         13   -1    0    0    0    0  0.00000000000E+00  0.00000000000E+00  0.99999944178E+02  0.99999999998E+02  0.10566000000E+00 0. -1.
         22   -1    0    0    0    0 -0.00000000000E+00 -0.00000000000E+00 -0.98216136620E+01  0.98216136620E+01  0.00000000000E+00 0. -1.
         13    1    1    2    0    0  0.11171611422E+02  0.22254600897E+01  0.16993383030E+02  0.20458343169E+02  0.10566000000E+00 0.  1.
        996    1    1    2    0    0 -0.11171611422E+02 -0.22254600897E+01  0.73184947486E+02  0.89363270492E+02  0.50000000000E+02 0.  0.
<mgrwt>
<rscale>  0 0.51281162E+02</rscale>
<asrwt>0</asrwt>
<pdfrwt beam="1">  1       13 0.10000000E+01 0.51281162E+02</pdfrwt>
<pdfrwt beam="2">  1       22 0.98216388E-01 0.51281162E+02</pdfrwt>
<totfact> 0.14444146E+00</totfact>
</mgrwt>
</event>
<event>
 4    1  0.2505250E+000  0.5156476E+02  0.7957747E-01  0.1437080E+00
         13   -1    0    0    0    0  0.00000000000E+00  0.00000000000E+00  0.99999944178E+02  0.99999999998E+02  0.10566000000E+00 0. -1.
         22   -1    0    0    0    0 -0.00000000000E+00 -0.00000000000E+00 -0.11626988462E+02  0.11626988462E+02  0.00000000000E+00 0.  1.
         13    1    1    2    0    0  0.44424455158E+01  0.11797832067E+02  0.49292843906E+01  0.13536364811E+02  0.10566000000E+00 0.  1.
        996    1    1    2    0    0 -0.44424455158E+01 -0.11797832067E+02  0.83443671325E+02  0.98090623649E+02  0.50000000000E+02 0.  0.
<mgrwt>
<rscale>  0 0.51564757E+02</rscale>
<asrwt>0</asrwt>
<pdfrwt beam="1">  1       13 0.10000000E+01 0.51564757E+02</pdfrwt>
<pdfrwt beam="2">  1       22 0.11627013E+00 0.51564757E+02</pdfrwt>
<totfact> 0.11267703E+00</totfact>
</mgrwt>
</event>
<event>
 4    1  0.2505250E+000  0.5127082E+02  0.7957747E-01  0.1438605E+00
         13   -1    0    0    0    0  0.00000000000E+00  0.00000000000E+00  0.99999944180E+02  0.10000000000E+03  0.10566000000E+00 0. -1.
         22   -1    0    0    0    0 -0.00000000000E+00 -0.00000000000E+00 -0.24571527138E+02  0.24571527138E+02  0.00000000000E+00 0.  1.
         13    1    1    2    0    0 -0.11045235866E+02  0.25883577896E+01 -0.16079702363E+02  0.19679045289E+02  0.10566000000E+00 0.  1.
        996    1    1    2    0    0  0.11045235866E+02 -0.25883577896E+01  0.91508119405E+02  0.10489248185E+03  0.50000000000E+02 0.  0.
<mgrwt>
<rscale>  0 0.51270819E+02</rscale>
<asrwt>0</asrwt>
<pdfrwt beam="1">  1       13 0.10000000E+01 0.51270819E+02</pdfrwt>
<pdfrwt beam="2">  1       22 0.24571548E+00 0.51270819E+02</pdfrwt>
<totfact> 0.30462852E-01</totfact>
</mgrwt>
</event>
<event>
 4    1  0.2505250E+000  0.5113690E+02  0.7957747E-01  0.1439304E+00
         13   -1    0    0    0    0  0.00000000000E+00  0.00000000000E+00  0.99999944184E+02  0.10000000000E+03  0.10566000000E+00 0.  1.
         22   -1    0    0    0    0 -0.00000000000E+00 -0.00000000000E+00 -0.12164035749E+02  0.12164035749E+02  0.00000000000E+00 0. -1.
         13    1    1    2    0    0  0.10659369960E+02 -0.11664411825E+01  0.23058762578E+00  0.10726000544E+02  0.10566000000E+00 0. -1.
        996    1    1    2    0    0 -0.10659369960E+02  0.11664411825E+01  0.87605320810E+02  0.10143803521E+03  0.50000000000E+02 0.  0.
<mgrwt>
<rscale>  0 0.51136902E+02</rscale>
<asrwt>0</asrwt>
<pdfrwt beam="1">  1       13 0.10000000E+01 0.51136902E+02</pdfrwt>
<pdfrwt beam="2">  1       22 0.12164060E+00 0.51136902E+02</pdfrwt>
<totfact> 0.10507276E+00</totfact>
</mgrwt>
</event>
<event>
 4    1  0.2505250E+000  0.5498884E+02  0.7957747E-01  0.1420152E+00
         13   -1    0    0    0    0  0.00000000000E+00  0.00000000000E+00  0.99999944181E+02  0.10000000000E+03  0.10566000000E+00 0.  1.
         22   -1    0    0    0    0 -0.00000000000E+00 -0.00000000000E+00 -0.17348462023E+02  0.17348462023E+02  0.00000000000E+00 0.  1.
         13    1    1    2    0    0 -0.21963253695E+02  0.64333890209E+01  0.45661696845E+02  0.51076165968E+02  0.10566000000E+00 0. -1.
        996    1    1    2    0    0  0.21963253695E+02 -0.64333890209E+01  0.36989785312E+02  0.66272296056E+02  0.50000000000E+02 0.  0.
<mgrwt>
<rscale>  0 0.54988844E+02</rscale>
<asrwt>0</asrwt>
<pdfrwt beam="1">  1       13 0.10000000E+01 0.54988844E+02</pdfrwt>
<pdfrwt beam="2">  1       22 0.17348485E+00 0.54988844E+02</pdfrwt>
<totfact> 0.58993848E-01</totfact>
</mgrwt>
</event>
<event>
 4    1  0.2505250E+000  0.5146004E+02  0.7957747E-01  0.1437622E+00
         13   -1    0    0    0    0  0.00000000000E+00  0.00000000000E+00  0.99999944181E+02  0.10000000000E+03  0.10566000000E+00 0.  1.
         22   -1    0    0    0    0 -0.00000000000E+00 -0.00000000000E+00 -0.27758906280E+02  0.27758906280E+02  0.00000000000E+00 0. -1.
         13    1    1    2    0    0 -0.95099458162E+01 -0.75958533459E+01 -0.19257858156E+02  0.22781841942E+02  0.10566000000E+00 0. -1.
        996    1    1    2    0    0  0.95099458162E+01  0.75958533459E+01  0.91498896057E+02  0.10497706434E+03  0.50000000000E+02 0.  0.
<mgrwt>
<rscale>  0 0.51460043E+02</rscale>
<asrwt>0</asrwt>
<pdfrwt beam="1">  1       13 0.10000000E+01 0.51460043E+02</pdfrwt>
<pdfrwt beam="2">  1       22 0.27758926E+00 0.51460043E+02</pdfrwt>
<totfact> 0.23991201E-01</totfact>
</mgrwt>
</event>
<event>
 4    1  0.2505250E+000  0.5112231E+02  0.7957747E-01  0.1439380E+00
         13   -1    0    0    0    0  0.00000000000E+00  0.00000000000E+00  0.99999944172E+02  0.99999999992E+02  0.10566000000E+00 0.  1.
         22   -1    0    0    0    0 -0.00000000000E+00 -0.00000000000E+00 -0.28719388173E+02  0.28719388173E+02  0.00000000000E+00 0. -1.
         13    1    1    2    0    0 -0.61533573800E+01  0.86963588708E+01 -0.20816795732E+02  0.23384623436E+02  0.10566000000E+00 0. -1.
        996    1    1    2    0    0  0.61533573800E+01 -0.86963588708E+01  0.92097351731E+02  0.10533476473E+03  0.50000000000E+02 0.  0.
<mgrwt>
<rscale>  0 0.51122309E+02</rscale>
<asrwt>0</asrwt>
<pdfrwt beam="1">  1       13 0.10000000E+01 0.51122309E+02</pdfrwt>
<pdfrwt beam="2">  1       22 0.28719408E+00 0.51122309E+02</pdfrwt>
<totfact> 0.22457844E-01</totfact>
</mgrwt>
</event>
<event>
 4    1  0.2505250E+000  0.5191537E+02  0.7957747E-01  0.1435276E+00
         13   -1    0    0    0    0  0.00000000000E+00  0.00000000000E+00  0.99999944174E+02  0.99999999994E+02  0.10566000000E+00 0.  1.
         22   -1    0    0    0    0 -0.00000000000E+00 -0.00000000000E+00 -0.21083916472E+02  0.21083916472E+02  0.00000000000E+00 0. -1.
         13    1    1    2    0    0  0.13951124616E+02 -0.75637246819E+00 -0.10644209354E+02  0.17564633050E+02  0.10566000000E+00 0. -1.
        996    1    1    2    0    0 -0.13951124616E+02  0.75637246819E+00  0.89560237057E+02  0.10351928342E+03  0.50000000000E+02 0.  0.
<mgrwt>
<rscale>  0 0.51915373E+02</rscale>
<asrwt>0</asrwt>
<pdfrwt beam="1">  1       13 0.10000000E+01 0.51915373E+02</pdfrwt>
<pdfrwt beam="2">  1       22 0.21083939E+00 0.51915373E+02</pdfrwt>
<totfact> 0.41017067E-01</totfact>
</mgrwt>
</event>
<event>
 4    1  0.2505250E+000  0.5392576E+02  0.7957747E-01  0.1425248E+00
         13   -1    0    0    0    0  0.00000000000E+00  0.00000000000E+00  0.99999944177E+02  0.99999999997E+02  0.10566000000E+00 0. -1.
         22   -1    0    0    0    0 -0.00000000000E+00 -0.00000000000E+00 -0.30858696883E+02  0.30858696883E+02  0.00000000000E+00 0.  1.
         13    1    1    2    0    0 -0.11066209460E+02 -0.16897544272E+02 -0.18869161370E+02  0.27641353242E+02  0.10566000000E+00 0.  1.
        996    1    1    2    0    0  0.11066209460E+02  0.16897544272E+02  0.88010408664E+02  0.10321734364E+03  0.50000000000E+02 0.  0.
<mgrwt>
<rscale>  0 0.53925764E+02</rscale>
<asrwt>0</asrwt>
<pdfrwt beam="1">  1       13 0.10000000E+01 0.53925764E+02</pdfrwt>
<pdfrwt beam="2">  1       22 0.30858716E+00 0.53925764E+02</pdfrwt>
<totfact> 0.19697032E-01</totfact>
</mgrwt>
</event>
<event>
 4    1  0.2505250E+000  0.6526114E+02  0.7957747E-01  0.1376992E+00
         13   -1    0    0    0    0  0.00000000000E+00  0.00000000000E+00  0.99999944177E+02  0.99999999997E+02  0.10566000000E+00 0. -1.
         22   -1    0    0    0    0 -0.00000000000E+00 -0.00000000000E+00 -0.30618328551E+02  0.30618328551E+02  0.00000000000E+00 0.  1.
         13    1    1    2    0    0  0.34181185771E+02  0.24303557111E+02  0.43461762166E+02  0.60398280469E+02  0.10566000000E+00 0.  1.
        996    1    1    2    0    0 -0.34181185771E+02 -0.24303557111E+02  0.25919853459E+02  0.70220048080E+02  0.50000000000E+02 0.  0.
<mgrwt>
<rscale>  0 0.65261140E+02</rscale>
<asrwt>0</asrwt>
<pdfrwt beam="1">  1       13 0.10000000E+01 0.65261140E+02</pdfrwt>
<pdfrwt beam="2">  1       22 0.30618348E+00 0.65261140E+02</pdfrwt>
<totfact> 0.20236752E-01</totfact>
</mgrwt>
</event>
<event>
 4    1  0.2505250E+000  0.6387935E+02  0.7957747E-01  0.1382237E+00
         13   -1    0    0    0    0  0.00000000000E+00  0.00000000000E+00  0.99999944169E+02  0.99999999989E+02  0.10566000000E+00 0.  1.
         22   -1    0    0    0    0 -0.00000000000E+00 -0.00000000000E+00 -0.34656659831E+02  0.34656659831E+02  0.00000000000E+00 0. -1.
         13    1    1    2    0    0 -0.24290855975E+02  0.31472625374E+02 -0.44953789988E+01  0.40009891631E+02  0.10566000000E+00 0. -1.
        996    1    1    2    0    0  0.24290855975E+02 -0.31472625374E+02  0.69838663337E+02  0.94646768189E+02  0.50000000000E+02 0.  0.
<mgrwt>
<rscale>  0 0.63879354E+02</rscale>
<asrwt>0</asrwt>
<pdfrwt beam="1">  1       13 0.10000000E+01 0.63879354E+02</pdfrwt>
<pdfrwt beam="2">  1       22 0.34656678E+00 0.63879354E+02</pdfrwt>
<totfact> 0.16167613E-01</totfact>
</mgrwt>
</event>
<event>
 4    1  0.2505250E+000  0.5150947E+02  0.7957747E-01  0.1437366E+00
         13   -1    0    0    0    0  0.00000000000E+00  0.00000000000E+00  0.99999944180E+02  0.10000000000E+03  0.10566000000E+00 0. -1.
         22   -1    0    0    0    0 -0.00000000000E+00 -0.00000000000E+00 -0.11123268839E+02  0.11123268839E+02  0.00000000000E+00 0. -1.
         13    1    1    2    0    0 -0.11349993023E+02  0.49399663240E+01  0.65357065493E+01  0.13998293933E+02  0.10566000000E+00 0.  1.
        996    1    1    2    0    0  0.11349993023E+02 -0.49399663240E+01  0.82340968792E+02  0.97124974906E+02  0.50000000000E+02 0.  0.
<mgrwt>
<rscale>  0 0.51509471E+02</rscale>
<asrwt>0</asrwt>
<pdfrwt beam="1">  1       13 0.10000000E+01 0.51509471E+02</pdfrwt>
<pdfrwt beam="2">  1       22 0.11123294E+00 0.51509471E+02</pdfrwt>
<totfact> 0.12041672E+00</totfact>
</mgrwt>
</event>
<event>
 4    1  0.2505250E+000  0.5306665E+02  0.7957747E-01  0.1429469E+00
         13   -1    0    0    0    0  0.00000000000E+00  0.00000000000E+00  0.99999944183E+02  0.10000000000E+03  0.10566000000E+00 0. -1.
         22   -1    0    0    0    0 -0.00000000000E+00 -0.00000000000E+00 -0.30484226522E+02  0.30484226522E+02  0.00000000000E+00 0.  1.
         13    1    1    2    0    0  0.16935443262E+02 -0.54092961361E+01 -0.19789121432E+02  0.26602447524E+02  0.10566000000E+00 0.  1.
        996    1    1    2    0    0 -0.16935443262E+02  0.54092961361E+01  0.89304839093E+02  0.10388177900E+03  0.50000000000E+02 0.  0.
<mgrwt>
<rscale>  0 0.53066654E+02</rscale>
<asrwt>0</asrwt>
<pdfrwt beam="1">  1       13 0.10000000E+01 0.53066654E+02</pdfrwt>
<pdfrwt beam="2">  1       22 0.30484246E+00 0.53066654E+02</pdfrwt>
<totfact> 0.20123575E-01</totfact>
</mgrwt>
</event>
<event>
 4    1  0.2505250E+000  0.5131695E+02  0.7957747E-01  0.1438365E+00
         13   -1    0    0    0    0  0.00000000000E+00  0.00000000000E+00  0.99999944181E+02  0.10000000000E+03  0.10566000000E+00 0. -1.
         22   -1    0    0    0    0 -0.00000000000E+00 -0.00000000000E+00 -0.25592984011E+02  0.25592984011E+02  0.00000000000E+00 0.  1.
         13    1    1    2    0    0 -0.56581403524E+01  0.10070476931E+02 -0.17125172031E+02  0.20657002179E+02  0.10566000000E+00 0.  1.
        996    1    1    2    0    0  0.56581403524E+01 -0.10070476931E+02  0.91532132202E+02  0.10493598183E+03  0.50000000000E+02 0.  0.
<mgrwt>
<rscale>  0 0.51316947E+02</rscale>
<asrwt>0</asrwt>
<pdfrwt beam="1">  1       13 0.10000000E+01 0.51316947E+02</pdfrwt>
<pdfrwt beam="2">  1       22 0.25593005E+00 0.51316947E+02</pdfrwt>
<totfact> 0.28120460E-01</totfact>
</mgrwt>
</event>
<event>
 4    1  0.2505250E+000  0.5203450E+02  0.7957747E-01  0.1434667E+00
         13   -1    0    0    0    0  0.00000000000E+00  0.00000000000E+00  0.99999944179E+02  0.99999999999E+02  0.10566000000E+00 0. -1.
         22   -1    0    0    0    0 -0.00000000000E+00 -0.00000000000E+00 -0.11266683413E+02  0.11266683413E+02  0.00000000000E+00 0.  1.
         13    1    1    2    0    0 -0.14202709181E+02 -0.24233437587E+01  0.13171181263E+02  0.19521288968E+02  0.10566000000E+00 0.  1.
        996    1    1    2    0    0  0.14202709181E+02  0.24233437587E+01  0.75562079502E+02  0.91745394444E+02  0.50000000000E+02 0.  0.
<mgrwt>
<rscale>  0 0.52034503E+02</rscale>
<asrwt>0</asrwt>
<pdfrwt beam="1">  1       13 0.10000000E+01 0.52034503E+02</pdfrwt>
<pdfrwt beam="2">  1       22 0.11266708E+00 0.52034503E+02</pdfrwt>
<totfact> 0.11827452E+00</totfact>
</mgrwt>
</event>
<event>
 4    1  0.2505250E+000  0.5599508E+02  0.7957747E-01  0.1415451E+00
         13   -1    0    0    0    0  0.00000000000E+00  0.00000000000E+00  0.99999944187E+02  0.10000000001E+03  0.10566000000E+00 0.  1.
         22   -1    0    0    0    0 -0.00000000000E+00 -0.00000000000E+00 -0.24547652931E+02  0.24547652931E+02  0.00000000000E+00 0.  1.
         13    1    1    2    0    0 -0.12118943123E+02  0.22103853940E+02 -0.58023822112E+01  0.25867507510E+02  0.10566000000E+00 0. -1.
        996    1    1    2    0    0  0.12118943123E+02 -0.22103853940E+02  0.81254673467E+02  0.98680145428E+02  0.50000000000E+02 0.  0.
<mgrwt>
<rscale>  0 0.55995081E+02</rscale>
<asrwt>0</asrwt>
<pdfrwt beam="1">  1       13 0.10000000E+01 0.55995081E+02</pdfrwt>
<pdfrwt beam="2">  1       22 0.24547674E+00 0.55995081E+02</pdfrwt>
<totfact> 0.30743932E-01</totfact>
</mgrwt>
</event>
<event>
 4    1  0.2505250E+000  0.5357461E+02  0.7957747E-01  0.1426962E+00
         13   -1    0    0    0    0  0.00000000000E+00  0.00000000000E+00  0.99999944175E+02  0.99999999995E+02  0.10566000000E+00 0.  1.
         22   -1    0    0    0    0 -0.00000000000E+00 -0.00000000000E+00 -0.13365214300E+02  0.13365214300E+02  0.00000000000E+00 0.  1.
         13    1    1    2    0    0  0.13737078470E+02 -0.13473358170E+02  0.18528270723E+02  0.26712294646E+02  0.10566000000E+00 0. -1.
        996    1    1    2    0    0 -0.13737078470E+02  0.13473358170E+02  0.68106459153E+02  0.86652919648E+02  0.50000000000E+02 0.  0.
<mgrwt>
<rscale>  0 0.53574609E+02</rscale>
<asrwt>0</asrwt>
<pdfrwt beam="1">  1       13 0.10000000E+01 0.53574609E+02</pdfrwt>
<pdfrwt beam="2">  1       22 0.13365238E+00 0.53574609E+02</pdfrwt>
<totfact> 0.91153830E-01</totfact>
</mgrwt>
</event>
<event>
 4    1  0.2505250E+000  0.6703423E+02  0.7957747E-01  0.1370479E+00
         13   -1    0    0    0    0  0.00000000000E+00  0.00000000000E+00  0.99999944174E+02  0.99999999995E+02  0.10566000000E+00 0. -1.
         22   -1    0    0    0    0 -0.00000000000E+00 -0.00000000000E+00 -0.58204048723E+02  0.58204048723E+02  0.00000000000E+00 0.  1.
         13    1    1    2    0    0  0.37560580242E+02  0.24141058255E+02 -0.34659375735E+02  0.56523193223E+02  0.10566000000E+00 0.  1.
        996    1    1    2    0    0 -0.37560580242E+02 -0.24141058255E+02  0.76455271187E+02  0.10168085549E+03  0.50000000000E+02 0.  0.
<mgrwt>
<rscale>  0 0.67034229E+02</rscale>
<asrwt>0</asrwt>
<pdfrwt beam="1">  1       13 0.10000000E+01 0.67034229E+02</pdfrwt>
<pdfrwt beam="2">  1       22 0.58204060E+00 0.67034229E+02</pdfrwt>
<totfact> 0.58783980E-02</totfact>
</mgrwt>
</event>
<event>
 4    1  0.2505250E+000  0.5175660E+02  0.7957747E-01  0.1436091E+00
         13   -1    0    0    0    0  0.00000000000E+00  0.00000000000E+00  0.99999944180E+02  0.10000000000E+03  0.10566000000E+00 0. -1.
         22   -1    0    0    0    0 -0.00000000000E+00 -0.00000000000E+00 -0.13092046289E+02  0.13092046289E+02  0.00000000000E+00 0.  1.
         13    1    1    2    0    0 -0.13270599373E+02 -0.16239382747E+01  0.18115541579E+01  0.13492178317E+02  0.10566000000E+00 0.  1.
        996    1    1    2    0    0  0.13270599373E+02  0.16239382747E+01  0.85096343733E+02  0.99599867972E+02  0.50000000000E+02 0.  0.
<mgrwt>
<rscale>  0 0.51756603E+02</rscale>
<asrwt>0</asrwt>
<pdfrwt beam="1">  1       13 0.10000000E+01 0.51756603E+02</pdfrwt>
<pdfrwt beam="2">  1       22 0.13092071E+00 0.51756603E+02</pdfrwt>
<totfact> 0.93826296E-01</totfact>
</mgrwt>
</event>
<event>
 4    1  0.2505250E+000  0.5420187E+02  0.7957747E-01  0.1423911E+00
         13   -1    0    0    0    0  0.00000000000E+00  0.00000000000E+00  0.99999944177E+02  0.99999999997E+02  0.10566000000E+00 0. -1.
         22   -1    0    0    0    0 -0.00000000000E+00 -0.00000000000E+00 -0.64525309766E+02  0.64525309766E+02  0.00000000000E+00 0.  1.
         13    1    1    2    0    0  0.14083800734E+02  0.15475452723E+02 -0.55117847361E+02  0.58956181541E+02  0.10566000000E+00 0.  1.
        996    1    1    2    0    0 -0.14083800734E+02 -0.15475452723E+02  0.90592481771E+02  0.10556912822E+03  0.50000000000E+02 0.  0.
<mgrwt>
<rscale>  0 0.54201873E+02</rscale>
<asrwt>0</asrwt>
<pdfrwt beam="1">  1       13 0.10000000E+01 0.54201873E+02</pdfrwt>
<pdfrwt beam="2">  1       22 0.64525320E+00 0.54201873E+02</pdfrwt>
<totfact> 0.85165254E-02</totfact>
</mgrwt>
</event>
<event>
 4    1  0.2505250E+000  0.5266567E+02  0.7957747E-01  0.1431472E+00
         13   -1    0    0    0    0  0.00000000000E+00  0.00000000000E+00  0.99999944171E+02  0.99999999991E+02  0.10566000000E+00 0. -1.
         22   -1    0    0    0    0 -0.00000000000E+00 -0.00000000000E+00 -0.41647573507E+02  0.41647573507E+02  0.00000000000E+00 0.  1.
         13    1    1    2    0    0  0.16266440997E+02  0.30126734787E+01 -0.32594408046E+02  0.36552426788E+02  0.10566000000E+00 0.  1.
        996    1    1    2    0    0 -0.16266440997E+02 -0.30126734787E+01  0.90946778710E+02  0.10509514671E+03  0.50000000000E+02 0.  0.
<mgrwt>
<rscale>  0 0.52665675E+02</rscale>
<asrwt>0</asrwt>
<pdfrwt beam="1">  1       13 0.10000000E+01 0.52665675E+02</pdfrwt>
<pdfrwt beam="2">  1       22 0.41647590E+00 0.52665675E+02</pdfrwt>
<totfact> 0.11434899E-01</totfact>
</mgrwt>
</event>
<event>
 4    1  0.2505250E+000  0.5276421E+02  0.7957747E-01  0.1430978E+00
         13   -1    0    0    0    0  0.00000000000E+00  0.00000000000E+00  0.99999944179E+02  0.10000000000E+03  0.10566000000E+00 0. -1.
         22   -1    0    0    0    0 -0.00000000000E+00 -0.00000000000E+00 -0.16471815204E+02  0.16471815204E+02  0.00000000000E+00 0.  1.
         13    1    1    2    0    0 -0.16562074271E+02 -0.31240219598E+01 -0.93706767072E+00  0.16880493986E+02  0.10566000000E+00 0.  1.
        996    1    1    2    0    0  0.16562074271E+02  0.31240219598E+01  0.84465196646E+02  0.99591321218E+02  0.50000000000E+02 0.  0.
<mgrwt>
<rscale>  0 0.52764210E+02</rscale>
<asrwt>0</asrwt>
<pdfrwt beam="1">  1       13 0.10000000E+01 0.52764210E+02</pdfrwt>
<pdfrwt beam="2">  1       22 0.16471839E+00 0.52764210E+02</pdfrwt>
<totfact> 0.64328689E-01</totfact>
</mgrwt>
</event>
<event>
 4    1  0.2505250E+000  0.5241092E+02  0.7957747E-01  0.1432755E+00
         13   -1    0    0    0    0  0.00000000000E+00  0.00000000000E+00  0.99999944177E+02  0.99999999998E+02  0.10566000000E+00 0. -1.
         22   -1    0    0    0    0 -0.00000000000E+00 -0.00000000000E+00 -0.11726583931E+02  0.11726583931E+02  0.00000000000E+00 0. -1.
         13    1    1    2    0    0  0.70862406414E+01  0.14024619249E+02  0.15757923384E+02  0.22253720249E+02  0.10566000000E+00 0.  1.
        996    1    1    2    0    0 -0.70862406414E+01 -0.14024619249E+02  0.72515436863E+02  0.89472863679E+02  0.50000000000E+02 0.  0.
<mgrwt>
<rscale>  0 0.52410922E+02</rscale>
<asrwt>0</asrwt>
<pdfrwt beam="1">  1       13 0.10000000E+01 0.52410922E+02</pdfrwt>
<pdfrwt beam="2">  1       22 0.11726609E+00 0.52410922E+02</pdfrwt>
<totfact> 0.11144239E+00</totfact>
</mgrwt>
</event>
<event>
 4    1  0.2505250E+000  0.5118452E+02  0.7957747E-01  0.1439055E+00
         13   -1    0    0    0    0  0.00000000000E+00  0.00000000000E+00  0.99999944172E+02  0.99999999992E+02  0.10566000000E+00 0. -1.
         22   -1    0    0    0    0 -0.00000000000E+00 -0.00000000000E+00 -0.10412085121E+02  0.10412085121E+02  0.00000000000E+00 0. -1.
         13    1    1    2    0    0  0.10912552254E+02  0.87818121605E+00  0.29573917790E+02  0.31535420981E+02  0.10566000000E+00 0.  1.
        996    1    1    2    0    0 -0.10912552254E+02 -0.87818121605E+00  0.60013941261E+02  0.78876664132E+02  0.50000000000E+02 0.  0.
<mgrwt>
<rscale>  0 0.51184519E+02</rscale>
<asrwt>0</asrwt>
<pdfrwt beam="1">  1       13 0.10000000E+01 0.51184519E+02</pdfrwt>
<pdfrwt beam="2">  1       22 0.10412110E+00 0.51184519E+02</pdfrwt>
<totfact> 0.13266731E+00</totfact>
</mgrwt>
</event>
<event>
 4    1  0.2505250E+000  0.5367018E+02  0.7957747E-01  0.1426494E+00
         13   -1    0    0    0    0  0.00000000000E+00  0.00000000000E+00  0.99999944182E+02  0.10000000000E+03  0.10566000000E+00 0. -1.
         22   -1    0    0    0    0 -0.00000000000E+00 -0.00000000000E+00 -0.43928566555E+02  0.43928566555E+02  0.00000000000E+00 0.  1.
         13    1    1    2    0    0  0.74474301202E+01 -0.18028435614E+02 -0.33931185062E+02  0.39138538422E+02  0.10566000000E+00 0.  1.
        996    1    1    2    0    0 -0.74474301202E+01  0.18028435614E+02  0.90002562688E+02  0.10479002814E+03  0.50000000000E+02 0.  0.
<mgrwt>
<rscale>  0 0.53670185E+02</rscale>
<asrwt>0</asrwt>
<pdfrwt beam="1">  1       13 0.10000000E+01 0.53670185E+02</pdfrwt>
<pdfrwt beam="2">  1       22 0.43928582E+00 0.53670185E+02</pdfrwt>
<totfact> 0.10219072E-01</totfact>
</mgrwt>
</event>
<event>
 4    1  0.2505250E+000  0.5133716E+02  0.7957747E-01  0.1438260E+00
         13   -1    0    0    0    0  0.00000000000E+00  0.00000000000E+00  0.99999944186E+02  0.10000000001E+03  0.10566000000E+00 0. -1.
         22   -1    0    0    0    0 -0.00000000000E+00 -0.00000000000E+00 -0.53526136704E+02  0.53526136704E+02  0.00000000000E+00 0.  1.
         13    1    1    2    0    0  0.10547865222E+02 -0.49240959969E+01 -0.46166924558E+02  0.47611976113E+02  0.10566000000E+00 0.  1.
        996    1    1    2    0    0 -0.10547865222E+02  0.49240959969E+01  0.92640732040E+02  0.10591416060E+03  0.50000000000E+02 0.  0.
<mgrwt>
<rscale>  0 0.51337162E+02</rscale>
<asrwt>0</asrwt>
<pdfrwt beam="1">  1       13 0.10000000E+01 0.51337162E+02</pdfrwt>
<pdfrwt beam="2">  1       22 0.53526150E+00 0.51337162E+02</pdfrwt>
<totfact> 0.61696645E-02</totfact>
</mgrwt>
</event>
<event>
 4    1  0.2505250E+000  0.5338479E+02  0.7957747E-01  0.1427895E+00
         13   -1    0    0    0    0  0.00000000000E+00  0.00000000000E+00  0.99999944174E+02  0.99999999995E+02  0.10566000000E+00 0.  1.
         22   -1    0    0    0    0 -0.00000000000E+00 -0.00000000000E+00 -0.21865232226E+02  0.21865232226E+02  0.00000000000E+00 0. -1.
         13    1    1    2    0    0 -0.47908549511E+01  0.18082674261E+02 -0.81467143410E+01  0.20403811364E+02  0.10566000000E+00 0. -1.
        996    1    1    2    0    0  0.47908549511E+01 -0.18082674261E+02  0.86281426290E+02  0.10146142086E+03  0.50000000000E+02 0.  0.
<mgrwt>
<rscale>  0 0.53384786E+02</rscale>
<asrwt>0</asrwt>
<pdfrwt beam="1">  1       13 0.10000000E+01 0.53384786E+02</pdfrwt>
<pdfrwt beam="2">  1       22 0.21865254E+00 0.53384786E+02</pdfrwt>
<totfact> 0.38359673E-01</totfact>
</mgrwt>
</event>
<event>
 4    1  0.2505250E+000  0.5118568E+02  0.7957747E-01  0.1439049E+00
         13   -1    0    0    0    0  0.00000000000E+00  0.00000000000E+00  0.99999944180E+02  0.10000000000E+03  0.10566000000E+00 0.  1.
         22   -1    0    0    0    0 -0.00000000000E+00 -0.00000000000E+00 -0.26562091112E+02  0.26562091112E+02  0.00000000000E+00 0. -1.
         13    1    1    2    0    0 -0.93953681951E+01 -0.56303860349E+01 -0.18405556121E+02  0.21418446503E+02  0.10566000000E+00 0. -1.
        996    1    1    2    0    0  0.93953681951E+01  0.56303860349E+01  0.91843409189E+02  0.10514364461E+03  0.50000000000E+02 0.  0.
<mgrwt>
<rscale>  0 0.51185683E+02</rscale>
<asrwt>0</asrwt>
<pdfrwt beam="1">  1       13 0.10000000E+01 0.51185683E+02</pdfrwt>
<pdfrwt beam="2">  1       22 0.26562112E+00 0.51185683E+02</pdfrwt>
<totfact> 0.26134899E-01</totfact>
</mgrwt>
</event>
<event>
 4    1  0.2505250E+000  0.5790406E+02  0.7957747E-01  0.1406844E+00
         13   -1    0    0    0    0  0.00000000000E+00  0.00000000000E+00  0.99999944184E+02  0.10000000000E+03  0.10566000000E+00 0. -1.
         22   -1    0    0    0    0 -0.00000000000E+00 -0.00000000000E+00 -0.29678400495E+02  0.29678400495E+02  0.00000000000E+00 0. -1.
         13    1    1    2    0    0  0.27167519449E+02 -0.10714752769E+02 -0.98164035206E+01  0.30809949400E+02  0.10566000000E+00 0.  1.
        996    1    1    2    0    0 -0.27167519449E+02  0.10714752769E+02  0.80137947210E+02  0.98868451100E+02  0.50000000000E+02 0.  0.
<mgrwt>
<rscale>  0 0.57904059E+02</rscale>
<asrwt>0</asrwt>
<pdfrwt beam="1">  1       13 0.10000000E+01 0.57904059E+02</pdfrwt>
<pdfrwt beam="2">  1       22 0.29678420E+00 0.57904059E+02</pdfrwt>
<totfact> 0.21283907E-01</totfact>
</mgrwt>
</event>
<event>
 4    1  0.2505250E+000  0.5787952E+02  0.7957747E-01  0.1406952E+00
         13   -1    0    0    0    0  0.00000000000E+00  0.00000000000E+00  0.99999944173E+02  0.99999999993E+02  0.10566000000E+00 0.  1.
         22   -1    0    0    0    0 -0.00000000000E+00 -0.00000000000E+00 -0.19070975216E+02  0.19070975216E+02  0.00000000000E+00 0. -1.
         13    1    1    2    0    0  0.55303404812E+01 -0.28626103659E+02  0.22504376141E+02  0.36830647375E+02  0.10566000000E+00 0. -1.
        996    1    1    2    0    0 -0.55303404812E+01  0.28626103659E+02  0.58424592816E+02  0.82240327834E+02  0.50000000000E+02 0.  0.
<mgrwt>
<rscale>  0 0.57879517E+02</rscale>
<asrwt>0</asrwt>
<pdfrwt beam="1">  1       13 0.10000000E+01 0.57879517E+02</pdfrwt>
<pdfrwt beam="2">  1       22 0.19070998E+00 0.57879517E+02</pdfrwt>
<totfact> 0.49981066E-01</totfact>
</mgrwt>
</event>
<event>
 4    1  0.2505250E+000  0.5202770E+02  0.7957747E-01  0.1434702E+00
         13   -1    0    0    0    0  0.00000000000E+00  0.00000000000E+00  0.99999944184E+02  0.10000000000E+03  0.10566000000E+00 0.  1.
         22   -1    0    0    0    0 -0.00000000000E+00 -0.00000000000E+00 -0.12981994490E+02  0.12981994490E+02  0.00000000000E+00 0.  1.
         13    1    1    2    0    0  0.22590380969E+01 -0.14204857802E+02  0.38653085771E+01  0.14894059645E+02  0.10566000000E+00 0. -1.
        996    1    1    2    0    0 -0.22590380969E+01  0.14204857802E+02  0.83152641116E+02  0.98087934849E+02  0.50000000000E+02 0.  0.
<mgrwt>
<rscale>  0 0.52027697E+02</rscale>
<asrwt>0</asrwt>
<pdfrwt beam="1">  1       13 0.10000000E+01 0.52027697E+02</pdfrwt>
<pdfrwt beam="2">  1       22 0.12982019E+00 0.52027697E+02</pdfrwt>
<totfact> 0.95139627E-01</totfact>
</mgrwt>
</event>
<event>
 4    1  0.2505250E+000  0.5132639E+02  0.7957747E-01  0.1438316E+00
         13   -1    0    0    0    0  0.00000000000E+00  0.00000000000E+00  0.99999944176E+02  0.99999999996E+02  0.10566000000E+00 0. -1.
         22   -1    0    0    0    0 -0.00000000000E+00 -0.00000000000E+00 -0.20810745079E+02  0.20810745079E+02  0.00000000000E+00 0.  1.
         13    1    1    2    0    0 -0.41338951509E+01 -0.10830940251E+02 -0.11674240606E+02  0.16452884659E+02  0.10566000000E+00 0.  1.
        996    1    1    2    0    0  0.41338951509E+01  0.10830940251E+02  0.90863439704E+02  0.10435786042E+03  0.50000000000E+02 0.  0.
<mgrwt>
<rscale>  0 0.51326390E+02</rscale>
<asrwt>0</asrwt>
<pdfrwt beam="1">  1       13 0.10000000E+01 0.51326390E+02</pdfrwt>
<pdfrwt beam="2">  1       22 0.20810767E+00 0.51326390E+02</pdfrwt>
<totfact> 0.41999278E-01</totfact>
</mgrwt>
</event>
<event>
 4    1  0.2505250E+000  0.5481445E+02  0.7957747E-01  0.1420978E+00
         13   -1    0    0    0    0  0.00000000000E+00  0.00000000000E+00  0.99999944178E+02  0.99999999998E+02  0.10566000000E+00 0.  1.
         22   -1    0    0    0    0 -0.00000000000E+00 -0.00000000000E+00 -0.39718210849E+02  0.39718210849E+02  0.00000000000E+00 0. -1.
         13    1    1    2    0    0 -0.99187621152E+00 -0.22441916994E+02 -0.27942205153E+02  0.35852495724E+02  0.10566000000E+00 0. -1.
        996    1    1    2    0    0  0.99187621152E+00  0.22441916994E+02  0.88223938482E+02  0.10386571512E+03  0.50000000000E+02 0.  0.
<mgrwt>
<rscale>  0 0.54814446E+02</rscale>
<asrwt>0</asrwt>
<pdfrwt beam="1">  1       13 0.10000000E+01 0.54814446E+02</pdfrwt>
<pdfrwt beam="2">  1       22 0.39718228E+00 0.54814446E+02</pdfrwt>
<totfact> 0.12561519E-01</totfact>
</mgrwt>
</event>
<event>
 4    1  0.2505250E+000  0.5138085E+02  0.7957747E-01  0.1438033E+00
         13   -1    0    0    0    0  0.00000000000E+00  0.00000000000E+00  0.99999944175E+02  0.99999999995E+02  0.10566000000E+00 0. -1.
         22   -1    0    0    0    0 -0.00000000000E+00 -0.00000000000E+00 -0.70246238959E+02  0.70246238959E+02  0.00000000000E+00 0. -1.
         13    1    1    2    0    0  0.57321510991E+01 -0.10350582668E+02 -0.63059525002E+02  0.64160010718E+02  0.10566000000E+00 0.  1.
        996    1    1    2    0    0 -0.57321510991E+01  0.10350582668E+02  0.92813230218E+02  0.10608622824E+03  0.50000000000E+02 0.  0.
<mgrwt>
<rscale>  0 0.51380854E+02</rscale>
<asrwt>0</asrwt>
<pdfrwt beam="1">  1       13 0.10000000E+01 0.51380854E+02</pdfrwt>
<pdfrwt beam="2">  1       22 0.70246247E+00 0.51380854E+02</pdfrwt>
<totfact> 0.73384053E-02</totfact>
</mgrwt>
</event>
<event>
 4    1  0.2505250E+000  0.5153339E+02  0.7957747E-01  0.1437242E+00
         13   -1    0    0    0    0  0.00000000000E+00  0.00000000000E+00  0.99999944177E+02  0.99999999997E+02  0.10566000000E+00 0.  1.
         22   -1    0    0    0    0 -0.00000000000E+00 -0.00000000000E+00 -0.16044148726E+02  0.16044148726E+02  0.00000000000E+00 0.  1.
         13    1    1    2    0    0  0.88661975198E+01 -0.87795805453E+01 -0.48350539425E+01  0.13382055286E+02  0.10566000000E+00 0. -1.
        996    1    1    2    0    0 -0.88661975198E+01  0.87795805453E+01  0.88790849393E+02  0.10266209344E+03  0.50000000000E+02 0.  0.
<mgrwt>
<rscale>  0 0.51533392E+02</rscale>
<asrwt>0</asrwt>
<pdfrwt beam="1">  1       13 0.10000000E+01 0.51533392E+02</pdfrwt>
<pdfrwt beam="2">  1       22 0.16044172E+00 0.51533392E+02</pdfrwt>
<totfact> 0.67144672E-01</totfact>
</mgrwt>
</event>
<event>
 4    1  0.2505250E+000  0.5102053E+02  0.7957747E-01  0.1439914E+00
         13   -1    0    0    0    0  0.00000000000E+00  0.00000000000E+00  0.99999944181E+02  0.10000000000E+03  0.10566000000E+00 0.  1.
         22   -1    0    0    0    0 -0.00000000000E+00 -0.00000000000E+00 -0.19372812179E+02  0.19372812179E+02  0.00000000000E+00 0. -1.
         13    1    1    2    0    0 -0.95064403786E+01 -0.35667616914E+01 -0.10705861801E+02  0.14755366433E+02  0.10566000000E+00 0. -1.
        996    1    1    2    0    0  0.95064403786E+01  0.35667616914E+01  0.91332993803E+02  0.10461744575E+03  0.50000000000E+02 0.  0.
<mgrwt>
<rscale>  0 0.51020527E+02</rscale>
<asrwt>0</asrwt>
<pdfrwt beam="1">  1       13 0.10000000E+01 0.51020527E+02</pdfrwt>
<pdfrwt beam="2">  1       22 0.19372835E+00 0.51020527E+02</pdfrwt>
<totfact> 0.47979482E-01</totfact>
</mgrwt>
</event>
<event>
 4    1  0.2505250E+000  0.6337646E+02  0.7957747E-01  0.1384185E+00
         13   -1    0    0    0    0  0.00000000000E+00  0.00000000000E+00  0.99999944175E+02  0.99999999995E+02  0.10566000000E+00 0.  1.
         22   -1    0    0    0    0 -0.00000000000E+00 -0.00000000000E+00 -0.27459544333E+02  0.27459544333E+02  0.00000000000E+00 0. -1.
         13    1    1    2    0    0  0.38853640849E+02  0.26400370937E+01  0.14602234502E+02  0.41591004070E+02  0.10566000000E+00 0. -1.
        996    1    1    2    0    0 -0.38853640849E+02 -0.26400370937E+01  0.57938165340E+02  0.85868540258E+02  0.50000000000E+02 0.  0.
<mgrwt>
<rscale>  0 0.63376456E+02</rscale>
<asrwt>0</asrwt>
<pdfrwt beam="1">  1       13 0.10000000E+01 0.63376456E+02</pdfrwt>
<pdfrwt beam="2">  1       22 0.27459565E+00 0.63376456E+02</pdfrwt>
<totfact> 0.24887822E-01</totfact>
</mgrwt>
</event>
<event>
 4    1  0.2505250E+000  0.6003802E+02  0.7957747E-01  0.1397672E+00
         13   -1    0    0    0    0  0.00000000000E+00  0.00000000000E+00  0.99999944179E+02  0.99999999999E+02  0.10566000000E+00 0.  1.
         22   -1    0    0    0    0 -0.00000000000E+00 -0.00000000000E+00 -0.29387320811E+02  0.29387320811E+02  0.00000000000E+00 0. -1.
         13    1    1    2    0    0 -0.93938339317E+00  0.33221701368E+02 -0.41595761701E+01  0.33494434178E+02  0.10566000000E+00 0. -1.
        996    1    1    2    0    0  0.93938339317E+00 -0.33221701368E+02  0.74772199538E+02  0.95892886632E+02  0.50000000000E+02 0.  0.
<mgrwt>
<rscale>  0 0.60038020E+02</rscale>
<asrwt>0</asrwt>
<pdfrwt beam="1">  1       13 0.10000000E+01 0.60038020E+02</pdfrwt>
<pdfrwt beam="2">  1       22 0.29387341E+00 0.60038020E+02</pdfrwt>
<totfact> 0.21740177E-01</totfact>
</mgrwt>
</event>
<event>
 4    1  0.2505250E+000  0.5116133E+02  0.7957747E-01  0.1439176E+00
         13   -1    0    0    0    0  0.00000000000E+00  0.00000000000E+00  0.99999944171E+02  0.99999999991E+02  0.10566000000E+00 0.  1.
         22   -1    0    0    0    0 -0.00000000000E+00 -0.00000000000E+00 -0.21293145652E+02  0.21293145652E+02  0.00000000000E+00 0. -1.
         13    1    1    2    0    0 -0.50312964744E+01 -0.96004067406E+01 -0.12605492050E+02  0.16625021734E+02  0.10566000000E+00 0. -1.
        996    1    1    2    0    0  0.50312964744E+01  0.96004067406E+01  0.91312290569E+02  0.10466812391E+03  0.50000000000E+02 0.  0.
<mgrwt>
<rscale>  0 0.51161331E+02</rscale>
<asrwt>0</asrwt>
<pdfrwt beam="1">  1       13 0.10000000E+01 0.51161331E+02</pdfrwt>
<pdfrwt beam="2">  1       22 0.21293168E+00 0.51161331E+02</pdfrwt>
<totfact> 0.40200922E-01</totfact>
</mgrwt>
</event>
<event>
 4    1  0.2505250E+000  0.5172902E+02  0.7957747E-01  0.1436233E+00
         13   -1    0    0    0    0  0.00000000000E+00  0.00000000000E+00  0.99999944173E+02  0.99999999993E+02  0.10566000000E+00 0.  1.
         22   -1    0    0    0    0 -0.00000000000E+00 -0.00000000000E+00 -0.10572780558E+02  0.10572780558E+02  0.00000000000E+00 0.  1.
         13    1    1    2    0    0 -0.11076833680E+02 -0.72934855537E+01  0.19842412805E+02  0.23866790439E+02  0.10566000000E+00 0. -1.
        996    1    1    2    0    0  0.11076833680E+02  0.72934855537E+01  0.69584750811E+02  0.86705990112E+02  0.50000000000E+02 0.  0.
<mgrwt>
<rscale>  0 0.51729017E+02</rscale>
<asrwt>0</asrwt>
<pdfrwt beam="1">  1       13 0.10000000E+01 0.51729017E+02</pdfrwt>
<pdfrwt beam="2">  1       22 0.10572806E+00 0.51729017E+02</pdfrwt>
<totfact> 0.12988722E+00</totfact>
</mgrwt>
</event>
<event>
 4    1  0.2505250E+000  0.5731701E+02  0.7957747E-01  0.1409449E+00
         13   -1    0    0    0    0  0.00000000000E+00  0.00000000000E+00  0.99999944182E+02  0.10000000000E+03  0.10566000000E+00 0. -1.
         22   -1    0    0    0    0 -0.00000000000E+00 -0.00000000000E+00 -0.32135000922E+02  0.32135000922E+02  0.00000000000E+00 0.  1.
         13    1    1    2    0    0  0.24579882416E+02 -0.13456198219E+02 -0.14685439427E+02  0.31637212034E+02  0.10566000000E+00 0.  1.
        996    1    1    2    0    0 -0.24579882416E+02  0.13456198219E+02  0.82550382686E+02  0.10049778889E+03  0.50000000000E+02 0.  0.
<mgrwt>
<rscale>  0 0.57317012E+02</rscale>
<asrwt>0</asrwt>
<pdfrwt beam="1">  1       13 0.10000000E+01 0.57317012E+02</pdfrwt>
<pdfrwt beam="2">  1       22 0.32135020E+00 0.57317012E+02</pdfrwt>
<totfact> 0.18370916E-01</totfact>
</mgrwt>
</event>
<event>
 4    1  0.2505250E+000  0.5117240E+02  0.7957747E-01  0.1439119E+00
         13   -1    0    0    0    0  0.00000000000E+00  0.00000000000E+00  0.99999944181E+02  0.10000000000E+03  0.10566000000E+00 0. -1.
         22   -1    0    0    0    0 -0.00000000000E+00 -0.00000000000E+00 -0.12052890626E+02  0.12052890626E+02  0.00000000000E+00 0. -1.
         13    1    1    2    0    0  0.34877200421E+01 -0.10317463052E+02  0.70983409634E+00  0.10914635285E+02  0.10566000000E+00 0.  1.
        996    1    1    2    0    0 -0.34877200421E+01  0.10317463052E+02  0.87237219458E+02  0.10113825534E+03  0.50000000000E+02 0.  0.
<mgrwt>
<rscale>  0 0.51172397E+02</rscale>
<asrwt>0</asrwt>
<pdfrwt beam="1">  1       13 0.10000000E+01 0.51172397E+02</pdfrwt>
<pdfrwt beam="2">  1       22 0.12052915E+00 0.51172397E+02</pdfrwt>
<totfact> 0.10657307E+00</totfact>
</mgrwt>
</event>
<event>
 4    1  0.2505250E+000  0.5185995E+02  0.7957747E-01  0.1435560E+00
         13   -1    0    0    0    0  0.00000000000E+00  0.00000000000E+00  0.99999944185E+02  0.10000000000E+03  0.10566000000E+00 0.  1.
         22   -1    0    0    0    0 -0.00000000000E+00 -0.00000000000E+00 -0.47818518659E+02  0.47818518659E+02  0.00000000000E+00 0. -1.
         13    1    1    2    0    0  0.12399983119E+02  0.59745417744E+01 -0.39861535637E+02  0.42171174019E+02  0.10566000000E+00 0. -1.
        996    1    1    2    0    0 -0.12399983119E+02 -0.59745417744E+01  0.92042961163E+02  0.10564734464E+03  0.50000000000E+02 0.  0.
<mgrwt>
<rscale>  0 0.51859953E+02</rscale>
<asrwt>0</asrwt>
<pdfrwt beam="1">  1       13 0.10000000E+01 0.51859953E+02</pdfrwt>
<pdfrwt beam="2">  1       22 0.47818533E+00 0.51859953E+02</pdfrwt>
<totfact> 0.83074480E-02</totfact>
</mgrwt>
</event>
<event>
 4    1  0.2505250E+000  0.5919993E+02  0.7957747E-01  0.1401220E+00
         13   -1    0    0    0    0  0.00000000000E+00  0.00000000000E+00  0.99999944179E+02  0.99999999999E+02  0.10566000000E+00 0.  1.
         22   -1    0    0    0    0 -0.00000000000E+00 -0.00000000000E+00 -0.20917353060E+02  0.20917353060E+02  0.00000000000E+00 0. -1.
         13    1    1    2    0    0  0.31582563160E+02 -0.26782147276E+01  0.21271401690E+02  0.38172173422E+02  0.10566000000E+00 0. -1.
        996    1    1    2    0    0 -0.31582563160E+02  0.26782147276E+01  0.57811189429E+02  0.82745179637E+02  0.50000000000E+02 0.  0.
<mgrwt>
<rscale>  0 0.59199925E+02</rscale>
<asrwt>0</asrwt>
<pdfrwt beam="1">  1       13 0.10000000E+01 0.59199925E+02</pdfrwt>
<pdfrwt beam="2">  1       22 0.20917375E+00 0.59199925E+02</pdfrwt>
<totfact> 0.42137694E-01</totfact>
</mgrwt>
</event>
<event>
 4    1  0.2505250E+000  0.5158975E+02  0.7957747E-01  0.1436951E+00
         13   -1    0    0    0    0  0.00000000000E+00  0.00000000000E+00  0.99999944176E+02  0.99999999997E+02  0.10566000000E+00 0. -1.
         22   -1    0    0    0    0 -0.00000000000E+00 -0.00000000000E+00 -0.14321088931E+02  0.14321088931E+02  0.00000000000E+00 0. -1.
         13    1    1    2    0    0 -0.12105438641E+02  0.38678473497E+01 -0.17272586849E+01  0.12825617895E+02  0.10566000000E+00 0.  1.
        996    1    1    2    0    0  0.12105438641E+02 -0.38678473497E+01  0.87406113930E+02  0.10149547103E+03  0.50000000000E+02 0.  0.
<mgrwt>
<rscale>  0 0.51589746E+02</rscale>
<asrwt>0</asrwt>
<pdfrwt beam="1">  1       13 0.10000000E+01 0.51589746E+02</pdfrwt>
<pdfrwt beam="2">  1       22 0.14321113E+00 0.51589746E+02</pdfrwt>
<totfact> 0.81202015E-01</totfact>
</mgrwt>
</event>
<event>
 4    1  0.2505250E+000  0.5284331E+02  0.7957747E-01  0.1430582E+00
         13   -1    0    0    0    0  0.00000000000E+00  0.00000000000E+00  0.99999944172E+02  0.99999999993E+02  0.10566000000E+00 0.  1.
         22   -1    0    0    0    0 -0.00000000000E+00 -0.00000000000E+00 -0.17128449415E+02  0.17128449415E+02  0.00000000000E+00 0. -1.
         13    1    1    2    0    0  0.17039949224E+02  0.14336137178E+01 -0.19309323156E+01  0.17209148192E+02  0.10566000000E+00 0. -1.
        996    1    1    2    0    0 -0.17039949224E+02 -0.14336137178E+01  0.84802427073E+02  0.99919301215E+02  0.50000000000E+02 0.  0.
<mgrwt>
<rscale>  0 0.52843307E+02</rscale>
<asrwt>0</asrwt>
<pdfrwt beam="1">  1       13 0.10000000E+01 0.52843307E+02</pdfrwt>
<pdfrwt beam="2">  1       22 0.17128473E+00 0.52843307E+02</pdfrwt>
<totfact> 0.60097591E-01</totfact>
</mgrwt>
</event>
<event>
 4    1  0.2505250E+000  0.5112454E+02  0.7957747E-01  0.1439369E+00
         13   -1    0    0    0    0  0.00000000000E+00  0.00000000000E+00  0.99999944176E+02  0.99999999996E+02  0.10566000000E+00 0. -1.
         22   -1    0    0    0    0 -0.00000000000E+00 -0.00000000000E+00 -0.15383886262E+02  0.15383886262E+02  0.00000000000E+00 0.  1.
         13    1    1    2    0    0 -0.92360659948E+01  0.53304318045E+01 -0.53311452841E+01  0.11922696522E+02  0.10566000000E+00 0.  1.
        996    1    1    2    0    0  0.92360659948E+01 -0.53304318045E+01  0.89947203198E+02  0.10346118974E+03  0.50000000000E+02 0.  0.
<mgrwt>
<rscale>  0 0.51124538E+02</rscale>
<asrwt>0</asrwt>
<pdfrwt beam="1">  1       13 0.10000000E+01 0.51124538E+02</pdfrwt>
<pdfrwt beam="2">  1       22 0.15383910E+00 0.51124538E+02</pdfrwt>
<totfact> 0.72045876E-01</totfact>
</mgrwt>
</event>
<event>
 4    1  0.2505250E+000  0.5250748E+02  0.7957747E-01  0.1432268E+00
         13   -1    0    0    0    0  0.00000000000E+00  0.00000000000E+00  0.99999944184E+02  0.10000000000E+03  0.10566000000E+00 0.  1.
         22   -1    0    0    0    0 -0.00000000000E+00 -0.00000000000E+00 -0.45998321570E+02  0.45998321570E+02  0.00000000000E+00 0. -1.
         13    1    1    2    0    0 -0.14076939384E+02  0.76730530589E+01 -0.37342103795E+02  0.40638403580E+02  0.10566000000E+00 0. -1.
        996    1    1    2    0    0  0.14076939384E+02 -0.76730530589E+01  0.91343726408E+02  0.10535991799E+03  0.50000000000E+02 0.  0.
<mgrwt>
<rscale>  0 0.52507485E+02</rscale>
<asrwt>0</asrwt>
<pdfrwt beam="1">  1       13 0.10000000E+01 0.52507485E+02</pdfrwt>
<pdfrwt beam="2">  1       22 0.45998337E+00 0.52507485E+02</pdfrwt>
<totfact> 0.91705137E-02</totfact>
</mgrwt>
</event>
<event>
 4    1  0.2505250E+000  0.5172934E+02  0.7957747E-01  0.1436231E+00
         13   -1    0    0    0    0  0.00000000000E+00  0.00000000000E+00  0.99999944176E+02  0.99999999996E+02  0.10566000000E+00 0.  1.
         22   -1    0    0    0    0 -0.00000000000E+00 -0.00000000000E+00 -0.21167470852E+02  0.21167470852E+02  0.00000000000E+00 0. -1.
         13    1    1    2    0    0 -0.12057030729E+02 -0.55274312926E+01 -0.11181474016E+02  0.17348227918E+02  0.10566000000E+00 0. -1.
        996    1    1    2    0    0  0.12057030729E+02  0.55274312926E+01  0.90013947340E+02  0.10381924293E+03  0.50000000000E+02 0.  0.
<mgrwt>
<rscale>  0 0.51729339E+02</rscale>
<asrwt>0</asrwt>
<pdfrwt beam="1">  1       13 0.10000000E+01 0.51729339E+02</pdfrwt>
<pdfrwt beam="2">  1       22 0.21167493E+00 0.51729339E+02</pdfrwt>
<totfact> 0.40696792E-01</totfact>
</mgrwt>
</event>
<event>
 4    1  0.2505250E+000  0.5677751E+02  0.7957747E-01  0.1411875E+00
         13   -1    0    0    0    0  0.00000000000E+00  0.00000000000E+00  0.99999944191E+02  0.10000000001E+03  0.10566000000E+00 0.  1.
         22   -1    0    0    0    0 -0.00000000000E+00 -0.00000000000E+00 -0.18760991855E+02  0.18760991855E+02  0.00000000000E+00 0.  1.
         13    1    1    2    0    0  0.21400625443E+02  0.16300284148E+02  0.12668813667E+02  0.29735434021E+02  0.10566000000E+00 0. -1.
        996    1    1    2    0    0 -0.21400625443E+02 -0.16300284148E+02  0.68570138668E+02  0.89025557845E+02  0.50000000000E+02 0.  0.
<mgrwt>
<rscale>  0 0.56777513E+02</rscale>
<asrwt>0</asrwt>
<pdfrwt beam="1">  1       13 0.10000000E+01 0.56777513E+02</pdfrwt>
<pdfrwt beam="2">  1       22 0.18761015E+00 0.56777513E+02</pdfrwt>
<totfact> 0.51410390E-01</totfact>
</mgrwt>
</event>
<event>
 4    1  0.2505250E+000  0.6280289E+02  0.7957747E-01  0.1386432E+00
         13   -1    0    0    0    0  0.00000000000E+00  0.00000000000E+00  0.99999944180E+02  0.10000000000E+03  0.10566000000E+00 0. -1.
         22   -1    0    0    0    0 -0.00000000000E+00 -0.00000000000E+00 -0.30237544229E+02  0.30237544229E+02  0.00000000000E+00 0.  1.
         13    1    1    2    0    0 -0.15896297947E+02 -0.34518273088E+02  0.53035078427E+02  0.65245185057E+02  0.10566000000E+00 0.  1.
        996    1    1    2    0    0  0.15896297947E+02  0.34518273088E+02  0.16727321524E+02  0.64992359172E+02  0.50000000000E+02 0.  0.
<mgrwt>
<rscale>  0 0.62802894E+02</rscale>
<asrwt>0</asrwt>
<pdfrwt beam="1">  1       13 0.10000000E+01 0.62802894E+02</pdfrwt>
<pdfrwt beam="2">  1       22 0.30237564E+00 0.62802894E+02</pdfrwt>
<totfact> 0.20662329E-01</totfact>
</mgrwt>
</event>
<event>
 4    1  0.2505250E+000  0.6035738E+02  0.7957747E-01  0.1396338E+00
         13   -1    0    0    0    0  0.00000000000E+00  0.00000000000E+00  0.99999944175E+02  0.99999999995E+02  0.10566000000E+00 0.  1.
         22   -1    0    0    0    0 -0.00000000000E+00 -0.00000000000E+00 -0.28138818442E+02  0.28138818442E+02  0.00000000000E+00 0. -1.
         13    1    1    2    0    0 -0.26724214151E+02  0.20708194219E+02 -0.62393281525E+00  0.33814396135E+02  0.10566000000E+00 0. -1.
        996    1    1    2    0    0  0.26724214151E+02 -0.20708194219E+02  0.72485058549E+02  0.94324422302E+02  0.50000000000E+02 0.  0.
<mgrwt>
<rscale>  0 0.60357377E+02</rscale>
<asrwt>0</asrwt>
<pdfrwt beam="1">  1       13 0.10000000E+01 0.60357377E+02</pdfrwt>
<pdfrwt beam="2">  1       22 0.28138839E+00 0.60357377E+02</pdfrwt>
<totfact> 0.23643023E-01</totfact>
</mgrwt>
</event>
<event>
 4    1  0.2505250E+000  0.5232473E+02  0.7957747E-01  0.1433191E+00
         13   -1    0    0    0    0  0.00000000000E+00  0.00000000000E+00  0.99999944180E+02  0.10000000000E+03  0.10566000000E+00 0. -1.
         22   -1    0    0    0    0 -0.00000000000E+00 -0.00000000000E+00 -0.11475026607E+02  0.11475026607E+02  0.00000000000E+00 0. -1.
         13    1    1    2    0    0 -0.12196940561E+02  0.94399114851E+01  0.20447268812E+02  0.25612091945E+02  0.10566000000E+00 0.  1.
        996    1    1    2    0    0  0.12196940561E+02 -0.94399114851E+01  0.68077648761E+02  0.85862934662E+02  0.50000000000E+02 0.  0.
<mgrwt>
<rscale>  0 0.52324729E+02</rscale>
<asrwt>0</asrwt>
<pdfrwt beam="1">  1       13 0.10000000E+01 0.52324729E+02</pdfrwt>
<pdfrwt beam="2">  1       22 0.11475051E+00 0.52324729E+02</pdfrwt>
<totfact> 0.11513716E+00</totfact>
</mgrwt>
</event>
<event>
 4    1  0.2505250E+000  0.5191956E+02  0.7957747E-01  0.1435255E+00
         13   -1    0    0    0    0  0.00000000000E+00  0.00000000000E+00  0.99999944179E+02  0.99999999999E+02  0.10566000000E+00 0.  1.
         22   -1    0    0    0    0 -0.00000000000E+00 -0.00000000000E+00 -0.16767897758E+02  0.16767897758E+02  0.00000000000E+00 0. -1.
         13    1    1    2    0    0  0.10542186487E+02 -0.91925758270E+01 -0.46114225160E+01  0.14728120312E+02  0.10566000000E+00 0. -1.
        996    1    1    2    0    0 -0.10542186487E+02  0.91925758270E+01  0.87843468936E+02  0.10203977745E+03  0.50000000000E+02 0.  0.
<mgrwt>
<rscale>  0 0.51919564E+02</rscale>
<asrwt>0</asrwt>
<pdfrwt beam="1">  1       13 0.10000000E+01 0.51919564E+02</pdfrwt>
<pdfrwt beam="2">  1       22 0.16767921E+00 0.51919564E+02</pdfrwt>
<totfact> 0.62266783E-01</totfact>
</mgrwt>
</event>
<event>
 4    1  0.2505250E+000  0.5099572E+02  0.7957747E-01  0.1440044E+00
         13   -1    0    0    0    0  0.00000000000E+00  0.00000000000E+00  0.99999944173E+02  0.99999999993E+02  0.10566000000E+00 0. -1.
         22   -1    0    0    0    0 -0.00000000000E+00 -0.00000000000E+00 -0.28904495773E+02  0.28904495773E+02  0.00000000000E+00 0.  1.
         13    1    1    2    0    0 -0.94076549958E+01  0.34726385209E+01 -0.21203023941E+02  0.23455118398E+02  0.10566000000E+00 0.  1.
        996    1    1    2    0    0  0.94076549958E+01 -0.34726385209E+01  0.92298472341E+02  0.10544937737E+03  0.50000000000E+02 0.  0.
<mgrwt>
<rscale>  0 0.50995717E+02</rscale>
<asrwt>0</asrwt>
<pdfrwt beam="1">  1       13 0.10000000E+01 0.50995717E+02</pdfrwt>
<pdfrwt beam="2">  1       22 0.28904516E+00 0.50995717E+02</pdfrwt>
<totfact> 0.22180039E-01</totfact>
</mgrwt>
</event>
<event>
 4    1  0.2505250E+000  0.5099777E+02  0.7957747E-01  0.1440033E+00
         13   -1    0    0    0    0  0.00000000000E+00  0.00000000000E+00  0.99999944179E+02  0.99999999999E+02  0.10566000000E+00 0. -1.
         22   -1    0    0    0    0 -0.00000000000E+00 -0.00000000000E+00 -0.93329990155E+01  0.93329990155E+01  0.00000000000E+00 0. -1.
         13    1    1    2    0    0  0.21332644289E+01 -0.98092856159E+01  0.16818419733E+02  0.19586814641E+02  0.10566000000E+00 0.  1.
        996    1    1    2    0    0 -0.21332644289E+01  0.98092856159E+01  0.73848525430E+02  0.89746184373E+02  0.50000000000E+02 0.  0.
<mgrwt>
<rscale>  0 0.50997773E+02</rscale>
<asrwt>0</asrwt>
<pdfrwt beam="1">  1       13 0.10000000E+01 0.50997773E+02</pdfrwt>
<pdfrwt beam="2">  1       22 0.93330243E-01 0.50997773E+02</pdfrwt>
<totfact> 0.15527951E+00</totfact>
</mgrwt>
</event>
<event>
 4    1  0.2505250E+000  0.5208792E+02  0.7957747E-01  0.1434395E+00
         13   -1    0    0    0    0  0.00000000000E+00  0.00000000000E+00  0.99999944187E+02  0.10000000001E+03  0.10566000000E+00 0. -1.
         22   -1    0    0    0    0 -0.00000000000E+00 -0.00000000000E+00 -0.15168702597E+02  0.15168702597E+02  0.00000000000E+00 0.  1.
         13    1    1    2    0    0  0.63422707498E+01 -0.13150167097E+02 -0.11448232532E+01  0.14644899360E+02  0.10566000000E+00 0.  1.
        996    1    1    2    0    0 -0.63422707498E+01  0.13150167097E+02  0.85976064842E+02  0.10052380324E+03  0.50000000000E+02 0.  0.
<mgrwt>
<rscale>  0 0.52087919E+02</rscale>
<asrwt>0</asrwt>
<pdfrwt beam="1">  1       13 0.10000000E+01 0.52087919E+02</pdfrwt>
<pdfrwt beam="2">  1       22 0.15168726E+00 0.52087919E+02</pdfrwt>
<totfact> 0.73913430E-01</totfact>
</mgrwt>
</event>
<event>
 4    1  0.2505250E+000  0.5968583E+02  0.7957747E-01  0.1399155E+00
         13   -1    0    0    0    0  0.00000000000E+00  0.00000000000E+00  0.99999944176E+02  0.99999999996E+02  0.10566000000E+00 0. -1.
         22   -1    0    0    0    0 -0.00000000000E+00 -0.00000000000E+00 -0.34630687389E+02  0.34630687389E+02  0.00000000000E+00 0. -1.
         13    1    1    2    0    0 -0.32362051861E+02  0.38852757578E+01 -0.13873879749E+02  0.35424475602E+02  0.10566000000E+00 0.  1.
        996    1    1    2    0    0  0.32362051861E+02 -0.38852757578E+01  0.79243136536E+02  0.99206211783E+02  0.50000000000E+02 0.  0.
<mgrwt>
<rscale>  0 0.59685826E+02</rscale>
<asrwt>0</asrwt>
<pdfrwt beam="1">  1       13 0.10000000E+01 0.59685826E+02</pdfrwt>
<pdfrwt beam="2">  1       22 0.34630706E+00 0.59685826E+02</pdfrwt>
<totfact> 0.16129128E-01</totfact>
</mgrwt>
</event>
<event>
 4    1  0.2505250E+000  0.5827945E+02  0.7957747E-01  0.1405197E+00
         13   -1    0    0    0    0  0.00000000000E+00  0.00000000000E+00  0.99999944191E+02  0.10000000001E+03  0.10566000000E+00 0.  1.
         22   -1    0    0    0    0 -0.00000000000E+00 -0.00000000000E+00 -0.33765778321E+02  0.33765778321E+02  0.00000000000E+00 0.  1.
         13    1    1    2    0    0 -0.12759626451E+02  0.27086641337E+02 -0.15236992458E+02  0.33595703733E+02  0.10566000000E+00 0. -1.
        996    1    1    2    0    0  0.12759626451E+02 -0.27086641337E+02  0.81471158328E+02  0.10017007460E+03  0.50000000000E+02 0.  0.
<mgrwt>
<rscale>  0 0.58279449E+02</rscale>
<asrwt>0</asrwt>
<pdfrwt beam="1">  1       13 0.10000000E+01 0.58279449E+02</pdfrwt>
<pdfrwt beam="2">  1       22 0.33765797E+00 0.58279449E+02</pdfrwt>
<totfact> 0.16840594E-01</totfact>
</mgrwt>
</event>
<event>
 4    1  0.2505250E+000  0.5523037E+02  0.7957747E-01  0.1419013E+00
         13   -1    0    0    0    0  0.00000000000E+00  0.00000000000E+00  0.99999944181E+02  0.10000000000E+03  0.10566000000E+00 0. -1.
         22   -1    0    0    0    0 -0.00000000000E+00 -0.00000000000E+00 -0.17319997659E+02  0.17319997659E+02  0.00000000000E+00 0. -1.
         13    1    1    2    0    0  0.26692802201E+01  0.23308135105E+02  0.87537070836E+01  0.25040622410E+02  0.10566000000E+00 0.  1.
        996    1    1    2    0    0 -0.26692802201E+01 -0.23308135105E+02  0.73926239439E+02  0.92279375250E+02  0.50000000000E+02 0.  0.
<mgrwt>
<rscale>  0 0.55230374E+02</rscale>
<asrwt>0</asrwt>
<pdfrwt beam="1">  1       13 0.10000000E+01 0.55230374E+02</pdfrwt>
<pdfrwt beam="2">  1       22 0.17320021E+00 0.55230374E+02</pdfrwt>
<totfact> 0.59191197E-01</totfact>
</mgrwt>
</event>
<event>
 4    1  0.2505250E+000  0.5158504E+02  0.7957747E-01  0.1436975E+00
         13   -1    0    0    0    0  0.00000000000E+00  0.00000000000E+00  0.99999944180E+02  0.10000000000E+03  0.10566000000E+00 0. -1.
         22   -1    0    0    0    0 -0.00000000000E+00 -0.00000000000E+00 -0.15930818435E+02  0.15930818435E+02  0.00000000000E+00 0.  1.
         13    1    1    2    0    0  0.63400716482E+01 -0.10991822982E+02 -0.44753638461E+01  0.13455732108E+02  0.10566000000E+00 0.  1.
        996    1    1    2    0    0 -0.63400716482E+01  0.10991822982E+02  0.88544489591E+02  0.10247508633E+03  0.50000000000E+02 0.  0.
<mgrwt>
<rscale>  0 0.51585043E+02</rscale>
<asrwt>0</asrwt>
<pdfrwt beam="1">  1       13 0.10000000E+01 0.51585043E+02</pdfrwt>
<pdfrwt beam="2">  1       22 0.15930842E+00 0.51585043E+02</pdfrwt>
<totfact> 0.67969926E-01</totfact>
</mgrwt>
</event>
<event>
 4    1  0.2505250E+000  0.5120624E+02  0.7957747E-01  0.1438942E+00
         13   -1    0    0    0    0  0.00000000000E+00  0.00000000000E+00  0.99999944180E+02  0.10000000000E+03  0.10566000000E+00 0. -1.
         22   -1    0    0    0    0 -0.00000000000E+00 -0.00000000000E+00 -0.11564317865E+02  0.11564317865E+02  0.00000000000E+00 0. -1.
         13    1    1    2    0    0 -0.92392777925E+01 -0.60592777201E+01  0.21923270138E+01  0.11264837433E+02  0.10566000000E+00 0.  1.
        996    1    1    2    0    0  0.92392777925E+01  0.60592777201E+01  0.86243299302E+02  0.10029948043E+03  0.50000000000E+02 0.  0.
<mgrwt>
<rscale>  0 0.51206241E+02</rscale>
<asrwt>0</asrwt>
<pdfrwt beam="1">  1       13 0.10000000E+01 0.51206241E+02</pdfrwt>
<pdfrwt beam="2">  1       22 0.11564343E+00 0.51206241E+02</pdfrwt>
<totfact> 0.11350821E+00</totfact>
</mgrwt>
</event>
<event>
 4    1  0.2505250E+000  0.5524678E+02  0.7957747E-01  0.1418935E+00
         13   -1    0    0    0    0  0.00000000000E+00  0.00000000000E+00  0.99999944178E+02  0.99999999998E+02  0.10566000000E+00 0. -1.
         22   -1    0    0    0    0 -0.00000000000E+00 -0.00000000000E+00 -0.22037469672E+02  0.22037469672E+02  0.00000000000E+00 0.  1.
         13    1    1    2    0    0 -0.21058769643E+02  0.10427592061E+02 -0.33451577105E+01  0.23736210717E+02  0.10566000000E+00 0.  1.
        996    1    1    2    0    0  0.21058769643E+02 -0.10427592061E+02  0.81307632217E+02  0.98301258953E+02  0.50000000000E+02 0.  0.
<mgrwt>
<rscale>  0 0.55246778E+02</rscale>
<asrwt>0</asrwt>
<pdfrwt beam="1">  1       13 0.10000000E+01 0.55246778E+02</pdfrwt>
<pdfrwt beam="2">  1       22 0.22037491E+00 0.55246778E+02</pdfrwt>
<totfact> 0.37899905E-01</totfact>
</mgrwt>
</event>
<event>
 4    1  0.2505250E+000  0.5130827E+02  0.7957747E-01  0.1438410E+00
         13   -1    0    0    0    0  0.00000000000E+00  0.00000000000E+00  0.99999944182E+02  0.10000000000E+03  0.10566000000E+00 0.  1.
         22   -1    0    0    0    0 -0.00000000000E+00 -0.00000000000E+00 -0.12787510154E+02  0.12787510154E+02  0.00000000000E+00 0. -1.
         13    1    1    2    0    0 -0.89378749638E+01  0.72562147912E+01 -0.10247599121E+00  0.11513467216E+02  0.10566000000E+00 0. -1.
        996    1    1    2    0    0  0.89378749638E+01 -0.72562147912E+01  0.87314910019E+02  0.10127404294E+03  0.50000000000E+02 0.  0.
<mgrwt>
<rscale>  0 0.51308267E+02</rscale>
<asrwt>0</asrwt>
<pdfrwt beam="1">  1       13 0.10000000E+01 0.51308267E+02</pdfrwt>
<pdfrwt beam="2">  1       22 0.12787535E+00 0.51308267E+02</pdfrwt>
<totfact> 0.97268175E-01</totfact>
</mgrwt>
</event>
<event>
 4    1  0.2505250E+000  0.5146661E+02  0.7957747E-01  0.1437588E+00
         13   -1    0    0    0    0  0.00000000000E+00  0.00000000000E+00  0.99999944178E+02  0.99999999998E+02  0.10566000000E+00 0. -1.
         22   -1    0    0    0    0 -0.00000000000E+00 -0.00000000000E+00 -0.11164841865E+02  0.11164841865E+02  0.00000000000E+00 0.  1.
         13    1    1    2    0    0  0.75682741804E+01 -0.95672836819E+01  0.58827647843E+01  0.13543624945E+02  0.10566000000E+00 0.  1.
        996    1    1    2    0    0 -0.75682741804E+01  0.95672836819E+01  0.82952337528E+02  0.97621216918E+02  0.50000000000E+02 0.  0.
<mgrwt>
<rscale>  0 0.51466608E+02</rscale>
<asrwt>0</asrwt>
<pdfrwt beam="1">  1       13 0.10000000E+01 0.51466608E+02</pdfrwt>
<pdfrwt beam="2">  1       22 0.11164867E+00 0.51466608E+02</pdfrwt>
<totfact> 0.11973583E+00</totfact>
</mgrwt>
</event>
<event>
 4    1  0.2505250E+000  0.7444531E+02  0.7957747E-01  0.1345597E+00
         13   -1    0    0    0    0  0.00000000000E+00  0.00000000000E+00  0.99999944170E+02  0.99999999990E+02  0.10566000000E+00 0.  1.
         22   -1    0    0    0    0 -0.00000000000E+00 -0.00000000000E+00 -0.42704342132E+02  0.42704342132E+02  0.00000000000E+00 0.  1.
         13    1    1    2    0    0  0.41036130498E+02 -0.36852946741E+02  0.33577098420E+02  0.64571947408E+02  0.10566000000E+00 0. -1.
        996    1    1    2    0    0 -0.41036130498E+02  0.36852946741E+02  0.23718503618E+02  0.78132394713E+02  0.50000000000E+02 0.  0.
<mgrwt>
<rscale>  0 0.74445307E+02</rscale>
<asrwt>0</asrwt>
<pdfrwt beam="1">  1       13 0.10000000E+01 0.74445307E+02</pdfrwt>
<pdfrwt beam="2">  1       22 0.42704358E+00 0.74445307E+02</pdfrwt>
<totfact> 0.10990730E-01</totfact>
</mgrwt>
</event>
<event>
 4    1  0.2505250E+000  0.5582891E+02  0.7957747E-01  0.1416219E+00
         13   -1    0    0    0    0  0.00000000000E+00  0.00000000000E+00  0.99999944185E+02  0.10000000001E+03  0.10566000000E+00 0. -1.
         22   -1    0    0    0    0 -0.00000000000E+00 -0.00000000000E+00 -0.24796921137E+02  0.24796921137E+02  0.00000000000E+00 0.  1.
         13    1    1    2    0    0 -0.23915295853E+02  0.67026957165E+01 -0.66549258165E+01  0.25713162140E+02  0.10566000000E+00 0.  1.
        996    1    1    2    0    0  0.23915295853E+02 -0.67026957165E+01  0.81857948865E+02  0.99083759002E+02  0.50000000000E+02 0.  0.
<mgrwt>
<rscale>  0 0.55828913E+02</rscale>
<asrwt>0</asrwt>
<pdfrwt beam="1">  1       13 0.10000000E+01 0.55828913E+02</pdfrwt>
<pdfrwt beam="2">  1       22 0.24796942E+00 0.55828913E+02</pdfrwt>
<totfact> 0.30130890E-01</totfact>
</mgrwt>
</event>
<event>
 4    1  0.2505250E+000  0.5324864E+02  0.7957747E-01  0.1428567E+00
         13   -1    0    0    0    0  0.00000000000E+00  0.00000000000E+00  0.99999944175E+02  0.99999999995E+02  0.10566000000E+00 0.  1.
         22   -1    0    0    0    0 -0.00000000000E+00 -0.00000000000E+00 -0.17728568016E+02  0.17728568016E+02  0.00000000000E+00 0. -1.
         13    1    1    2    0    0 -0.35846456451E+01  0.17960174573E+02 -0.15968900504E+01  0.18384199111E+02  0.10566000000E+00 0. -1.
        996    1    1    2    0    0  0.35846456451E+01 -0.17960174573E+02  0.83868266209E+02  0.99344368900E+02  0.50000000000E+02 0.  0.
<mgrwt>
<rscale>  0 0.53248639E+02</rscale>
<asrwt>0</asrwt>
<pdfrwt beam="1">  1       13 0.10000000E+01 0.53248639E+02</pdfrwt>
<pdfrwt beam="2">  1       22 0.17728591E+00 0.53248639E+02</pdfrwt>
<totfact> 0.56585528E-01</totfact>
</mgrwt>
</event>
<event>
 4    1  0.2505250E+000  0.5164876E+02  0.7957747E-01  0.1436646E+00
         13   -1    0    0    0    0  0.00000000000E+00  0.00000000000E+00  0.99999944181E+02  0.10000000000E+03  0.10566000000E+00 0. -1.
         22   -1    0    0    0    0 -0.00000000000E+00 -0.00000000000E+00 -0.10478216097E+02  0.10478216097E+02  0.00000000000E+00 0.  1.
         13    1    1    2    0    0 -0.12923499820E+02  0.75995422336E+00  0.15098121877E+02  0.19888660746E+02  0.10566000000E+00 0.  1.
        996    1    1    2    0    0  0.12923499820E+02 -0.75995422336E+00  0.74423606207E+02  0.90589555352E+02  0.50000000000E+02 0.  0.
<mgrwt>
<rscale>  0 0.51648760E+02</rscale>
<asrwt>0</asrwt>
<pdfrwt beam="1">  1       13 0.10000000E+01 0.51648760E+02</pdfrwt>
<pdfrwt beam="2">  1       22 0.10478241E+00 0.51648760E+02</pdfrwt>
<totfact> 0.13158768E+00</totfact>
</mgrwt>
</event>
<event>
 4    1  0.2505250E+000  0.5256724E+02  0.7957747E-01  0.1431967E+00
         13   -1    0    0    0    0  0.00000000000E+00  0.00000000000E+00  0.99999944180E+02  0.10000000000E+03  0.10566000000E+00 0.  1.
         22   -1    0    0    0    0 -0.00000000000E+00 -0.00000000000E+00 -0.14616452434E+02  0.14616452434E+02  0.00000000000E+00 0. -1.
         13    1    1    2    0    0  0.16038119099E+02 -0.24684391654E+01  0.24281315554E+01  0.16407968888E+02  0.10566000000E+00 0. -1.
        996    1    1    2    0    0 -0.16038119099E+02  0.24684391654E+01  0.82955360190E+02  0.98208483546E+02  0.50000000000E+02 0.  0.
<mgrwt>
<rscale>  0 0.52567237E+02</rscale>
<asrwt>0</asrwt>
<pdfrwt beam="1">  1       13 0.10000000E+01 0.52567237E+02</pdfrwt>
<pdfrwt beam="2">  1       22 0.14616476E+00 0.52567237E+02</pdfrwt>
<totfact> 0.78685054E-01</totfact>
</mgrwt>
</event>
<event>
 4    1  0.2505250E+000  0.5235081E+02  0.7957747E-01  0.1433059E+00
         13   -1    0    0    0    0  0.00000000000E+00  0.00000000000E+00  0.99999944180E+02  0.10000000000E+03  0.10566000000E+00 0.  1.
         22   -1    0    0    0    0 -0.00000000000E+00 -0.00000000000E+00 -0.15642308435E+02  0.15642308435E+02  0.00000000000E+00 0. -1.
         13    1    1    2    0    0 -0.87937634410E+01 -0.12777989950E+02 -0.96247895288E+00  0.15541712660E+02  0.10566000000E+00 0. -1.
        996    1    1    2    0    0  0.87937634410E+01  0.12777989950E+02  0.85320114697E+02  0.10010059578E+03  0.50000000000E+02 0.  0.
<mgrwt>
<rscale>  0 0.52350810E+02</rscale>
<asrwt>0</asrwt>
<pdfrwt beam="1">  1       13 0.10000000E+01 0.52350810E+02</pdfrwt>
<pdfrwt beam="2">  1       22 0.15642332E+00 0.52350810E+02</pdfrwt>
<totfact> 0.70222709E-01</totfact>
</mgrwt>
</event>
<event>
 4    1  0.2505250E+000  0.5148708E+02  0.7957747E-01  0.1437482E+00
         13   -1    0    0    0    0  0.00000000000E+00  0.00000000000E+00  0.99999944171E+02  0.99999999991E+02  0.10566000000E+00 0. -1.
         22   -1    0    0    0    0 -0.00000000000E+00 -0.00000000000E+00 -0.18080252887E+02  0.18080252887E+02  0.00000000000E+00 0.  1.
         13    1    1    2    0    0  0.12203004137E+02  0.14163250397E+01 -0.78601425755E+01  0.14584659472E+02  0.10566000000E+00 0.  1.
        996    1    1    2    0    0 -0.12203004137E+02 -0.14163250397E+01  0.89779833860E+02  0.10349559341E+03  0.50000000000E+02 0.  0.
<mgrwt>
<rscale>  0 0.51487079E+02</rscale>
<asrwt>0</asrwt>
<pdfrwt beam="1">  1       13 0.10000000E+01 0.51487079E+02</pdfrwt>
<pdfrwt beam="2">  1       22 0.18080276E+00 0.51487079E+02</pdfrwt>
<totfact> 0.54450621E-01</totfact>
</mgrwt>
</event>
<event>
 4    1  0.2505250E+000  0.5223564E+02  0.7957747E-01  0.1433643E+00
         13   -1    0    0    0    0  0.00000000000E+00  0.00000000000E+00  0.99999944187E+02  0.10000000001E+03  0.10566000000E+00 0. -1.
         22   -1    0    0    0    0 -0.00000000000E+00 -0.00000000000E+00 -0.18502537131E+02  0.18502537131E+02  0.00000000000E+00 0.  1.
         13    1    1    2    0    0 -0.74767558689E+01 -0.13140005045E+02 -0.62697832820E+01  0.16367130395E+02  0.10566000000E+00 0.  1.
        996    1    1    2    0    0  0.74767558689E+01  0.13140005045E+02  0.87767190338E+02  0.10213540674E+03  0.50000000000E+02 0.  0.
<mgrwt>
<rscale>  0 0.52235635E+02</rscale>
<asrwt>0</asrwt>
<pdfrwt beam="1">  1       13 0.10000000E+01 0.52235635E+02</pdfrwt>
<pdfrwt beam="2">  1       22 0.18502560E+00 0.52235635E+02</pdfrwt>
<totfact> 0.52302826E-01</totfact>
</mgrwt>
</event>
<event>
 4    1  0.2505250E+000  0.5226875E+02  0.7957747E-01  0.1433475E+00
         13   -1    0    0    0    0  0.00000000000E+00  0.00000000000E+00  0.99999944178E+02  0.99999999998E+02  0.10566000000E+00 0.  1.
         22   -1    0    0    0    0 -0.00000000000E+00 -0.00000000000E+00 -0.15840200797E+02  0.15840200797E+02  0.00000000000E+00 0. -1.
         13    1    1    2    0    0  0.11855844916E+02 -0.95635378306E+01 -0.16945494875E+01  0.15326610079E+02  0.10566000000E+00 0. -1.
        996    1    1    2    0    0 -0.11855844916E+02  0.95635378306E+01  0.85854292869E+02  0.10051359072E+03  0.50000000000E+02 0.  0.
<mgrwt>
<rscale>  0 0.52268751E+02</rscale>
<asrwt>0</asrwt>
<pdfrwt beam="1">  1       13 0.10000000E+01 0.52268751E+02</pdfrwt>
<pdfrwt beam="2">  1       22 0.15840224E+00 0.52268751E+02</pdfrwt>
<totfact> 0.68727880E-01</totfact>
</mgrwt>
</event>
<event>
 4    1  0.2505250E+000  0.5717177E+02  0.7957747E-01  0.1410099E+00
         13   -1    0    0    0    0  0.00000000000E+00  0.00000000000E+00  0.99999944181E+02  0.10000000000E+03  0.10566000000E+00 0.  1.
         22   -1    0    0    0    0 -0.00000000000E+00 -0.00000000000E+00 -0.27407391679E+02  0.27407391679E+02  0.00000000000E+00 0. -1.
         13    1    1    2    0    0  0.26718059539E+01 -0.27594789585E+02 -0.77615419751E+01  0.28789992310E+02  0.10566000000E+00 0. -1.
        996    1    1    2    0    0 -0.26718059539E+01  0.27594789585E+02  0.80354094478E+02  0.98617399371E+02  0.50000000000E+02 0.  0.
<mgrwt>
<rscale>  0 0.57171767E+02</rscale>
<asrwt>0</asrwt>
<pdfrwt beam="1">  1       13 0.10000000E+01 0.57171767E+02</pdfrwt>
<pdfrwt beam="2">  1       22 0.27407412E+00 0.57171767E+02</pdfrwt>
<totfact> 0.24788944E-01</totfact>
</mgrwt>
</event>
<event>
 4    1  0.2505250E+000  0.5122926E+02  0.7957747E-01  0.1438822E+00
         13   -1    0    0    0    0  0.00000000000E+00  0.00000000000E+00  0.99999944176E+02  0.99999999996E+02  0.10566000000E+00 0.  1.
         22   -1    0    0    0    0 -0.00000000000E+00 -0.00000000000E+00 -0.97837385868E+01  0.97837385868E+01  0.00000000000E+00 0.  1.
         13    1    1    2    0    0  0.86083435956E+01 -0.70945782140E+01  0.13158677420E+02  0.17251045620E+02  0.10566000000E+00 0. -1.
        996    1    1    2    0    0 -0.86083435956E+01  0.70945782140E+01  0.77057528169E+02  0.92532692963E+02  0.50000000000E+02 0.  0.
<mgrwt>
<rscale>  0 0.51229256E+02</rscale>
<asrwt>0</asrwt>
<pdfrwt beam="1">  1       13 0.10000000E+01 0.51229256E+02</pdfrwt>
<pdfrwt beam="2">  1       22 0.97837638E-01 0.51229256E+02</pdfrwt>
<totfact> 0.14522915E+00</totfact>
</mgrwt>
</event>
<event>
 4    1  0.2505250E+000  0.5480230E+02  0.7957747E-01  0.1421036E+00
         13   -1    0    0    0    0  0.00000000000E+00  0.00000000000E+00  0.99999944182E+02  0.10000000000E+03  0.10566000000E+00 0. -1.
         22   -1    0    0    0    0 -0.00000000000E+00 -0.00000000000E+00 -0.15170524961E+02  0.15170524961E+02  0.00000000000E+00 0. -1.
         13    1    1    2    0    0 -0.16648053468E+02 -0.15037753136E+02  0.31755141415E+02  0.38880481916E+02  0.10566000000E+00 0.  1.
        996    1    1    2    0    0  0.16648053468E+02  0.15037753136E+02  0.53074277805E+02  0.76290043048E+02  0.50000000000E+02 0.  0.
<mgrwt>
<rscale>  0 0.54802297E+02</rscale>
<asrwt>0</asrwt>
<pdfrwt beam="1">  1       13 0.10000000E+01 0.54802297E+02</pdfrwt>
<pdfrwt beam="2">  1       22 0.15170549E+00 0.54802297E+02</pdfrwt>
<totfact> 0.74295759E-01</totfact>
</mgrwt>
</event>
<event>
 4    1  0.2505250E+000  0.5246851E+02  0.7957747E-01  0.1432464E+00
         13   -1    0    0    0    0  0.00000000000E+00  0.00000000000E+00  0.99999944179E+02  0.99999999999E+02  0.10566000000E+00 0. -1.
         22   -1    0    0    0    0 -0.00000000000E+00 -0.00000000000E+00 -0.14083450330E+02  0.14083450330E+02  0.00000000000E+00 0.  1.
         13    1    1    2    0    0 -0.15810348168E+02  0.17254050807E+01  0.33458351656E+01  0.16252689281E+02  0.10566000000E+00 0.  1.
        996    1    1    2    0    0  0.15810348168E+02 -0.17254050807E+01  0.82570658683E+02  0.97830761048E+02  0.50000000000E+02 0.  0.
<mgrwt>
<rscale>  0 0.52468506E+02</rscale>
<asrwt>0</asrwt>
<pdfrwt beam="1">  1       13 0.10000000E+01 0.52468506E+02</pdfrwt>
<pdfrwt beam="2">  1       22 0.14083474E+00 0.52468506E+02</pdfrwt>
<totfact> 0.83600081E-01</totfact>
</mgrwt>
</event>
<event>
 4    1  0.2505250E+000  0.5241717E+02  0.7957747E-01  0.1432724E+00
         13   -1    0    0    0    0  0.00000000000E+00  0.00000000000E+00  0.99999944180E+02  0.10000000000E+03  0.10566000000E+00 0.  1.
         22   -1    0    0    0    0 -0.00000000000E+00 -0.00000000000E+00 -0.11652859680E+02  0.11652859680E+02  0.00000000000E+00 0.  1.
         13    1    1    2    0    0  0.15558689895E+02 -0.23424974691E+01  0.17678491416E+02  0.23666439285E+02  0.10566000000E+00 0. -1.
        996    1    1    2    0    0 -0.15558689895E+02  0.23424974691E+01  0.70668593084E+02  0.87986420396E+02  0.50000000000E+02 0.  0.
<mgrwt>
<rscale>  0 0.52417174E+02</rscale>
<asrwt>0</asrwt>
<pdfrwt beam="1">  1       13 0.10000000E+01 0.52417174E+02</pdfrwt>
<pdfrwt beam="2">  1       22 0.11652884E+00 0.52417174E+02</pdfrwt>
<totfact> 0.11251516E+00</totfact>
</mgrwt>
</event>
<event>
 4    1  0.2505250E+000  0.5338649E+02  0.7957747E-01  0.1427887E+00
         13   -1    0    0    0    0  0.00000000000E+00  0.00000000000E+00  0.99999944178E+02  0.99999999999E+02  0.10566000000E+00 0. -1.
         22   -1    0    0    0    0 -0.00000000000E+00 -0.00000000000E+00 -0.22485322845E+02  0.22485322845E+02  0.00000000000E+00 0. -1.
         13    1    1    2    0    0  0.18686984217E+02  0.95608480437E+00 -0.90474454800E+01  0.20784246703E+02  0.10566000000E+00 0.  1.
        996    1    1    2    0    0 -0.18686984217E+02 -0.95608480437E+00  0.86562066813E+02  0.10170107614E+03  0.50000000000E+02 0.  0.
<mgrwt>
<rscale>  0 0.53386492E+02</rscale>
<asrwt>0</asrwt>
<pdfrwt beam="1">  1       13 0.10000000E+01 0.53386492E+02</pdfrwt>
<pdfrwt beam="2">  1       22 0.22485344E+00 0.53386492E+02</pdfrwt>
<totfact> 0.36346436E-01</totfact>
</mgrwt>
</event>
<event>
 4    1  0.2505250E+000  0.6330138E+02  0.7957747E-01  0.1384477E+00
         13   -1    0    0    0    0  0.00000000000E+00  0.00000000000E+00  0.99999944183E+02  0.10000000000E+03  0.10566000000E+00 0. -1.
         22   -1    0    0    0    0 -0.00000000000E+00 -0.00000000000E+00 -0.85610783976E+02  0.85610783976E+02  0.00000000000E+00 0.  1.
         13    1    1    2    0    0 -0.26596176566E+02 -0.28279120296E+02 -0.70044433859E+02  0.80083076435E+02  0.10566000000E+00 0.  1.
        996    1    1    2    0    0  0.26596176566E+02  0.28279120296E+02  0.84433594066E+02  0.10552770754E+03  0.50000000000E+02 0.  0.
<mgrwt>
<rscale>  0 0.63301384E+02</rscale>
<asrwt>0</asrwt>
<pdfrwt beam="1">  1       13 0.10000000E+01 0.63301384E+02</pdfrwt>
<pdfrwt beam="2">  1       22 0.85610788E+00 0.63301384E+02</pdfrwt>
<totfact> 0.17788316E-02</totfact>
</mgrwt>
</event>
<event>
 4    1  0.2505250E+000  0.5446918E+02  0.7957747E-01  0.1422626E+00
         13   -1    0    0    0    0  0.00000000000E+00  0.00000000000E+00  0.99999944174E+02  0.99999999995E+02  0.10566000000E+00 0.  1.
         22   -1    0    0    0    0 -0.00000000000E+00 -0.00000000000E+00 -0.32678648487E+02  0.32678648487E+02  0.00000000000E+00 0. -1.
         13    1    1    2    0    0 -0.19132035044E+02 -0.10042746792E+02 -0.20208168001E+02  0.29585008806E+02  0.10566000000E+00 0. -1.
        996    1    1    2    0    0  0.19132035044E+02  0.10042746792E+02  0.87529463688E+02  0.10309363968E+03  0.50000000000E+02 0.  0.
<mgrwt>
<rscale>  0 0.54469180E+02</rscale>
<asrwt>0</asrwt>
<pdfrwt beam="1">  1       13 0.10000000E+01 0.54469180E+02</pdfrwt>
<pdfrwt beam="2">  1       22 0.32678667E+00 0.54469180E+02</pdfrwt>
<totfact> 0.17772807E-01</totfact>
</mgrwt>
</event>
<event>
 4    1  0.2505250E+000  0.5479657E+02  0.7957747E-01  0.1421063E+00
         13   -1    0    0    0    0  0.00000000000E+00  0.00000000000E+00  0.99999944170E+02  0.99999999991E+02  0.10566000000E+00 0. -1.
         22   -1    0    0    0    0 -0.00000000000E+00 -0.00000000000E+00 -0.21693694309E+02  0.21693694309E+02  0.00000000000E+00 0.  1.
         13    1    1    2    0    0 -0.19981317142E+02 -0.10169148531E+02 -0.40402499147E+01  0.22781558331E+02  0.10566000000E+00 0.  1.
        996    1    1    2    0    0  0.19981317142E+02  0.10169148531E+02  0.82346499776E+02  0.98912135969E+02  0.50000000000E+02 0.  0.
<mgrwt>
<rscale>  0 0.54796575E+02</rscale>
<asrwt>0</asrwt>
<pdfrwt beam="1">  1       13 0.10000000E+01 0.54796575E+02</pdfrwt>
<pdfrwt beam="2">  1       22 0.21693716E+00 0.54796575E+02</pdfrwt>
<totfact> 0.39034426E-01</totfact>
</mgrwt>
</event>
<event>
 4    1  0.2505250E+000  0.5858488E+02  0.7957747E-01  0.1403868E+00
         13   -1    0    0    0    0  0.00000000000E+00  0.00000000000E+00  0.99999944173E+02  0.99999999993E+02  0.10566000000E+00 0. -1.
         22   -1    0    0    0    0 -0.00000000000E+00 -0.00000000000E+00 -0.20534546254E+02  0.20534546254E+02  0.00000000000E+00 0. -1.
         13    1    1    2    0    0  0.13845919123E+02 -0.27211734634E+02  0.17210592510E+02  0.35048589654E+02  0.10566000000E+00 0.  1.
        996    1    1    2    0    0 -0.13845919123E+02  0.27211734634E+02  0.62254805408E+02  0.85485956593E+02  0.50000000000E+02 0.  0.
<mgrwt>
<rscale>  0 0.58584878E+02</rscale>
<asrwt>0</asrwt>
<pdfrwt beam="1">  1       13 0.10000000E+01 0.58584878E+02</pdfrwt>
<pdfrwt beam="2">  1       22 0.20534568E+00 0.58584878E+02</pdfrwt>
<totfact> 0.43596692E-01</totfact>
</mgrwt>
</event>
<event>
 4    1  0.2505250E+000  0.5099450E+02  0.7957747E-01  0.1440050E+00
         13   -1    0    0    0    0  0.00000000000E+00  0.00000000000E+00  0.99999944180E+02  0.10000000000E+03  0.10566000000E+00 0. -1.
         22   -1    0    0    0    0 -0.00000000000E+00 -0.00000000000E+00 -0.18242447434E+02  0.18242447434E+02  0.00000000000E+00 0.  1.
         13    1    1    2    0    0 -0.59289147051E+01 -0.80800670444E+01 -0.94321328186E+01  0.13762841515E+02  0.10566000000E+00 0.  1.
        996    1    1    2    0    0  0.59289147051E+01  0.80800670444E+01  0.91189629565E+02  0.10447960592E+03  0.50000000000E+02 0.  0.
<mgrwt>
<rscale>  0 0.50994505E+02</rscale>
<asrwt>0</asrwt>
<pdfrwt beam="1">  1       13 0.10000000E+01 0.50994505E+02</pdfrwt>
<pdfrwt beam="2">  1       22 0.18242470E+00 0.50994505E+02</pdfrwt>
<totfact> 0.53532624E-01</totfact>
</mgrwt>
</event>
<event>
 4    1  0.2505250E+000  0.5288335E+02  0.7957747E-01  0.1430382E+00
         13   -1    0    0    0    0  0.00000000000E+00  0.00000000000E+00  0.99999944174E+02  0.99999999994E+02  0.10566000000E+00 0. -1.
         22   -1    0    0    0    0 -0.00000000000E+00 -0.00000000000E+00 -0.51310431856E+02  0.51310431856E+02  0.00000000000E+00 0.  1.
         13    1    1    2    0    0 -0.11242861600E+02 -0.13047882781E+02 -0.42521554414E+02  0.45877477436E+02  0.10566000000E+00 0.  1.
        996    1    1    2    0    0  0.11242861600E+02  0.13047882781E+02  0.91211066732E+02  0.10543295441E+03  0.50000000000E+02 0.  0.
<mgrwt>
<rscale>  0 0.52883354E+02</rscale>
<asrwt>0</asrwt>
<pdfrwt beam="1">  1       13 0.10000000E+01 0.52883354E+02</pdfrwt>
<pdfrwt beam="2">  1       22 0.51310445E+00 0.52883354E+02</pdfrwt>
<totfact> 0.68664871E-02</totfact>
</mgrwt>
</event>
<event>
 4    1  0.2505250E+000  0.5110879E+02  0.7957747E-01  0.1439451E+00
         13   -1    0    0    0    0  0.00000000000E+00  0.00000000000E+00  0.99999944180E+02  0.10000000000E+03  0.10566000000E+00 0. -1.
         22   -1    0    0    0    0 -0.00000000000E+00 -0.00000000000E+00 -0.15936483844E+02  0.15936483844E+02  0.00000000000E+00 0.  1.
         13    1    1    2    0    0  0.10404941603E+02 -0.19609870355E+01 -0.61546759986E+01  0.12247427509E+02  0.10566000000E+00 0.  1.
        996    1    1    2    0    0 -0.10404941603E+02  0.19609870355E+01  0.90218136335E+02  0.10368905634E+03  0.50000000000E+02 0.  0.
<mgrwt>
<rscale>  0 0.51108789E+02</rscale>
<asrwt>0</asrwt>
<pdfrwt beam="1">  1       13 0.10000000E+01 0.51108789E+02</pdfrwt>
<pdfrwt beam="2">  1       22 0.15936507E+00 0.51108789E+02</pdfrwt>
<totfact> 0.67863431E-01</totfact>
</mgrwt>
</event>
<event>
 4    1  0.2505250E+000  0.5166156E+02  0.7957747E-01  0.1436580E+00
         13   -1    0    0    0    0  0.00000000000E+00  0.00000000000E+00  0.99999944185E+02  0.10000000001E+03  0.10566000000E+00 0. -1.
         22   -1    0    0    0    0 -0.00000000000E+00 -0.00000000000E+00 -0.10544894083E+02  0.10544894083E+02  0.00000000000E+00 0. -1.
         13    1    1    2    0    0  0.12927393130E+02  0.13412166382E+01  0.14046241452E+02  0.19136990834E+02  0.10566000000E+00 0.  1.
        996    1    1    2    0    0 -0.12927393130E+02 -0.13412166382E+01  0.75408808651E+02  0.91407903254E+02  0.50000000000E+02 0.  0.
<mgrwt>
<rscale>  0 0.51661556E+02</rscale>
<asrwt>0</asrwt>
<pdfrwt beam="1">  1       13 0.10000000E+01 0.51661556E+02</pdfrwt>
<pdfrwt beam="2">  1       22 0.10544919E+00 0.51661556E+02</pdfrwt>
<totfact> 0.13037176E+00</totfact>
</mgrwt>
</event>
<event>
 4    1  0.2505250E+000  0.5505013E+02  0.7957747E-01  0.1419862E+00
         13   -1    0    0    0    0  0.00000000000E+00  0.00000000000E+00  0.99999944178E+02  0.99999999998E+02  0.10566000000E+00 0. -1.
         22   -1    0    0    0    0 -0.00000000000E+00 -0.00000000000E+00 -0.15276549888E+02  0.15276549888E+02  0.00000000000E+00 0.  1.
         13    1    1    2    0    0 -0.87570715827E+01  0.21303288957E+02  0.27513627362E+02  0.35882130340E+02  0.10566000000E+00 0.  1.
        996    1    1    2    0    0  0.87570715827E+01 -0.21303288957E+02  0.57209766928E+02  0.79394419546E+02  0.50000000000E+02 0.  0.
<mgrwt>
<rscale>  0 0.55050126E+02</rscale>
<asrwt>0</asrwt>
<pdfrwt beam="1">  1       13 0.10000000E+01 0.55050126E+02</pdfrwt>
<pdfrwt beam="2">  1       22 0.15276574E+00 0.55050126E+02</pdfrwt>
<totfact> 0.73467704E-01</totfact>
</mgrwt>
</event>
<event>
 4    1  0.2505250E+000  0.5310210E+02  0.7957747E-01  0.1429293E+00
         13   -1    0    0    0    0  0.00000000000E+00  0.00000000000E+00  0.99999944181E+02  0.10000000000E+03  0.10566000000E+00 0.  1.
         22   -1    0    0    0    0 -0.00000000000E+00 -0.00000000000E+00 -0.15089970555E+02  0.15089970555E+02  0.00000000000E+00 0. -1.
         13    1    1    2    0    0  0.16473738610E+02  0.69605402211E+01  0.40251360055E+01  0.18331559341E+02  0.10566000000E+00 0. -1.
        996    1    1    2    0    0 -0.16473738610E+02 -0.69605402211E+01  0.80884837621E+02  0.96758411215E+02  0.50000000000E+02 0.  0.
<mgrwt>
<rscale>  0 0.53102102E+02</rscale>
<asrwt>0</asrwt>
<pdfrwt beam="1">  1       13 0.10000000E+01 0.53102102E+02</pdfrwt>
<pdfrwt beam="2">  1       22 0.15089994E+00 0.53102102E+02</pdfrwt>
<totfact> 0.74711371E-01</totfact>
</mgrwt>
</event>
<event>
 4    1  0.2505250E+000  0.5336625E+02  0.7957747E-01  0.1427987E+00
         13   -1    0    0    0    0  0.00000000000E+00  0.00000000000E+00  0.99999944183E+02  0.10000000000E+03  0.10566000000E+00 0. -1.
         22   -1    0    0    0    0 -0.00000000000E+00 -0.00000000000E+00 -0.70668503872E+02  0.70668503872E+02  0.00000000000E+00 0.  1.
         13    1    1    2    0    0 -0.40480021123E+01  0.18209068842E+02 -0.62078626812E+02  0.64820703329E+02  0.10566000000E+00 0.  1.
        996    1    1    2    0    0  0.40480021123E+01 -0.18209068842E+02  0.91410067123E+02  0.10584780055E+03  0.50000000000E+02 0.  0.
<mgrwt>
<rscale>  0 0.53366249E+02</rscale>
<asrwt>0</asrwt>
<pdfrwt beam="1">  1       13 0.10000000E+01 0.53366249E+02</pdfrwt>
<pdfrwt beam="2">  1       22 0.70668512E+00 0.53366249E+02</pdfrwt>
<totfact> 0.71164057E-02</totfact>
</mgrwt>
</event>
<event>
 4    1  0.2505250E+000  0.5387147E+02  0.7957747E-01  0.1425512E+00
         13   -1    0    0    0    0  0.00000000000E+00  0.00000000000E+00  0.99999944181E+02  0.10000000000E+03  0.10566000000E+00 0. -1.
         22   -1    0    0    0    0 -0.00000000000E+00 -0.00000000000E+00 -0.19279625252E+02  0.19279625252E+02  0.00000000000E+00 0.  1.
         13    1    1    2    0    0 -0.19708201487E+02 -0.37044033597E+01 -0.24331687074E+01  0.20200675338E+02  0.10566000000E+00 0.  1.
        996    1    1    2    0    0  0.19708201487E+02  0.37044033597E+01  0.83153487636E+02  0.99078949915E+02  0.50000000000E+02 0.  0.
<mgrwt>
<rscale>  0 0.53871475E+02</rscale>
<asrwt>0</asrwt>
<pdfrwt beam="1">  1       13 0.10000000E+01 0.53871475E+02</pdfrwt>
<pdfrwt beam="2">  1       22 0.19279648E+00 0.53871475E+02</pdfrwt>
<totfact> 0.48658177E-01</totfact>
</mgrwt>
</event>
<event>
 4    1  0.2505250E+000  0.5595442E+02  0.7957747E-01  0.1415639E+00
         13   -1    0    0    0    0  0.00000000000E+00  0.00000000000E+00  0.99999944179E+02  0.10000000000E+03  0.10566000000E+00 0.  1.
         22   -1    0    0    0    0 -0.00000000000E+00 -0.00000000000E+00 -0.19709951885E+02  0.19709951885E+02  0.00000000000E+00 0. -1.
         13    1    1    2    0    0 -0.24411117891E+02  0.59156278282E+01  0.45241877308E+01  0.25522083927E+02  0.10566000000E+00 0. -1.
        996    1    1    2    0    0  0.24411117891E+02 -0.59156278282E+01  0.75765804564E+02  0.94187867958E+02  0.50000000000E+02 0.  0.
<mgrwt>
<rscale>  0 0.55954422E+02</rscale>
<asrwt>0</asrwt>
<pdfrwt beam="1">  1       13 0.10000000E+01 0.55954422E+02</pdfrwt>
<pdfrwt beam="2">  1       22 0.19709974E+00 0.55954422E+02</pdfrwt>
<totfact> 0.46877380E-01</totfact>
</mgrwt>
</event>
<event>
 4    1  0.2505250E+000  0.5501655E+02  0.7957747E-01  0.1420021E+00
         13   -1    0    0    0    0  0.00000000000E+00  0.00000000000E+00  0.99999944183E+02  0.10000000000E+03  0.10566000000E+00 0.  1.
         22   -1    0    0    0    0 -0.00000000000E+00 -0.00000000000E+00 -0.17368361213E+02  0.17368361213E+02  0.00000000000E+00 0. -1.
         13    1    1    2    0    0 -0.17609334695E+02  0.14721816130E+02  0.73001698319E+01  0.24085767212E+02  0.10566000000E+00 0. -1.
        996    1    1    2    0    0  0.17609334695E+02 -0.14721816130E+02  0.75331413138E+02  0.93282594003E+02  0.50000000000E+02 0.  0.
<mgrwt>
<rscale>  0 0.55016548E+02</rscale>
<asrwt>0</asrwt>
<pdfrwt beam="1">  1       13 0.10000000E+01 0.55016548E+02</pdfrwt>
<pdfrwt beam="2">  1       22 0.17368384E+00 0.55016548E+02</pdfrwt>
<totfact> 0.58877241E-01</totfact>
</mgrwt>
</event>
<event>
 4    1  0.2505250E+000  0.5099847E+02  0.7957747E-01  0.1440029E+00
         13   -1    0    0    0    0  0.00000000000E+00  0.00000000000E+00  0.99999944178E+02  0.99999999998E+02  0.10566000000E+00 0.  1.
         22   -1    0    0    0    0 -0.00000000000E+00 -0.00000000000E+00 -0.17557350638E+02  0.17557350638E+02  0.00000000000E+00 0. -1.
         13    1    1    2    0    0 -0.15422624899E+01 -0.99229623686E+01 -0.85884124942E+01  0.13214225250E+02  0.10566000000E+00 0. -1.
        996    1    1    2    0    0  0.15422624899E+01  0.99229623686E+01  0.91031006034E+02  0.10434312539E+03  0.50000000000E+02 0.  0.
<mgrwt>
<rscale>  0 0.50998468E+02</rscale>
<asrwt>0</asrwt>
<pdfrwt beam="1">  1       13 0.10000000E+01 0.50998468E+02</pdfrwt>
<pdfrwt beam="2">  1       22 0.17557374E+00 0.50998468E+02</pdfrwt>
<totfact> 0.57325016E-01</totfact>
</mgrwt>
</event>
<event>
 4    1  0.2505250E+000  0.5192398E+02  0.7957747E-01  0.1435232E+00
         13   -1    0    0    0    0  0.00000000000E+00  0.00000000000E+00  0.99999944180E+02  0.10000000000E+03  0.10566000000E+00 0. -1.
         22   -1    0    0    0    0 -0.00000000000E+00 -0.00000000000E+00 -0.11936023897E+02  0.11936023897E+02  0.00000000000E+00 0. -1.
         13    1    1    2    0    0  0.13443272591E+02 -0.39215417850E+01  0.34982961001E+02  0.37681809834E+02  0.10566000000E+00 0.  1.
        996    1    1    2    0    0 -0.13443272591E+02  0.39215417850E+01  0.53080959282E+02  0.74254214064E+02  0.50000000000E+02 0.  0.
<mgrwt>
<rscale>  0 0.51923984E+02</rscale>
<asrwt>0</asrwt>
<pdfrwt beam="1">  1       13 0.10000000E+01 0.51923984E+02</pdfrwt>
<pdfrwt beam="2">  1       22 0.11936048E+00 0.51923984E+02</pdfrwt>
<totfact> 0.10835850E+00</totfact>
</mgrwt>
</event>
<event>
 4    1  0.2505250E+000  0.5542377E+02  0.7957747E-01  0.1418105E+00
         13   -1    0    0    0    0  0.00000000000E+00  0.00000000000E+00  0.99999944184E+02  0.10000000000E+03  0.10566000000E+00 0.  1.
         22   -1    0    0    0    0 -0.00000000000E+00 -0.00000000000E+00 -0.17078302784E+02  0.17078302784E+02  0.00000000000E+00 0.  1.
         13    1    1    2    0    0  0.73892642611E+01  0.22741869634E+02  0.41462291611E+02  0.47863625547E+02  0.10566000000E+00 0. -1.
        996    1    1    2    0    0 -0.73892642611E+01 -0.22741869634E+02  0.41459349789E+02  0.69214677242E+02  0.50000000000E+02 0.  0.
<mgrwt>
<rscale>  0 0.55423766E+02</rscale>
<asrwt>0</asrwt>
<pdfrwt beam="1">  1       13 0.10000000E+01 0.55423766E+02</pdfrwt>
<pdfrwt beam="2">  1       22 0.17078326E+00 0.55423766E+02</pdfrwt>
<totfact> 0.60697287E-01</totfact>
</mgrwt>
</event>
<event>
 4    1  0.2505250E+000  0.5759447E+02  0.7957747E-01  0.1408213E+00
         13   -1    0    0    0    0  0.00000000000E+00  0.00000000000E+00  0.99999944174E+02  0.99999999994E+02  0.10566000000E+00 0. -1.
         22   -1    0    0    0    0 -0.00000000000E+00 -0.00000000000E+00 -0.20302359140E+02  0.20302359140E+02  0.00000000000E+00 0.  1.
         13    1    1    2    0    0  0.27868646643E+02  0.63609109167E+01  0.10933946829E+02  0.30605310171E+02  0.10566000000E+00 0.  1.
        996    1    1    2    0    0 -0.27868646643E+02 -0.63609109167E+01  0.68763638205E+02  0.89697048963E+02  0.50000000000E+02 0.  0.
<mgrwt>
<rscale>  0 0.57594467E+02</rscale>
<asrwt>0</asrwt>
<pdfrwt beam="1">  1       13 0.10000000E+01 0.57594467E+02</pdfrwt>
<pdfrwt beam="2">  1       22 0.20302381E+00 0.57594467E+02</pdfrwt>
<totfact> 0.44471382E-01</totfact>
</mgrwt>
</event>
<event>
 4    1  0.2505250E+000  0.5273806E+02  0.7957747E-01  0.1431109E+00
         13   -1    0    0    0    0  0.00000000000E+00  0.00000000000E+00  0.99999944183E+02  0.10000000000E+03  0.10566000000E+00 0.  1.
         22   -1    0    0    0    0 -0.00000000000E+00 -0.00000000000E+00 -0.13184822741E+02  0.13184822741E+02  0.00000000000E+00 0.  1.
         13    1    1    2    0    0  0.73302217141E+01  0.15085466246E+02  0.85944607196E+01  0.18846202836E+02  0.10566000000E+00 0. -1.
        996    1    1    2    0    0 -0.73302217141E+01 -0.15085466246E+02  0.78220660722E+02  0.94338619908E+02  0.50000000000E+02 0.  0.
<mgrwt>
<rscale>  0 0.52738064E+02</rscale>
<asrwt>0</asrwt>
<pdfrwt beam="1">  1       13 0.10000000E+01 0.52738064E+02</pdfrwt>
<pdfrwt beam="2">  1       22 0.13184847E+00 0.52738064E+02</pdfrwt>
<totfact> 0.92979745E-01</totfact>
</mgrwt>
</event>
<event>
 4    1  0.2505250E+000  0.5860625E+02  0.7957747E-01  0.1403775E+00
         13   -1    0    0    0    0  0.00000000000E+00  0.00000000000E+00  0.99999944180E+02  0.10000000000E+03  0.10566000000E+00 0.  1.
         22   -1    0    0    0    0 -0.00000000000E+00 -0.00000000000E+00 -0.48927583839E+02  0.48927583839E+02  0.00000000000E+00 0. -1.
         13    1    1    2    0    0  0.27657421011E+02 -0.13029200143E+02 -0.33934890816E+02  0.45675824810E+02  0.10566000000E+00 0. -1.
        996    1    1    2    0    0 -0.27657421011E+02  0.13029200143E+02  0.85007251157E+02  0.10325175903E+03  0.50000000000E+02 0.  0.
<mgrwt>
<rscale>  0 0.58606254E+02</rscale>
<asrwt>0</asrwt>
<pdfrwt beam="1">  1       13 0.10000000E+01 0.58606254E+02</pdfrwt>
<pdfrwt beam="2">  1       22 0.48927598E+00 0.58606254E+02</pdfrwt>
<totfact> 0.78365079E-02</totfact>
</mgrwt>
</event>
<event>
 4    1  0.2505250E+000  0.5549014E+02  0.7957747E-01  0.1417795E+00
         13   -1    0    0    0    0  0.00000000000E+00  0.00000000000E+00  0.99999944176E+02  0.99999999997E+02  0.10566000000E+00 0. -1.
         22   -1    0    0    0    0 -0.00000000000E+00 -0.00000000000E+00 -0.18649755702E+02  0.18649755702E+02  0.00000000000E+00 0.  1.
         13    1    1    2    0    0 -0.14209227748E+02 -0.19423020368E+02  0.55299903868E+01  0.24693072533E+02  0.10566000000E+00 0.  1.
        996    1    1    2    0    0  0.14209227748E+02  0.19423020368E+02  0.75820198088E+02  0.93956683165E+02  0.50000000000E+02 0.  0.
<mgrwt>
<rscale>  0 0.55490142E+02</rscale>
<asrwt>0</asrwt>
<pdfrwt beam="1">  1       13 0.10000000E+01 0.55490142E+02</pdfrwt>
<pdfrwt beam="2">  1       22 0.18649778E+00 0.55490142E+02</pdfrwt>
<totfact> 0.51856804E-01</totfact>
</mgrwt>
</event>
<event>
 4    1  0.2505250E+000  0.5151627E+02  0.7957747E-01  0.1437331E+00
         13   -1    0    0    0    0  0.00000000000E+00  0.00000000000E+00  0.99999944185E+02  0.10000000000E+03  0.10566000000E+00 0.  1.
         22   -1    0    0    0    0 -0.00000000000E+00 -0.00000000000E+00 -0.14220554159E+02  0.14220554159E+02  0.00000000000E+00 0. -1.
         13    1    1    2    0    0  0.48510680712E-01  0.12406615173E+02 -0.18753992413E+01  0.12548097054E+02  0.10566000000E+00 0. -1.
        996    1    1    2    0    0 -0.48510680712E-01 -0.12406615173E+02  0.87654789267E+02  0.10167245711E+03  0.50000000000E+02 0.  0.
<mgrwt>
<rscale>  0 0.51516274E+02</rscale>
<asrwt>0</asrwt>
<pdfrwt beam="1">  1       13 0.10000000E+01 0.51516274E+02</pdfrwt>
<pdfrwt beam="2">  1       22 0.14220578E+00 0.51516274E+02</pdfrwt>
<totfact> 0.82128475E-01</totfact>
</mgrwt>
</event>
<event>
 4    1  0.2505250E+000  0.5187867E+02  0.7957747E-01  0.1435464E+00
         13   -1    0    0    0    0  0.00000000000E+00  0.00000000000E+00  0.99999944181E+02  0.10000000000E+03  0.10566000000E+00 0.  1.
         22   -1    0    0    0    0 -0.00000000000E+00 -0.00000000000E+00 -0.19190192411E+02  0.19190192411E+02  0.00000000000E+00 0.  1.
         13    1    1    2    0    0 -0.12676793814E+01  0.13776415954E+02 -0.82601683267E+01  0.16113292413E+02  0.10566000000E+00 0. -1.
        996    1    1    2    0    0  0.12676793814E+01 -0.13776415954E+02  0.89069920097E+02  0.10307690000E+03  0.50000000000E+02 0.  0.
<mgrwt>
<rscale>  0 0.51878672E+02</rscale>
<asrwt>0</asrwt>
<pdfrwt beam="1">  1       13 0.10000000E+01 0.51878672E+02</pdfrwt>
<pdfrwt beam="2">  1       22 0.19190215E+00 0.51878672E+02</pdfrwt>
<totfact> 0.48900633E-01</totfact>
</mgrwt>
</event>
<event>
 4    1  0.2505250E+000  0.5164335E+02  0.7957747E-01  0.1436674E+00
         13   -1    0    0    0    0  0.00000000000E+00  0.00000000000E+00  0.99999944178E+02  0.99999999998E+02  0.10566000000E+00 0.  1.
         22   -1    0    0    0    0 -0.00000000000E+00 -0.00000000000E+00 -0.29702176867E+02  0.29702176867E+02  0.00000000000E+00 0. -1.
         13    1    1    2    0    0  0.69878780440E+01 -0.10872242751E+02 -0.21088020416E+02  0.24733618237E+02  0.10566000000E+00 0. -1.
        996    1    1    2    0    0 -0.69878780440E+01  0.10872242751E+02  0.91385787727E+02  0.10496855863E+03  0.50000000000E+02 0.  0.
<mgrwt>
<rscale>  0 0.51643355E+02</rscale>
<asrwt>0</asrwt>
<pdfrwt beam="1">  1       13 0.10000000E+01 0.51643355E+02</pdfrwt>
<pdfrwt beam="2">  1       22 0.29702197E+00 0.51643355E+02</pdfrwt>
<totfact> 0.21084127E-01</totfact>
</mgrwt>
</event>
<event>
 4    1  0.2505250E+000  0.5270441E+02  0.7957747E-01  0.1431278E+00
         13   -1    0    0    0    0  0.00000000000E+00  0.00000000000E+00  0.99999944176E+02  0.99999999996E+02  0.10566000000E+00 0.  1.
         22   -1    0    0    0    0 -0.00000000000E+00 -0.00000000000E+00 -0.19926274539E+02  0.19926274539E+02  0.00000000000E+00 0. -1.
         13    1    1    2    0    0  0.75628721047E+01 -0.14851172321E+02 -0.70543407523E+01  0.18097768958E+02  0.10566000000E+00 0. -1.
        996    1    1    2    0    0 -0.75628721047E+01  0.14851172321E+02  0.87128010389E+02  0.10182850558E+03  0.50000000000E+02 0.  0.
<mgrwt>
<rscale>  0 0.52704405E+02</rscale>
<asrwt>0</asrwt>
<pdfrwt beam="1">  1       13 0.10000000E+01 0.52704405E+02</pdfrwt>
<pdfrwt beam="2">  1       22 0.19926297E+00 0.52704405E+02</pdfrwt>
<totfact> 0.45678332E-01</totfact>
</mgrwt>
</event>
<event>
 4    1  0.2505250E+000  0.7409733E+02  0.7957747E-01  0.1346689E+00
         13   -1    0    0    0    0  0.00000000000E+00  0.00000000000E+00  0.99999944178E+02  0.99999999998E+02  0.10566000000E+00 0.  1.
         22   -1    0    0    0    0 -0.00000000000E+00 -0.00000000000E+00 -0.47110358886E+02  0.47110358886E+02  0.00000000000E+00 0. -1.
         13    1    1    2    0    0 -0.54537463575E+02 -0.40099016645E+01 -0.22766941387E+01  0.54732154578E+02  0.10566000000E+00 0. -1.
        996    1    1    2    0    0  0.54537463575E+02  0.40099016645E+01  0.55166279430E+02  0.92378204306E+02  0.50000000000E+02 0.  0.
<mgrwt>
<rscale>  0 0.74097330E+02</rscale>
<asrwt>0</asrwt>
<pdfrwt beam="1">  1       13 0.10000000E+01 0.74097330E+02</pdfrwt>
<pdfrwt beam="2">  1       22 0.47110374E+00 0.74097330E+02</pdfrwt>
<totfact> 0.87201349E-02</totfact>
</mgrwt>
</event>
<event>
 4    1  0.2505250E+000  0.5121216E+02  0.7957747E-01  0.1438911E+00
         13   -1    0    0    0    0  0.00000000000E+00  0.00000000000E+00  0.99999944179E+02  0.99999999999E+02  0.10566000000E+00 0. -1.
         22   -1    0    0    0    0 -0.00000000000E+00 -0.00000000000E+00 -0.97040231448E+01  0.97040231448E+01  0.00000000000E+00 0. -1.
         13    1    1    2    0    0 -0.45138223268E+00  0.11067144593E+02  0.16947646931E+02  0.20246464775E+02  0.10566000000E+00 0.  1.
        996    1    1    2    0    0  0.45138223268E+00 -0.11067144593E+02  0.73348274104E+02  0.89457558369E+02  0.50000000000E+02 0.  0.
<mgrwt>
<rscale>  0 0.51212161E+02</rscale>
<asrwt>0</asrwt>
<pdfrwt beam="1">  1       13 0.10000000E+01 0.51212161E+02</pdfrwt>
<pdfrwt beam="2">  1       22 0.97040484E-01 0.51212161E+02</pdfrwt>
<totfact> 0.14694183E+00</totfact>
</mgrwt>
</event>
<event>
 4    1  0.2505250E+000  0.7635355E+02  0.7957747E-01  0.1339730E+00
         13   -1    0    0    0    0  0.00000000000E+00  0.00000000000E+00  0.99999944180E+02  0.10000000000E+03  0.10566000000E+00 0.  1.
         22   -1    0    0    0    0 -0.00000000000E+00 -0.00000000000E+00 -0.45992019351E+02  0.45992019351E+02  0.00000000000E+00 0. -1.
         13    1    1    2    0    0 -0.52494153682E+02  0.23963072943E+02  0.12343569659E+02  0.59010506790E+02  0.10566000000E+00 0. -1.
        996    1    1    2    0    0  0.52494153682E+02 -0.23963072943E+02  0.41664355169E+02  0.86981512561E+02  0.50000000000E+02 0.  0.
<mgrwt>
<rscale>  0 0.76353553E+02</rscale>
<asrwt>0</asrwt>
<pdfrwt beam="1">  1       13 0.10000000E+01 0.76353553E+02</pdfrwt>
<pdfrwt beam="2">  1       22 0.45992034E+00 0.76353553E+02</pdfrwt>
<totfact> 0.92741045E-02</totfact>
</mgrwt>
</event>
<event>
 4    1  0.2505250E+000  0.5223768E+02  0.7957747E-01  0.1433633E+00
         13   -1    0    0    0    0  0.00000000000E+00  0.00000000000E+00  0.99999944179E+02  0.99999999999E+02  0.10566000000E+00 0.  1.
         22   -1    0    0    0    0 -0.00000000000E+00 -0.00000000000E+00 -0.12113851394E+02  0.12113851394E+02  0.00000000000E+00 0.  1.
         13    1    1    2    0    0 -0.60480161873E+01 -0.13863499353E+02  0.93197276342E+01  0.17766361511E+02  0.10566000000E+00 0. -1.
        996    1    1    2    0    0  0.60480161873E+01  0.13863499353E+02  0.78566365151E+02  0.94347489883E+02  0.50000000000E+02 0.  0.
<mgrwt>
<rscale>  0 0.52237679E+02</rscale>
<asrwt>0</asrwt>
<pdfrwt beam="1">  1       13 0.10000000E+01 0.52237679E+02</pdfrwt>
<pdfrwt beam="2">  1       22 0.12113876E+00 0.52237679E+02</pdfrwt>
<totfact> 0.10600374E+00</totfact>
</mgrwt>
</event>
<event>
 4    1  0.2505250E+000  0.5582239E+02  0.7957747E-01  0.1416249E+00
         13   -1    0    0    0    0  0.00000000000E+00  0.00000000000E+00  0.99999944174E+02  0.99999999994E+02  0.10566000000E+00 0. -1.
         22   -1    0    0    0    0 -0.00000000000E+00 -0.00000000000E+00 -0.17494746932E+02  0.17494746932E+02  0.00000000000E+00 0.  1.
         13    1    1    2    0    0 -0.10128106130E+02  0.22661881485E+02  0.41017439596E+02  0.47943518032E+02  0.10566000000E+00 0.  1.
        996    1    1    2    0    0  0.10128106130E+02 -0.22661881485E+02  0.41487757646E+02  0.69551228894E+02  0.50000000000E+02 0.  0.
<mgrwt>
<rscale>  0 0.55822392E+02</rscale>
<asrwt>0</asrwt>
<pdfrwt beam="1">  1       13 0.10000000E+01 0.55822392E+02</pdfrwt>
<pdfrwt beam="2">  1       22 0.17494770E+00 0.55822392E+02</pdfrwt>
<totfact> 0.58209055E-01</totfact>
</mgrwt>
</event>
<event>
 4    1  0.2505250E+000  0.5213639E+02  0.7957747E-01  0.1434148E+00
         13   -1    0    0    0    0  0.00000000000E+00  0.00000000000E+00  0.99999944180E+02  0.10000000000E+03  0.10566000000E+00 0. -1.
         22   -1    0    0    0    0 -0.00000000000E+00 -0.00000000000E+00 -0.11252141801E+02  0.11252141801E+02  0.00000000000E+00 0. -1.
         13    1    1    2    0    0 -0.14763886270E+02 -0.48072798149E+00  0.23108811078E+02  0.27426843614E+02  0.10566000000E+00 0.  1.
        996    1    1    2    0    0  0.14763886270E+02  0.48072798149E+00  0.65638991301E+02  0.83825298187E+02  0.50000000000E+02 0.  0.
<mgrwt>
<rscale>  0 0.52136393E+02</rscale>
<asrwt>0</asrwt>
<pdfrwt beam="1">  1       13 0.10000000E+01 0.52136393E+02</pdfrwt>
<pdfrwt beam="2">  1       22 0.11252167E+00 0.52136393E+02</pdfrwt>
<totfact> 0.11853128E+00</totfact>
</mgrwt>
</event>
<event>
 4    1  0.2505250E+000  0.5494199E+02  0.7957747E-01  0.1420373E+00
         13   -1    0    0    0    0  0.00000000000E+00  0.00000000000E+00  0.99999944176E+02  0.99999999996E+02  0.10566000000E+00 0.  1.
         22   -1    0    0    0    0 -0.00000000000E+00 -0.00000000000E+00 -0.57537118231E+02  0.57537118231E+02  0.00000000000E+00 0. -1.
         13    1    1    2    0    0  0.11129009165E+02 -0.19868768067E+02 -0.47184637722E+02  0.52392976538E+02  0.10566000000E+00 0. -1.
        996    1    1    2    0    0 -0.11129009165E+02  0.19868768067E+02  0.89647463667E+02  0.10514414169E+03  0.50000000000E+02 0.  0.
<mgrwt>
<rscale>  0 0.54941995E+02</rscale>
<asrwt>0</asrwt>
<pdfrwt beam="1">  1       13 0.10000000E+01 0.54941995E+02</pdfrwt>
<pdfrwt beam="2">  1       22 0.57537130E+00 0.54941995E+02</pdfrwt>
<totfact> 0.57897125E-02</totfact>
</mgrwt>
</event>
<event>
 4    1  0.2505250E+000  0.5130913E+02  0.7957747E-01  0.1438406E+00
         13   -1    0    0    0    0  0.00000000000E+00  0.00000000000E+00  0.99999944172E+02  0.99999999992E+02  0.10566000000E+00 0.  1.
         22   -1    0    0    0    0 -0.00000000000E+00 -0.00000000000E+00 -0.14543169141E+02  0.14543169141E+02  0.00000000000E+00 0.  1.
         13    1    1    2    0    0 -0.10281674457E+02  0.51878575774E+01 -0.33373294677E+01  0.11990647517E+02  0.10566000000E+00 0. -1.
        996    1    1    2    0    0  0.10281674457E+02 -0.51878575774E+01  0.88794104499E+02  0.10255252162E+03  0.50000000000E+02 0.  0.
<mgrwt>
<rscale>  0 0.51309129E+02</rscale>
<asrwt>0</asrwt>
<pdfrwt beam="1">  1       13 0.10000000E+01 0.51309129E+02</pdfrwt>
<pdfrwt beam="2">  1       22 0.14543193E+00 0.51309129E+02</pdfrwt>
<totfact> 0.79132510E-01</totfact>
</mgrwt>
</event>
<event>
 4    1  0.2505250E+000  0.5747164E+02  0.7957747E-01  0.1408759E+00
         13   -1    0    0    0    0  0.00000000000E+00  0.00000000000E+00  0.99999944185E+02  0.10000000000E+03  0.10566000000E+00 0.  1.
         22   -1    0    0    0    0 -0.00000000000E+00 -0.00000000000E+00 -0.20804764341E+02  0.20804764341E+02  0.00000000000E+00 0. -1.
         13    1    1    2    0    0 -0.22286743244E+02  0.17501146647E+02  0.82738231970E+01  0.29520439914E+02  0.10566000000E+00 0. -1.
        996    1    1    2    0    0  0.22286743244E+02 -0.17501146647E+02  0.70921356647E+02  0.91284324432E+02  0.50000000000E+02 0.  0.
<mgrwt>
<rscale>  0 0.57471637E+02</rscale>
<asrwt>0</asrwt>
<pdfrwt beam="1">  1       13 0.10000000E+01 0.57471637E+02</pdfrwt>
<pdfrwt beam="2">  1       22 0.20804786E+00 0.57471637E+02</pdfrwt>
<totfact> 0.42457560E-01</totfact>
</mgrwt>
</event>
<event>
 4    1  0.2505250E+000  0.8227205E+02  0.7957747E-01  0.1322725E+00
         13   -1    0    0    0    0  0.00000000000E+00  0.00000000000E+00  0.99999944168E+02  0.99999999988E+02  0.10566000000E+00 0.  1.
         22   -1    0    0    0    0 -0.00000000000E+00 -0.00000000000E+00 -0.75534633745E+02  0.75534633745E+02  0.00000000000E+00 0. -1.
         13    1    1    2    0    0  0.63137356158E+01  0.65029437088E+02 -0.34907768700E+02  0.74076004381E+02  0.10566000000E+00 0. -1.
        996    1    1    2    0    0 -0.63137356158E+01 -0.65029437088E+02  0.59373079123E+02  0.10145862935E+03  0.50000000000E+02 0.  0.
<mgrwt>
<rscale>  0 0.82272054E+02</rscale>
<asrwt>0</asrwt>
<pdfrwt beam="1">  1       13 0.10000000E+01 0.82272054E+02</pdfrwt>
<pdfrwt beam="2">  1       22 0.75534641E+00 0.82272054E+02</pdfrwt>
<totfact> 0.46632276E-02</totfact>
</mgrwt>
</event>
<event>
 4    1  0.2505250E+000  0.5125239E+02  0.7957747E-01  0.1438701E+00
         13   -1    0    0    0    0  0.00000000000E+00  0.00000000000E+00  0.99999944177E+02  0.99999999997E+02  0.10566000000E+00 0. -1.
         22   -1    0    0    0    0 -0.00000000000E+00 -0.00000000000E+00 -0.97766082930E+01  0.97766082930E+01  0.00000000000E+00 0. -1.
         13    1    1    2    0    0 -0.36822204195E+01 -0.10641830829E+02  0.15167489044E+02  0.18891034872E+02  0.10566000000E+00 0.  1.
        996    1    1    2    0    0  0.36822204195E+01  0.10641830829E+02  0.75055846840E+02  0.90885573418E+02  0.50000000000E+02 0.  0.
<mgrwt>
<rscale>  0 0.51252388E+02</rscale>
<asrwt>0</asrwt>
<pdfrwt beam="1">  1       13 0.10000000E+01 0.51252388E+02</pdfrwt>
<pdfrwt beam="2">  1       22 0.97766335E-01 0.51252388E+02</pdfrwt>
<totfact> 0.14538990E+00</totfact>
</mgrwt>
</event>
<event>
 4    1  0.2505250E+000  0.6191516E+02  0.7957747E-01  0.1389966E+00
         13   -1    0    0    0    0  0.00000000000E+00  0.00000000000E+00  0.99999944177E+02  0.99999999998E+02  0.10566000000E+00 0. -1.
         22   -1    0    0    0    0 -0.00000000000E+00 -0.00000000000E+00 -0.47937415273E+02  0.47937415273E+02  0.00000000000E+00 0.  1.
         13    1    1    2    0    0  0.71467024926E+01 -0.35810783545E+02 -0.28506421897E+02  0.46326178647E+02  0.10566000000E+00 0.  1.
        996    1    1    2    0    0 -0.71467024926E+01  0.35810783545E+02  0.80568950802E+02  0.10161123662E+03  0.50000000000E+02 0.  0.
<mgrwt>
<rscale>  0 0.61915164E+02</rscale>
<asrwt>0</asrwt>
<pdfrwt beam="1">  1       13 0.10000000E+01 0.61915164E+02</pdfrwt>
<pdfrwt beam="2">  1       22 0.47937430E+00 0.61915164E+02</pdfrwt>
<totfact> 0.82917602E-02</totfact>
</mgrwt>
</event>
<event>
 4    1  0.2505250E+000  0.5123894E+02  0.7957747E-01  0.1438771E+00
         13   -1    0    0    0    0  0.00000000000E+00  0.00000000000E+00  0.99999944190E+02  0.10000000001E+03  0.10566000000E+00 0. -1.
         22   -1    0    0    0    0 -0.00000000000E+00 -0.00000000000E+00 -0.17101605503E+02  0.17101605503E+02  0.00000000000E+00 0. -1.
         13    1    1    2    0    0  0.79827930930E+01  0.78551775077E+01 -0.72975682566E+01  0.13367664932E+02  0.10566000000E+00 0.  1.
        996    1    1    2    0    0 -0.79827930930E+01 -0.78551775077E+01  0.90195906943E+02  0.10373394058E+03  0.50000000000E+02 0.  0.
<mgrwt>
<rscale>  0 0.51238938E+02</rscale>
<asrwt>0</asrwt>
<pdfrwt beam="1">  1       13 0.10000000E+01 0.51238938E+02</pdfrwt>
<pdfrwt beam="2">  1       22 0.17101629E+00 0.51238938E+02</pdfrwt>
<totfact> 0.60077088E-01</totfact>
</mgrwt>
</event>
<event>
 4    1  0.2505250E+000  0.6632389E+02  0.7957747E-01  0.1373060E+00
         13   -1    0    0    0    0  0.00000000000E+00  0.00000000000E+00  0.99999944175E+02  0.99999999995E+02  0.10566000000E+00 0. -1.
         22   -1    0    0    0    0 -0.00000000000E+00 -0.00000000000E+00 -0.37337171189E+02  0.37337171189E+02  0.00000000000E+00 0.  1.
         13    1    1    2    0    0  0.43331893299E+02 -0.46049677714E+01 -0.34217091903E+01  0.43710158578E+02  0.10566000000E+00 0.  1.
        996    1    1    2    0    0 -0.43331893299E+02  0.46049677714E+01  0.66084482176E+02  0.93627012606E+02  0.50000000000E+02 0.  0.
<mgrwt>
<rscale>  0 0.66323892E+02</rscale>
<asrwt>0</asrwt>
<pdfrwt beam="1">  1       13 0.10000000E+01 0.66323892E+02</pdfrwt>
<pdfrwt beam="2">  1       22 0.37337189E+00 0.66323892E+02</pdfrwt>
<totfact> 0.14191578E-01</totfact>
</mgrwt>
</event>
<event>
 4    1  0.2505250E+000  0.5352917E+02  0.7957747E-01  0.1427185E+00
         13   -1    0    0    0    0  0.00000000000E+00  0.00000000000E+00  0.99999944182E+02  0.10000000000E+03  0.10566000000E+00 0. -1.
         22   -1    0    0    0    0 -0.00000000000E+00 -0.00000000000E+00 -0.16168528107E+02  0.16168528107E+02  0.00000000000E+00 0.  1.
         13    1    1    2    0    0  0.75422665992E+01 -0.17563768480E+02  0.31920382977E+01  0.19379680627E+02  0.10566000000E+00 0.  1.
        996    1    1    2    0    0 -0.75422665992E+01  0.17563768480E+02  0.80639377778E+02  0.96788847483E+02  0.50000000000E+02 0.  0.
<mgrwt>
<rscale>  0 0.53529167E+02</rscale>
<asrwt>0</asrwt>
<pdfrwt beam="1">  1       13 0.10000000E+01 0.53529167E+02</pdfrwt>
<pdfrwt beam="2">  1       22 0.16168552E+00 0.53529167E+02</pdfrwt>
<totfact> 0.66521455E-01</totfact>
</mgrwt>
</event>
<event>
 4    1  0.2505250E+000  0.5122838E+02  0.7957747E-01  0.1438826E+00
         13   -1    0    0    0    0  0.00000000000E+00  0.00000000000E+00  0.99999944176E+02  0.99999999996E+02  0.10566000000E+00 0. -1.
         22   -1    0    0    0    0 -0.00000000000E+00 -0.00000000000E+00 -0.10444741011E+02  0.10444741011E+02  0.00000000000E+00 0. -1.
         13    1    1    2    0    0  0.11150014129E+02  0.15632872160E+00  0.66348478338E+01  0.12976117430E+02  0.10566000000E+00 0.  1.
        996    1    1    2    0    0 -0.11150014129E+02 -0.15632872160E+00  0.82920355331E+02  0.97468623577E+02  0.50000000000E+02 0.  0.
<mgrwt>
<rscale>  0 0.51228383E+02</rscale>
<asrwt>0</asrwt>
<pdfrwt beam="1">  1       13 0.10000000E+01 0.51228383E+02</pdfrwt>
<pdfrwt beam="2">  1       22 0.10444766E+00 0.51228383E+02</pdfrwt>
<totfact> 0.13207414E+00</totfact>
</mgrwt>
</event>
<event>
 4    1  0.2505250E+000  0.5404980E+02  0.7957747E-01  0.1424647E+00
         13   -1    0    0    0    0  0.00000000000E+00  0.00000000000E+00  0.99999944173E+02  0.99999999993E+02  0.10566000000E+00 0.  1.
         22   -1    0    0    0    0 -0.00000000000E+00 -0.00000000000E+00 -0.37967014820E+02  0.37967014820E+02  0.00000000000E+00 0. -1.
         13    1    1    2    0    0  0.18963190040E+02  0.78599025386E+01 -0.26936191822E+02  0.33866653780E+02  0.10566000000E+00 0. -1.
        996    1    1    2    0    0 -0.18963190040E+02 -0.78599025386E+01  0.88969121175E+02  0.10410036103E+03  0.50000000000E+02 0.  0.
<mgrwt>
<rscale>  0 0.54049798E+02</rscale>
<asrwt>0</asrwt>
<pdfrwt beam="1">  1       13 0.10000000E+01 0.54049798E+02</pdfrwt>
<pdfrwt beam="2">  1       22 0.37967032E+00 0.54049798E+02</pdfrwt>
<totfact> 0.13640001E-01</totfact>
</mgrwt>
</event>
<event>
 4    1  0.2505250E+000  0.6805835E+02  0.7957747E-01  0.1366823E+00
         13   -1    0    0    0    0  0.00000000000E+00  0.00000000000E+00  0.99999944184E+02  0.10000000000E+03  0.10566000000E+00 0.  1.
         22   -1    0    0    0    0 -0.00000000000E+00 -0.00000000000E+00 -0.77163527816E+02  0.77163527816E+02  0.00000000000E+00 0. -1.
         13    1    1    2    0    0  0.45717007674E+02 -0.64725995646E+01 -0.56283272645E+02  0.72799431862E+02  0.10566000000E+00 0. -1.
        996    1    1    2    0    0 -0.45717007674E+02  0.64725995646E+01  0.79119689012E+02  0.10436409596E+03  0.50000000000E+02 0.  0.
<mgrwt>
<rscale>  0 0.68058352E+02</rscale>
<asrwt>0</asrwt>
<pdfrwt beam="1">  1       13 0.10000000E+01 0.68058352E+02</pdfrwt>
<pdfrwt beam="2">  1       22 0.77163534E+00 0.68058352E+02</pdfrwt>
<totfact> 0.40088525E-02</totfact>
</mgrwt>
</event>
<event>
 4    1  0.2505250E+000  0.5405993E+02  0.7957747E-01  0.1424598E+00
         13   -1    0    0    0    0  0.00000000000E+00  0.00000000000E+00  0.99999944182E+02  0.10000000000E+03  0.10566000000E+00 0.  1.
         22   -1    0    0    0    0 -0.00000000000E+00 -0.00000000000E+00 -0.20028445891E+02  0.20028445891E+02  0.00000000000E+00 0. -1.
         13    1    1    2    0    0  0.19234513488E+02 -0.72463487057E+01 -0.32299132444E+01  0.20806719643E+02  0.10566000000E+00 0. -1.
        996    1    1    2    0    0 -0.19234513488E+02  0.72463487057E+01  0.83201411535E+02  0.99221726251E+02  0.50000000000E+02 0.  0.
<mgrwt>
<rscale>  0 0.54059930E+02</rscale>
<asrwt>0</asrwt>
<pdfrwt beam="1">  1       13 0.10000000E+01 0.54059930E+02</pdfrwt>
<pdfrwt beam="2">  1       22 0.20028468E+00 0.54059930E+02</pdfrwt>
<totfact> 0.45351765E-01</totfact>
</mgrwt>
</event>
<event>
 4    1  0.2505250E+000  0.5412139E+02  0.7957747E-01  0.1424300E+00
         13   -1    0    0    0    0  0.00000000000E+00  0.00000000000E+00  0.99999944180E+02  0.10000000000E+03  0.10566000000E+00 0.  1.
         22   -1    0    0    0    0 -0.00000000000E+00 -0.00000000000E+00 -0.16554715576E+02  0.16554715576E+02  0.00000000000E+00 0. -1.
         13    1    1    2    0    0  0.36055043905E+01 -0.20399154665E+02  0.51013099253E+01  0.21334472103E+02  0.10566000000E+00 0. -1.
        996    1    1    2    0    0 -0.36055043905E+01  0.20399154665E+02  0.78343918679E+02  0.95220243472E+02  0.50000000000E+02 0.  0.
<mgrwt>
<rscale>  0 0.54121393E+02</rscale>
<asrwt>0</asrwt>
<pdfrwt beam="1">  1       13 0.10000000E+01 0.54121393E+02</pdfrwt>
<pdfrwt beam="2">  1       22 0.16554739E+00 0.54121393E+02</pdfrwt>
<totfact> 0.63936585E-01</totfact>
</mgrwt>
</event>
<event>
 4    1  0.2505250E+000  0.5193183E+02  0.7957747E-01  0.1435192E+00
         13   -1    0    0    0    0  0.00000000000E+00  0.00000000000E+00  0.99999944182E+02  0.10000000000E+03  0.10566000000E+00 0.  1.
         22   -1    0    0    0    0 -0.00000000000E+00 -0.00000000000E+00 -0.65314544454E+02  0.65314544454E+02  0.00000000000E+00 0. -1.
         13    1    1    2    0    0  0.10250460526E+02  0.95834978482E+01 -0.57673724898E+02  0.59356424081E+02  0.10566000000E+00 0. -1.
        996    1    1    2    0    0 -0.10250460526E+02 -0.95834978482E+01  0.92359124625E+02  0.10595812038E+03  0.50000000000E+02 0.  0.
<mgrwt>
<rscale>  0 0.51931834E+02</rscale>
<asrwt>0</asrwt>
<pdfrwt beam="1">  1       13 0.10000000E+01 0.51931834E+02</pdfrwt>
<pdfrwt beam="2">  1       22 0.65314554E+00 0.51931834E+02</pdfrwt>
<totfact> 0.86886206E-02</totfact>
</mgrwt>
</event>
<event>
 4    1  0.2505250E+000  0.5633557E+02  0.7957747E-01  0.1413886E+00
         13   -1    0    0    0    0  0.00000000000E+00  0.00000000000E+00  0.99999944175E+02  0.99999999995E+02  0.10566000000E+00 0. -1.
         22   -1    0    0    0    0 -0.00000000000E+00 -0.00000000000E+00 -0.16960031729E+02  0.16960031729E+02  0.00000000000E+00 0. -1.
         13    1    1    2    0    0  0.12344371834E+02 -0.22832271063E+02  0.28518905429E+02  0.38562096011E+02  0.10566000000E+00 0.  1.
        996    1    1    2    0    0 -0.12344371834E+02  0.22832271063E+02  0.54521007017E+02  0.78397935713E+02  0.50000000000E+02 0.  0.
<mgrwt>
<rscale>  0 0.56335567E+02</rscale>
<asrwt>0</asrwt>
<pdfrwt beam="1">  1       13 0.10000000E+01 0.56335567E+02</pdfrwt>
<pdfrwt beam="2">  1       22 0.16960055E+00 0.56335567E+02</pdfrwt>
<totfact> 0.61542945E-01</totfact>
</mgrwt>
</event>
<event>
 4    1  0.2505250E+000  0.5143912E+02  0.7957747E-01  0.1437730E+00
         13   -1    0    0    0    0  0.00000000000E+00  0.00000000000E+00  0.99999944174E+02  0.99999999994E+02  0.10566000000E+00 0.  1.
         22   -1    0    0    0    0 -0.00000000000E+00 -0.00000000000E+00 -0.25452799642E+02  0.25452799642E+02  0.00000000000E+00 0. -1.
         13    1    1    2    0    0  0.11226665767E+02  0.44660063865E+01 -0.16755084989E+02  0.20657378205E+02  0.10566000000E+00 0. -1.
        996    1    1    2    0    0 -0.11226665767E+02 -0.44660063865E+01  0.91302229521E+02  0.10479542143E+03  0.50000000000E+02 0.  0.
<mgrwt>
<rscale>  0 0.51439122E+02</rscale>
<asrwt>0</asrwt>
<pdfrwt beam="1">  1       13 0.10000000E+01 0.51439122E+02</pdfrwt>
<pdfrwt beam="2">  1       22 0.25452820E+00 0.51439122E+02</pdfrwt>
<totfact> 0.28431388E-01</totfact>
</mgrwt>
</event>
<event>
 4    1  0.2505250E+000  0.5395692E+02  0.7957747E-01  0.1425097E+00
         13   -1    0    0    0    0  0.00000000000E+00  0.00000000000E+00  0.99999944177E+02  0.99999999997E+02  0.10566000000E+00 0. -1.
         22   -1    0    0    0    0 -0.00000000000E+00 -0.00000000000E+00 -0.14095561912E+02  0.14095561912E+02  0.00000000000E+00 0. -1.
         13    1    1    2    0    0 -0.16930285765E+02  0.11167589393E+02  0.16260308228E+02  0.25995353751E+02  0.10566000000E+00 0.  1.
        996    1    1    2    0    0  0.16930285765E+02 -0.11167589393E+02  0.69644074037E+02  0.88100208158E+02  0.50000000000E+02 0.  0.
<mgrwt>
<rscale>  0 0.53956924E+02</rscale>
<asrwt>0</asrwt>
<pdfrwt beam="1">  1       13 0.10000000E+01 0.53956924E+02</pdfrwt>
<pdfrwt beam="2">  1       22 0.14095586E+00 0.53956924E+02</pdfrwt>
<totfact> 0.83737831E-01</totfact>
</mgrwt>
</event>
<event>
 4    1  0.2505250E+000  0.5375206E+02  0.7957747E-01  0.1426094E+00
         13   -1    0    0    0    0  0.00000000000E+00  0.00000000000E+00  0.99999944186E+02  0.10000000001E+03  0.10566000000E+00 0.  1.
         22   -1    0    0    0    0 -0.00000000000E+00 -0.00000000000E+00 -0.13915846159E+02  0.13915846159E+02  0.00000000000E+00 0. -1.
         13    1    1    2    0    0 -0.18643986600E+02  0.64564692933E+01  0.32481823492E+02  0.38004792507E+02  0.10566000000E+00 0. -1.
        996    1    1    2    0    0  0.18643986600E+02 -0.64564692933E+01  0.53602274535E+02  0.75911053658E+02  0.50000000000E+02 0.  0.
<mgrwt>
<rscale>  0 0.53752063E+02</rscale>
<asrwt>0</asrwt>
<pdfrwt beam="1">  1       13 0.10000000E+01 0.53752063E+02</pdfrwt>
<pdfrwt beam="2">  1       22 0.13915870E+00 0.53752063E+02</pdfrwt>
<totfact> 0.85463982E-01</totfact>
</mgrwt>
</event>
<event>
 4    1  0.2505250E+000  0.5196569E+02  0.7957747E-01  0.1435019E+00
         13   -1    0    0    0    0  0.00000000000E+00  0.00000000000E+00  0.99999944180E+02  0.10000000000E+03  0.10566000000E+00 0. -1.
         22   -1    0    0    0    0 -0.00000000000E+00 -0.00000000000E+00 -0.12239424459E+02  0.12239424459E+02  0.00000000000E+00 0. -1.
         13    1    1    2    0    0  0.26041652170E+00 -0.14155025781E+02  0.60322925148E+01  0.15389356343E+02  0.10566000000E+00 0.  1.
        996    1    1    2    0    0 -0.26041652170E+00  0.14155025781E+02  0.81728227207E+02  0.96850068115E+02  0.50000000000E+02 0.  0.
<mgrwt>
<rscale>  0 0.51965686E+02</rscale>
<asrwt>0</asrwt>
<pdfrwt beam="1">  1       13 0.10000000E+01 0.51965686E+02</pdfrwt>
<pdfrwt beam="2">  1       22 0.12239449E+00 0.51965686E+02</pdfrwt>
<totfact> 0.10427104E+00</totfact>
</mgrwt>
</event>
<event>
 4    1  0.2505250E+000  0.5232826E+02  0.7957747E-01  0.1433173E+00
         13   -1    0    0    0    0  0.00000000000E+00  0.00000000000E+00  0.99999944181E+02  0.10000000000E+03  0.10566000000E+00 0. -1.
         22   -1    0    0    0    0 -0.00000000000E+00 -0.00000000000E+00 -0.12173706365E+02  0.12173706365E+02  0.00000000000E+00 0.  1.
         13    1    1    2    0    0  0.18447727014E+01  0.15324619810E+02  0.10002321426E+02  0.18393062729E+02  0.10566000000E+00 0.  1.
        996    1    1    2    0    0 -0.18447727014E+01 -0.15324619810E+02  0.77823916390E+02  0.93780643637E+02  0.50000000000E+02 0.  0.
<mgrwt>
<rscale>  0 0.52328263E+02</rscale>
<asrwt>0</asrwt>
<pdfrwt beam="1">  1       13 0.10000000E+01 0.52328263E+02</pdfrwt>
<pdfrwt beam="2">  1       22 0.12173731E+00 0.52328263E+02</pdfrwt>
<totfact> 0.10522412E+00</totfact>
</mgrwt>
</event>
<event>
 4    1  0.2505250E+000  0.5181578E+02  0.7957747E-01  0.1435787E+00
         13   -1    0    0    0    0  0.00000000000E+00  0.00000000000E+00  0.99999944177E+02  0.99999999997E+02  0.10566000000E+00 0.  1.
         22   -1    0    0    0    0 -0.00000000000E+00 -0.00000000000E+00 -0.30115514435E+02  0.30115514435E+02  0.00000000000E+00 0. -1.
         13    1    1    2    0    0 -0.45845865616E+01 -0.12800648433E+02 -0.21280764994E+02  0.25253854300E+02  0.10566000000E+00 0. -1.
        996    1    1    2    0    0  0.45845865616E+01  0.12800648433E+02  0.91165194737E+02  0.10486166013E+03  0.50000000000E+02 0.  0.
<mgrwt>
<rscale>  0 0.51815780E+02</rscale>
<asrwt>0</asrwt>
<pdfrwt beam="1">  1       13 0.10000000E+01 0.51815780E+02</pdfrwt>
<pdfrwt beam="2">  1       22 0.30115534E+00 0.51815780E+02</pdfrwt>
<totfact> 0.20550025E-01</totfact>
</mgrwt>
</event>
<event>
 4    1  0.2505250E+000  0.5353847E+02  0.7957747E-01  0.1427140E+00
         13   -1    0    0    0    0  0.00000000000E+00  0.00000000000E+00  0.99999944172E+02  0.99999999992E+02  0.10566000000E+00 0. -1.
         22   -1    0    0    0    0 -0.00000000000E+00 -0.00000000000E+00 -0.20774777865E+02  0.20774777865E+02  0.00000000000E+00 0.  1.
         13    1    1    2    0    0  0.19129410482E+02  0.65840275164E+00 -0.60601357284E+01  0.20077456229E+02  0.10566000000E+00 0.  1.
        996    1    1    2    0    0 -0.19129410482E+02 -0.65840275164E+00  0.85285302036E+02  0.10069732163E+03  0.50000000000E+02 0.  0.
<mgrwt>
<rscale>  0 0.53538471E+02</rscale>
<asrwt>0</asrwt>
<pdfrwt beam="1">  1       13 0.10000000E+01 0.53538471E+02</pdfrwt>
<pdfrwt beam="2">  1       22 0.20774800E+00 0.53538471E+02</pdfrwt>
<totfact> 0.42299801E-01</totfact>
</mgrwt>
</event>
<event>
 4    1  0.2505250E+000  0.5131953E+02  0.7957747E-01  0.1438352E+00
         13   -1    0    0    0    0  0.00000000000E+00  0.00000000000E+00  0.99999944182E+02  0.10000000000E+03  0.10566000000E+00 0. -1.
         22   -1    0    0    0    0 -0.00000000000E+00 -0.00000000000E+00 -0.10015086626E+02  0.10015086626E+02  0.00000000000E+00 0.  1.
         13    1    1    2    0    0 -0.11553928953E+02 -0.44769645076E+00  0.12046578679E+02  0.16698051631E+02  0.10566000000E+00 0.  1.
        996    1    1    2    0    0  0.11553928953E+02  0.44769645076E+00  0.77938278876E+02  0.93317034997E+02  0.50000000000E+02 0.  0.
<mgrwt>
<rscale>  0 0.51319526E+02</rscale>
<asrwt>0</asrwt>
<pdfrwt beam="1">  1       13 0.10000000E+01 0.51319526E+02</pdfrwt>
<pdfrwt beam="2">  1       22 0.10015112E+00 0.51319526E+02</pdfrwt>
<totfact> 0.14043999E+00</totfact>
</mgrwt>
</event>
<event>
 4    1  0.2505250E+000  0.5345026E+02  0.7957747E-01  0.1427573E+00
         13   -1    0    0    0    0  0.00000000000E+00  0.00000000000E+00  0.99999944172E+02  0.99999999992E+02  0.10566000000E+00 0. -1.
         22   -1    0    0    0    0 -0.00000000000E+00 -0.00000000000E+00 -0.13101353829E+02  0.13101353829E+02  0.00000000000E+00 0. -1.
         13    1    1    2    0    0  0.15299610047E+02 -0.11083892004E+02  0.24540250653E+02  0.30970401930E+02  0.10566000000E+00 0.  1.
        996    1    1    2    0    0 -0.15299610047E+02  0.11083892004E+02  0.62358339690E+02  0.82130951891E+02  0.50000000000E+02 0.  0.
<mgrwt>
<rscale>  0 0.53450264E+02</rscale>
<asrwt>0</asrwt>
<pdfrwt beam="1">  1       13 0.10000000E+01 0.53450264E+02</pdfrwt>
<pdfrwt beam="2">  1       22 0.13101378E+00 0.53450264E+02</pdfrwt>
<totfact> 0.94060142E-01</totfact>
</mgrwt>
</event>
<event>
 4    1  0.2505250E+000  0.5382883E+02  0.7957747E-01  0.1425720E+00
         13   -1    0    0    0    0  0.00000000000E+00  0.00000000000E+00  0.99999944173E+02  0.99999999993E+02  0.10566000000E+00 0. -1.
         22   -1    0    0    0    0 -0.00000000000E+00 -0.00000000000E+00 -0.71372745944E+02  0.71372745944E+02  0.00000000000E+00 0.  1.
         13    1    1    2    0    0  0.12293273822E+02  0.15697707754E+02 -0.62462085827E+02  0.65567262715E+02  0.10566000000E+00 0.  1.
        996    1    1    2    0    0 -0.12293273822E+02 -0.15697707754E+02  0.91089284056E+02  0.10580548322E+03  0.50000000000E+02 0.  0.
<mgrwt>
<rscale>  0 0.53828827E+02</rscale>
<asrwt>0</asrwt>
<pdfrwt beam="1">  1       13 0.10000000E+01 0.53828827E+02</pdfrwt>
<pdfrwt beam="2">  1       22 0.71372754E+00 0.53828827E+02</pdfrwt>
<totfact> 0.67417335E-02</totfact>
</mgrwt>
</event>
<event>
 4    1  0.2505250E+000  0.5479966E+02  0.7957747E-01  0.1421049E+00
         13   -1    0    0    0    0  0.00000000000E+00  0.00000000000E+00  0.99999944181E+02  0.10000000000E+03  0.10566000000E+00 0.  1.
         22   -1    0    0    0    0 -0.00000000000E+00 -0.00000000000E+00 -0.19923371878E+02  0.19923371878E+02  0.00000000000E+00 0. -1.
         13    1    1    2    0    0 -0.85254357748E+01 -0.20744146244E+02 -0.55236018176E+00  0.22434770433E+02  0.10566000000E+00 0. -1.
        996    1    1    2    0    0  0.85254357748E+01  0.20744146244E+02  0.80628932484E+02  0.97488601447E+02  0.50000000000E+02 0.  0.
<mgrwt>
<rscale>  0 0.54799659E+02</rscale>
<asrwt>0</asrwt>
<pdfrwt beam="1">  1       13 0.10000000E+01 0.54799659E+02</pdfrwt>
<pdfrwt beam="2">  1       22 0.19923394E+00 0.54799659E+02</pdfrwt>
<totfact> 0.45857256E-01</totfact>
</mgrwt>
</event>
<event>
 4    1  0.2505250E+000  0.6850839E+02  0.7957747E-01  0.1365240E+00
         13   -1    0    0    0    0  0.00000000000E+00  0.00000000000E+00  0.99999944179E+02  0.99999999999E+02  0.10566000000E+00 0. -1.
         22   -1    0    0    0    0 -0.00000000000E+00 -0.00000000000E+00 -0.33410738122E+02  0.33410738122E+02  0.00000000000E+00 0.  1.
         13    1    1    2    0    0 -0.46617351178E+02 -0.44969210016E+01  0.31473679752E+02  0.56426974139E+02  0.10566000000E+00 0.  1.
        996    1    1    2    0    0  0.46617351178E+02  0.44969210016E+01  0.35115526305E+02  0.76983763983E+02  0.50000000000E+02 0.  0.
<mgrwt>
<rscale>  0 0.68508392E+02</rscale>
<asrwt>0</asrwt>
<pdfrwt beam="1">  1       13 0.10000000E+01 0.68508392E+02</pdfrwt>
<pdfrwt beam="2">  1       22 0.33410757E+00 0.68508392E+02</pdfrwt>
<totfact> 0.17319250E-01</totfact>
</mgrwt>
</event>
<event>
 4    1  0.2505250E+000  0.5120909E+02  0.7957747E-01  0.1438927E+00
         13   -1    0    0    0    0  0.00000000000E+00  0.00000000000E+00  0.99999944179E+02  0.99999999999E+02  0.10566000000E+00 0. -1.
         22   -1    0    0    0    0 -0.00000000000E+00 -0.00000000000E+00 -0.23876492318E+02  0.23876492318E+02  0.00000000000E+00 0.  1.
         13    1    1    2    0    0 -0.99921650417E+01 -0.47462730956E+01 -0.15423267591E+02  0.18980485182E+02  0.10566000000E+00 0.  1.
        996    1    1    2    0    0  0.99921650417E+01  0.47462730956E+01  0.91546719452E+02  0.10489600714E+03  0.50000000000E+02 0.  0.
<mgrwt>
<rscale>  0 0.51209086E+02</rscale>
<asrwt>0</asrwt>
<pdfrwt beam="1">  1       13 0.10000000E+01 0.51209086E+02</pdfrwt>
<pdfrwt beam="2">  1       22 0.23876514E+00 0.51209086E+02</pdfrwt>
<totfact> 0.32222216E-01</totfact>
</mgrwt>
</event>
<event>
 4    1  0.2505250E+000  0.5129287E+02  0.7957747E-01  0.1438490E+00
         13   -1    0    0    0    0  0.00000000000E+00  0.00000000000E+00  0.99999944178E+02  0.99999999998E+02  0.10566000000E+00 0. -1.
         22   -1    0    0    0    0 -0.00000000000E+00 -0.00000000000E+00 -0.13471106491E+02  0.13471106491E+02  0.00000000000E+00 0.  1.
         13    1    1    2    0    0  0.11251140929E+02 -0.20905495376E+01 -0.15467507615E+01  0.11548254047E+02  0.10566000000E+00 0.  1.
        996    1    1    2    0    0 -0.11251140929E+02  0.20905495376E+01  0.88075588448E+02  0.10192285244E+03  0.50000000000E+02 0.  0.
<mgrwt>
<rscale>  0 0.51292871E+02</rscale>
<asrwt>0</asrwt>
<pdfrwt beam="1">  1       13 0.10000000E+01 0.51292871E+02</pdfrwt>
<pdfrwt beam="2">  1       22 0.13471131E+00 0.51292871E+02</pdfrwt>
<totfact> 0.89579857E-01</totfact>
</mgrwt>
</event>
<event>
 4    1  0.2505250E+000  0.5317542E+02  0.7957747E-01  0.1428930E+00
         13   -1    0    0    0    0  0.00000000000E+00  0.00000000000E+00  0.99999944179E+02  0.99999999999E+02  0.10566000000E+00 0. -1.
         22   -1    0    0    0    0 -0.00000000000E+00 -0.00000000000E+00 -0.29309096725E+02  0.29309096725E+02  0.00000000000E+00 0.  1.
         13    1    1    2    0    0 -0.68683217355E+01  0.16746688389E+02 -0.18237390679E+02  0.25695116234E+02  0.10566000000E+00 0.  1.
        996    1    1    2    0    0  0.68683217355E+01 -0.16746688389E+02  0.88928238133E+02  0.10361398049E+03  0.50000000000E+02 0.  0.
<mgrwt>
<rscale>  0 0.53175421E+02</rscale>
<asrwt>0</asrwt>
<pdfrwt beam="1">  1       13 0.10000000E+01 0.53175421E+02</pdfrwt>
<pdfrwt beam="2">  1       22 0.29309116E+00 0.53175421E+02</pdfrwt>
<totfact> 0.21665677E-01</totfact>
</mgrwt>
</event>
<event>
 4    1  0.2505250E+000  0.5414739E+02  0.7957747E-01  0.1424174E+00
         13   -1    0    0    0    0  0.00000000000E+00  0.00000000000E+00  0.99999944178E+02  0.99999999998E+02  0.10566000000E+00 0. -1.
         22   -1    0    0    0    0 -0.00000000000E+00 -0.00000000000E+00 -0.14403231702E+02  0.14403231702E+02  0.00000000000E+00 0. -1.
         13    1    1    2    0    0 -0.18864908052E+02  0.87209579033E+01  0.16029027022E+02  0.26246537559E+02  0.10566000000E+00 0.  1.
        996    1    1    2    0    0  0.18864908052E+02 -0.87209579033E+01  0.69567685454E+02  0.88156694142E+02  0.50000000000E+02 0.  0.
<mgrwt>
<rscale>  0 0.54147390E+02</rscale>
<asrwt>0</asrwt>
<pdfrwt beam="1">  1       13 0.10000000E+01 0.54147390E+02</pdfrwt>
<pdfrwt beam="2">  1       22 0.14403256E+00 0.54147390E+02</pdfrwt>
<totfact> 0.80866693E-01</totfact>
</mgrwt>
</event>
<event>
 4    1  0.2505250E+000  0.5120189E+02  0.7957747E-01  0.1438965E+00
         13   -1    0    0    0    0  0.00000000000E+00  0.00000000000E+00  0.99999944179E+02  0.99999999999E+02  0.10566000000E+00 0. -1.
         22   -1    0    0    0    0 -0.00000000000E+00 -0.00000000000E+00 -0.10826109252E+02  0.10826109252E+02  0.00000000000E+00 0. -1.
         13    1    1    2    0    0 -0.10290361960E+02  0.39675872501E+01  0.45774485228E+01  0.11941419383E+02  0.10566000000E+00 0.  1.
        996    1    1    2    0    0  0.10290361960E+02 -0.39675872501E+01  0.84596386403E+02  0.98884689868E+02  0.50000000000E+02 0.  0.
<mgrwt>
<rscale>  0 0.51201888E+02</rscale>
<asrwt>0</asrwt>
<pdfrwt beam="1">  1       13 0.10000000E+01 0.51201888E+02</pdfrwt>
<pdfrwt beam="2">  1       22 0.10826134E+00 0.51201888E+02</pdfrwt>
<totfact> 0.12527185E+00</totfact>
</mgrwt>
</event>
<event>
 4    1  0.2505250E+000  0.5278073E+02  0.7957747E-01  0.1430895E+00
         13   -1    0    0    0    0  0.00000000000E+00  0.00000000000E+00  0.99999944186E+02  0.10000000001E+03  0.10566000000E+00 0.  1.
         22   -1    0    0    0    0 -0.00000000000E+00 -0.00000000000E+00 -0.17089895658E+02  0.17089895658E+02  0.00000000000E+00 0.  1.
         13    1    1    2    0    0 -0.12502383435E+01 -0.16859488379E+02 -0.20910625483E+01  0.17034939123E+02  0.10566000000E+00 0. -1.
        996    1    1    2    0    0  0.12502383435E+01  0.16859488379E+02  0.85001111076E+02  0.10005495654E+03  0.50000000000E+02 0.  0.
<mgrwt>
<rscale>  0 0.52780730E+02</rscale>
<asrwt>0</asrwt>
<pdfrwt beam="1">  1       13 0.10000000E+01 0.52780730E+02</pdfrwt>
<pdfrwt beam="2">  1       22 0.17089919E+00 0.52780730E+02</pdfrwt>
<totfact> 0.60328884E-01</totfact>
</mgrwt>
</event>
<event>
 4    1  0.2505250E+000  0.5185715E+02  0.7957747E-01  0.1435574E+00
         13   -1    0    0    0    0  0.00000000000E+00  0.00000000000E+00  0.99999944178E+02  0.99999999998E+02  0.10566000000E+00 0. -1.
         22   -1    0    0    0    0 -0.00000000000E+00 -0.00000000000E+00 -0.11601677019E+02  0.11601677019E+02  0.00000000000E+00 0.  1.
         13    1    1    2    0    0  0.81154116714E+01  0.11104227515E+02  0.79449575972E+01  0.15883868879E+02  0.10566000000E+00 0.  1.
        996    1    1    2    0    0 -0.81154116714E+01 -0.11104227515E+02  0.80453309562E+02  0.95717808138E+02  0.50000000000E+02 0.  0.
<mgrwt>
<rscale>  0 0.51857148E+02</rscale>
<asrwt>0</asrwt>
<pdfrwt beam="1">  1       13 0.10000000E+01 0.51857148E+02</pdfrwt>
<pdfrwt beam="2">  1       22 0.11601702E+00 0.51857148E+02</pdfrwt>
<totfact> 0.11312444E+00</totfact>
</mgrwt>
</event>
<event>
 4    1  0.2505250E+000  0.5164214E+02  0.7957747E-01  0.1436680E+00
         13   -1    0    0    0    0  0.00000000000E+00  0.00000000000E+00  0.99999944176E+02  0.99999999997E+02  0.10566000000E+00 0. -1.
         22   -1    0    0    0    0 -0.00000000000E+00 -0.00000000000E+00 -0.15989460889E+02  0.15989460889E+02  0.00000000000E+00 0.  1.
         13    1    1    2    0    0  0.63027615491E+01  0.11277685279E+02 -0.43601787029E+01  0.13635736531E+02  0.10566000000E+00 0.  1.
        996    1    1    2    0    0 -0.63027615491E+01 -0.11277685279E+02  0.88370661991E+02  0.10235372435E+03  0.50000000000E+02 0.  0.
<mgrwt>
<rscale>  0 0.51642144E+02</rscale>
<asrwt>0</asrwt>
<pdfrwt beam="1">  1       13 0.10000000E+01 0.51642144E+02</pdfrwt>
<pdfrwt beam="2">  1       22 0.15989484E+00 0.51642144E+02</pdfrwt>
<totfact> 0.67552559E-01</totfact>
</mgrwt>
</event>
<event>
 4    1  0.2505250E+000  0.5150024E+02  0.7957747E-01  0.1437414E+00
         13   -1    0    0    0    0  0.00000000000E+00  0.00000000000E+00  0.99999944177E+02  0.99999999997E+02  0.10566000000E+00 0. -1.
         22   -1    0    0    0    0 -0.00000000000E+00 -0.00000000000E+00 -0.19642682853E+02  0.19642682853E+02  0.00000000000E+00 0.  1.
         13    1    1    2    0    0 -0.11969953364E+02 -0.29991632031E+01 -0.98366357295E+01  0.15781170108E+02  0.10566000000E+00 0.  1.
        996    1    1    2    0    0  0.11969953364E+02  0.29991632031E+01  0.90193897054E+02  0.10386151274E+03  0.50000000000E+02 0.  0.
<mgrwt>
<rscale>  0 0.51500240E+02</rscale>
<asrwt>0</asrwt>
<pdfrwt beam="1">  1       13 0.10000000E+01 0.51500240E+02</pdfrwt>
<pdfrwt beam="2">  1       22 0.19642705E+00 0.51500240E+02</pdfrwt>
<totfact> 0.46809758E-01</totfact>
</mgrwt>
</event>
<event>
 4    1  0.2505250E+000  0.5202052E+02  0.7957747E-01  0.1434738E+00
         13   -1    0    0    0    0  0.00000000000E+00  0.00000000000E+00  0.99999944184E+02  0.10000000000E+03  0.10566000000E+00 0.  1.
         22   -1    0    0    0    0 -0.00000000000E+00 -0.00000000000E+00 -0.11655506867E+02  0.11655506867E+02  0.00000000000E+00 0.  1.
         13    1    1    2    0    0  0.67270936261E+01 -0.12683859817E+02  0.95712059354E+01  0.17255527683E+02  0.10566000000E+00 0. -1.
        996    1    1    2    0    0 -0.67270936261E+01  0.12683859817E+02  0.78773231381E+02  0.94399979188E+02  0.50000000000E+02 0.  0.
<mgrwt>
<rscale>  0 0.52020516E+02</rscale>
<asrwt>0</asrwt>
<pdfrwt beam="1">  1       13 0.10000000E+01 0.52020516E+02</pdfrwt>
<pdfrwt beam="2">  1       22 0.11655532E+00 0.52020516E+02</pdfrwt>
<totfact> 0.11237607E+00</totfact>
</mgrwt>
</event>
<event>
 4    1  0.2505250E+000  0.7154855E+02  0.7957747E-01  0.1354905E+00
         13   -1    0    0    0    0  0.00000000000E+00  0.00000000000E+00  0.99999944177E+02  0.99999999997E+02  0.10566000000E+00 0.  1.
         22   -1    0    0    0    0 -0.00000000000E+00 -0.00000000000E+00 -0.48830619500E+02  0.48830619500E+02  0.00000000000E+00 0. -1.
         13    1    1    2    0    0 -0.46628057901E+02  0.21095474069E+02 -0.12910580936E+02  0.52781522088E+02  0.10566000000E+00 0. -1.
        996    1    1    2    0    0  0.46628057901E+02 -0.21095474069E+02  0.64079905613E+02  0.96049097409E+02  0.50000000000E+02 0.  0.
<mgrwt>
<rscale>  0 0.71548549E+02</rscale>
<asrwt>0</asrwt>
<pdfrwt beam="1">  1       13 0.10000000E+01 0.71548549E+02</pdfrwt>
<pdfrwt beam="2">  1       22 0.48830634E+00 0.71548549E+02</pdfrwt>
<totfact> 0.79183823E-02</totfact>
</mgrwt>
</event>
<event>
 4    1  0.2505250E+000  0.5228502E+02  0.7957747E-01  0.1433392E+00
         13   -1    0    0    0    0  0.00000000000E+00  0.00000000000E+00  0.99999944176E+02  0.99999999996E+02  0.10566000000E+00 0. -1.
         22   -1    0    0    0    0 -0.00000000000E+00 -0.00000000000E+00 -0.12617568067E+02  0.12617568067E+02  0.00000000000E+00 0. -1.
         13    1    1    2    0    0  0.84335647791E+01  0.12751420992E+02  0.36887323313E+02  0.39930058069E+02  0.10566000000E+00 0.  1.
        996    1    1    2    0    0 -0.84335647791E+01 -0.12751420992E+02  0.50495052796E+02  0.72687509994E+02  0.50000000000E+02 0.  0.
<mgrwt>
<rscale>  0 0.52285024E+02</rscale>
<asrwt>0</asrwt>
<pdfrwt beam="1">  1       13 0.10000000E+01 0.52285024E+02</pdfrwt>
<pdfrwt beam="2">  1       22 0.12617592E+00 0.52285024E+02</pdfrwt>
<totfact> 0.99535712E-01</totfact>
</mgrwt>
</event>
<event>
 4    1  0.2505250E+000  0.5291794E+02  0.7957747E-01  0.1430210E+00
         13   -1    0    0    0    0  0.00000000000E+00  0.00000000000E+00  0.99999944185E+02  0.10000000001E+03  0.10566000000E+00 0. -1.
         22   -1    0    0    0    0 -0.00000000000E+00 -0.00000000000E+00 -0.17169245438E+02  0.17169245438E+02  0.00000000000E+00 0.  1.
         13    1    1    2    0    0  0.16467641252E+02  0.53967342363E+01 -0.17295720298E+01  0.17415812708E+02  0.10566000000E+00 0.  1.
        996    1    1    2    0    0 -0.16467641252E+02 -0.53967342363E+01  0.84560270777E+02  0.99753432736E+02  0.50000000000E+02 0.  0.
<mgrwt>
<rscale>  0 0.52917936E+02</rscale>
<asrwt>0</asrwt>
<pdfrwt beam="1">  1       13 0.10000000E+01 0.52917936E+02</pdfrwt>
<pdfrwt beam="2">  1       22 0.17169269E+00 0.52917936E+02</pdfrwt>
<totfact> 0.59855085E-01</totfact>
</mgrwt>
</event>
<event>
 4    1  0.2505250E+000  0.5144280E+02  0.7957747E-01  0.1437711E+00
         13   -1    0    0    0    0  0.00000000000E+00  0.00000000000E+00  0.99999944179E+02  0.99999999999E+02  0.10566000000E+00 0.  1.
         22   -1    0    0    0    0 -0.00000000000E+00 -0.00000000000E+00 -0.12344524645E+02  0.12344524645E+02  0.00000000000E+00 0.  1.
         13    1    1    2    0    0 -0.26762151651E+01 -0.11798288738E+02  0.17643971400E+01  0.12226446993E+02  0.10566000000E+00 0. -1.
        996    1    1    2    0    0  0.26762151651E+01  0.11798288738E+02  0.85891022394E+02  0.10011807765E+03  0.50000000000E+02 0.  0.
<mgrwt>
<rscale>  0 0.51442801E+02</rscale>
<asrwt>0</asrwt>
<pdfrwt beam="1">  1       13 0.10000000E+01 0.51442801E+02</pdfrwt>
<pdfrwt beam="2">  1       22 0.12344549E+00 0.51442801E+02</pdfrwt>
<totfact> 0.10278354E+00</totfact>
</mgrwt>
</event>
<event>
 4    1  0.2505250E+000  0.5426913E+02  0.7957747E-01  0.1423587E+00
         13   -1    0    0    0    0  0.00000000000E+00  0.00000000000E+00  0.99999944186E+02  0.10000000001E+03  0.10566000000E+00 0. -1.
         22   -1    0    0    0    0 -0.00000000000E+00 -0.00000000000E+00 -0.19364500452E+02  0.19364500452E+02  0.00000000000E+00 0.  1.
         13    1    1    2    0    0  0.16135311063E+02 -0.13593767917E+02 -0.12417731234E+01  0.21135088214E+02  0.10566000000E+00 0.  1.
        996    1    1    2    0    0 -0.16135311063E+02  0.13593767917E+02  0.81877216858E+02  0.98229412243E+02  0.50000000000E+02 0.  0.
<mgrwt>
<rscale>  0 0.54269133E+02</rscale>
<asrwt>0</asrwt>
<pdfrwt beam="1">  1       13 0.10000000E+01 0.54269133E+02</pdfrwt>
<pdfrwt beam="2">  1       22 0.19364523E+00 0.54269133E+02</pdfrwt>
<totfact> 0.48299238E-01</totfact>
</mgrwt>
</event>
<event>
 4    1  0.2505250E+000  0.5333604E+02  0.7957747E-01  0.1428136E+00
         13   -1    0    0    0    0  0.00000000000E+00  0.00000000000E+00  0.99999944174E+02  0.99999999994E+02  0.10566000000E+00 0.  1.
         22   -1    0    0    0    0 -0.00000000000E+00 -0.00000000000E+00 -0.21291041064E+02  0.21291041064E+02  0.00000000000E+00 0. -1.
         13    1    1    2    0    0 -0.48335456752E+01 -0.17926786772E+02 -0.74117750051E+01  0.19991958897E+02  0.10566000000E+00 0. -1.
        996    1    1    2    0    0  0.48335456752E+01  0.17926786772E+02  0.86120678115E+02  0.10129908216E+03  0.50000000000E+02 0.  0.
<mgrwt>
<rscale>  0 0.53336037E+02</rscale>
<asrwt>0</asrwt>
<pdfrwt beam="1">  1       13 0.10000000E+01 0.53336037E+02</pdfrwt>
<pdfrwt beam="2">  1       22 0.21291063E+00 0.53336037E+02</pdfrwt>
<totfact> 0.40359965E-01</totfact>
</mgrwt>
</event>
<event>
 4    1  0.2505250E+000  0.5144962E+02  0.7957747E-01  0.1437676E+00
         13   -1    0    0    0    0  0.00000000000E+00  0.00000000000E+00  0.99999944172E+02  0.99999999992E+02  0.10566000000E+00 0.  1.
         22   -1    0    0    0    0 -0.00000000000E+00 -0.00000000000E+00 -0.37769810504E+02  0.37769810504E+02  0.00000000000E+00 0. -1.
         13    1    1    2    0    0 -0.12172933894E+01 -0.12065714682E+02 -0.29889633653E+02  0.32256234094E+02  0.10566000000E+00 0. -1.
        996    1    1    2    0    0  0.12172933894E+01  0.12065714682E+02  0.92119767320E+02  0.10551357640E+03  0.50000000000E+02 0.  0.
<mgrwt>
<rscale>  0 0.51449619E+02</rscale>
<asrwt>0</asrwt>
<pdfrwt beam="1">  1       13 0.10000000E+01 0.51449619E+02</pdfrwt>
<pdfrwt beam="2">  1       22 0.37769828E+00 0.51449619E+02</pdfrwt>
<totfact> 0.13736920E-01</totfact>
</mgrwt>
</event>
<event>
 4    1  0.2505250E+000  0.5277221E+02  0.7957747E-01  0.1430938E+00
         13   -1    0    0    0    0  0.00000000000E+00  0.00000000000E+00  0.99999944175E+02  0.99999999996E+02  0.10566000000E+00 0.  1.
         22   -1    0    0    0    0 -0.00000000000E+00 -0.00000000000E+00 -0.23640529836E+02  0.23640529836E+02  0.00000000000E+00 0. -1.
         13    1    1    2    0    0  0.31637436916E-01  0.16879132256E+02 -0.12007892117E+02  0.20714891836E+02  0.10566000000E+00 0. -1.
        996    1    1    2    0    0 -0.31637436916E-01 -0.16879132256E+02  0.88367306456E+02  0.10292563800E+03  0.50000000000E+02 0.  0.
<mgrwt>
<rscale>  0 0.52772210E+02</rscale>
<asrwt>0</asrwt>
<pdfrwt beam="1">  1       13 0.10000000E+01 0.52772210E+02</pdfrwt>
<pdfrwt beam="2">  1       22 0.23640551E+00 0.52772210E+02</pdfrwt>
<totfact> 0.32937927E-01</totfact>
</mgrwt>
</event>
<event>
 4    1  0.2505250E+000  0.5171807E+02  0.7957747E-01  0.1436289E+00
         13   -1    0    0    0    0  0.00000000000E+00  0.00000000000E+00  0.99999944173E+02  0.99999999993E+02  0.10566000000E+00 0. -1.
         22   -1    0    0    0    0 -0.00000000000E+00 -0.00000000000E+00 -0.10581494318E+02  0.10581494318E+02  0.00000000000E+00 0. -1.
         13    1    1    2    0    0 -0.96077104314E+01 -0.90802613547E+01  0.15591980885E+02  0.20442120192E+02  0.10566000000E+00 0.  1.
        996    1    1    2    0    0  0.96077104314E+01  0.90802613547E+01  0.73826468970E+02  0.90139374119E+02  0.50000000000E+02 0.  0.
<mgrwt>
<rscale>  0 0.51718075E+02</rscale>
<asrwt>0</asrwt>
<pdfrwt beam="1">  1       13 0.10000000E+01 0.51718075E+02</pdfrwt>
<pdfrwt beam="2">  1       22 0.10581519E+00 0.51718075E+02</pdfrwt>
<totfact> 0.12972658E+00</totfact>
</mgrwt>
</event>
<event>
 4    1  0.2505250E+000  0.5458741E+02  0.7957747E-01  0.1422060E+00
         13   -1    0    0    0    0  0.00000000000E+00  0.00000000000E+00  0.99999944181E+02  0.10000000000E+03  0.10566000000E+00 0. -1.
         22   -1    0    0    0    0 -0.00000000000E+00 -0.00000000000E+00 -0.27621868824E+02  0.27621868824E+02  0.00000000000E+00 0.  1.
         13    1    1    2    0    0 -0.21558768610E+02  0.38736155312E+01 -0.13597015297E+02  0.25781299236E+02  0.10566000000E+00 0.  1.
        996    1    1    2    0    0  0.21558768610E+02 -0.38736155312E+01  0.85975090654E+02  0.10184056959E+03  0.50000000000E+02 0.  0.
<mgrwt>
<rscale>  0 0.54587411E+02</rscale>
<asrwt>0</asrwt>
<pdfrwt beam="1">  1       13 0.10000000E+01 0.54587411E+02</pdfrwt>
<pdfrwt beam="2">  1       22 0.27621889E+00 0.54587411E+02</pdfrwt>
<totfact> 0.24330238E-01</totfact>
</mgrwt>
</event>
<event>
 4    1  0.2505250E+000  0.5343924E+02  0.7957747E-01  0.1427627E+00
         13   -1    0    0    0    0  0.00000000000E+00  0.00000000000E+00  0.99999944175E+02  0.99999999995E+02  0.10566000000E+00 0.  1.
         22   -1    0    0    0    0 -0.00000000000E+00 -0.00000000000E+00 -0.14030606516E+02  0.14030606516E+02  0.00000000000E+00 0.  1.
         13    1    1    2    0    0  0.12678938860E+02  0.13964134474E+02  0.10592646949E+02  0.21632565165E+02  0.10566000000E+00 0. -1.
        996    1    1    2    0    0 -0.12678938860E+02 -0.13964134474E+02  0.75376690711E+02  0.92398041347E+02  0.50000000000E+02 0.  0.
<mgrwt>
<rscale>  0 0.53439242E+02</rscale>
<asrwt>0</asrwt>
<pdfrwt beam="1">  1       13 0.10000000E+01 0.53439242E+02</pdfrwt>
<pdfrwt beam="2">  1       22 0.14030631E+00 0.53439242E+02</pdfrwt>
<totfact> 0.84280210E-01</totfact>
</mgrwt>
</event>
<event>
 4    1  0.2505250E+000  0.6633273E+02  0.7957747E-01  0.1373027E+00
         13   -1    0    0    0    0  0.00000000000E+00  0.00000000000E+00  0.99999944186E+02  0.10000000001E+03  0.10566000000E+00 0.  1.
         22   -1    0    0    0    0 -0.00000000000E+00 -0.00000000000E+00 -0.53013964993E+02  0.53013964993E+02  0.00000000000E+00 0. -1.
         13    1    1    2    0    0 -0.40211706771E+02 -0.16824096340E+02 -0.28841668171E+02  0.52267433130E+02  0.10566000000E+00 0. -1.
        996    1    1    2    0    0  0.40211706771E+02  0.16824096340E+02  0.75827647363E+02  0.10074653187E+03  0.50000000000E+02 0.  0.
<mgrwt>
<rscale>  0 0.66332734E+02</rscale>
<asrwt>0</asrwt>
<pdfrwt beam="1">  1       13 0.10000000E+01 0.66332734E+02</pdfrwt>
<pdfrwt beam="2">  1       22 0.53013978E+00 0.66332734E+02</pdfrwt>
<totfact> 0.63400254E-02</totfact>
</mgrwt>
</event>
<event>
 4    1  0.2505250E+000  0.5304263E+02  0.7957747E-01  0.1429589E+00
         13   -1    0    0    0    0  0.00000000000E+00  0.00000000000E+00  0.99999944178E+02  0.99999999998E+02  0.10566000000E+00 0. -1.
         22   -1    0    0    0    0 -0.00000000000E+00 -0.00000000000E+00 -0.12664222436E+02  0.12664222436E+02  0.00000000000E+00 0. -1.
         13    1    1    2    0    0 -0.10831726562E+02  0.14006921688E+02  0.27448527762E+02  0.32664246445E+02  0.10566000000E+00 0.  1.
        996    1    1    2    0    0  0.10831726562E+02 -0.14006921688E+02  0.59887193979E+02  0.79999975989E+02  0.50000000000E+02 0.  0.
<mgrwt>
<rscale>  0 0.53042626E+02</rscale>
<asrwt>0</asrwt>
<pdfrwt beam="1">  1       13 0.10000000E+01 0.53042626E+02</pdfrwt>
<pdfrwt beam="2">  1       22 0.12664247E+00 0.53042626E+02</pdfrwt>
<totfact> 0.99126243E-01</totfact>
</mgrwt>
</event>
<event>
 4    1  0.2505250E+000  0.5160203E+02  0.7957747E-01  0.1436887E+00
         13   -1    0    0    0    0  0.00000000000E+00  0.00000000000E+00  0.99999944179E+02  0.99999999999E+02  0.10566000000E+00 0. -1.
         22   -1    0    0    0    0 -0.00000000000E+00 -0.00000000000E+00 -0.31549731159E+02  0.31549731159E+02  0.00000000000E+00 0.  1.
         13    1    1    2    0    0  0.10703286053E+02 -0.69432778755E+01 -0.23139546274E+02  0.26423837833E+02  0.10566000000E+00 0.  1.
        996    1    1    2    0    0 -0.10703286053E+02  0.69432778755E+01  0.91589759294E+02  0.10512589333E+03  0.50000000000E+02 0.  0.
<mgrwt>
<rscale>  0 0.51602029E+02</rscale>
<asrwt>0</asrwt>
<pdfrwt beam="1">  1       13 0.10000000E+01 0.51602029E+02</pdfrwt>
<pdfrwt beam="2">  1       22 0.31549750E+00 0.51602029E+02</pdfrwt>
<totfact> 0.18864223E-01</totfact>
</mgrwt>
</event>
<event>
 4    1  0.2505250E+000  0.5265218E+02  0.7957747E-01  0.1431540E+00
         13   -1    0    0    0    0  0.00000000000E+00  0.00000000000E+00  0.99999944173E+02  0.99999999993E+02  0.10566000000E+00 0.  1.
         22   -1    0    0    0    0 -0.00000000000E+00 -0.00000000000E+00 -0.12571586478E+02  0.12571586478E+02  0.00000000000E+00 0.  1.
         13    1    1    2    0    0  0.10825691481E+02  0.12452151762E+02  0.11259447346E+02  0.19975935476E+02  0.10566000000E+00 0. -1.
        996    1    1    2    0    0 -0.10825691481E+02 -0.12452151762E+02  0.76168910349E+02  0.92595650996E+02  0.50000000000E+02 0.  0.
<mgrwt>
<rscale>  0 0.52652176E+02</rscale>
<asrwt>0</asrwt>
<pdfrwt beam="1">  1       13 0.10000000E+01 0.52652176E+02</pdfrwt>
<pdfrwt beam="2">  1       22 0.12571611E+00 0.52652176E+02</pdfrwt>
<totfact> 0.10018340E+00</totfact>
</mgrwt>
</event>
<event>
 4    1  0.2505250E+000  0.5336194E+02  0.7957747E-01  0.1428008E+00
         13   -1    0    0    0    0  0.00000000000E+00  0.00000000000E+00  0.99999944181E+02  0.10000000000E+03  0.10566000000E+00 0. -1.
         22   -1    0    0    0    0 -0.00000000000E+00 -0.00000000000E+00 -0.14225421398E+02  0.14225421398E+02  0.00000000000E+00 0.  1.
         13    1    1    2    0    0 -0.15339850276E+02 -0.10591769686E+02  0.89296897698E+01  0.20669956821E+02  0.10566000000E+00 0.  1.
        996    1    1    2    0    0  0.15339850276E+02  0.10591769686E+02  0.76844833014E+02  0.93555464578E+02  0.50000000000E+02 0.  0.
<mgrwt>
<rscale>  0 0.53361940E+02</rscale>
<asrwt>0</asrwt>
<pdfrwt beam="1">  1       13 0.10000000E+01 0.53361940E+02</pdfrwt>
<pdfrwt beam="2">  1       22 0.14225445E+00 0.53361940E+02</pdfrwt>
<totfact> 0.82396870E-01</totfact>
</mgrwt>
</event>
<event>
 4    1  0.2505250E+000  0.5553416E+02  0.7957747E-01  0.1417590E+00
         13   -1    0    0    0    0  0.00000000000E+00  0.00000000000E+00  0.99999944171E+02  0.99999999991E+02  0.10566000000E+00 0.  1.
         22   -1    0    0    0    0 -0.00000000000E+00 -0.00000000000E+00 -0.32889642452E+02  0.32889642452E+02  0.00000000000E+00 0. -1.
         13    1    1    2    0    0  0.23849797973E+02 -0.39025529387E+01 -0.18782375641E+02  0.30607704611E+02  0.10566000000E+00 0. -1.
        996    1    1    2    0    0 -0.23849797973E+02  0.39025529387E+01  0.85892677359E+02  0.10228193783E+03  0.50000000000E+02 0.  0.
<mgrwt>
<rscale>  0 0.55534159E+02</rscale>
<asrwt>0</asrwt>
<pdfrwt beam="1">  1       13 0.10000000E+01 0.55534159E+02</pdfrwt>
<pdfrwt beam="2">  1       22 0.32889661E+00 0.55534159E+02</pdfrwt>
<totfact> 0.17591440E-01</totfact>
</mgrwt>
</event>
<event>
 4    1  0.2505250E+000  0.5129273E+02  0.7957747E-01  0.1438491E+00
         13   -1    0    0    0    0  0.00000000000E+00  0.00000000000E+00  0.99999944182E+02  0.10000000000E+03  0.10566000000E+00 0.  1.
         22   -1    0    0    0    0 -0.00000000000E+00 -0.00000000000E+00 -0.12149851858E+02  0.12149851858E+02  0.00000000000E+00 0. -1.
         13    1    1    2    0    0 -0.11436479396E+02  0.38841821269E+00  0.12663237621E+01  0.11513412595E+02  0.10566000000E+00 0. -1.
        996    1    1    2    0    0  0.11436479396E+02 -0.38841821269E+00  0.86583768561E+02  0.10063643927E+03  0.50000000000E+02 0.  0.
<mgrwt>
<rscale>  0 0.51292728E+02</rscale>
<asrwt>0</asrwt>
<pdfrwt beam="1">  1       13 0.10000000E+01 0.51292728E+02</pdfrwt>
<pdfrwt beam="2">  1       22 0.12149876E+00 0.51292728E+02</pdfrwt>
<totfact> 0.10529854E+00</totfact>
</mgrwt>
</event>
<event>
 4    1  0.2505250E+000  0.5809495E+02  0.7957747E-01  0.1406005E+00
         13   -1    0    0    0    0  0.00000000000E+00  0.00000000000E+00  0.99999944183E+02  0.10000000000E+03  0.10566000000E+00 0. -1.
         22   -1    0    0    0    0 -0.00000000000E+00 -0.00000000000E+00 -0.41708857408E+02  0.41708857408E+02  0.00000000000E+00 0.  1.
         13    1    1    2    0    0  0.43045713827E+01 -0.29265917871E+02 -0.25968825935E+02  0.39362601135E+02  0.10566000000E+00 0.  1.
        996    1    1    2    0    0 -0.43045713827E+01  0.29265917871E+02  0.84259912711E+02  0.10234625628E+03  0.50000000000E+02 0.  0.
<mgrwt>
<rscale>  0 0.58094951E+02</rscale>
<asrwt>0</asrwt>
<pdfrwt beam="1">  1       13 0.10000000E+01 0.58094951E+02</pdfrwt>
<pdfrwt beam="2">  1       22 0.41708874E+00 0.58094951E+02</pdfrwt>
<totfact> 0.11442517E-01</totfact>
</mgrwt>
</event>
<event>
 4    1  0.2505250E+000  0.5190810E+02  0.7957747E-01  0.1435313E+00
         13   -1    0    0    0    0  0.00000000000E+00  0.00000000000E+00  0.99999944176E+02  0.99999999996E+02  0.10566000000E+00 0. -1.
         22   -1    0    0    0    0 -0.00000000000E+00 -0.00000000000E+00 -0.25310611520E+02  0.25310611520E+02  0.00000000000E+00 0.  1.
         13    1    1    2    0    0 -0.20397827796E+01 -0.13794569043E+02 -0.15748264965E+02  0.21034967609E+02  0.10566000000E+00 0.  1.
        996    1    1    2    0    0  0.20397827796E+01  0.13794569043E+02  0.90437597621E+02  0.10427564391E+03  0.50000000000E+02 0.  0.
<mgrwt>
<rscale>  0 0.51908100E+02</rscale>
<asrwt>0</asrwt>
<pdfrwt beam="1">  1       13 0.10000000E+01 0.51908100E+02</pdfrwt>
<pdfrwt beam="2">  1       22 0.25310632E+00 0.51908100E+02</pdfrwt>
<totfact> 0.28767579E-01</totfact>
</mgrwt>
</event>
<event>
 4    1  0.2505250E+000  0.5104200E+02  0.7957747E-01  0.1439801E+00
         13   -1    0    0    0    0  0.00000000000E+00  0.00000000000E+00  0.99999944175E+02  0.99999999995E+02  0.10566000000E+00 0. -1.
         22   -1    0    0    0    0 -0.00000000000E+00 -0.00000000000E+00 -0.17379877529E+02  0.17379877529E+02  0.00000000000E+00 0.  1.
         13    1    1    2    0    0 -0.77350716392E+01  0.67419947658E+01 -0.82427995198E+01  0.13162094615E+02  0.10566000000E+00 0.  1.
        996    1    1    2    0    0  0.77350716392E+01 -0.67419947658E+01  0.90862866166E+02  0.10421778291E+03  0.50000000000E+02 0.  0.
<mgrwt>
<rscale>  0 0.51042001E+02</rscale>
<asrwt>0</asrwt>
<pdfrwt beam="1">  1       13 0.10000000E+01 0.51042001E+02</pdfrwt>
<pdfrwt beam="2">  1       22 0.17379901E+00 0.51042001E+02</pdfrwt>
<totfact> 0.58370580E-01</totfact>
</mgrwt>
</event>
<event>
 4    1  0.2505250E+000  0.6030448E+02  0.7957747E-01  0.1396558E+00
         13   -1    0    0    0    0  0.00000000000E+00  0.00000000000E+00  0.99999944173E+02  0.99999999993E+02  0.10566000000E+00 0.  1.
         22   -1    0    0    0    0 -0.00000000000E+00 -0.00000000000E+00 -0.25695757857E+02  0.25695757857E+02  0.00000000000E+00 0. -1.
         13    1    1    2    0    0 -0.31439124530E+02  0.12174211415E+02  0.54244700226E+01  0.34147708764E+02  0.10566000000E+00 0. -1.
        996    1    1    2    0    0  0.31439124530E+02 -0.12174211415E+02  0.68879716293E+02  0.91548049086E+02  0.50000000000E+02 0.  0.
<mgrwt>
<rscale>  0 0.60304477E+02</rscale>
<asrwt>0</asrwt>
<pdfrwt beam="1">  1       13 0.10000000E+01 0.60304477E+02</pdfrwt>
<pdfrwt beam="2">  1       22 0.25695779E+00 0.60304477E+02</pdfrwt>
<totfact> 0.28260120E-01</totfact>
</mgrwt>
</event>
<event>
 4    1  0.2505250E+000  0.5107999E+02  0.7957747E-01  0.1439602E+00
         13   -1    0    0    0    0  0.00000000000E+00  0.00000000000E+00  0.99999944179E+02  0.10000000000E+03  0.10566000000E+00 0. -1.
         22   -1    0    0    0    0 -0.00000000000E+00 -0.00000000000E+00 -0.13701543930E+02  0.13701543930E+02  0.00000000000E+00 0. -1.
         13    1    1    2    0    0  0.53636869222E+01  0.89663782768E+01 -0.29607362981E+01  0.10860119717E+02  0.10566000000E+00 0.  1.
        996    1    1    2    0    0 -0.53636869222E+01 -0.89663782768E+01  0.89259136548E+02  0.10284142421E+03  0.50000000000E+02 0.  0.
<mgrwt>
<rscale>  0 0.51079987E+02</rscale>
<asrwt>0</asrwt>
<pdfrwt beam="1">  1       13 0.10000000E+01 0.51079987E+02</pdfrwt>
<pdfrwt beam="2">  1       22 0.13701568E+00 0.51079987E+02</pdfrwt>
<totfact> 0.87140190E-01</totfact>
</mgrwt>
</event>
<event>
 4    1  0.2505250E+000  0.5906166E+02  0.7957747E-01  0.1401812E+00
         13   -1    0    0    0    0  0.00000000000E+00  0.00000000000E+00  0.99999944178E+02  0.99999999998E+02  0.10566000000E+00 0.  1.
         22   -1    0    0    0    0 -0.00000000000E+00 -0.00000000000E+00 -0.20523781443E+02  0.20523781443E+02  0.00000000000E+00 0. -1.
         13    1    1    2    0    0  0.19310524452E+02 -0.24806917096E+02  0.30433917050E+02  0.43755159256E+02  0.10566000000E+00 0. -1.
        996    1    1    2    0    0 -0.19310524452E+02  0.24806917096E+02  0.49042245685E+02  0.76768622186E+02  0.50000000000E+02 0.  0.
<mgrwt>
<rscale>  0 0.59061658E+02</rscale>
<asrwt>0</asrwt>
<pdfrwt beam="1">  1       13 0.10000000E+01 0.59061658E+02</pdfrwt>
<pdfrwt beam="2">  1       22 0.20523804E+00 0.59061658E+02</pdfrwt>
<totfact> 0.43672128E-01</totfact>
</mgrwt>
</event>
<event>
 4    1  0.2505250E+000  0.6291819E+02  0.7957747E-01  0.1385978E+00
         13   -1    0    0    0    0  0.00000000000E+00  0.00000000000E+00  0.99999944175E+02  0.99999999995E+02  0.10566000000E+00 0.  1.
         22   -1    0    0    0    0 -0.00000000000E+00 -0.00000000000E+00 -0.34225382102E+02  0.34225382102E+02  0.00000000000E+00 0. -1.
         13    1    1    2    0    0  0.11720060232E+02 -0.36350216299E+02 -0.61277080274E+01  0.38681494368E+02  0.10566000000E+00 0. -1.
        996    1    1    2    0    0 -0.11720060232E+02  0.36350216299E+02  0.71902270100E+02  0.95543887729E+02  0.50000000000E+02 0.  0.
<mgrwt>
<rscale>  0 0.62918185E+02</rscale>
<asrwt>0</asrwt>
<pdfrwt beam="1">  1       13 0.10000000E+01 0.62918185E+02</pdfrwt>
<pdfrwt beam="2">  1       22 0.34225400E+00 0.62918185E+02</pdfrwt>
<totfact> 0.16515024E-01</totfact>
</mgrwt>
</event>
<event>
 4    1  0.2505250E+000  0.5184234E+02  0.7957747E-01  0.1435650E+00
         13   -1    0    0    0    0  0.00000000000E+00  0.00000000000E+00  0.99999944179E+02  0.99999999999E+02  0.10566000000E+00 0.  1.
         22   -1    0    0    0    0 -0.00000000000E+00 -0.00000000000E+00 -0.11054523021E+02  0.11054523021E+02  0.00000000000E+00 0. -1.
         13    1    1    2    0    0 -0.55767059492E+01  0.12511137520E+02  0.11643099274E+02  0.17977795639E+02  0.10566000000E+00 0. -1.
        996    1    1    2    0    0  0.55767059492E+01 -0.12511137520E+02  0.77302321884E+02  0.93076727381E+02  0.50000000000E+02 0.  0.
<mgrwt>
<rscale>  0 0.51842340E+02</rscale>
<asrwt>0</asrwt>
<pdfrwt beam="1">  1       13 0.10000000E+01 0.51842340E+02</pdfrwt>
<pdfrwt beam="2">  1       22 0.11054548E+00 0.51842340E+02</pdfrwt>
<totfact> 0.12162899E+00</totfact>
</mgrwt>
</event>
<event>
 4    1  0.2505250E+000  0.5525647E+02  0.7957747E-01  0.1418890E+00
         13   -1    0    0    0    0  0.00000000000E+00  0.00000000000E+00  0.99999944183E+02  0.10000000000E+03  0.10566000000E+00 0.  1.
         22   -1    0    0    0    0 -0.00000000000E+00 -0.00000000000E+00 -0.44716683992E+02  0.44716683992E+02  0.00000000000E+00 0. -1.
         13    1    1    2    0    0 -0.14752995363E+02 -0.18320125284E+02 -0.33025010242E+02  0.40545534009E+02  0.10566000000E+00 0. -1.
        996    1    1    2    0    0  0.14752995363E+02  0.18320125284E+02  0.88308270433E+02  0.10417114999E+03  0.50000000000E+02 0.  0.
<mgrwt>
<rscale>  0 0.55256473E+02</rscale>
<asrwt>0</asrwt>
<pdfrwt beam="1">  1       13 0.10000000E+01 0.55256473E+02</pdfrwt>
<pdfrwt beam="2">  1       22 0.44716699E+00 0.55256473E+02</pdfrwt>
<totfact> 0.98236044E-02</totfact>
</mgrwt>
</event>
<event>
 4    1  0.2505250E+000  0.5126963E+02  0.7957747E-01  0.1438611E+00
         13   -1    0    0    0    0  0.00000000000E+00  0.00000000000E+00  0.99999944176E+02  0.99999999996E+02  0.10566000000E+00 0. -1.
         22   -1    0    0    0    0 -0.00000000000E+00 -0.00000000000E+00 -0.12214731405E+02  0.12214731405E+02  0.00000000000E+00 0. -1.
         13    1    1    2    0    0  0.10608692899E+02 -0.40038411094E+01  0.95732163100E+00  0.11379926950E+02  0.10566000000E+00 0.  1.
        996    1    1    2    0    0 -0.10608692899E+02  0.40038411094E+01  0.86827891140E+02  0.10083480445E+03  0.50000000000E+02 0.  0.
<mgrwt>
<rscale>  0 0.51269631E+02</rscale>
<asrwt>0</asrwt>
<pdfrwt beam="1">  1       13 0.10000000E+01 0.51269631E+02</pdfrwt>
<pdfrwt beam="2">  1       22 0.12214756E+00 0.51269631E+02</pdfrwt>
<totfact> 0.10443350E+00</totfact>
</mgrwt>
</event>
<event>
 4    1  0.2505250E+000  0.5313349E+02  0.7957747E-01  0.1429138E+00
         13   -1    0    0    0    0  0.00000000000E+00  0.00000000000E+00  0.99999944181E+02  0.10000000000E+03  0.10566000000E+00 0.  1.
         22   -1    0    0    0    0 -0.00000000000E+00 -0.00000000000E+00 -0.20108558781E+02  0.20108558781E+02  0.00000000000E+00 0. -1.
         13    1    1    2    0    0 -0.17458171349E+02  0.42872462343E+01 -0.61358600368E+01  0.18995477608E+02  0.10566000000E+00 0. -1.
        996    1    1    2    0    0  0.17458171349E+02 -0.42872462343E+01  0.86027245436E+02  0.10111308117E+03  0.50000000000E+02 0.  0.
<mgrwt>
<rscale>  0 0.53133494E+02</rscale>
<asrwt>0</asrwt>
<pdfrwt beam="1">  1       13 0.10000000E+01 0.53133494E+02</pdfrwt>
<pdfrwt beam="2">  1       22 0.20108581E+00 0.53133494E+02</pdfrwt>
<totfact> 0.44942334E-01</totfact>
</mgrwt>
</event>
<event>
 4    1  0.2505250E+000  0.5122182E+02  0.7957747E-01  0.1438861E+00
         13   -1    0    0    0    0  0.00000000000E+00  0.00000000000E+00  0.99999944184E+02  0.10000000000E+03  0.10566000000E+00 0. -1.
         22   -1    0    0    0    0 -0.00000000000E+00 -0.00000000000E+00 -0.97773825737E+01  0.97773825737E+01  0.00000000000E+00 0. -1.
         13    1    1    2    0    0 -0.80534989486E+00  0.11091722298E+02  0.19593853828E+02  0.22530094626E+02  0.10566000000E+00 0.  1.
        996    1    1    2    0    0  0.80534989486E+00 -0.11091722298E+02  0.70628707782E+02  0.87247287952E+02  0.50000000000E+02 0.  0.
<mgrwt>
<rscale>  0 0.51221820E+02</rscale>
<asrwt>0</asrwt>
<pdfrwt beam="1">  1       13 0.10000000E+01 0.51221820E+02</pdfrwt>
<pdfrwt beam="2">  1       22 0.97774078E-01 0.51221820E+02</pdfrwt>
<totfact> 0.14536243E+00</totfact>
</mgrwt>
</event>
<event>
 4    1  0.2505250E+000  0.5391895E+02  0.7957747E-01  0.1425281E+00
         13   -1    0    0    0    0  0.00000000000E+00  0.00000000000E+00  0.99999944177E+02  0.99999999997E+02  0.10566000000E+00 0.  1.
         22   -1    0    0    0    0 -0.00000000000E+00 -0.00000000000E+00 -0.37762474234E+02  0.37762474234E+02  0.00000000000E+00 0. -1.
         13    1    1    2    0    0 -0.18343330001E+02 -0.84128162530E+01 -0.26874329144E+02  0.33607944951E+02  0.10566000000E+00 0. -1.
        996    1    1    2    0    0  0.18343330001E+02  0.84128162530E+01  0.89111799088E+02  0.10415452928E+03  0.50000000000E+02 0.  0.
<mgrwt>
<rscale>  0 0.53918951E+02</rscale>
<asrwt>0</asrwt>
<pdfrwt beam="1">  1       13 0.10000000E+01 0.53918951E+02</pdfrwt>
<pdfrwt beam="2">  1       22 0.37762492E+00 0.53918951E+02</pdfrwt>
<totfact> 0.13771638E-01</totfact>
</mgrwt>
</event>
<event>
 4    1  0.2505250E+000  0.5739100E+02  0.7957747E-01  0.1409118E+00
         13   -1    0    0    0    0  0.00000000000E+00  0.00000000000E+00  0.99999944182E+02  0.10000000000E+03  0.10566000000E+00 0.  1.
         22   -1    0    0    0    0 -0.00000000000E+00 -0.00000000000E+00 -0.34547189398E+02  0.34547189398E+02  0.00000000000E+00 0. -1.
         13    1    1    2    0    0  0.35679293601E+01 -0.27946312534E+02 -0.17876828770E+02  0.33366430362E+02  0.10566000000E+00 0. -1.
        996    1    1    2    0    0 -0.35679293601E+01  0.27946312534E+02  0.83329583554E+02  0.10118075904E+03  0.50000000000E+02 0.  0.
<mgrwt>
<rscale>  0 0.57390997E+02</rscale>
<asrwt>0</asrwt>
<pdfrwt beam="1">  1       13 0.10000000E+01 0.57390997E+02</pdfrwt>
<pdfrwt beam="2">  1       22 0.34547208E+00 0.57390997E+02</pdfrwt>
<totfact> 0.16162848E-01</totfact>
</mgrwt>
</event>
<event>
 4    1  0.2505250E+000  0.5208705E+02  0.7957747E-01  0.1434399E+00
         13   -1    0    0    0    0  0.00000000000E+00  0.00000000000E+00  0.99999944177E+02  0.99999999998E+02  0.10566000000E+00 0.  1.
         22   -1    0    0    0    0 -0.00000000000E+00 -0.00000000000E+00 -0.11963157701E+02  0.11963157701E+02  0.00000000000E+00 0.  1.
         13    1    1    2    0    0  0.93888820996E+01  0.11176287214E+02  0.33534945163E+02  0.36574092116E+02  0.10566000000E+00 0. -1.
        996    1    1    2    0    0 -0.93888820996E+01 -0.11176287214E+02  0.54501841313E+02  0.75389065583E+02  0.50000000000E+02 0.  0.
<mgrwt>
<rscale>  0 0.52087047E+02</rscale>
<asrwt>0</asrwt>
<pdfrwt beam="1">  1       13 0.10000000E+01 0.52087047E+02</pdfrwt>
<pdfrwt beam="2">  1       22 0.11963182E+00 0.52087047E+02</pdfrwt>
<totfact> 0.10802222E+00</totfact>
</mgrwt>
</event>
<event>
 4    1  0.2505250E+000  0.5141523E+02  0.7957747E-01  0.1437854E+00
         13   -1    0    0    0    0  0.00000000000E+00  0.00000000000E+00  0.99999944174E+02  0.99999999994E+02  0.10566000000E+00 0. -1.
         22   -1    0    0    0    0 -0.00000000000E+00 -0.00000000000E+00 -0.10468151591E+02  0.10468151591E+02  0.00000000000E+00 0. -1.
         13    1    1    2    0    0  0.11415815236E+02 -0.36339396134E+01  0.92609796685E+01  0.15142762729E+02  0.10566000000E+00 0.  1.
        996    1    1    2    0    0 -0.11415815236E+02  0.36339396134E+01  0.80270812915E+02  0.95325388856E+02  0.50000000000E+02 0.  0.
<mgrwt>
<rscale>  0 0.51415235E+02</rscale>
<asrwt>0</asrwt>
<pdfrwt beam="1">  1       13 0.10000000E+01 0.51415235E+02</pdfrwt>
<pdfrwt beam="2">  1       22 0.10468177E+00 0.51415235E+02</pdfrwt>
<totfact> 0.13170018E+00</totfact>
</mgrwt>
</event>
<event>
 4    1  0.2505250E+000  0.5144933E+02  0.7957747E-01  0.1437677E+00
         13   -1    0    0    0    0  0.00000000000E+00  0.00000000000E+00  0.99999944169E+02  0.99999999989E+02  0.10566000000E+00 0.  1.
         22   -1    0    0    0    0 -0.00000000000E+00 -0.00000000000E+00 -0.19493103553E+02  0.19493103553E+02  0.00000000000E+00 0. -1.
         13    1    1    2    0    0  0.24745024925E+00  0.12123222041E+02 -0.97783062359E+01  0.15577553761E+02  0.10566000000E+00 0. -1.
        996    1    1    2    0    0 -0.24745024925E+00 -0.12123222041E+02  0.90285146852E+02  0.10391554978E+03  0.50000000000E+02 0.  0.
<mgrwt>
<rscale>  0 0.51449332E+02</rscale>
<asrwt>0</asrwt>
<pdfrwt beam="1">  1       13 0.10000000E+01 0.51449332E+02</pdfrwt>
<pdfrwt beam="2">  1       22 0.19493126E+00 0.51449332E+02</pdfrwt>
<totfact> 0.47472136E-01</totfact>
</mgrwt>
</event>
<event>
 4    1  0.2505250E+000  0.5885124E+02  0.7957747E-01  0.1402717E+00
         13   -1    0    0    0    0  0.00000000000E+00  0.00000000000E+00  0.99999944179E+02  0.99999999999E+02  0.10566000000E+00 0.  1.
         22   -1    0    0    0    0 -0.00000000000E+00 -0.00000000000E+00 -0.22407156151E+02  0.22407156151E+02  0.00000000000E+00 0. -1.
         13    1    1    2    0    0  0.22657301212E+02 -0.21215905526E+02  0.96181204802E+01  0.32495958996E+02  0.10566000000E+00 0. -1.
        996    1    1    2    0    0 -0.22657301212E+02  0.21215905526E+02  0.67974667548E+02  0.89911197154E+02  0.50000000000E+02 0.  0.
<mgrwt>
<rscale>  0 0.58851236E+02</rscale>
<asrwt>0</asrwt>
<pdfrwt beam="1">  1       13 0.10000000E+01 0.58851236E+02</pdfrwt>
<pdfrwt beam="2">  1       22 0.22407178E+00 0.58851236E+02</pdfrwt>
<totfact> 0.36904461E-01</totfact>
</mgrwt>
</event>
<event>
 4    1  0.2505250E+000  0.5167288E+02  0.7957747E-01  0.1436522E+00
         13   -1    0    0    0    0  0.00000000000E+00  0.00000000000E+00  0.99999944179E+02  0.99999999999E+02  0.10566000000E+00 0.  1.
         22   -1    0    0    0    0 -0.00000000000E+00 -0.00000000000E+00 -0.16012850248E+02  0.16012850248E+02  0.00000000000E+00 0. -1.
         13    1    1    2    0    0  0.12302758482E+02  0.43276073043E+01 -0.42855764191E+01  0.13728196550E+02  0.10566000000E+00 0. -1.
        996    1    1    2    0    0 -0.12302758482E+02 -0.43276073043E+01  0.88272670350E+02  0.10228465370E+03  0.50000000000E+02 0.  0.
<mgrwt>
<rscale>  0 0.51672875E+02</rscale>
<asrwt>0</asrwt>
<pdfrwt beam="1">  1       13 0.10000000E+01 0.51672875E+02</pdfrwt>
<pdfrwt beam="2">  1       22 0.16012874E+00 0.51672875E+02</pdfrwt>
<totfact> 0.67388130E-01</totfact>
</mgrwt>
</event>
<event>
 4    1  0.2505250E+000  0.5840449E+02  0.7957747E-01  0.1404652E+00
         13   -1    0    0    0    0  0.00000000000E+00  0.00000000000E+00  0.99999944175E+02  0.99999999995E+02  0.10566000000E+00 0.  1.
         22   -1    0    0    0    0 -0.00000000000E+00 -0.00000000000E+00 -0.20279747004E+02  0.20279747004E+02  0.00000000000E+00 0.  1.
         13    1    1    2    0    0  0.21714843999E+02  0.20965436799E+02  0.37877273143E+02  0.48433283751E+02  0.10566000000E+00 0. -1.
        996    1    1    2    0    0 -0.21714843999E+02 -0.20965436799E+02  0.41842924028E+02  0.71846463248E+02  0.50000000000E+02 0.  0.
<mgrwt>
<rscale>  0 0.58404486E+02</rscale>
<asrwt>0</asrwt>
<pdfrwt beam="1">  1       13 0.10000000E+01 0.58404486E+02</pdfrwt>
<pdfrwt beam="2">  1       22 0.20279769E+00 0.58404486E+02</pdfrwt>
<totfact> 0.44621825E-01</totfact>
</mgrwt>
</event>
<event>
 4    1  0.2505250E+000  0.5295089E+02  0.7957747E-01  0.1430045E+00
         13   -1    0    0    0    0  0.00000000000E+00  0.00000000000E+00  0.99999944175E+02  0.99999999995E+02  0.10566000000E+00 0. -1.
         22   -1    0    0    0    0 -0.00000000000E+00 -0.00000000000E+00 -0.12539723052E+02  0.12539723052E+02  0.00000000000E+00 0.  1.
         13    1    1    2    0    0 -0.15560094194E+02  0.78536541701E+01  0.16503927945E+02  0.24003900034E+02  0.10566000000E+00 0.  1.
        996    1    1    2    0    0  0.15560094194E+02 -0.78536541701E+01  0.70956293178E+02  0.88535823013E+02  0.50000000000E+02 0.  0.
<mgrwt>
<rscale>  0 0.52950887E+02</rscale>
<asrwt>0</asrwt>
<pdfrwt beam="1">  1       13 0.10000000E+01 0.52950887E+02</pdfrwt>
<pdfrwt beam="2">  1       22 0.12539747E+00 0.52950887E+02</pdfrwt>
<totfact> 0.10064487E+00</totfact>
</mgrwt>
</event>
<event>
 4    1  0.2505250E+000  0.5236016E+02  0.7957747E-01  0.1433012E+00
         13   -1    0    0    0    0  0.00000000000E+00  0.00000000000E+00  0.99999944165E+02  0.99999999986E+02  0.10566000000E+00 0.  1.
         22   -1    0    0    0    0 -0.00000000000E+00 -0.00000000000E+00 -0.19858491158E+02  0.19858491158E+02  0.00000000000E+00 0. -1.
         13    1    1    2    0    0 -0.12613941578E+02  0.90815457740E+01 -0.78907902459E+01  0.17431630174E+02  0.10566000000E+00 0. -1.
        996    1    1    2    0    0  0.12613941578E+02 -0.90815457740E+01  0.88032243254E+02  0.10242686097E+03  0.50000000000E+02 0.  0.
<mgrwt>
<rscale>  0 0.52360157E+02</rscale>
<asrwt>0</asrwt>
<pdfrwt beam="1">  1       13 0.10000000E+01 0.52360157E+02</pdfrwt>
<pdfrwt beam="2">  1       22 0.19858514E+00 0.52360157E+02</pdfrwt>
<totfact> 0.45940941E-01</totfact>
</mgrwt>
</event>
<event>
 4    1  0.2505250E+000  0.5446654E+02  0.7957747E-01  0.1422639E+00
         13   -1    0    0    0    0  0.00000000000E+00  0.00000000000E+00  0.99999944184E+02  0.10000000000E+03  0.10566000000E+00 0.  1.
         22   -1    0    0    0    0 -0.00000000000E+00 -0.00000000000E+00 -0.19944933212E+02  0.19944933212E+02  0.00000000000E+00 0. -1.
         13    1    1    2    0    0 -0.89856056443E+01 -0.19643386463E+02 -0.17438566136E+01  0.21671546794E+02  0.10566000000E+00 0. -1.
        996    1    1    2    0    0  0.89856056443E+01  0.19643386463E+02  0.81798867586E+02  0.98273386422E+02  0.50000000000E+02 0.  0.
<mgrwt>
<rscale>  0 0.54466538E+02</rscale>
<asrwt>0</asrwt>
<pdfrwt beam="1">  1       13 0.10000000E+01 0.54466538E+02</pdfrwt>
<pdfrwt beam="2">  1       22 0.19944956E+00 0.54466538E+02</pdfrwt>
<totfact> 0.45738831E-01</totfact>
</mgrwt>
</event>
<event>
 4    1  0.2505250E+000  0.5145120E+02  0.7957747E-01  0.1437668E+00
         13   -1    0    0    0    0  0.00000000000E+00  0.00000000000E+00  0.99999944174E+02  0.99999999994E+02  0.10566000000E+00 0. -1.
         22   -1    0    0    0    0 -0.00000000000E+00 -0.00000000000E+00 -0.35615381310E+02  0.35615381310E+02  0.00000000000E+00 0.  1.
         13    1    1    2    0    0  0.90528062338E+01  0.80791255542E+01 -0.27638853692E+02  0.30185144821E+02  0.10566000000E+00 0.  1.
        996    1    1    2    0    0 -0.90528062338E+01 -0.80791255542E+01  0.92023416555E+02  0.10543023648E+03  0.50000000000E+02 0.  0.
<mgrwt>
<rscale>  0 0.51451196E+02</rscale>
<asrwt>0</asrwt>
<pdfrwt beam="1">  1       13 0.10000000E+01 0.51451196E+02</pdfrwt>
<pdfrwt beam="2">  1       22 0.35615399E+00 0.51451196E+02</pdfrwt>
<totfact> 0.15235549E-01</totfact>
</mgrwt>
</event>
<event>
 4    1  0.2505250E+000  0.5570611E+02  0.7957747E-01  0.1416789E+00
         13   -1    0    0    0    0  0.00000000000E+00  0.00000000000E+00  0.99999944170E+02  0.99999999990E+02  0.10566000000E+00 0.  1.
         22   -1    0    0    0    0 -0.00000000000E+00 -0.00000000000E+00 -0.19192832683E+02  0.19192832683E+02  0.00000000000E+00 0. -1.
         13    1    1    2    0    0  0.75387665630E+01 -0.23373872152E+02  0.49088806793E+01  0.25045542003E+02  0.10566000000E+00 0. -1.
        996    1    1    2    0    0 -0.75387665630E+01  0.23373872152E+02  0.75898230808E+02  0.94147290670E+02  0.50000000000E+02 0.  0.
<mgrwt>
<rscale>  0 0.55706112E+02</rscale>
<asrwt>0</asrwt>
<pdfrwt beam="1">  1       13 0.10000000E+01 0.55706112E+02</pdfrwt>
<pdfrwt beam="2">  1       22 0.19192855E+00 0.55706112E+02</pdfrwt>
<totfact> 0.49220142E-01</totfact>
</mgrwt>
</event>
<event>
 4    1  0.2505250E+000  0.5130342E+02  0.7957747E-01  0.1438435E+00
         13   -1    0    0    0    0  0.00000000000E+00  0.00000000000E+00  0.99999944176E+02  0.99999999996E+02  0.10566000000E+00 0.  1.
         22   -1    0    0    0    0 -0.00000000000E+00 -0.00000000000E+00 -0.10337514299E+02  0.10337514299E+02  0.00000000000E+00 0.  1.
         13    1    1    2    0    0  0.11088913340E+02 -0.30127437203E+01  0.83953512640E+01  0.14231433894E+02  0.10566000000E+00 0. -1.
        996    1    1    2    0    0 -0.11088913340E+02  0.30127437203E+01  0.81267078613E+02  0.96106080401E+02  0.50000000000E+02 0.  0.
<mgrwt>
<rscale>  0 0.51303417E+02</rscale>
<asrwt>0</asrwt>
<pdfrwt beam="1">  1       13 0.10000000E+01 0.51303417E+02</pdfrwt>
<pdfrwt beam="2">  1       22 0.10337539E+00 0.51303417E+02</pdfrwt>
<totfact> 0.13410755E+00</totfact>
</mgrwt>
</event>
<event>
 4    1  0.2505250E+000  0.5595473E+02  0.7957747E-01  0.1415637E+00
         13   -1    0    0    0    0  0.00000000000E+00  0.00000000000E+00  0.99999944185E+02  0.10000000001E+03  0.10566000000E+00 0.  1.
         22   -1    0    0    0    0 -0.00000000000E+00 -0.00000000000E+00 -0.66886052958E+02  0.66886052958E+02  0.00000000000E+00 0. -1.
         13    1    1    2    0    0  0.10545861099E+02 -0.22797304247E+02 -0.56162532280E+02  0.61523763404E+02  0.10566000000E+00 0. -1.
        996    1    1    2    0    0 -0.10545861099E+02  0.22797304247E+02  0.89276423506E+02  0.10536228956E+03  0.50000000000E+02 0.  0.
<mgrwt>
<rscale>  0 0.55954734E+02</rscale>
<asrwt>0</asrwt>
<pdfrwt beam="1">  1       13 0.10000000E+01 0.55954734E+02</pdfrwt>
<pdfrwt beam="2">  1       22 0.66886062E+00 0.55954734E+02</pdfrwt>
<totfact> 0.86484614E-02</totfact>
</mgrwt>
</event>
<event>
 4    1  0.2505250E+000  0.5359164E+02  0.7957747E-01  0.1426879E+00
         13   -1    0    0    0    0  0.00000000000E+00  0.00000000000E+00  0.99999944174E+02  0.99999999994E+02  0.10566000000E+00 0. -1.
         22   -1    0    0    0    0 -0.00000000000E+00 -0.00000000000E+00 -0.13841619170E+02  0.13841619170E+02  0.00000000000E+00 0.  1.
         13    1    1    2    0    0 -0.18825762601E+02 -0.42017095418E+01  0.13444090100E+02  0.23512091001E+02  0.10566000000E+00 0.  1.
        996    1    1    2    0    0  0.18825762601E+02  0.42017095418E+01  0.72714234904E+02  0.90329528163E+02  0.50000000000E+02 0.  0.
<mgrwt>
<rscale>  0 0.53591638E+02</rscale>
<asrwt>0</asrwt>
<pdfrwt beam="1">  1       13 0.10000000E+01 0.53591638E+02</pdfrwt>
<pdfrwt beam="2">  1       22 0.13841643E+00 0.53591638E+02</pdfrwt>
<totfact> 0.86177937E-01</totfact>
</mgrwt>
</event>
<event>
 4    1  0.2505250E+000  0.5256360E+02  0.7957747E-01  0.1431985E+00
         13   -1    0    0    0    0  0.00000000000E+00  0.00000000000E+00  0.99999944186E+02  0.10000000001E+03  0.10566000000E+00 0. -1.
         22   -1    0    0    0    0 -0.00000000000E+00 -0.00000000000E+00 -0.57909168141E+02  0.57909168141E+02  0.00000000000E+00 0.  1.
         13    1    1    2    0    0 -0.81784034276E+01  0.14001639021E+02 -0.49620332823E+02  0.52202689312E+02  0.10566000000E+00 0.  1.
        996    1    1    2    0    0  0.81784034276E+01 -0.14001639021E+02  0.91711108868E+02  0.10570647883E+03  0.50000000000E+02 0.  0.
<mgrwt>
<rscale>  0 0.52563601E+02</rscale>
<asrwt>0</asrwt>
<pdfrwt beam="1">  1       13 0.10000000E+01 0.52563601E+02</pdfrwt>
<pdfrwt beam="2">  1       22 0.57909180E+00 0.52563601E+02</pdfrwt>
<totfact> 0.58179836E-02</totfact>
</mgrwt>
</event>
<event>
 4    1  0.2505250E+000  0.5128673E+02  0.7957747E-01  0.1438522E+00
         13   -1    0    0    0    0  0.00000000000E+00  0.00000000000E+00  0.99999944180E+02  0.10000000000E+03  0.10566000000E+00 0. -1.
         22   -1    0    0    0    0 -0.00000000000E+00 -0.00000000000E+00 -0.10482646906E+02  0.10482646906E+02  0.00000000000E+00 0. -1.
         13    1    1    2    0    0 -0.90624425425E+01  0.69427098442E+01  0.72054239026E+01  0.13500310458E+02  0.10566000000E+00 0.  1.
        996    1    1    2    0    0  0.90624425425E+01 -0.69427098442E+01  0.82311873372E+02  0.96982336447E+02  0.50000000000E+02 0.  0.
<mgrwt>
<rscale>  0 0.51286734E+02</rscale>
<asrwt>0</asrwt>
<pdfrwt beam="1">  1       13 0.10000000E+01 0.51286734E+02</pdfrwt>
<pdfrwt beam="2">  1       22 0.10482672E+00 0.51286734E+02</pdfrwt>
<totfact> 0.13139290E+00</totfact>
</mgrwt>
</event>
<event>
 4    1  0.2505250E+000  0.5485908E+02  0.7957747E-01  0.1420766E+00
         13   -1    0    0    0    0  0.00000000000E+00  0.00000000000E+00  0.99999944189E+02  0.10000000001E+03  0.10566000000E+00 0.  1.
         22   -1    0    0    0    0 -0.00000000000E+00 -0.00000000000E+00 -0.24892032506E+02  0.24892032506E+02  0.00000000000E+00 0. -1.
         13    1    1    2    0    0 -0.19316110781E+02  0.11679342758E+02 -0.91435319894E+01  0.24354353291E+02  0.10566000000E+00 0. -1.
        996    1    1    2    0    0  0.19316110781E+02 -0.11679342758E+02  0.84251443672E+02  0.10053767922E+03  0.50000000000E+02 0.  0.
<mgrwt>
<rscale>  0 0.54859085E+02</rscale>
<asrwt>0</asrwt>
<pdfrwt beam="1">  1       13 0.10000000E+01 0.54859085E+02</pdfrwt>
<pdfrwt beam="2">  1       22 0.24892053E+00 0.54859085E+02</pdfrwt>
<totfact> 0.29861735E-01</totfact>
</mgrwt>
</event>
<event>
 4    1  0.2505250E+000  0.5114040E+02  0.7957747E-01  0.1439286E+00
         13   -1    0    0    0    0  0.00000000000E+00  0.00000000000E+00  0.99999944177E+02  0.99999999997E+02  0.10566000000E+00 0. -1.
         22   -1    0    0    0    0 -0.00000000000E+00 -0.00000000000E+00 -0.26367596385E+02  0.26367596385E+02  0.00000000000E+00 0.  1.
         13    1    1    2    0    0 -0.99682758638E+01 -0.39967266533E+01 -0.18270843716E+02  0.21193754782E+02  0.10566000000E+00 0.  1.
        996    1    1    2    0    0  0.99682758638E+01  0.39967266533E+01  0.91903191508E+02  0.10517384160E+03  0.50000000000E+02 0.  0.
<mgrwt>
<rscale>  0 0.51140398E+02</rscale>
<asrwt>0</asrwt>
<pdfrwt beam="1">  1       13 0.10000000E+01 0.51140398E+02</pdfrwt>
<pdfrwt beam="2">  1       22 0.26367617E+00 0.51140398E+02</pdfrwt>
<totfact> 0.26512577E-01</totfact>
</mgrwt>
</event>
<event>
 4    1  0.2505250E+000  0.5123233E+02  0.7957747E-01  0.1438806E+00
         13   -1    0    0    0    0  0.00000000000E+00  0.00000000000E+00  0.99999944166E+02  0.99999999986E+02  0.10566000000E+00 0. -1.
         22   -1    0    0    0    0 -0.00000000000E+00 -0.00000000000E+00 -0.20938640107E+02  0.20938640107E+02  0.00000000000E+00 0.  1.
         13    1    1    2    0    0  0.85522402620E+01  0.71840532217E+01 -0.12037796902E+02  0.16421667165E+02  0.10566000000E+00 0.  1.
        996    1    1    2    0    0 -0.85522402620E+01 -0.71840532217E+01  0.91099100961E+02  0.10451697293E+03  0.50000000000E+02 0.  0.
<mgrwt>
<rscale>  0 0.51232328E+02</rscale>
<asrwt>0</asrwt>
<pdfrwt beam="1">  1       13 0.10000000E+01 0.51232328E+02</pdfrwt>
<pdfrwt beam="2">  1       22 0.20938662E+00 0.51232328E+02</pdfrwt>
<totfact> 0.41508291E-01</totfact>
</mgrwt>
</event>
<event>
 4    1  0.2505250E+000  0.5114642E+02  0.7957747E-01  0.1439254E+00
         13   -1    0    0    0    0  0.00000000000E+00  0.00000000000E+00  0.99999944178E+02  0.99999999999E+02  0.10566000000E+00 0. -1.
         22   -1    0    0    0    0 -0.00000000000E+00 -0.00000000000E+00 -0.11655020316E+02  0.11655020316E+02  0.00000000000E+00 0. -1.
         13    1    1    2    0    0  0.89592629341E+01  0.59739477237E+01  0.15064444888E+01  0.10873683036E+02  0.10566000000E+00 0.  1.
        996    1    1    2    0    0 -0.89592629341E+01 -0.59739477237E+01  0.86838479374E+02  0.10078133728E+03  0.50000000000E+02 0.  0.
<mgrwt>
<rscale>  0 0.51146422E+02</rscale>
<asrwt>0</asrwt>
<pdfrwt beam="1">  1       13 0.10000000E+01 0.51146422E+02</pdfrwt>
<pdfrwt beam="2">  1       22 0.11655045E+00 0.51146422E+02</pdfrwt>
<totfact> 0.11215950E+00</totfact>
</mgrwt>
</event>
<event>
 4    1  0.2505250E+000  0.5197712E+02  0.7957747E-01  0.1434960E+00
         13   -1    0    0    0    0  0.00000000000E+00  0.00000000000E+00  0.99999944175E+02  0.99999999995E+02  0.10566000000E+00 0.  1.
         22   -1    0    0    0    0 -0.00000000000E+00 -0.00000000000E+00 -0.11969632127E+02  0.11969632127E+02  0.00000000000E+00 0.  1.
         13    1    1    2    0    0  0.79583538010E+01  0.11759487210E+02  0.73321195133E+01  0.15980991060E+02  0.10566000000E+00 0. -1.
        996    1    1    2    0    0 -0.79583538010E+01 -0.11759487210E+02  0.80698192535E+02  0.95988641063E+02  0.50000000000E+02 0.  0.
<mgrwt>
<rscale>  0 0.51977119E+02</rscale>
<asrwt>0</asrwt>
<pdfrwt beam="1">  1       13 0.10000000E+01 0.51977119E+02</pdfrwt>
<pdfrwt beam="2">  1       22 0.11969657E+00 0.51977119E+02</pdfrwt>
<totfact> 0.10790628E+00</totfact>
</mgrwt>
</event>
<event>
 4    1  0.2505250E+000  0.5207048E+02  0.7957747E-01  0.1434483E+00
         13   -1    0    0    0    0  0.00000000000E+00  0.00000000000E+00  0.99999944179E+02  0.99999999999E+02  0.10566000000E+00 0. -1.
         22   -1    0    0    0    0 -0.00000000000E+00 -0.00000000000E+00 -0.15500774860E+02  0.15500774860E+02  0.00000000000E+00 0.  1.
         13    1    1    2    0    0 -0.12828602834E+01  0.14480631803E+02 -0.18619204880E+01  0.14656477744E+02  0.10566000000E+00 0.  1.
        996    1    1    2    0    0  0.12828602834E+01 -0.14480631803E+02  0.86361089807E+02  0.10084429711E+03  0.50000000000E+02 0.  0.
<mgrwt>
<rscale>  0 0.52070476E+02</rscale>
<asrwt>0</asrwt>
<pdfrwt beam="1">  1       13 0.10000000E+01 0.52070476E+02</pdfrwt>
<pdfrwt beam="2">  1       22 0.15500798E+00 0.52070476E+02</pdfrwt>
<totfact> 0.71270293E-01</totfact>
</mgrwt>
</event>
<event>
 4    1  0.2505250E+000  0.5257948E+02  0.7957747E-01  0.1431905E+00
         13   -1    0    0    0    0  0.00000000000E+00  0.00000000000E+00  0.99999944179E+02  0.99999999999E+02  0.10566000000E+00 0.  1.
         22   -1    0    0    0    0 -0.00000000000E+00 -0.00000000000E+00 -0.28969389729E+02  0.28969389729E+02  0.00000000000E+00 0. -1.
         13    1    1    2    0    0 -0.15585021099E+02 -0.46592181568E+01 -0.18813341704E+02  0.24870749619E+02  0.10566000000E+00 0. -1.
        996    1    1    2    0    0  0.15585021099E+02  0.46592181568E+01  0.89843896154E+02  0.10409864011E+03  0.50000000000E+02 0.  0.
<mgrwt>
<rscale>  0 0.52579475E+02</rscale>
<asrwt>0</asrwt>
<pdfrwt beam="1">  1       13 0.10000000E+01 0.52579475E+02</pdfrwt>
<pdfrwt beam="2">  1       22 0.28969410E+00 0.52579475E+02</pdfrwt>
<totfact> 0.22133763E-01</totfact>
</mgrwt>
</event>
<event>
 4    1  0.2505250E+000  0.5521228E+02  0.7957747E-01  0.1419098E+00
         13   -1    0    0    0    0  0.00000000000E+00  0.00000000000E+00  0.99999944176E+02  0.99999999996E+02  0.10566000000E+00 0. -1.
         22   -1    0    0    0    0 -0.00000000000E+00 -0.00000000000E+00 -0.35030219666E+02  0.35030219666E+02  0.00000000000E+00 0.  1.
         13    1    1    2    0    0  0.72163646910E+01  0.22278246342E+02 -0.21924050925E+02  0.32079142015E+02  0.10566000000E+00 0.  1.
        996    1    1    2    0    0 -0.72163646910E+01 -0.22278246342E+02  0.86893775435E+02  0.10295107765E+03  0.50000000000E+02 0.  0.
<mgrwt>
<rscale>  0 0.55212283E+02</rscale>
<asrwt>0</asrwt>
<pdfrwt beam="1">  1       13 0.10000000E+01 0.55212283E+02</pdfrwt>
<pdfrwt beam="2">  1       22 0.35030238E+00 0.55212283E+02</pdfrwt>
<totfact> 0.15741430E-01</totfact>
</mgrwt>
</event>
<event>
 4    1  0.2505250E+000  0.5259387E+02  0.7957747E-01  0.1431833E+00
         13   -1    0    0    0    0  0.00000000000E+00  0.00000000000E+00  0.99999944176E+02  0.99999999996E+02  0.10566000000E+00 0. -1.
         22   -1    0    0    0    0 -0.00000000000E+00 -0.00000000000E+00 -0.20205095300E+02  0.20205095300E+02  0.00000000000E+00 0. -1.
         13    1    1    2    0    0 -0.16047242268E+02  0.29326983659E+01 -0.77624235241E+01  0.18066020235E+02  0.10566000000E+00 0.  1.
        996    1    1    2    0    0  0.16047242268E+02 -0.29326983659E+01  0.87557272401E+02  0.10213907506E+03  0.50000000000E+02 0.  0.
<mgrwt>
<rscale>  0 0.52593866E+02</rscale>
<asrwt>0</asrwt>
<pdfrwt beam="1">  1       13 0.10000000E+01 0.52593866E+02</pdfrwt>
<pdfrwt beam="2">  1       22 0.20205118E+00 0.52593866E+02</pdfrwt>
<totfact> 0.44499127E-01</totfact>
</mgrwt>
</event>
<event>
 4    1  0.2505250E+000  0.5195435E+02  0.7957747E-01  0.1435077E+00
         13   -1    0    0    0    0  0.00000000000E+00  0.00000000000E+00  0.99999944174E+02  0.99999999995E+02  0.10566000000E+00 0.  1.
         22   -1    0    0    0    0 -0.00000000000E+00 -0.00000000000E+00 -0.12194972396E+02  0.12194972396E+02  0.00000000000E+00 0.  1.
         13    1    1    2    0    0 -0.13928355788E+02 -0.22924667582E+01  0.61160148571E+01  0.15384124953E+02  0.10566000000E+00 0. -1.
        996    1    1    2    0    0  0.13928355788E+02  0.22924667582E+01  0.81688956921E+02  0.96810847438E+02  0.50000000000E+02 0.  0.
<mgrwt>
<rscale>  0 0.51954350E+02</rscale>
<asrwt>0</asrwt>
<pdfrwt beam="1">  1       13 0.10000000E+01 0.51954350E+02</pdfrwt>
<pdfrwt beam="2">  1       22 0.12194997E+00 0.51954350E+02</pdfrwt>
<totfact> 0.10485477E+00</totfact>
</mgrwt>
</event>
<event>
 4    1  0.2505250E+000  0.5113217E+02  0.7957747E-01  0.1439329E+00
         13   -1    0    0    0    0  0.00000000000E+00  0.00000000000E+00  0.99999944174E+02  0.99999999995E+02  0.10566000000E+00 0. -1.
         22   -1    0    0    0    0 -0.00000000000E+00 -0.00000000000E+00 -0.16132917209E+02  0.16132917209E+02  0.00000000000E+00 0. -1.
         13    1    1    2    0    0  0.87062202756E+01 -0.62210007204E+01 -0.63428377150E+01  0.12439528760E+02  0.10566000000E+00 0.  1.
        996    1    1    2    0    0 -0.87062202756E+01  0.62210007204E+01  0.90209864680E+02  0.10369338844E+03  0.50000000000E+02 0.  0.
<mgrwt>
<rscale>  0 0.51132173E+02</rscale>
<asrwt>0</asrwt>
<pdfrwt beam="1">  1       13 0.10000000E+01 0.51132173E+02</pdfrwt>
<pdfrwt beam="2">  1       22 0.16132941E+00 0.51132173E+02</pdfrwt>
<totfact> 0.66459459E-01</totfact>
</mgrwt>
</event>
<event>
 4    1  0.2505250E+000  0.5120956E+02  0.7957747E-01  0.1438925E+00
         13   -1    0    0    0    0  0.00000000000E+00  0.00000000000E+00  0.99999944169E+02  0.99999999989E+02  0.10566000000E+00 0. -1.
         22   -1    0    0    0    0 -0.00000000000E+00 -0.00000000000E+00 -0.10923958139E+02  0.10923958139E+02  0.00000000000E+00 0. -1.
         13    1    1    2    0    0  0.11060758578E+02 -0.28032526453E+00  0.42785026182E+01  0.11863208304E+02  0.10566000000E+00 0.  1.
        996    1    1    2    0    0 -0.11060758578E+02  0.28032526453E+00  0.84797483411E+02  0.99060749823E+02  0.50000000000E+02 0.  0.
<mgrwt>
<rscale>  0 0.51209559E+02</rscale>
<asrwt>0</asrwt>
<pdfrwt beam="1">  1       13 0.10000000E+01 0.51209559E+02</pdfrwt>
<pdfrwt beam="2">  1       22 0.10923983E+00 0.51209559E+02</pdfrwt>
<totfact> 0.12361446E+00</totfact>
</mgrwt>
</event>
<event>
 4    1  0.2505250E+000  0.5110117E+02  0.7957747E-01  0.1439491E+00
         13   -1    0    0    0    0  0.00000000000E+00  0.00000000000E+00  0.99999944183E+02  0.10000000000E+03  0.10566000000E+00 0. -1.
         22   -1    0    0    0    0 -0.00000000000E+00 -0.00000000000E+00 -0.63620416351E+02  0.63620416351E+02  0.00000000000E+00 0.  1.
         13    1    1    2    0    0  0.10289533267E+02 -0.23356698593E+01 -0.56572291703E+02  0.57547938287E+02  0.10566000000E+00 0.  1.
        996    1    1    2    0    0 -0.10289533267E+02  0.23356698593E+01  0.92951819534E+02  0.10607247807E+03  0.50000000000E+02 0.  0.
<mgrwt>
<rscale>  0 0.51101173E+02</rscale>
<asrwt>0</asrwt>
<pdfrwt beam="1">  1       13 0.10000000E+01 0.51101173E+02</pdfrwt>
<pdfrwt beam="2">  1       22 0.63620427E+00 0.51101173E+02</pdfrwt>
<totfact> 0.81783896E-02</totfact>
</mgrwt>
</event>
<event>
 4    1  0.2505250E+000  0.5122712E+02  0.7957747E-01  0.1438833E+00
         13   -1    0    0    0    0  0.00000000000E+00  0.00000000000E+00  0.99999944175E+02  0.99999999996E+02  0.10566000000E+00 0.  1.
         22   -1    0    0    0    0 -0.00000000000E+00 -0.00000000000E+00 -0.10270934543E+02  0.10270934543E+02  0.00000000000E+00 0.  1.
         13    1    1    2    0    0  0.26787072336E+01  0.10818629168E+02  0.76529828401E+01  0.13520263308E+02  0.10566000000E+00 0. -1.
        996    1    1    2    0    0 -0.26787072336E+01 -0.10818629168E+02  0.82076026792E+02  0.96750671231E+02  0.50000000000E+02 0.  0.
<mgrwt>
<rscale>  0 0.51227124E+02</rscale>
<asrwt>0</asrwt>
<pdfrwt beam="1">  1       13 0.10000000E+01 0.51227124E+02</pdfrwt>
<pdfrwt beam="2">  1       22 0.10270960E+00 0.51227124E+02</pdfrwt>
<totfact> 0.13535365E+00</totfact>
</mgrwt>
</event>
<event>
 4    1  0.2505250E+000  0.5169289E+02  0.7957747E-01  0.1436419E+00
         13   -1    0    0    0    0  0.00000000000E+00  0.00000000000E+00  0.99999944190E+02  0.10000000001E+03  0.10566000000E+00 0.  1.
         22   -1    0    0    0    0 -0.00000000000E+00 -0.00000000000E+00 -0.85876098909E+02  0.85876098909E+02  0.00000000000E+00 0. -1.
         13    1    1    2    0    0 -0.46089583064E+01  0.12284650345E+02 -0.78615480754E+02  0.79702949186E+02  0.10566000000E+00 0. -1.
        996    1    1    2    0    0  0.46089583064E+01 -0.12284650345E+02  0.92739326035E+02  0.10617314973E+03  0.50000000000E+02 0.  0.
<mgrwt>
<rscale>  0 0.51692892E+02</rscale>
<asrwt>0</asrwt>
<pdfrwt beam="1">  1       13 0.10000000E+01 0.51692892E+02</pdfrwt>
<pdfrwt beam="2">  1       22 0.85876103E+00 0.51692892E+02</pdfrwt>
<totfact> 0.17290175E-02</totfact>
</mgrwt>
</event>
<event>
 4    1  0.2505250E+000  0.5164396E+02  0.7957747E-01  0.1436671E+00
         13   -1    0    0    0    0  0.00000000000E+00  0.00000000000E+00  0.99999944181E+02  0.10000000000E+03  0.10566000000E+00 0.  1.
         22   -1    0    0    0    0 -0.00000000000E+00 -0.00000000000E+00 -0.14511189806E+02  0.14511189806E+02  0.00000000000E+00 0.  1.
         13    1    1    2    0    0 -0.12829754002E+02  0.15799904344E+01 -0.18373476042E+01  0.13057027525E+02  0.10566000000E+00 0. -1.
        996    1    1    2    0    0  0.12829754002E+02 -0.15799904344E+01  0.87326101980E+02  0.10145416228E+03  0.50000000000E+02 0.  0.
<mgrwt>
<rscale>  0 0.51643963E+02</rscale>
<asrwt>0</asrwt>
<pdfrwt beam="1">  1       13 0.10000000E+01 0.51643963E+02</pdfrwt>
<pdfrwt beam="2">  1       22 0.14511214E+00 0.51643963E+02</pdfrwt>
<totfact> 0.79475003E-01</totfact>
</mgrwt>
</event>
<event>
 4    1  0.2505250E+000  0.5556302E+02  0.7957747E-01  0.1417455E+00
         13   -1    0    0    0    0  0.00000000000E+00  0.00000000000E+00  0.99999944173E+02  0.99999999993E+02  0.10566000000E+00 0. -1.
         22   -1    0    0    0    0 -0.00000000000E+00 -0.00000000000E+00 -0.18894245411E+02  0.18894245411E+02  0.00000000000E+00 0.  1.
         13    1    1    2    0    0 -0.22939327099E+02 -0.78125751193E+01  0.51324286646E+01  0.24770992023E+02  0.10566000000E+00 0.  1.
        996    1    1    2    0    0  0.22939327099E+02  0.78125751193E+01  0.75973270098E+02  0.94123253381E+02  0.50000000000E+02 0.  0.
<mgrwt>
<rscale>  0 0.55563019E+02</rscale>
<asrwt>0</asrwt>
<pdfrwt beam="1">  1       13 0.10000000E+01 0.55563019E+02</pdfrwt>
<pdfrwt beam="2">  1       22 0.18894268E+00 0.55563019E+02</pdfrwt>
<totfact> 0.50644839E-01</totfact>
</mgrwt>
</event>
<event>
 4    1  0.2505250E+000  0.5120003E+02  0.7957747E-01  0.1438974E+00
         13   -1    0    0    0    0  0.00000000000E+00  0.00000000000E+00  0.99999944180E+02  0.10000000000E+03  0.10566000000E+00 0. -1.
         22   -1    0    0    0    0 -0.00000000000E+00 -0.00000000000E+00 -0.11012802653E+02  0.11012802653E+02  0.00000000000E+00 0. -1.
         13    1    1    2    0    0 -0.10568626919E+00  0.11019613492E+02  0.34620751410E+02  0.36332501199E+02  0.10566000000E+00 0.  1.
        996    1    1    2    0    0  0.10568626919E+00 -0.11019613492E+02  0.54366390116E+02  0.74680301455E+02  0.50000000000E+02 0.  0.
<mgrwt>
<rscale>  0 0.51200030E+02</rscale>
<asrwt>0</asrwt>
<pdfrwt beam="1">  1       13 0.10000000E+01 0.51200030E+02</pdfrwt>
<pdfrwt beam="2">  1       22 0.11012827E+00 0.51200030E+02</pdfrwt>
<totfact> 0.12213274E+00</totfact>
</mgrwt>
</event>
<event>
 4    1  0.2505250E+000  0.5107005E+02  0.7957747E-01  0.1439654E+00
         13   -1    0    0    0    0  0.00000000000E+00  0.00000000000E+00  0.99999944177E+02  0.99999999998E+02  0.10566000000E+00 0.  1.
         22   -1    0    0    0    0 -0.00000000000E+00 -0.00000000000E+00 -0.10887070445E+02  0.10887070445E+02  0.00000000000E+00 0.  1.
         13    1    1    2    0    0  0.15219678235E+01 -0.10287546311E+02  0.30947579867E+01  0.10850745882E+02  0.10566000000E+00 0. -1.
        996    1    1    2    0    0 -0.15219678235E+01  0.10287546311E+02  0.86018115746E+02  0.10003632456E+03  0.50000000000E+02 0.  0.
<mgrwt>
<rscale>  0 0.51070050E+02</rscale>
<asrwt>0</asrwt>
<pdfrwt beam="1">  1       13 0.10000000E+01 0.51070050E+02</pdfrwt>
<pdfrwt beam="2">  1       22 0.10887095E+00 0.51070050E+02</pdfrwt>
<totfact> 0.12419538E+00</totfact>
</mgrwt>
</event>
<event>
 4    1  0.2505250E+000  0.5118169E+02  0.7957747E-01  0.1439070E+00
         13   -1    0    0    0    0  0.00000000000E+00  0.00000000000E+00  0.99999944180E+02  0.10000000000E+03  0.10566000000E+00 0. -1.
         22   -1    0    0    0    0 -0.00000000000E+00 -0.00000000000E+00 -0.12880982668E+02  0.12880982668E+02  0.00000000000E+00 0. -1.
         13    1    1    2    0    0  0.24772680684E+01  0.10650267365E+02 -0.99562041135E+00  0.10980322220E+02  0.10566000000E+00 0.  1.
        996    1    1    2    0    0 -0.24772680684E+01 -0.10650267365E+02  0.88114581924E+02  0.10190066045E+03  0.50000000000E+02 0.  0.
<mgrwt>
<rscale>  0 0.51181687E+02</rscale>
<asrwt>0</asrwt>
<pdfrwt beam="1">  1       13 0.10000000E+01 0.51181687E+02</pdfrwt>
<pdfrwt beam="2">  1       22 0.12881007E+00 0.51181687E+02</pdfrwt>
<totfact> 0.96137116E-01</totfact>
</mgrwt>
</event>
<event>
 4    1  0.2505250E+000  0.5182482E+02  0.7957747E-01  0.1435740E+00
         13   -1    0    0    0    0  0.00000000000E+00  0.00000000000E+00  0.99999944180E+02  0.10000000000E+03  0.10566000000E+00 0.  1.
         22   -1    0    0    0    0 -0.00000000000E+00 -0.00000000000E+00 -0.22064784094E+02  0.22064784094E+02  0.00000000000E+00 0. -1.
         13    1    1    2    0    0 -0.67522826990E+01 -0.11841398950E+02 -0.12068812584E+02  0.18206577162E+02  0.10566000000E+00 0. -1.
        996    1    1    2    0    0  0.67522826990E+01  0.11841398950E+02  0.90003972670E+02  0.10385820693E+03  0.50000000000E+02 0.  0.
<mgrwt>
<rscale>  0 0.51824821E+02</rscale>
<asrwt>0</asrwt>
<pdfrwt beam="1">  1       13 0.10000000E+01 0.51824821E+02</pdfrwt>
<pdfrwt beam="2">  1       22 0.22064806E+00 0.51824821E+02</pdfrwt>
<totfact> 0.37596496E-01</totfact>
</mgrwt>
</event>
<event>
 4    1  0.2505250E+000  0.5257590E+02  0.7957747E-01  0.1431923E+00
         13   -1    0    0    0    0  0.00000000000E+00  0.00000000000E+00  0.99999944170E+02  0.99999999990E+02  0.10566000000E+00 0.  1.
         22   -1    0    0    0    0 -0.00000000000E+00 -0.00000000000E+00 -0.30856241154E+02  0.30856241154E+02  0.00000000000E+00 0. -1.
         13    1    1    2    0    0  0.14443966996E+02  0.74563760918E+01 -0.20966294434E+02  0.26529651210E+02  0.10566000000E+00 0. -1.
        996    1    1    2    0    0 -0.14443966996E+02 -0.74563760918E+01  0.90109997449E+02  0.10432658993E+03  0.50000000000E+02 0.  0.
<mgrwt>
<rscale>  0 0.52575904E+02</rscale>
<asrwt>0</asrwt>
<pdfrwt beam="1">  1       13 0.10000000E+01 0.52575904E+02</pdfrwt>
<pdfrwt beam="2">  1       22 0.30856260E+00 0.52575904E+02</pdfrwt>
<totfact> 0.19666964E-01</totfact>
</mgrwt>
</event>
<event>
 4    1  0.2505250E+000  0.5273884E+02  0.7957747E-01  0.1431105E+00
         13   -1    0    0    0    0  0.00000000000E+00  0.00000000000E+00  0.99999944177E+02  0.99999999997E+02  0.10566000000E+00 0.  1.
         22   -1    0    0    0    0 -0.00000000000E+00 -0.00000000000E+00 -0.17737562615E+02  0.17737562615E+02  0.00000000000E+00 0. -1.
         13    1    1    2    0    0  0.54684870742E+01  0.15858165052E+02 -0.34249340408E+01  0.17120954614E+02  0.10566000000E+00 0. -1.
        996    1    1    2    0    0 -0.54684870742E+01 -0.15858165052E+02  0.85687315603E+02  0.10061660800E+03  0.50000000000E+02 0.  0.
<mgrwt>
<rscale>  0 0.52738845E+02</rscale>
<asrwt>0</asrwt>
<pdfrwt beam="1">  1       13 0.10000000E+01 0.52738845E+02</pdfrwt>
<pdfrwt beam="2">  1       22 0.17737586E+00 0.52738845E+02</pdfrwt>
<totfact> 0.56480698E-01</totfact>
</mgrwt>
</event>
<event>
 4    1  0.2505250E+000  0.5123889E+02  0.7957747E-01  0.1438772E+00
         13   -1    0    0    0    0  0.00000000000E+00  0.00000000000E+00  0.99999944184E+02  0.10000000000E+03  0.10566000000E+00 0. -1.
         22   -1    0    0    0    0 -0.00000000000E+00 -0.00000000000E+00 -0.16130761947E+02  0.16130761947E+02  0.00000000000E+00 0.  1.
         13    1    1    2    0    0 -0.77413585366E+01  0.80928995248E+01 -0.59814265293E+01  0.12696939870E+02  0.10566000000E+00 0.  1.
        996    1    1    2    0    0  0.77413585366E+01 -0.80928995248E+01  0.89850608766E+02  0.10343382208E+03  0.50000000000E+02 0.  0.
<mgrwt>
<rscale>  0 0.51238888E+02</rscale>
<asrwt>0</asrwt>
<pdfrwt beam="1">  1       13 0.10000000E+01 0.51238888E+02</pdfrwt>
<pdfrwt beam="2">  1       22 0.16130785E+00 0.51238888E+02</pdfrwt>
<totfact> 0.66488980E-01</totfact>
</mgrwt>
</event>
<event>
 4    1  0.2505250E+000  0.5454435E+02  0.7957747E-01  0.1422266E+00
         13   -1    0    0    0    0  0.00000000000E+00  0.00000000000E+00  0.99999944173E+02  0.99999999994E+02  0.10566000000E+00 0.  1.
         22   -1    0    0    0    0 -0.00000000000E+00 -0.00000000000E+00 -0.14987296218E+02  0.14987296218E+02  0.00000000000E+00 0. -1.
         13    1    1    2    0    0  0.19006324332E+02  0.10669831364E+02  0.16085858235E+02  0.27089696660E+02  0.10566000000E+00 0. -1.
        996    1    1    2    0    0 -0.19006324332E+02 -0.10669831364E+02  0.68926789720E+02  0.87897599552E+02  0.50000000000E+02 0.  0.
<mgrwt>
<rscale>  0 0.54544346E+02</rscale>
<asrwt>0</asrwt>
<pdfrwt beam="1">  1       13 0.10000000E+01 0.54544346E+02</pdfrwt>
<pdfrwt beam="2">  1       22 0.14987320E+00 0.54544346E+02</pdfrwt>
<totfact> 0.75781791E-01</totfact>
</mgrwt>
</event>
<event>
 4    1  0.2505250E+000  0.5799656E+02  0.7957747E-01  0.1406437E+00
         13   -1    0    0    0    0  0.00000000000E+00  0.00000000000E+00  0.99999944178E+02  0.99999999998E+02  0.10566000000E+00 0.  1.
         22   -1    0    0    0    0 -0.00000000000E+00 -0.00000000000E+00 -0.24051258212E+02  0.24051258212E+02  0.00000000000E+00 0.  1.
         13    1    1    2    0    0  0.22342891271E+02 -0.19089169776E+02  0.11600894099E+01  0.29410171107E+02  0.10566000000E+00 0. -1.
        996    1    1    2    0    0 -0.22342891271E+02  0.19089169776E+02  0.74788596557E+02  0.94641087103E+02  0.50000000000E+02 0.  0.
<mgrwt>
<rscale>  0 0.57996562E+02</rscale>
<asrwt>0</asrwt>
<pdfrwt beam="1">  1       13 0.10000000E+01 0.57996562E+02</pdfrwt>
<pdfrwt beam="2">  1       22 0.24051279E+00 0.57996562E+02</pdfrwt>
<totfact> 0.32097762E-01</totfact>
</mgrwt>
</event>
<event>
 4    1  0.2505250E+000  0.5123484E+02  0.7957747E-01  0.1438793E+00
         13   -1    0    0    0    0  0.00000000000E+00  0.00000000000E+00  0.99999944178E+02  0.99999999999E+02  0.10566000000E+00 0. -1.
         22   -1    0    0    0    0 -0.00000000000E+00 -0.00000000000E+00 -0.10450078577E+02  0.10450078577E+02  0.00000000000E+00 0.  1.
         13    1    1    2    0    0  0.93366188126E+01  0.61511593314E+01  0.66909402741E+01  0.13030313034E+02  0.10566000000E+00 0.  1.
        996    1    1    2    0    0 -0.93366188126E+01 -0.61511593314E+01  0.82858925327E+02  0.97419765542E+02  0.50000000000E+02 0.  0.
<mgrwt>
<rscale>  0 0.51234844E+02</rscale>
<asrwt>0</asrwt>
<pdfrwt beam="1">  1       13 0.10000000E+01 0.51234844E+02</pdfrwt>
<pdfrwt beam="2">  1       22 0.10450104E+00 0.51234844E+02</pdfrwt>
<totfact> 0.13197734E+00</totfact>
</mgrwt>
</event>
<event>
 4    1  0.2505250E+000  0.5346335E+02  0.7957747E-01  0.1427509E+00
         13   -1    0    0    0    0  0.00000000000E+00  0.00000000000E+00  0.99999944179E+02  0.99999999999E+02  0.10566000000E+00 0.  1.
         22   -1    0    0    0    0 -0.00000000000E+00 -0.00000000000E+00 -0.13109241125E+02  0.13109241125E+02  0.00000000000E+00 0.  1.
         13    1    1    2    0    0  0.12679180979E+02 -0.14055891788E+02  0.23906278516E+02  0.30493458983E+02  0.10566000000E+00 0. -1.
        996    1    1    2    0    0 -0.12679180979E+02  0.14055891788E+02  0.62984424538E+02  0.82615782140E+02  0.50000000000E+02 0.  0.
<mgrwt>
<rscale>  0 0.53463349E+02</rscale>
<asrwt>0</asrwt>
<pdfrwt beam="1">  1       13 0.10000000E+01 0.53463349E+02</pdfrwt>
<pdfrwt beam="2">  1       22 0.13109265E+00 0.53463349E+02</pdfrwt>
<totfact> 0.93973240E-01</totfact>
</mgrwt>
</event>
<event>
 4    1  0.2505250E+000  0.5174285E+02  0.7957747E-01  0.1436162E+00
         13   -1    0    0    0    0  0.00000000000E+00  0.00000000000E+00  0.99999944170E+02  0.99999999990E+02  0.10566000000E+00 0.  1.
         22   -1    0    0    0    0 -0.00000000000E+00 -0.00000000000E+00 -0.18075955662E+02  0.18075955662E+02  0.00000000000E+00 0.  1.
         13    1    1    2    0    0  0.12670762438E+02  0.40956636488E+01 -0.71118895474E+01  0.15096781725E+02  0.10566000000E+00 0. -1.
        996    1    1    2    0    0 -0.12670762438E+02 -0.40956636488E+01  0.89035878056E+02  0.10297917393E+03  0.50000000000E+02 0.  0.
<mgrwt>
<rscale>  0 0.51742852E+02</rscale>
<asrwt>0</asrwt>
<pdfrwt beam="1">  1       13 0.10000000E+01 0.51742852E+02</pdfrwt>
<pdfrwt beam="2">  1       22 0.18075979E+00 0.51742852E+02</pdfrwt>
<totfact> 0.54500327E-01</totfact>
</mgrwt>
</event>
<event>
 4    1  0.2505250E+000  0.5340434E+02  0.7957747E-01  0.1427799E+00
         13   -1    0    0    0    0  0.00000000000E+00  0.00000000000E+00  0.99999944181E+02  0.10000000000E+03  0.10566000000E+00 0.  1.
         22   -1    0    0    0    0 -0.00000000000E+00 -0.00000000000E+00 -0.13353906825E+02  0.13353906825E+02  0.00000000000E+00 0. -1.
         13    1    1    2    0    0  0.13185206318E+02 -0.13348162536E+02  0.15156843524E+02  0.24119788108E+02  0.10566000000E+00 0. -1.
        996    1    1    2    0    0 -0.13185206318E+02  0.13348162536E+02  0.71489193832E+02  0.89234118719E+02  0.50000000000E+02 0.  0.
<mgrwt>
<rscale>  0 0.53404336E+02</rscale>
<asrwt>0</asrwt>
<pdfrwt beam="1">  1       13 0.10000000E+01 0.53404336E+02</pdfrwt>
<pdfrwt beam="2">  1       22 0.13353931E+00 0.53404336E+02</pdfrwt>
<totfact> 0.91244511E-01</totfact>
</mgrwt>
</event>
<event>
 4    1  0.2505250E+000  0.5151084E+02  0.7957747E-01  0.1437359E+00
         13   -1    0    0    0    0  0.00000000000E+00  0.00000000000E+00  0.99999944175E+02  0.99999999995E+02  0.10566000000E+00 0.  1.
         22   -1    0    0    0    0 -0.00000000000E+00 -0.00000000000E+00 -0.10447390357E+02  0.10447390357E+02  0.00000000000E+00 0.  1.
         13    1    1    2    0    0 -0.12134104405E+02  0.24758948250E+01  0.24664406394E+02  0.27599105995E+02  0.10566000000E+00 0. -1.
        996    1    1    2    0    0  0.12134104405E+02 -0.24758948250E+01  0.64888147424E+02  0.82848284357E+02  0.50000000000E+02 0.  0.
<mgrwt>
<rscale>  0 0.51510839E+02</rscale>
<asrwt>0</asrwt>
<pdfrwt beam="1">  1       13 0.10000000E+01 0.51510839E+02</pdfrwt>
<pdfrwt beam="2">  1       22 0.10447415E+00 0.51510839E+02</pdfrwt>
<totfact> 0.13211409E+00</totfact>
</mgrwt>
</event>
<event>
 4    1  0.2505250E+000  0.5172232E+02  0.7957747E-01  0.1436267E+00
         13   -1    0    0    0    0  0.00000000000E+00  0.00000000000E+00  0.99999944174E+02  0.99999999994E+02  0.10566000000E+00 0. -1.
         22   -1    0    0    0    0 -0.00000000000E+00 -0.00000000000E+00 -0.14629635935E+02  0.14629635935E+02  0.00000000000E+00 0. -1.
         13    1    1    2    0    0 -0.97764963763E+01  0.89229432749E+01 -0.17102838369E+01  0.13346723677E+02  0.10566000000E+00 0.  1.
        996    1    1    2    0    0  0.97764963763E+01 -0.89229432749E+01  0.87080592075E+02  0.10128291225E+03  0.50000000000E+02 0.  0.
<mgrwt>
<rscale>  0 0.51722324E+02</rscale>
<asrwt>0</asrwt>
<pdfrwt beam="1">  1       13 0.10000000E+01 0.51722324E+02</pdfrwt>
<pdfrwt beam="2">  1       22 0.14629660E+00 0.51722324E+02</pdfrwt>
<totfact> 0.78431596E-01</totfact>
</mgrwt>
</event>
<event>
 4    1  0.2505250E+000  0.5207088E+02  0.7957747E-01  0.1434481E+00
         13   -1    0    0    0    0  0.00000000000E+00  0.00000000000E+00  0.99999944182E+02  0.10000000000E+03  0.10566000000E+00 0.  1.
         22   -1    0    0    0    0 -0.00000000000E+00 -0.00000000000E+00 -0.14862515609E+02  0.14862515609E+02  0.00000000000E+00 0. -1.
         13    1    1    2    0    0 -0.14503915124E+02  0.10065022392E+01 -0.60003047808E+00  0.14551556662E+02  0.10566000000E+00 0. -1.
        996    1    1    2    0    0  0.14503915124E+02 -0.10065022392E+01  0.85737459051E+02  0.10031095895E+03  0.50000000000E+02 0.  0.
<mgrwt>
<rscale>  0 0.52070881E+02</rscale>
<asrwt>0</asrwt>
<pdfrwt beam="1">  1       13 0.10000000E+01 0.52070881E+02</pdfrwt>
<pdfrwt beam="2">  1       22 0.14862539E+00 0.52070881E+02</pdfrwt>
<totfact> 0.76464671E-01</totfact>
</mgrwt>
</event>
<event>
 4    1  0.2505250E+000  0.5168514E+02  0.7957747E-01  0.1436459E+00
         13   -1    0    0    0    0  0.00000000000E+00  0.00000000000E+00  0.99999944184E+02  0.10000000000E+03  0.10566000000E+00 0.  1.
         22   -1    0    0    0    0 -0.00000000000E+00 -0.00000000000E+00 -0.12073248502E+02  0.12073248502E+02  0.00000000000E+00 0.  1.
         13    1    1    2    0    0 -0.85393530534E+01  0.99213573864E+01  0.43281702139E+01  0.13787606913E+02  0.10566000000E+00 0. -1.
        996    1    1    2    0    0  0.85393530534E+01 -0.99213573864E+01  0.83598525468E+02  0.98285641593E+02  0.50000000000E+02 0.  0.
<mgrwt>
<rscale>  0 0.51685142E+02</rscale>
<asrwt>0</asrwt>
<pdfrwt beam="1">  1       13 0.10000000E+01 0.51685142E+02</pdfrwt>
<pdfrwt beam="2">  1       22 0.12073273E+00 0.51685142E+02</pdfrwt>
<totfact> 0.10642053E+00</totfact>
</mgrwt>
</event>
<event>
 4    1  0.2505250E+000  0.5128093E+02  0.7957747E-01  0.1438553E+00
         13   -1    0    0    0    0  0.00000000000E+00  0.00000000000E+00  0.99999944183E+02  0.10000000000E+03  0.10566000000E+00 0.  1.
         22   -1    0    0    0    0 -0.00000000000E+00 -0.00000000000E+00 -0.10739893657E+02  0.10739893657E+02  0.00000000000E+00 0.  1.
         13    1    1    2    0    0 -0.11159658766E+02 -0.22793175187E+01  0.57949014506E+01  0.12779879459E+02  0.10566000000E+00 0. -1.
        996    1    1    2    0    0  0.11159658766E+02  0.22793175187E+01  0.83465149075E+02  0.97960014201E+02  0.50000000000E+02 0.  0.
<mgrwt>
<rscale>  0 0.51280925E+02</rscale>
<asrwt>0</asrwt>
<pdfrwt beam="1">  1       13 0.10000000E+01 0.51280925E+02</pdfrwt>
<pdfrwt beam="2">  1       22 0.10739919E+00 0.51280925E+02</pdfrwt>
<totfact> 0.12678533E+00</totfact>
</mgrwt>
</event>
<event>
 4    1  0.2505250E+000  0.5245279E+02  0.7957747E-01  0.1432544E+00
         13   -1    0    0    0    0  0.00000000000E+00  0.00000000000E+00  0.99999944187E+02  0.10000000001E+03  0.10566000000E+00 0. -1.
         22   -1    0    0    0    0 -0.00000000000E+00 -0.00000000000E+00 -0.20015442276E+02  0.20015442276E+02  0.00000000000E+00 0.  1.
         13    1    1    2    0    0  0.13194150275E+02  0.87868869066E+01 -0.78662977164E+01  0.17697027626E+02  0.10566000000E+00 0.  1.
        996    1    1    2    0    0 -0.13194150275E+02 -0.87868869066E+01  0.87850799627E+02  0.10231841466E+03  0.50000000000E+02 0.  0.
<mgrwt>
<rscale>  0 0.52452788E+02</rscale>
<asrwt>0</asrwt>
<pdfrwt beam="1">  1       13 0.10000000E+01 0.52452788E+02</pdfrwt>
<pdfrwt beam="2">  1       22 0.20015465E+00 0.52452788E+02</pdfrwt>
<totfact> 0.45279309E-01</totfact>
</mgrwt>
</event>
<event>
 4    1  0.2505250E+000  0.5185486E+02  0.7957747E-01  0.1435586E+00
         13   -1    0    0    0    0  0.00000000000E+00  0.00000000000E+00  0.99999944174E+02  0.99999999994E+02  0.10566000000E+00 0. -1.
         22   -1    0    0    0    0 -0.00000000000E+00 -0.00000000000E+00 -0.13793363119E+02  0.13793363119E+02  0.00000000000E+00 0.  1.
         13    1    1    2    0    0 -0.56567018555E+01  0.12527118243E+02  0.66454239746E+00  0.13761531455E+02  0.10566000000E+00 0.  1.
        996    1    1    2    0    0  0.56567018555E+01 -0.12527118243E+02  0.85542038657E+02  0.10003183166E+03  0.50000000000E+02 0.  0.
<mgrwt>
<rscale>  0 0.51854864E+02</rscale>
<asrwt>0</asrwt>
<pdfrwt beam="1">  1       13 0.10000000E+01 0.51854864E+02</pdfrwt>
<pdfrwt beam="2">  1       22 0.13793387E+00 0.51854864E+02</pdfrwt>
<totfact> 0.86351909E-01</totfact>
</mgrwt>
</event>
<event>
 4    1  0.2505250E+000  0.5163526E+02  0.7957747E-01  0.1436716E+00
         13   -1    0    0    0    0  0.00000000000E+00  0.00000000000E+00  0.99999944171E+02  0.99999999992E+02  0.10566000000E+00 0. -1.
         22   -1    0    0    0    0 -0.00000000000E+00 -0.00000000000E+00 -0.17305393675E+02  0.17305393675E+02  0.00000000000E+00 0.  1.
         13    1    1    2    0    0  0.63617224116E+01 -0.11212863488E+02 -0.63511203191E+01  0.14371767914E+02  0.10566000000E+00 0.  1.
        996    1    1    2    0    0 -0.63617224116E+01  0.11212863488E+02  0.89045670815E+02  0.10293362575E+03  0.50000000000E+02 0.  0.
<mgrwt>
<rscale>  0 0.51635258E+02</rscale>
<asrwt>0</asrwt>
<pdfrwt beam="1">  1       13 0.10000000E+01 0.51635258E+02</pdfrwt>
<pdfrwt beam="2">  1       22 0.17305417E+00 0.51635258E+02</pdfrwt>
<totfact> 0.58882885E-01</totfact>
</mgrwt>
</event>
<event>
 4    1  0.2505250E+000  0.5286337E+02  0.7957747E-01  0.1430482E+00
         13   -1    0    0    0    0  0.00000000000E+00  0.00000000000E+00  0.99999944180E+02  0.10000000000E+03  0.10566000000E+00 0. -1.
         22   -1    0    0    0    0 -0.00000000000E+00 -0.00000000000E+00 -0.13447226752E+02  0.13447226752E+02  0.00000000000E+00 0. -1.
         13    1    1    2    0    0 -0.84212296619E+01  0.14953890745E+02  0.84334880822E+01  0.19122521871E+02  0.10566000000E+00 0.  1.
        996    1    1    2    0    0  0.84212296619E+01 -0.14953890745E+02  0.78119229345E+02  0.94324704881E+02  0.50000000000E+02 0.  0.
<mgrwt>
<rscale>  0 0.52863371E+02</rscale>
<asrwt>0</asrwt>
<pdfrwt beam="1">  1       13 0.10000000E+01 0.52863371E+02</pdfrwt>
<pdfrwt beam="2">  1       22 0.13447251E+00 0.52863371E+02</pdfrwt>
<totfact> 0.90135216E-01</totfact>
</mgrwt>
</event>
<event>
 4    1  0.2505250E+000  0.5202983E+02  0.7957747E-01  0.1434691E+00
         13   -1    0    0    0    0  0.00000000000E+00  0.00000000000E+00  0.99999944164E+02  0.99999999984E+02  0.10566000000E+00 0.  1.
         22   -1    0    0    0    0 -0.00000000000E+00 -0.00000000000E+00 -0.19486475829E+02  0.19486475829E+02  0.00000000000E+00 0. -1.
         13    1    1    2    0    0 -0.43351108594E+01  0.13722617367E+02 -0.82569467243E+01  0.16591918117E+02  0.10566000000E+00 0. -1.
        996    1    1    2    0    0  0.43351108594E+01 -0.13722617367E+02  0.88770415059E+02  0.10289455770E+03  0.50000000000E+02 0.  0.
<mgrwt>
<rscale>  0 0.52029832E+02</rscale>
<asrwt>0</asrwt>
<pdfrwt beam="1">  1       13 0.10000000E+01 0.52029832E+02</pdfrwt>
<pdfrwt beam="2">  1       22 0.19486498E+00 0.52029832E+02</pdfrwt>
<totfact> 0.47552422E-01</totfact>
</mgrwt>
</event>
<event>
 4    1  0.2505250E+000  0.5198276E+02  0.7957747E-01  0.1434931E+00
         13   -1    0    0    0    0  0.00000000000E+00  0.00000000000E+00  0.99999944184E+02  0.10000000000E+03  0.10566000000E+00 0. -1.
         22   -1    0    0    0    0 -0.00000000000E+00 -0.00000000000E+00 -0.10957186334E+02  0.10957186334E+02  0.00000000000E+00 0. -1.
         13    1    1    2    0    0 -0.79053694556E+01  0.11820011398E+02  0.19247345182E+02  0.23930712406E+02  0.10566000000E+00 0.  1.
        996    1    1    2    0    0  0.79053694556E+01 -0.11820011398E+02  0.69795412667E+02  0.87026473932E+02  0.50000000000E+02 0.  0.
<mgrwt>
<rscale>  0 0.51982762E+02</rscale>
<asrwt>0</asrwt>
<pdfrwt beam="1">  1       13 0.10000000E+01 0.51982762E+02</pdfrwt>
<pdfrwt beam="2">  1       22 0.10957211E+00 0.51982762E+02</pdfrwt>
<totfact> 0.12328044E+00</totfact>
</mgrwt>
</event>
<event>
 4    1  0.2505250E+000  0.5191566E+02  0.7957747E-01  0.1435275E+00
         13   -1    0    0    0    0  0.00000000000E+00  0.00000000000E+00  0.99999944165E+02  0.99999999986E+02  0.10566000000E+00 0. -1.
         22   -1    0    0    0    0 -0.00000000000E+00 -0.00000000000E+00 -0.18026381010E+02  0.18026381010E+02  0.00000000000E+00 0. -1.
         13    1    1    2    0    0  0.34877059641E+01  0.13530404406E+02 -0.65270071835E+01  0.15422351413E+02  0.10566000000E+00 0.  1.
        996    1    1    2    0    0 -0.34877059641E+01 -0.13530404406E+02  0.88500570339E+02  0.10260402958E+03  0.50000000000E+02 0.  0.
<mgrwt>
<rscale>  0 0.51915662E+02</rscale>
<asrwt>0</asrwt>
<pdfrwt beam="1">  1       13 0.10000000E+01 0.51915662E+02</pdfrwt>
<pdfrwt beam="2">  1       22 0.18026404E+00 0.51915662E+02</pdfrwt>
<totfact> 0.54787540E-01</totfact>
</mgrwt>
</event>
<event>
 4    1  0.2505250E+000  0.5235256E+02  0.7957747E-01  0.1433050E+00
         13   -1    0    0    0    0  0.00000000000E+00  0.00000000000E+00  0.99999944178E+02  0.99999999998E+02  0.10566000000E+00 0. -1.
         22   -1    0    0    0    0 -0.00000000000E+00 -0.00000000000E+00 -0.22891272516E+02  0.22891272516E+02  0.00000000000E+00 0.  1.
         13    1    1    2    0    0  0.15516233498E+02 -0.19342097986E+00 -0.11949268121E+02  0.19585379401E+02  0.10566000000E+00 0.  1.
        996    1    1    2    0    0 -0.15516233498E+02  0.19342097986E+00  0.89057939782E+02  0.10330589311E+03  0.50000000000E+02 0.  0.
<mgrwt>
<rscale>  0 0.52352564E+02</rscale>
<asrwt>0</asrwt>
<pdfrwt beam="1">  1       13 0.10000000E+01 0.52352564E+02</pdfrwt>
<pdfrwt beam="2">  1       22 0.22891294E+00 0.52352564E+02</pdfrwt>
<totfact> 0.35047623E-01</totfact>
</mgrwt>
</event>
<event>
 4    1  0.2505250E+000  0.5233367E+02  0.7957747E-01  0.1433146E+00
         13   -1    0    0    0    0  0.00000000000E+00  0.00000000000E+00  0.99999944180E+02  0.10000000000E+03  0.10566000000E+00 0. -1.
         22   -1    0    0    0    0 -0.00000000000E+00 -0.00000000000E+00 -0.40092088911E+02  0.40092088911E+02  0.00000000000E+00 0.  1.
         13    1    1    2    0    0 -0.50915284079E+01 -0.14590732837E+02 -0.31316627332E+02  0.34922134209E+02  0.10566000000E+00 0.  1.
        996    1    1    2    0    0  0.50915284079E+01  0.14590732837E+02  0.91224482601E+02  0.10516995470E+03  0.50000000000E+02 0.  0.
<mgrwt>
<rscale>  0 0.52333671E+02</rscale>
<asrwt>0</asrwt>
<pdfrwt beam="1">  1       13 0.10000000E+01 0.52333671E+02</pdfrwt>
<pdfrwt beam="2">  1       22 0.40092106E+00 0.52333671E+02</pdfrwt>
<totfact> 0.12316919E-01</totfact>
</mgrwt>
</event>
<event>
 4    1  0.2505250E+000  0.5381241E+02  0.7957747E-01  0.1425800E+00
         13   -1    0    0    0    0  0.00000000000E+00  0.00000000000E+00  0.99999944167E+02  0.99999999988E+02  0.10566000000E+00 0.  1.
         22   -1    0    0    0    0 -0.00000000000E+00 -0.00000000000E+00 -0.17729024489E+02  0.17729024489E+02  0.00000000000E+00 0. -1.
         13    1    1    2    0    0  0.13226766181E+02  0.14860279844E+02  0.57504272553E+00  0.19902690743E+02  0.10566000000E+00 0. -1.
        996    1    1    2    0    0 -0.13226766181E+02 -0.14860279844E+02  0.81695876953E+02  0.97826333734E+02  0.50000000000E+02 0.  0.
<mgrwt>
<rscale>  0 0.53812408E+02</rscale>
<asrwt>0</asrwt>
<pdfrwt beam="1">  1       13 0.10000000E+01 0.53812408E+02</pdfrwt>
<pdfrwt beam="2">  1       22 0.17729047E+00 0.53812408E+02</pdfrwt>
<totfact> 0.56641751E-01</totfact>
</mgrwt>
</event>
<event>
 4    1  0.2505250E+000  0.5690869E+02  0.7957747E-01  0.1411282E+00
         13   -1    0    0    0    0  0.00000000000E+00  0.00000000000E+00  0.99999944173E+02  0.99999999993E+02  0.10566000000E+00 0. -1.
         22   -1    0    0    0    0 -0.00000000000E+00 -0.00000000000E+00 -0.19421515951E+02  0.19421515951E+02  0.00000000000E+00 0. -1.
         13    1    1    2    0    0 -0.24200592454E+02  0.12366521467E+02  0.44174800150E+02  0.51865438016E+02  0.10566000000E+00 0.  1.
        996    1    1    2    0    0  0.24200592454E+02 -0.12366521467E+02  0.36403628072E+02  0.67556077929E+02  0.50000000000E+02 0.  0.
<mgrwt>
<rscale>  0 0.56908695E+02</rscale>
<asrwt>0</asrwt>
<pdfrwt beam="1">  1       13 0.10000000E+01 0.56908695E+02</pdfrwt>
<pdfrwt beam="2">  1       22 0.19421538E+00 0.56908695E+02</pdfrwt>
<totfact> 0.48253108E-01</totfact>
</mgrwt>
</event>
<event>
 4    1  0.2505250E+000  0.5101773E+02  0.7957747E-01  0.1439928E+00
         13   -1    0    0    0    0  0.00000000000E+00  0.00000000000E+00  0.99999944179E+02  0.99999999999E+02  0.10566000000E+00 0. -1.
         22   -1    0    0    0    0 -0.00000000000E+00 -0.00000000000E+00 -0.12054505852E+02  0.12054505852E+02  0.00000000000E+00 0. -1.
         13    1    1    2    0    0 -0.74577007637E+01 -0.68696031068E+01 -0.27581853258E+00  0.10143765939E+02  0.10566000000E+00 0.  1.
        996    1    1    2    0    0  0.74577007637E+01  0.68696031068E+01  0.88221256859E+02  0.10191073991E+03  0.50000000000E+02 0.  0.
<mgrwt>
<rscale>  0 0.51017730E+02</rscale>
<asrwt>0</asrwt>
<pdfrwt beam="1">  1       13 0.10000000E+01 0.51017730E+02</pdfrwt>
<pdfrwt beam="2">  1       22 0.12054530E+00 0.51017730E+02</pdfrwt>
<totfact> 0.10651372E+00</totfact>
</mgrwt>
</event>
<event>
 4    1  0.2505250E+000  0.5638585E+02  0.7957747E-01  0.1413657E+00
         13   -1    0    0    0    0  0.00000000000E+00  0.00000000000E+00  0.99999944180E+02  0.10000000000E+03  0.10566000000E+00 0.  1.
         22   -1    0    0    0    0 -0.00000000000E+00 -0.00000000000E+00 -0.19427443009E+02  0.19427443009E+02  0.00000000000E+00 0. -1.
         13    1    1    2    0    0  0.25477286255E+02 -0.55019681483E+01  0.74866991485E+01  0.27118731471E+02  0.10566000000E+00 0. -1.
        996    1    1    2    0    0 -0.25477286255E+02  0.55019681483E+01  0.73085802023E+02  0.92308711538E+02  0.50000000000E+02 0.  0.
<mgrwt>
<rscale>  0 0.56385847E+02</rscale>
<asrwt>0</asrwt>
<pdfrwt beam="1">  1       13 0.10000000E+01 0.56385847E+02</pdfrwt>
<pdfrwt beam="2">  1       22 0.19427466E+00 0.56385847E+02</pdfrwt>
<totfact> 0.48184045E-01</totfact>
</mgrwt>
</event>
<event>
 4    1  0.2505250E+000  0.5804497E+02  0.7957747E-01  0.1406224E+00
         13   -1    0    0    0    0  0.00000000000E+00  0.00000000000E+00  0.99999944178E+02  0.99999999998E+02  0.10566000000E+00 0.  1.
         22   -1    0    0    0    0 -0.00000000000E+00 -0.00000000000E+00 -0.22160566212E+02  0.22160566212E+02  0.00000000000E+00 0.  1.
         13    1    1    2    0    0  0.31802812845E+01  0.29310478144E+02  0.65007011895E+01  0.30190869449E+02  0.10566000000E+00 0. -1.
        996    1    1    2    0    0 -0.31802812845E+01 -0.29310478144E+02  0.71338676776E+02  0.91969696761E+02  0.50000000000E+02 0.  0.
<mgrwt>
<rscale>  0 0.58044968E+02</rscale>
<asrwt>0</asrwt>
<pdfrwt beam="1">  1       13 0.10000000E+01 0.58044968E+02</pdfrwt>
<pdfrwt beam="2">  1       22 0.22160588E+00 0.58044968E+02</pdfrwt>
<totfact> 0.37657920E-01</totfact>
</mgrwt>
</event>
<event>
 4    1  0.2505250E+000  0.5780120E+02  0.7957747E-01  0.1407298E+00
         13   -1    0    0    0    0  0.00000000000E+00  0.00000000000E+00  0.99999944174E+02  0.99999999994E+02  0.10566000000E+00 0.  1.
         22   -1    0    0    0    0 -0.00000000000E+00 -0.00000000000E+00 -0.19199413355E+02  0.19199413355E+02  0.00000000000E+00 0. -1.
         13    1    1    2    0    0 -0.13674509391E+02 -0.25573166052E+02  0.34992784459E+02  0.45447608927E+02  0.10566000000E+00 0. -1.
        996    1    1    2    0    0  0.13674509391E+02  0.25573166052E+02  0.45807746360E+02  0.73751804422E+02  0.50000000000E+02 0.  0.
<mgrwt>
<rscale>  0 0.57801203E+02</rscale>
<asrwt>0</asrwt>
<pdfrwt beam="1">  1       13 0.10000000E+01 0.57801203E+02</pdfrwt>
<pdfrwt beam="2">  1       22 0.19199436E+00 0.57801203E+02</pdfrwt>
<totfact> 0.49361080E-01</totfact>
</mgrwt>
</event>
<event>
 4    1  0.2505250E+000  0.5305319E+02  0.7957747E-01  0.1429536E+00
         13   -1    0    0    0    0  0.00000000000E+00  0.00000000000E+00  0.99999944190E+02  0.10000000001E+03  0.10566000000E+00 0. -1.
         22   -1    0    0    0    0 -0.00000000000E+00 -0.00000000000E+00 -0.51010296457E+02  0.51010296457E+02  0.00000000000E+00 0.  1.
         13    1    1    2    0    0  0.17293340906E+02  0.39473089083E+01 -0.42051060468E+02  0.45639278454E+02  0.10566000000E+00 0.  1.
        996    1    1    2    0    0 -0.17293340906E+02 -0.39473089083E+01  0.91040708201E+02  0.10537101801E+03  0.50000000000E+02 0.  0.
<mgrwt>
<rscale>  0 0.53053189E+02</rscale>
<asrwt>0</asrwt>
<pdfrwt beam="1">  1       13 0.10000000E+01 0.53053189E+02</pdfrwt>
<pdfrwt beam="2">  1       22 0.51010310E+00 0.53053189E+02</pdfrwt>
<totfact> 0.69750272E-02</totfact>
</mgrwt>
</event>
<event>
 4    1  0.2505250E+000  0.5362551E+02  0.7957747E-01  0.1426713E+00
         13   -1    0    0    0    0  0.00000000000E+00  0.00000000000E+00  0.99999944179E+02  0.99999999999E+02  0.10566000000E+00 0. -1.
         22   -1    0    0    0    0 -0.00000000000E+00 -0.00000000000E+00 -0.13361383791E+02  0.13361383791E+02  0.00000000000E+00 0. -1.
         13    1    1    2    0    0 -0.10711188600E+02 -0.16154424890E+02  0.25646550049E+02  0.32147343563E+02  0.10566000000E+00 0.  1.
        996    1    1    2    0    0  0.10711188600E+02  0.16154424890E+02  0.60992010339E+02  0.81214040227E+02  0.50000000000E+02 0.  0.
<mgrwt>
<rscale>  0 0.53625507E+02</rscale>
<asrwt>0</asrwt>
<pdfrwt beam="1">  1       13 0.10000000E+01 0.53625507E+02</pdfrwt>
<pdfrwt beam="2">  1       22 0.13361408E+00 0.53625507E+02</pdfrwt>
<totfact> 0.91205077E-01</totfact>
</mgrwt>
</event>
<event>
 4    1  0.2505250E+000  0.5366198E+02  0.7957747E-01  0.1426535E+00
         13   -1    0    0    0    0  0.00000000000E+00  0.00000000000E+00  0.99999944175E+02  0.99999999995E+02  0.10566000000E+00 0. -1.
         22   -1    0    0    0    0 -0.00000000000E+00 -0.00000000000E+00 -0.29008847619E+02  0.29008847619E+02  0.00000000000E+00 0.  1.
         13    1    1    2    0    0  0.63561659507E+01  0.18417581090E+02 -0.17058129025E+02  0.25895927646E+02  0.10566000000E+00 0.  1.
        996    1    1    2    0    0 -0.63561659507E+01 -0.18417581090E+02  0.88049225581E+02  0.10311291997E+03  0.50000000000E+02 0.  0.
<mgrwt>
<rscale>  0 0.53661980E+02</rscale>
<asrwt>0</asrwt>
<pdfrwt beam="1">  1       13 0.10000000E+01 0.53661980E+02</pdfrwt>
<pdfrwt beam="2">  1       22 0.29008867E+00 0.53661980E+02</pdfrwt>
<totfact> 0.22108481E-01</totfact>
</mgrwt>
</event>
<event>
 4    1  0.2505250E+000  0.6023879E+02  0.7957747E-01  0.1396832E+00
         13   -1    0    0    0    0  0.00000000000E+00  0.00000000000E+00  0.99999944177E+02  0.99999999997E+02  0.10566000000E+00 0.  1.
         22   -1    0    0    0    0 -0.00000000000E+00 -0.00000000000E+00 -0.29298629447E+02  0.29298629447E+02  0.00000000000E+00 0. -1.
         13    1    1    2    0    0 -0.15374588965E+02 -0.29871959243E+02 -0.34380075636E+01  0.33771926136E+02  0.10566000000E+00 0. -1.
        996    1    1    2    0    0  0.15374588965E+02  0.29871959243E+02  0.74139322294E+02  0.95526703309E+02  0.50000000000E+02 0.  0.
<mgrwt>
<rscale>  0 0.60238791E+02</rscale>
<asrwt>0</asrwt>
<pdfrwt beam="1">  1       13 0.10000000E+01 0.60238791E+02</pdfrwt>
<pdfrwt beam="2">  1       22 0.29298649E+00 0.60238791E+02</pdfrwt>
<totfact> 0.21870850E-01</totfact>
</mgrwt>
</event>
<event>
 4    1  0.2505250E+000  0.5159693E+02  0.7957747E-01  0.1436914E+00
         13   -1    0    0    0    0  0.00000000000E+00  0.00000000000E+00  0.99999944175E+02  0.99999999995E+02  0.10566000000E+00 0. -1.
         22   -1    0    0    0    0 -0.00000000000E+00 -0.00000000000E+00 -0.22995276094E+02  0.22995276094E+02  0.00000000000E+00 0.  1.
         13    1    1    2    0    0 -0.69484082387E+00 -0.12718504927E+02 -0.13659604718E+02  0.18677235781E+02  0.10566000000E+00 0.  1.
        996    1    1    2    0    0  0.69484082387E+00  0.12718504927E+02  0.90664272799E+02  0.10431804031E+03  0.50000000000E+02 0.  0.
<mgrwt>
<rscale>  0 0.51596930E+02</rscale>
<asrwt>0</asrwt>
<pdfrwt beam="1">  1       13 0.10000000E+01 0.51596930E+02</pdfrwt>
<pdfrwt beam="2">  1       22 0.22995298E+00 0.51596930E+02</pdfrwt>
<totfact> 0.34696648E-01</totfact>
</mgrwt>
</event>
<event>
 4    1  0.2505250E+000  0.7240325E+02  0.7957747E-01  0.1352106E+00
         13   -1    0    0    0    0  0.00000000000E+00  0.00000000000E+00  0.99999944175E+02  0.99999999995E+02  0.10566000000E+00 0.  1.
         22   -1    0    0    0    0 -0.00000000000E+00 -0.00000000000E+00 -0.39086466819E+02  0.39086466819E+02  0.00000000000E+00 0. -1.
         13    1    1    2    0    0  0.21338105883E+02 -0.47821714589E+02  0.30084392794E+02  0.60392988026E+02  0.10566000000E+00 0. -1.
        996    1    1    2    0    0 -0.21338105883E+02  0.47821714589E+02  0.30829084561E+02  0.78693478788E+02  0.50000000000E+02 0.  0.
<mgrwt>
<rscale>  0 0.72403254E+02</rscale>
<asrwt>0</asrwt>
<pdfrwt beam="1">  1       13 0.10000000E+01 0.72403254E+02</pdfrwt>
<pdfrwt beam="2">  1       22 0.39086484E+00 0.72403254E+02</pdfrwt>
<totfact> 0.13098608E-01</totfact>
</mgrwt>
</event>
<event>
 4    1  0.2505250E+000  0.5192149E+02  0.7957747E-01  0.1435245E+00
         13   -1    0    0    0    0  0.00000000000E+00  0.00000000000E+00  0.99999944180E+02  0.10000000000E+03  0.10566000000E+00 0. -1.
         22   -1    0    0    0    0 -0.00000000000E+00 -0.00000000000E+00 -0.11678759373E+02  0.11678759373E+02  0.00000000000E+00 0. -1.
         13    1    1    2    0    0  0.21214317637E+01 -0.13832602334E+02  0.32809968433E+02  0.35669967097E+02  0.10566000000E+00 0.  1.
        996    1    1    2    0    0 -0.21214317637E+01  0.13832602334E+02  0.55511216373E+02  0.76008792276E+02  0.50000000000E+02 0.  0.
<mgrwt>
<rscale>  0 0.51921492E+02</rscale>
<asrwt>0</asrwt>
<pdfrwt beam="1">  1       13 0.10000000E+01 0.51921492E+02</pdfrwt>
<pdfrwt beam="2">  1       22 0.11678784E+00 0.51921492E+02</pdfrwt>
<totfact> 0.11201208E+00</totfact>
</mgrwt>
</event>
<event>
 4    1  0.2505250E+000  0.5952530E+02  0.7957747E-01  0.1399835E+00
         13   -1    0    0    0    0  0.00000000000E+00  0.00000000000E+00  0.99999944170E+02  0.99999999990E+02  0.10566000000E+00 0. -1.
         22   -1    0    0    0    0 -0.00000000000E+00 -0.00000000000E+00 -0.70229226138E+02  0.70229226138E+02  0.00000000000E+00 0.  1.
         13    1    1    2    0    0  0.11871527274E+02 -0.30038782138E+02 -0.56697820742E+02  0.65252705944E+02  0.10566000000E+00 0.  1.
        996    1    1    2    0    0 -0.11871527274E+02  0.30038782138E+02  0.86468538774E+02  0.10497652018E+03  0.50000000000E+02 0.  0.
<mgrwt>
<rscale>  0 0.59525302E+02</rscale>
<asrwt>0</asrwt>
<pdfrwt beam="1">  1       13 0.10000000E+01 0.59525302E+02</pdfrwt>
<pdfrwt beam="2">  1       22 0.70229234E+00 0.59525302E+02</pdfrwt>
<totfact> 0.73462412E-02</totfact>
</mgrwt>
</event>
<event>
 4    1  0.2505250E+000  0.6587811E+02  0.7957747E-01  0.1374699E+00
         13   -1    0    0    0    0  0.00000000000E+00  0.00000000000E+00  0.99999944183E+02  0.10000000000E+03  0.10566000000E+00 0. -1.
         22   -1    0    0    0    0 -0.00000000000E+00 -0.00000000000E+00 -0.30897959328E+02  0.30897959328E+02  0.00000000000E+00 0. -1.
         13    1    1    2    0    0 -0.48557985564E+01  0.42618611657E+02  0.40794023694E+02  0.59195340800E+02  0.10566000000E+00 0.  1.
        996    1    1    2    0    0  0.48557985564E+01 -0.42618611657E+02  0.28307961161E+02  0.71702618531E+02  0.50000000000E+02 0.  0.
<mgrwt>
<rscale>  0 0.65878106E+02</rscale>
<asrwt>0</asrwt>
<pdfrwt beam="1">  1       13 0.10000000E+01 0.65878106E+02</pdfrwt>
<pdfrwt beam="2">  1       22 0.30897979E+00 0.65878106E+02</pdfrwt>
<totfact> 0.19910273E-01</totfact>
</mgrwt>
</event>
<event>
 4    1  0.2505250E+000  0.7227648E+02  0.7957747E-01  0.1352519E+00
         13   -1    0    0    0    0  0.00000000000E+00  0.00000000000E+00  0.99999944177E+02  0.99999999998E+02  0.10566000000E+00 0.  1.
         22   -1    0    0    0    0 -0.00000000000E+00 -0.00000000000E+00 -0.53749780806E+02  0.53749780806E+02  0.00000000000E+00 0. -1.
         13    1    1    2    0    0 -0.22602035820E+02  0.47042936587E+02 -0.19817892980E+02  0.55826964382E+02  0.10566000000E+00 0. -1.
        996    1    1    2    0    0  0.22602035820E+02 -0.47042936587E+02  0.66068056351E+02  0.97922816422E+02  0.50000000000E+02 0.  0.
<mgrwt>
<rscale>  0 0.72276482E+02</rscale>
<asrwt>0</asrwt>
<pdfrwt beam="1">  1       13 0.10000000E+01 0.72276482E+02</pdfrwt>
<pdfrwt beam="2">  1       22 0.53749794E+00 0.72276482E+02</pdfrwt>
<totfact> 0.61530083E-02</totfact>
</mgrwt>
</event>
<event>
 4    1  0.2505250E+000  0.5590312E+02  0.7957747E-01  0.1415876E+00
         13   -1    0    0    0    0  0.00000000000E+00  0.00000000000E+00  0.99999944172E+02  0.99999999992E+02  0.10566000000E+00 0. -1.
         22   -1    0    0    0    0 -0.00000000000E+00 -0.00000000000E+00 -0.19692114731E+02  0.19692114731E+02  0.00000000000E+00 0.  1.
         13    1    1    2    0    0  0.15087149453E+02  0.19938332916E+02  0.43481984589E+01  0.25378675930E+02  0.10566000000E+00 0.  1.
        996    1    1    2    0    0 -0.15087149453E+02 -0.19938332916E+02  0.75959630981E+02  0.94313438793E+02  0.50000000000E+02 0.  0.
<mgrwt>
<rscale>  0 0.55903123E+02</rscale>
<asrwt>0</asrwt>
<pdfrwt beam="1">  1       13 0.10000000E+01 0.55903123E+02</pdfrwt>
<pdfrwt beam="2">  1       22 0.19692137E+00 0.55903123E+02</pdfrwt>
<totfact> 0.46952312E-01</totfact>
</mgrwt>
</event>
<event>
 4    1  0.2505250E+000  0.6129391E+02  0.7957747E-01  0.1392481E+00
         13   -1    0    0    0    0  0.00000000000E+00  0.00000000000E+00  0.99999944174E+02  0.99999999995E+02  0.10566000000E+00 0.  1.
         22   -1    0    0    0    0 -0.00000000000E+00 -0.00000000000E+00 -0.25056056708E+02  0.25056056708E+02  0.00000000000E+00 0. -1.
         13    1    1    2    0    0 -0.28990227821E+02 -0.20408567254E+02  0.12595226696E+02  0.37624378082E+02  0.10566000000E+00 0. -1.
        996    1    1    2    0    0  0.28990227821E+02  0.20408567254E+02  0.62348660771E+02  0.87431678620E+02  0.50000000000E+02 0.  0.
<mgrwt>
<rscale>  0 0.61293906E+02</rscale>
<asrwt>0</asrwt>
<pdfrwt beam="1">  1       13 0.10000000E+01 0.61293906E+02</pdfrwt>
<pdfrwt beam="2">  1       22 0.25056078E+00 0.61293906E+02</pdfrwt>
<totfact> 0.29743234E-01</totfact>
</mgrwt>
</event>
<event>
 4    1  0.2505250E+000  0.5114897E+02  0.7957747E-01  0.1439241E+00
         13   -1    0    0    0    0  0.00000000000E+00  0.00000000000E+00  0.99999944178E+02  0.99999999998E+02  0.10566000000E+00 0. -1.
         22   -1    0    0    0    0 -0.00000000000E+00 -0.00000000000E+00 -0.10123933290E+02  0.10123933290E+02  0.00000000000E+00 0. -1.
         13    1    1    2    0    0  0.10488957792E+02  0.24898472892E+01  0.74047249406E+01  0.13078940728E+02  0.10566000000E+00 0.  1.
        996    1    1    2    0    0 -0.10488957792E+02 -0.24898472892E+01  0.82471285948E+02  0.97044992560E+02  0.50000000000E+02 0.  0.
<mgrwt>
<rscale>  0 0.51148974E+02</rscale>
<asrwt>0</asrwt>
<pdfrwt beam="1">  1       13 0.10000000E+01 0.51148974E+02</pdfrwt>
<pdfrwt beam="2">  1       22 0.10123958E+00 0.51148974E+02</pdfrwt>
<totfact> 0.13819769E+00</totfact>
</mgrwt>
</event>
<event>
 4    1  0.2505250E+000  0.5501952E+02  0.7957747E-01  0.1420007E+00
         13   -1    0    0    0    0  0.00000000000E+00  0.00000000000E+00  0.99999944173E+02  0.99999999993E+02  0.10566000000E+00 0. -1.
         22   -1    0    0    0    0 -0.00000000000E+00 -0.00000000000E+00 -0.20606022002E+02  0.20606022002E+02  0.00000000000E+00 0. -1.
         13    1    1    2    0    0 -0.20899088137E+02  0.95066028369E+01 -0.12356247349E+01  0.22993158003E+02  0.10566000000E+00 0.  1.
        996    1    1    2    0    0  0.20899088137E+02 -0.95066028369E+01  0.80629546906E+02  0.97612863992E+02  0.50000000000E+02 0.  0.
<mgrwt>
<rscale>  0 0.55019518E+02</rscale>
<asrwt>0</asrwt>
<pdfrwt beam="1">  1       13 0.10000000E+01 0.55019518E+02</pdfrwt>
<pdfrwt beam="2">  1       22 0.20606044E+00 0.55019518E+02</pdfrwt>
<totfact> 0.43063968E-01</totfact>
</mgrwt>
</event>
<event>
 4    1  0.2505250E+000  0.5203201E+02  0.7957747E-01  0.1434680E+00
         13   -1    0    0    0    0  0.00000000000E+00  0.00000000000E+00  0.99999944177E+02  0.99999999997E+02  0.10566000000E+00 0. -1.
         22   -1    0    0    0    0 -0.00000000000E+00 -0.00000000000E+00 -0.11884715764E+02  0.11884715764E+02  0.00000000000E+00 0. -1.
         13    1    1    2    0    0  0.46049137437E+01 -0.13642767241E+02  0.33438499702E+02  0.36407070123E+02  0.10566000000E+00 0.  1.
        996    1    1    2    0    0 -0.46049137437E+01  0.13642767241E+02  0.54676728711E+02  0.75477645638E+02  0.50000000000E+02 0.  0.
<mgrwt>
<rscale>  0 0.52032013E+02</rscale>
<asrwt>0</asrwt>
<pdfrwt beam="1">  1       13 0.10000000E+01 0.52032013E+02</pdfrwt>
<pdfrwt beam="2">  1       22 0.11884740E+00 0.52032013E+02</pdfrwt>
<totfact> 0.10910052E+00</totfact>
</mgrwt>
</event>
<event>
 4    1  0.2505250E+000  0.6002882E+02  0.7957747E-01  0.1397711E+00
         13   -1    0    0    0    0  0.00000000000E+00  0.00000000000E+00  0.99999944179E+02  0.10000000000E+03  0.10566000000E+00 0. -1.
         22   -1    0    0    0    0 -0.00000000000E+00 -0.00000000000E+00 -0.45284952042E+02  0.45284952042E+02  0.00000000000E+00 0.  1.
         13    1    1    2    0    0  0.11939556973E+02 -0.30998480485E+02 -0.27750659122E+02  0.43284743950E+02  0.10566000000E+00 0.  1.
        996    1    1    2    0    0 -0.11939556973E+02  0.30998480485E+02  0.82465651259E+02  0.10200020809E+03  0.50000000000E+02 0.  0.
<mgrwt>
<rscale>  0 0.60028817E+02</rscale>
<asrwt>0</asrwt>
<pdfrwt beam="1">  1       13 0.10000000E+01 0.60028817E+02</pdfrwt>
<pdfrwt beam="2">  1       22 0.45284967E+00 0.60028817E+02</pdfrwt>
<totfact> 0.95610015E-02</totfact>
</mgrwt>
</event>
<event>
 4    1  0.2505250E+000  0.5108097E+02  0.7957747E-01  0.1439597E+00
         13   -1    0    0    0    0  0.00000000000E+00  0.00000000000E+00  0.99999944183E+02  0.10000000000E+03  0.10566000000E+00 0.  1.
         22   -1    0    0    0    0 -0.00000000000E+00 -0.00000000000E+00 -0.10523216334E+02  0.10523216334E+02  0.00000000000E+00 0.  1.
         13    1    1    2    0    0 -0.23075382723E+01 -0.10195121191E+02  0.45122879542E+01  0.11385830475E+02  0.10566000000E+00 0. -1.
        996    1    1    2    0    0  0.23075382723E+01  0.10195121191E+02  0.84964439895E+02  0.99137385862E+02  0.50000000000E+02 0.  0.
<mgrwt>
<rscale>  0 0.51080967E+02</rscale>
<asrwt>0</asrwt>
<pdfrwt beam="1">  1       13 0.10000000E+01 0.51080967E+02</pdfrwt>
<pdfrwt beam="2">  1       22 0.10523241E+00 0.51080967E+02</pdfrwt>
<totfact> 0.13058594E+00</totfact>
</mgrwt>
</event>
<event>
 4    1  0.2505250E+000  0.5215487E+02  0.7957747E-01  0.1434054E+00
         13   -1    0    0    0    0  0.00000000000E+00  0.00000000000E+00  0.99999944175E+02  0.99999999995E+02  0.10566000000E+00 0.  1.
         22   -1    0    0    0    0 -0.00000000000E+00 -0.00000000000E+00 -0.20382372395E+02  0.20382372395E+02  0.00000000000E+00 0. -1.
         13    1    1    2    0    0  0.46713392964E+01  0.14082206877E+02 -0.91466119081E+01  0.17429906333E+02  0.10566000000E+00 0. -1.
        996    1    1    2    0    0 -0.46713392964E+01 -0.14082206877E+02  0.88764183688E+02  0.10295246606E+03  0.50000000000E+02 0.  0.
<mgrwt>
<rscale>  0 0.52154865E+02</rscale>
<asrwt>0</asrwt>
<pdfrwt beam="1">  1       13 0.10000000E+01 0.52154865E+02</pdfrwt>
<pdfrwt beam="2">  1       22 0.20382395E+00 0.52154865E+02</pdfrwt>
<totfact> 0.43742119E-01</totfact>
</mgrwt>
</event>
<event>
 4    1  0.2505250E+000  0.5736849E+02  0.7957747E-01  0.1409219E+00
         13   -1    0    0    0    0  0.00000000000E+00  0.00000000000E+00  0.99999944168E+02  0.99999999988E+02  0.10566000000E+00 0. -1.
         22   -1    0    0    0    0 -0.00000000000E+00 -0.00000000000E+00 -0.18310736259E+02  0.18310736259E+02  0.00000000000E+00 0.  1.
         13    1    1    2    0    0 -0.19334670429E+00  0.28126606781E+02  0.29397658064E+02  0.40686322709E+02  0.10566000000E+00 0.  1.
        996    1    1    2    0    0  0.19334670429E+00 -0.28126606781E+02  0.52291549845E+02  0.77624413538E+02  0.50000000000E+02 0.  0.
<mgrwt>
<rscale>  0 0.57368488E+02</rscale>
<asrwt>0</asrwt>
<pdfrwt beam="1">  1       13 0.10000000E+01 0.57368488E+02</pdfrwt>
<pdfrwt beam="2">  1       22 0.18310759E+00 0.57368488E+02</pdfrwt>
<totfact> 0.53784809E-01</totfact>
</mgrwt>
</event>
<event>
 4    1  0.2505250E+000  0.6281909E+02  0.7957747E-01  0.1386368E+00
         13   -1    0    0    0    0  0.00000000000E+00  0.00000000000E+00  0.99999944179E+02  0.10000000000E+03  0.10566000000E+00 0.  1.
         22   -1    0    0    0    0 -0.00000000000E+00 -0.00000000000E+00 -0.49719817254E+02  0.49719817254E+02  0.00000000000E+00 0. -1.
         13    1    1    2    0    0  0.28159523741E+02 -0.25559328709E+02 -0.29533007534E+02  0.48150262299E+02  0.10566000000E+00 0. -1.
        996    1    1    2    0    0 -0.28159523741E+02  0.25559328709E+02  0.79813134460E+02  0.10156955495E+03  0.50000000000E+02 0.  0.
<mgrwt>
<rscale>  0 0.62819090E+02</rscale>
<asrwt>0</asrwt>
<pdfrwt beam="1">  1       13 0.10000000E+01 0.62819090E+02</pdfrwt>
<pdfrwt beam="2">  1       22 0.49719831E+00 0.62819090E+02</pdfrwt>
<totfact> 0.75096603E-02</totfact>
</mgrwt>
</event>
<event>
 4    1  0.2505250E+000  0.5369707E+02  0.7957747E-01  0.1426363E+00
         13   -1    0    0    0    0  0.00000000000E+00  0.00000000000E+00  0.99999944182E+02  0.10000000000E+03  0.10566000000E+00 0. -1.
         22   -1    0    0    0    0 -0.00000000000E+00 -0.00000000000E+00 -0.13798661885E+02  0.13798661885E+02  0.00000000000E+00 0.  1.
         13    1    1    2    0    0 -0.18629625788E+02 -0.60260154628E+01  0.15248794126E+02  0.24817588636E+02  0.10566000000E+00 0.  1.
        996    1    1    2    0    0  0.18629625788E+02  0.60260154628E+01  0.70952488171E+02  0.88981073252E+02  0.50000000000E+02 0.  0.
<mgrwt>
<rscale>  0 0.53697075E+02</rscale>
<asrwt>0</asrwt>
<pdfrwt beam="1">  1       13 0.10000000E+01 0.53697075E+02</pdfrwt>
<pdfrwt beam="2">  1       22 0.13798686E+00 0.53697075E+02</pdfrwt>
<totfact> 0.86630010E-01</totfact>
</mgrwt>
</event>
<event>
 4    1  0.2505250E+000  0.5533574E+02  0.7957747E-01  0.1418518E+00
         13   -1    0    0    0    0  0.00000000000E+00  0.00000000000E+00  0.99999944174E+02  0.99999999995E+02  0.10566000000E+00 0. -1.
         22   -1    0    0    0    0 -0.00000000000E+00 -0.00000000000E+00 -0.37420409475E+02  0.37420409475E+02  0.00000000000E+00 0.  1.
         13    1    1    2    0    0  0.61414845424E+01 -0.22898164545E+02 -0.24598335042E+02  0.34163328626E+02  0.10566000000E+00 0.  1.
        996    1    1    2    0    0 -0.61414845424E+01  0.22898164545E+02  0.87177869741E+02  0.10325708084E+03  0.50000000000E+02 0.  0.
<mgrwt>
<rscale>  0 0.55335737E+02</rscale>
<asrwt>0</asrwt>
<pdfrwt beam="1">  1       13 0.10000000E+01 0.55335737E+02</pdfrwt>
<pdfrwt beam="2">  1       22 0.37420427E+00 0.55335737E+02</pdfrwt>
<totfact> 0.14014843E-01</totfact>
</mgrwt>
</event>
<event>
 4    1  0.2505250E+000  0.5158768E+02  0.7957747E-01  0.1436961E+00
         13   -1    0    0    0    0  0.00000000000E+00  0.00000000000E+00  0.99999944183E+02  0.10000000000E+03  0.10566000000E+00 0.  1.
         22   -1    0    0    0    0 -0.00000000000E+00 -0.00000000000E+00 -0.10520271238E+02  0.10520271238E+02  0.00000000000E+00 0.  1.
         13    1    1    2    0    0 -0.12396160432E+02 -0.27610637502E+01  0.12249151667E+02  0.17644861776E+02  0.10566000000E+00 0. -1.
        996    1    1    2    0    0  0.12396160432E+02  0.27610637502E+01  0.77230521279E+02  0.92875409466E+02  0.50000000000E+02 0.  0.
<mgrwt>
<rscale>  0 0.51587676E+02</rscale>
<asrwt>0</asrwt>
<pdfrwt beam="1">  1       13 0.10000000E+01 0.51587676E+02</pdfrwt>
<pdfrwt beam="2">  1       22 0.10520296E+00 0.51587676E+02</pdfrwt>
<totfact> 0.13079740E+00</totfact>
</mgrwt>
</event>
<event>
 4    1  0.2505250E+000  0.5152064E+02  0.7957747E-01  0.1437308E+00
         13   -1    0    0    0    0  0.00000000000E+00  0.00000000000E+00  0.99999944180E+02  0.10000000000E+03  0.10566000000E+00 0. -1.
         22   -1    0    0    0    0 -0.00000000000E+00 -0.00000000000E+00 -0.13703486430E+02  0.13703486430E+02  0.00000000000E+00 0. -1.
         13    1    1    2    0    0 -0.86092134994E+01 -0.89586539432E+01 -0.86336468101E+00  0.12455223810E+02  0.10566000000E+00 0.  1.
        996    1    1    2    0    0  0.86092134994E+01  0.89586539432E+01  0.87159822431E+02  0.10124826262E+03  0.50000000000E+02 0.  0.
<mgrwt>
<rscale>  0 0.51520637E+02</rscale>
<asrwt>0</asrwt>
<pdfrwt beam="1">  1       13 0.10000000E+01 0.51520637E+02</pdfrwt>
<pdfrwt beam="2">  1       22 0.13703511E+00 0.51520637E+02</pdfrwt>
<totfact> 0.87202946E-01</totfact>
</mgrwt>
</event>
<event>
 4    1  0.2505250E+000  0.5351331E+02  0.7957747E-01  0.1427263E+00
         13   -1    0    0    0    0  0.00000000000E+00  0.00000000000E+00  0.99999944172E+02  0.99999999993E+02  0.10566000000E+00 0.  1.
         22   -1    0    0    0    0 -0.00000000000E+00 -0.00000000000E+00 -0.19959055535E+02  0.19959055535E+02  0.00000000000E+00 0. -1.
         13    1    1    2    0    0 -0.85844624507E+01  0.17028850660E+02 -0.47870823746E+01  0.19662199065E+02  0.10566000000E+00 0. -1.
        996    1    1    2    0    0  0.85844624507E+01 -0.17028850660E+02  0.84827971012E+02  0.10029685646E+03  0.50000000000E+02 0.  0.
<mgrwt>
<rscale>  0 0.53513314E+02</rscale>
<asrwt>0</asrwt>
<pdfrwt beam="1">  1       13 0.10000000E+01 0.53513314E+02</pdfrwt>
<pdfrwt beam="2">  1       22 0.19959078E+00 0.53513314E+02</pdfrwt>
<totfact> 0.45603362E-01</totfact>
</mgrwt>
</event>
<event>
 4    1  0.2505250E+000  0.5112712E+02  0.7957747E-01  0.1439355E+00
         13   -1    0    0    0    0  0.00000000000E+00  0.00000000000E+00  0.99999944170E+02  0.99999999990E+02  0.10566000000E+00 0.  1.
         22   -1    0    0    0    0 -0.00000000000E+00 -0.00000000000E+00 -0.45422257557E+02  0.45422257557E+02  0.00000000000E+00 0. -1.
         13    1    1    2    0    0 -0.42782023167E+01  0.97815940936E+01 -0.38105263980E+02  0.39572779851E+02  0.10566000000E+00 0. -1.
        996    1    1    2    0    0  0.42782023167E+01 -0.97815940936E+01  0.92682950593E+02  0.10584947770E+03  0.50000000000E+02 0.  0.
<mgrwt>
<rscale>  0 0.51127122E+02</rscale>
<asrwt>0</asrwt>
<pdfrwt beam="1">  1       13 0.10000000E+01 0.51127122E+02</pdfrwt>
<pdfrwt beam="2">  1       22 0.45422273E+00 0.51127122E+02</pdfrwt>
<totfact> 0.94463157E-02</totfact>
</mgrwt>
</event>
<event>
 4    1  0.2505250E+000  0.5190133E+02  0.7957747E-01  0.1435348E+00
         13   -1    0    0    0    0  0.00000000000E+00  0.00000000000E+00  0.99999944185E+02  0.10000000000E+03  0.10566000000E+00 0.  1.
         22   -1    0    0    0    0 -0.00000000000E+00 -0.00000000000E+00 -0.10834258064E+02  0.10834258064E+02  0.00000000000E+00 0.  1.
         13    1    1    2    0    0  0.24117099526E+01  0.13708836229E+02  0.19647316818E+02  0.24078553899E+02  0.10566000000E+00 0. -1.
        996    1    1    2    0    0 -0.24117099526E+01 -0.13708836229E+02  0.69518369302E+02  0.86755704170E+02  0.50000000000E+02 0.  0.
<mgrwt>
<rscale>  0 0.51901335E+02</rscale>
<asrwt>0</asrwt>
<pdfrwt beam="1">  1       13 0.10000000E+01 0.51901335E+02</pdfrwt>
<pdfrwt beam="2">  1       22 0.10834283E+00 0.51901335E+02</pdfrwt>
<totfact> 0.12533781E+00</totfact>
</mgrwt>
</event>
<event>
 4    1  0.2505250E+000  0.5102859E+02  0.7957747E-01  0.1439871E+00
         13   -1    0    0    0    0  0.00000000000E+00  0.00000000000E+00  0.99999944173E+02  0.99999999994E+02  0.10566000000E+00 0. -1.
         22   -1    0    0    0    0 -0.00000000000E+00 -0.00000000000E+00 -0.94147189393E+01  0.94147189393E+01  0.00000000000E+00 0.  1.
         13    1    1    2    0    0  0.83644493441E+01  0.58268768978E+01  0.12430757663E+02  0.16076423960E+02  0.10566000000E+00 0.  1.
        996    1    1    2    0    0 -0.83644493441E+01 -0.58268768978E+01  0.78154467571E+02  0.93338294973E+02  0.50000000000E+02 0.  0.
<mgrwt>
<rscale>  0 0.51028585E+02</rscale>
<asrwt>0</asrwt>
<pdfrwt beam="1">  1       13 0.10000000E+01 0.51028585E+02</pdfrwt>
<pdfrwt beam="2">  1       22 0.94147442E-01 0.51028585E+02</pdfrwt>
<totfact> 0.15337586E+00</totfact>
</mgrwt>
</event>
<event>
 4    1  0.2505250E+000  0.5542536E+02  0.7957747E-01  0.1418098E+00
         13   -1    0    0    0    0  0.00000000000E+00  0.00000000000E+00  0.99999944180E+02  0.10000000000E+03  0.10566000000E+00 0. -1.
         22   -1    0    0    0    0 -0.00000000000E+00 -0.00000000000E+00 -0.22286240596E+02  0.22286240596E+02  0.00000000000E+00 0.  1.
         13    1    1    2    0    0  0.13331338348E+02 -0.19855635985E+02 -0.32838706223E+01  0.24140543341E+02  0.10566000000E+00 0.  1.
        996    1    1    2    0    0 -0.13331338348E+02  0.19855635985E+02  0.80997574206E+02  0.98145697256E+02  0.50000000000E+02 0.  0.
<mgrwt>
<rscale>  0 0.55425363E+02</rscale>
<asrwt>0</asrwt>
<pdfrwt beam="1">  1       13 0.10000000E+01 0.55425363E+02</pdfrwt>
<pdfrwt beam="2">  1       22 0.22286262E+00 0.55425363E+02</pdfrwt>
<totfact> 0.37098364E-01</totfact>
</mgrwt>
</event>
<event>
 4    1  0.2505250E+000  0.5106689E+02  0.7957747E-01  0.1439671E+00
         13   -1    0    0    0    0  0.00000000000E+00  0.00000000000E+00  0.99999944177E+02  0.99999999997E+02  0.10566000000E+00 0. -1.
         22   -1    0    0    0    0 -0.00000000000E+00 -0.00000000000E+00 -0.13037236416E+02  0.13037236416E+02  0.00000000000E+00 0. -1.
         13    1    1    2    0    0  0.36774587970E+01 -0.97110012454E+01 -0.18897840730E+01  0.10555079169E+02  0.10566000000E+00 0.  1.
        996    1    1    2    0    0 -0.36774587970E+01  0.97110012454E+01  0.88852491833E+02  0.10248215724E+03  0.50000000000E+02 0.  0.
<mgrwt>
<rscale>  0 0.51066890E+02</rscale>
<asrwt>0</asrwt>
<pdfrwt beam="1">  1       13 0.10000000E+01 0.51066890E+02</pdfrwt>
<pdfrwt beam="2">  1       22 0.13037261E+00 0.51066890E+02</pdfrwt>
<totfact> 0.94307089E-01</totfact>
</mgrwt>
</event>
<event>
 4    1  0.2505250E+000  0.5659350E+02  0.7957747E-01  0.1412710E+00
         13   -1    0    0    0    0  0.00000000000E+00  0.00000000000E+00  0.99999944180E+02  0.10000000000E+03  0.10566000000E+00 0.  1.
         22   -1    0    0    0    0 -0.00000000000E+00 -0.00000000000E+00 -0.24765984331E+02  0.24765984331E+02  0.00000000000E+00 0.  1.
         13    1    1    2    0    0  0.23642813473E+02 -0.11993395160E+02 -0.46003312578E+01  0.26907217769E+02  0.10566000000E+00 0. -1.
        996    1    1    2    0    0 -0.23642813473E+02  0.11993395160E+02  0.79834291107E+02  0.97858766561E+02  0.50000000000E+02 0.  0.
<mgrwt>
<rscale>  0 0.56593499E+02</rscale>
<asrwt>0</asrwt>
<pdfrwt beam="1">  1       13 0.10000000E+01 0.56593499E+02</pdfrwt>
<pdfrwt beam="2">  1       22 0.24766005E+00 0.56593499E+02</pdfrwt>
<totfact> 0.30238690E-01</totfact>
</mgrwt>
</event>
<event>
 4    1  0.2505250E+000  0.5189238E+02  0.7957747E-01  0.1435394E+00
         13   -1    0    0    0    0  0.00000000000E+00  0.00000000000E+00  0.99999944186E+02  0.10000000001E+03  0.10566000000E+00 0.  1.
         22   -1    0    0    0    0 -0.00000000000E+00 -0.00000000000E+00 -0.18179162278E+02  0.18179162278E+02  0.00000000000E+00 0. -1.
         13    1    1    2    0    0  0.10645802978E+02 -0.89154790256E+01 -0.68163475795E+01  0.15469086775E+02  0.10566000000E+00 0. -1.
        996    1    1    2    0    0 -0.10645802978E+02  0.89154790256E+01  0.88637129488E+02  0.10271007551E+03  0.50000000000E+02 0.  0.
<mgrwt>
<rscale>  0 0.51892378E+02</rscale>
<asrwt>0</asrwt>
<pdfrwt beam="1">  1       13 0.10000000E+01 0.51892378E+02</pdfrwt>
<pdfrwt beam="2">  1       22 0.18179185E+00 0.51892378E+02</pdfrwt>
<totfact> 0.53960604E-01</totfact>
</mgrwt>
</event>
<event>
 4    1  0.2505250E+000  0.5357860E+02  0.7957747E-01  0.1426943E+00
         13   -1    0    0    0    0  0.00000000000E+00  0.00000000000E+00  0.99999944180E+02  0.10000000000E+03  0.10566000000E+00 0. -1.
         22   -1    0    0    0    0 -0.00000000000E+00 -0.00000000000E+00 -0.15730039532E+02  0.15730039532E+02  0.00000000000E+00 0.  1.
         13    1    1    2    0    0 -0.82039570998E+01 -0.17417283444E+02  0.47263277841E+01  0.19824631473E+02  0.10566000000E+00 0.  1.
        996    1    1    2    0    0  0.82039570998E+01  0.17417283444E+02  0.79543576864E+02  0.95905408059E+02  0.50000000000E+02 0.  0.
<mgrwt>
<rscale>  0 0.53578603E+02</rscale>
<asrwt>0</asrwt>
<pdfrwt beam="1">  1       13 0.10000000E+01 0.53578603E+02</pdfrwt>
<pdfrwt beam="2">  1       22 0.15730063E+00 0.53578603E+02</pdfrwt>
<totfact> 0.69727652E-01</totfact>
</mgrwt>
</event>
<event>
 4    1  0.2505250E+000  0.5172243E+02  0.7957747E-01  0.1436267E+00
         13   -1    0    0    0    0  0.00000000000E+00  0.00000000000E+00  0.99999944181E+02  0.10000000000E+03  0.10566000000E+00 0.  1.
         22   -1    0    0    0    0 -0.00000000000E+00 -0.00000000000E+00 -0.17407856711E+02  0.17407856711E+02  0.00000000000E+00 0.  1.
         13    1    1    2    0    0  0.74386868363E+01  0.10948763801E+02 -0.62252427104E+01  0.14627860454E+02  0.10566000000E+00 0. -1.
        996    1    1    2    0    0 -0.74386868363E+01 -0.10948763801E+02  0.88817330180E+02  0.10277999626E+03  0.50000000000E+02 0.  0.
<mgrwt>
<rscale>  0 0.51722427E+02</rscale>
<asrwt>0</asrwt>
<pdfrwt beam="1">  1       13 0.10000000E+01 0.51722427E+02</pdfrwt>
<pdfrwt beam="2">  1       22 0.17407880E+00 0.51722427E+02</pdfrwt>
<totfact> 0.58281765E-01</totfact>
</mgrwt>
</event>
<event>
 4    1  0.2505250E+000  0.6344616E+02  0.7957747E-01  0.1383914E+00
         13   -1    0    0    0    0  0.00000000000E+00  0.00000000000E+00  0.99999944183E+02  0.10000000000E+03  0.10566000000E+00 0.  1.
         22   -1    0    0    0    0 -0.00000000000E+00 -0.00000000000E+00 -0.81788290882E+02  0.81788290882E+02  0.00000000000E+00 0. -1.
         13    1    1    2    0    0  0.24442688768E+02  0.30462599832E+02 -0.65795347969E+02  0.76514403880E+02  0.10566000000E+00 0. -1.
        996    1    1    2    0    0 -0.24442688768E+02 -0.30462599832E+02  0.84007001270E+02  0.10527388700E+03  0.50000000000E+02 0.  0.
<mgrwt>
<rscale>  0 0.63446158E+02</rscale>
<asrwt>0</asrwt>
<pdfrwt beam="1">  1       13 0.10000000E+01 0.63446158E+02</pdfrwt>
<pdfrwt beam="2">  1       22 0.81788296E+00 0.63446158E+02</pdfrwt>
<totfact> 0.26120473E-02</totfact>
</mgrwt>
</event>
<event>
 4    1  0.2505250E+000  0.5111583E+02  0.7957747E-01  0.1439414E+00
         13   -1    0    0    0    0  0.00000000000E+00  0.00000000000E+00  0.99999944176E+02  0.99999999996E+02  0.10566000000E+00 0.  1.
         22   -1    0    0    0    0 -0.00000000000E+00 -0.00000000000E+00 -0.41156139384E+02  0.41156139384E+02  0.00000000000E+00 0. -1.
         13    1    1    2    0    0  0.98729159589E+01  0.39184010471E+01 -0.33754339987E+02  0.35386366984E+02  0.10566000000E+00 0. -1.
        996    1    1    2    0    0 -0.98729159589E+01 -0.39184010471E+01  0.92598144779E+02  0.10576977240E+03  0.50000000000E+02 0.  0.
<mgrwt>
<rscale>  0 0.51115833E+02</rscale>
<asrwt>0</asrwt>
<pdfrwt beam="1">  1       13 0.10000000E+01 0.51115833E+02</pdfrwt>
<pdfrwt beam="2">  1       22 0.41156156E+00 0.51115833E+02</pdfrwt>
<totfact> 0.11696171E-01</totfact>
</mgrwt>
</event>
<event>
 4    1  0.2505250E+000  0.5139110E+02  0.7957747E-01  0.1437980E+00
         13   -1    0    0    0    0  0.00000000000E+00  0.00000000000E+00  0.99999944182E+02  0.10000000000E+03  0.10566000000E+00 0.  1.
         22   -1    0    0    0    0 -0.00000000000E+00 -0.00000000000E+00 -0.27256504381E+02  0.27256504381E+02  0.00000000000E+00 0. -1.
         13    1    1    2    0    0  0.11874525160E+02  0.20292280745E+00 -0.18821597997E+02  0.22255544043E+02  0.10566000000E+00 0. -1.
        996    1    1    2    0    0 -0.11874525160E+02 -0.20292280745E+00  0.91565037798E+02  0.10500096034E+03  0.50000000000E+02 0.  0.
<mgrwt>
<rscale>  0 0.51391104E+02</rscale>
<asrwt>0</asrwt>
<pdfrwt beam="1">  1       13 0.10000000E+01 0.51391104E+02</pdfrwt>
<pdfrwt beam="2">  1       22 0.27256525E+00 0.51391104E+02</pdfrwt>
<totfact> 0.24856477E-01</totfact>
</mgrwt>
</event>
<event>
 4    1  0.2505250E+000  0.5165707E+02  0.7957747E-01  0.1436603E+00
         13   -1    0    0    0    0  0.00000000000E+00  0.00000000000E+00  0.99999944178E+02  0.99999999999E+02  0.10566000000E+00 0. -1.
         22   -1    0    0    0    0 -0.00000000000E+00 -0.00000000000E+00 -0.33986984398E+02  0.33986984398E+02  0.00000000000E+00 0.  1.
         13    1    1    2    0    0 -0.25849438335E+01 -0.12718912183E+02 -0.25663248094E+02  0.28758757423E+02  0.10566000000E+00 0.  1.
        996    1    1    2    0    0  0.25849438335E+01  0.12718912183E+02  0.91676207874E+02  0.10522822697E+03  0.50000000000E+02 0.  0.
<mgrwt>
<rscale>  0 0.51657068E+02</rscale>
<asrwt>0</asrwt>
<pdfrwt beam="1">  1       13 0.10000000E+01 0.51657068E+02</pdfrwt>
<pdfrwt beam="2">  1       22 0.33987003E+00 0.51657068E+02</pdfrwt>
<totfact> 0.16534485E-01</totfact>
</mgrwt>
</event>
<event>
 4    1  0.2505250E+000  0.6027125E+02  0.7957747E-01  0.1396697E+00
         13   -1    0    0    0    0  0.00000000000E+00  0.00000000000E+00  0.99999944183E+02  0.10000000000E+03  0.10566000000E+00 0.  1.
         22   -1    0    0    0    0 -0.00000000000E+00 -0.00000000000E+00 -0.30775520089E+02  0.30775520089E+02  0.00000000000E+00 0. -1.
         13    1    1    2    0    0  0.32907440488E+02  0.70515473958E+01 -0.62070616227E+01  0.34222255013E+02  0.10566000000E+00 0. -1.
        996    1    1    2    0    0 -0.32907440488E+02 -0.70515473958E+01  0.75431485716E+02  0.96553265079E+02  0.50000000000E+02 0.  0.
<mgrwt>
<rscale>  0 0.60271253E+02</rscale>
<asrwt>0</asrwt>
<pdfrwt beam="1">  1       13 0.10000000E+01 0.60271253E+02</pdfrwt>
<pdfrwt beam="2">  1       22 0.30775539E+00 0.60271253E+02</pdfrwt>
<totfact> 0.19940749E-01</totfact>
</mgrwt>
</event>
<event>
 4    1  0.2505250E+000  0.5737357E+02  0.7957747E-01  0.1409196E+00
         13   -1    0    0    0    0  0.00000000000E+00  0.00000000000E+00  0.99999944182E+02  0.10000000000E+03  0.10566000000E+00 0.  1.
         22   -1    0    0    0    0 -0.00000000000E+00 -0.00000000000E+00 -0.22068542293E+02  0.22068542293E+02  0.00000000000E+00 0.  1.
         13    1    1    2    0    0  0.27497261722E+02  0.59688901554E+01  0.51961827385E+02  0.59091198338E+02  0.10566000000E+00 0. -1.
        996    1    1    2    0    0 -0.27497261722E+02 -0.59688901554E+01  0.25969574504E+02  0.62977343957E+02  0.50000000000E+02 0.  0.
<mgrwt>
<rscale>  0 0.57373575E+02</rscale>
<asrwt>0</asrwt>
<pdfrwt beam="1">  1       13 0.10000000E+01 0.57373575E+02</pdfrwt>
<pdfrwt beam="2">  1       22 0.22068564E+00 0.57373575E+02</pdfrwt>
<totfact> 0.37922960E-01</totfact>
</mgrwt>
</event>
<event>
 4    1  0.2505250E+000  0.5160562E+02  0.7957747E-01  0.1436869E+00
         13   -1    0    0    0    0  0.00000000000E+00  0.00000000000E+00  0.99999944181E+02  0.10000000000E+03  0.10566000000E+00 0. -1.
         22   -1    0    0    0    0 -0.00000000000E+00 -0.00000000000E+00 -0.14072870039E+02  0.14072870039E+02  0.00000000000E+00 0.  1.
         13    1    1    2    0    0 -0.93821059098E+01  0.86669466947E+01 -0.11792382020E+01  0.12827378652E+02  0.10566000000E+00 0.  1.
        996    1    1    2    0    0  0.93821059098E+01 -0.86669466947E+01  0.87106312344E+02  0.10124549139E+03  0.50000000000E+02 0.  0.
<mgrwt>
<rscale>  0 0.51605619E+02</rscale>
<asrwt>0</asrwt>
<pdfrwt beam="1">  1       13 0.10000000E+01 0.51605619E+02</pdfrwt>
<pdfrwt beam="2">  1       22 0.14072894E+00 0.51605619E+02</pdfrwt>
<totfact> 0.83550924E-01</totfact>
</mgrwt>
</event>
<event>
 4    1  0.2505250E+000  0.5444055E+02  0.7957747E-01  0.1422763E+00
         13   -1    0    0    0    0  0.00000000000E+00  0.00000000000E+00  0.99999944168E+02  0.99999999988E+02  0.10566000000E+00 0.  1.
         22   -1    0    0    0    0 -0.00000000000E+00 -0.00000000000E+00 -0.73547379831E+02  0.73547379831E+02  0.00000000000E+00 0. -1.
         13    1    1    2    0    0 -0.26586127552E+01  0.21370660602E+02 -0.64248876471E+02  0.67762103334E+02  0.10566000000E+00 0. -1.
        996    1    1    2    0    0  0.26586127552E+01 -0.21370660602E+02  0.90701440809E+02  0.10578527649E+03  0.50000000000E+02 0.  0.
<mgrwt>
<rscale>  0 0.54440549E+02</rscale>
<asrwt>0</asrwt>
<pdfrwt beam="1">  1       13 0.10000000E+01 0.54440549E+02</pdfrwt>
<pdfrwt beam="2">  1       22 0.73547387E+00 0.54440549E+02</pdfrwt>
<totfact> 0.55978827E-02</totfact>
</mgrwt>
</event>
<event>
 4    1  0.2505250E+000  0.5690606E+02  0.7957747E-01  0.1411294E+00
         13   -1    0    0    0    0  0.00000000000E+00  0.00000000000E+00  0.99999944177E+02  0.99999999997E+02  0.10566000000E+00 0. -1.
         22   -1    0    0    0    0 -0.00000000000E+00 -0.00000000000E+00 -0.33052367040E+02  0.33052367040E+02  0.00000000000E+00 0.  1.
         13    1    1    2    0    0  0.23442836221E+02  0.13738010008E+02 -0.16692250919E+02  0.31889526398E+02  0.10566000000E+00 0.  1.
        996    1    1    2    0    0 -0.23442836221E+02 -0.13738010008E+02  0.83639828056E+02  0.10116284064E+03  0.50000000000E+02 0.  0.
<mgrwt>
<rscale>  0 0.56906058E+02</rscale>
<asrwt>0</asrwt>
<pdfrwt beam="1">  1       13 0.10000000E+01 0.56906058E+02</pdfrwt>
<pdfrwt beam="2">  1       22 0.33052386E+00 0.56906058E+02</pdfrwt>
<totfact> 0.17463604E-01</totfact>
</mgrwt>
</event>
<event>
 4    1  0.2505250E+000  0.6566608E+02  0.7957747E-01  0.1375483E+00
         13   -1    0    0    0    0  0.00000000000E+00  0.00000000000E+00  0.99999944176E+02  0.99999999996E+02  0.10566000000E+00 0. -1.
         22   -1    0    0    0    0 -0.00000000000E+00 -0.00000000000E+00 -0.50991816627E+02  0.50991816627E+02  0.00000000000E+00 0.  1.
         13    1    1    2    0    0 -0.39164255108E+02 -0.16679165967E+02 -0.27106462076E+02  0.50465878630E+02  0.10566000000E+00 0.  1.
        996    1    1    2    0    0  0.39164255108E+02  0.16679165967E+02  0.76114589626E+02  0.10052593799E+03  0.50000000000E+02 0.  0.
<mgrwt>
<rscale>  0 0.65666075E+02</rscale>
<asrwt>0</asrwt>
<pdfrwt beam="1">  1       13 0.10000000E+01 0.65666075E+02</pdfrwt>
<pdfrwt beam="2">  1       22 0.50991830E+00 0.65666075E+02</pdfrwt>
<totfact> 0.70145644E-02</totfact>
</mgrwt>
</event>
<event>
 4    1  0.2505250E+000  0.5357720E+02  0.7957747E-01  0.1426950E+00
         13   -1    0    0    0    0  0.00000000000E+00  0.00000000000E+00  0.99999944185E+02  0.10000000001E+03  0.10566000000E+00 0. -1.
         22   -1    0    0    0    0 -0.00000000000E+00 -0.00000000000E+00 -0.19607132816E+02  0.19607132816E+02  0.00000000000E+00 0.  1.
         13    1    1    2    0    0  0.75942412077E+01  0.17687381221E+02 -0.39842772929E+01  0.19657100080E+02  0.10566000000E+00 0.  1.
        996    1    1    2    0    0 -0.75942412077E+01 -0.17687381221E+02  0.84377088662E+02  0.99950032742E+02  0.50000000000E+02 0.  0.
<mgrwt>
<rscale>  0 0.53577196E+02</rscale>
<asrwt>0</asrwt>
<pdfrwt beam="1">  1       13 0.10000000E+01 0.53577196E+02</pdfrwt>
<pdfrwt beam="2">  1       22 0.19607155E+00 0.53577196E+02</pdfrwt>
<totfact> 0.47142426E-01</totfact>
</mgrwt>
</event>
<event>
 4    1  0.2505250E+000  0.5102512E+02  0.7957747E-01  0.1439889E+00
         13   -1    0    0    0    0  0.00000000000E+00  0.00000000000E+00  0.99999944177E+02  0.99999999997E+02  0.10566000000E+00 0.  1.
         22   -1    0    0    0    0 -0.00000000000E+00 -0.00000000000E+00 -0.18297912740E+02  0.18297912740E+02  0.00000000000E+00 0. -1.
         13    1    1    2    0    0  0.43745847648E+01  0.91883747225E+01 -0.94166027745E+01  0.13865309003E+02  0.10566000000E+00 0. -1.
        996    1    1    2    0    0 -0.43745847648E+01 -0.91883747225E+01  0.91118634211E+02  0.10443260373E+03  0.50000000000E+02 0.  0.
<mgrwt>
<rscale>  0 0.51025123E+02</rscale>
<asrwt>0</asrwt>
<pdfrwt beam="1">  1       13 0.10000000E+01 0.51025123E+02</pdfrwt>
<pdfrwt beam="2">  1       22 0.18297936E+00 0.51025123E+02</pdfrwt>
<totfact> 0.53243601E-01</totfact>
</mgrwt>
</event>
<event>
 4    1  0.2505250E+000  0.5610388E+02  0.7957747E-01  0.1414950E+00
         13   -1    0    0    0    0  0.00000000000E+00  0.00000000000E+00  0.99999944173E+02  0.99999999994E+02  0.10566000000E+00 0.  1.
         22   -1    0    0    0    0 -0.00000000000E+00 -0.00000000000E+00 -0.28241164131E+02  0.28241164131E+02  0.00000000000E+00 0. -1.
         13    1    1    2    0    0  0.14656945715E+02  0.20804305365E+02 -0.11432904414E+02  0.27899240972E+02  0.10566000000E+00 0. -1.
        996    1    1    2    0    0 -0.14656945715E+02 -0.20804305365E+02  0.83191684456E+02  0.10034192315E+03  0.50000000000E+02 0.  0.
<mgrwt>
<rscale>  0 0.56103878E+02</rscale>
<asrwt>0</asrwt>
<pdfrwt beam="1">  1       13 0.10000000E+01 0.56103878E+02</pdfrwt>
<pdfrwt beam="2">  1       22 0.28241184E+00 0.56103878E+02</pdfrwt>
<totfact> 0.23352284E-01</totfact>
</mgrwt>
</event>
<event>
 4    1  0.2505250E+000  0.5247430E+02  0.7957747E-01  0.1432435E+00
         13   -1    0    0    0    0  0.00000000000E+00  0.00000000000E+00  0.99999944171E+02  0.99999999991E+02  0.10566000000E+00 0. -1.
         22   -1    0    0    0    0 -0.00000000000E+00 -0.00000000000E+00 -0.38135758658E+02  0.38135758658E+02  0.00000000000E+00 0.  1.
         13    1    1    2    0    0 -0.11688111940E+02  0.10813879239E+02 -0.29070995032E+02  0.33146430594E+02  0.10566000000E+00 0.  1.
        996    1    1    2    0    0  0.11688111940E+02 -0.10813879239E+02  0.90935180544E+02  0.10498932806E+03  0.50000000000E+02 0.  0.
<mgrwt>
<rscale>  0 0.52474298E+02</rscale>
<asrwt>0</asrwt>
<pdfrwt beam="1">  1       13 0.10000000E+01 0.52474298E+02</pdfrwt>
<pdfrwt beam="2">  1       22 0.38135776E+00 0.52474298E+02</pdfrwt>
<totfact> 0.13513051E-01</totfact>
</mgrwt>
</event>
<event>
 4    1  0.2505250E+000  0.5691139E+02  0.7957747E-01  0.1411270E+00
         13   -1    0    0    0    0  0.00000000000E+00  0.00000000000E+00  0.99999944178E+02  0.99999999998E+02  0.10566000000E+00 0.  1.
         22   -1    0    0    0    0 -0.00000000000E+00 -0.00000000000E+00 -0.27983675327E+02  0.27983675327E+02  0.00000000000E+00 0. -1.
         13    1    1    2    0    0 -0.42265004547E+01 -0.26852252412E+02 -0.93002948154E+01  0.28730008934E+02  0.10566000000E+00 0. -1.
        996    1    1    2    0    0  0.42265004547E+01  0.26852252412E+02  0.81316563666E+02  0.99253666391E+02  0.50000000000E+02 0.  0.
<mgrwt>
<rscale>  0 0.56911394E+02</rscale>
<asrwt>0</asrwt>
<pdfrwt beam="1">  1       13 0.10000000E+01 0.56911394E+02</pdfrwt>
<pdfrwt beam="2">  1       22 0.27983695E+00 0.56911394E+02</pdfrwt>
<totfact> 0.23795625E-01</totfact>
</mgrwt>
</event>
<event>
 4    1  0.2505250E+000  0.5121494E+02  0.7957747E-01  0.1438897E+00
         13   -1    0    0    0    0  0.00000000000E+00  0.00000000000E+00  0.99999944182E+02  0.10000000000E+03  0.10566000000E+00 0. -1.
         22   -1    0    0    0    0 -0.00000000000E+00 -0.00000000000E+00 -0.10146991199E+02  0.10146991199E+02  0.00000000000E+00 0. -1.
         13    1    1    2    0    0  0.38425844443E+01  0.10402150185E+02  0.83227658736E+01  0.13865416673E+02  0.10566000000E+00 0.  1.
        996    1    1    2    0    0 -0.38425844443E+01 -0.10402150185E+02  0.81530187109E+02  0.96281574528E+02  0.50000000000E+02 0.  0.
<mgrwt>
<rscale>  0 0.51214941E+02</rscale>
<asrwt>0</asrwt>
<pdfrwt beam="1">  1       13 0.10000000E+01 0.51214941E+02</pdfrwt>
<pdfrwt beam="2">  1       22 0.10147016E+00 0.51214941E+02</pdfrwt>
<totfact> 0.13776360E+00</totfact>
</mgrwt>
</event>
<event>
 4    1  0.2505250E+000  0.6021045E+02  0.7957747E-01  0.1396951E+00
         13   -1    0    0    0    0  0.00000000000E+00  0.00000000000E+00  0.99999944175E+02  0.99999999996E+02  0.10566000000E+00 0. -1.
         22   -1    0    0    0    0 -0.00000000000E+00 -0.00000000000E+00 -0.22079251014E+02  0.22079251014E+02  0.00000000000E+00 0.  1.
         13    1    1    2    0    0 -0.31832985421E+02 -0.10581060217E+02  0.23919207160E+02  0.41199968827E+02  0.10566000000E+00 0.  1.
        996    1    1    2    0    0  0.31832985421E+02  0.10581060217E+02  0.54001486001E+02  0.80879282183E+02  0.50000000000E+02 0.  0.
<mgrwt>
<rscale>  0 0.60210446E+02</rscale>
<asrwt>0</asrwt>
<pdfrwt beam="1">  1       13 0.10000000E+01 0.60210446E+02</pdfrwt>
<pdfrwt beam="2">  1       22 0.22079273E+00 0.60210446E+02</pdfrwt>
<totfact> 0.38048033E-01</totfact>
</mgrwt>
</event>
<event>
 4    1  0.2505250E+000  0.5116681E+02  0.7957747E-01  0.1439148E+00
         13   -1    0    0    0    0  0.00000000000E+00  0.00000000000E+00  0.99999944182E+02  0.10000000000E+03  0.10566000000E+00 0.  1.
         22   -1    0    0    0    0 -0.00000000000E+00 -0.00000000000E+00 -0.37641738658E+02  0.37641738658E+02  0.00000000000E+00 0. -1.
         13    1    1    2    0    0 -0.10609628498E+02  0.23405041445E+01 -0.30082811678E+02  0.31984822948E+02  0.10566000000E+00 0. -1.
        996    1    1    2    0    0  0.10609628498E+02 -0.23405041445E+01  0.92441017202E+02  0.10565691571E+03  0.50000000000E+02 0.  0.
<mgrwt>
<rscale>  0 0.51166807E+02</rscale>
<asrwt>0</asrwt>
<pdfrwt beam="1">  1       13 0.10000000E+01 0.51166807E+02</pdfrwt>
<pdfrwt beam="2">  1       22 0.37641756E+00 0.51166807E+02</pdfrwt>
<totfact> 0.13817072E-01</totfact>
</mgrwt>
</event>
<event>
 4    1  0.2505250E+000  0.5232033E+02  0.7957747E-01  0.1433214E+00
         13   -1    0    0    0    0  0.00000000000E+00  0.00000000000E+00  0.99999944184E+02  0.10000000000E+03  0.10566000000E+00 0. -1.
         22   -1    0    0    0    0 -0.00000000000E+00 -0.00000000000E+00 -0.11824015171E+02  0.11824015171E+02  0.00000000000E+00 0. -1.
         13    1    1    2    0    0 -0.93741060180E+00 -0.15379811395E+02  0.12598224858E+02  0.19903360791E+02  0.10566000000E+00 0.  1.
        996    1    1    2    0    0  0.93741060180E+00  0.15379811395E+02  0.75577704155E+02  0.91920654384E+02  0.50000000000E+02 0.  0.
<mgrwt>
<rscale>  0 0.52320334E+02</rscale>
<asrwt>0</asrwt>
<pdfrwt beam="1">  1       13 0.10000000E+01 0.52320334E+02</pdfrwt>
<pdfrwt beam="2">  1       22 0.11824040E+00 0.52320334E+02</pdfrwt>
<totfact> 0.11002692E+00</totfact>
</mgrwt>
</event>
<event>
 4    1  0.2505250E+000  0.5300895E+02  0.7957747E-01  0.1429756E+00
         13   -1    0    0    0    0  0.00000000000E+00  0.00000000000E+00  0.99999944178E+02  0.99999999998E+02  0.10566000000E+00 0. -1.
         22   -1    0    0    0    0 -0.00000000000E+00 -0.00000000000E+00 -0.25264958196E+02  0.25264958196E+02  0.00000000000E+00 0.  1.
         13    1    1    2    0    0  0.10107917110E+02 -0.14414516173E+02 -0.13599094776E+02  0.22246231312E+02  0.10566000000E+00 0.  1.
        996    1    1    2    0    0 -0.10107917110E+02  0.14414516173E+02  0.88334080758E+02  0.10301872688E+03  0.50000000000E+02 0.  0.
<mgrwt>
<rscale>  0 0.53008945E+02</rscale>
<asrwt>0</asrwt>
<pdfrwt beam="1">  1       13 0.10000000E+01 0.53008945E+02</pdfrwt>
<pdfrwt beam="2">  1       22 0.25264979E+00 0.53008945E+02</pdfrwt>
<totfact> 0.28919064E-01</totfact>
</mgrwt>
</event>
<event>
 4    1  0.2505250E+000  0.6691862E+02  0.7957747E-01  0.1370896E+00
         13   -1    0    0    0    0  0.00000000000E+00  0.00000000000E+00  0.99999944184E+02  0.10000000000E+03  0.10566000000E+00 0.  1.
         22   -1    0    0    0    0 -0.00000000000E+00 -0.00000000000E+00 -0.31196387544E+02  0.31196387544E+02  0.00000000000E+00 0. -1.
         13    1    1    2    0    0  0.14595815245E+02 -0.42012661576E+02  0.22703341095E+02  0.49935502563E+02  0.10566000000E+00 0. -1.
        996    1    1    2    0    0 -0.14595815245E+02  0.42012661576E+02  0.46100215545E+02  0.81260884986E+02  0.50000000000E+02 0.  0.
<mgrwt>
<rscale>  0 0.66918619E+02</rscale>
<asrwt>0</asrwt>
<pdfrwt beam="1">  1       13 0.10000000E+01 0.66918619E+02</pdfrwt>
<pdfrwt beam="2">  1       22 0.31196407E+00 0.66918619E+02</pdfrwt>
<totfact> 0.19579656E-01</totfact>
</mgrwt>
</event>
<event>
 4    1  0.2505250E+000  0.5434868E+02  0.7957747E-01  0.1423204E+00
         13   -1    0    0    0    0  0.00000000000E+00  0.00000000000E+00  0.99999944184E+02  0.10000000000E+03  0.10566000000E+00 0. -1.
         22   -1    0    0    0    0 -0.00000000000E+00 -0.00000000000E+00 -0.25444126395E+02  0.25444126395E+02  0.00000000000E+00 0.  1.
         13    1    1    2    0    0  0.20750390407E+02 -0.48166608765E+01 -0.11084858714E+02  0.24013833113E+02  0.10566000000E+00 0.  1.
        996    1    1    2    0    0 -0.20750390407E+02  0.48166608765E+01  0.85640676504E+02  0.10143029329E+03  0.50000000000E+02 0.  0.
<mgrwt>
<rscale>  0 0.54348679E+02</rscale>
<asrwt>0</asrwt>
<pdfrwt beam="1">  1       13 0.10000000E+01 0.54348679E+02</pdfrwt>
<pdfrwt beam="2">  1       22 0.25444147E+00 0.54348679E+02</pdfrwt>
<totfact> 0.28576712E-01</totfact>
</mgrwt>
</event>
<event>
 4    1  0.2505250E+000  0.5559247E+02  0.7957747E-01  0.1417318E+00
         13   -1    0    0    0    0  0.00000000000E+00  0.00000000000E+00  0.99999944191E+02  0.10000000001E+03  0.10566000000E+00 0.  1.
         22   -1    0    0    0    0 -0.00000000000E+00 -0.00000000000E+00 -0.31142749735E+02  0.31142749735E+02  0.00000000000E+00 0. -1.
         13    1    1    2    0    0  0.22775347608E+02 -0.84738275545E+01 -0.16432150526E+02  0.29335114573E+02  0.10566000000E+00 0. -1.
        996    1    1    2    0    0 -0.22775347608E+02  0.84738275545E+01  0.85289344981E+02  0.10180763517E+03  0.50000000000E+02 0.  0.
<mgrwt>
<rscale>  0 0.55592465E+02</rscale>
<asrwt>0</asrwt>
<pdfrwt beam="1">  1       13 0.10000000E+01 0.55592465E+02</pdfrwt>
<pdfrwt beam="2">  1       22 0.31142769E+00 0.55592465E+02</pdfrwt>
<totfact> 0.19407803E-01</totfact>
</mgrwt>
</event>
