<event>
 5    1  0.1574792E-008  0.3745687E+03  0.7957747E-01  0.3475154E+00
         13   -1    0    0    0    0  0.00000000000E+00  0.00000000000E+00  0.14999999963E+04  0.15000000000E+04  0.10566000000E+00 0. -1.
        994   -1    0    0    0    0 -0.00000000000E+00 -0.00000000000E+00  0.11368683772E-12  0.17120000000E+03  0.17120000000E+03 0.  0.
         13    1    1    2    0    0 -0.28518722592E+01  0.11397658429E+02  0.67627802208E+01  0.13556775184E+02  0.10566000000E+00 0. -1.
        994    1    1    2    0    0  0.85202910814E+01 -0.12207117068E+02  0.76551049678E+01  0.17201642276E+03  0.17120000000E+03 0.  0.
        998    1    1    2    0    0 -0.56684188222E+01  0.80945863906E+00  0.14855821111E+04  0.14856268021E+04  0.10000000000E+02 0. -1.
</event>
<event>
 5    1  0.1574792E-008  0.3760371E+03  0.7957747E-01  0.3468598E+00
         13   -1    0    0    0    0  0.00000000000E+00  0.00000000000E+00  0.14999999963E+04  0.15000000000E+04  0.10566000000E+00 0. -1.
        994   -1    0    0    0    0 -0.00000000000E+00 -0.00000000000E+00  0.11368683772E-12  0.17120000000E+03  0.17120000000E+03 0.  0.
         13    1    1    2    0    0 -0.63839389457E+02 -0.16744106844E+02  0.37808327709E+03  0.38380047986E+03  0.10566000000E+00 0. -1.
        994    1    1    2    0    0  0.34544035533E+02 -0.10990864937E+02  0.10611371245E+02  0.17531722877E+03  0.17120000000E+03 0.  0.
        998    1    1    2    0    0  0.29295353923E+02  0.27734971781E+02  0.11113053479E+04  0.11120822914E+04  0.10000000000E+02 0. -1.
</event>
<event>
 5    1  0.1574792E-008  0.3771049E+03  0.7957747E-01  0.3463862E+00
         13   -1    0    0    0    0  0.00000000000E+00  0.00000000000E+00  0.14999999963E+04  0.15000000000E+04  0.10566000000E+00 0. -1.
        994   -1    0    0    0    0 -0.00000000000E+00 -0.00000000000E+00  0.11368683772E-12  0.17120000000E+03  0.17120000000E+03 0.  0.
         13    1    1    2    0    0  0.19985454360E+02  0.33782894778E+02  0.14850447838E+03  0.15360434118E+03  0.10566000000E+00 0. -1.
        994    1    1    2    0    0  0.23027724967E+02 -0.22670502972E+02  0.91343428169E+01  0.17446232843E+03  0.17120000000E+03 0.  0.
        998    1    1    2    0    0 -0.43013179327E+02 -0.11112391806E+02  0.13423611751E+04  0.13431333304E+04  0.10000000000E+02 0. -1.
</event>
<event>
 5    1  0.1574792E-008  0.3843253E+03  0.7957747E-01  0.3432539E+00
         13   -1    0    0    0    0  0.00000000000E+00  0.00000000000E+00  0.14999999963E+04  0.15000000000E+04  0.10566000000E+00 0.  1.
        994   -1    0    0    0    0 -0.00000000000E+00 -0.00000000000E+00  0.11368683772E-12  0.17120000000E+03  0.17120000000E+03 0.  0.
         13    1    1    2    0    0  0.19871788994E+02 -0.44225819218E+01  0.11295770518E+03  0.11477761782E+03  0.10566000000E+00 0.  1.
        994    1    1    2    0    0 -0.25538031912E+01  0.48537117668E+01  0.20646152508E+01  0.17130027164E+03  0.17120000000E+03 0.  0.
        998    1    1    2    0    0 -0.17317985802E+02 -0.43112984497E+00  0.13849776759E+04  0.13851221105E+04  0.10000000000E+02 0.  1.
</event>
<event>
 5    1  0.1574792E-008  0.3798998E+03  0.7957747E-01  0.3451595E+00
         13   -1    0    0    0    0  0.00000000000E+00  0.00000000000E+00  0.14999999963E+04  0.15000000000E+04  0.10566000000E+00 0.  1.
        994   -1    0    0    0    0 -0.00000000000E+00 -0.00000000000E+00  0.11368683772E-12  0.17120000000E+03  0.17120000000E+03 0.  0.
         13    1    1    2    0    0  0.22553863845E+03  0.11731793206E+03  0.91411516735E+03  0.94880858183E+03  0.10566000000E+00 0.  1.
        994    1    1    2    0    0 -0.23257326584E+03 -0.14313380140E+03  0.31729390679E+03  0.45228583039E+03  0.17120000000E+03 0.  0.
        998    1    1    2    0    0  0.70346273933E+01  0.25815869343E+02  0.26859092214E+03  0.27010558778E+03  0.10000000000E+02 0. -1.
</event>
<event>
 5    1  0.1574792E-008  0.3747779E+03  0.7957747E-01  0.3474217E+00
         13   -1    0    0    0    0  0.00000000000E+00  0.00000000000E+00  0.14999999963E+04  0.15000000000E+04  0.10566000000E+00 0. -1.
        994   -1    0    0    0    0 -0.00000000000E+00 -0.00000000000E+00  0.11368683772E-12  0.17120000000E+03  0.17120000000E+03 0.  0.
         13    1    1    2    0    0  0.15267212795E+02  0.23364254331E+02  0.55535946849E+02  0.62154876908E+02  0.10566000000E+00 0. -1.
        994    1    1    2    0    0 -0.24909832110E+02 -0.97735114406E-01  0.89065159006E+01  0.17323185421E+03  0.17120000000E+03 0.  0.
        998    1    1    2    0    0  0.96426193151E+01 -0.23266519216E+02  0.14355575335E+04  0.14358132689E+04  0.10000000000E+02 0. -1.
</event>
<event>
 5    1  0.1760418E-008  0.3860333E+03  0.7957747E-01  0.3425302E+00
         13   -1    0    0    0    0  0.00000000000E+00  0.00000000000E+00  0.14999999963E+04  0.15000000000E+04  0.10566000000E+00 0.  1.
        994   -1    0    0    0    0 -0.00000000000E+00 -0.00000000000E+00  0.11368683772E-12  0.17120000000E+03  0.17120000000E+03 0.  0.
         13    1    1    2    0    0  0.12295785710E+02  0.16848042286E+01  0.70204164240E+02  0.71292781908E+02  0.10566000000E+00 0.  1.
        994    1    1    2    0    0 -0.67288187266E+01 -0.53553193683E+01  0.13604368594E+01  0.17142125666E+03  0.17120000000E+03 0.  0.
        998    1    1    2    0    0 -0.55669669832E+01  0.36705151397E+01  0.14284353952E+04  0.14284859614E+04  0.10000000000E+02 0.  1.
</event>
<event>
 5    1  0.1574792E-008  0.3834401E+03  0.7957747E-01  0.3436315E+00
         13   -1    0    0    0    0  0.00000000000E+00  0.00000000000E+00  0.14999999963E+04  0.15000000000E+04  0.10566000000E+00 0. -1.
        994   -1    0    0    0    0 -0.00000000000E+00 -0.00000000000E+00  0.11368683772E-12  0.17120000000E+03  0.17120000000E+03 0.  0.
         13    1    1    2    0    0  0.24494721715E+02 -0.86937136899E+01  0.14995530898E+03  0.15219125436E+03  0.10566000000E+00 0. -1.
        994    1    1    2    0    0 -0.51159129337E+01  0.67231495082E+01  0.26425271884E+01  0.17142869146E+03  0.17120000000E+03 0.  0.
        998    1    1    2    0    0 -0.19378808781E+02  0.19705641817E+01  0.13474021601E+04  0.13475800542E+04  0.10000000000E+02 0. -1.
</event>
<event>
 5    1  0.1574792E-008  0.3848440E+03  0.7957747E-01  0.3430334E+00
         13   -1    0    0    0    0  0.00000000000E+00  0.00000000000E+00  0.14999999963E+04  0.15000000000E+04  0.10566000000E+00 0.  1.
        994   -1    0    0    0    0 -0.00000000000E+00 -0.00000000000E+00  0.11368683772E-12  0.17120000000E+03  0.17120000000E+03 0.  0.
         13    1    1    2    0    0 -0.13578401610E+02 -0.45186233680E+01  0.66140902026E+02  0.67671419612E+02  0.10566000000E+00 0.  1.
        994    1    1    2    0    0 -0.38949386237E+01 -0.77081417502E+01  0.19530527848E+01  0.17142882025E+03  0.17120000000E+03 0.  0.
        998    1    1    2    0    0  0.17473340234E+02  0.12226765118E+02  0.14319060415E+04  0.14320997601E+04  0.10000000000E+02 0.  1.
</event>
<event>
 5    1  0.1574792E-008  0.3750010E+03  0.7957747E-01  0.3473218E+00
         13   -1    0    0    0    0  0.00000000000E+00  0.00000000000E+00  0.14999999963E+04  0.15000000000E+04  0.10566000000E+00 0.  1.
        994   -1    0    0    0    0 -0.00000000000E+00 -0.00000000000E+00  0.11368683772E-12  0.17120000000E+03  0.17120000000E+03 0.  0.
         13    1    1    2    0    0 -0.26899405780E+02  0.20461128119E+02  0.91032100676E+02  0.97103503092E+02  0.10566000000E+00 0.  1.
        994    1    1    2    0    0  0.35202852982E+01  0.69033115424E+01  0.68823494953E+01  0.17151342470E+03  0.17120000000E+03 0.  0.
        998    1    1    2    0    0  0.23379120482E+02 -0.27364439661E+02  0.14020855461E+04  0.14025830722E+04  0.10000000000E+02 0.  1.
</event>
<event>
 5    1  0.1574792E-008  0.3840432E+03  0.7957747E-01  0.3433740E+00
         13   -1    0    0    0    0  0.00000000000E+00  0.00000000000E+00  0.14999999963E+04  0.15000000000E+04  0.10566000000E+00 0. -1.
        994   -1    0    0    0    0 -0.00000000000E+00 -0.00000000000E+00  0.11368683772E-12  0.17120000000E+03  0.17120000000E+03 0.  0.
         13    1    1    2    0    0 -0.10974923359E+01  0.11707453816E+02  0.31520012688E+02  0.33642106477E+02  0.10566000000E+00 0. -1.
        994    1    1    2    0    0  0.80346798080E+01 -0.13158196410E+02  0.28904401088E+01  0.17191709879E+03  0.17120000000E+03 0.  0.
        998    1    1    2    0    0 -0.69371874721E+01  0.14507425945E+01  0.14655895435E+04  0.14656407947E+04  0.10000000000E+02 0. -1.
</event>
<event>
 5    1  0.1574792E-008  0.3849101E+03  0.7957747E-01  0.3430053E+00
         13   -1    0    0    0    0  0.00000000000E+00  0.00000000000E+00  0.14999999963E+04  0.15000000000E+04  0.10566000000E+00 0. -1.
        994   -1    0    0    0    0 -0.00000000000E+00 -0.00000000000E+00  0.11368683772E-12  0.17120000000E+03  0.17120000000E+03 0.  0.
         13    1    1    2    0    0 -0.12072958268E+02  0.80465554345E+01  0.62730072003E+02  0.64386151254E+02  0.10566000000E+00 0. -1.
        994    1    1    2    0    0  0.11393315248E+02 -0.58913873950E+00  0.21030413233E+01  0.17159259162E+03  0.17120000000E+03 0.  0.
        998    1    1    2    0    0  0.67964302041E+00 -0.74574166950E+01  0.14351668830E+04  0.14352212571E+04  0.10000000000E+02 0. -1.
</event>
<event>
 5    1  0.1574792E-008  0.3842690E+03  0.7957747E-01  0.3432778E+00
         13   -1    0    0    0    0  0.00000000000E+00  0.00000000000E+00  0.14999999963E+04  0.15000000000E+04  0.10566000000E+00 0. -1.
        994   -1    0    0    0    0 -0.00000000000E+00 -0.00000000000E+00  0.11368683772E-12  0.17120000000E+03  0.17120000000E+03 0.  0.
         13    1    1    2    0    0  0.12006962322E+02  0.24766146540E+01  0.39068540812E+02  0.40947073272E+02  0.10566000000E+00 0. -1.
        994    1    1    2    0    0  0.27519246704E+01 -0.30268281576E+01  0.20486777183E+01  0.17126112185E+03  0.17120000000E+03 0.  0.
        998    1    1    2    0    0 -0.14758886992E+02  0.55021350365E+00  0.14588827777E+04  0.14589918049E+04  0.10000000000E+02 0. -1.
</event>
<event>
 5    1  0.1574792E-008  0.3782014E+03  0.7957747E-01  0.3459028E+00
         13   -1    0    0    0    0  0.00000000000E+00  0.00000000000E+00  0.14999999963E+04  0.15000000000E+04  0.10566000000E+00 0.  1.
        994   -1    0    0    0    0 -0.00000000000E+00 -0.00000000000E+00  0.11368683772E-12  0.17120000000E+03  0.17120000000E+03 0.  0.
         13    1    1    2    0    0  0.25385831114E+02 -0.51614317966E+02  0.27878666940E+03  0.28465856116E+03  0.10566000000E+00 0.  1.
        994    1    1    2    0    0 -0.29065022592E+02  0.44256889781E+02  0.14530163280E+02  0.17978880242E+03  0.17120000000E+03 0.  0.
        998    1    1    2    0    0  0.36791914774E+01  0.73574281842E+01  0.12066831636E+04  0.12067526364E+04  0.10000000000E+02 0.  1.
</event>
<event>
 5    1  0.1574792E-008  0.3841331E+03  0.7957747E-01  0.3433357E+00
         13   -1    0    0    0    0  0.00000000000E+00  0.00000000000E+00  0.14999999963E+04  0.15000000000E+04  0.10566000000E+00 0.  1.
        994   -1    0    0    0    0 -0.00000000000E+00 -0.00000000000E+00  0.11368683772E-12  0.17120000000E+03  0.17120000000E+03 0.  0.
         13    1    1    2    0    0  0.32872240156E+01 -0.23274062478E+02  0.11640632669E+03  0.11875576568E+03  0.10566000000E+00 0.  1.
        994    1    1    2    0    0  0.31477942264E+01  0.33927960735E+02  0.58994955536E+01  0.17465754829E+03  0.17120000000E+03 0.  0.
        998    1    1    2    0    0 -0.64350182419E+01 -0.10653898257E+02  0.13776941740E+04  0.13777866860E+04  0.10000000000E+02 0.  1.
</event>
<event>
 5    1  0.1574792E-008  0.3854528E+03  0.7957747E-01  0.3427754E+00
         13   -1    0    0    0    0  0.00000000000E+00  0.00000000000E+00  0.14999999963E+04  0.15000000000E+04  0.10566000000E+00 0.  1.
        994   -1    0    0    0    0 -0.00000000000E+00 -0.00000000000E+00  0.11368683772E-12  0.17120000000E+03  0.17120000000E+03 0.  0.
         13    1    1    2    0    0  0.45256641728E+01 -0.10270142329E+02  0.42488477976E+02  0.43945868798E+02  0.10566000000E+00 0.  1.
        994    1    1    2    0    0 -0.93592437331E+01  0.15363934108E+02  0.24690322048E+01  0.17216033816E+03  0.17120000000E+03 0.  0.
        998    1    1    2    0    0  0.48335795603E+01 -0.50937917795E+01  0.14550424861E+04  0.14550937930E+04  0.10000000000E+02 0.  1.
</event>
<event>
 5    1  0.1574792E-008  0.3834095E+03  0.7957747E-01  0.3436446E+00
         13   -1    0    0    0    0  0.00000000000E+00  0.00000000000E+00  0.14999999963E+04  0.15000000000E+04  0.10566000000E+00 0.  1.
        994   -1    0    0    0    0 -0.00000000000E+00 -0.00000000000E+00  0.11368683772E-12  0.17120000000E+03  0.17120000000E+03 0.  0.
         13    1    1    2    0    0  0.14372448437E+01 -0.13827616751E+02  0.39410405553E+02  0.41790667470E+02  0.10566000000E+00 0.  1.
        994    1    1    2    0    0  0.79911809169E+01  0.89219077437E+01  0.28962104597E+01  0.17164290677E+03  0.17120000000E+03 0.  0.
        998    1    1    2    0    0 -0.94284257606E+01  0.49057090073E+01  0.14576933803E+04  0.14577664258E+04  0.10000000000E+02 0.  1.
</event>
<event>
 5    1  0.1574792E-008  0.3816596E+03  0.7957747E-01  0.3443964E+00
         13   -1    0    0    0    0  0.00000000000E+00  0.00000000000E+00  0.14999999963E+04  0.15000000000E+04  0.10566000000E+00 0.  1.
        994   -1    0    0    0    0 -0.00000000000E+00 -0.00000000000E+00  0.11368683772E-12  0.17120000000E+03  0.17120000000E+03 0.  0.
         13    1    1    2    0    0 -0.10610455565E+02  0.74965431123E+02  0.18359930474E+03  0.19859786881E+03  0.10566000000E+00 0.  1.
        994    1    1    2    0    0 -0.97180968882E+01 -0.16485516594E+02  0.18578075540E+02  0.17326511061E+03  0.17120000000E+03 0.  0.
        998    1    1    2    0    0  0.20328552454E+02 -0.58479914528E+02  0.12978226160E+04  0.12993370206E+04  0.10000000000E+02 0.  1.
</event>
<event>
 5    1  0.1574792E-008  0.3820325E+03  0.7957747E-01  0.3442356E+00
         13   -1    0    0    0    0  0.00000000000E+00  0.00000000000E+00  0.14999999963E+04  0.15000000000E+04  0.10566000000E+00 0.  1.
        994   -1    0    0    0    0 -0.00000000000E+00 -0.00000000000E+00  0.11368683772E-12  0.17120000000E+03  0.17120000000E+03 0.  0.
         13    1    1    2    0    0 -0.31817349012E+01 -0.15535614189E+02  0.42057644713E+02  0.44948141097E+02  0.10566000000E+00 0.  1.
        994    1    1    2    0    0  0.69196570331E+01 -0.80358198637E+01  0.34841605685E+01  0.17156350261E+03  0.17120000000E+03 0.  0.
        998    1    1    2    0    0 -0.37379221319E+01  0.23571434052E+02  0.14544581910E+04  0.14546883563E+04  0.10000000000E+02 0.  1.
</event>
<event>
 5    1  0.1574792E-008  0.3839020E+03  0.7957747E-01  0.3434342E+00
         13   -1    0    0    0    0  0.00000000000E+00  0.00000000000E+00  0.14999999963E+04  0.15000000000E+04  0.10566000000E+00 0.  1.
        994   -1    0    0    0    0 -0.00000000000E+00 -0.00000000000E+00  0.11368683772E-12  0.17120000000E+03  0.17120000000E+03 0.  0.
         13    1    1    2    0    0  0.22596515610E+02 -0.10506394658E+01  0.11632135928E+03  0.11850053227E+03  0.10566000000E+00 0.  1.
        994    1    1    2    0    0 -0.14496114565E+02  0.14620889361E+02  0.35765737572E+01  0.17247069207E+03  0.17120000000E+03 0.  0.
        998    1    1    2    0    0 -0.81004010452E+01 -0.13570249895E+02  0.13801020632E+04  0.13802287757E+04  0.10000000000E+02 0.  1.
</event>
<event>
 5    1  0.1574792E-008  0.3846603E+03  0.7957747E-01  0.3431114E+00
         13   -1    0    0    0    0  0.00000000000E+00  0.00000000000E+00  0.14999999963E+04  0.15000000000E+04  0.10566000000E+00 0. -1.
        994   -1    0    0    0    0 -0.00000000000E+00 -0.00000000000E+00  0.11368683772E-12  0.17120000000E+03  0.17120000000E+03 0.  0.
         13    1    1    2    0    0 -0.12539461498E+02  0.26259382757E+01  0.43647840298E+02  0.45489325926E+02  0.10566000000E+00 0. -1.
        994    1    1    2    0    0  0.17291360963E+02  0.23736502724E+01  0.28024396619E+01  0.17211019449E+03  0.17120000000E+03 0.  0.
        998    1    1    2    0    0 -0.47518994644E+01 -0.49995885481E+01  0.14535497163E+04  0.14536004796E+04  0.10000000000E+02 0. -1.
</event>
<event>
 5    1  0.1574792E-008  0.3861235E+03  0.7957747E-01  0.3424921E+00
         13   -1    0    0    0    0  0.00000000000E+00  0.00000000000E+00  0.14999999963E+04  0.15000000000E+04  0.10566000000E+00 0. -1.
        994   -1    0    0    0    0 -0.00000000000E+00 -0.00000000000E+00  0.11368683772E-12  0.17120000000E+03  0.17120000000E+03 0.  0.
         13    1    1    2    0    0  0.20778265255E+01  0.10569436028E+02  0.53930612361E+02  0.54995931256E+02  0.10566000000E+00 0. -1.
        994    1    1    2    0    0 -0.92167126571E+01 -0.79789214799E+01  0.15604635317E+01  0.17164057220E+03  0.17120000000E+03 0.  0.
        998    1    1    2    0    0  0.71388861316E+01 -0.25905145486E+01  0.14445089204E+04  0.14445634965E+04  0.10000000000E+02 0. -1.
</event>
<event>
 5    1  0.1574792E-008  0.3840747E+03  0.7957747E-01  0.3433606E+00
         13   -1    0    0    0    0  0.00000000000E+00  0.00000000000E+00  0.14999999963E+04  0.15000000000E+04  0.10566000000E+00 0.  1.
        994   -1    0    0    0    0 -0.00000000000E+00 -0.00000000000E+00  0.11368683772E-12  0.17120000000E+03  0.17120000000E+03 0.  0.
         13    1    1    2    0    0 -0.12308641747E+02  0.61081918931E+01  0.43969985460E+02  0.46067162440E+02  0.10566000000E+00 0.  1.
        994    1    1    2    0    0  0.13770519790E+02 -0.84960605815E+00  0.27183623357E+01  0.17177653664E+03  0.17120000000E+03 0.  0.
        998    1    1    2    0    0 -0.14618780433E+01 -0.52585858349E+01  0.14533116485E+04  0.14533563009E+04  0.10000000000E+02 0.  1.
</event>
<event>
 5    1  0.1574792E-008  0.3751161E+03  0.7957747E-01  0.3472704E+00
         13   -1    0    0    0    0  0.00000000000E+00  0.00000000000E+00  0.14999999963E+04  0.15000000000E+04  0.10566000000E+00 0.  1.
        994   -1    0    0    0    0 -0.00000000000E+00 -0.00000000000E+00  0.11368683772E-12  0.17120000000E+03  0.17120000000E+03 0.  0.
         13    1    1    2    0    0  0.14741097908E+02  0.18702698667E+02  0.41476380278E+02  0.47826689097E+02  0.10566000000E+00 0.  1.
        994    1    1    2    0    0 -0.14613825960E+02  0.46870025913E+01  0.74198346791E+01  0.17204658046E+03  0.17120000000E+03 0.  0.
        998    1    1    2    0    0 -0.12727194851E+00 -0.23389701258E+02  0.14511037813E+04  0.14513267304E+04  0.10000000000E+02 0.  1.
</event>
<event>
 5    1  0.1574792E-008  0.3825617E+03  0.7957747E-01  0.3440079E+00
         13   -1    0    0    0    0  0.00000000000E+00  0.00000000000E+00  0.14999999963E+04  0.15000000000E+04  0.10566000000E+00 0.  1.
        994   -1    0    0    0    0 -0.00000000000E+00 -0.00000000000E+00  0.11368683772E-12  0.17120000000E+03  0.17120000000E+03 0.  0.
         13    1    1    2    0    0  0.27715405716E+01 -0.10473594276E+02  0.19574078240E+02  0.22372601931E+02  0.10566000000E+00 0.  1.
        994    1    1    2    0    0 -0.25937167214E+01  0.63841326197E+01  0.30029717142E+01  0.17136493911E+03  0.17120000000E+03 0.  0.
        998    1    1    2    0    0 -0.17782385016E+00  0.40894616559E+01  0.14774229463E+04  0.14774624590E+04  0.10000000000E+02 0.  1.
</event>
<event>
 5    1  0.1574792E-008  0.3850463E+03  0.7957747E-01  0.3429476E+00
         13   -1    0    0    0    0  0.00000000000E+00  0.00000000000E+00  0.14999999963E+04  0.15000000000E+04  0.10566000000E+00 0. -1.
        994   -1    0    0    0    0 -0.00000000000E+00 -0.00000000000E+00  0.11368683772E-12  0.17120000000E+03  0.17120000000E+03 0.  0.
         13    1    1    2    0    0  0.80203858735E+01 -0.96840362537E+01  0.48360548640E+02  0.49968599906E+02  0.10566000000E+00 0. -1.
        994    1    1    2    0    0 -0.61903918064E+01  0.96180999025E+01  0.20374605118E+01  0.17159376458E+03  0.17120000000E+03 0.  0.
        998    1    1    2    0    0 -0.18299940671E+01  0.65936351240E-01  0.14496019871E+04  0.14496376355E+04  0.10000000000E+02 0. -1.
</event>
<event>
 5    1  0.1695531E-008  0.3858589E+03  0.7957747E-01  0.3426038E+00
         13   -1    0    0    0    0  0.00000000000E+00  0.00000000000E+00  0.14999999963E+04  0.15000000000E+04  0.10566000000E+00 0. -1.
        994   -1    0    0    0    0 -0.00000000000E+00 -0.00000000000E+00  0.11368683772E-12  0.17120000000E+03  0.17120000000E+03 0.  0.
         13    1    1    2    0    0  0.64946299398E+01 -0.96015550341E+01  0.55974254797E+02  0.57162036714E+02  0.10566000000E+00 0. -1.
        994    1    1    2    0    0 -0.60538361614E+01  0.63836788789E+01  0.14581994725E+01  0.17143210503E+03  0.17120000000E+03 0.  0.
        998    1    1    2    0    0 -0.44079377846E+00  0.32178761552E+01  0.14425675420E+04  0.14426058583E+04  0.10000000000E+02 0. -1.
</event>
<event>
 5    1  0.1574792E-008  0.3710790E+03  0.7957747E-01  0.3490947E+00
         13   -1    0    0    0    0  0.00000000000E+00  0.00000000000E+00  0.14999999963E+04  0.15000000000E+04  0.10566000000E+00 0. -1.
        994   -1    0    0    0    0 -0.00000000000E+00 -0.00000000000E+00  0.11368683772E-12  0.17120000000E+03  0.17120000000E+03 0.  0.
         13    1    1    2    0    0 -0.19513378179E+01  0.43507912226E+02  0.10918976506E+03  0.11755493228E+03  0.10566000000E+00 0. -1.
        994    1    1    2    0    0 -0.93378171833E+01 -0.19698731234E+02  0.10344978286E+02  0.17289214389E+03  0.17120000000E+03 0.  0.
        998    1    1    2    0    0  0.11289155001E+02 -0.23809180992E+02  0.13804652529E+04  0.13807529238E+04  0.10000000000E+02 0. -1.
</event>
<event>
 5    1  0.1574792E-008  0.3871850E+03  0.7957747E-01  0.3420458E+00
         13   -1    0    0    0    0  0.00000000000E+00  0.00000000000E+00  0.14999999963E+04  0.15000000000E+04  0.10566000000E+00 0.  1.
        994   -1    0    0    0    0 -0.00000000000E+00 -0.00000000000E+00  0.11368683772E-12  0.17120000000E+03  0.17120000000E+03 0.  0.
         13    1    1    2    0    0 -0.17735975018E+02 -0.53547405908E+02  0.69653857449E+02  0.89630131713E+02  0.10566000000E+00 0.  1.
        994    1    1    2    0    0  0.21380296733E+02  0.44062446697E+02  0.29312939809E+02  0.18046413698E+03  0.17120000000E+03 0.  0.
        998    1    1    2    0    0 -0.36443217151E+01  0.94849592106E+01  0.14010331990E+04  0.14011057313E+04  0.10000000000E+02 0.  1.
</event>
<event>
 5    1  0.1574792E-008  0.3824427E+03  0.7957747E-01  0.3440591E+00
         13   -1    0    0    0    0  0.00000000000E+00  0.00000000000E+00  0.14999999963E+04  0.15000000000E+04  0.10566000000E+00 0. -1.
        994   -1    0    0    0    0 -0.00000000000E+00 -0.00000000000E+00  0.11368683772E-12  0.17120000000E+03  0.17120000000E+03 0.  0.
         13    1    1    2    0    0  0.74321258086E+01 -0.68700213198E+01  0.16928091671E+02  0.19723213192E+02  0.10566000000E+00 0. -1.
        994    1    1    2    0    0  0.53621553914E+01  0.21305333200E+01  0.30155295379E+01  0.17132374413E+03  0.17120000000E+03 0.  0.
        998    1    1    2    0    0 -0.12794281200E+02  0.47394879998E+01  0.14800563751E+04  0.14801530427E+04  0.10000000000E+02 0. -1.
</event>
<event>
 5    1  0.1574792E-008  0.3826893E+03  0.7957747E-01  0.3439532E+00
         13   -1    0    0    0    0  0.00000000000E+00  0.00000000000E+00  0.14999999963E+04  0.15000000000E+04  0.10566000000E+00 0. -1.
        994   -1    0    0    0    0 -0.00000000000E+00 -0.00000000000E+00  0.11368683772E-12  0.17120000000E+03  0.17120000000E+03 0.  0.
         13    1    1    2    0    0 -0.11543782329E+01 -0.22750613463E+02  0.90297611609E+02  0.93126756780E+02  0.10566000000E+00 0. -1.
        994    1    1    2    0    0  0.58019551387E+01  0.17987263435E+02  0.39661988674E+01  0.17228573668E+03  0.17120000000E+03 0.  0.
        998    1    1    2    0    0 -0.46475769058E+01  0.47633500283E+01  0.14057361858E+04  0.14057875065E+04  0.10000000000E+02 0. -1.
</event>
<event>
 5    1  0.1574792E-008  0.3852385E+03  0.7957747E-01  0.3428661E+00
         13   -1    0    0    0    0  0.00000000000E+00  0.00000000000E+00  0.14999999963E+04  0.15000000000E+04  0.10566000000E+00 0.  1.
        994   -1    0    0    0    0 -0.00000000000E+00 -0.00000000000E+00  0.11368683772E-12  0.17120000000E+03  0.17120000000E+03 0.  0.
         13    1    1    2    0    0 -0.11473420113E+02 -0.14881161973E+02  0.11273884151E+03  0.11429412015E+03  0.10566000000E+00 0.  1.
        994    1    1    2    0    0  0.14110728156E+02  0.96718950372E+01  0.24740805961E+01  0.17207039047E+03  0.17120000000E+03 0.  0.
        998    1    1    2    0    0 -0.26373080426E+01  0.52092669356E+01  0.13847870742E+04  0.13848354894E+04  0.10000000000E+02 0.  1.
</event>
<event>
 5    1  0.1574792E-008  0.3861929E+03  0.7957747E-01  0.3424629E+00
         13   -1    0    0    0    0  0.00000000000E+00  0.00000000000E+00  0.14999999963E+04  0.15000000000E+04  0.10566000000E+00 0. -1.
        994   -1    0    0    0    0 -0.00000000000E+00 -0.00000000000E+00  0.11368683772E-12  0.17120000000E+03  0.17120000000E+03 0.  0.
         13    1    1    2    0    0 -0.91901658737E+01  0.10793576704E+02  0.82349359646E+02  0.83560688394E+02  0.10566000000E+00 0. -1.
        994    1    1    2    0    0  0.18388141591E+02 -0.23273254701E+02  0.39264710250E+01  0.17379477930E+03  0.17120000000E+03 0.  0.
        998    1    1    2    0    0 -0.91979757171E+01  0.12479677997E+02  0.14137241656E+04  0.14138445323E+04  0.10000000000E+02 0. -1.
</event>
<event>
 5    1  0.1574792E-008  0.3856390E+03  0.7957747E-01  0.3426967E+00
         13   -1    0    0    0    0  0.00000000000E+00  0.00000000000E+00  0.14999999963E+04  0.15000000000E+04  0.10566000000E+00 0.  1.
        994   -1    0    0    0    0 -0.00000000000E+00 -0.00000000000E+00  0.11368683772E-12  0.17120000000E+03  0.17120000000E+03 0.  0.
         13    1    1    2    0    0  0.10448045414E+02  0.23860257688E+01  0.42392845159E+02  0.43726642412E+02  0.10566000000E+00 0.  1.
        994    1    1    2    0    0 -0.13757782136E+02 -0.12332410059E+01  0.19396441173E+01  0.17176728347E+03  0.17120000000E+03 0.  0.
        998    1    1    2    0    0  0.33097367225E+01 -0.11527847630E+01  0.14556675070E+04  0.14557060741E+04  0.10000000000E+02 0.  1.
</event>
<event>
 5    1  0.1574792E-008  0.3796432E+03  0.7957747E-01  0.3452713E+00
         13   -1    0    0    0    0  0.00000000000E+00  0.00000000000E+00  0.14999999963E+04  0.15000000000E+04  0.10566000000E+00 0.  1.
        994   -1    0    0    0    0 -0.00000000000E+00 -0.00000000000E+00  0.11368683772E-12  0.17120000000E+03  0.17120000000E+03 0.  0.
         13    1    1    2    0    0 -0.60910114390E+02  0.19620911983E+02  0.32425881279E+03  0.33051295142E+03  0.10566000000E+00 0.  1.
        994    1    1    2    0    0  0.88759971281E+02  0.11254721698E+02  0.31588282357E+02  0.19573518040E+03  0.17120000000E+03 0.  0.
        998    1    1    2    0    0 -0.27849856891E+02 -0.30875633681E+02  0.11441529011E+04  0.11449518682E+04  0.10000000000E+02 0.  1.
</event>
<event>
 5    1  0.1574792E-008  0.3815130E+03  0.7957747E-01  0.3444597E+00
         13   -1    0    0    0    0  0.00000000000E+00  0.00000000000E+00  0.14999999963E+04  0.15000000000E+04  0.10566000000E+00 0. -1.
        994   -1    0    0    0    0 -0.00000000000E+00 -0.00000000000E+00  0.11368683772E-12  0.17120000000E+03  0.17120000000E+03 0.  0.
         13    1    1    2    0    0 -0.10555800787E+02  0.15245503234E+02  0.55051509163E+02  0.58090706006E+02  0.10566000000E+00 0. -1.
        994    1    1    2    0    0  0.22773861364E+02  0.28628464208E+02  0.78354860654E+01  0.17524004270E+03  0.17120000000E+03 0.  0.
        998    1    1    2    0    0 -0.12218060577E+02 -0.43873967442E+02  0.14371130011E+04  0.14378692513E+04  0.10000000000E+02 0. -1.
</event>
<event>
 5    1  0.1574792E-008  0.3698356E+03  0.7957747E-01  0.3496647E+00
         13   -1    0    0    0    0  0.00000000000E+00  0.00000000000E+00  0.14999999963E+04  0.15000000000E+04  0.10566000000E+00 0.  1.
        994   -1    0    0    0    0 -0.00000000000E+00 -0.00000000000E+00  0.11368683772E-12  0.17120000000E+03  0.17120000000E+03 0.  0.
         13    1    1    2    0    0 -0.22678511665E+02 -0.58758423409E+01  0.24948531092E+02  0.34223979637E+02  0.10566000000E+00 0.  1.
        994    1    1    2    0    0  0.23374862158E+02  0.68321706529E+01  0.11409474641E+02  0.17329939079E+03  0.17120000000E+03 0.  0.
        998    1    1    2    0    0 -0.69635049297E+00 -0.95632831200E+00  0.14636419905E+04  0.14636766296E+04  0.10000000000E+02 0.  1.
</event>
<event>
 5    1  0.1574792E-008  0.3842409E+03  0.7957747E-01  0.3432898E+00
         13   -1    0    0    0    0  0.00000000000E+00  0.00000000000E+00  0.14999999963E+04  0.15000000000E+04  0.10566000000E+00 0.  1.
        994   -1    0    0    0    0 -0.00000000000E+00 -0.00000000000E+00  0.11368683772E-12  0.17120000000E+03  0.17120000000E+03 0.  0.
         13    1    1    2    0    0  0.19974919463E+01 -0.11163040148E+02  0.30621217973E+02  0.32653845005E+02  0.10566000000E+00 0.  1.
        994    1    1    2    0    0 -0.63687121813E+00  0.15064887682E+02  0.27573801543E+01  0.17188484398E+03  0.17120000000E+03 0.  0.
        998    1    1    2    0    0 -0.13606207282E+01 -0.39018475335E+01  0.14666213982E+04  0.14666613110E+04  0.10000000000E+02 0.  1.
</event>
<event>
 5    1  0.1574792E-008  0.2653202E+03  0.7957747E-01  0.4179626E+00
         13   -1    0    0    0    0  0.00000000000E+00  0.00000000000E+00  0.14999999963E+04  0.15000000000E+04  0.10566000000E+00 0. -1.
        994   -1    0    0    0    0 -0.00000000000E+00 -0.00000000000E+00  0.11368683772E-12  0.17120000000E+03  0.17120000000E+03 0.  0.
         13    1    1    2    0    0  0.10535481649E+03 -0.64045179368E+02  0.63492387707E+03  0.64678417049E+03  0.10566000000E+00 0. -1.
        994    1    1    2    0    0 -0.68445430136E+02 -0.91694714126E+02  0.76452551726E+02  0.21965229380E+03  0.17120000000E+03 0.  0.
        998    1    1    2    0    0 -0.36909386351E+02  0.15573989349E+03  0.78862356748E+03  0.80476353572E+03  0.10000000000E+02 0. -1.
</event>
<event>
 5    1  0.1574792E-008  0.3829303E+03  0.7957747E-01  0.3438498E+00
         13   -1    0    0    0    0  0.00000000000E+00  0.00000000000E+00  0.14999999963E+04  0.15000000000E+04  0.10566000000E+00 0.  1.
        994   -1    0    0    0    0 -0.00000000000E+00 -0.00000000000E+00  0.11368683772E-12  0.17120000000E+03  0.17120000000E+03 0.  0.
         13    1    1    2    0    0 -0.18650721596E+02  0.14540538586E+01  0.66148041050E+02  0.68742550050E+02  0.10566000000E+00 0.  1.
        994    1    1    2    0    0  0.92232409488E+01  0.74297374421E+01  0.31257304556E+01  0.17163763970E+03  0.17120000000E+03 0.  0.
        998    1    1    2    0    0  0.94274806470E+01 -0.88837913006E+01  0.14307262248E+04  0.14308198102E+04  0.10000000000E+02 0.  1.
</event>
<event>
 5    1  0.1574792E-008  0.3685109E+03  0.7957747E-01  0.3502763E+00
         13   -1    0    0    0    0  0.00000000000E+00  0.00000000000E+00  0.14999999963E+04  0.15000000000E+04  0.10566000000E+00 0.  1.
        994   -1    0    0    0    0 -0.00000000000E+00 -0.00000000000E+00  0.11368683772E-12  0.17120000000E+03  0.17120000000E+03 0.  0.
         13    1    1    2    0    0 -0.41937502209E+01  0.13154363599E+02  0.46658110602E+01  0.14574147642E+02  0.10566000000E+00 0.  1.
        994    1    1    2    0    0  0.79403090059E+00 -0.16463163423E+02  0.11098934419E+02  0.17234933298E+03  0.17120000000E+03 0.  0.
        998    1    1    2    0    0  0.33997193204E+01  0.33087998237E+01  0.14842352508E+04  0.14842765194E+04  0.10000000000E+02 0.  1.
</event>
<event>
 5    1  0.1574792E-008  0.3848936E+03  0.7957747E-01  0.3430123E+00
         13   -1    0    0    0    0  0.00000000000E+00  0.00000000000E+00  0.14999999963E+04  0.15000000000E+04  0.10566000000E+00 0. -1.
        994   -1    0    0    0    0 -0.00000000000E+00 -0.00000000000E+00  0.11368683772E-12  0.17120000000E+03  0.17120000000E+03 0.  0.
         13    1    1    2    0    0  0.22345491889E+00 -0.17489442317E+02  0.96532732603E+02  0.98104587826E+02  0.10566000000E+00 0. -1.
        994    1    1    2    0    0  0.22417865734E+01  0.34173462929E+01  0.17379170102E+01  0.17125759609E+03  0.17120000000E+03 0.  0.
        998    1    1    2    0    0 -0.24652414923E+01  0.14072096024E+02  0.14017293467E+04  0.14018378161E+04  0.10000000000E+02 0. -1.
</event>
<event>
 5    1  0.1574792E-008  0.3831196E+03  0.7957747E-01  0.3437687E+00
         13   -1    0    0    0    0  0.00000000000E+00  0.00000000000E+00  0.14999999963E+04  0.15000000000E+04  0.10566000000E+00 0. -1.
        994   -1    0    0    0    0 -0.00000000000E+00 -0.00000000000E+00  0.11368683772E-12  0.17120000000E+03  0.17120000000E+03 0.  0.
         13    1    1    2    0    0 -0.21814514505E+02 -0.87004141375E+01  0.10369063033E+03  0.10631711166E+03  0.10566000000E+00 0. -1.
        994    1    1    2    0    0  0.20101060053E+02  0.98987925815E+00  0.39079440482E+01  0.17242315536E+03  0.17120000000E+03 0.  0.
        998    1    1    2    0    0  0.17134544521E+01  0.77105348794E+01  0.13924014219E+04  0.13924597330E+04  0.10000000000E+02 0. -1.
</event>
<event>
 5    1  0.1574792E-008  0.3839612E+03  0.7957747E-01  0.3434090E+00
         13   -1    0    0    0    0  0.00000000000E+00  0.00000000000E+00  0.14999999963E+04  0.15000000000E+04  0.10566000000E+00 0.  1.
        994   -1    0    0    0    0 -0.00000000000E+00 -0.00000000000E+00  0.11368683772E-12  0.17120000000E+03  0.17120000000E+03 0.  0.
         13    1    1    2    0    0  0.77860063554E+01 -0.99333061941E+01  0.37019822920E+02  0.39112286049E+02  0.10566000000E+00 0.  1.
        994    1    1    2    0    0 -0.33714194110E+01  0.44199137722E+01  0.22487518788E+01  0.17130498823E+03  0.17120000000E+03 0.  0.
        998    1    1    2    0    0 -0.44145869445E+01  0.55133924219E+01  0.14607314215E+04  0.14607827257E+04  0.10000000000E+02 0.  1.
</event>
<event>
 5    1  0.1574792E-008  0.3795345E+03  0.7957747E-01  0.3453188E+00
         13   -1    0    0    0    0  0.00000000000E+00  0.00000000000E+00  0.14999999963E+04  0.15000000000E+04  0.10566000000E+00 0.  1.
        994   -1    0    0    0    0 -0.00000000000E+00 -0.00000000000E+00  0.11368683772E-12  0.17120000000E+03  0.17120000000E+03 0.  0.
         13    1    1    2    0    0 -0.11058872630E+02  0.15354027257E+03  0.90493054772E+03  0.91793040113E+03  0.10566000000E+00 0.  1.
        994    1    1    2    0    0  0.47308167736E+01 -0.15582712024E+03  0.90575865473E+02  0.24863205633E+03  0.17120000000E+03 0.  0.
        998    1    1    2    0    0  0.63280558560E+01  0.22868476667E+01  0.50449358309E+03  0.50463754254E+03  0.10000000000E+02 0. -1.
</event>
<event>
 5    1  0.1574792E-008  0.3819855E+03  0.7957747E-01  0.3442559E+00
         13   -1    0    0    0    0  0.00000000000E+00  0.00000000000E+00  0.14999999963E+04  0.15000000000E+04  0.10566000000E+00 0.  1.
        994   -1    0    0    0    0 -0.00000000000E+00 -0.00000000000E+00  0.11368683772E-12  0.17120000000E+03  0.17120000000E+03 0.  0.
         13    1    1    2    0    0  0.18606832247E+01 -0.34737300660E+02  0.19111201800E+03  0.19425230188E+03  0.10566000000E+00 0.  1.
        994    1    1    2    0    0  0.12411508751E+02  0.21840143847E+02  0.52328175762E+01  0.17311227516E+03  0.17120000000E+03 0.  0.
        998    1    1    2    0    0 -0.14272191976E+02  0.12897156813E+02  0.13036551607E+04  0.13038354230E+04  0.10000000000E+02 0.  1.
</event>
<event>
 5    1  0.1574792E-008  0.3852786E+03  0.7957747E-01  0.3428492E+00
         13   -1    0    0    0    0  0.00000000000E+00  0.00000000000E+00  0.14999999963E+04  0.15000000000E+04  0.10566000000E+00 0. -1.
        994   -1    0    0    0    0 -0.00000000000E+00 -0.00000000000E+00  0.11368683772E-12  0.17120000000E+03  0.17120000000E+03 0.  0.
         13    1    1    2    0    0  0.11206139592E+02 -0.77488040340E+01  0.65260011416E+02  0.66667096701E+02  0.10566000000E+00 0. -1.
        994    1    1    2    0    0 -0.43285944693E+01 -0.22592040304E+01  0.15702243947E+01  0.17127681203E+03  0.17120000000E+03 0.  0.
        998    1    1    2    0    0 -0.68775451230E+01  0.10008008064E+02  0.14331697605E+04  0.14332560913E+04  0.10000000000E+02 0. -1.
</event>
<event>
 5    1  0.1574792E-008  0.3703477E+03  0.7957747E-01  0.3494295E+00
         13   -1    0    0    0    0  0.00000000000E+00  0.00000000000E+00  0.14999999963E+04  0.15000000000E+04  0.10566000000E+00 0. -1.
        994   -1    0    0    0    0 -0.00000000000E+00 -0.00000000000E+00  0.11368683772E-12  0.17120000000E+03  0.17120000000E+03 0.  0.
         13    1    1    2    0    0 -0.69600908091E+02  0.54885460284E+02  0.27799452732E+03  0.29178359882E+03  0.10566000000E+00 0. -1.
        994    1    1    2    0    0  0.67183310719E+02 -0.62866107008E+02  0.41374261259E+02  0.19871339699E+03  0.17120000000E+03 0.  0.
        998    1    1    2    0    0  0.24175973723E+01  0.79806467236E+01  0.11806312077E+04  0.11807030042E+04  0.10000000000E+02 0.  0.
</event>
<event>
 5    1  0.1574792E-008  0.3801605E+03  0.7957747E-01  0.3450460E+00
         13   -1    0    0    0    0  0.00000000000E+00  0.00000000000E+00  0.14999999963E+04  0.15000000000E+04  0.10566000000E+00 0. -1.
        994   -1    0    0    0    0 -0.00000000000E+00 -0.00000000000E+00  0.11368683772E-12  0.17120000000E+03  0.17120000000E+03 0.  0.
         13    1    1    2    0    0 -0.43846643789E+02 -0.24454467618E+02  0.29313181423E+03  0.29740010228E+03  0.10566000000E+00 0. -1.
        994    1    1    2    0    0  0.34881849452E+02  0.86605814935E+01  0.83801532807E+01  0.17513256711E+03  0.17120000000E+03 0.  0.
        998    1    1    2    0    0  0.89647943370E+01  0.15793886125E+02  0.11984880288E+04  0.11986673306E+04  0.10000000000E+02 0. -1.
</event>
<event>
 5    1  0.1574792E-008  0.3813247E+03  0.7957747E-01  0.3445411E+00
         13   -1    0    0    0    0  0.00000000000E+00  0.00000000000E+00  0.14999999963E+04  0.15000000000E+04  0.10566000000E+00 0. -1.
        994   -1    0    0    0    0 -0.00000000000E+00 -0.00000000000E+00  0.11368683772E-12  0.17120000000E+03  0.17120000000E+03 0.  0.
         13    1    1    2    0    0  0.39438605400E+02 -0.90097005649E+01  0.24115297928E+03  0.24452269605E+03  0.10566000000E+00 0. -1.
        994    1    1    2    0    0 -0.23508826588E+02 -0.98452996966E+01  0.56310172459E+01  0.17317835664E+03  0.17120000000E+03 0.  0.
        998    1    1    2    0    0 -0.15929778812E+02  0.18855000262E+02  0.12532159997E+04  0.12534989473E+04  0.10000000000E+02 0. -1.
</event>
<event>
 5    1  0.2963693E-008  0.3861500E+03  0.7957747E-01  0.3424809E+00
         13   -1    0    0    0    0  0.00000000000E+00  0.00000000000E+00  0.14999999963E+04  0.15000000000E+04  0.10566000000E+00 0. -1.
        994   -1    0    0    0    0 -0.00000000000E+00 -0.00000000000E+00  0.11368683772E-12  0.17120000000E+03  0.17120000000E+03 0.  0.
         13    1    1    2    0    0 -0.90583324515E+01 -0.60911525906E+01  0.56781463013E+02  0.57821287020E+02  0.10566000000E+00 0. -1.
        994    1    1    2    0    0  0.65184050028E+01  0.44011004225E+01  0.12629443009E+01  0.17138522199E+03  0.17120000000E+03 0.  0.
        998    1    1    2    0    0  0.25399274487E+01  0.16900521681E+01  0.14419555890E+04  0.14419934910E+04  0.10000000000E+02 0. -1.
</event>
<event>
 5    1  0.1574792E-008  0.3837126E+03  0.7957747E-01  0.3435151E+00
         13   -1    0    0    0    0  0.00000000000E+00  0.00000000000E+00  0.14999999963E+04  0.15000000000E+04  0.10566000000E+00 0.  1.
        994   -1    0    0    0    0 -0.00000000000E+00 -0.00000000000E+00  0.11368683772E-12  0.17120000000E+03  0.17120000000E+03 0.  0.
         13    1    1    2    0    0 -0.13548625463E+02  0.30044051705E+02  0.19667730282E+03  0.19941961515E+03  0.10566000000E+00 0.  1.
        994    1    1    2    0    0  0.19317351084E+02 -0.35254325860E+02  0.76258642552E+01  0.17602165023E+03  0.17120000000E+03 0.  0.
        998    1    1    2    0    0 -0.57687256207E+01  0.52102741552E+01  0.12956968292E+04  0.12957587346E+04  0.10000000000E+02 0.  1.
</event>
<event>
 5    1  0.1574792E-008  0.3825487E+03  0.7957747E-01  0.3440135E+00
         13   -1    0    0    0    0  0.00000000000E+00  0.00000000000E+00  0.14999999963E+04  0.15000000000E+04  0.10566000000E+00 0.  1.
        994   -1    0    0    0    0 -0.00000000000E+00 -0.00000000000E+00  0.11368683772E-12  0.17120000000E+03  0.17120000000E+03 0.  0.
         13    1    1    2    0    0  0.15780736388E+02 -0.15582670892E+01  0.44331983198E+02  0.47082860316E+02  0.10566000000E+00 0.  1.
        994    1    1    2    0    0 -0.21862870339E+01  0.20248708474E+02  0.42283154407E+01  0.17245900585E+03  0.17120000000E+03 0.  0.
        998    1    1    2    0    0 -0.13594449354E+02 -0.18690441384E+02  0.14514396976E+04  0.14516581338E+04  0.10000000000E+02 0.  1.
</event>
<event>
 5    1  0.1574792E-008  0.3768258E+03  0.7957747E-01  0.3465097E+00
         13   -1    0    0    0    0  0.00000000000E+00  0.00000000000E+00  0.14999999963E+04  0.15000000000E+04  0.10566000000E+00 0. -1.
        994   -1    0    0    0    0 -0.00000000000E+00 -0.00000000000E+00  0.11368683772E-12  0.17120000000E+03  0.17120000000E+03 0.  0.
         13    1    1    2    0    0 -0.22406375683E+02 -0.41642637270E+02  0.20773782367E+03  0.21305203462E+03  0.10566000000E+00 0. -1.
        994    1    1    2    0    0  0.75058838046E+01  0.14044284167E+02  0.66012684151E+01  0.17206567628E+03  0.17120000000E+03 0.  0.
        998    1    1    2    0    0  0.14900491879E+02  0.27598353103E+02  0.12856609042E+04  0.12860822891E+04  0.10000000000E+02 0. -1.
</event>
<event>
 5    1  0.1574792E-008  0.3855341E+03  0.7957747E-01  0.3427410E+00
         13   -1    0    0    0    0  0.00000000000E+00  0.00000000000E+00  0.14999999963E+04  0.15000000000E+04  0.10566000000E+00 0. -1.
        994   -1    0    0    0    0 -0.00000000000E+00 -0.00000000000E+00  0.11368683772E-12  0.17120000000E+03  0.17120000000E+03 0.  0.
         13    1    1    2    0    0  0.69761462509E+01 -0.12757390688E+02  0.77914004366E+02  0.79259200565E+02  0.10566000000E+00 0. -1.
        994    1    1    2    0    0 -0.22566394764E+01  0.95143362193E+01  0.16791791889E+01  0.17148724343E+03  0.17120000000E+03 0.  0.
        998    1    1    2    0    0 -0.47195067745E+01  0.32430544690E+01  0.14204068127E+04  0.14204535560E+04  0.10000000000E+02 0. -1.
</event>
<event>
 5    1  0.1574792E-008  0.3763484E+03  0.7957747E-01  0.3467214E+00
         13   -1    0    0    0    0  0.00000000000E+00  0.00000000000E+00  0.14999999963E+04  0.15000000000E+04  0.10566000000E+00 0. -1.
        994   -1    0    0    0    0 -0.00000000000E+00 -0.00000000000E+00  0.11368683772E-12  0.17120000000E+03  0.17120000000E+03 0.  0.
         13    1    1    2    0    0  0.70012058245E+02 -0.69853215111E+01  0.16137307472E+03  0.17604477676E+03  0.10566000000E+00 0. -1.
        994    1    1    2    0    0 -0.52596014750E+02  0.16836758631E+02  0.25322551323E+02  0.18166036666E+03  0.17120000000E+03 0.  0.
        998    1    1    2    0    0 -0.17416043495E+02 -0.98514371195E+01  0.13133043702E+04  0.13134948566E+04  0.10000000000E+02 0. -1.
</event>
<event>
 5    1  0.1574792E-008  0.3803153E+03  0.7957747E-01  0.3449787E+00
         13   -1    0    0    0    0  0.00000000000E+00  0.00000000000E+00  0.14999999963E+04  0.15000000000E+04  0.10566000000E+00 0.  1.
        994   -1    0    0    0    0 -0.00000000000E+00 -0.00000000000E+00  0.11368683772E-12  0.17120000000E+03  0.17120000000E+03 0.  0.
         13    1    1    2    0    0 -0.76699642666E+01  0.20060550453E+02  0.62454873886E+02  0.66044503726E+02  0.10566000000E+00 0.  1.
        994    1    1    2    0    0 -0.96805133061E+01  0.64192096581E+01  0.44247507412E+01  0.17165062484E+03  0.17120000000E+03 0.  0.
        998    1    1    2    0    0  0.17350477573E+02 -0.26479760111E+02  0.14331203717E+04  0.14335048714E+04  0.10000000000E+02 0.  1.
</event>
<event>
 5    1  0.1574792E-008  0.3860145E+03  0.7957747E-01  0.3425381E+00
         13   -1    0    0    0    0  0.00000000000E+00  0.00000000000E+00  0.14999999963E+04  0.15000000000E+04  0.10566000000E+00 0.  1.
        994   -1    0    0    0    0 -0.00000000000E+00 -0.00000000000E+00  0.11368683772E-12  0.17120000000E+03  0.17120000000E+03 0.  0.
         13    1    1    2    0    0 -0.11283390588E+02  0.34562979459E+00  0.54792846935E+02  0.55943736043E+02  0.10566000000E+00 0.  1.
        994    1    1    2    0    0  0.13649640283E+02 -0.13043555626E+02  0.22965360192E+01  0.17225318894E+03  0.17120000000E+03 0.  0.
        998    1    1    2    0    0 -0.23662496955E+01  0.12697925832E+02  0.14429106133E+04  0.14430030750E+04  0.10000000000E+02 0.  1.
</event>
<event>
 5    1  0.1574792E-008  0.3811567E+03  0.7957747E-01  0.3446137E+00
         13   -1    0    0    0    0  0.00000000000E+00  0.00000000000E+00  0.14999999963E+04  0.15000000000E+04  0.10566000000E+00 0. -1.
        994   -1    0    0    0    0 -0.00000000000E+00 -0.00000000000E+00  0.11368683772E-12  0.17120000000E+03  0.17120000000E+03 0.  0.
         13    1    1    2    0    0  0.12128051517E+02 -0.55968435977E+01  0.24101909425E+02  0.27555897623E+02  0.10566000000E+00 0. -1.
        994    1    1    2    0    0 -0.54368968641E+00  0.79934520575E+01  0.37641786991E+01  0.17142870213E+03  0.17120000000E+03 0.  0.
        998    1    1    2    0    0 -0.11584361831E+02 -0.23966084598E+01  0.14721339082E+04  0.14722154002E+04  0.10000000000E+02 0. -1.
</event>
<event>
 5    1  0.1574792E-008  0.3800315E+03  0.7957747E-01  0.3451021E+00
         13   -1    0    0    0    0  0.00000000000E+00  0.00000000000E+00  0.14999999963E+04  0.15000000000E+04  0.10566000000E+00 0. -1.
        994   -1    0    0    0    0 -0.00000000000E+00 -0.00000000000E+00  0.11368683772E-12  0.17120000000E+03  0.17120000000E+03 0.  0.
         13    1    1    2    0    0  0.78644971720E+01  0.31710461040E+02  0.11743930686E+03  0.12189916167E+03  0.10566000000E+00 0. -1.
        994    1    1    2    0    0  0.34243050210E+01 -0.37501599875E+02  0.88719224015E+01  0.17551708425E+03  0.17120000000E+03 0.  0.
        998    1    1    2    0    0 -0.11288802193E+02  0.57911388350E+01  0.13736887670E+04  0.13737837541E+04  0.10000000000E+02 0. -1.
</event>
<event>
 5    1  0.1574792E-008  0.3796123E+03  0.7957747E-01  0.3452848E+00
         13   -1    0    0    0    0  0.00000000000E+00  0.00000000000E+00  0.14999999963E+04  0.15000000000E+04  0.10566000000E+00 0.  1.
        994   -1    0    0    0    0 -0.00000000000E+00 -0.00000000000E+00  0.11368683772E-12  0.17120000000E+03  0.17120000000E+03 0.  0.
         13    1    1    2    0    0  0.14717848847E+02 -0.38465255616E+02  0.21938553088E+03  0.22321786059E+03  0.10566000000E+00 0.  1.
        994    1    1    2    0    0 -0.39206521824E+01  0.72951114895E+01  0.45586147686E+01  0.17146081516E+03  0.17120000000E+03 0.  0.
        998    1    1    2    0    0 -0.10797196664E+02  0.31170144127E+02  0.12760558506E+04  0.12765213243E+04  0.10000000000E+02 0.  1.
</event>
<event>
 5    1  0.1574792E-008  0.3791928E+03  0.7957747E-01  0.3454681E+00
         13   -1    0    0    0    0  0.00000000000E+00  0.00000000000E+00  0.14999999963E+04  0.15000000000E+04  0.10566000000E+00 0. -1.
        994   -1    0    0    0    0 -0.00000000000E+00 -0.00000000000E+00  0.11368683772E-12  0.17120000000E+03  0.17120000000E+03 0.  0.
         13    1    1    2    0    0 -0.45807522489E+02 -0.22368316810E+02  0.23902046589E+03  0.24439612311E+03  0.10566000000E+00 0. -1.
        994    1    1    2    0    0  0.47126366798E+02  0.22078601585E+02  0.13673313372E+02  0.17945684326E+03  0.17120000000E+03 0.  0.
        998    1    1    2    0    0 -0.13188443096E+01  0.28971522489E+00  0.12473062170E+04  0.12473470336E+04  0.10000000000E+02 0.  0.
</event>
<event>
 5    1  0.1574792E-008  0.3831696E+03  0.7957747E-01  0.3437472E+00
         13   -1    0    0    0    0  0.00000000000E+00  0.00000000000E+00  0.14999999963E+04  0.15000000000E+04  0.10566000000E+00 0. -1.
        994   -1    0    0    0    0 -0.00000000000E+00 -0.00000000000E+00  0.11368683772E-12  0.17120000000E+03  0.17120000000E+03 0.  0.
         13    1    1    2    0    0 -0.14877710638E+02 -0.35900825647E+01  0.44457816100E+02  0.47018544672E+02  0.10566000000E+00 0. -1.
        994    1    1    2    0    0  0.14857290393E+02  0.81155000721E+00  0.32743931425E+01  0.17187658171E+03  0.17120000000E+03 0.  0.
        998    1    1    2    0    0  0.20420245006E-01  0.27785325575E+01  0.14522677870E+04  0.14523048736E+04  0.10000000000E+02 0. -1.
</event>
<event>
 5    1  0.1574792E-008  0.3811148E+03  0.7957747E-01  0.3446319E+00
         13   -1    0    0    0    0  0.00000000000E+00  0.00000000000E+00  0.14999999963E+04  0.15000000000E+04  0.10566000000E+00 0. -1.
        994   -1    0    0    0    0 -0.00000000000E+00 -0.00000000000E+00  0.11368683772E-12  0.17120000000E+03  0.17120000000E+03 0.  0.
         13    1    1    2    0    0 -0.77757418099E+01 -0.12888997832E+02  0.29459069840E+02  0.33082266937E+02  0.10566000000E+00 0. -1.
        994    1    1    2    0    0  0.10208295952E+02  0.16616547963E+02  0.48391688178E+01  0.17237510414E+03  0.17120000000E+03 0.  0.
        998    1    1    2    0    0 -0.24325541416E+01 -0.37275501314E+01  0.14657017576E+04  0.14657426289E+04  0.10000000000E+02 0. -1.
</event>
<event>
 5    1  0.1574792E-008  0.3815360E+03  0.7957747E-01  0.3444497E+00
         13   -1    0    0    0    0  0.00000000000E+00  0.00000000000E+00  0.14999999963E+04  0.15000000000E+04  0.10566000000E+00 0.  1.
        994   -1    0    0    0    0 -0.00000000000E+00 -0.00000000000E+00  0.11368683772E-12  0.17120000000E+03  0.17120000000E+03 0.  0.
         13    1    1    2    0    0 -0.94316452485E+01 -0.26262772684E+02  0.11765239814E+03  0.12091644683E+03  0.10566000000E+00 0.  1.
        994    1    1    2    0    0  0.32104912365E+02  0.31079478780E+01  0.68278468651E+01  0.17434576058E+03  0.17120000000E+03 0.  0.
        998    1    1    2    0    0 -0.22673267117E+02  0.23154824806E+02  0.13755197513E+04  0.13759377926E+04  0.10000000000E+02 0.  1.
</event>
<event>
 5    1  0.1574792E-008  0.3698449E+03  0.7957747E-01  0.3496604E+00
         13   -1    0    0    0    0  0.00000000000E+00  0.00000000000E+00  0.14999999963E+04  0.15000000000E+04  0.10566000000E+00 0.  1.
        994   -1    0    0    0    0 -0.00000000000E+00 -0.00000000000E+00  0.11368683772E-12  0.17120000000E+03  0.17120000000E+03 0.  0.
         13    1    1    2    0    0  0.55190120708E+02  0.55772692453E+02  0.37362660537E+03  0.38177662848E+03  0.10566000000E+00 0.  1.
        994    1    1    2    0    0 -0.59462472376E+00 -0.39587600004E+02  0.14792535988E+02  0.17633998631E+03  0.17120000000E+03 0.  0.
        998    1    1    2    0    0 -0.54595495984E+02 -0.16185092449E+02  0.11115808549E+04  0.11130833852E+04  0.10000000000E+02 0.  1.
</event>
<event>
 5    1  0.1574792E-008  0.3758439E+03  0.7957747E-01  0.3469457E+00
         13   -1    0    0    0    0  0.00000000000E+00  0.00000000000E+00  0.14999999963E+04  0.15000000000E+04  0.10566000000E+00 0. -1.
        994   -1    0    0    0    0 -0.00000000000E+00 -0.00000000000E+00  0.11368683772E-12  0.17120000000E+03  0.17120000000E+03 0.  0.
         13    1    1    2    0    0 -0.26166351209E+00 -0.12657076159E+02  0.10187561315E+02  0.16250157361E+02  0.10566000000E+00 0. -1.
        994    1    1    2    0    0 -0.38641409030E+01  0.21879648303E+01  0.63128646093E+01  0.17137389251E+03  0.17120000000E+03 0.  0.
        998    1    1    2    0    0  0.41258044151E+01  0.10469111329E+02  0.14834995704E+04  0.14835759501E+04  0.10000000000E+02 0. -1.
</event>
<event>
 5    1  0.1574792E-008  0.3844270E+03  0.7957747E-01  0.3432106E+00
         13   -1    0    0    0    0  0.00000000000E+00  0.00000000000E+00  0.14999999963E+04  0.15000000000E+04  0.10566000000E+00 0.  1.
        994   -1    0    0    0    0 -0.00000000000E+00 -0.00000000000E+00  0.11368683772E-12  0.17120000000E+03  0.17120000000E+03 0.  0.
         13    1    1    2    0    0 -0.11304685757E+02 -0.11099045235E+02  0.68606757475E+02  0.70412236581E+02  0.10566000000E+00 0.  1.
        994    1    1    2    0    0 -0.43116096474E+01  0.76130605898E+01  0.21671373505E+01  0.17143711720E+03  0.17120000000E+03 0.  0.
        998    1    1    2    0    0  0.15616295405E+02  0.34859846452E+01  0.14292261015E+04  0.14293506462E+04  0.10000000000E+02 0.  1.
</event>
<event>
 5    1  0.1574792E-008  0.3783228E+03  0.7957747E-01  0.3458494E+00
         13   -1    0    0    0    0  0.00000000000E+00  0.00000000000E+00  0.14999999963E+04  0.15000000000E+04  0.10566000000E+00 0.  1.
        994   -1    0    0    0    0 -0.00000000000E+00 -0.00000000000E+00  0.11368683772E-12  0.17120000000E+03  0.17120000000E+03 0.  0.
         13    1    1    2    0    0  0.34495581133E+01  0.34426228428E+02  0.12823919267E+03  0.13282456985E+03  0.10566000000E+00 0.  1.
        994    1    1    2    0    0  0.97543608402E+01 -0.70656579373E+01  0.54699867558E+01  0.17171031370E+03  0.17120000000E+03 0.  0.
        998    1    1    2    0    0 -0.13203918953E+02 -0.27360570491E+02  0.13662908169E+04  0.13666651164E+04  0.10000000000E+02 0.  1.
</event>
<event>
 5    1  0.1574792E-008  0.3748581E+03  0.7957747E-01  0.3473858E+00
         13   -1    0    0    0    0  0.00000000000E+00  0.00000000000E+00  0.14999999963E+04  0.15000000000E+04  0.10566000000E+00 0.  1.
        994   -1    0    0    0    0 -0.00000000000E+00 -0.00000000000E+00  0.11368683772E-12  0.17120000000E+03  0.17120000000E+03 0.  0.
         13    1    1    2    0    0  0.24466770364E+02  0.54503920946E+01  0.67338358290E+02  0.71852594158E+02  0.10566000000E+00 0.  1.
        994    1    1    2    0    0  0.10202107492E+03  0.71106013093E+01  0.43196806801E+02  0.20404476101E+03  0.17120000000E+03 0.  0.
        998    1    1    2    0    0 -0.12648784529E+03 -0.12560993404E+02  0.13894648312E+04  0.13953026448E+04  0.10000000000E+02 0.  1.
</event>
<event>
 5    1  0.1574792E-008  0.3853105E+03  0.7957747E-01  0.3428356E+00
         13   -1    0    0    0    0  0.00000000000E+00  0.00000000000E+00  0.14999999963E+04  0.15000000000E+04  0.10566000000E+00 0.  1.
        994   -1    0    0    0    0 -0.00000000000E+00 -0.00000000000E+00  0.11368683772E-12  0.17120000000E+03  0.17120000000E+03 0.  0.
         13    1    1    2    0    0 -0.58814371711E+01  0.15169677421E+02  0.88389270592E+02  0.89874271825E+02  0.10566000000E+00 0.  1.
        994    1    1    2    0    0  0.16563907107E+01 -0.13091705554E+02  0.20483728594E+01  0.17172004023E+03  0.17120000000E+03 0.  0.
        998    1    1    2    0    0  0.42250464604E+01 -0.20779718676E+01  0.14095623528E+04  0.14096056879E+04  0.10000000000E+02 0.  1.
</event>
<event>
 5    1  0.1574792E-008  0.3764070E+03  0.7957747E-01  0.3466954E+00
         13   -1    0    0    0    0  0.00000000000E+00  0.00000000000E+00  0.14999999963E+04  0.15000000000E+04  0.10566000000E+00 0.  1.
        994   -1    0    0    0    0 -0.00000000000E+00 -0.00000000000E+00  0.11368683772E-12  0.17120000000E+03  0.17120000000E+03 0.  0.
         13    1    1    2    0    0 -0.29351219680E+02 -0.79447984668E+01  0.78037164074E+02  0.83752158541E+02  0.10566000000E+00 0.  1.
        994    1    1    2    0    0  0.10875986095E+02 -0.39088804496E+00  0.63587770854E+01  0.17166337383E+03  0.17120000000E+03 0.  0.
        998    1    1    2    0    0  0.18475233585E+02  0.83356865117E+01  0.14156040551E+04  0.14157844676E+04  0.10000000000E+02 0.  1.
</event>
<event>
 5    1  0.1574792E-008  0.3794482E+03  0.7957747E-01  0.3453565E+00
         13   -1    0    0    0    0  0.00000000000E+00  0.00000000000E+00  0.14999999963E+04  0.15000000000E+04  0.10566000000E+00 0.  1.
        994   -1    0    0    0    0 -0.00000000000E+00 -0.00000000000E+00  0.11368683772E-12  0.17120000000E+03  0.17120000000E+03 0.  0.
         13    1    1    2    0    0  0.34132850355E+01  0.18736744020E+02  0.39475459420E+02  0.43829660638E+02  0.10566000000E+00 0.  1.
        994    1    1    2    0    0  0.41188253426E+01 -0.13031370200E+02  0.50377293690E+01  0.17181850904E+03  0.17120000000E+03 0.  0.
        998    1    1    2    0    0 -0.75321103781E+01 -0.57053738195E+01  0.14554868075E+04  0.14555518303E+04  0.10000000000E+02 0.  1.
</event>
<event>
 5    1  0.1574792E-008  0.3845282E+03  0.7957747E-01  0.3431676E+00
         13   -1    0    0    0    0  0.00000000000E+00  0.00000000000E+00  0.14999999963E+04  0.15000000000E+04  0.10566000000E+00 0.  1.
        994   -1    0    0    0    0 -0.00000000000E+00 -0.00000000000E+00  0.11368683772E-12  0.17120000000E+03  0.17120000000E+03 0.  0.
         13    1    1    2    0    0  0.15864914429E+02 -0.12027588893E+02  0.10955543493E+03  0.11134973233E+03  0.10566000000E+00 0.  1.
        994    1    1    2    0    0 -0.91871612619E+01  0.18036613446E+01  0.21533514941E+01  0.17146933851E+03  0.17120000000E+03 0.  0.
        998    1    1    2    0    0 -0.66777531671E+01  0.10223927548E+02  0.13882912099E+04  0.13883809292E+04  0.10000000000E+02 0.  1.
</event>
<event>
 5    1  0.1574792E-008  0.3840782E+03  0.7957747E-01  0.3433591E+00
         13   -1    0    0    0    0  0.00000000000E+00  0.00000000000E+00  0.14999999963E+04  0.15000000000E+04  0.10566000000E+00 0.  1.
        994   -1    0    0    0    0 -0.00000000000E+00 -0.00000000000E+00  0.11368683772E-12  0.17120000000E+03  0.17120000000E+03 0.  0.
         13    1    1    2    0    0  0.82054124301E+01  0.96967860132E+01  0.36739912177E+02  0.38874011408E+02  0.10566000000E+00 0.  1.
        994    1    1    2    0    0 -0.14524745289E+02 -0.10178372685E+02  0.31267526811E+01  0.17214466033E+03  0.17120000000E+03 0.  0.
        998    1    1    2    0    0  0.63193328585E+01  0.48158667142E+00  0.14601333314E+04  0.14601813283E+04  0.10000000000E+02 0.  1.
</event>
<event>
 5    1  0.1574792E-008  0.3807566E+03  0.7957747E-01  0.3447871E+00
         13   -1    0    0    0    0  0.00000000000E+00  0.00000000000E+00  0.14999999963E+04  0.15000000000E+04  0.10566000000E+00 0.  1.
        994   -1    0    0    0    0 -0.00000000000E+00 -0.00000000000E+00  0.11368683772E-12  0.17120000000E+03  0.17120000000E+03 0.  0.
         13    1    1    2    0    0 -0.12836834035E+02  0.62192292813E+01  0.25523368230E+02  0.29238957073E+02  0.10566000000E+00 0.  1.
        994    1    1    2    0    0  0.10626828697E+02 -0.35922240527E+01  0.41714134361E+01  0.17161781449E+03  0.17120000000E+03 0.  0.
        998    1    1    2    0    0  0.22100053380E+01 -0.26270052286E+01  0.14703052146E+04  0.14703432284E+04  0.10000000000E+02 0.  1.
</event>
<event>
 5    1  0.1574792E-008  0.3691763E+03  0.7957747E-01  0.3499685E+00
         13   -1    0    0    0    0  0.00000000000E+00  0.00000000000E+00  0.14999999963E+04  0.15000000000E+04  0.10566000000E+00 0. -1.
        994   -1    0    0    0    0 -0.00000000000E+00 -0.00000000000E+00  0.11368683772E-12  0.17120000000E+03  0.17120000000E+03 0.  0.
         13    1    1    2    0    0 -0.60605879803E+02  0.17416392766E+03  0.60865577093E+03  0.63597799098E+03  0.10566000000E+00 0. -1.
        994    1    1    2    0    0  0.64211447312E+02 -0.19883364314E+03  0.18279004292E+03  0.32615880703E+03  0.17120000000E+03 0.  0.
        998    1    1    2    0    0 -0.36055675087E+01  0.24669715481E+02  0.70855418243E+03  0.70906320199E+03  0.10000000000E+02 0. -1.
</event>
<event>
 5    1  0.1574792E-008  0.3797129E+03  0.7957747E-01  0.3452410E+00
         13   -1    0    0    0    0  0.00000000000E+00  0.00000000000E+00  0.14999999963E+04  0.15000000000E+04  0.10566000000E+00 0. -1.
        994   -1    0    0    0    0 -0.00000000000E+00 -0.00000000000E+00  0.11368683772E-12  0.17120000000E+03  0.17120000000E+03 0.  0.
         13    1    1    2    0    0 -0.21361005260E+02  0.15065430272E+02  0.76702876918E+02  0.81034574267E+02  0.10566000000E+00 0. -1.
        994    1    1    2    0    0  0.11391171040E+02 -0.20401016983E+02  0.61071321376E+01  0.17289504717E+03  0.17120000000E+03 0.  0.
        998    1    1    2    0    0  0.99698342208E+01  0.53355867110E+01  0.14171899872E+04  0.14172703786E+04  0.10000000000E+02 0. -1.
</event>
<event>
 5    1  0.1574792E-008  0.3841664E+03  0.7957747E-01  0.3433215E+00
         13   -1    0    0    0    0  0.00000000000E+00  0.00000000000E+00  0.14999999963E+04  0.15000000000E+04  0.10566000000E+00 0. -1.
        994   -1    0    0    0    0 -0.00000000000E+00 -0.00000000000E+00  0.11368683772E-12  0.17120000000E+03  0.17120000000E+03 0.  0.
         13    1    1    2    0    0  0.15262015027E+02  0.44875247394E+01  0.65664623681E+02  0.67564198716E+02  0.10566000000E+00 0. -1.
        994    1    1    2    0    0  0.27893046697E+01 -0.66359724416E+01  0.22154405555E+01  0.17136558735E+03  0.17120000000E+03 0.  0.
        998    1    1    2    0    0 -0.18051319697E+02  0.21484477022E+01  0.14321199320E+04  0.14322702139E+04  0.10000000000E+02 0. -1.
</event>
<event>
 5    1  0.1574792E-008  0.3755422E+03  0.7957747E-01  0.3470801E+00
         13   -1    0    0    0    0  0.00000000000E+00  0.00000000000E+00  0.14999999963E+04  0.15000000000E+04  0.10566000000E+00 0. -1.
        994   -1    0    0    0    0 -0.00000000000E+00 -0.00000000000E+00  0.11368683772E-12  0.17120000000E+03  0.17120000000E+03 0.  0.
         13    1    1    2    0    0  0.26635148109E+02  0.25987335994E+02  0.10796101686E+03  0.11419441787E+03  0.10566000000E+00 0. -1.
        994    1    1    2    0    0 -0.56935905737E+01 -0.20519781737E+02  0.79407079821E+01  0.17270197816E+03  0.17120000000E+03 0.  0.
        998    1    1    2    0    0 -0.20941557535E+02 -0.54675542575E+01  0.13840982714E+04  0.13843036040E+04  0.10000000000E+02 0. -1.
</event>
<event>
 5    1  0.1574792E-008  0.3837544E+03  0.7957747E-01  0.3434972E+00
         13   -1    0    0    0    0  0.00000000000E+00  0.00000000000E+00  0.14999999963E+04  0.15000000000E+04  0.10566000000E+00 0. -1.
        994   -1    0    0    0    0 -0.00000000000E+00 -0.00000000000E+00  0.11368683772E-12  0.17120000000E+03  0.17120000000E+03 0.  0.
         13    1    1    2    0    0  0.15719530839E+02  0.30352222039E+01  0.53764093351E+02  0.56097282657E+02  0.10566000000E+00 0. -1.
        994    1    1    2    0    0 -0.18451178382E+02 -0.11596906278E+02  0.38196076753E+01  0.17262376320E+03  0.17120000000E+03 0.  0.
        998    1    1    2    0    0  0.27316475436E+01  0.85616840741E+01  0.14424162953E+04  0.14424789541E+04  0.10000000000E+02 0. -1.
</event>
<event>
 5    1  0.1574792E-008  0.3399339E+03  0.7957747E-01  0.3646613E+00
         13   -1    0    0    0    0  0.00000000000E+00  0.00000000000E+00  0.14999999963E+04  0.15000000000E+04  0.10566000000E+00 0. -1.
        994   -1    0    0    0    0 -0.00000000000E+00 -0.00000000000E+00  0.11368683772E-12  0.17120000000E+03  0.17120000000E+03 0.  0.
         13    1    1    2    0    0 -0.25984807105E+03 -0.56228605184E+02  0.84255998315E+03  0.88351005226E+03  0.10566000000E+00 0. -1.
        994    1    1    2    0    0  0.25463615977E+03 -0.18439983701E+02  0.32726499719E+03  0.44898933757E+03  0.17120000000E+03 0.  0.
        998    1    1    2    0    0  0.52119112800E+01  0.74668588886E+02  0.33017501593E+03  0.33870061017E+03  0.10000000000E+02 0. -1.
</event>
<event>
 5    1  0.1574792E-008  0.3825317E+03  0.7957747E-01  0.3440208E+00
         13   -1    0    0    0    0  0.00000000000E+00  0.00000000000E+00  0.14999999963E+04  0.15000000000E+04  0.10566000000E+00 0.  1.
        994   -1    0    0    0    0 -0.00000000000E+00 -0.00000000000E+00  0.11368683772E-12  0.17120000000E+03  0.17120000000E+03 0.  0.
         13    1    1    2    0    0  0.49357369924E+00 -0.15481931289E+02  0.40357516689E+02  0.43228163606E+02  0.10566000000E+00 0.  1.
        994    1    1    2    0    0 -0.34854980206E+01  0.14133742081E+02  0.35634125632E+01  0.17185473305E+03  0.17120000000E+03 0.  0.
        998    1    1    2    0    0  0.29919243213E+01  0.13481892082E+01  0.14560790670E+04  0.14561171033E+04  0.10000000000E+02 0.  1.
</event>
<event>
 5    1  0.1574792E-008  0.3792261E+03  0.7957747E-01  0.3454535E+00
         13   -1    0    0    0    0  0.00000000000E+00  0.00000000000E+00  0.14999999963E+04  0.15000000000E+04  0.10566000000E+00 0.  1.
        994   -1    0    0    0    0 -0.00000000000E+00 -0.00000000000E+00  0.11368683772E-12  0.17120000000E+03  0.17120000000E+03 0.  0.
         13    1    1    2    0    0 -0.11971082932E+02  0.35276010863E+01  0.15177331620E+02  0.19649767304E+02  0.10566000000E+00 0.  1.
        994    1    1    2    0    0  0.12462702306E+02  0.31245385812E+01  0.50777846275E+01  0.17175652997E+03  0.17120000000E+03 0.  0.
        998    1    1    2    0    0 -0.49161937439E+00 -0.66521396675E+01  0.14797448800E+04  0.14797937027E+04  0.10000000000E+02 0.  1.
</event>
<event>
 5    1  0.1574792E-008  0.3767498E+03  0.7957747E-01  0.3465434E+00
         13   -1    0    0    0    0  0.00000000000E+00  0.00000000000E+00  0.14999999963E+04  0.15000000000E+04  0.10566000000E+00 0.  1.
        994   -1    0    0    0    0 -0.00000000000E+00 -0.00000000000E+00  0.11368683772E-12  0.17120000000E+03  0.17120000000E+03 0.  0.
         13    1    1    2    0    0 -0.28448515169E+02  0.10536885525E+02  0.75047014427E+02  0.80946954917E+02  0.10566000000E+00 0.  1.
        994    1    1    2    0    0  0.26318868249E+02 -0.68406985466E+01  0.82858043431E+01  0.17354415155E+03  0.17120000000E+03 0.  0.
        998    1    1    2    0    0  0.21296469202E+01 -0.36961869782E+01  0.14166671775E+04  0.14167088935E+04  0.10000000000E+02 0.  1.
</event>
<event>
 5    1  0.1574792E-008  0.3800278E+03  0.7957747E-01  0.3451038E+00
         13   -1    0    0    0    0  0.00000000000E+00  0.00000000000E+00  0.14999999963E+04  0.15000000000E+04  0.10566000000E+00 0.  1.
        994   -1    0    0    0    0 -0.00000000000E+00 -0.00000000000E+00  0.11368683772E-12  0.17120000000E+03  0.17120000000E+03 0.  0.
         13    1    1    2    0    0 -0.94821426960E+01 -0.21187179695E+02  0.78644356619E+02  0.81998497582E+02  0.10566000000E+00 0.  1.
        994    1    1    2    0    0  0.33223897429E+02 -0.45144513758E+02  0.14693519920E+02  0.18074068167E+03  0.17120000000E+03 0.  0.
        998    1    1    2    0    0 -0.23741754733E+02  0.66331693454E+02  0.14066621197E+04  0.14084608207E+04  0.10000000000E+02 0.  1.
</event>
<event>
 5    1  0.1574792E-008  0.3858749E+03  0.7957747E-01  0.3425970E+00
         13   -1    0    0    0    0  0.00000000000E+00  0.00000000000E+00  0.14999999963E+04  0.15000000000E+04  0.10566000000E+00 0. -1.
        994   -1    0    0    0    0 -0.00000000000E+00 -0.00000000000E+00  0.11368683772E-12  0.17120000000E+03  0.17120000000E+03 0.  0.
         13    1    1    2    0    0  0.13162015345E+02 -0.61695871038E+01  0.87817664923E+02  0.89012672635E+02  0.10566000000E+00 0. -1.
        994    1    1    2    0    0 -0.85665335205E+01  0.81860872097E+01  0.16569269279E+01  0.17161754842E+03  0.17120000000E+03 0.  0.
        998    1    1    2    0    0 -0.45954818241E+01 -0.20165001059E+01  0.14105254044E+04  0.14105697789E+04  0.10000000000E+02 0. -1.
</event>
<event>
 5    1  0.1574792E-008  0.3729558E+03  0.7957747E-01  0.3482416E+00
         13   -1    0    0    0    0  0.00000000000E+00  0.00000000000E+00  0.14999999963E+04  0.15000000000E+04  0.10566000000E+00 0.  1.
        994   -1    0    0    0    0 -0.00000000000E+00 -0.00000000000E+00  0.11368683772E-12  0.17120000000E+03  0.17120000000E+03 0.  0.
         13    1    1    2    0    0 -0.73491268438E+02  0.85345751985E+02  0.65309505820E+03  0.66273526398E+03  0.10566000000E+00 0.  1.
        994    1    1    2    0    0  0.38333779672E+02 -0.23113029300E+02  0.19622250160E+02  0.17803978064E+03  0.17120000000E+03 0.  0.
        998    1    1    2    0    0  0.35157488766E+02 -0.62232722685E+02  0.82728268792E+03  0.83042495538E+03  0.10000000000E+02 0.  1.
</event>
<event>
 5    1  0.1574792E-008  0.3686170E+03  0.7957747E-01  0.3502271E+00
         13   -1    0    0    0    0  0.00000000000E+00  0.00000000000E+00  0.14999999963E+04  0.15000000000E+04  0.10566000000E+00 0. -1.
        994   -1    0    0    0    0 -0.00000000000E+00 -0.00000000000E+00  0.11368683772E-12  0.17120000000E+03  0.17120000000E+03 0.  0.
         13    1    1    2    0    0  0.72365478749E+01  0.11260832411E+02  0.43875631879E+01  0.14086725897E+02  0.10566000000E+00 0. -1.
        994    1    1    2    0    0 -0.79479319356E+01 -0.65975663117E+01  0.10364529192E+02  0.17182421532E+03  0.17120000000E+03 0.  0.
        998    1    1    2    0    0  0.71138406070E+00 -0.46632660997E+01  0.14852479039E+04  0.14852890588E+04  0.10000000000E+02 0. -1.
</event>
<event>
 5    1  0.1574792E-008  0.3856290E+03  0.7957747E-01  0.3427009E+00
         13   -1    0    0    0    0  0.00000000000E+00  0.00000000000E+00  0.14999999963E+04  0.15000000000E+04  0.10566000000E+00 0. -1.
        994   -1    0    0    0    0 -0.00000000000E+00 -0.00000000000E+00  0.11368683772E-12  0.17120000000E+03  0.17120000000E+03 0.  0.
         13    1    1    2    0    0 -0.11125269253E+02 -0.31404360333E+00  0.50686042146E+02  0.51893701659E+02  0.10566000000E+00 0. -1.
        994    1    1    2    0    0 -0.37812319377E+01  0.69432954458E+01  0.15233301970E+01  0.17138922837E+03  0.17120000000E+03 0.  0.
        998    1    1    2    0    0  0.14906501190E+02 -0.66292518424E+01  0.14477906239E+04  0.14479170700E+04  0.10000000000E+02 0. -1.
</event>
<event>
 5    1  0.1574792E-008  0.3687117E+03  0.7957747E-01  0.3501833E+00
         13   -1    0    0    0    0  0.00000000000E+00  0.00000000000E+00  0.14999999963E+04  0.15000000000E+04  0.10566000000E+00 0. -1.
        994   -1    0    0    0    0 -0.00000000000E+00 -0.00000000000E+00  0.11368683772E-12  0.17120000000E+03  0.17120000000E+03 0.  0.
         13    1    1    2    0    0  0.10836775516E+02  0.18464844443E+02  0.18550160826E+02  0.28328533576E+02  0.10566000000E+00 0. -1.
        994    1    1    2    0    0 -0.40108188373E+01 -0.21913254038E+02  0.11669549597E+02  0.17303726696E+03  0.17120000000E+03 0.  0.
        998    1    1    2    0    0 -0.68259566784E+01  0.34484095953E+01  0.14697802859E+04  0.14698341995E+04  0.10000000000E+02 0. -1.
</event>
<event>
 5    1  0.1574792E-008  0.2975034E+03  0.7957747E-01  0.3914005E+00
         13   -1    0    0    0    0  0.00000000000E+00  0.00000000000E+00  0.14999999963E+04  0.15000000000E+04  0.10566000000E+00 0.  1.
        994   -1    0    0    0    0 -0.00000000000E+00 -0.00000000000E+00  0.11368683772E-12  0.17120000000E+03  0.17120000000E+03 0.  0.
         13    1    1    2    0    0 -0.13486602538E+03 -0.31034939812E+01  0.81098162281E+03  0.82212510008E+03  0.10566000000E+00 0.  1.
        994    1    1    2    0    0  0.40809338571E+02 -0.16088844401E+02  0.25484518149E+02  0.17855854416E+03  0.17120000000E+03 0.  0.
        998    1    1    2    0    0  0.94056686806E+02  0.19192338382E+02  0.66353385532E+03  0.67051635576E+03  0.10000000000E+02 0.  1.
</event>
<event>
 5    1  0.1574792E-008  0.3718705E+03  0.7957747E-01  0.3487338E+00
         13   -1    0    0    0    0  0.00000000000E+00  0.00000000000E+00  0.14999999963E+04  0.15000000000E+04  0.10566000000E+00 0. -1.
        994   -1    0    0    0    0 -0.00000000000E+00 -0.00000000000E+00  0.11368683772E-12  0.17120000000E+03  0.17120000000E+03 0.  0.
         13    1    1    2    0    0 -0.28661609343E+02 -0.28654220986E+02  0.63232657742E+02  0.75106140891E+02  0.10566000000E+00 0. -1.
        994    1    1    2    0    0  0.29161587485E+02  0.18394399884E+02  0.16126089805E+02  0.17538028083E+03  0.17120000000E+03 0.  0.
        998    1    1    2    0    0 -0.49997814202E+00  0.10259821103E+02  0.14206412487E+04  0.14207135783E+04  0.10000000000E+02 0. -1.
</event>
<event>
 5    1  0.1574792E-008  0.3951523E+03  0.7957747E-01  0.3387724E+00
         13   -1    0    0    0    0  0.00000000000E+00  0.00000000000E+00  0.14999999963E+04  0.15000000000E+04  0.10566000000E+00 0. -1.
        994   -1    0    0    0    0 -0.00000000000E+00 -0.00000000000E+00  0.11368683772E-12  0.17120000000E+03  0.17120000000E+03 0.  0.
         13    1    1    2    0    0  0.26812249162E+02  0.15474681896E+02  0.85010370528E+01  0.32103602288E+02  0.10566000000E+00 0. -1.
        994    1    1    2    0    0 -0.28054898458E+02 -0.25029707976E+02  0.30357849246E+02  0.17788929878E+03  0.17120000000E+03 0.  0.
        998    1    1    2    0    0  0.12426492963E+01  0.95550260805E+01  0.14611411100E+04  0.14612070989E+04  0.10000000000E+02 0. -1.
</event>
<event>
 5    1  0.1574792E-008  0.3707129E+03  0.7957747E-01  0.3492621E+00
         13   -1    0    0    0    0  0.00000000000E+00  0.00000000000E+00  0.14999999963E+04  0.15000000000E+04  0.10566000000E+00 0.  1.
        994   -1    0    0    0    0 -0.00000000000E+00 -0.00000000000E+00  0.11368683772E-12  0.17120000000E+03  0.17120000000E+03 0.  0.
         13    1    1    2    0    0  0.14478763992E+01  0.11087672242E+03  0.52002284051E+03  0.53171374793E+03  0.10566000000E+00 0.  1.
        994    1    1    2    0    0  0.28382501195E+02 -0.96521733071E+02  0.44664739331E+02  0.20353473971E+03  0.17120000000E+03 0.  0.
        998    1    1    2    0    0 -0.29830377594E+02 -0.14354989353E+02  0.93531241644E+03  0.93595151236E+03  0.10000000000E+02 0. -1.
</event>
<event>
 5    1  0.1574792E-008  0.3773695E+03  0.7957747E-01  0.3462693E+00
         13   -1    0    0    0    0  0.00000000000E+00  0.00000000000E+00  0.14999999963E+04  0.15000000000E+04  0.10566000000E+00 0. -1.
        994   -1    0    0    0    0 -0.00000000000E+00 -0.00000000000E+00  0.11368683772E-12  0.17120000000E+03  0.17120000000E+03 0.  0.
         13    1    1    2    0    0 -0.16615688432E+03  0.53350072660E+02  0.91603625379E+03  0.93251100255E+03  0.10566000000E+00 0. -1.
        994    1    1    2    0    0  0.16696125588E+03 -0.47997610394E+02  0.11511938920E+03  0.26970677659E+03  0.17120000000E+03 0.  0.
        998    1    1    2    0    0 -0.80437156014E+00 -0.53524622662E+01  0.46884435330E+03  0.46898222086E+03  0.10000000000E+02 0.  0.
</event>
<event>
 5    1  0.1574792E-008  0.3205964E+03  0.7957747E-01  0.3759134E+00
         13   -1    0    0    0    0  0.00000000000E+00  0.00000000000E+00  0.14999999963E+04  0.15000000000E+04  0.10566000000E+00 0.  1.
        994   -1    0    0    0    0 -0.00000000000E+00 -0.00000000000E+00  0.11368683772E-12  0.17120000000E+03  0.17120000000E+03 0.  0.
         13    1    1    2    0    0  0.10037175260E+03  0.22178260140E+03  0.65505446796E+03  0.69882642921E+03  0.10566000000E+00 0.  1.
        994    1    1    2    0    0 -0.29220675162E+02 -0.26100016564E+03  0.34659942013E+03  0.46734947561E+03  0.17120000000E+03 0.  0.
        998    1    1    2    0    0 -0.71151077434E+02  0.39217564240E+02  0.49834610819E+03  0.50502409518E+03  0.10000000000E+02 0. -1.
</event>
<event>
 5    1  0.1574792E-008  0.3849367E+03  0.7957747E-01  0.3429941E+00
         13   -1    0    0    0    0  0.00000000000E+00  0.00000000000E+00  0.14999999963E+04  0.15000000000E+04  0.10566000000E+00 0.  1.
        994   -1    0    0    0    0 -0.00000000000E+00 -0.00000000000E+00  0.11368683772E-12  0.17120000000E+03  0.17120000000E+03 0.  0.
         13    1    1    2    0    0 -0.12869482890E+02 -0.36010366240E+01  0.51286661018E+02  0.52999281287E+02  0.10566000000E+00 0.  1.
        994    1    1    2    0    0  0.19798404159E+02 -0.68287523919E+01  0.31056153382E+01  0.17250418405E+03  0.17120000000E+03 0.  0.
        998    1    1    2    0    0 -0.69289212693E+01  0.10429789016E+02  0.14456077199E+04  0.14456965347E+04  0.10000000000E+02 0.  1.
</event>
<event>
 5    1  0.1574792E-008  0.3767293E+03  0.7957747E-01  0.3465525E+00
         13   -1    0    0    0    0  0.00000000000E+00  0.00000000000E+00  0.14999999963E+04  0.15000000000E+04  0.10566000000E+00 0. -1.
        994   -1    0    0    0    0 -0.00000000000E+00 -0.00000000000E+00  0.11368683772E-12  0.17120000000E+03  0.17120000000E+03 0.  0.
         13    1    1    2    0    0  0.24445154449E+02  0.23674670289E+02  0.90922707436E+02  0.97082467422E+02  0.10566000000E+00 0. -1.
        994    1    1    2    0    0 -0.13747558455E+02 -0.40906566623E+02  0.12113142712E+02  0.17697036696E+03  0.17120000000E+03 0.  0.
        998    1    1    2    0    0 -0.10697595994E+02  0.17231896333E+02  0.13969641461E+04  0.13971471656E+04  0.10000000000E+02 0. -1.
</event>
<event>
 5    1  0.1574792E-008  0.3716061E+03  0.7957747E-01  0.3488542E+00
         13   -1    0    0    0    0  0.00000000000E+00  0.00000000000E+00  0.14999999963E+04  0.15000000000E+04  0.10566000000E+00 0.  1.
        994   -1    0    0    0    0 -0.00000000000E+00 -0.00000000000E+00  0.11368683772E-12  0.17120000000E+03  0.17120000000E+03 0.  0.
         13    1    1    2    0    0  0.77685322868E+01 -0.17772122139E+02  0.19118602919E+02  0.27234730783E+02  0.10566000000E+00 0.  1.
        994    1    1    2    0    0 -0.90904686334E+01  0.35914952240E+00  0.87166568015E+01  0.17166300042E+03  0.17120000000E+03 0.  0.
        998    1    1    2    0    0  0.13219363466E+01  0.17412972617E+02  0.14721647366E+04  0.14723022688E+04  0.10000000000E+02 0.  1.
</event>
<event>
 5    1  0.1574792E-008  0.3844102E+03  0.7957747E-01  0.3432178E+00
         13   -1    0    0    0    0  0.00000000000E+00  0.00000000000E+00  0.14999999963E+04  0.15000000000E+04  0.10566000000E+00 0. -1.
        994   -1    0    0    0    0 -0.00000000000E+00 -0.00000000000E+00  0.11368683772E-12  0.17120000000E+03  0.17120000000E+03 0.  0.
         13    1    1    2    0    0 -0.62958071792E+01 -0.13736953339E+02  0.59348270962E+02  0.61241893384E+02  0.10566000000E+00 0. -1.
        994    1    1    2    0    0 -0.22750586673E+01  0.11156959943E+02  0.23505754033E+01  0.17159434388E+03  0.17120000000E+03 0.  0.
        998    1    1    2    0    0  0.85708658465E+01  0.25799933959E+01  0.14383011499E+04  0.14383637627E+04  0.10000000000E+02 0. -1.
</event>
<event>
 5    1  0.1721753E-008  0.3857491E+03  0.7957747E-01  0.3426502E+00
         13   -1    0    0    0    0  0.00000000000E+00  0.00000000000E+00  0.14999999963E+04  0.15000000000E+04  0.10566000000E+00 0. -1.
        994   -1    0    0    0    0 -0.00000000000E+00 -0.00000000000E+00  0.11368683772E-12  0.17120000000E+03  0.17120000000E+03 0.  0.
         13    1    1    2    0    0 -0.87282013886E+01  0.84619845477E+01  0.57346974497E+02  0.58621440872E+02  0.10566000000E+00 0. -1.
        994    1    1    2    0    0  0.95708586951E+01 -0.85448279248E+01  0.17989335451E+01  0.17168952089E+03  0.17120000000E+03 0.  0.
        998    1    1    2    0    0 -0.84265730645E+00  0.82843377015E-01  0.14408540882E+04  0.14408890382E+04  0.10000000000E+02 0. -1.
</event>
<event>
 5    1  0.1574792E-008  0.3796299E+03  0.7957747E-01  0.3452771E+00
         13   -1    0    0    0    0  0.00000000000E+00  0.00000000000E+00  0.14999999963E+04  0.15000000000E+04  0.10566000000E+00 0. -1.
        994   -1    0    0    0    0 -0.00000000000E+00 -0.00000000000E+00  0.11368683772E-12  0.17120000000E+03  0.17120000000E+03 0.  0.
         13    1    1    2    0    0  0.22207321667E+02  0.27222955859E+02  0.33682361581E+02  0.48669981580E+02  0.10566000000E+00 0. -1.
        994    1    1    2    0    0 -0.18295734305E+02  0.11230563946E+02  0.17793499277E+02  0.17345578133E+03  0.17120000000E+03 0.  0.
        998    1    1    2    0    0 -0.39115873621E+01 -0.38453519805E+02  0.14485241354E+04  0.14490742371E+04  0.10000000000E+02 0. -1.
</event>
<event>
 5    1  0.1574792E-008  0.3847244E+03  0.7957747E-01  0.3430842E+00
         13   -1    0    0    0    0  0.00000000000E+00  0.00000000000E+00  0.14999999963E+04  0.15000000000E+04  0.10566000000E+00 0.  1.
        994   -1    0    0    0    0 -0.00000000000E+00 -0.00000000000E+00  0.11368683772E-12  0.17120000000E+03  0.17120000000E+03 0.  0.
         13    1    1    2    0    0  0.12688504602E+02 -0.52033295698E+01  0.55544119371E+02  0.57212176575E+02  0.10566000000E+00 0.  1.
        994    1    1    2    0    0  0.10889053740E+01  0.55004476384E+01  0.18705439003E+01  0.17130201275E+03  0.17120000000E+03 0.  0.
        998    1    1    2    0    0 -0.13777409976E+02 -0.29711806868E+00  0.14425853330E+04  0.14426858107E+04  0.10000000000E+02 0.  1.
</event>
<event>
 5    1  0.1574792E-008  0.3702498E+03  0.7957747E-01  0.3494744E+00
         13   -1    0    0    0    0  0.00000000000E+00  0.00000000000E+00  0.14999999963E+04  0.15000000000E+04  0.10566000000E+00 0. -1.
        994   -1    0    0    0    0 -0.00000000000E+00 -0.00000000000E+00  0.11368683772E-12  0.17120000000E+03  0.17120000000E+03 0.  0.
         13    1    1    2    0    0  0.87879780305E+02 -0.39785920448E+02  0.42040156813E+03  0.43132732919E+03  0.10566000000E+00 0. -1.
        994    1    1    2    0    0 -0.68787396452E+02  0.39239169335E+02  0.31127338829E+02  0.19117994022E+03  0.17120000000E+03 0.  0.
        998    1    1    2    0    0 -0.19092383853E+02  0.54675111292E+00  0.10484710893E+04  0.10486927306E+04  0.10000000000E+02 0. -1.
</event>
<event>
 5    1  0.1574792E-008  0.3816686E+03  0.7957747E-01  0.3443925E+00
         13   -1    0    0    0    0  0.00000000000E+00  0.00000000000E+00  0.14999999963E+04  0.15000000000E+04  0.10566000000E+00 0.  1.
        994   -1    0    0    0    0 -0.00000000000E+00 -0.00000000000E+00  0.11368683772E-12  0.17120000000E+03  0.17120000000E+03 0.  0.
         13    1    1    2    0    0 -0.15454405960E+02 -0.11041162653E+02  0.54618369065E+02  0.57826666337E+02  0.10566000000E+00 0.  1.
        994    1    1    2    0    0  0.86960118676E+01  0.17992921068E+01  0.35554496232E+01  0.17146702102E+03  0.17120000000E+03 0.  0.
        998    1    1    2    0    0  0.67583940928E+01  0.92418705466E+01  0.14418261776E+04  0.14419063126E+04  0.10000000000E+02 0.  1.
</event>
<event>
 5    1  0.1574792E-008  0.3829170E+03  0.7957747E-01  0.3438555E+00
         13   -1    0    0    0    0  0.00000000000E+00  0.00000000000E+00  0.14999999963E+04  0.15000000000E+04  0.10566000000E+00 0.  1.
        994   -1    0    0    0    0 -0.00000000000E+00 -0.00000000000E+00  0.11368683772E-12  0.17120000000E+03  0.17120000000E+03 0.  0.
         13    1    1    2    0    0  0.14414277538E+02  0.90713507857E+01  0.52896152210E+02  0.55570449743E+02  0.10566000000E+00 0.  1.
        994    1    1    2    0    0 -0.42710447960E+01 -0.19487793348E+02  0.39867893608E+01  0.17240461247E+03  0.17120000000E+03 0.  0.
        998    1    1    2    0    0 -0.10143232742E+02  0.10416442562E+02  0.14431170547E+04  0.14432249378E+04  0.10000000000E+02 0.  1.
</event>
<event>
 5    1  0.1574792E-008  0.3863142E+03  0.7957747E-01  0.3424117E+00
         13   -1    0    0    0    0  0.00000000000E+00  0.00000000000E+00  0.14999999963E+04  0.15000000000E+04  0.10566000000E+00 0.  1.
        994   -1    0    0    0    0 -0.00000000000E+00 -0.00000000000E+00  0.11368683772E-12  0.17120000000E+03  0.17120000000E+03 0.  0.
         13    1    1    2    0    0  0.53582819061E+01  0.92344947880E+01  0.63546883554E+02  0.64437602783E+02  0.10566000000E+00 0.  1.
        994    1    1    2    0    0 -0.30588590992E+01  0.34401710389E+01  0.10484352137E+01  0.17126508871E+03  0.17120000000E+03 0.  0.
        998    1    1    2    0    0 -0.22994228069E+01 -0.12674665827E+02  0.14354046775E+04  0.14354973085E+04  0.10000000000E+02 0.  1.
</event>
<event>
 5    1  0.1574792E-008  0.2483903E+03  0.7957747E-01  0.4350975E+00
         13   -1    0    0    0    0  0.00000000000E+00  0.00000000000E+00  0.14999999963E+04  0.15000000000E+04  0.10566000000E+00 0. -1.
        994   -1    0    0    0    0 -0.00000000000E+00 -0.00000000000E+00  0.11368683772E-12  0.17120000000E+03  0.17120000000E+03 0.  0.
         13    1    1    2    0    0 -0.16291538186E+03 -0.38612307127E+02  0.32056491954E+03  0.36165482260E+03  0.10566000000E+00 0. -1.
        994    1    1    2    0    0  0.14079503384E+03  0.45768287245E+02  0.13242349856E+03  0.26222776482E+03  0.17120000000E+03 0.  0.
        998    1    1    2    0    0  0.22120348013E+02 -0.71559801183E+01  0.10470115782E+04  0.10473174126E+04  0.10000000000E+02 0. -1.
</event>
<event>
 5    1  0.1574792E-008  0.3753099E+03  0.7957747E-01  0.3471838E+00
         13   -1    0    0    0    0  0.00000000000E+00  0.00000000000E+00  0.14999999963E+04  0.15000000000E+04  0.10566000000E+00 0. -1.
        994   -1    0    0    0    0 -0.00000000000E+00 -0.00000000000E+00  0.11368683772E-12  0.17120000000E+03  0.17120000000E+03 0.  0.
         13    1    1    2    0    0 -0.69099671751E+01  0.10477617357E+02  0.89969965556E+01  0.15442966778E+02  0.10566000000E+00 0. -1.
        994    1    1    2    0    0 -0.13267557793E+01 -0.19687814098E+02  0.78429469649E+01  0.17251180285E+03  0.17120000000E+03 0.  0.
        998    1    1    2    0    0  0.82367229543E+01  0.92101967405E+01  0.14831600528E+04  0.14832452304E+04  0.10000000000E+02 0. -1.
</event>
<event>
 5    1  0.1574792E-008  0.3811922E+03  0.7957747E-01  0.3445984E+00
         13   -1    0    0    0    0  0.00000000000E+00  0.00000000000E+00  0.14999999963E+04  0.15000000000E+04  0.10566000000E+00 0. -1.
        994   -1    0    0    0    0 -0.00000000000E+00 -0.00000000000E+00  0.11368683772E-12  0.17120000000E+03  0.17120000000E+03 0.  0.
         13    1    1    2    0    0 -0.14797592872E+02  0.19323067716E+02  0.77648215572E+02  0.81373252647E+02  0.10566000000E+00 0. -1.
        994    1    1    2    0    0  0.11944000324E+02 -0.26238864934E+02  0.63049733525E+01  0.17372486830E+03  0.17120000000E+03 0.  0.
        998    1    1    2    0    0  0.28535925478E+01  0.69157972176E+01  0.14160468074E+04  0.14161018791E+04  0.10000000000E+02 0. -1.
</event>
<event>
 5    1  0.1574792E-008  0.3823430E+03  0.7957747E-01  0.3441019E+00
         13   -1    0    0    0    0  0.00000000000E+00  0.00000000000E+00  0.14999999963E+04  0.15000000000E+04  0.10566000000E+00 0.  1.
        994   -1    0    0    0    0 -0.00000000000E+00 -0.00000000000E+00  0.11368683772E-12  0.17120000000E+03  0.17120000000E+03 0.  0.
         13    1    1    2    0    0  0.61577576424E+01 -0.81001908638E+01  0.16260852096E+02  0.19182219531E+02  0.10566000000E+00 0.  1.
        994    1    1    2    0    0  0.24438325323E+01  0.12858096313E+02  0.35235013617E+01  0.17173572144E+03  0.17120000000E+03 0.  0.
        998    1    1    2    0    0 -0.86015901747E+01 -0.47579054491E+01  0.14802156428E+04  0.14802820590E+04  0.10000000000E+02 0.  1.
</event>
<event>
 5    1  0.1574792E-008  0.3743997E+03  0.7957747E-01  0.3475912E+00
         13   -1    0    0    0    0  0.00000000000E+00  0.00000000000E+00  0.14999999963E+04  0.15000000000E+04  0.10566000000E+00 0.  1.
        994   -1    0    0    0    0 -0.00000000000E+00 -0.00000000000E+00  0.11368683772E-12  0.17120000000E+03  0.17120000000E+03 0.  0.
         13    1    1    2    0    0  0.52879819923E+02 -0.32535199299E+02  0.21174118416E+03  0.22065619135E+03  0.10566000000E+00 0.  1.
        994    1    1    2    0    0 -0.72556160127E+02  0.33610512025E+02  0.29088503591E+02  0.19117961171E+03  0.17120000000E+03 0.  0.
        998    1    1    2    0    0  0.19676340204E+02 -0.10753127256E+01  0.12591703085E+04  0.12593641969E+04  0.10000000000E+02 0.  1.
</event>
<event>
 5    1  0.1574792E-008  0.3800747E+03  0.7957747E-01  0.3450833E+00
         13   -1    0    0    0    0  0.00000000000E+00  0.00000000000E+00  0.14999999963E+04  0.15000000000E+04  0.10566000000E+00 0.  1.
        994   -1    0    0    0    0 -0.00000000000E+00 -0.00000000000E+00  0.11368683772E-12  0.17120000000E+03  0.17120000000E+03 0.  0.
         13    1    1    2    0    0 -0.22411155240E+01  0.27471533140E+02  0.82303744010E+02  0.86796458303E+02  0.10566000000E+00 0.  1.
        994    1    1    2    0    0 -0.12413257880E+02 -0.40585077992E+02  0.10138953030E+02  0.17667335933E+03  0.17120000000E+03 0.  0.
        998    1    1    2    0    0  0.14654373404E+02  0.13113544852E+02  0.14075572992E+04  0.14077301824E+04  0.10000000000E+02 0.  1.
</event>
<event>
 5    1  0.1574792E-008  0.3838506E+03  0.7957747E-01  0.3434562E+00
         13   -1    0    0    0    0  0.00000000000E+00  0.00000000000E+00  0.14999999963E+04  0.15000000000E+04  0.10566000000E+00 0.  1.
        994   -1    0    0    0    0 -0.00000000000E+00 -0.00000000000E+00  0.11368683772E-12  0.17120000000E+03  0.17120000000E+03 0.  0.
         13    1    1    2    0    0  0.11169860308E+03  0.50809072036E+02  0.41451182665E+03  0.43229411901E+03  0.10566000000E+00 0.  1.
        994    1    1    2    0    0 -0.53242970240E+02 -0.48899994475E+02  0.37929873973E+02  0.18966849680E+03  0.17120000000E+03 0.  0.
        998    1    1    2    0    0 -0.58455632837E+02 -0.19090775612E+01  0.10475582957E+04  0.10492373842E+04  0.10000000000E+02 0.  1.
</event>
<event>
 5    1  0.1574792E-008  0.3791456E+03  0.7957747E-01  0.3454887E+00
         13   -1    0    0    0    0  0.00000000000E+00  0.00000000000E+00  0.14999999963E+04  0.15000000000E+04  0.10566000000E+00 0. -1.
        994   -1    0    0    0    0 -0.00000000000E+00 -0.00000000000E+00  0.11368683772E-12  0.17120000000E+03  0.17120000000E+03 0.  0.
         13    1    1    2    0    0 -0.12519572559E+01  0.39941282524E+02  0.16415026327E+03  0.16894435043E+03  0.10566000000E+00 0. -1.
        994    1    1    2    0    0  0.25562643741E+02 -0.31859560416E+02  0.10178858307E+02  0.17629954481E+03  0.17120000000E+03 0.  0.
        998    1    1    2    0    0 -0.24310686485E+02 -0.80817221086E+01  0.13256708747E+04  0.13259561048E+04  0.10000000000E+02 0. -1.
</event>
<event>
 5    1  0.1574792E-008  0.3810953E+03  0.7957747E-01  0.3446403E+00
         13   -1    0    0    0    0  0.00000000000E+00  0.00000000000E+00  0.14999999963E+04  0.15000000000E+04  0.10566000000E+00 0.  1.
        994   -1    0    0    0    0 -0.00000000000E+00 -0.00000000000E+00  0.11368683772E-12  0.17120000000E+03  0.17120000000E+03 0.  0.
         13    1    1    2    0    0 -0.19110612993E+01 -0.37944749648E+02  0.16124778319E+03  0.16566325763E+03  0.10566000000E+00 0.  1.
        994    1    1    2    0    0  0.79284704525E+01  0.53890459831E+02  0.13527954911E+02  0.18016516830E+03  0.17120000000E+03 0.  0.
        998    1    1    2    0    0 -0.60174091531E+01 -0.15945710183E+02  0.13252242582E+04  0.13253715741E+04  0.10000000000E+02 0.  1.
</event>
<event>
 5    1  0.1574792E-008  0.3819514E+03  0.7957747E-01  0.3442705E+00
         13   -1    0    0    0    0  0.00000000000E+00  0.00000000000E+00  0.14999999963E+04  0.15000000000E+04  0.10566000000E+00 0. -1.
        994   -1    0    0    0    0 -0.00000000000E+00 -0.00000000000E+00  0.11368683772E-12  0.17120000000E+03  0.17120000000E+03 0.  0.
         13    1    1    2    0    0 -0.17595144627E+02 -0.24980629742E+02  0.14356625438E+03  0.14678181610E+03  0.10566000000E+00 0. -1.
        994    1    1    2    0    0  0.22491166075E+02  0.10879444419E+02  0.52274119709E+01  0.17309240509E+03  0.17120000000E+03 0.  0.
        998    1    1    2    0    0 -0.48960214480E+01  0.14101185323E+02  0.13512063299E+04  0.13513257788E+04  0.10000000000E+02 0. -1.
</event>
<event>
 5    1  0.1574792E-008  0.3806355E+03  0.7957747E-01  0.3448396E+00
         13   -1    0    0    0    0  0.00000000000E+00  0.00000000000E+00  0.14999999963E+04  0.15000000000E+04  0.10566000000E+00 0.  1.
        994   -1    0    0    0    0 -0.00000000000E+00 -0.00000000000E+00  0.11368683772E-12  0.17120000000E+03  0.17120000000E+03 0.  0.
         13    1    1    2    0    0 -0.22869199938E+02  0.19328821416E+02  0.11154713778E+03  0.11549622832E+03  0.10566000000E+00 0.  1.
        994    1    1    2    0    0  0.21106535461E+02 -0.14513327297E+02  0.60045120514E+01  0.17320974763E+03  0.17120000000E+03 0.  0.
        998    1    1    2    0    0  0.17626644767E+01 -0.48154941189E+01  0.13824483464E+04  0.13824940241E+04  0.10000000000E+02 0.  1.
</event>
<event>
 5    1  0.1574792E-008  0.3792911E+03  0.7957747E-01  0.3454251E+00
         13   -1    0    0    0    0  0.00000000000E+00  0.00000000000E+00  0.14999999963E+04  0.15000000000E+04  0.10566000000E+00 0.  1.
        994   -1    0    0    0    0 -0.00000000000E+00 -0.00000000000E+00  0.11368683772E-12  0.17120000000E+03  0.17120000000E+03 0.  0.
         13    1    1    2    0    0 -0.42307951990E+02  0.10235960307E+03  0.66532512452E+03  0.67448127003E+03  0.10566000000E+00 0.  1.
        994    1    1    2    0    0  0.40942357108E+02 -0.10923650302E+03  0.51531678593E+02  0.21348031313E+03  0.17120000000E+03 0.  0.
        998    1    1    2    0    0  0.13655948813E+01  0.68768999459E+01  0.78314319316E+03  0.78323841683E+03  0.10000000000E+02 0.  0.
</event>
<event>
 5    1  0.1574792E-008  0.3831561E+03  0.7957747E-01  0.3437530E+00
         13   -1    0    0    0    0  0.00000000000E+00  0.00000000000E+00  0.14999999963E+04  0.15000000000E+04  0.10566000000E+00 0.  1.
        994   -1    0    0    0    0 -0.00000000000E+00 -0.00000000000E+00  0.11368683772E-12  0.17120000000E+03  0.17120000000E+03 0.  0.
         13    1    1    2    0    0  0.16017194005E+02 -0.65677018947E+01  0.60987654675E+02  0.63397085097E+02  0.10566000000E+00 0.  1.
        994    1    1    2    0    0  0.63968558875E+01  0.20751143887E+02  0.41099756868E+01  0.17262057131E+03  0.17120000000E+03 0.  0.
        998    1    1    2    0    0 -0.22414049893E+02 -0.14183441992E+02  0.14349023659E+04  0.14351823436E+04  0.10000000000E+02 0.  1.
</event>
<event>
 5    1  0.1574792E-008  0.3848461E+03  0.7957747E-01  0.3430325E+00
         13   -1    0    0    0    0  0.00000000000E+00  0.00000000000E+00  0.14999999963E+04  0.15000000000E+04  0.10566000000E+00 0.  1.
        994   -1    0    0    0    0 -0.00000000000E+00 -0.00000000000E+00  0.11368683772E-12  0.17120000000E+03  0.17120000000E+03 0.  0.
         13    1    1    2    0    0 -0.19999400573E+02 -0.19923042409E+01  0.11641900210E+03  0.11814118890E+03  0.10566000000E+00 0.  1.
        994    1    1    2    0    0  0.14497647968E+02  0.13210698774E+01  0.24041542820E+01  0.17183465011E+03  0.17120000000E+03 0.  0.
        998    1    1    2    0    0  0.55017526056E+01  0.67123436353E+00  0.13811768399E+04  0.13812241610E+04  0.10000000000E+02 0.  1.
</event>
<event>
 5    1  0.1574792E-008  0.3787131E+03  0.7957747E-01  0.3456781E+00
         13   -1    0    0    0    0  0.00000000000E+00  0.00000000000E+00  0.14999999963E+04  0.15000000000E+04  0.10566000000E+00 0. -1.
        994   -1    0    0    0    0 -0.00000000000E+00 -0.00000000000E+00  0.11368683772E-12  0.17120000000E+03  0.17120000000E+03 0.  0.
         13    1    1    2    0    0  0.42609128253E+01 -0.22216038330E+02  0.55126236596E+02  0.59587086374E+02  0.10566000000E+00 0. -1.
        994    1    1    2    0    0  0.12492299155E+02 -0.42599012757E+00  0.53088650518E+01  0.17173777410E+03  0.17120000000E+03 0.  0.
        998    1    1    2    0    0 -0.16753211981E+02  0.22642028458E+02  0.14395648946E+04  0.14398751395E+04  0.10000000000E+02 0. -1.
</event>
<event>
 5    1  0.1574792E-008  0.3801812E+03  0.7957747E-01  0.3450370E+00
         13   -1    0    0    0    0  0.00000000000E+00  0.00000000000E+00  0.14999999963E+04  0.15000000000E+04  0.10566000000E+00 0.  1.
        994   -1    0    0    0    0 -0.00000000000E+00 -0.00000000000E+00  0.11368683772E-12  0.17120000000E+03  0.17120000000E+03 0.  0.
         13    1    1    2    0    0  0.76208362122E+01  0.31722365008E+02  0.12745426681E+03  0.13156362293E+03  0.10566000000E+00 0.  1.
        994    1    1    2    0    0 -0.16822154121E+02 -0.19960178134E+02  0.63215170707E+01  0.17329395592E+03  0.17120000000E+03 0.  0.
        998    1    1    2    0    0  0.92013179089E+01 -0.11762186874E+02  0.13662242124E+04  0.13663424212E+04  0.10000000000E+02 0.  1.
</event>
<event>
 5    1  0.1574792E-008  0.3822867E+03  0.7957747E-01  0.3441262E+00
         13   -1    0    0    0    0  0.00000000000E+00  0.00000000000E+00  0.14999999963E+04  0.15000000000E+04  0.10566000000E+00 0. -1.
        994   -1    0    0    0    0 -0.00000000000E+00 -0.00000000000E+00  0.11368683772E-12  0.17120000000E+03  0.17120000000E+03 0.  0.
         13    1    1    2    0    0  0.25061411514E+01 -0.17018842402E+02  0.50260326914E+02  0.53122813985E+02  0.10566000000E+00 0. -1.
        994    1    1    2    0    0 -0.33955140406E+01  0.30849169450E+01  0.30530852988E+01  0.17128866734E+03  0.17120000000E+03 0.  0.
        998    1    1    2    0    0  0.88937288922E+00  0.13933925457E+02  0.14466865841E+04  0.14467885187E+04  0.10000000000E+02 0. -1.
</event>
<event>
 5    1  0.1574792E-008  0.3747565E+03  0.7957747E-01  0.3474312E+00
         13   -1    0    0    0    0  0.00000000000E+00  0.00000000000E+00  0.14999999963E+04  0.15000000000E+04  0.10566000000E+00 0. -1.
        994   -1    0    0    0    0 -0.00000000000E+00 -0.00000000000E+00  0.11368683772E-12  0.17120000000E+03  0.17120000000E+03 0.  0.
         13    1    1    2    0    0  0.28409426579E+01 -0.16589933470E+02  0.18803208371E+02  0.25236256790E+02  0.10566000000E+00 0. -1.
        994    1    1    2    0    0  0.71843019283E+01 -0.82544057561E+01  0.72112914980E+01  0.17170087983E+03  0.17120000000E+03 0.  0.
        998    1    1    2    0    0 -0.10025244586E+02  0.24844339226E+02  0.14739854964E+04  0.14742628634E+04  0.10000000000E+02 0. -1.
</event>
<event>
 5    1  0.1574792E-008  0.3781402E+03  0.7957747E-01  0.3459297E+00
         13   -1    0    0    0    0  0.00000000000E+00  0.00000000000E+00  0.14999999963E+04  0.15000000000E+04  0.10566000000E+00 0. -1.
        994   -1    0    0    0    0 -0.00000000000E+00 -0.00000000000E+00  0.11368683772E-12  0.17120000000E+03  0.17120000000E+03 0.  0.
         13    1    1    2    0    0  0.18611265036E+02  0.83176783182E+02  0.51175908934E+03  0.51880837805E+03  0.10566000000E+00 0. -1.
        994    1    1    2    0    0 -0.18172484810E+02 -0.75924037014E+02  0.25856849760E+02  0.18992818453E+03  0.17120000000E+03 0.  0.
        998    1    1    2    0    0 -0.43878022514E+00 -0.72527461681E+01  0.96238405718E+03  0.96246343742E+03  0.10000000000E+02 0. -1.
</event>
<event>
 5    1  0.1574792E-008  0.3712024E+03  0.7957747E-01  0.3490383E+00
         13   -1    0    0    0    0  0.00000000000E+00  0.00000000000E+00  0.14999999963E+04  0.15000000000E+04  0.10566000000E+00 0. -1.
        994   -1    0    0    0    0 -0.00000000000E+00 -0.00000000000E+00  0.11368683772E-12  0.17120000000E+03  0.17120000000E+03 0.  0.
         13    1    1    2    0    0 -0.65259374927E+01  0.15562389947E+02  0.69660114224E+01  0.18256843106E+02  0.10566000000E+00 0. -1.
        994    1    1    2    0    0  0.56214897320E+01 -0.19210990745E+02  0.12983903640E+02  0.17285451995E+03  0.17120000000E+03 0.  0.
        998    1    1    2    0    0  0.90444776067E+00  0.36486007976E+01  0.14800500812E+04  0.14800886369E+04  0.10000000000E+02 0. -1.
</event>
<event>
 5    1  0.1574792E-008  0.3760952E+03  0.7957747E-01  0.3468339E+00
         13   -1    0    0    0    0  0.00000000000E+00  0.00000000000E+00  0.14999999963E+04  0.15000000000E+04  0.10566000000E+00 0.  1.
        994   -1    0    0    0    0 -0.00000000000E+00 -0.00000000000E+00  0.11368683772E-12  0.17120000000E+03  0.17120000000E+03 0.  0.
         13    1    1    2    0    0  0.92633647098E+01 -0.15026167218E+02  0.23328305004E+02  0.29254343360E+02  0.10566000000E+00 0.  1.
        994    1    1    2    0    0  0.22702838690E+01  0.70256348231E+01  0.63020187806E+01  0.17147498119E+03  0.17120000000E+03 0.  0.
        998    1    1    2    0    0 -0.11533648579E+02  0.80005323948E+01  0.14703696725E+04  0.14704706754E+04  0.10000000000E+02 0.  1.
</event>
<event>
 5    1  0.1574792E-008  0.3838528E+03  0.7957747E-01  0.3434552E+00
         13   -1    0    0    0    0  0.00000000000E+00  0.00000000000E+00  0.14999999963E+04  0.15000000000E+04  0.10566000000E+00 0. -1.
        994   -1    0    0    0    0 -0.00000000000E+00 -0.00000000000E+00  0.11368683772E-12  0.17120000000E+03  0.17120000000E+03 0.  0.
         13    1    1    2    0    0  0.46773721031E+01  0.18474097436E+02  0.73163117662E+02  0.75604385031E+02  0.10566000000E+00 0. -1.
        994    1    1    2    0    0 -0.99093876513E+01 -0.30647732839E+02  0.56329302487E+01  0.17429471993E+03  0.17120000000E+03 0.  0.
        998    1    1    2    0    0  0.52320155482E+01  0.12173635402E+02  0.14212039484E+04  0.14213008950E+04  0.10000000000E+02 0. -1.
</event>
<event>
 5    1  0.1574792E-008  0.3826233E+03  0.7957747E-01  0.3439815E+00
         13   -1    0    0    0    0  0.00000000000E+00  0.00000000000E+00  0.14999999963E+04  0.15000000000E+04  0.10566000000E+00 0.  1.
        994   -1    0    0    0    0 -0.00000000000E+00 -0.00000000000E+00  0.11368683772E-12  0.17120000000E+03  0.17120000000E+03 0.  0.
         13    1    1    2    0    0 -0.95571870613E+01 -0.14953862738E+02  0.55787130699E+02  0.58542061383E+02  0.10566000000E+00 0.  1.
        994    1    1    2    0    0 -0.29930779997E+01  0.12367570515E+02  0.33515498362E+01  0.17170494519E+03  0.17120000000E+03 0.  0.
        998    1    1    2    0    0  0.12550265061E+02  0.25862922230E+01  0.14408613157E+04  0.14409529934E+04  0.10000000000E+02 0.  1.
</event>
<event>
 5    1  0.1574792E-008  0.3781506E+03  0.7957747E-01  0.3459251E+00
         13   -1    0    0    0    0  0.00000000000E+00  0.00000000000E+00  0.14999999963E+04  0.15000000000E+04  0.10566000000E+00 0.  1.
        994   -1    0    0    0    0 -0.00000000000E+00 -0.00000000000E+00  0.11368683772E-12  0.17120000000E+03  0.17120000000E+03 0.  0.
         13    1    1    2    0    0 -0.38390710265E+02 -0.85921004144E+01  0.17458646591E+03  0.17896400775E+03  0.10566000000E+00 0.  1.
        994    1    1    2    0    0  0.71393511826E+01 -0.26683087946E+02  0.76400558878E+01  0.17358216490E+03  0.17120000000E+03 0.  0.
        998    1    1    2    0    0  0.31251359082E+02  0.35275188361E+02  0.13177734745E+04  0.13186538274E+04  0.10000000000E+02 0.  1.
</event>
<event>
 5    1  0.1574792E-008  0.3701428E+03  0.7957747E-01  0.3495235E+00
         13   -1    0    0    0    0  0.00000000000E+00  0.00000000000E+00  0.14999999963E+04  0.15000000000E+04  0.10566000000E+00 0.  1.
        994   -1    0    0    0    0 -0.00000000000E+00 -0.00000000000E+00  0.11368683772E-12  0.17120000000E+03  0.17120000000E+03 0.  0.
         13    1    1    2    0    0 -0.79527293625E+00 -0.13144446223E+02  0.51889096870E+01  0.14154323486E+02  0.10566000000E+00 0.  1.
        994    1    1    2    0    0 -0.47653604585E+00  0.12132025513E+02  0.97040744938E+01  0.17190410755E+03  0.17120000000E+03 0.  0.
        998    1    1    2    0    0  0.12718089821E+01  0.10124207107E+01  0.14851070121E+04  0.14851415690E+04  0.10000000000E+02 0.  1.
</event>
<event>
 5    1  0.1574792E-008  0.3796771E+03  0.7957747E-01  0.3452566E+00
         13   -1    0    0    0    0  0.00000000000E+00  0.00000000000E+00  0.14999999963E+04  0.15000000000E+04  0.10566000000E+00 0.  1.
        994   -1    0    0    0    0 -0.00000000000E+00 -0.00000000000E+00  0.11368683772E-12  0.17120000000E+03  0.17120000000E+03 0.  0.
         13    1    1    2    0    0  0.11514802354E+02  0.21204001603E+02  0.65294402172E+02  0.69610131994E+02  0.10566000000E+00 0.  1.
        994    1    1    2    0    0 -0.25430038555E+02 -0.75391561283E+01  0.66541537983E+01  0.17337024975E+03  0.17120000000E+03 0.  0.
        998    1    1    2    0    0  0.13915236201E+02 -0.13664845475E+02  0.14280514403E+04  0.14282196183E+04  0.10000000000E+02 0.  1.
</event>
<event>
 5    1  0.1574792E-008  0.3765224E+03  0.7957747E-01  0.3466442E+00
         13   -1    0    0    0    0  0.00000000000E+00  0.00000000000E+00  0.14999999963E+04  0.15000000000E+04  0.10566000000E+00 0. -1.
        994   -1    0    0    0    0 -0.00000000000E+00 -0.00000000000E+00  0.11368683772E-12  0.17120000000E+03  0.17120000000E+03 0.  0.
         13    1    1    2    0    0  0.26424856116E+01  0.13777817746E+02  0.32096276362E+00  0.14033002999E+02  0.10566000000E+00 0. -1.
        994    1    1    2    0    0 -0.55081418932E+02  0.23257161805E+02  0.27333643164E+02  0.18338873012E+03  0.17120000000E+03 0.  0.
        998    1    1    2    0    0  0.52438933320E+02 -0.37034979551E+02  0.14723453904E+04  0.14737782669E+04  0.10000000000E+02 0. -1.
</event>
<event>
 5    1  0.1574792E-008  0.3850379E+03  0.7957747E-01  0.3429511E+00
         13   -1    0    0    0    0  0.00000000000E+00  0.00000000000E+00  0.14999999963E+04  0.15000000000E+04  0.10566000000E+00 0. -1.
        994   -1    0    0    0    0 -0.00000000000E+00 -0.00000000000E+00  0.11368683772E-12  0.17120000000E+03  0.17120000000E+03 0.  0.
         13    1    1    2    0    0  0.89898203750E+01  0.14108795439E+02  0.97801319514E+02  0.99221893964E+02  0.10566000000E+00 0. -1.
        994    1    1    2    0    0 -0.12579430276E+02  0.12113467346E+02  0.26147827045E+01  0.17210826606E+03  0.17120000000E+03 0.  0.
        998    1    1    2    0    0  0.35896099010E+01 -0.26222262784E+02  0.13995838941E+04  0.13998698400E+04  0.10000000000E+02 0. -1.
</event>
<event>
 5    1  0.1574792E-008  0.3852166E+03  0.7957747E-01  0.3428754E+00
         13   -1    0    0    0    0  0.00000000000E+00  0.00000000000E+00  0.14999999963E+04  0.15000000000E+04  0.10566000000E+00 0. -1.
        994   -1    0    0    0    0 -0.00000000000E+00 -0.00000000000E+00  0.11368683772E-12  0.17120000000E+03  0.17120000000E+03 0.  0.
         13    1    1    2    0    0 -0.25115403449E+01 -0.18800681343E+02  0.11212703873E+03  0.11372008368E+03  0.10566000000E+00 0. -1.
        994    1    1    2    0    0 -0.21975425749E+01  0.18844133023E+02  0.27063943624E+01  0.17226925179E+03  0.17120000000E+03 0.  0.
        998    1    1    2    0    0  0.47090829198E+01 -0.43451680144E-01  0.13851665632E+04  0.13852106645E+04  0.10000000000E+02 0. -1.
</event>
<event>
 5    1  0.1574792E-008  0.3811762E+03  0.7957747E-01  0.3446053E+00
         13   -1    0    0    0    0  0.00000000000E+00  0.00000000000E+00  0.14999999963E+04  0.15000000000E+04  0.10566000000E+00 0.  1.
        994   -1    0    0    0    0 -0.00000000000E+00 -0.00000000000E+00  0.11368683772E-12  0.17120000000E+03  0.17120000000E+03 0.  0.
         13    1    1    2    0    0  0.51108528445E+02 -0.15435685414E+01  0.24386142563E+03  0.24916434408E+03  0.10566000000E+00 0.  1.
        994    1    1    2    0    0 -0.79447674822E+02  0.31590073082E+02  0.28277842814E+02  0.19343976361E+03  0.17120000000E+03 0.  0.
        998    1    1    2    0    0  0.28339146377E+02 -0.30046504541E+02  0.12278607278E+04  0.12285958923E+04  0.10000000000E+02 0.  1.
</event>
<event>
 5    1  0.1574792E-008  0.3855819E+03  0.7957747E-01  0.3427208E+00
         13   -1    0    0    0    0  0.00000000000E+00  0.00000000000E+00  0.14999999963E+04  0.15000000000E+04  0.10566000000E+00 0. -1.
        994   -1    0    0    0    0 -0.00000000000E+00 -0.00000000000E+00  0.11368683772E-12  0.17120000000E+03  0.17120000000E+03 0.  0.
         13    1    1    2    0    0 -0.12044585134E+01  0.10413804470E+02  0.42055158965E+02  0.43342191955E+02  0.10566000000E+00 0. -1.
        994    1    1    2    0    0  0.37400820018E+01 -0.27823273841E+01  0.14128340906E+01  0.17126927821E+03  0.17120000000E+03 0.  0.
        998    1    1    2    0    0 -0.25356234884E+01 -0.76314770857E+01  0.14565320032E+04  0.14565885298E+04  0.10000000000E+02 0. -1.
</event>
<event>
 5    1  0.1574792E-008  0.3834892E+03  0.7957747E-01  0.3436105E+00
         13   -1    0    0    0    0  0.00000000000E+00  0.00000000000E+00  0.14999999963E+04  0.15000000000E+04  0.10566000000E+00 0. -1.
        994   -1    0    0    0    0 -0.00000000000E+00 -0.00000000000E+00  0.11368683772E-12  0.17120000000E+03  0.17120000000E+03 0.  0.
         13    1    1    2    0    0 -0.22115667076E+02 -0.35396178466E+01  0.10441554079E+03  0.10679067351E+03  0.10566000000E+00 0. -1.
        994    1    1    2    0    0  0.12961166728E+02  0.99195827282E+01  0.32629504538E+01  0.17200719988E+03  0.17120000000E+03 0.  0.
        998    1    1    2    0    0  0.91545003477E+01 -0.63799648816E+01  0.13923215050E+04  0.13924021266E+04  0.10000000000E+02 0. -1.
</event>
<event>
 5    1  0.1574792E-008  0.3772339E+03  0.7957747E-01  0.3463292E+00
         13   -1    0    0    0    0  0.00000000000E+00  0.00000000000E+00  0.14999999963E+04  0.15000000000E+04  0.10566000000E+00 0.  1.
        994   -1    0    0    0    0 -0.00000000000E+00 -0.00000000000E+00  0.11368683772E-12  0.17120000000E+03  0.17120000000E+03 0.  0.
         13    1    1    2    0    0  0.22520961103E+02  0.67904257133E+02  0.34319877612E+03  0.35057608720E+03  0.10566000000E+00 0.  1.
        994    1    1    2    0    0 -0.26909356036E+02 -0.70353579004E+02  0.24923862792E+02  0.18869122517E+03  0.17120000000E+03 0.  0.
        998    1    1    2    0    0  0.43883949331E+01  0.24493218710E+01  0.11318773574E+04  0.11319326876E+04  0.10000000000E+02 0.  0.
</event>
<event>
 5    1  0.1574792E-008  0.3847390E+03  0.7957747E-01  0.3430780E+00
         13   -1    0    0    0    0  0.00000000000E+00  0.00000000000E+00  0.14999999963E+04  0.15000000000E+04  0.10566000000E+00 0. -1.
        994   -1    0    0    0    0 -0.00000000000E+00 -0.00000000000E+00  0.11368683772E-12  0.17120000000E+03  0.17120000000E+03 0.  0.
         13    1    1    2    0    0  0.64755751902E+01 -0.10765160591E+02  0.44883638164E+02  0.46608731966E+02  0.10566000000E+00 0. -1.
        994    1    1    2    0    0  0.15401347034E+01  0.95292473942E+01  0.20665037523E+01  0.17148436958E+03  0.17120000000E+03 0.  0.
        998    1    1    2    0    0 -0.80157098937E+01  0.12359131971E+01  0.14530498544E+04  0.14531068985E+04  0.10000000000E+02 0. -1.
</event>
<event>
 5    1  0.1574792E-008  0.3837187E+03  0.7957747E-01  0.3435124E+00
         13   -1    0    0    0    0  0.00000000000E+00  0.00000000000E+00  0.14999999963E+04  0.15000000000E+04  0.10566000000E+00 0.  1.
        994   -1    0    0    0    0 -0.00000000000E+00 -0.00000000000E+00  0.11368683772E-12  0.17120000000E+03  0.17120000000E+03 0.  0.
         13    1    1    2    0    0  0.14053566382E+02 -0.85887722714E+01  0.58276252268E+02  0.60559082553E+02  0.10566000000E+00 0.  1.
        994    1    1    2    0    0 -0.67170357963E+01  0.16153085592E+02  0.32789064946E+01  0.17212272358E+03  0.17120000000E+03 0.  0.
        998    1    1    2    0    0 -0.73365305853E+01 -0.75643133211E+01  0.14384448375E+04  0.14385181939E+04  0.10000000000E+02 0.  1.
</event>
<event>
 5    1  0.1574792E-008  0.3839580E+03  0.7957747E-01  0.3434103E+00
         13   -1    0    0    0    0  0.00000000000E+00  0.00000000000E+00  0.14999999963E+04  0.15000000000E+04  0.10566000000E+00 0.  1.
        994   -1    0    0    0    0 -0.00000000000E+00 -0.00000000000E+00  0.11368683772E-12  0.17120000000E+03  0.17120000000E+03 0.  0.
         13    1    1    2    0    0 -0.18931439628E+02  0.24616418038E+01  0.88002847958E+02  0.90049827870E+02  0.10566000000E+00 0.  1.
        994    1    1    2    0    0  0.51616966974E+01 -0.47776386974E+01  0.23116031383E+01  0.17136000833E+03  0.17120000000E+03 0.  0.
        998    1    1    2    0    0  0.13769742930E+02  0.23159968935E+01  0.14096855452E+04  0.14097901638E+04  0.10000000000E+02 0.  1.
</event>
<event>
 5    1  0.1574792E-008  0.3817084E+03  0.7957747E-01  0.3443753E+00
         13   -1    0    0    0    0  0.00000000000E+00  0.00000000000E+00  0.14999999963E+04  0.15000000000E+04  0.10566000000E+00 0. -1.
        994   -1    0    0    0    0 -0.00000000000E+00 -0.00000000000E+00  0.11368683772E-12  0.17120000000E+03  0.17120000000E+03 0.  0.
         13    1    1    2    0    0 -0.44207136894E+01 -0.14291610007E+02  0.32927253915E+02  0.36166393800E+02  0.10566000000E+00 0. -1.
        994    1    1    2    0    0  0.75070899029E+00  0.10820942186E+02  0.36644327450E+01  0.17158241291E+03  0.17120000000E+03 0.  0.
        998    1    1    2    0    0  0.36700046991E+01  0.34706678210E+01  0.14634083096E+04  0.14634511933E+04  0.10000000000E+02 0. -1.
</event>
<event>
 5    1  0.1574792E-008  0.3740685E+03  0.7957747E-01  0.3477399E+00
         13   -1    0    0    0    0  0.00000000000E+00  0.00000000000E+00  0.14999999963E+04  0.15000000000E+04  0.10566000000E+00 0. -1.
        994   -1    0    0    0    0 -0.00000000000E+00 -0.00000000000E+00  0.11368683772E-12  0.17120000000E+03  0.17120000000E+03 0.  0.
         13    1    1    2    0    0 -0.32787050491E+02 -0.41595143538E+02  0.16030939525E+03  0.16883204676E+03  0.10566000000E+00 0. -1.
        994    1    1    2    0    0  0.46085438935E+02  0.50477748932E+02  0.23259586922E+02  0.18580182777E+03  0.17120000000E+03 0.  0.
        998    1    1    2    0    0 -0.13298388444E+02 -0.88826053945E+01  0.13164310141E+04  0.13165661255E+04  0.10000000000E+02 0. -1.
</event>
<event>
 5    1  0.1574792E-008  0.3755882E+03  0.7957747E-01  0.3470596E+00
         13   -1    0    0    0    0  0.00000000000E+00  0.00000000000E+00  0.14999999963E+04  0.15000000000E+04  0.10566000000E+00 0.  1.
        994   -1    0    0    0    0 -0.00000000000E+00 -0.00000000000E+00  0.11368683772E-12  0.17120000000E+03  0.17120000000E+03 0.  0.
         13    1    1    2    0    0  0.25540517150E+01 -0.53738702915E+02  0.28228475274E+03  0.28736573241E+03  0.10566000000E+00 0.  1.
        994    1    1    2    0    0  0.77798731374E+01  0.17779474381E+01  0.65930589448E+01  0.17151266994E+03  0.17120000000E+03 0.  0.
        998    1    1    2    0    0 -0.10333924852E+02  0.51960755476E+02  0.12111221846E+04  0.12123215977E+04  0.10000000000E+02 0.  1.
</event>
<event>
 5    1  0.1574792E-008  0.3835587E+03  0.7957747E-01  0.3435808E+00
         13   -1    0    0    0    0  0.00000000000E+00  0.00000000000E+00  0.14999999963E+04  0.15000000000E+04  0.10566000000E+00 0.  1.
        994   -1    0    0    0    0 -0.00000000000E+00 -0.00000000000E+00  0.11368683772E-12  0.17120000000E+03  0.17120000000E+03 0.  0.
         13    1    1    2    0    0 -0.28564204279E+01 -0.20786579932E+02  0.92602144266E+02  0.94949509370E+02  0.10566000000E+00 0.  1.
        994    1    1    2    0    0  0.96161014343E+00  0.14184551429E+02  0.30155319735E+01  0.17181577234E+03  0.17120000000E+03 0.  0.
        998    1    1    2    0    0  0.18948102845E+01  0.66020285029E+01  0.14043823200E+04  0.14044347183E+04  0.10000000000E+02 0.  1.
</event>
<event>
 5    1  0.1574792E-008  0.3834439E+03  0.7957747E-01  0.3436299E+00
         13   -1    0    0    0    0  0.00000000000E+00  0.00000000000E+00  0.14999999963E+04  0.15000000000E+04  0.10566000000E+00 0. -1.
        994   -1    0    0    0    0 -0.00000000000E+00 -0.00000000000E+00  0.11368683772E-12  0.17120000000E+03  0.17120000000E+03 0.  0.
         13    1    1    2    0    0 -0.34792063350E+01  0.19234209039E+02  0.75955921598E+02  0.78430688279E+02  0.10566000000E+00 0. -1.
        994    1    1    2    0    0  0.10194639657E+02 -0.17507299166E+02  0.37624815863E+01  0.17243558934E+03  0.17120000000E+03 0.  0.
        998    1    1    2    0    0 -0.67154333217E+01 -0.17269098738E+01  0.14202815931E+04  0.14203337224E+04  0.10000000000E+02 0. -1.
</event>
<event>
 5    1  0.1574792E-008  0.3776811E+03  0.7957747E-01  0.3461318E+00
         13   -1    0    0    0    0  0.00000000000E+00  0.00000000000E+00  0.14999999963E+04  0.15000000000E+04  0.10566000000E+00 0. -1.
        994   -1    0    0    0    0 -0.00000000000E+00 -0.00000000000E+00  0.11368683772E-12  0.17120000000E+03  0.17120000000E+03 0.  0.
         13    1    1    2    0    0  0.92424144459E+01  0.23596985708E+02  0.59145454991E+02  0.64346219542E+02  0.10566000000E+00 0. -1.
        994    1    1    2    0    0 -0.11536825460E+02 -0.97154324984E+01  0.60750377785E+01  0.17197044529E+03  0.17120000000E+03 0.  0.
        998    1    1    2    0    0  0.22944110146E+01 -0.13881553210E+02  0.14347795035E+04  0.14348833352E+04  0.10000000000E+02 0. -1.
</event>
<event>
 5    1  0.1601301E-008  0.3845550E+03  0.7957747E-01  0.3431562E+00
         13   -1    0    0    0    0  0.00000000000E+00  0.00000000000E+00  0.14999999963E+04  0.15000000000E+04  0.10566000000E+00 0. -1.
        994   -1    0    0    0    0 -0.00000000000E+00 -0.00000000000E+00  0.11368683772E-12  0.17120000000E+03  0.17120000000E+03 0.  0.
         13    1    1    2    0    0 -0.35169422835E+01 -0.10464048899E+02  0.32280596982E+02  0.34116173700E+02  0.10566000000E+00 0. -1.
        994    1    1    2    0    0  0.11503857423E+01  0.94709196176E+01  0.21510566692E+01  0.17147912045E+03  0.17120000000E+03 0.  0.
        998    1    1    2    0    0  0.23665565412E+01  0.99312928131E+00  0.14655683426E+04  0.14656047058E+04  0.10000000000E+02 0. -1.
</event>
<event>
 5    1  0.1574792E-008  0.3786038E+03  0.7957747E-01  0.3457261E+00
         13   -1    0    0    0    0  0.00000000000E+00  0.00000000000E+00  0.14999999963E+04  0.15000000000E+04  0.10566000000E+00 0. -1.
        994   -1    0    0    0    0 -0.00000000000E+00 -0.00000000000E+00  0.11368683772E-12  0.17120000000E+03  0.17120000000E+03 0.  0.
         13    1    1    2    0    0 -0.26293794288E+02 -0.51367458215E+01  0.73687984283E+02  0.78407142324E+02  0.10566000000E+00 0. -1.
        994    1    1    2    0    0  0.11364112537E+02  0.74132466209E+01  0.54581456261E+01  0.17182354505E+03  0.17120000000E+03 0.  0.
        998    1    1    2    0    0  0.14929681751E+02 -0.22765007994E+01  0.14208538664E+04  0.14209693126E+04  0.10000000000E+02 0. -1.
</event>
<event>
 5    1  0.1574792E-008  0.3846180E+03  0.7957747E-01  0.3431294E+00
         13   -1    0    0    0    0  0.00000000000E+00  0.00000000000E+00  0.14999999963E+04  0.15000000000E+04  0.10566000000E+00 0. -1.
        994   -1    0    0    0    0 -0.00000000000E+00 -0.00000000000E+00  0.11368683772E-12  0.17120000000E+03  0.17120000000E+03 0.  0.
         13    1    1    2    0    0 -0.18482787329E+01 -0.15197450659E+02  0.57806916510E+02  0.59799911381E+02  0.10566000000E+00 0. -1.
        994    1    1    2    0    0  0.10330556140E+02  0.27857310399E+02  0.47319656266E+01  0.17382342084E+03  0.17120000000E+03 0.  0.
        998    1    1    2    0    0 -0.84822774072E+01 -0.12659859740E+02  0.14374611141E+04  0.14375766678E+04  0.10000000000E+02 0. -1.
</event>
<event>
 5    1  0.1574792E-008  0.3956072E+03  0.7957747E-01  0.3385895E+00
         13   -1    0    0    0    0  0.00000000000E+00  0.00000000000E+00  0.14999999963E+04  0.15000000000E+04  0.10566000000E+00 0. -1.
        994   -1    0    0    0    0 -0.00000000000E+00 -0.00000000000E+00  0.11368683772E-12  0.17120000000E+03  0.17120000000E+03 0.  0.
         13    1    1    2    0    0 -0.93628450414E+02  0.10419267093E+03  0.30703326002E+03  0.33747864129E+03  0.10566000000E+00 0. -1.
        994    1    1    2    0    0  0.95756134727E+02 -0.90801856193E+02  0.95815584254E+02  0.23644086071E+03  0.17120000000E+03 0.  0.
        998    1    1    2    0    0 -0.21276843127E+01 -0.13390814737E+02  0.10971511520E+04  0.10972804980E+04  0.10000000000E+02 0. -1.
</event>
<event>
 5    1  0.2167016E-008  0.3865466E+03  0.7957747E-01  0.3423139E+00
         13   -1    0    0    0    0  0.00000000000E+00  0.00000000000E+00  0.14999999963E+04  0.15000000000E+04  0.10566000000E+00 0. -1.
        994   -1    0    0    0    0 -0.00000000000E+00 -0.00000000000E+00  0.11368683772E-12  0.17120000000E+03  0.17120000000E+03 0.  0.
         13    1    1    2    0    0 -0.10126429585E+02  0.23850766062E+01  0.62713147992E+02  0.63570301727E+02  0.10566000000E+00 0. -1.
        994    1    1    2    0    0  0.79659264976E+01 -0.78674044516E+01  0.12744996806E+01  0.17157044147E+03  0.17120000000E+03 0.  0.
        998    1    1    2    0    0  0.21605030872E+01  0.54823278454E+01  0.14360123486E+04  0.14360592568E+04  0.10000000000E+02 0. -1.
</event>
<event>
 5    1  0.1574792E-008  0.3857952E+03  0.7957747E-01  0.3426307E+00
         13   -1    0    0    0    0  0.00000000000E+00  0.00000000000E+00  0.14999999963E+04  0.15000000000E+04  0.10566000000E+00 0. -1.
        994   -1    0    0    0    0 -0.00000000000E+00 -0.00000000000E+00  0.11368683772E-12  0.17120000000E+03  0.17120000000E+03 0.  0.
         13    1    1    2    0    0  0.10755727663E+02  0.64429055725E+00  0.42470414640E+02  0.43816070928E+02  0.10566000000E+00 0. -1.
        994    1    1    2    0    0 -0.26083678562E+02 -0.15046157450E+01  0.34781680103E+01  0.17321708867E+03  0.17120000000E+03 0.  0.
        998    1    1    2    0    0  0.15327950899E+02  0.86032518777E+00  0.14540514136E+04  0.14541668404E+04  0.10000000000E+02 0. -1.
</event>
<event>
 5    1  0.1574792E-008  0.3814534E+03  0.7957747E-01  0.3444854E+00
         13   -1    0    0    0    0  0.00000000000E+00  0.00000000000E+00  0.14999999963E+04  0.15000000000E+04  0.10566000000E+00 0. -1.
        994   -1    0    0    0    0 -0.00000000000E+00 -0.00000000000E+00  0.11368683772E-12  0.17120000000E+03  0.17120000000E+03 0.  0.
         13    1    1    2    0    0  0.28501564064E+02  0.21254753694E+02  0.15201476292E+03  0.15611727329E+03  0.10566000000E+00 0. -1.
        994    1    1    2    0    0 -0.25544872622E+02 -0.50281560609E+02  0.14056734515E+02  0.18079769810E+03  0.17120000000E+03 0.  0.
        998    1    1    2    0    0 -0.29566914426E+01  0.29026806915E+02  0.13339284988E+04  0.13342850286E+04  0.10000000000E+02 0. -1.
</event>
<event>
 5    1  0.1574792E-008  0.3815321E+03  0.7957747E-01  0.3444514E+00
         13   -1    0    0    0    0  0.00000000000E+00  0.00000000000E+00  0.14999999963E+04  0.15000000000E+04  0.10566000000E+00 0.  1.
        994   -1    0    0    0    0 -0.00000000000E+00 -0.00000000000E+00  0.11368683772E-12  0.17120000000E+03  0.17120000000E+03 0.  0.
         13    1    1    2    0    0  0.20327112707E+01  0.11825649291E+02  0.20354397571E+02  0.23628173030E+02  0.10566000000E+00 0.  1.
        994    1    1    2    0    0  0.25953152044E+02 -0.77361558424E+01  0.58049681161E+01  0.17342592616E+03  0.17120000000E+03 0.  0.
        998    1    1    2    0    0 -0.27985863314E+02 -0.40894934481E+01  0.14738406306E+04  0.14741459008E+04  0.10000000000E+02 0.  1.
</event>
<event>
 5    1  0.1574792E-008  0.3791793E+03  0.7957747E-01  0.3454740E+00
         13   -1    0    0    0    0  0.00000000000E+00  0.00000000000E+00  0.14999999963E+04  0.15000000000E+04  0.10566000000E+00 0.  1.
        994   -1    0    0    0    0 -0.00000000000E+00 -0.00000000000E+00  0.11368683772E-12  0.17120000000E+03  0.17120000000E+03 0.  0.
         13    1    1    2    0    0 -0.16493415124E+02 -0.84634909761E+01  0.34660595574E+02  0.39306888347E+02  0.10566000000E+00 0.  1.
        994    1    1    2    0    0  0.20748630165E+02  0.13015847664E+02  0.65615230555E+01  0.17306765015E+03  0.17120000000E+03 0.  0.
        998    1    1    2    0    0 -0.42552150410E+01 -0.45523566883E+01  0.14587778776E+04  0.14588254615E+04  0.10000000000E+02 0.  1.
</event>
<event>
 5    1  0.1574792E-008  0.3750653E+03  0.7957747E-01  0.3472931E+00
         13   -1    0    0    0    0  0.00000000000E+00  0.00000000000E+00  0.14999999963E+04  0.15000000000E+04  0.10566000000E+00 0.  1.
        994   -1    0    0    0    0 -0.00000000000E+00 -0.00000000000E+00  0.11368683772E-12  0.17120000000E+03  0.17120000000E+03 0.  0.
         13    1    1    2    0    0 -0.52890119866E+02 -0.35074509298E+01  0.19016835578E+03  0.19741753138E+03  0.10566000000E+00 0.  1.
        994    1    1    2    0    0  0.47569490005E+02 -0.16827504908E+01  0.14384257016E+02  0.17827516619E+03  0.17120000000E+03 0.  0.
        998    1    1    2    0    0  0.53206298610E+01  0.51902014205E+01  0.12954473835E+04  0.12955073024E+04  0.10000000000E+02 0.  1.
</event>
<event>
 5    1  0.1574792E-008  0.3823245E+03  0.7957747E-01  0.3441099E+00
         13   -1    0    0    0    0  0.00000000000E+00  0.00000000000E+00  0.14999999963E+04  0.15000000000E+04  0.10566000000E+00 0.  1.
        994   -1    0    0    0    0 -0.00000000000E+00 -0.00000000000E+00  0.11368683772E-12  0.17120000000E+03  0.17120000000E+03 0.  0.
         13    1    1    2    0    0  0.18053928197E+03 -0.14090649186E+03  0.11465641327E+04  0.11692127237E+04  0.10566000000E+00 0.  1.
        994    1    1    2    0    0 -0.18512376823E+03  0.13343770039E+03  0.20101703963E+03  0.34898956957E+03  0.17120000000E+03 0.  0.
        998    1    1    2    0    0  0.45844862579E+01  0.74687914661E+01  0.15241882400E+03  0.15299770675E+03  0.10000000000E+02 0. -1.
</event>
<event>
 5    1  0.1574792E-008  0.3830127E+03  0.7957747E-01  0.3438144E+00
         13   -1    0    0    0    0  0.00000000000E+00  0.00000000000E+00  0.14999999963E+04  0.15000000000E+04  0.10566000000E+00 0. -1.
        994   -1    0    0    0    0 -0.00000000000E+00 -0.00000000000E+00  0.11368683772E-12  0.17120000000E+03  0.17120000000E+03 0.  0.
         13    1    1    2    0    0  0.32423875923E+01  0.13054686528E+02  0.33652040889E+02  0.36240984226E+02  0.10566000000E+00 0. -1.
        994    1    1    2    0    0 -0.11356590268E+01 -0.92673338648E+01  0.29085972584E+01  0.17147907492E+03  0.17120000000E+03 0.  0.
        998    1    1    2    0    0 -0.21067285655E+01 -0.37873526635E+01  0.14634393581E+04  0.14634799409E+04  0.10000000000E+02 0. -1.
</event>
<event>
 5    1  0.1574792E-008  0.3843703E+03  0.7957747E-01  0.3432347E+00
         13   -1    0    0    0    0  0.00000000000E+00  0.00000000000E+00  0.14999999963E+04  0.15000000000E+04  0.10566000000E+00 0.  1.
        994   -1    0    0    0    0 -0.00000000000E+00 -0.00000000000E+00  0.11368683772E-12  0.17120000000E+03  0.17120000000E+03 0.  0.
         13    1    1    2    0    0 -0.11982275942E+02 -0.23761565880E+02  0.12190968816E+03  0.12478048798E+03  0.10566000000E+00 0.  1.
        994    1    1    2    0    0  0.43361337956E+02  0.56543221724E+02  0.18858016288E+02  0.18639314990E+03  0.17120000000E+03 0.  0.
        998    1    1    2    0    0 -0.31379062014E+02 -0.32781655844E+02  0.13592322918E+04  0.13600263621E+04  0.10000000000E+02 0.  1.
</event>
<event>
 5    1  0.1574792E-008  0.3691083E+03  0.7957747E-01  0.3499999E+00
         13   -1    0    0    0    0  0.00000000000E+00  0.00000000000E+00  0.14999999963E+04  0.15000000000E+04  0.10566000000E+00 0. -1.
        994   -1    0    0    0    0 -0.00000000000E+00 -0.00000000000E+00  0.11368683772E-12  0.17120000000E+03  0.17120000000E+03 0.  0.
         13    1    1    2    0    0  0.46067395358E+02  0.29637106612E+00  0.13140314363E+03  0.13924471290E+03  0.10566000000E+00 0. -1.
        994    1    1    2    0    0  0.23210454596E+02  0.12527711076E+02  0.12152474076E+02  0.17364559129E+03  0.17120000000E+03 0.  0.
        998    1    1    2    0    0 -0.69277849954E+02 -0.12824082142E+02  0.13564443786E+04  0.13583096958E+04  0.10000000000E+02 0. -1.
</event>
<event>
 5    1  0.1574792E-008  0.3813218E+03  0.7957747E-01  0.3445423E+00
         13   -1    0    0    0    0  0.00000000000E+00  0.00000000000E+00  0.14999999963E+04  0.15000000000E+04  0.10566000000E+00 0.  1.
        994   -1    0    0    0    0 -0.00000000000E+00 -0.00000000000E+00  0.11368683772E-12  0.17120000000E+03  0.17120000000E+03 0.  0.
         13    1    1    2    0    0  0.56037494102E+01  0.23758054074E+02  0.84608829538E+02  0.88059708952E+02  0.10566000000E+00 0.  1.
        994    1    1    2    0    0 -0.10371622929E+02 -0.13529667278E+02  0.44352874698E+01  0.17210384724E+03  0.17120000000E+03 0.  0.
        998    1    1    2    0    0  0.47678735188E+01 -0.10228386796E+02  0.14109558793E+04  0.14110364438E+04  0.10000000000E+02 0.  1.
</event>
<event>
 5    1  0.1574792E-008  0.3765553E+03  0.7957747E-01  0.3466296E+00
         13   -1    0    0    0    0  0.00000000000E+00  0.00000000000E+00  0.14999999963E+04  0.15000000000E+04  0.10566000000E+00 0.  1.
        994   -1    0    0    0    0 -0.00000000000E+00 -0.00000000000E+00  0.11368683772E-12  0.17120000000E+03  0.17120000000E+03 0.  0.
         13    1    1    2    0    0  0.12075930387E+02 -0.52734438215E+01  0.12060992050E+02  0.17863818117E+02  0.10566000000E+00 0.  1.
        994    1    1    2    0    0 -0.11952386072E+02  0.42433125902E+01  0.64263498239E+01  0.17178941529E+03  0.17120000000E+03 0.  0.
        998    1    1    2    0    0 -0.12354431433E+00  0.10301312313E+01  0.14815126544E+04  0.14815467666E+04  0.10000000000E+02 0.  1.
</event>
<event>
 5    1  0.1574792E-008  0.3835175E+03  0.7957747E-01  0.3435984E+00
         13   -1    0    0    0    0  0.00000000000E+00  0.00000000000E+00  0.14999999963E+04  0.15000000000E+04  0.10566000000E+00 0.  1.
        994   -1    0    0    0    0 -0.00000000000E+00 -0.00000000000E+00  0.11368683772E-12  0.17120000000E+03  0.17120000000E+03 0.  0.
         13    1    1    2    0    0  0.20356712280E+02  0.12248566953E+02  0.12631399762E+03  0.12852883056E+03  0.10566000000E+00 0.  1.
        994    1    1    2    0    0 -0.10415084895E+02  0.51033702682E+01  0.28126245969E+01  0.17161546911E+03  0.17120000000E+03 0.  0.
        998    1    1    2    0    0 -0.99416273847E+01 -0.17351937221E+02  0.13708733741E+04  0.13710557003E+04  0.10000000000E+02 0.  1.
</event>
<event>
 5    1  0.1574792E-008  0.3778010E+03  0.7957747E-01  0.3460789E+00
         13   -1    0    0    0    0  0.00000000000E+00  0.00000000000E+00  0.14999999963E+04  0.15000000000E+04  0.10566000000E+00 0. -1.
        994   -1    0    0    0    0 -0.00000000000E+00 -0.00000000000E+00  0.11368683772E-12  0.17120000000E+03  0.17120000000E+03 0.  0.
         13    1    1    2    0    0  0.54608837930E+02  0.22162625565E+02  0.13250739619E+03  0.14502250984E+03  0.10566000000E+00 0. -1.
        994    1    1    2    0    0  0.12969273262E+02  0.59906617356E+01  0.15858595488E+02  0.17252543328E+03  0.17120000000E+03 0.  0.
        998    1    1    2    0    0 -0.67578111192E+02 -0.28153287301E+02  0.13516340046E+04  0.13536520569E+04  0.10000000000E+02 0. -1.
</event>
<event>
 5    1  0.1574792E-008  0.3834603E+03  0.7957747E-01  0.3436229E+00
         13   -1    0    0    0    0  0.00000000000E+00  0.00000000000E+00  0.14999999963E+04  0.15000000000E+04  0.10566000000E+00 0.  1.
        994   -1    0    0    0    0 -0.00000000000E+00 -0.00000000000E+00  0.11368683772E-12  0.17120000000E+03  0.17120000000E+03 0.  0.
         13    1    1    2    0    0 -0.40851735289E+01  0.25094186176E+02  0.14070542800E+03  0.14298403916E+03  0.10566000000E+00 0.  1.
        994    1    1    2    0    0  0.13811260873E+01 -0.93236186294E+01  0.26901811050E+01  0.17148036170E+03  0.17120000000E+03 0.  0.
        998    1    1    2    0    0  0.27040474416E+01 -0.15770567547E+02  0.13566043872E+04  0.13567355991E+04  0.10000000000E+02 0.  1.
</event>
<event>
 5    1  0.1574792E-008  0.3695881E+03  0.7957747E-01  0.3497786E+00
         13   -1    0    0    0    0  0.00000000000E+00  0.00000000000E+00  0.14999999963E+04  0.15000000000E+04  0.10566000000E+00 0.  1.
        994   -1    0    0    0    0 -0.00000000000E+00 -0.00000000000E+00  0.11368683772E-12  0.17120000000E+03  0.17120000000E+03 0.  0.
         13    1    1    2    0    0  0.84864689788E+01 -0.18437565365E+02  0.15236501732E+02  0.25379639898E+02  0.10566000000E+00 0.  1.
        994    1    1    2    0    0  0.19122406228E+02  0.27474899297E+01  0.12025099919E+02  0.17270569808E+03  0.17120000000E+03 0.  0.
        998    1    1    2    0    0 -0.27608875207E+02  0.15690075435E+02  0.14727383946E+04  0.14731146620E+04  0.10000000000E+02 0.  1.
</event>
<event>
 5    1  0.1574792E-008  0.3711470E+03  0.7957747E-01  0.3490636E+00
         13   -1    0    0    0    0  0.00000000000E+00  0.00000000000E+00  0.14999999963E+04  0.15000000000E+04  0.10566000000E+00 0.  1.
        994   -1    0    0    0    0 -0.00000000000E+00 -0.00000000000E+00  0.11368683772E-12  0.17120000000E+03  0.17120000000E+03 0.  0.
         13    1    1    2    0    0 -0.34491385024E+01  0.26283449024E+02  0.36418003881E+02  0.45044404977E+02  0.10566000000E+00 0.  1.
        994    1    1    2    0    0  0.52394506141E+01 -0.23955480350E+02  0.10744479748E+02  0.17328069923E+03  0.17120000000E+03 0.  0.
        998    1    1    2    0    0 -0.17903121117E+01 -0.23279686733E+01  0.14528375126E+04  0.14528748958E+04  0.10000000000E+02 0.  1.
</event>
<event>
 5    1  0.1574792E-008  0.3829862E+03  0.7957747E-01  0.3438258E+00
         13   -1    0    0    0    0  0.00000000000E+00  0.00000000000E+00  0.14999999963E+04  0.15000000000E+04  0.10566000000E+00 0.  1.
        994   -1    0    0    0    0 -0.00000000000E+00 -0.00000000000E+00  0.11368683772E-12  0.17120000000E+03  0.17120000000E+03 0.  0.
         13    1    1    2    0    0  0.14075485862E+02 -0.19617539173E+02  0.12010965924E+03  0.12251248325E+03  0.10566000000E+00 0.  1.
        994    1    1    2    0    0  0.40417056347E+01  0.56302535530E+01  0.27923037755E+01  0.17136298346E+03  0.17120000000E+03 0.  0.
        998    1    1    2    0    0 -0.18117191497E+02  0.13987285620E+02  0.13770980333E+04  0.13773245333E+04  0.10000000000E+02 0.  1.
</event>
<event>
 5    1  0.1574792E-008  0.3824174E+03  0.7957747E-01  0.3440700E+00
         13   -1    0    0    0    0  0.00000000000E+00  0.00000000000E+00  0.14999999963E+04  0.15000000000E+04  0.10566000000E+00 0. -1.
        994   -1    0    0    0    0 -0.00000000000E+00 -0.00000000000E+00  0.11368683772E-12  0.17120000000E+03  0.17120000000E+03 0.  0.
         13    1    1    2    0    0  0.44221344321E+00  0.25249992114E+02  0.11660092265E+03  0.11930441728E+03  0.10566000000E+00 0. -1.
        994    1    1    2    0    0 -0.33178811674E+01 -0.42278864409E+01  0.30136119336E+01  0.17131084384E+03  0.17120000000E+03 0.  0.
        998    1    1    2    0    0  0.28756677241E+01 -0.21022105673E+02  0.13803854617E+04  0.13805847389E+04  0.10000000000E+02 0. -1.
</event>
<event>
 5    1  0.1574792E-008  0.3773289E+03  0.7957747E-01  0.3462872E+00
         13   -1    0    0    0    0  0.00000000000E+00  0.00000000000E+00  0.14999999963E+04  0.15000000000E+04  0.10566000000E+00 0. -1.
        994   -1    0    0    0    0 -0.00000000000E+00 -0.00000000000E+00  0.11368683772E-12  0.17120000000E+03  0.17120000000E+03 0.  0.
         13    1    1    2    0    0  0.39427908355E+02  0.51579252183E+02  0.12513987798E+03  0.14097864888E+03  0.10566000000E+00 0. -1.
        994    1    1    2    0    0 -0.49837990127E+02 -0.45845381217E+02  0.31512051352E+02  0.18678349397E+03  0.17120000000E+03 0.  0.
        998    1    1    2    0    0  0.10410081773E+02 -0.57338709659E+01  0.13433480669E+04  0.13434378572E+04  0.10000000000E+02 0. -1.
</event>
<event>
 5    1  0.1574792E-008  0.3804072E+03  0.7957747E-01  0.3449387E+00
         13   -1    0    0    0    0  0.00000000000E+00  0.00000000000E+00  0.14999999963E+04  0.15000000000E+04  0.10566000000E+00 0. -1.
        994   -1    0    0    0    0 -0.00000000000E+00 -0.00000000000E+00  0.11368683772E-12  0.17120000000E+03  0.17120000000E+03 0.  0.
         13    1    1    2    0    0 -0.70083945075E+00 -0.13051714246E+02  0.20160849428E+02  0.24027264397E+02  0.10566000000E+00 0. -1.
        994    1    1    2    0    0 -0.20906893329E+01  0.86207286025E+01  0.41904542735E+01  0.17148086730E+03  0.17120000000E+03 0.  0.
        998    1    1    2    0    0  0.27915287837E+01  0.44309856437E+01  0.14756486926E+04  0.14756918683E+04  0.10000000000E+02 0. -1.
</event>
<event>
 5    1  0.1574792E-008  0.3838716E+03  0.7957747E-01  0.3434472E+00
         13   -1    0    0    0    0  0.00000000000E+00  0.00000000000E+00  0.14999999963E+04  0.15000000000E+04  0.10566000000E+00 0. -1.
        994   -1    0    0    0    0 -0.00000000000E+00 -0.00000000000E+00  0.11368683772E-12  0.17120000000E+03  0.17120000000E+03 0.  0.
         13    1    1    2    0    0  0.70676114946E+01  0.86522127146E+01  0.28296343173E+02  0.30422132044E+02  0.10566000000E+00 0. -1.
        994    1    1    2    0    0 -0.43304005954E+01 -0.69925855528E+00  0.22549119390E+01  0.17127103071E+03  0.17120000000E+03 0.  0.
        998    1    1    2    0    0 -0.27372108992E+01 -0.79529541593E+01  0.14694487412E+04  0.14695068372E+04  0.10000000000E+02 0. -1.
</event>
<event>
 5    1  0.1574792E-008  0.3817717E+03  0.7957747E-01  0.3443480E+00
         13   -1    0    0    0    0  0.00000000000E+00  0.00000000000E+00  0.14999999963E+04  0.15000000000E+04  0.10566000000E+00 0. -1.
        994   -1    0    0    0    0 -0.00000000000E+00 -0.00000000000E+00  0.11368683772E-12  0.17120000000E+03  0.17120000000E+03 0.  0.
         13    1    1    2    0    0 -0.15136945995E+03  0.49706409106E+01  0.42226857981E+03  0.44860693858E+03  0.10566000000E+00 0. -1.
        994    1    1    2    0    0  0.15762491800E+03 -0.52372982326E+01  0.11471325681E+03  0.25950263073E+03  0.17120000000E+03 0.  0.
        998    1    1    2    0    0 -0.62554580488E+01  0.26665732204E+00  0.96301815966E+03  0.96309043069E+03  0.10000000000E+02 0. -1.
</event>
<event>
 5    1  0.1574792E-008  0.3781518E+03  0.7957747E-01  0.3459246E+00
         13   -1    0    0    0    0  0.00000000000E+00  0.00000000000E+00  0.14999999963E+04  0.15000000000E+04  0.10566000000E+00 0.  1.
        994   -1    0    0    0    0 -0.00000000000E+00 -0.00000000000E+00  0.11368683772E-12  0.17120000000E+03  0.17120000000E+03 0.  0.
         13    1    1    2    0    0 -0.29881706769E+01 -0.28294954080E+02  0.73289177849E+02  0.78618371543E+02  0.10566000000E+00 0.  1.
        994    1    1    2    0    0  0.19508283318E+01  0.33060715701E+02  0.87669886850E+01  0.17459414865E+03  0.17120000000E+03 0.  0.
        998    1    1    2    0    0  0.10373423451E+01 -0.47657616209E+01  0.14179438297E+04  0.14179874798E+04  0.10000000000E+02 0.  1.
</event>
<event>
 5    1  0.1574792E-008  0.3849779E+03  0.7957747E-01  0.3429766E+00
         13   -1    0    0    0    0  0.00000000000E+00  0.00000000000E+00  0.14999999963E+04  0.15000000000E+04  0.10566000000E+00 0. -1.
        994   -1    0    0    0    0 -0.00000000000E+00 -0.00000000000E+00  0.11368683772E-12  0.17120000000E+03  0.17120000000E+03 0.  0.
         13    1    1    2    0    0 -0.11749519973E+01  0.16907385224E+02  0.10003278076E+03  0.10145840812E+03  0.10566000000E+00 0. -1.
        994    1    1    2    0    0 -0.13823164087E+01  0.55667833862E+01  0.17493145762E+01  0.17130499110E+03  0.17120000000E+03 0.  0.
        998    1    1    2    0    0  0.25572684060E+01 -0.22474168610E+02  0.13982179009E+04  0.13984366008E+04  0.10000000000E+02 0. -1.
</event>
<event>
 5    1  0.1574792E-008  0.3835238E+03  0.7957747E-01  0.3435957E+00
         13   -1    0    0    0    0  0.00000000000E+00  0.00000000000E+00  0.14999999963E+04  0.15000000000E+04  0.10566000000E+00 0.  1.
        994   -1    0    0    0    0 -0.00000000000E+00 -0.00000000000E+00  0.11368683772E-12  0.17120000000E+03  0.17120000000E+03 0.  0.
         13    1    1    2    0    0 -0.11435347159E+02 -0.11832376666E+02  0.54527046865E+02  0.56955968134E+02  0.10566000000E+00 0.  1.
        994    1    1    2    0    0  0.58367416931E+01  0.20260141300E+02  0.38351561057E+01  0.17253605218E+03  0.17120000000E+03 0.  0.
        998    1    1    2    0    0  0.55986054663E+01 -0.84277646339E+01  0.14416377933E+04  0.14417079797E+04  0.10000000000E+02 0.  1.
</event>
<event>
 5    1  0.1574792E-008  0.3754888E+03  0.7957747E-01  0.3471040E+00
         13   -1    0    0    0    0  0.00000000000E+00  0.00000000000E+00  0.14999999963E+04  0.15000000000E+04  0.10566000000E+00 0.  1.
        994   -1    0    0    0    0 -0.00000000000E+00 -0.00000000000E+00  0.11368683772E-12  0.17120000000E+03  0.17120000000E+03 0.  0.
         13    1    1    2    0    0 -0.22216309703E+02  0.26387771037E+02  0.86392391796E+02  0.93024380683E+02  0.10566000000E+00 0.  1.
        994    1    1    2    0    0  0.17785019583E+02 -0.27172259621E+02  0.10015319043E+02  0.17454049739E+03  0.17120000000E+03 0.  0.
        998    1    1    2    0    0  0.44312901197E+01  0.78448858426E+00  0.14035922854E+04  0.14036351219E+04  0.10000000000E+02 0.  1.
</event>
<event>
 5    1  0.1574792E-008  0.3831020E+03  0.7957747E-01  0.3437762E+00
         13   -1    0    0    0    0  0.00000000000E+00  0.00000000000E+00  0.14999999963E+04  0.15000000000E+04  0.10566000000E+00 0.  1.
        994   -1    0    0    0    0 -0.00000000000E+00 -0.00000000000E+00  0.11368683772E-12  0.17120000000E+03  0.17120000000E+03 0.  0.
         13    1    1    2    0    0 -0.52331100093E+01 -0.16258981749E+02  0.57787590337E+02  0.60259079722E+02  0.10566000000E+00 0.  1.
        994    1    1    2    0    0  0.16670666507E+01  0.40399342802E+01  0.26385892222E+01  0.17127609971E+03  0.17120000000E+03 0.  0.
        998    1    1    2    0    0  0.35660433586E+01  0.12219047469E+02  0.14395738167E+04  0.14396648206E+04  0.10000000000E+02 0.  1.
</event>
<event>
 5    1  0.1574792E-008  0.3788946E+03  0.7957747E-01  0.3455986E+00
         13   -1    0    0    0    0  0.00000000000E+00  0.00000000000E+00  0.14999999963E+04  0.15000000000E+04  0.10566000000E+00 0.  1.
        994   -1    0    0    0    0 -0.00000000000E+00 -0.00000000000E+00  0.11368683772E-12  0.17120000000E+03  0.17120000000E+03 0.  0.
         13    1    1    2    0    0 -0.45272080169E+01 -0.29524768628E+02  0.96115360370E+02  0.10064979502E+03  0.10566000000E+00 0.  1.
        994    1    1    2    0    0  0.43949774942E+01  0.11803906226E+02  0.52246433568E+01  0.17174220485E+03  0.17120000000E+03 0.  0.
        998    1    1    2    0    0  0.13223052269E+00  0.17720862402E+02  0.13986599926E+04  0.13988080001E+04  0.10000000000E+02 0.  1.
</event>
<event>
 5    1  0.1574792E-008  0.3813630E+03  0.7957747E-01  0.3445245E+00
         13   -1    0    0    0    0  0.00000000000E+00  0.00000000000E+00  0.14999999963E+04  0.15000000000E+04  0.10566000000E+00 0.  1.
        994   -1    0    0    0    0 -0.00000000000E+00 -0.00000000000E+00  0.11368683772E-12  0.17120000000E+03  0.17120000000E+03 0.  0.
         13    1    1    2    0    0 -0.14311713647E+02 -0.10812548028E+02  0.63054263810E+02  0.65555988979E+02  0.10566000000E+00 0.  1.
        994    1    1    2    0    0 -0.69980856974E+02 -0.21623734208E+01  0.19935742422E+02  0.18603459363E+03  0.17120000000E+03 0.  0.
        998    1    1    2    0    0  0.84292570621E+02  0.12974921449E+02  0.14170099900E+04  0.14196094174E+04  0.10000000000E+02 0.  1.
</event>
<event>
 5    1  0.1574792E-008  0.3848870E+03  0.7957747E-01  0.3430152E+00
         13   -1    0    0    0    0  0.00000000000E+00  0.00000000000E+00  0.14999999963E+04  0.15000000000E+04  0.10566000000E+00 0.  1.
        994   -1    0    0    0    0 -0.00000000000E+00 -0.00000000000E+00  0.11368683772E-12  0.17120000000E+03  0.17120000000E+03 0.  0.
         13    1    1    2    0    0  0.91721033967E+01 -0.75903903086E+01  0.41288579872E+02  0.42970914555E+02  0.10566000000E+00 0.  1.
        994    1    1    2    0    0 -0.96120922371E+01  0.52930925671E+01  0.20824753615E+01  0.17156394099E+03  0.17120000000E+03 0.  0.
        998    1    1    2    0    0  0.43998884040E+00  0.22972977415E+01  0.14566289410E+04  0.14566651445E+04  0.10000000000E+02 0.  1.
</event>
<event>
 5    1  0.1574792E-008  0.3847931E+03  0.7957747E-01  0.3430550E+00
         13   -1    0    0    0    0  0.00000000000E+00  0.00000000000E+00  0.14999999963E+04  0.15000000000E+04  0.10566000000E+00 0.  1.
        994   -1    0    0    0    0 -0.00000000000E+00 -0.00000000000E+00  0.11368683772E-12  0.17120000000E+03  0.17120000000E+03 0.  0.
         13    1    1    2    0    0 -0.12277669387E+02 -0.13155457002E+02  0.10179854926E+03  0.10337680112E+03  0.10566000000E+00 0.  1.
        994    1    1    2    0    0  0.12184798986E+02 -0.10181247609E+02  0.25630450006E+01  0.17195387849E+03  0.17120000000E+03 0.  0.
        998    1    1    2    0    0  0.92870401743E-01  0.23336704611E+02  0.13956384020E+04  0.13958693204E+04  0.10000000000E+02 0.  1.
</event>
<event>
 5    1  0.1574792E-008  0.3784292E+03  0.7957747E-01  0.3458027E+00
         13   -1    0    0    0    0  0.00000000000E+00  0.00000000000E+00  0.14999999963E+04  0.15000000000E+04  0.10566000000E+00 0.  1.
        994   -1    0    0    0    0 -0.00000000000E+00 -0.00000000000E+00  0.11368683772E-12  0.17120000000E+03  0.17120000000E+03 0.  0.
         13    1    1    2    0    0 -0.14457652462E+01 -0.38348947314E+02  0.19458332327E+03  0.19833157302E+03  0.10566000000E+00 0.  1.
        994    1    1    2    0    0  0.90981732343E+01 -0.16925455323E+02  0.61699454561E+01  0.17238548669E+03  0.17120000000E+03 0.  0.
        998    1    1    2    0    0 -0.76524079882E+01  0.55274402637E+02  0.12992467276E+04  0.13004829403E+04  0.10000000000E+02 0.  1.
</event>
<event>
 5    1  0.1574792E-008  0.3862685E+03  0.7957747E-01  0.3424310E+00
         13   -1    0    0    0    0  0.00000000000E+00  0.00000000000E+00  0.14999999963E+04  0.15000000000E+04  0.10566000000E+00 0.  1.
        994   -1    0    0    0    0 -0.00000000000E+00 -0.00000000000E+00  0.11368683772E-12  0.17120000000E+03  0.17120000000E+03 0.  0.
         13    1    1    2    0    0  0.10340094724E+02 -0.19260277864E+01  0.63325054191E+02  0.64192684897E+02  0.10566000000E+00 0.  1.
        994    1    1    2    0    0  0.44216952052E+01 -0.16481797532E+02  0.19559757164E+01  0.17205948646E+03  0.17120000000E+03 0.  0.
        998    1    1    2    0    0 -0.14761789929E+02  0.18407825318E+02  0.14347189664E+04  0.14349478286E+04  0.10000000000E+02 0.  1.
</event>
<event>
 5    1  0.1574792E-008  0.3824504E+03  0.7957747E-01  0.3440558E+00
         13   -1    0    0    0    0  0.00000000000E+00  0.00000000000E+00  0.14999999963E+04  0.15000000000E+04  0.10566000000E+00 0. -1.
        994   -1    0    0    0    0 -0.00000000000E+00 -0.00000000000E+00  0.11368683772E-12  0.17120000000E+03  0.17120000000E+03 0.  0.
         13    1    1    2    0    0 -0.15644203143E+02  0.56252899741E+01  0.44686779125E+02  0.47679181745E+02  0.10566000000E+00 0. -1.
        994    1    1    2    0    0  0.22300527527E+02 -0.18694993023E+01  0.45637464487E+01  0.17271675176E+03  0.17120000000E+03 0.  0.
        998    1    1    2    0    0 -0.66563243838E+01 -0.37557906718E+01  0.14507494707E+04  0.14508040665E+04  0.10000000000E+02 0. -1.
</event>
<event>
 5    1  0.1574792E-008  0.3684482E+03  0.7957747E-01  0.3503053E+00
         13   -1    0    0    0    0  0.00000000000E+00  0.00000000000E+00  0.14999999963E+04  0.15000000000E+04  0.10566000000E+00 0. -1.
        994   -1    0    0    0    0 -0.00000000000E+00 -0.00000000000E+00  0.11368683772E-12  0.17120000000E+03  0.17120000000E+03 0.  0.
         13    1    1    2    0    0 -0.18401406819E+02 -0.19034129347E+02  0.30517062685E+02  0.40400645191E+02  0.10566000000E+00 0. -1.
        994    1    1    2    0    0  0.25358527824E+02  0.58768883067E+00  0.12361007607E+02  0.17350975425E+03  0.17120000000E+03 0.  0.
        998    1    1    2    0    0 -0.69571210041E+01  0.18446440516E+02  0.14571219260E+04  0.14572896006E+04  0.10000000000E+02 0. -1.
</event>
<event>
 5    1  0.1574792E-008  0.3810027E+03  0.7957747E-01  0.3446804E+00
         13   -1    0    0    0    0  0.00000000000E+00  0.00000000000E+00  0.14999999963E+04  0.15000000000E+04  0.10566000000E+00 0.  1.
        994   -1    0    0    0    0 -0.00000000000E+00 -0.00000000000E+00  0.11368683772E-12  0.17120000000E+03  0.17120000000E+03 0.  0.
         13    1    1    2    0    0 -0.14146747952E+02  0.11784310229E+02  0.43923583714E+02  0.47626597774E+02  0.10566000000E+00 0.  1.
        994    1    1    2    0    0  0.15536801838E+02 -0.14121668547E+02  0.50979585714E+01  0.17255794075E+03  0.17120000000E+03 0.  0.
        998    1    1    2    0    0 -0.13900538860E+01  0.23373583173E+01  0.14509784540E+04  0.14510154615E+04  0.10000000000E+02 0.  1.
</event>
<event>
 5    1  0.1574792E-008  0.3816885E+03  0.7957747E-01  0.3443839E+00
         13   -1    0    0    0    0  0.00000000000E+00  0.00000000000E+00  0.14999999963E+04  0.15000000000E+04  0.10566000000E+00 0. -1.
        994   -1    0    0    0    0 -0.00000000000E+00 -0.00000000000E+00  0.11368683772E-12  0.17120000000E+03  0.17120000000E+03 0.  0.
         13    1    1    2    0    0  0.25569646301E+02  0.25176814712E+02  0.17883389686E+03  0.18239860921E+03  0.10566000000E+00 0. -1.
        994    1    1    2    0    0 -0.18161303848E+02 -0.27687528338E+02  0.69367489725E+01  0.17451071792E+03  0.17120000000E+03 0.  0.
        998    1    1    2    0    0 -0.74083424534E+01  0.25107136257E+01  0.13142293504E+04  0.13142906729E+04  0.10000000000E+02 0. -1.
</event>
<event>
 5    1  0.1574792E-008  0.3908110E+03  0.7957747E-01  0.3405395E+00
         13   -1    0    0    0    0  0.00000000000E+00  0.00000000000E+00  0.14999999963E+04  0.15000000000E+04  0.10566000000E+00 0. -1.
        994   -1    0    0    0    0 -0.00000000000E+00 -0.00000000000E+00  0.11368683772E-12  0.17120000000E+03  0.17120000000E+03 0.  0.
         13    1    1    2    0    0 -0.85712466877E+02  0.73108927022E+02  0.42296652019E+03  0.43771249760E+03  0.10566000000E+00 0. -1.
        994    1    1    2    0    0  0.45169696480E+02  0.48215333198E+02  0.39064357416E+02  0.18761791987E+03  0.17120000000E+03 0.  0.
        998    1    1    2    0    0  0.40542770397E+02 -0.12132426022E+03  0.10379691187E+04  0.10458695825E+04  0.10000000000E+02 0. -1.
</event>
<event>
 5    1  0.1574792E-008  0.3829424E+03  0.7957747E-01  0.3438446E+00
         13   -1    0    0    0    0  0.00000000000E+00  0.00000000000E+00  0.14999999963E+04  0.15000000000E+04  0.10566000000E+00 0.  1.
        994   -1    0    0    0    0 -0.00000000000E+00 -0.00000000000E+00  0.11368683772E-12  0.17120000000E+03  0.17120000000E+03 0.  0.
         13    1    1    2    0    0 -0.11031578731E+02  0.94238628656E+01  0.38320725309E+02  0.40975530172E+02  0.10566000000E+00 0.  1.
        994    1    1    2    0    0  0.86960497368E+01 -0.95177497738E+01  0.32056171935E+01  0.17171466106E+03  0.17120000000E+03 0.  0.
        998    1    1    2    0    0  0.23355289945E+01  0.93886908180E-01  0.14584736538E+04  0.14585098088E+04  0.10000000000E+02 0.  1.
</event>
<event>
 5    1  0.1574792E-008  0.3848357E+03  0.7957747E-01  0.3430369E+00
         13   -1    0    0    0    0  0.00000000000E+00  0.00000000000E+00  0.14999999963E+04  0.15000000000E+04  0.10566000000E+00 0. -1.
        994   -1    0    0    0    0 -0.00000000000E+00 -0.00000000000E+00  0.11368683772E-12  0.17120000000E+03  0.17120000000E+03 0.  0.
         13    1    1    2    0    0  0.88160755305E+01 -0.10989027454E+02  0.58256404887E+02  0.59935813889E+02  0.10566000000E+00 0. -1.
        994    1    1    2    0    0 -0.94155856833E+01  0.30447091390E+01  0.20339918193E+01  0.17149781523E+03  0.17120000000E+03 0.  0.
        998    1    1    2    0    0  0.59951015279E+00  0.79443183149E+01  0.14397095996E+04  0.14397663709E+04  0.10000000000E+02 0. -1.
</event>
<event>
 5    1  0.1574792E-008  0.3840862E+03  0.7957747E-01  0.3433557E+00
         13   -1    0    0    0    0  0.00000000000E+00  0.00000000000E+00  0.14999999963E+04  0.15000000000E+04  0.10566000000E+00 0. -1.
        994   -1    0    0    0    0 -0.00000000000E+00 -0.00000000000E+00  0.11368683772E-12  0.17120000000E+03  0.17120000000E+03 0.  0.
         13    1    1    2    0    0 -0.13183338640E+02 -0.14928984170E+02  0.95739820159E+02  0.97789566489E+02  0.10566000000E+00 0. -1.
        994    1    1    2    0    0 -0.15861331184E+00  0.15105468833E+02  0.28375413028E+01  0.17188860343E+03  0.17120000000E+03 0.  0.
        998    1    1    2    0    0  0.13341951952E+02 -0.17648466328E+00  0.14014226348E+04  0.14015218301E+04  0.10000000000E+02 0. -1.
</event>
<event>
 5    1  0.1574792E-008  0.3786020E+03  0.7957747E-01  0.3457268E+00
         13   -1    0    0    0    0  0.00000000000E+00  0.00000000000E+00  0.14999999963E+04  0.15000000000E+04  0.10566000000E+00 0. -1.
        994   -1    0    0    0    0 -0.00000000000E+00 -0.00000000000E+00  0.11368683772E-12  0.17120000000E+03  0.17120000000E+03 0.  0.
         13    1    1    2    0    0 -0.10980338892E+02  0.12812526712E+02  0.28394212273E+02  0.33029852218E+02  0.10566000000E+00 0. -1.
        994    1    1    2    0    0 -0.23539972170E+01 -0.14060375601E+01  0.48657632037E+01  0.17129107944E+03  0.17120000000E+03 0.  0.
        998    1    1    2    0    0  0.13334336109E+02 -0.11406489152E+02  0.14667400208E+04  0.14668790683E+04  0.10000000000E+02 0. -1.
</event>
<event>
 5    1  0.1574792E-008  0.3783422E+03  0.7957747E-01  0.3458409E+00
         13   -1    0    0    0    0  0.00000000000E+00  0.00000000000E+00  0.14999999963E+04  0.15000000000E+04  0.10566000000E+00 0. -1.
        994   -1    0    0    0    0 -0.00000000000E+00 -0.00000000000E+00  0.11368683772E-12  0.17120000000E+03  0.17120000000E+03 0.  0.
         13    1    1    2    0    0  0.27370818814E+02 -0.19512008065E+02  0.12663018082E+03  0.13101562517E+03  0.10566000000E+00 0. -1.
        994    1    1    2    0    0  0.39283420467E+01  0.94897187603E+00  0.50272291645E+01  0.17132146816E+03  0.17120000000E+03 0.  0.
        998    1    1    2    0    0 -0.31299160861E+02  0.18563036189E+02  0.13683425863E+04  0.13688629067E+04  0.10000000000E+02 0. -1.
</event>
<event>
 5    1  0.1574792E-008  0.2932637E+03  0.7957747E-01  0.3945316E+00
         13   -1    0    0    0    0  0.00000000000E+00  0.00000000000E+00  0.14999999963E+04  0.15000000000E+04  0.10566000000E+00 0.  1.
        994   -1    0    0    0    0 -0.00000000000E+00 -0.00000000000E+00  0.11368683772E-12  0.17120000000E+03  0.17120000000E+03 0.  0.
         13    1    1    2    0    0  0.20507849922E+02 -0.19098882630E+03  0.57833246409E+03  0.60939786172E+03  0.10566000000E+00 0.  1.
        994    1    1    2    0    0 -0.26998901666E+02  0.18650317338E+03  0.16144640740E+03  0.30147430543E+03  0.17120000000E+03 0.  0.
        998    1    1    2    0    0  0.64910517449E+01  0.44856529190E+01  0.76022112479E+03  0.76032783285E+03  0.10000000000E+02 0.  1.
</event>
<event>
 5    1  0.1574792E-008  0.3514718E+03  0.7957747E-01  0.3585632E+00
         13   -1    0    0    0    0  0.00000000000E+00  0.00000000000E+00  0.14999999963E+04  0.15000000000E+04  0.10566000000E+00 0. -1.
        994   -1    0    0    0    0 -0.00000000000E+00 -0.00000000000E+00  0.11368683772E-12  0.17120000000E+03  0.17120000000E+03 0.  0.
         13    1    1    2    0    0 -0.11104444676E+03  0.22700541617E+03  0.91294496753E+03  0.94727548951E+03  0.10566000000E+00 0. -1.
        994    1    1    2    0    0  0.10399903053E+03 -0.22853145126E+03  0.26964779267E+03  0.40627797708E+03  0.17120000000E+03 0.  0.
        998    1    1    2    0    0  0.70454162384E+01  0.15260350875E+01  0.31740723607E+03  0.31764653341E+03  0.10000000000E+02 0.  0.
</event>
<event>
 5    1  0.1574792E-008  0.3695865E+03  0.7957747E-01  0.3497794E+00
         13   -1    0    0    0    0  0.00000000000E+00  0.00000000000E+00  0.14999999963E+04  0.15000000000E+04  0.10566000000E+00 0.  1.
        994   -1    0    0    0    0 -0.00000000000E+00 -0.00000000000E+00  0.11368683772E-12  0.17120000000E+03  0.17120000000E+03 0.  0.
         13    1    1    2    0    0 -0.17661836556E+03  0.10533105994E+01  0.69204575784E+03  0.71422860390E+03  0.10566000000E+00 0.  1.
        994    1    1    2    0    0  0.18355451364E+03  0.90309284183E+00  0.13710228333E+03  0.28600620823E+03  0.17120000000E+03 0.  0.
        998    1    1    2    0    0 -0.69361480794E+01 -0.19564034412E+01  0.67085195511E+03  0.67096518787E+03  0.10000000000E+02 0.  1.
</event>
<event>
 5    1  0.1574792E-008  0.3808794E+03  0.7957747E-01  0.3447338E+00
         13   -1    0    0    0    0  0.00000000000E+00  0.00000000000E+00  0.14999999963E+04  0.15000000000E+04  0.10566000000E+00 0.  1.
        994   -1    0    0    0    0 -0.00000000000E+00 -0.00000000000E+00  0.11368683772E-12  0.17120000000E+03  0.17120000000E+03 0.  0.
         13    1    1    2    0    0  0.32280048794E+02 -0.33065416011E+02  0.57948507758E+02  0.74117231475E+02  0.10566000000E+00 0.  1.
        994    1    1    2    0    0 -0.51902988848E+02 -0.11769060903E+02  0.27180433794E+02  0.18133021543E+03  0.17120000000E+03 0.  0.
        998    1    1    2    0    0  0.19622940054E+02  0.44834476914E+02  0.14148710547E+04  0.14157525531E+04  0.10000000000E+02 0.  1.
</event>
<event>
 5    1  0.3778169E-008  0.3860691E+03  0.7957747E-01  0.3425151E+00
         13   -1    0    0    0    0  0.00000000000E+00  0.00000000000E+00  0.14999999963E+04  0.15000000000E+04  0.10566000000E+00 0. -1.
        994   -1    0    0    0    0 -0.00000000000E+00 -0.00000000000E+00  0.11368683772E-12  0.17120000000E+03  0.17120000000E+03 0.  0.
         13    1    1    2    0    0  0.65096974148E+01 -0.83197496518E+01  0.51079051146E+02  0.52160090344E+02  0.10566000000E+00 0. -1.
        994    1    1    2    0    0 -0.63130927484E+01  0.51556089184E+01  0.13180329807E+01  0.17139898674E+03  0.17120000000E+03 0.  0.
        998    1    1    2    0    0 -0.19660466641E+00  0.31641407334E+01  0.14476029122E+04  0.14476409229E+04  0.10000000000E+02 0. -1.
</event>
<event>
 5    1  0.1574792E-008  0.3816412E+03  0.7957747E-01  0.3444043E+00
         13   -1    0    0    0    0  0.00000000000E+00  0.00000000000E+00  0.14999999963E+04  0.15000000000E+04  0.10566000000E+00 0. -1.
        994   -1    0    0    0    0 -0.00000000000E+00 -0.00000000000E+00  0.11368683772E-12  0.17120000000E+03  0.17120000000E+03 0.  0.
         13    1    1    2    0    0 -0.12562427748E+02  0.24783056939E+02  0.11849371236E+03  0.12170778748E+03  0.10566000000E+00 0. -1.
        994    1    1    2    0    0  0.46029328747E+01 -0.12077965327E+02  0.38626118542E+01  0.17173067288E+03  0.17120000000E+03 0.  0.
        998    1    1    2    0    0  0.79594948730E+01 -0.12705091612E+02  0.13776436721E+04  0.13777615396E+04  0.10000000000E+02 0. -1.
</event>
<event>
 5    1  0.1574792E-008  0.3731563E+03  0.7957747E-01  0.3481510E+00
         13   -1    0    0    0    0  0.00000000000E+00  0.00000000000E+00  0.14999999963E+04  0.15000000000E+04  0.10566000000E+00 0. -1.
        994   -1    0    0    0    0 -0.00000000000E+00 -0.00000000000E+00  0.11368683772E-12  0.17120000000E+03  0.17120000000E+03 0.  0.
         13    1    1    2    0    0 -0.13527494150E+03  0.54826237952E+02  0.63769108731E+03  0.65418281861E+03  0.10566000000E+00 0. -1.
        994    1    1    2    0    0  0.14588524855E+03 -0.57894891534E+02  0.97222293389E+02  0.25178550105E+03  0.17120000000E+03 0.  0.
        998    1    1    2    0    0 -0.10610307041E+02  0.30686535819E+01  0.76508661558E+03  0.76523168034E+03  0.10000000000E+02 0. -1.
</event>
<event>
 5    1  0.1574792E-008  0.2771173E+03  0.7957747E-01  0.4074262E+00
         13   -1    0    0    0    0  0.00000000000E+00  0.00000000000E+00  0.14999999963E+04  0.15000000000E+04  0.10566000000E+00 0. -1.
        994   -1    0    0    0    0 -0.00000000000E+00 -0.00000000000E+00  0.11368683772E-12  0.17120000000E+03  0.17120000000E+03 0.  0.
         13    1    1    2    0    0 -0.42235841400E+02  0.16663149895E+03  0.65382449290E+03  0.67604467413E+03  0.10566000000E+00 0. -1.
        994    1    1    2    0    0  0.29411202939E+02 -0.59030673641E+02  0.48059362480E+02  0.18965437409E+03  0.17120000000E+03 0.  0.
        998    1    1    2    0    0  0.12824638461E+02 -0.10760082531E+03  0.79811614090E+03  0.80550095178E+03  0.10000000000E+02 0. -1.
</event>
<event>
 5    1  0.1574792E-008  0.3825141E+03  0.7957747E-01  0.3440284E+00
         13   -1    0    0    0    0  0.00000000000E+00  0.00000000000E+00  0.14999999963E+04  0.15000000000E+04  0.10566000000E+00 0. -1.
        994   -1    0    0    0    0 -0.00000000000E+00 -0.00000000000E+00  0.11368683772E-12  0.17120000000E+03  0.17120000000E+03 0.  0.
         13    1    1    2    0    0 -0.27582862993E+02 -0.11849712741E+02  0.14008517228E+03  0.14326582524E+03  0.10566000000E+00 0. -1.
        994    1    1    2    0    0  0.25550499174E+02  0.25342762985E+02  0.71749885282E+01  0.17508856075E+03  0.17120000000E+03 0.  0.
        998    1    1    2    0    0  0.20323638186E+01 -0.13493050244E+02  0.13527398355E+04  0.13528456140E+04  0.10000000000E+02 0. -1.
</event>
<event>
 5    1  0.1574792E-008  0.3720870E+03  0.7957747E-01  0.3486354E+00
         13   -1    0    0    0    0  0.00000000000E+00  0.00000000000E+00  0.14999999963E+04  0.15000000000E+04  0.10566000000E+00 0.  1.
        994   -1    0    0    0    0 -0.00000000000E+00 -0.00000000000E+00  0.11368683772E-12  0.17120000000E+03  0.17120000000E+03 0.  0.
         13    1    1    2    0    0  0.56725533324E+02 -0.12345117606E+03  0.63242831699E+03  0.64685668142E+03  0.10566000000E+00 0.  1.
        994    1    1    2    0    0 -0.71150687767E+02  0.11454590845E+03  0.73442825334E+02  0.22997059400E+03  0.17120000000E+03 0.  0.
        998    1    1    2    0    0  0.14425154443E+02  0.89052676154E+01  0.79412885396E+03  0.79437272458E+03  0.10000000000E+02 0.  1.
</event>
<event>
 5    1  0.1574792E-008  0.3848477E+03  0.7957747E-01  0.3430318E+00
         13   -1    0    0    0    0  0.00000000000E+00  0.00000000000E+00  0.14999999963E+04  0.15000000000E+04  0.10566000000E+00 0.  1.
        994   -1    0    0    0    0 -0.00000000000E+00 -0.00000000000E+00  0.11368683772E-12  0.17120000000E+03  0.17120000000E+03 0.  0.
         13    1    1    2    0    0  0.10293874027E+02  0.11861218045E+00  0.29607195193E+02  0.31346053700E+02  0.10566000000E+00 0.  1.
        994    1    1    2    0    0 -0.16045787250E+02 -0.13014965442E+01  0.25589337017E+01  0.17197426936E+03  0.17120000000E+03 0.  0.
        998    1    1    2    0    0  0.57519132229E+01  0.11828843638E+01  0.14678338674E+04  0.14678796769E+04  0.10000000000E+02 0.  1.
</event>
<event>
 5    1  0.1574792E-008  0.3760314E+03  0.7957747E-01  0.3468623E+00
         13   -1    0    0    0    0  0.00000000000E+00  0.00000000000E+00  0.14999999963E+04  0.15000000000E+04  0.10566000000E+00 0. -1.
        994   -1    0    0    0    0 -0.00000000000E+00 -0.00000000000E+00  0.11368683772E-12  0.17120000000E+03  0.17120000000E+03 0.  0.
         13    1    1    2    0    0 -0.12950588412E+02  0.10282486210E+02  0.21678166485E+02  0.27265387015E+02  0.10566000000E+00 0. -1.
        994    1    1    2    0    0 -0.34556713532E+02  0.42195956115E+01  0.10266507815E+02  0.17500517884E+03  0.17120000000E+03 0.  0.
        998    1    1    2    0    0  0.47507301944E+02 -0.14502081821E+02  0.14680553220E+04  0.14689294341E+04  0.10000000000E+02 0. -1.
</event>
<event>
 5    1  0.1574792E-008  0.3776453E+03  0.7957747E-01  0.3461476E+00
         13   -1    0    0    0    0  0.00000000000E+00  0.00000000000E+00  0.14999999963E+04  0.15000000000E+04  0.10566000000E+00 0. -1.
        994   -1    0    0    0    0 -0.00000000000E+00 -0.00000000000E+00  0.11368683772E-12  0.17120000000E+03  0.17120000000E+03 0.  0.
         13    1    1    2    0    0 -0.91448982899E+01  0.19414293882E+02  0.39242634709E+02  0.44727391100E+02  0.10566000000E+00 0. -1.
        994    1    1    2    0    0  0.47319386110E+01 -0.30131460406E+02  0.84672069378E+01  0.17410177984E+03  0.17120000000E+03 0.  0.
        998    1    1    2    0    0  0.44129596789E+01  0.10717166523E+02  0.14522901546E+04  0.14523708291E+04  0.10000000000E+02 0. -1.
</event>
<event>
 5    1  0.1574792E-008  0.3794867E+03  0.7957747E-01  0.3453397E+00
         13   -1    0    0    0    0  0.00000000000E+00  0.00000000000E+00  0.14999999963E+04  0.15000000000E+04  0.10566000000E+00 0.  1.
        994   -1    0    0    0    0 -0.00000000000E+00 -0.00000000000E+00  0.11368683772E-12  0.17120000000E+03  0.17120000000E+03 0.  0.
         13    1    1    2    0    0  0.10856460999E+02  0.28934683608E+01  0.12325707243E+02  0.16678403030E+02  0.10566000000E+00 0.  1.
        994    1    1    2    0    0 -0.11648984688E+02 -0.34086204811E+01  0.48859563904E+01  0.17169924318E+03  0.17120000000E+03 0.  0.
        998    1    1    2    0    0  0.79252368927E+00  0.51515212025E+00  0.14827883326E+04  0.14828223538E+04  0.10000000000E+02 0.  1.
</event>
<event>
 5    1  0.1574792E-008  0.3762547E+03  0.7957747E-01  0.3467630E+00
         13   -1    0    0    0    0  0.00000000000E+00  0.00000000000E+00  0.14999999963E+04  0.15000000000E+04  0.10566000000E+00 0.  1.
        994   -1    0    0    0    0 -0.00000000000E+00 -0.00000000000E+00  0.11368683772E-12  0.17120000000E+03  0.17120000000E+03 0.  0.
         13    1    1    2    0    0 -0.24984700499E+01  0.10188690722E+03  0.52162096729E+03  0.53148436374E+03  0.10566000000E+00 0.  1.
        994    1    1    2    0    0 -0.69091668294E+01 -0.10638236499E+03  0.45529504566E+02  0.20675425014E+03  0.17120000000E+03 0.  0.
        998    1    1    2    0    0  0.94076368793E+01  0.44954577642E+01  0.93284952442E+03  0.93296138611E+03  0.10000000000E+02 0.  1.
</event>
<event>
 5    1  0.1574792E-008  0.3855922E+03  0.7957747E-01  0.3427165E+00
         13   -1    0    0    0    0  0.00000000000E+00  0.00000000000E+00  0.14999999963E+04  0.15000000000E+04  0.10566000000E+00 0. -1.
        994   -1    0    0    0    0 -0.00000000000E+00 -0.00000000000E+00  0.11368683772E-12  0.17120000000E+03  0.17120000000E+03 0.  0.
         13    1    1    2    0    0 -0.76999139886E+01 -0.76466583992E+01  0.42773942007E+02  0.44129143873E+02  0.10566000000E+00 0. -1.
        994    1    1    2    0    0  0.25245574812E+01  0.16650425746E+02  0.22678800826E+01  0.17204125479E+03  0.17120000000E+03 0.  0.
        998    1    1    2    0    0  0.51753565073E+01 -0.90037673472E+01  0.14549581742E+04  0.14550296013E+04  0.10000000000E+02 0. -1.
</event>
<event>
 5    1  0.1574792E-008  0.3853899E+03  0.7957747E-01  0.3428020E+00
         13   -1    0    0    0    0  0.00000000000E+00  0.00000000000E+00  0.14999999963E+04  0.15000000000E+04  0.10566000000E+00 0.  1.
        994   -1    0    0    0    0 -0.00000000000E+00 -0.00000000000E+00  0.11368683772E-12  0.17120000000E+03  0.17120000000E+03 0.  0.
         13    1    1    2    0    0 -0.72542285529E+01 -0.72851559109E+01  0.38236600924E+02  0.39594774186E+02  0.10566000000E+00 0.  1.
        994    1    1    2    0    0  0.49964690243E+01 -0.53205030083E+01  0.16116621247E+01  0.17136309378E+03  0.17120000000E+03 0.  0.
        998    1    1    2    0    0  0.22577595287E+01  0.12605658919E+02  0.14601517332E+04  0.14602421320E+04  0.10000000000E+02 0.  1.
</event>
<event>
 5    1  0.1574792E-008  0.3853648E+03  0.7957747E-01  0.3428126E+00
         13   -1    0    0    0    0  0.00000000000E+00  0.00000000000E+00  0.14999999963E+04  0.15000000000E+04  0.10566000000E+00 0.  1.
        994   -1    0    0    0    0 -0.00000000000E+00 -0.00000000000E+00  0.11368683772E-12  0.17120000000E+03  0.17120000000E+03 0.  0.
         13    1    1    2    0    0  0.77229613272E+01 -0.12729055181E+02  0.77882211580E+02  0.79292641664E+02  0.10566000000E+00 0.  1.
        994    1    1    2    0    0  0.76187514534E+00  0.96242432084E+01  0.17553472968E+01  0.17148098365E+03  0.17120000000E+03 0.  0.
        998    1    1    2    0    0 -0.84848364726E+01  0.31048119724E+01  0.14203624374E+04  0.14204263747E+04  0.10000000000E+02 0.  1.
</event>
<event>
 5    1  0.1574792E-008  0.3695479E+03  0.7957747E-01  0.3497971E+00
         13   -1    0    0    0    0  0.00000000000E+00  0.00000000000E+00  0.14999999963E+04  0.15000000000E+04  0.10566000000E+00 0. -1.
        994   -1    0    0    0    0 -0.00000000000E+00 -0.00000000000E+00  0.11368683772E-12  0.17120000000E+03  0.17120000000E+03 0.  0.
         13    1    1    2    0    0 -0.67410627385E+01 -0.29220203931E+02  0.36730173402E+02  0.47417075477E+02  0.10566000000E+00 0. -1.
        994    1    1    2    0    0  0.61894589044E+01  0.30929670116E+02  0.14180714915E+02  0.17465819926E+03  0.17120000000E+03 0.  0.
        998    1    1    2    0    0  0.55160383414E+00 -0.17094661848E+01  0.14490891080E+04  0.14491247253E+04  0.10000000000E+02 0. -1.
</event>
<event>
 5    1  0.1574792E-008  0.3765553E+03  0.7957747E-01  0.3466296E+00
         13   -1    0    0    0    0  0.00000000000E+00  0.00000000000E+00  0.14999999963E+04  0.15000000000E+04  0.10566000000E+00 0.  1.
        994   -1    0    0    0    0 -0.00000000000E+00 -0.00000000000E+00  0.11368683772E-12  0.17120000000E+03  0.17120000000E+03 0.  0.
         13    1    1    2    0    0  0.12690788538E+02  0.20624403538E+01  0.11465578906E+02  0.17227316611E+02  0.10566000000E+00 0.  1.
        994    1    1    2    0    0 -0.81041323168E+01 -0.18077822303E-01  0.61043470210E+01  0.17150038000E+03  0.17120000000E+03 0.  0.
        998    1    1    2    0    0 -0.45866562216E+01 -0.20443625315E+01  0.14824300704E+04  0.14824723034E+04  0.10000000000E+02 0.  1.
</event>
<event>
 5    1  0.1574792E-008  0.3855086E+03  0.7957747E-01  0.3427518E+00
         13   -1    0    0    0    0  0.00000000000E+00  0.00000000000E+00  0.14999999963E+04  0.15000000000E+04  0.10566000000E+00 0. -1.
        994   -1    0    0    0    0 -0.00000000000E+00 -0.00000000000E+00  0.11368683772E-12  0.17120000000E+03  0.17120000000E+03 0.  0.
         13    1    1    2    0    0 -0.62000814346E+01  0.10205526141E+02  0.51630012528E+02  0.52993047952E+02  0.10566000000E+00 0. -1.
        994    1    1    2    0    0  0.65080625367E+01 -0.67347040753E+01  0.16658555137E+01  0.17146406676E+03  0.17120000000E+03 0.  0.
        998    1    1    2    0    0 -0.30798110208E+00 -0.34708220656E+01  0.14467041282E+04  0.14467428853E+04  0.10000000000E+02 0. -1.
</event>
<event>
 5    1  0.1574792E-008  0.3824428E+03  0.7957747E-01  0.3440591E+00
         13   -1    0    0    0    0  0.00000000000E+00  0.00000000000E+00  0.14999999963E+04  0.15000000000E+04  0.10566000000E+00 0. -1.
        994   -1    0    0    0    0 -0.00000000000E+00 -0.00000000000E+00  0.11368683772E-12  0.17120000000E+03  0.17120000000E+03 0.  0.
         13    1    1    2    0    0 -0.86227540368E+01  0.21216180149E+02  0.95258707635E+02  0.97973010220E+02  0.10566000000E+00 0. -1.
        994    1    1    2    0    0  0.13432532809E+02  0.15119260042E+01  0.35112484309E+01  0.17176870414E+03  0.17120000000E+03 0.  0.
        998    1    1    2    0    0 -0.48097787725E+01 -0.22728106153E+02  0.14012300402E+04  0.14014582856E+04  0.10000000000E+02 0. -1.
</event>
<event>
 5    1  0.1574792E-008  0.3831350E+03  0.7957747E-01  0.3437621E+00
         13   -1    0    0    0    0  0.00000000000E+00  0.00000000000E+00  0.14999999963E+04  0.15000000000E+04  0.10566000000E+00 0.  1.
        994   -1    0    0    0    0 -0.00000000000E+00 -0.00000000000E+00  0.11368683772E-12  0.17120000000E+03  0.17120000000E+03 0.  0.
         13    1    1    2    0    0 -0.23469399494E+02 -0.74014155766E+01  0.12976724226E+03  0.13208005902E+03  0.10566000000E+00 0.  1.
        994    1    1    2    0    0 -0.13974325331E+01  0.10739322387E+02  0.29470685048E+01  0.17156751171E+03  0.17120000000E+03 0.  0.
        998    1    1    2    0    0  0.24866832027E+02 -0.33379068100E+01  0.13672856855E+04  0.13675524293E+04  0.10000000000E+02 0.  1.
</event>
<event>
 5    1  0.1574792E-008  0.3792904E+03  0.7957747E-01  0.3454254E+00
         13   -1    0    0    0    0  0.00000000000E+00  0.00000000000E+00  0.14999999963E+04  0.15000000000E+04  0.10566000000E+00 0.  1.
        994   -1    0    0    0    0 -0.00000000000E+00 -0.00000000000E+00  0.11368683772E-12  0.17120000000E+03  0.17120000000E+03 0.  0.
         13    1    1    2    0    0  0.10920595328E+02  0.41071446303E+01  0.13088321025E+02  0.17534062581E+02  0.10566000000E+00 0.  1.
        994    1    1    2    0    0 -0.94633416961E+01 -0.78952934057E+01  0.50009044160E+01  0.17171586863E+03  0.17120000000E+03 0.  0.
        998    1    1    2    0    0 -0.14572536320E+01  0.37881487754E+01  0.14819107708E+04  0.14819500688E+04  0.10000000000E+02 0.  1.
</event>
<event>
 5    1  0.1574792E-008  0.3769988E+03  0.7957747E-01  0.3464331E+00
         13   -1    0    0    0    0  0.00000000000E+00  0.00000000000E+00  0.14999999963E+04  0.15000000000E+04  0.10566000000E+00 0. -1.
        994   -1    0    0    0    0 -0.00000000000E+00 -0.00000000000E+00  0.11368683772E-12  0.17120000000E+03  0.17120000000E+03 0.  0.
         13    1    1    2    0    0  0.20162142751E+02 -0.60936701664E+01  0.36080742800E+02  0.41778893971E+02  0.10566000000E+00 0. -1.
        994    1    1    2    0    0 -0.18829401399E+02  0.14336080816E+02  0.75491859991E+01  0.17299277378E+03  0.17120000000E+03 0.  0.
        998    1    1    2    0    0 -0.13327413523E+01 -0.82424106496E+01  0.14563700675E+04  0.14564283323E+04  0.10000000000E+02 0. -1.
</event>
<event>
 5    1  0.1574792E-008  0.3809144E+03  0.7957747E-01  0.3447186E+00
         13   -1    0    0    0    0  0.00000000000E+00  0.00000000000E+00  0.14999999963E+04  0.15000000000E+04  0.10566000000E+00 0. -1.
        994   -1    0    0    0    0 -0.00000000000E+00 -0.00000000000E+00  0.11368683772E-12  0.17120000000E+03  0.17120000000E+03 0.  0.
         13    1    1    2    0    0  0.21147260543E+01 -0.13741549205E+02  0.24360833006E+02  0.28049306402E+02  0.10566000000E+00 0. -1.
        994    1    1    2    0    0 -0.26177692320E+01  0.16170499014E+02  0.45670907911E+01  0.17204254146E+03  0.17120000000E+03 0.  0.
        998    1    1    2    0    0  0.50304317775E+00 -0.24289498092E+01  0.14710720725E+04  0.14711081521E+04  0.10000000000E+02 0. -1.
</event>
<event>
 5    1  0.1574792E-008  0.3715872E+03  0.7957747E-01  0.3488628E+00
         13   -1    0    0    0    0  0.00000000000E+00  0.00000000000E+00  0.14999999963E+04  0.15000000000E+04  0.10566000000E+00 0. -1.
        994   -1    0    0    0    0 -0.00000000000E+00 -0.00000000000E+00  0.11368683772E-12  0.17120000000E+03  0.17120000000E+03 0.  0.
         13    1    1    2    0    0 -0.39238349687E+02 -0.52218010722E+02  0.22006773779E+03  0.22955650526E+03  0.10566000000E+00 0. -1.
        994    1    1    2    0    0  0.22853822382E+02  0.58899350925E+02  0.22295160810E+02  0.18384217398E+03  0.17120000000E+03 0.  0.
        998    1    1    2    0    0  0.16384527304E+02 -0.66813402025E+01  0.12576370977E+04  0.12578013208E+04  0.10000000000E+02 0. -1.
</event>
<event>
 5    1  0.1574792E-008  0.3851551E+03  0.7957747E-01  0.3429015E+00
         13   -1    0    0    0    0  0.00000000000E+00  0.00000000000E+00  0.14999999963E+04  0.15000000000E+04  0.10566000000E+00 0. -1.
        994   -1    0    0    0    0 -0.00000000000E+00 -0.00000000000E+00  0.11368683772E-12  0.17120000000E+03  0.17120000000E+03 0.  0.
         13    1    1    2    0    0  0.48245532856E+01  0.97932611449E+01  0.38562940155E+02  0.40078620182E+02  0.10566000000E+00 0. -1.
        994    1    1    2    0    0 -0.40233577235E+01 -0.47019836974E+01  0.16790640378E+01  0.17132003769E+03  0.17120000000E+03 0.  0.
        998    1    1    2    0    0 -0.80119556208E+00 -0.50912774475E+01  0.14597579921E+04  0.14598013421E+04  0.10000000000E+02 0. -1.
</event>
<event>
 5    1  0.1574792E-008  0.3843352E+03  0.7957747E-01  0.3432497E+00
         13   -1    0    0    0    0  0.00000000000E+00  0.00000000000E+00  0.14999999963E+04  0.15000000000E+04  0.10566000000E+00 0.  1.
        994   -1    0    0    0    0 -0.00000000000E+00 -0.00000000000E+00  0.11368683772E-12  0.17120000000E+03  0.17120000000E+03 0.  0.
         13    1    1    2    0    0  0.20472365967E+02  0.65885569037E+01  0.12459809257E+03  0.12644058956E+03  0.10566000000E+00 0.  1.
        994    1    1    2    0    0 -0.87843854145E+01  0.62329808388E+01  0.23430062537E+01  0.17155449617E+03  0.17120000000E+03 0.  0.
        998    1    1    2    0    0 -0.11687980552E+02 -0.12821537742E+02  0.13730588975E+04  0.13732049143E+04  0.10000000000E+02 0.  1.
</event>
<event>
 5    1  0.1574792E-008  0.3828051E+03  0.7957747E-01  0.3439035E+00
         13   -1    0    0    0    0  0.00000000000E+00  0.00000000000E+00  0.14999999963E+04  0.15000000000E+04  0.10566000000E+00 0. -1.
        994   -1    0    0    0    0 -0.00000000000E+00 -0.00000000000E+00  0.11368683772E-12  0.17120000000E+03  0.17120000000E+03 0.  0.
         13    1    1    2    0    0 -0.55929270156E+01  0.12470597183E+02  0.33416586344E+02  0.36103684488E+02  0.10566000000E+00 0. -1.
        994    1    1    2    0    0 -0.93445730573E+00 -0.10178655429E+02  0.30699463832E+01  0.17153233750E+03  0.17120000000E+03 0.  0.
        998    1    1    2    0    0  0.65273843213E+01 -0.22919417541E+01  0.14635134636E+04  0.14635639780E+04  0.10000000000E+02 0. -1.
</event>
<event>
 5    1  0.1574792E-008  0.3832195E+03  0.7957747E-01  0.3437259E+00
         13   -1    0    0    0    0  0.00000000000E+00  0.00000000000E+00  0.14999999963E+04  0.15000000000E+04  0.10566000000E+00 0.  1.
        994   -1    0    0    0    0 -0.00000000000E+00 -0.00000000000E+00  0.11368683772E-12  0.17120000000E+03  0.17120000000E+03 0.  0.
         13    1    1    2    0    0  0.11284745378E+02 -0.39023223097E+01  0.27229939767E+02  0.29733052003E+02  0.10566000000E+00 0.  1.
        994    1    1    2    0    0 -0.10135002740E+02  0.36606316095E+01  0.29009173616E+01  0.17156332308E+03  0.17120000000E+03 0.  0.
        998    1    1    2    0    0 -0.11497426374E+01  0.24169070019E+00  0.14698691391E+04  0.14699036249E+04  0.10000000000E+02 0.  1.
</event>
<event>
 5    1  0.1574792E-008  0.3803198E+03  0.7957747E-01  0.3449767E+00
         13   -1    0    0    0    0  0.00000000000E+00  0.00000000000E+00  0.14999999963E+04  0.15000000000E+04  0.10566000000E+00 0. -1.
        994   -1    0    0    0    0 -0.00000000000E+00 -0.00000000000E+00  0.11368683772E-12  0.17120000000E+03  0.17120000000E+03 0.  0.
         13    1    1    2    0    0 -0.34910393303E+01 -0.16400340509E+02  0.34025989371E+02  0.37933331532E+02  0.10566000000E+00 0. -1.
        994    1    1    2    0    0 -0.97242204372E+01  0.12046911726E+02  0.47726399840E+01  0.17196484128E+03  0.17120000000E+03 0.  0.
        998    1    1    2    0    0  0.13215259768E+02  0.43534287826E+01  0.14612013669E+04  0.14613018272E+04  0.10000000000E+02 0. -1.
</event>
<event>
 5    1  0.1574792E-008  0.3930051E+03  0.7957747E-01  0.3396415E+00
         13   -1    0    0    0    0  0.00000000000E+00  0.00000000000E+00  0.14999999963E+04  0.15000000000E+04  0.10566000000E+00 0. -1.
        994   -1    0    0    0    0 -0.00000000000E+00 -0.00000000000E+00  0.11368683772E-12  0.17120000000E+03  0.17120000000E+03 0.  0.
         13    1    1    2    0    0 -0.57892177985E+02  0.10147766692E+03  0.23087387554E+03  0.25875080430E+03  0.10566000000E+00 0. -1.
        994    1    1    2    0    0  0.64815919593E+02 -0.10150754603E+03  0.81287646835E+02  0.22454845104E+03  0.17120000000E+03 0.  0.
        998    1    1    2    0    0 -0.69237416078E+01  0.29879117620E-01  0.11878384739E+04  0.11879007447E+04  0.10000000000E+02 0. -1.
</event>
<event>
 5    1  0.1574792E-008  0.3771505E+03  0.7957747E-01  0.3463661E+00
         13   -1    0    0    0    0  0.00000000000E+00  0.00000000000E+00  0.14999999963E+04  0.15000000000E+04  0.10566000000E+00 0. -1.
        994   -1    0    0    0    0 -0.00000000000E+00 -0.00000000000E+00  0.11368683772E-12  0.17120000000E+03  0.17120000000E+03 0.  0.
         13    1    1    2    0    0 -0.10129823712E+02  0.66766633016E+01  0.10673446020E+02  0.16159355658E+02  0.10566000000E+00 0. -1.
        994    1    1    2    0    0 -0.57946278420E+01 -0.25577448738E+02  0.79030834694E+01  0.17337728318E+03  0.17120000000E+03 0.  0.
        998    1    1    2    0    0  0.15924451554E+02  0.18900785436E+02  0.14814234668E+04  0.14816633612E+04  0.10000000000E+02 0. -1.
</event>
<event>
 5    1  0.1574792E-008  0.3843260E+03  0.7957747E-01  0.3432536E+00
         13   -1    0    0    0    0  0.00000000000E+00  0.00000000000E+00  0.14999999963E+04  0.15000000000E+04  0.10566000000E+00 0. -1.
        994   -1    0    0    0    0 -0.00000000000E+00 -0.00000000000E+00  0.11368683772E-12  0.17120000000E+03  0.17120000000E+03 0.  0.
         13    1    1    2    0    0 -0.95258856716E+01  0.47118807528E+01  0.27553980926E+02  0.29532648830E+02  0.10566000000E+00 0. -1.
        994    1    1    2    0    0  0.11840574099E+02 -0.65264774149E+01  0.25678511540E+01  0.17175222840E+03  0.17120000000E+03 0.  0.
        998    1    1    2    0    0 -0.23146884279E+01  0.18145966621E+01  0.14698781642E+04  0.14699151228E+04  0.10000000000E+02 0. -1.
</event>
<event>
 5    1  0.1574792E-008  0.3822978E+03  0.7957747E-01  0.3441214E+00
         13   -1    0    0    0    0  0.00000000000E+00  0.00000000000E+00  0.14999999963E+04  0.15000000000E+04  0.10566000000E+00 0. -1.
        994   -1    0    0    0    0 -0.00000000000E+00 -0.00000000000E+00  0.11368683772E-12  0.17120000000E+03  0.17120000000E+03 0.  0.
         13    1    1    2    0    0 -0.53520167391E+01 -0.15973232147E+02  0.43238853458E+02  0.46404717872E+02  0.10566000000E+00 0. -1.
        994    1    1    2    0    0  0.70559571607E+01  0.29433579041E+02  0.60230718239E+01  0.17395930415E+03  0.17120000000E+03 0.  0.
        998    1    1    2    0    0 -0.17039404216E+01 -0.13460346894E+02  0.14507380710E+04  0.14508359780E+04  0.10000000000E+02 0. -1.
</event>
<event>
 5    1  0.1574792E-008  0.3806350E+03  0.7957747E-01  0.3448398E+00
         13   -1    0    0    0    0  0.00000000000E+00  0.00000000000E+00  0.14999999963E+04  0.15000000000E+04  0.10566000000E+00 0. -1.
        994   -1    0    0    0    0 -0.00000000000E+00 -0.00000000000E+00  0.11368683772E-12  0.17120000000E+03  0.17120000000E+03 0.  0.
         13    1    1    2    0    0  0.17263574637E+02  0.23152918207E+02  0.12313118622E+03  0.12647287778E+03  0.10566000000E+00 0. -1.
        994    1    1    2    0    0 -0.22129094466E+01  0.68390000567E+01  0.39853094020E+01  0.17139717495E+03  0.17120000000E+03 0.  0.
        998    1    1    2    0    0 -0.15050665190E+02 -0.29991918264E+02  0.13728835007E+04  0.13733299473E+04  0.10000000000E+02 0. -1.
</event>
<event>
 5    1  0.1574792E-008  0.3804933E+03  0.7957747E-01  0.3449013E+00
         13   -1    0    0    0    0  0.00000000000E+00  0.00000000000E+00  0.14999999963E+04  0.15000000000E+04  0.10566000000E+00 0.  1.
        994   -1    0    0    0    0 -0.00000000000E+00 -0.00000000000E+00  0.11368683772E-12  0.17120000000E+03  0.17120000000E+03 0.  0.
         13    1    1    2    0    0  0.16969517730E+01 -0.14633596827E+02  0.25786420439E+02  0.29698020885E+02  0.10566000000E+00 0.  1.
        994    1    1    2    0    0  0.38509933286E-01  0.17938115629E+02  0.49589888501E+01  0.17220862071E+03  0.17120000000E+03 0.  0.
        998    1    1    2    0    0 -0.17354617063E+01 -0.33045188025E+01  0.14692545870E+04  0.14692933584E+04  0.10000000000E+02 0.  1.
</event>
<event>
 5    1  0.1574792E-008  0.3691733E+03  0.7957747E-01  0.3499699E+00
         13   -1    0    0    0    0  0.00000000000E+00  0.00000000000E+00  0.14999999963E+04  0.15000000000E+04  0.10566000000E+00 0. -1.
        994   -1    0    0    0    0 -0.00000000000E+00 -0.00000000000E+00  0.11368683772E-12  0.17120000000E+03  0.17120000000E+03 0.  0.
         13    1    1    2    0    0  0.50050522603E+02 -0.17265864224E+02  0.13552193025E+03  0.14549697462E+03  0.10566000000E+00 0. -1.
        994    1    1    2    0    0 -0.41392745165E+02  0.88419112476E+01  0.15939807635E+02  0.17707358983E+03  0.17120000000E+03 0.  0.
        998    1    1    2    0    0 -0.86577774386E+01  0.84239529760E+01  0.13485382584E+04  0.13486294356E+04  0.10000000000E+02 0. -1.
</event>
<event>
 5    1  0.1574792E-008  0.3803422E+03  0.7957747E-01  0.3449670E+00
         13   -1    0    0    0    0  0.00000000000E+00  0.00000000000E+00  0.14999999963E+04  0.15000000000E+04  0.10566000000E+00 0.  1.
        994   -1    0    0    0    0 -0.00000000000E+00 -0.00000000000E+00  0.11368683772E-12  0.17120000000E+03  0.17120000000E+03 0.  0.
         13    1    1    2    0    0  0.28852942002E+01  0.28434807931E+02  0.94143962027E+02  0.98386787603E+02  0.10566000000E+00 0.  1.
        994    1    1    2    0    0 -0.15752487127E+02 -0.31552443564E+02  0.81245676793E+01  0.17498327390E+03  0.17120000000E+03 0.  0.
        998    1    1    2    0    0  0.12867192927E+02  0.31176356334E+01  0.13977314666E+04  0.13978299385E+04  0.10000000000E+02 0.  1.
</event>
<event>
 5    1  0.1574792E-008  0.3789826E+03  0.7957747E-01  0.3455600E+00
         13   -1    0    0    0    0  0.00000000000E+00  0.00000000000E+00  0.14999999963E+04  0.15000000000E+04  0.10566000000E+00 0.  1.
        994   -1    0    0    0    0 -0.00000000000E+00 -0.00000000000E+00  0.11368683772E-12  0.17120000000E+03  0.17120000000E+03 0.  0.
         13    1    1    2    0    0 -0.13895682294E+02  0.25721418575E+02  0.87162412604E+02  0.91934643605E+02  0.10566000000E+00 0.  1.
        994    1    1    2    0    0  0.79094642667E+01 -0.24976663123E+02  0.69533088820E+01  0.17333257579E+03  0.17120000000E+03 0.  0.
        998    1    1    2    0    0  0.59862180276E+01 -0.74475545269E+00  0.14058842748E+04  0.14059327806E+04  0.10000000000E+02 0.  1.
</event>
<event>
 5    1  0.1574792E-008  0.3830062E+03  0.7957747E-01  0.3438173E+00
         13   -1    0    0    0    0  0.00000000000E+00  0.00000000000E+00  0.14999999963E+04  0.15000000000E+04  0.10566000000E+00 0. -1.
        994   -1    0    0    0    0 -0.00000000000E+00 -0.00000000000E+00  0.11368683772E-12  0.17120000000E+03  0.17120000000E+03 0.  0.
         13    1    1    2    0    0  0.75800981801E+00  0.13489205080E+02  0.33524258774E+02  0.36144436957E+02  0.10566000000E+00 0. -1.
        994    1    1    2    0    0 -0.68280066855E+00 -0.12317638997E+02  0.31272042399E+01  0.17167239106E+03  0.17120000000E+03 0.  0.
        998    1    1    2    0    0 -0.75209149460E-01 -0.11715660822E+01  0.14633485333E+04  0.14633831720E+04  0.10000000000E+02 0. -1.
</event>
<event>
 5    1  0.1574792E-008  0.2372210E+03  0.7957747E-01  0.4479787E+00
         13   -1    0    0    0    0  0.00000000000E+00  0.00000000000E+00  0.14999999963E+04  0.15000000000E+04  0.10566000000E+00 0. -1.
        994   -1    0    0    0    0 -0.00000000000E+00 -0.00000000000E+00  0.11368683772E-12  0.17120000000E+03  0.17120000000E+03 0.  0.
         13    1    1    2    0    0  0.78252532317E+02 -0.16286565131E+03  0.43766520814E+03  0.47349712224E+03  0.10566000000E+00 0. -1.
        994    1    1    2    0    0  0.47812138610E+02  0.56323496096E+02  0.82300953915E+02  0.20381664266E+03  0.17120000000E+03 0.  0.
        998    1    1    2    0    0 -0.12606467093E+03  0.10654215521E+03  0.98003383422E+03  0.99388623510E+03  0.10000000000E+02 0. -1.
</event>
<event>
 5    1  0.1574792E-008  0.3733170E+03  0.7957747E-01  0.3480784E+00
         13   -1    0    0    0    0  0.00000000000E+00  0.00000000000E+00  0.14999999963E+04  0.15000000000E+04  0.10566000000E+00 0. -1.
        994   -1    0    0    0    0 -0.00000000000E+00 -0.00000000000E+00  0.11368683772E-12  0.17120000000E+03  0.17120000000E+03 0.  0.
         13    1    1    2    0    0  0.10137234148E+02 -0.50335744164E+02  0.90390288218E+02  0.10395607738E+03  0.10566000000E+00 0. -1.
        994    1    1    2    0    0 -0.21453387148E+01  0.62900967498E+02  0.26849948183E+02  0.18436782232E+03  0.17120000000E+03 0.  0.
        998    1    1    2    0    0 -0.79918954334E+01 -0.12565223335E+02  0.13827597599E+04  0.13828761003E+04  0.10000000000E+02 0. -1.
</event>
<event>
 5    1  0.1574792E-008  0.3703511E+03  0.7957747E-01  0.3494279E+00
         13   -1    0    0    0    0  0.00000000000E+00  0.00000000000E+00  0.14999999963E+04  0.15000000000E+04  0.10566000000E+00 0.  1.
        994   -1    0    0    0    0 -0.00000000000E+00 -0.00000000000E+00  0.11368683772E-12  0.17120000000E+03  0.17120000000E+03 0.  0.
         13    1    1    2    0    0 -0.40831941162E+02 -0.46951458528E+02  0.20206598727E+03  0.21142932921E+03  0.10566000000E+00 0.  1.
        994    1    1    2    0    0  0.31800150044E+01  0.11428083339E+01  0.11164611886E+02  0.17159693198E+03  0.17120000000E+03 0.  0.
        998    1    1    2    0    0  0.37651926158E+02  0.45808650194E+02  0.12867693971E+04  0.12881737388E+04  0.10000000000E+02 0.  1.
</event>
<event>
 5    1  0.1574792E-008  0.3836781E+03  0.7957747E-01  0.3435298E+00
         13   -1    0    0    0    0  0.00000000000E+00  0.00000000000E+00  0.14999999963E+04  0.15000000000E+04  0.10566000000E+00 0.  1.
        994   -1    0    0    0    0 -0.00000000000E+00 -0.00000000000E+00  0.11368683772E-12  0.17120000000E+03  0.17120000000E+03 0.  0.
         13    1    1    2    0    0  0.23769109377E+01  0.10487417245E+02  0.24053600307E+02  0.26348101978E+02  0.10566000000E+00 0.  1.
        994    1    1    2    0    0 -0.57929444415E+01 -0.12068497469E+02  0.28799851179E+01  0.17174673549E+03  0.17120000000E+03 0.  0.
        998    1    1    2    0    0  0.34160335038E+01  0.15810802238E+01  0.14730664109E+04  0.14731051625E+04  0.10000000000E+02 0.  1.
</event>
<event>
 5    1  0.1574792E-008  0.3823762E+03  0.7957747E-01  0.3440877E+00
         13   -1    0    0    0    0  0.00000000000E+00  0.00000000000E+00  0.14999999963E+04  0.15000000000E+04  0.10566000000E+00 0. -1.
        994   -1    0    0    0    0 -0.00000000000E+00 -0.00000000000E+00  0.11368683772E-12  0.17120000000E+03  0.17120000000E+03 0.  0.
         13    1    1    2    0    0 -0.55657993968E+01 -0.13117158234E+02  0.34669371065E+02  0.37483521941E+02  0.10566000000E+00 0. -1.
        994    1    1    2    0    0 -0.66883247117E+01  0.33573429604E+01  0.31242241699E+01  0.17139196660E+03  0.17120000000E+03 0.  0.
        998    1    1    2    0    0  0.12254124109E+02  0.97598152735E+01  0.14622064010E+04  0.14623245115E+04  0.10000000000E+02 0. -1.
</event>
<event>
 5    1  0.1574792E-008  0.2936848E+03  0.7957747E-01  0.3942162E+00
         13   -1    0    0    0    0  0.00000000000E+00  0.00000000000E+00  0.14999999963E+04  0.15000000000E+04  0.10566000000E+00 0.  1.
        994   -1    0    0    0    0 -0.00000000000E+00 -0.00000000000E+00  0.11368683772E-12  0.17120000000E+03  0.17120000000E+03 0.  0.
         13    1    1    2    0    0 -0.18392420337E+03 -0.13675169725E+03  0.45300111914E+03  0.50768017923E+03  0.10566000000E+00 0.  1.
        994    1    1    2    0    0  0.18386617022E+03  0.13355153390E+03  0.28936490413E+03  0.40581309552E+03  0.17120000000E+03 0.  0.
        998    1    1    2    0    0  0.58033147297E-01  0.32001633520E+01  0.75763397301E+03  0.75770672524E+03  0.10000000000E+02 0.  0.
</event>
<event>
 5    1  0.1574792E-008  0.3816672E+03  0.7957747E-01  0.3443931E+00
         13   -1    0    0    0    0  0.00000000000E+00  0.00000000000E+00  0.14999999963E+04  0.15000000000E+04  0.10566000000E+00 0. -1.
        994   -1    0    0    0    0 -0.00000000000E+00 -0.00000000000E+00  0.11368683772E-12  0.17120000000E+03  0.17120000000E+03 0.  0.
         13    1    1    2    0    0 -0.74485164122E+02 -0.29935843671E+02  0.46172823528E+03  0.46865463705E+03  0.10566000000E+00 0. -1.
        994    1    1    2    0    0  0.10683457885E+03  0.26820866395E+02  0.44740704937E+02  0.20843261931E+03  0.17120000000E+03 0.  0.
        998    1    1    2    0    0 -0.32349414728E+02  0.31149772762E+01  0.99353105606E+03  0.99411274364E+03  0.10000000000E+02 0. -1.
</event>
<event>
 5    1  0.1574792E-008  0.3788611E+03  0.7957747E-01  0.3456132E+00
         13   -1    0    0    0    0  0.00000000000E+00  0.00000000000E+00  0.14999999963E+04  0.15000000000E+04  0.10566000000E+00 0.  1.
        994   -1    0    0    0    0 -0.00000000000E+00 -0.00000000000E+00  0.11368683772E-12  0.17120000000E+03  0.17120000000E+03 0.  0.
         13    1    1    2    0    0 -0.18452828563E+02  0.48128775689E+02  0.26776135664E+03  0.27267754070E+03  0.10566000000E+00 0.  1.
        994    1    1    2    0    0  0.84798676400E+01 -0.34333394259E+02  0.89173279646E+01  0.17504184887E+03  0.17120000000E+03 0.  0.
        998    1    1    2    0    0  0.99729609235E+01 -0.13795381431E+02  0.12233213117E+04  0.12234806104E+04  0.10000000000E+02 0.  1.
</event>
<event>
 5    1  0.1574792E-008  0.3855851E+03  0.7957747E-01  0.3427194E+00
         13   -1    0    0    0    0  0.00000000000E+00  0.00000000000E+00  0.14999999963E+04  0.15000000000E+04  0.10566000000E+00 0.  1.
        994   -1    0    0    0    0 -0.00000000000E+00 -0.00000000000E+00  0.11368683772E-12  0.17120000000E+03  0.17120000000E+03 0.  0.
         13    1    1    2    0    0 -0.28656887795E+01  0.10573810797E+02  0.44302117673E+02  0.45636678684E+02  0.10566000000E+00 0.  1.
        994    1    1    2    0    0 -0.83209637189E+00 -0.10735673755E+02  0.17205813435E+01  0.17154692500E+03  0.17120000000E+03 0.  0.
        998    1    1    2    0    0  0.36977851514E+01  0.16186295791E+00  0.14539772973E+04  0.14540163963E+04  0.10000000000E+02 0.  1.
</event>
<event>
 5    1  0.1574792E-008  0.3789134E+03  0.7957747E-01  0.3455903E+00
         13   -1    0    0    0    0  0.00000000000E+00  0.00000000000E+00  0.14999999963E+04  0.15000000000E+04  0.10566000000E+00 0.  1.
        994   -1    0    0    0    0 -0.00000000000E+00 -0.00000000000E+00  0.11368683772E-12  0.17120000000E+03  0.17120000000E+03 0.  0.
         13    1    1    2    0    0 -0.40893914757E+02  0.21370733049E+02  0.27672085846E+03  0.28054137870E+03  0.10566000000E+00 0.  1.
        994    1    1    2    0    0 -0.11073533860E+02 -0.32419207451E+02  0.86301947073E+01  0.17480717498E+03  0.17120000000E+03 0.  0.
        998    1    1    2    0    0  0.51967448616E+02  0.11048474402E+02  0.12146489431E+04  0.12158514463E+04  0.10000000000E+02 0.  1.
</event>
<event>
 5    1  0.1574792E-008  0.3772477E+03  0.7957747E-01  0.3463231E+00
         13   -1    0    0    0    0  0.00000000000E+00  0.00000000000E+00  0.14999999963E+04  0.15000000000E+04  0.10566000000E+00 0.  1.
        994   -1    0    0    0    0 -0.00000000000E+00 -0.00000000000E+00  0.11368683772E-12  0.17120000000E+03  0.17120000000E+03 0.  0.
         13    1    1    2    0    0 -0.17128077410E+02  0.42062229452E+02  0.21086568508E+03  0.21570106743E+03  0.10566000000E+00 0.  1.
        994    1    1    2    0    0 -0.72526896088E+01 -0.10436489449E+02  0.60740965886E+01  0.17177850991E+03  0.17120000000E+03 0.  0.
        998    1    1    2    0    0  0.24380767019E+02 -0.31625740003E+02  0.12830602146E+04  0.12837204227E+04  0.10000000000E+02 0.  1.
</event>
<event>
 5    1  0.1574792E-008  0.3774931E+03  0.7957747E-01  0.3462147E+00
         13   -1    0    0    0    0  0.00000000000E+00  0.00000000000E+00  0.14999999963E+04  0.15000000000E+04  0.10566000000E+00 0. -1.
        994   -1    0    0    0    0 -0.00000000000E+00 -0.00000000000E+00  0.11368683772E-12  0.17120000000E+03  0.17120000000E+03 0.  0.
         13    1    1    2    0    0  0.17154815868E+02 -0.12880754445E+02  0.39671569551E+02  0.45100400632E+02  0.10566000000E+00 0. -1.
        994    1    1    2    0    0 -0.14531538673E+02  0.14738283277E+02  0.68493294584E+01  0.17258254814E+03  0.17120000000E+03 0.  0.
        998    1    1    2    0    0 -0.26232771953E+01 -0.18575288322E+01  0.14534790973E+04  0.14535170512E+04  0.10000000000E+02 0. -1.
</event>
<event>
 5    1  0.1574792E-008  0.3872362E+03  0.7957747E-01  0.3420243E+00
         13   -1    0    0    0    0  0.00000000000E+00  0.00000000000E+00  0.14999999963E+04  0.15000000000E+04  0.10566000000E+00 0. -1.
        994   -1    0    0    0    0 -0.00000000000E+00 -0.00000000000E+00  0.11368683772E-12  0.17120000000E+03  0.17120000000E+03 0.  0.
         13    1    1    2    0    0 -0.12197627314E+02  0.71523725407E+02  0.10117801607E+03  0.12450472886E+03  0.10566000000E+00 0. -1.
        994    1    1    2    0    0  0.56924075065E+02 -0.10046842214E+03  0.71893958870E+02  0.21866054855E+03  0.17120000000E+03 0.  0.
        998    1    1    2    0    0 -0.44726447750E+02  0.28944696737E+02  0.13269280213E+04  0.13280347226E+04  0.10000000000E+02 0. -1.
</event>
<event>
 5    1  0.1574792E-008  0.3857321E+03  0.7957747E-01  0.3426573E+00
         13   -1    0    0    0    0  0.00000000000E+00  0.00000000000E+00  0.14999999963E+04  0.15000000000E+04  0.10566000000E+00 0. -1.
        994   -1    0    0    0    0 -0.00000000000E+00 -0.00000000000E+00  0.11368683772E-12  0.17120000000E+03  0.17120000000E+03 0.  0.
         13    1    1    2    0    0 -0.37997175120E+01  0.93483191436E+01  0.40964294527E+02  0.42189021251E+02  0.10566000000E+00 0. -1.
        994    1    1    2    0    0  0.97010640844E+00 -0.45472800012E+01  0.13380299251E+01  0.17126835430E+03  0.17120000000E+03 0.  0.
        998    1    1    2    0    0  0.28296111036E+01 -0.48010391424E+01  0.14576976718E+04  0.14577426244E+04  0.10000000000E+02 0. -1.
</event>
<event>
 5    1  0.1574792E-008  0.3826040E+03  0.7957747E-01  0.3439898E+00
         13   -1    0    0    0    0  0.00000000000E+00  0.00000000000E+00  0.14999999963E+04  0.15000000000E+04  0.10566000000E+00 0.  1.
        994   -1    0    0    0    0 -0.00000000000E+00 -0.00000000000E+00  0.11368683772E-12  0.17120000000E+03  0.17120000000E+03 0.  0.
         13    1    1    2    0    0 -0.35434006863E+01 -0.23969136955E+02  0.10483186112E+03  0.10759556443E+03  0.10566000000E+00 0.  1.
        994    1    1    2    0    0 -0.12001889566E+01  0.12517201421E+02  0.33486565978E+01  0.17169383881E+03  0.17120000000E+03 0.  0.
        998    1    1    2    0    0  0.47435896430E+01  0.11451935534E+02  0.13918194786E+04  0.13919105968E+04  0.10000000000E+02 0.  1.
</event>
<event>
 5    1  0.1574792E-008  0.3836003E+03  0.7957747E-01  0.3435630E+00
         13   -1    0    0    0    0  0.00000000000E+00  0.00000000000E+00  0.14999999963E+04  0.15000000000E+04  0.10566000000E+00 0.  1.
        994   -1    0    0    0    0 -0.00000000000E+00 -0.00000000000E+00  0.11368683772E-12  0.17120000000E+03  0.17120000000E+03 0.  0.
         13    1    1    2    0    0  0.82162513495E+00  0.23706373503E+02  0.12824653702E+03  0.13042182576E+03  0.10566000000E+00 0.  1.
        994    1    1    2    0    0  0.24304719198E+02 -0.80083277371E+01  0.44930744322E+01  0.17316027375E+03  0.17120000000E+03 0.  0.
        998    1    1    2    0    0 -0.25126344333E+02 -0.15698045766E+02  0.13672603848E+04  0.13676179005E+04  0.10000000000E+02 0.  1.
</event>
<event>
 5    1  0.1574792E-008  0.3829218E+03  0.7957747E-01  0.3438534E+00
         13   -1    0    0    0    0  0.00000000000E+00  0.00000000000E+00  0.14999999963E+04  0.15000000000E+04  0.10566000000E+00 0.  1.
        994   -1    0    0    0    0 -0.00000000000E+00 -0.00000000000E+00  0.11368683772E-12  0.17120000000E+03  0.17120000000E+03 0.  0.
         13    1    1    2    0    0 -0.20283411096E+01 -0.28412930245E+02  0.14789415054E+03  0.15061241549E+03  0.10566000000E+00 0.  1.
        994    1    1    2    0    0 -0.14388460122E+01  0.20246052986E+02  0.40306513187E+01  0.17244610488E+03  0.17120000000E+03 0.  0.
        998    1    1    2    0    0  0.34671871218E+01  0.81668772585E+01  0.13480751944E+04  0.13481414796E+04  0.10000000000E+02 0.  1.
</event>
<event>
 5    1  0.1574792E-008  0.3669969E+03  0.7957747E-01  0.3509807E+00
         13   -1    0    0    0    0  0.00000000000E+00  0.00000000000E+00  0.14999999963E+04  0.15000000000E+04  0.10566000000E+00 0.  1.
        994   -1    0    0    0    0 -0.00000000000E+00 -0.00000000000E+00  0.11368683772E-12  0.17120000000E+03  0.17120000000E+03 0.  0.
         13    1    1    2    0    0 -0.27499322874E+03 -0.10871275365E+03  0.10784033269E+04  0.11182099468E+04  0.10566000000E+00 0.  1.
        994    1    1    2    0    0  0.24209204780E+03  0.81509392437E+02  0.32785279402E+03  0.44949887120E+03  0.17120000000E+03 0.  0.
        998    1    1    2    0    0  0.32901180942E+02  0.27203361214E+02  0.93743875394E+02  0.10349118196E+03  0.10000000000E+02 0.  1.
</event>
<event>
 5    1  0.1574792E-008  0.3831482E+03  0.7957747E-01  0.3437564E+00
         13   -1    0    0    0    0  0.00000000000E+00  0.00000000000E+00  0.14999999963E+04  0.15000000000E+04  0.10566000000E+00 0.  1.
        994   -1    0    0    0    0 -0.00000000000E+00 -0.00000000000E+00  0.11368683772E-12  0.17120000000E+03  0.17120000000E+03 0.  0.
         13    1    1    2    0    0 -0.24397926609E+02  0.12462841410E+02  0.13369383001E+03  0.13647209453E+03  0.10566000000E+00 0.  1.
        994    1    1    2    0    0  0.26478799718E+02 -0.11581121927E+02  0.53206410594E+01  0.17370376634E+03  0.17120000000E+03 0.  0.
        998    1    1    2    0    0 -0.20808731089E+01 -0.88171948245E+00  0.13609855252E+04  0.13610241391E+04  0.10000000000E+02 0.  0.
</event>
<event>
 5    1  0.1574792E-008  0.3843491E+03  0.7957747E-01  0.3432437E+00
         13   -1    0    0    0    0  0.00000000000E+00  0.00000000000E+00  0.14999999963E+04  0.15000000000E+04  0.10566000000E+00 0. -1.
        994   -1    0    0    0    0 -0.00000000000E+00 -0.00000000000E+00  0.11368683772E-12  0.17120000000E+03  0.17120000000E+03 0.  0.
         13    1    1    2    0    0  0.40355439289E+01 -0.11139422965E+02  0.33889456260E+02  0.35900957765E+02  0.10566000000E+00 0. -1.
        994    1    1    2    0    0 -0.10765727156E+02  0.16146115453E+02  0.31957245273E+01  0.17232600088E+03  0.17120000000E+03 0.  0.
        998    1    1    2    0    0  0.67301832269E+01 -0.50066924873E+01  0.14629148155E+04  0.14629730414E+04  0.10000000000E+02 0. -1.
</event>
<event>
 5    1  0.1574792E-008  0.3853759E+03  0.7957747E-01  0.3428080E+00
         13   -1    0    0    0    0  0.00000000000E+00  0.00000000000E+00  0.14999999963E+04  0.15000000000E+04  0.10566000000E+00 0. -1.
        994   -1    0    0    0    0 -0.00000000000E+00 -0.00000000000E+00  0.11368683772E-12  0.17120000000E+03  0.17120000000E+03 0.  0.
         13    1    1    2    0    0  0.19500301522E+01 -0.12650511272E+02  0.58656961655E+02  0.60037391413E+02  0.10566000000E+00 0. -1.
        994    1    1    2    0    0 -0.64713302249E+01  0.29896457845E+01  0.16105815193E+01  0.17135591635E+03  0.17120000000E+03 0.  0.
        998    1    1    2    0    0  0.45213000727E+01  0.96608654874E+01  0.14397324531E+04  0.14398066922E+04  0.10000000000E+02 0. -1.
</event>
<event>
 5    1  0.2172015E-008  0.3861025E+03  0.7957747E-01  0.3425010E+00
         13   -1    0    0    0    0  0.00000000000E+00  0.00000000000E+00  0.14999999963E+04  0.15000000000E+04  0.10566000000E+00 0. -1.
        994   -1    0    0    0    0 -0.00000000000E+00 -0.00000000000E+00  0.11368683772E-12  0.17120000000E+03  0.17120000000E+03 0.  0.
         13    1    1    2    0    0  0.11825158961E+02  0.10325188999E+01  0.63406188704E+02  0.64507801154E+02  0.10566000000E+00 0. -1.
        994    1    1    2    0    0 -0.12946471098E+02 -0.89997608020E+00  0.16358691994E+01  0.17169897245E+03  0.17120000000E+03 0.  0.
        998    1    1    2    0    0  0.11213121363E+01 -0.13254281968E+00  0.14349579384E+04  0.14349932264E+04  0.10000000000E+02 0. -1.
</event>
<event>
 5    1  0.1574792E-008  0.2787689E+03  0.7957747E-01  0.4060309E+00
         13   -1    0    0    0    0  0.00000000000E+00  0.00000000000E+00  0.14999999963E+04  0.15000000000E+04  0.10566000000E+00 0. -1.
        994   -1    0    0    0    0 -0.00000000000E+00 -0.00000000000E+00  0.11368683772E-12  0.17120000000E+03  0.17120000000E+03 0.  0.
         13    1    1    2    0    0  0.80776527174E+02  0.13636487935E+03  0.69062788044E+03  0.70858105258E+03  0.10566000000E+00 0. -1.
        994    1    1    2    0    0 -0.22891727990E+02 -0.35597394891E+02  0.35355018654E+02  0.17986278959E+03  0.17120000000E+03 0.  0.
        998    1    1    2    0    0 -0.57884799184E+02 -0.10076748446E+03  0.77401709718E+03  0.78275615783E+03  0.10000000000E+02 0.  1.
</event>
<event>
 5    1  0.1574792E-008  0.3755737E+03  0.7957747E-01  0.3470661E+00
         13   -1    0    0    0    0  0.00000000000E+00  0.00000000000E+00  0.14999999963E+04  0.15000000000E+04  0.10566000000E+00 0. -1.
        994   -1    0    0    0    0 -0.00000000000E+00 -0.00000000000E+00  0.11368683772E-12  0.17120000000E+03  0.17120000000E+03 0.  0.
         13    1    1    2    0    0  0.12306464298E+02  0.33660022722E+02  0.11223677515E+03  0.11781999428E+03  0.10566000000E+00 0. -1.
        994    1    1    2    0    0  0.85930615582E+01  0.42369215353E+01  0.66958858194E+01  0.17159856380E+03  0.17120000000E+03 0.  0.
        998    1    1    2    0    0 -0.20899525856E+02 -0.37896944258E+02  0.13810673353E+04  0.13817814419E+04  0.10000000000E+02 0. -1.
</event>
<event>
 5    1  0.1574792E-008  0.3761203E+03  0.7957747E-01  0.3468228E+00
         13   -1    0    0    0    0  0.00000000000E+00  0.00000000000E+00  0.14999999963E+04  0.15000000000E+04  0.10566000000E+00 0.  1.
        994   -1    0    0    0    0 -0.00000000000E+00 -0.00000000000E+00  0.11368683772E-12  0.17120000000E+03  0.17120000000E+03 0.  0.
         13    1    1    2    0    0 -0.15237305483E+03  0.15604904783E+03  0.95977549175E+03  0.98424481654E+03  0.10566000000E+00 0.  1.
        994    1    1    2    0    0  0.13070582345E+03 -0.18598629649E+03  0.20789278730E+03  0.35242554643E+03  0.17120000000E+03 0.  0.
        998    1    1    2    0    0  0.21667231384E+02  0.29937248658E+02  0.33233171723E+03  0.33452963703E+03  0.10000000000E+02 0. -1.
</event>
<event>
 5    1  0.1574792E-008  0.3812502E+03  0.7957747E-01  0.3445733E+00
         13   -1    0    0    0    0  0.00000000000E+00  0.00000000000E+00  0.14999999963E+04  0.15000000000E+04  0.10566000000E+00 0.  1.
        994   -1    0    0    0    0 -0.00000000000E+00 -0.00000000000E+00  0.11368683772E-12  0.17120000000E+03  0.17120000000E+03 0.  0.
         13    1    1    2    0    0 -0.99737405412E+01  0.35921924925E+01  0.14505393283E+02  0.17966550743E+02  0.10566000000E+00 0.  1.
        994    1    1    2    0    0  0.88232367765E+01 -0.22950669547E+01  0.37801578933E+01  0.17148424544E+03  0.17120000000E+03 0.  0.
        998    1    1    2    0    0  0.11505037647E+01 -0.12971255378E+01  0.14817144451E+04  0.14817492038E+04  0.10000000000E+02 0.  1.
</event>
<event>
 5    1  0.1574792E-008  0.3852359E+03  0.7957747E-01  0.3428672E+00
         13   -1    0    0    0    0  0.00000000000E+00  0.00000000000E+00  0.14999999963E+04  0.15000000000E+04  0.10566000000E+00 0. -1.
        994   -1    0    0    0    0 -0.00000000000E+00 -0.00000000000E+00  0.11368683772E-12  0.17120000000E+03  0.17120000000E+03 0.  0.
         13    1    1    2    0    0  0.23197486317E+01  0.10282804721E+02  0.37503989481E+02  0.38957383096E+02  0.10566000000E+00 0. -1.
        994    1    1    2    0    0  0.49018752161E+01 -0.38731702435E+01  0.16413397681E+01  0.17132181363E+03  0.17120000000E+03 0.  0.
        998    1    1    2    0    0 -0.72216238478E+01 -0.64096344772E+01  0.14608546670E+04  0.14609208033E+04  0.10000000000E+02 0. -1.
</event>
<event>
 5    1  0.1574792E-008  0.3836249E+03  0.7957747E-01  0.3435525E+00
         13   -1    0    0    0    0  0.00000000000E+00  0.00000000000E+00  0.14999999963E+04  0.15000000000E+04  0.10566000000E+00 0. -1.
        994   -1    0    0    0    0 -0.00000000000E+00 -0.00000000000E+00  0.11368683772E-12  0.17120000000E+03  0.17120000000E+03 0.  0.
         13    1    1    2    0    0 -0.43743404375E+01 -0.30940671390E+02  0.11326341742E+03  0.11749499092E+03  0.10566000000E+00 0. -1.
        994    1    1    2    0    0  0.69369466995E+01  0.11403287300E+03  0.46693026212E+02  0.21104808943E+03  0.17120000000E+03 0.  0.
        998    1    1    2    0    0 -0.25626062620E+01 -0.83092201607E+02  0.13400435526E+04  0.13426569197E+04  0.10000000000E+02 0. -1.
</event>
<event>
 5    1  0.1574792E-008  0.3705502E+03  0.7957747E-01  0.3493366E+00
         13   -1    0    0    0    0  0.00000000000E+00  0.00000000000E+00  0.14999999963E+04  0.15000000000E+04  0.10566000000E+00 0.  1.
        994   -1    0    0    0    0 -0.00000000000E+00 -0.00000000000E+00  0.11368683772E-12  0.17120000000E+03  0.17120000000E+03 0.  0.
         13    1    1    2    0    0 -0.83866315952E+01 -0.35371768410E+02  0.66148644722E+02  0.75479480341E+02  0.10566000000E+00 0.  1.
        994    1    1    2    0    0  0.13549838338E+02  0.40140217282E+02  0.15201448413E+02  0.17701796292E+03  0.17120000000E+03 0.  0.
        998    1    1    2    0    0 -0.51632067426E+01 -0.47684488718E+01  0.14186499031E+04  0.14187025567E+04  0.10000000000E+02 0.  1.
</event>
<event>
 5    1  0.1574792E-008  0.3834481E+03  0.7957747E-01  0.3436281E+00
         13   -1    0    0    0    0  0.00000000000E+00  0.00000000000E+00  0.14999999963E+04  0.15000000000E+04  0.10566000000E+00 0.  1.
        994   -1    0    0    0    0 -0.00000000000E+00 -0.00000000000E+00  0.11368683772E-12  0.17120000000E+03  0.17120000000E+03 0.  0.
         13    1    1    2    0    0 -0.13571884053E+00  0.23510325608E+02  0.13798841921E+03  0.13997702966E+03  0.10566000000E+00 0.  1.
        994    1    1    2    0    0  0.78561501011E+01  0.88870550909E+01  0.28677583329E+01  0.17163438723E+03  0.17120000000E+03 0.  0.
        998    1    1    2    0    0 -0.77204312606E+01 -0.32397380699E+02  0.13591438187E+04  0.13595885831E+04  0.10000000000E+02 0.  1.
</event>
<event>
 5    1  0.1574792E-008  0.3804505E+03  0.7957747E-01  0.3449199E+00
         13   -1    0    0    0    0  0.00000000000E+00  0.00000000000E+00  0.14999999963E+04  0.15000000000E+04  0.10566000000E+00 0. -1.
        994   -1    0    0    0    0 -0.00000000000E+00 -0.00000000000E+00  0.11368683772E-12  0.17120000000E+03  0.17120000000E+03 0.  0.
         13    1    1    2    0    0  0.15976627076E+02 -0.80851743616E+01  0.38995266259E+02  0.42909959355E+02  0.10566000000E+00 0. -1.
        994    1    1    2    0    0 -0.98070200184E+01  0.16310892499E+02  0.51159409214E+01  0.17233060003E+03  0.17120000000E+03 0.  0.
        998    1    1    2    0    0 -0.61696070574E+01 -0.82257181370E+01  0.14558887891E+04  0.14559594406E+04  0.10000000000E+02 0. -1.
</event>
<event>
 5    1  0.1574792E-008  0.3833228E+03  0.7957747E-01  0.3436817E+00
         13   -1    0    0    0    0  0.00000000000E+00  0.00000000000E+00  0.14999999963E+04  0.15000000000E+04  0.10566000000E+00 0.  1.
        994   -1    0    0    0    0 -0.00000000000E+00 -0.00000000000E+00  0.11368683772E-12  0.17120000000E+03  0.17120000000E+03 0.  0.
         13    1    1    2    0    0  0.26334781357E+02  0.57995935378E+01  0.14157669628E+03  0.14412192092E+03  0.10566000000E+00 0.  1.
        994    1    1    2    0    0 -0.21025692985E+02 -0.18178091317E+01  0.39392325997E+01  0.17254084081E+03  0.17120000000E+03 0.  0.
        998    1    1    2    0    0 -0.53090883721E+01 -0.39817844060E+01  0.13544840674E+04  0.13545372383E+04  0.10000000000E+02 0.  1.
</event>
<event>
 5    1  0.1574792E-008  0.3793325E+03  0.7957747E-01  0.3454070E+00
         13   -1    0    0    0    0  0.00000000000E+00  0.00000000000E+00  0.14999999963E+04  0.15000000000E+04  0.10566000000E+00 0. -1.
        994   -1    0    0    0    0 -0.00000000000E+00 -0.00000000000E+00  0.11368683772E-12  0.17120000000E+03  0.17120000000E+03 0.  0.
         13    1    1    2    0    0 -0.10481078910E+02 -0.59947684144E+02  0.34358495069E+03  0.34893295538E+03  0.10566000000E+00 0. -1.
        994    1    1    2    0    0  0.12247530718E+02  0.52533755732E+02  0.14281646683E+02  0.18006444105E+03  0.17120000000E+03 0.  0.
        998    1    1    2    0    0 -0.17664518084E+01  0.74139284123E+01  0.11421333989E+04  0.11422026036E+04  0.10000000000E+02 0. -1.
</event>
<event>
 5    1  0.1574792E-008  0.3835127E+03  0.7957747E-01  0.3436005E+00
         13   -1    0    0    0    0  0.00000000000E+00  0.00000000000E+00  0.14999999963E+04  0.15000000000E+04  0.10566000000E+00 0. -1.
        994   -1    0    0    0    0 -0.00000000000E+00 -0.00000000000E+00  0.11368683772E-12  0.17120000000E+03  0.17120000000E+03 0.  0.
         13    1    1    2    0    0 -0.14073878775E+02 -0.14385539223E+02  0.82691401649E+02  0.85105210612E+02  0.10566000000E+00 0. -1.
        994    1    1    2    0    0  0.11252984162E+02  0.12851316680E+02  0.33352040904E+01  0.17208239183E+03  0.17120000000E+03 0.  0.
        998    1    1    2    0    0  0.28208946126E+01  0.15342225436E+01  0.14139733905E+04  0.14140123976E+04  0.10000000000E+02 0. -1.
</event>
<event>
 5    1  0.1574792E-008  0.3728147E+03  0.7957747E-01  0.3483054E+00
         13   -1    0    0    0    0  0.00000000000E+00  0.00000000000E+00  0.14999999963E+04  0.15000000000E+04  0.10566000000E+00 0.  1.
        994   -1    0    0    0    0 -0.00000000000E+00 -0.00000000000E+00  0.11368683772E-12  0.17120000000E+03  0.17120000000E+03 0.  0.
         13    1    1    2    0    0  0.59904202431E+02 -0.63728661089E+02  0.36962523201E+03  0.37983243544E+03  0.10566000000E+00 0.  1.
        994    1    1    2    0    0 -0.57662856485E+02  0.63544997687E+02  0.33456001183E+02  0.19440091503E+03  0.17120000000E+03 0.  0.
        998    1    1    2    0    0 -0.22413459460E+01  0.18366340171E+00  0.10969187631E+04  0.10969666495E+04  0.10000000000E+02 0.  0.
</event>
<event>
 5    1  0.1574792E-008  0.3825857E+03  0.7957747E-01  0.3439977E+00
         13   -1    0    0    0    0  0.00000000000E+00  0.00000000000E+00  0.14999999963E+04  0.15000000000E+04  0.10566000000E+00 0. -1.
        994   -1    0    0    0    0 -0.00000000000E+00 -0.00000000000E+00  0.11368683772E-12  0.17120000000E+03  0.17120000000E+03 0.  0.
         13    1    1    2    0    0 -0.19964158411E+02  0.90831221793E+01  0.79964877186E+02  0.82918414583E+02  0.10566000000E+00 0. -1.
        994    1    1    2    0    0  0.15866707824E+02 -0.20880050724E+02  0.51164444789E+01  0.17327246446E+03  0.17120000000E+03 0.  0.
        998    1    1    2    0    0  0.40974505879E+01  0.11796928545E+02  0.14149186746E+04  0.14150091210E+04  0.10000000000E+02 0. -1.
</event>
<event>
 5    1  0.1574792E-008  0.3801499E+03  0.7957747E-01  0.3450506E+00
         13   -1    0    0    0    0  0.00000000000E+00  0.00000000000E+00  0.14999999963E+04  0.15000000000E+04  0.10566000000E+00 0. -1.
        994   -1    0    0    0    0 -0.00000000000E+00 -0.00000000000E+00  0.11368683772E-12  0.17120000000E+03  0.17120000000E+03 0.  0.
         13    1    1    2    0    0  0.59674978122E+01  0.19651446547E+02  0.50510488557E+02  0.54526241387E+02  0.10566000000E+00 0. -1.
        994    1    1    2    0    0  0.94647863116E+01 -0.16715373563E+02  0.52913185488E+01  0.17235551614E+03  0.17120000000E+03 0.  0.
        998    1    1    2    0    0 -0.15432284124E+02 -0.29360729842E+01  0.14441981892E+04  0.14443182425E+04  0.10000000000E+02 0. -1.
</event>
<event>
 5    1  0.1574792E-008  0.3851527E+03  0.7957747E-01  0.3429025E+00
         13   -1    0    0    0    0  0.00000000000E+00  0.00000000000E+00  0.14999999963E+04  0.15000000000E+04  0.10566000000E+00 0.  1.
        994   -1    0    0    0    0 -0.00000000000E+00 -0.00000000000E+00  0.11368683772E-12  0.17120000000E+03  0.17120000000E+03 0.  0.
         13    1    1    2    0    0  0.16945777222E+02 -0.28928745249E+01  0.99730886331E+02  0.10120172400E+03  0.10566000000E+00 0.  1.
        994    1    1    2    0    0 -0.38501144425E+01  0.99918491741E+01  0.19313454985E+01  0.17154541826E+03  0.17120000000E+03 0.  0.
        998    1    1    2    0    0 -0.13095662780E+02 -0.70989746492E+01  0.13983377644E+04  0.13984528577E+04  0.10000000000E+02 0.  1.
</event>
<event>
 5    1  0.1574792E-008  0.3705221E+03  0.7957747E-01  0.3493495E+00
         13   -1    0    0    0    0  0.00000000000E+00  0.00000000000E+00  0.14999999963E+04  0.15000000000E+04  0.10566000000E+00 0. -1.
        994   -1    0    0    0    0 -0.00000000000E+00 -0.00000000000E+00  0.11368683772E-12  0.17120000000E+03  0.17120000000E+03 0.  0.
         13    1    1    2    0    0  0.65011948422E+02  0.93880717060E+02  0.43369428656E+03  0.44847618424E+03  0.10566000000E+00 0. -1.
        994    1    1    2    0    0 -0.59335261318E+02 -0.86073664569E+02  0.50542465117E+02  0.20686548709E+03  0.17120000000E+03 0.  0.
        998    1    1    2    0    0 -0.56766871045E+01 -0.78070524908E+01  0.10157632446E+04  0.10158583287E+04  0.10000000000E+02 0. -1.
</event>
<event>
 5    1  0.1574792E-008  0.3828543E+03  0.7957747E-01  0.3438824E+00
         13   -1    0    0    0    0  0.00000000000E+00  0.00000000000E+00  0.14999999963E+04  0.15000000000E+04  0.10566000000E+00 0. -1.
        994   -1    0    0    0    0 -0.00000000000E+00 -0.00000000000E+00  0.11368683772E-12  0.17120000000E+03  0.17120000000E+03 0.  0.
         13    1    1    2    0    0 -0.35353414785E+01 -0.19347867063E+02  0.71139881713E+02  0.73808756482E+02  0.10566000000E+00 0. -1.
        994    1    1    2    0    0  0.67451290013E+01  0.10817217455E+02  0.32375650916E+01  0.17170448680E+03  0.17120000000E+03 0.  0.
        998    1    1    2    0    0 -0.32097875228E+01  0.85306496079E+01  0.14256225495E+04  0.14256867567E+04  0.10000000000E+02 0. -1.
</event>
<event>
 5    1  0.1640955E-008  0.3861863E+03  0.7957747E-01  0.3424656E+00
         13   -1    0    0    0    0  0.00000000000E+00  0.00000000000E+00  0.14999999963E+04  0.15000000000E+04  0.10566000000E+00 0.  1.
        994   -1    0    0    0    0 -0.00000000000E+00 -0.00000000000E+00  0.11368683772E-12  0.17120000000E+03  0.17120000000E+03 0.  0.
         13    1    1    2    0    0 -0.22721566319E+01  0.11049680563E+02  0.59086226711E+02  0.60153565873E+02  0.10566000000E+00 0.  1.
        994    1    1    2    0    0  0.46752171772E+01 -0.13300672783E+02  0.16937181602E+01  0.17178787569E+03  0.17120000000E+03 0.  0.
        998    1    1    2    0    0 -0.24030605453E+01  0.22509922205E+01  0.14392200514E+04  0.14392585584E+04  0.10000000000E+02 0.  1.
</event>
<event>
 5    1  0.1574792E-008  0.3842989E+03  0.7957747E-01  0.3432651E+00
         13   -1    0    0    0    0  0.00000000000E+00  0.00000000000E+00  0.14999999963E+04  0.15000000000E+04  0.10566000000E+00 0.  1.
        994   -1    0    0    0    0 -0.00000000000E+00 -0.00000000000E+00  0.11368683772E-12  0.17120000000E+03  0.17120000000E+03 0.  0.
         13    1    1    2    0    0 -0.10104042714E+02 -0.10181992668E+02  0.49265066661E+02  0.51311037906E+02  0.10566000000E+00 0.  1.
        994    1    1    2    0    0  0.12003925331E+02  0.14683110659E+02  0.31651172358E+01  0.17227636498E+03  0.17120000000E+03 0.  0.
        998    1    1    2    0    0 -0.18998826169E+01 -0.45011179907E+01  0.14475698124E+04  0.14476125971E+04  0.10000000000E+02 0.  1.
</event>
<event>
 5    1  0.1574792E-008  0.3811217E+03  0.7957747E-01  0.3446289E+00
         13   -1    0    0    0    0  0.00000000000E+00  0.00000000000E+00  0.14999999963E+04  0.15000000000E+04  0.10566000000E+00 0. -1.
        994   -1    0    0    0    0 -0.00000000000E+00 -0.00000000000E+00  0.11368683772E-12  0.17120000000E+03  0.17120000000E+03 0.  0.
         13    1    1    2    0    0  0.22807223572E+02  0.84407849585E+01  0.77834141769E+02  0.81544963589E+02  0.10566000000E+00 0. -1.
        994    1    1    2    0    0 -0.22769029361E+02 -0.10848848989E+02  0.56895428784E+01  0.17314137900E+03  0.17120000000E+03 0.  0.
        998    1    1    2    0    0 -0.38194210517E-01  0.24080640308E+01  0.14164763116E+04  0.14165136574E+04  0.10000000000E+02 0. -1.
</event>
<event>
 5    1  0.1574792E-008  0.3715665E+03  0.7957747E-01  0.3488722E+00
         13   -1    0    0    0    0  0.00000000000E+00  0.00000000000E+00  0.14999999963E+04  0.15000000000E+04  0.10566000000E+00 0.  1.
        994   -1    0    0    0    0 -0.00000000000E+00 -0.00000000000E+00  0.11368683772E-12  0.17120000000E+03  0.17120000000E+03 0.  0.
         13    1    1    2    0    0  0.80705462488E+02  0.93893981669E+01  0.41193411940E+03  0.41987053048E+03  0.10566000000E+00 0.  1.
        994    1    1    2    0    0 -0.37571066384E+02 -0.24552794730E+02  0.15412283216E+02  0.17765529329E+03  0.17120000000E+03 0.  0.
        998    1    1    2    0    0 -0.43134396103E+02  0.15163396563E+02  0.10726535937E+04  0.10736741762E+04  0.10000000000E+02 0.  1.
</event>
<event>
 5    1  0.1574792E-008  0.3841597E+03  0.7957747E-01  0.3433244E+00
         13   -1    0    0    0    0  0.00000000000E+00  0.00000000000E+00  0.14999999963E+04  0.15000000000E+04  0.10566000000E+00 0.  1.
        994   -1    0    0    0    0 -0.00000000000E+00 -0.00000000000E+00  0.11368683772E-12  0.17120000000E+03  0.17120000000E+03 0.  0.
         13    1    1    2    0    0  0.12416581822E+02  0.64025787327E+01  0.45773187887E+02  0.47857710057E+02  0.10566000000E+00 0.  1.
        994    1    1    2    0    0 -0.13029176224E+02 -0.92378068495E+01  0.28895565468E+01  0.17196768896E+03  0.17120000000E+03 0.  0.
        998    1    1    2    0    0  0.61259440202E+00  0.28352281168E+01  0.14513372518E+04  0.14513746010E+04  0.10000000000E+02 0.  1.
</event>
<event>
 5    1  0.1574792E-008  0.3756903E+03  0.7957747E-01  0.3470141E+00
         13   -1    0    0    0    0  0.00000000000E+00  0.00000000000E+00  0.14999999963E+04  0.15000000000E+04  0.10566000000E+00 0. -1.
        994   -1    0    0    0    0 -0.00000000000E+00 -0.00000000000E+00  0.11368683772E-12  0.17120000000E+03  0.17120000000E+03 0.  0.
         13    1    1    2    0    0  0.14721487893E+01  0.44215368675E+02  0.16635314704E+03  0.17213525712E+03  0.10566000000E+00 0. -1.
        994    1    1    2    0    0 -0.48438653089E+02 -0.11123816167E+02  0.14747767233E+02  0.17887699415E+03  0.17120000000E+03 0.  0.
        998    1    1    2    0    0  0.46966504300E+02 -0.33091552508E+02  0.13188990820E+04  0.13201877487E+04  0.10000000000E+02 0. -1.
</event>
<event>
 5    1  0.1574792E-008  0.3836392E+03  0.7957747E-01  0.3435464E+00
         13   -1    0    0    0    0  0.00000000000E+00  0.00000000000E+00  0.14999999963E+04  0.15000000000E+04  0.10566000000E+00 0. -1.
        994   -1    0    0    0    0 -0.00000000000E+00 -0.00000000000E+00  0.11368683772E-12  0.17120000000E+03  0.17120000000E+03 0.  0.
         13    1    1    2    0    0 -0.10065206100E+02  0.22214340461E+02  0.12986486567E+03  0.13213508163E+03  0.10566000000E+00 0. -1.
        994    1    1    2    0    0  0.42633910138E+01 -0.12682982062E+02  0.28988640594E+01  0.17174655149E+03  0.17120000000E+03 0.  0.
        998    1    1    2    0    0  0.58018150862E+01 -0.95313583989E+01  0.13672362665E+04  0.13673183669E+04  0.10000000000E+02 0. -1.
</event>
<event>
 5    1  0.1574792E-008  0.4347236E+03  0.7957747E-01  0.3242776E+00
         13   -1    0    0    0    0  0.00000000000E+00  0.00000000000E+00  0.14999999963E+04  0.15000000000E+04  0.10566000000E+00 0. -1.
        994   -1    0    0    0    0 -0.00000000000E+00 -0.00000000000E+00  0.11368683772E-12  0.17120000000E+03  0.17120000000E+03 0.  0.
         13    1    1    2    0    0  0.70181060135E+02 -0.48717934512E+02  0.80095534894E+02  0.11710731924E+03  0.10566000000E+00 0. -1.
        994    1    1    2    0    0  0.85498946323E+02  0.77062038853E+01  0.85092653558E+02  0.20957016746E+03  0.17120000000E+03 0.  0.
        998    1    1    2    0    0 -0.15568000646E+03  0.41011730627E+02  0.13348118078E+04  0.13445225133E+04  0.10000000000E+02 0. -1.
</event>
<event>
 5    1  0.1574792E-008  0.3830895E+03  0.7957747E-01  0.3437816E+00
         13   -1    0    0    0    0  0.00000000000E+00  0.00000000000E+00  0.14999999963E+04  0.15000000000E+04  0.10566000000E+00 0. -1.
        994   -1    0    0    0    0 -0.00000000000E+00 -0.00000000000E+00  0.11368683772E-12  0.17120000000E+03  0.17120000000E+03 0.  0.
         13    1    1    2    0    0  0.78891928961E+01  0.13207086220E+02  0.45173895979E+02  0.47721677810E+02  0.10566000000E+00 0. -1.
        994    1    1    2    0    0 -0.77129804477E+01 -0.66143466398E+01  0.29233597181E+01  0.17152616617E+03  0.17120000000E+03 0.  0.
        998    1    1    2    0    0 -0.17621244843E+00 -0.65927395801E+01  0.14519027406E+04  0.14519521560E+04  0.10000000000E+02 0. -1.
</event>
<event>
 5    1  0.1574792E-008  0.3822527E+03  0.7957747E-01  0.3441408E+00
         13   -1    0    0    0    0  0.00000000000E+00  0.00000000000E+00  0.14999999963E+04  0.15000000000E+04  0.10566000000E+00 0.  1.
        994   -1    0    0    0    0 -0.00000000000E+00 -0.00000000000E+00  0.11368683772E-12  0.17120000000E+03  0.17120000000E+03 0.  0.
         13    1    1    2    0    0 -0.54730234841E+01  0.26824389336E+02  0.12168095976E+03  0.12472276850E+03  0.10566000000E+00 0.  1.
        994    1    1    2    0    0  0.32212888753E+01 -0.19105141144E+02  0.42468941134E+01  0.17234517466E+03  0.17120000000E+03 0.  0.
        998    1    1    2    0    0  0.22517346088E+01 -0.77192481916E+01  0.13740721424E+04  0.13741320568E+04  0.10000000000E+02 0.  1.
</event>
<event>
 5    1  0.1574792E-008  0.3692329E+03  0.7957747E-01  0.3499424E+00
         13   -1    0    0    0    0  0.00000000000E+00  0.00000000000E+00  0.14999999963E+04  0.15000000000E+04  0.10566000000E+00 0. -1.
        994   -1    0    0    0    0 -0.00000000000E+00 -0.00000000000E+00  0.11368683772E-12  0.17120000000E+03  0.17120000000E+03 0.  0.
         13    1    1    2    0    0 -0.18978382924E+02 -0.17310587852E+02  0.28936634102E+02  0.38693351204E+02  0.10566000000E+00 0. -1.
        994    1    1    2    0    0  0.35577657802E+02  0.11615270357E+02  0.14542137977E+02  0.17584538099E+03  0.17120000000E+03 0.  0.
        998    1    1    2    0    0 -0.16599274877E+02  0.56953174952E+01  0.14565212242E+04  0.14566612678E+04  0.10000000000E+02 0. -1.
</event>
<event>
 5    1  0.1574792E-008  0.3832056E+03  0.7957747E-01  0.3437318E+00
         13   -1    0    0    0    0  0.00000000000E+00  0.00000000000E+00  0.14999999963E+04  0.15000000000E+04  0.10566000000E+00 0.  1.
        994   -1    0    0    0    0 -0.00000000000E+00 -0.00000000000E+00  0.11368683772E-12  0.17120000000E+03  0.17120000000E+03 0.  0.
         13    1    1    2    0    0 -0.34255574968E+02  0.31931942515E+01  0.17092201729E+03  0.17435018803E+03  0.10566000000E+00 0.  1.
        994    1    1    2    0    0  0.60839660524E+02  0.10771004864E+02  0.15255579366E+02  0.18264624699E+03  0.17120000000E+03 0.  0.
        998    1    1    2    0    0 -0.26584085556E+02 -0.13964199116E+02  0.13138223996E+04  0.13142035650E+04  0.10000000000E+02 0.  1.
</event>
<event>
 5    1  0.1574792E-008  0.3691175E+03  0.7957747E-01  0.3499956E+00
         13   -1    0    0    0    0  0.00000000000E+00  0.00000000000E+00  0.14999999963E+04  0.15000000000E+04  0.10566000000E+00 0. -1.
        994   -1    0    0    0    0 -0.00000000000E+00 -0.00000000000E+00  0.11368683772E-12  0.17120000000E+03  0.17120000000E+03 0.  0.
         13    1    1    2    0    0  0.17619181904E+02 -0.93346679530E+01  0.15790884959E+02  0.25434913182E+02  0.10566000000E+00 0. -1.
        994    1    1    2    0    0 -0.24109347359E+02  0.92906959688E+01  0.12049823464E+02  0.17355752910E+03  0.17120000000E+03 0.  0.
        998    1    1    2    0    0  0.64901654551E+01  0.43971984218E-01  0.14721592879E+04  0.14722075577E+04  0.10000000000E+02 0. -1.
</event>
<event>
 5    1  0.1574792E-008  0.3832661E+03  0.7957747E-01  0.3437059E+00
         13   -1    0    0    0    0  0.00000000000E+00  0.00000000000E+00  0.14999999963E+04  0.15000000000E+04  0.10566000000E+00 0.  1.
        994   -1    0    0    0    0 -0.00000000000E+00 -0.00000000000E+00  0.11368683772E-12  0.17120000000E+03  0.17120000000E+03 0.  0.
         13    1    1    2    0    0 -0.12275244819E+02  0.17332976583E+02  0.90826765523E+02  0.93277147319E+02  0.10566000000E+00 0.  1.
        994    1    1    2    0    0 -0.59738335645E+00 -0.14589241087E+02  0.31988612548E+01  0.17185131811E+03  0.17120000000E+03 0.  0.
        998    1    1    2    0    0  0.12872628176E+02 -0.27437354956E+01  0.14059743695E+04  0.14060715346E+04  0.10000000000E+02 0.  1.
</event>
<event>
 5    1  0.1574792E-008  0.3762771E+03  0.7957747E-01  0.3467531E+00
         13   -1    0    0    0    0  0.00000000000E+00  0.00000000000E+00  0.14999999963E+04  0.15000000000E+04  0.10566000000E+00 0. -1.
        994   -1    0    0    0    0 -0.00000000000E+00 -0.00000000000E+00  0.11368683772E-12  0.17120000000E+03  0.17120000000E+03 0.  0.
         13    1    1    2    0    0  0.63438070243E+02  0.22052684452E+02  0.21242673343E+03  0.22279101841E+03  0.10566000000E+00 0. -1.
        994    1    1    2    0    0  0.35887796025E+02 -0.18125515538E+02  0.20097916285E+02  0.17700235720E+03  0.17120000000E+03 0.  0.
        998    1    1    2    0    0 -0.99325866268E+02 -0.39271689144E+01  0.12674753466E+04  0.12714066244E+04  0.10000000000E+02 0. -1.
</event>
<event>
 5    1  0.1574792E-008  0.3840006E+03  0.7957747E-01  0.3433922E+00
         13   -1    0    0    0    0  0.00000000000E+00  0.00000000000E+00  0.14999999963E+04  0.15000000000E+04  0.10566000000E+00 0. -1.
        994   -1    0    0    0    0 -0.00000000000E+00 -0.00000000000E+00  0.11368683772E-12  0.17120000000E+03  0.17120000000E+03 0.  0.
         13    1    1    2    0    0  0.21343164894E+02 -0.13543782678E+02  0.14819781756E+03  0.15033818221E+03  0.10566000000E+00 0. -1.
        994    1    1    2    0    0 -0.17300061391E+02  0.36642126025E+01  0.31595692596E+01  0.17213988921E+03  0.17120000000E+03 0.  0.
        998    1    1    2    0    0 -0.40431035034E+01  0.98795700754E+01  0.13486426095E+04  0.13487219286E+04  0.10000000000E+02 0.  0.
</event>
<event>
 5    1  0.1574792E-008  0.3791023E+03  0.7957747E-01  0.3455076E+00
         13   -1    0    0    0    0  0.00000000000E+00  0.00000000000E+00  0.14999999963E+04  0.15000000000E+04  0.10566000000E+00 0. -1.
        994   -1    0    0    0    0 -0.00000000000E+00 -0.00000000000E+00  0.11368683772E-12  0.17120000000E+03  0.17120000000E+03 0.  0.
         13    1    1    2    0    0 -0.18184872394E+02  0.37549922633E+01  0.34502012622E+02  0.39181495504E+02  0.10566000000E+00 0. -1.
        994    1    1    2    0    0  0.18782292340E+02 -0.27495532390E+02  0.83135112164E+01  0.17460622347E+03  0.17120000000E+03 0.  0.
        998    1    1    2    0    0 -0.59741994645E+00  0.23740540127E+02  0.14571844724E+04  0.14574122810E+04  0.10000000000E+02 0. -1.
</event>
<event>
 5    1  0.1574792E-008  0.3724794E+03  0.7957747E-01  0.3484573E+00
         13   -1    0    0    0    0  0.00000000000E+00  0.00000000000E+00  0.14999999963E+04  0.15000000000E+04  0.10566000000E+00 0. -1.
        994   -1    0    0    0    0 -0.00000000000E+00 -0.00000000000E+00  0.11368683772E-12  0.17120000000E+03  0.17120000000E+03 0.  0.
         13    1    1    2    0    0  0.17563168673E+02  0.55732415149E+02  0.19063854490E+03  0.19939316176E+03  0.10566000000E+00 0. -1.
        994    1    1    2    0    0 -0.13673017968E+02 -0.51736282278E+02  0.17860866886E+02  0.18025549892E+03  0.17120000000E+03 0.  0.
        998    1    1    2    0    0 -0.38901507043E+01 -0.39961328704E+01  0.12915005845E+04  0.12915513393E+04  0.10000000000E+02 0. -1.
</event>
<event>
 5    1  0.1574792E-008  0.3860012E+03  0.7957747E-01  0.3425437E+00
         13   -1    0    0    0    0  0.00000000000E+00  0.00000000000E+00  0.14999999963E+04  0.15000000000E+04  0.10566000000E+00 0.  1.
        994   -1    0    0    0    0 -0.00000000000E+00 -0.00000000000E+00  0.11368683772E-12  0.17120000000E+03  0.17120000000E+03 0.  0.
         13    1    1    2    0    0 -0.12272384876E+02 -0.30740670260E+01  0.70762413169E+02  0.71884571364E+02  0.10566000000E+00 0.  1.
        994    1    1    2    0    0  0.76854946088E+01  0.88183839090E+01  0.15825553537E+01  0.17160645443E+03  0.17120000000E+03 0.  0.
        998    1    1    2    0    0  0.45868902676E+01 -0.57443168830E+01  0.14276550278E+04  0.14277089742E+04  0.10000000000E+02 0.  1.
</event>
<event>
 5    1  0.1574792E-008  0.3851027E+03  0.7957747E-01  0.3429237E+00
         13   -1    0    0    0    0  0.00000000000E+00  0.00000000000E+00  0.14999999963E+04  0.15000000000E+04  0.10566000000E+00 0. -1.
        994   -1    0    0    0    0 -0.00000000000E+00 -0.00000000000E+00  0.11368683772E-12  0.17120000000E+03  0.17120000000E+03 0.  0.
         13    1    1    2    0    0  0.77225186319E+01  0.98739042618E+01  0.51057367509E+02  0.52573731277E+02  0.10566000000E+00 0. -1.
        994    1    1    2    0    0 -0.80645895939E+01  0.13387213954E+01  0.17988968111E+01  0.17140450930E+03  0.17120000000E+03 0.  0.
        998    1    1    2    0    0  0.34207096200E+00 -0.11212625657E+02  0.14471437320E+04  0.14472217594E+04  0.10000000000E+02 0. -1.
</event>
<event>
 5    1  0.1574792E-008  0.3815594E+03  0.7957747E-01  0.3444396E+00
         13   -1    0    0    0    0  0.00000000000E+00  0.00000000000E+00  0.14999999963E+04  0.15000000000E+04  0.10566000000E+00 0. -1.
        994   -1    0    0    0    0 -0.00000000000E+00 -0.00000000000E+00  0.11368683772E-12  0.17120000000E+03  0.17120000000E+03 0.  0.
         13    1    1    2    0    0 -0.10477447337E+02 -0.14765904766E+02  0.53878626952E+02  0.56839479700E+02  0.10566000000E+00 0. -1.
        994    1    1    2    0    0 -0.23950500117E+02 -0.27809260152E+01  0.52838922545E+01  0.17297028509E+03  0.17120000000E+03 0.  0.
        998    1    1    2    0    0  0.34427947453E+02  0.17546830781E+02  0.14408374771E+04  0.14413902352E+04  0.10000000000E+02 0. -1.
</event>
<event>
 5    1  0.1574792E-008  0.2076494E+03  0.7957747E-01  0.4903777E+00
         13   -1    0    0    0    0  0.00000000000E+00  0.00000000000E+00  0.14999999963E+04  0.15000000000E+04  0.10566000000E+00 0. -1.
        994   -1    0    0    0    0 -0.00000000000E+00 -0.00000000000E+00  0.11368683772E-12  0.17120000000E+03  0.17120000000E+03 0.  0.
         13    1    1    2    0    0 -0.73634594074E+02  0.83549498966E+02  0.58133061757E+02  0.12562657464E+03  0.10566000000E+00 0. -1.
        994    1    1    2    0    0  0.86501612160E+02 -0.80142761411E+02  0.15676916279E+03  0.26036781966E+03  0.17120000000E+03 0.  0.
        998    1    1    2    0    0 -0.12867018085E+02 -0.34067375556E+01  0.12850977717E+04  0.12852056057E+04  0.10000000000E+02 0. -1.
</event>
<event>
 5    1  0.1574792E-008  0.3703290E+03  0.7957747E-01  0.3494380E+00
         13   -1    0    0    0    0  0.00000000000E+00  0.00000000000E+00  0.14999999963E+04  0.15000000000E+04  0.10566000000E+00 0.  1.
        994   -1    0    0    0    0 -0.00000000000E+00 -0.00000000000E+00  0.11368683772E-12  0.17120000000E+03  0.17120000000E+03 0.  0.
         13    1    1    2    0    0  0.30653072767E+02  0.30182403815E+02  0.92351726926E+02  0.10187954162E+03  0.10566000000E+00 0.  1.
        994    1    1    2    0    0 -0.42186371450E+02 -0.20836732490E+02  0.16782389156E+02  0.17833941780E+03  0.17120000000E+03 0.  0.
        998    1    1    2    0    0  0.11533298683E+02 -0.93456713251E+01  0.13908658802E+04  0.13909810406E+04  0.10000000000E+02 0.  1.
</event>
<event>
 5    1  0.1574792E-008  0.3831437E+03  0.7957747E-01  0.3437583E+00
         13   -1    0    0    0    0  0.00000000000E+00  0.00000000000E+00  0.14999999963E+04  0.15000000000E+04  0.10566000000E+00 0.  1.
        994   -1    0    0    0    0 -0.00000000000E+00 -0.00000000000E+00  0.11368683772E-12  0.17120000000E+03  0.17120000000E+03 0.  0.
         13    1    1    2    0    0  0.18948039196E+02 -0.30278569411E+02  0.21226504855E+03  0.21524934832E+03  0.10566000000E+00 0.  1.
        994    1    1    2    0    0 -0.12788676545E+02  0.36959702671E+02  0.76317528438E+01  0.17577614605E+03  0.17120000000E+03 0.  0.
        998    1    1    2    0    0 -0.61593626511E+01 -0.66811332601E+01  0.12801031949E+04  0.12801745056E+04  0.10000000000E+02 0.  1.
</event>
<event>
 5    1  0.1574792E-008  0.3721749E+03  0.7957747E-01  0.3485955E+00
         13   -1    0    0    0    0  0.00000000000E+00  0.00000000000E+00  0.14999999963E+04  0.15000000000E+04  0.10566000000E+00 0.  1.
        994   -1    0    0    0    0 -0.00000000000E+00 -0.00000000000E+00  0.11368683772E-12  0.17120000000E+03  0.17120000000E+03 0.  0.
         13    1    1    2    0    0 -0.68158854460E+02  0.30113841205E+02  0.42917971299E+03  0.43560040184E+03  0.10566000000E+00 0.  1.
        994    1    1    2    0    0  0.22447801884E+02  0.82383195145E+01  0.10101441447E+02  0.17315672911E+03  0.17120000000E+03 0.  0.
        998    1    1    2    0    0  0.45711052577E+02 -0.38352160719E+02  0.10607188418E+04  0.10624428690E+04  0.10000000000E+02 0.  1.
</event>
<event>
 5    1  0.1574792E-008  0.3844114E+03  0.7957747E-01  0.3432172E+00
         13   -1    0    0    0    0  0.00000000000E+00  0.00000000000E+00  0.14999999963E+04  0.15000000000E+04  0.10566000000E+00 0.  1.
        994   -1    0    0    0    0 -0.00000000000E+00 -0.00000000000E+00  0.11368683772E-12  0.17120000000E+03  0.17120000000E+03 0.  0.
         13    1    1    2    0    0  0.11967709896E+02 -0.85896693151E+01  0.57044082333E+02  0.58915592098E+02  0.10566000000E+00 0.  1.
        994    1    1    2    0    0 -0.34016313404E+01  0.70429538236E+01  0.21242353297E+01  0.17139173454E+03  0.17120000000E+03 0.  0.
        998    1    1    2    0    0 -0.85660785557E+01  0.15467154915E+01  0.14408316786E+04  0.14408926734E+04  0.10000000000E+02 0.  1.
</event>
<event>
 5    1  0.1574792E-008  0.3753864E+03  0.7957747E-01  0.3471496E+00
         13   -1    0    0    0    0  0.00000000000E+00  0.00000000000E+00  0.14999999963E+04  0.15000000000E+04  0.10566000000E+00 0.  1.
        994   -1    0    0    0    0 -0.00000000000E+00 -0.00000000000E+00  0.11368683772E-12  0.17120000000E+03  0.17120000000E+03 0.  0.
         13    1    1    2    0    0 -0.47010783829E+02 -0.13794351795E+02  0.80632099188E+02  0.94349586757E+02  0.10566000000E+00 0.  1.
        994    1    1    2    0    0  0.37205846037E+02  0.89691017937E+01  0.19053136974E+02  0.17645730870E+03  0.17120000000E+03 0.  0.
        998    1    1    2    0    0  0.98049377925E+01  0.48252500009E+01  0.14003147601E+04  0.14003931045E+04  0.10000000000E+02 0.  1.
</event>
<event>
 5    1  0.1574792E-008  0.3724967E+03  0.7957747E-01  0.3484495E+00
         13   -1    0    0    0    0  0.00000000000E+00  0.00000000000E+00  0.14999999963E+04  0.15000000000E+04  0.10566000000E+00 0.  1.
        994   -1    0    0    0    0 -0.00000000000E+00 -0.00000000000E+00  0.11368683772E-12  0.17120000000E+03  0.17120000000E+03 0.  0.
         13    1    1    2    0    0  0.21662034346E+01  0.67870835869E+02  0.24149179013E+03  0.25085740704E+03  0.10566000000E+00 0.  1.
        994    1    1    2    0    0  0.19431617440E+02 -0.68695633579E+02  0.25649479105E+02  0.18725387475E+03  0.17120000000E+03 0.  0.
        998    1    1    2    0    0 -0.21597820875E+02  0.82479770978E+00  0.12328587270E+04  0.12330887182E+04  0.10000000000E+02 0.  1.
</event>
<event>
 5    1  0.1574792E-008  0.4072078E+03  0.7957747E-01  0.3340622E+00
         13   -1    0    0    0    0  0.00000000000E+00  0.00000000000E+00  0.14999999963E+04  0.15000000000E+04  0.10566000000E+00 0. -1.
        994   -1    0    0    0    0 -0.00000000000E+00 -0.00000000000E+00  0.11368683772E-12  0.17120000000E+03  0.17120000000E+03 0.  0.
         13    1    1    2    0    0 -0.10760725054E+03  0.85291467509E+02  0.43690244754E+03  0.45797130328E+03  0.10566000000E+00 0. -1.
        994    1    1    2    0    0  0.40634285866E+02  0.34909707432E+02  0.43824961135E+02  0.18466158258E+03  0.17120000000E+03 0.  0.
        998    1    1    2    0    0  0.66972964677E+02 -0.12020117494E+03  0.10192725876E+04  0.10285671141E+04  0.10000000000E+02 0. -1.
</event>
<event>
 5    1  0.1574792E-008  0.3797738E+03  0.7957747E-01  0.3452144E+00
         13   -1    0    0    0    0  0.00000000000E+00  0.00000000000E+00  0.14999999963E+04  0.15000000000E+04  0.10566000000E+00 0. -1.
        994   -1    0    0    0    0 -0.00000000000E+00 -0.00000000000E+00  0.11368683772E-12  0.17120000000E+03  0.17120000000E+03 0.  0.
         13    1    1    2    0    0 -0.50758558049E+01 -0.10173451570E+02  0.13260362702E+02  0.17467450072E+02  0.10566000000E+00 0. -1.
        994    1    1    2    0    0 -0.46646078225E+01  0.15196637808E+02  0.50932121659E+01  0.17201185185E+03  0.17120000000E+03 0.  0.
        998    1    1    2    0    0  0.97404636274E+01 -0.50231862384E+01  0.14816464214E+04  0.14817206981E+04  0.10000000000E+02 0. -1.
</event>
<event>
 5    1  0.1860281E-008  0.3858656E+03  0.7957747E-01  0.3426010E+00
         13   -1    0    0    0    0  0.00000000000E+00  0.00000000000E+00  0.14999999963E+04  0.15000000000E+04  0.10566000000E+00 0.  1.
        994   -1    0    0    0    0 -0.00000000000E+00 -0.00000000000E+00  0.11368683772E-12  0.17120000000E+03  0.17120000000E+03 0.  0.
         13    1    1    2    0    0  0.20970422992E+01 -0.11277801864E+02  0.53762423042E+02  0.54972681367E+02  0.10566000000E+00 0.  1.
        994    1    1    2    0    0 -0.45930805383E+00  0.12093986754E+02  0.16815203714E+01  0.17163549455E+03  0.17120000000E+03 0.  0.
        998    1    1    2    0    0 -0.16377342454E+01 -0.81618488979E+00  0.14445560529E+04  0.14445918241E+04  0.10000000000E+02 0.  1.
</event>
<event>
 5    1  0.1574792E-008  0.3752210E+03  0.7957747E-01  0.3472235E+00
         13   -1    0    0    0    0  0.00000000000E+00  0.00000000000E+00  0.14999999963E+04  0.15000000000E+04  0.10566000000E+00 0. -1.
        994   -1    0    0    0    0 -0.00000000000E+00 -0.00000000000E+00  0.11368683772E-12  0.17120000000E+03  0.17120000000E+03 0.  0.
         13    1    1    2    0    0  0.57009926429E+01 -0.39928888405E+02  0.13332872805E+03  0.13929600976E+03  0.10566000000E+00 0. -1.
        994    1    1    2    0    0 -0.54070812356E+01  0.48011070175E+01  0.67429337680E+01  0.17148525975E+03  0.17120000000E+03 0.  0.
        998    1    1    2    0    0 -0.29391140730E+00  0.35127781387E+02  0.13599283345E+04  0.13604187305E+04  0.10000000000E+02 0. -1.
</event>
<event>
 5    1  0.1574792E-008  0.3798736E+03  0.7957747E-01  0.3451709E+00
         13   -1    0    0    0    0  0.00000000000E+00  0.00000000000E+00  0.14999999963E+04  0.15000000000E+04  0.10566000000E+00 0. -1.
        994   -1    0    0    0    0 -0.00000000000E+00 -0.00000000000E+00  0.11368683772E-12  0.17120000000E+03  0.17120000000E+03 0.  0.
         13    1    1    2    0    0  0.99414945095E+01  0.56302700378E+01  0.13550610544E+02  0.17724656949E+02  0.10566000000E+00 0. -1.
        994    1    1    2    0    0 -0.49244519852E+01 -0.18750813094E+02  0.54549252468E+01  0.17238050768E+03  0.17120000000E+03 0.  0.
        998    1    1    2    0    0 -0.50170425243E+01  0.13120543056E+02  0.14809944605E+04  0.14810948354E+04  0.10000000000E+02 0. -1.
</event>
<event>
 5    1  0.1574792E-008  0.3843628E+03  0.7957747E-01  0.3432379E+00
         13   -1    0    0    0    0  0.00000000000E+00  0.00000000000E+00  0.14999999963E+04  0.15000000000E+04  0.10566000000E+00 0. -1.
        994   -1    0    0    0    0 -0.00000000000E+00 -0.00000000000E+00  0.11368683772E-12  0.17120000000E+03  0.17120000000E+03 0.  0.
         13    1    1    2    0    0  0.11307453667E+02  0.55418369160E+01  0.39097748801E+02  0.41075729941E+02  0.10566000000E+00 0. -1.
        994    1    1    2    0    0 -0.13930836469E+02 -0.63332469113E+01  0.27189149706E+01  0.17190407418E+03  0.17120000000E+03 0.  0.
        998    1    1    2    0    0  0.26233828015E+01  0.79140999535E+00  0.14581833325E+04  0.14582201959E+04  0.10000000000E+02 0. -1.
</event>
<event>
 5    1  0.1574792E-008  0.3697634E+03  0.7957747E-01  0.3496979E+00
         13   -1    0    0    0    0  0.00000000000E+00  0.00000000000E+00  0.14999999963E+04  0.15000000000E+04  0.10566000000E+00 0. -1.
        994   -1    0    0    0    0 -0.00000000000E+00 -0.00000000000E+00  0.11368683772E-12  0.17120000000E+03  0.17120000000E+03 0.  0.
         13    1    1    2    0    0 -0.75330503974E+02  0.32194851071E+01  0.41963041236E+03  0.42635049438E+03  0.10566000000E+00 0. -1.
        994    1    1    2    0    0  0.37902271280E+01 -0.97821400501E+01  0.97737093073E+01  0.17179936402E+03  0.17120000000E+03 0.  0.
        998    1    1    2    0    0  0.71540276846E+02  0.65626549430E+01  0.10705958746E+04  0.10730501416E+04  0.10000000000E+02 0. -1.
</event>
<event>
 5    1  0.1574792E-008  0.3849929E+03  0.7957747E-01  0.3429702E+00
         13   -1    0    0    0    0  0.00000000000E+00  0.00000000000E+00  0.14999999963E+04  0.15000000000E+04  0.10566000000E+00 0. -1.
        994   -1    0    0    0    0 -0.00000000000E+00 -0.00000000000E+00  0.11368683772E-12  0.17120000000E+03  0.17120000000E+03 0.  0.
         13    1    1    2    0    0 -0.12948983230E+02 -0.90081937519E+01  0.69856642832E+02  0.71615539049E+02  0.10566000000E+00 0. -1.
        994    1    1    2    0    0  0.23207712561E+02  0.83376780635E+01  0.36361200938E+01  0.17300513335E+03  0.17120000000E+03 0.  0.
        998    1    1    2    0    0 -0.10258729331E+02  0.67051568845E+00  0.14265072334E+04  0.14265793276E+04  0.10000000000E+02 0. -1.
</event>
<event>
 5    1  0.1574792E-008  0.3816470E+03  0.7957747E-01  0.3444018E+00
         13   -1    0    0    0    0  0.00000000000E+00  0.00000000000E+00  0.14999999963E+04  0.15000000000E+04  0.10566000000E+00 0. -1.
        994   -1    0    0    0    0 -0.00000000000E+00 -0.00000000000E+00  0.11368683772E-12  0.17120000000E+03  0.17120000000E+03 0.  0.
         13    1    1    2    0    0 -0.13617791861E+03 -0.63187457093E+01  0.78697185048E+03  0.79869209128E+03  0.10566000000E+00 0. -1.
        994    1    1    2    0    0  0.15646601160E+03  0.13555274408E+02  0.90189466503E+02  0.24921664896E+03  0.17120000000E+03 0.  0.
        998    1    1    2    0    0 -0.20288092984E+02 -0.72365286991E+01  0.62283867930E+03  0.62329125976E+03  0.10000000000E+02 0.  1.
</event>
<event>
 5    1  0.1574792E-008  0.3836642E+03  0.7957747E-01  0.3435357E+00
         13   -1    0    0    0    0  0.00000000000E+00  0.00000000000E+00  0.14999999963E+04  0.15000000000E+04  0.10566000000E+00 0.  1.
        994   -1    0    0    0    0 -0.00000000000E+00 -0.00000000000E+00  0.11368683772E-12  0.17120000000E+03  0.17120000000E+03 0.  0.
         13    1    1    2    0    0  0.12993347679E+02  0.23171647547E+02  0.13084865239E+03  0.13351828837E+03  0.10566000000E+00 0.  1.
        994    1    1    2    0    0 -0.12410242716E+02 -0.35690556778E+02  0.70251619314E+01  0.17546117197E+03  0.17120000000E+03 0.  0.
        998    1    1    2    0    0 -0.58310496246E+00  0.12518909230E+02  0.13621261820E+04  0.13622205397E+04  0.10000000000E+02 0.  1.
</event>
<event>
 5    1  0.1574792E-008  0.3783266E+03  0.7957747E-01  0.3458477E+00
         13   -1    0    0    0    0  0.00000000000E+00  0.00000000000E+00  0.14999999963E+04  0.15000000000E+04  0.10566000000E+00 0.  1.
        994   -1    0    0    0    0 -0.00000000000E+00 -0.00000000000E+00  0.11368683772E-12  0.17120000000E+03  0.17120000000E+03 0.  0.
         13    1    1    2    0    0 -0.97081117188E+01  0.31023762524E+02  0.98161732435E+02  0.10340434301E+03  0.10566000000E+00 0.  1.
        994    1    1    2    0    0  0.16666952643E+02 -0.29154555078E+02  0.87806021765E+01  0.17468346907E+03  0.17120000000E+03 0.  0.
        998    1    1    2    0    0 -0.69588409238E+01 -0.18692074463E+01  0.13930576617E+04  0.13931121879E+04  0.10000000000E+02 0.  1.
</event>
<event>
 5    1  0.1574792E-008  0.3841528E+03  0.7957747E-01  0.3433273E+00
         13   -1    0    0    0    0  0.00000000000E+00  0.00000000000E+00  0.14999999963E+04  0.15000000000E+04  0.10566000000E+00 0. -1.
        994   -1    0    0    0    0 -0.00000000000E+00 -0.00000000000E+00  0.11368683772E-12  0.17120000000E+03  0.17120000000E+03 0.  0.
         13    1    1    2    0    0  0.11370316142E+02 -0.18948376414E+02  0.12541163132E+03  0.12734368257E+03  0.10566000000E+00 0. -1.
        994    1    1    2    0    0 -0.84658901175E+01  0.28470509117E+01  0.23144695104E+01  0.17144845804E+03  0.17120000000E+03 0.  0.
        998    1    1    2    0    0 -0.29044260249E+01  0.16101325503E+02  0.13722738955E+04  0.13724078594E+04  0.10000000000E+02 0. -1.
</event>
<event>
 5    1  0.1574792E-008  0.3771416E+03  0.7957747E-01  0.3463700E+00
         13   -1    0    0    0    0  0.00000000000E+00  0.00000000000E+00  0.14999999963E+04  0.15000000000E+04  0.10566000000E+00 0. -1.
        994   -1    0    0    0    0 -0.00000000000E+00 -0.00000000000E+00  0.11368683772E-12  0.17120000000E+03  0.17120000000E+03 0.  0.
         13    1    1    2    0    0  0.40793152549E+02 -0.76387532866E+02  0.37475396597E+03  0.38462927950E+03  0.10566000000E+00 0. -1.
        994    1    1    2    0    0 -0.85947682426E+02  0.88547819108E+02  0.58832349697E+02  0.21908538462E+03  0.17120000000E+03 0.  0.
        998    1    1    2    0    0  0.45154529877E+02 -0.12160286242E+02  0.10664136806E+04  0.10674853359E+04  0.10000000000E+02 0. -1.
</event>
<event>
 5    1  0.1574792E-008  0.3775267E+03  0.7957747E-01  0.3461999E+00
         13   -1    0    0    0    0  0.00000000000E+00  0.00000000000E+00  0.14999999963E+04  0.15000000000E+04  0.10566000000E+00 0. -1.
        994   -1    0    0    0    0 -0.00000000000E+00 -0.00000000000E+00  0.11368683772E-12  0.17120000000E+03  0.17120000000E+03 0.  0.
         13    1    1    2    0    0  0.21374906549E+02  0.37311922323E+02  0.23017214903E+03  0.23415442668E+03  0.10566000000E+00 0. -1.
        994    1    1    2    0    0  0.80000729996E+01  0.13601108221E+02  0.62265679055E+01  0.17203837206E+03  0.17120000000E+03 0.  0.
        998    1    1    2    0    0 -0.29374979549E+02 -0.50913030544E+02  0.12636012793E+04  0.12650072013E+04  0.10000000000E+02 0. -1.
</event>
<event>
 5    1  0.1574792E-008  0.3751361E+03  0.7957747E-01  0.3472615E+00
         13   -1    0    0    0    0  0.00000000000E+00  0.00000000000E+00  0.14999999963E+04  0.15000000000E+04  0.10566000000E+00 0.  1.
        994   -1    0    0    0    0 -0.00000000000E+00 -0.00000000000E+00  0.11368683772E-12  0.17120000000E+03  0.17120000000E+03 0.  0.
         13    1    1    2    0    0 -0.24201136386E+02  0.11047022850E+02  0.19270140727E+02  0.32849371438E+02  0.10566000000E+00 0.  1.
        994    1    1    2    0    0  0.35554060094E+02 -0.12916391107E+02  0.18792228131E+02  0.17633352542E+03  0.17120000000E+03 0.  0.
        998    1    1    2    0    0 -0.11352923708E+02  0.18693682577E+01  0.14619376274E+04  0.14620171031E+04  0.10000000000E+02 0.  1.
</event>
<event>
 5    1  0.1574792E-008  0.3824329E+03  0.7957747E-01  0.3440633E+00
         13   -1    0    0    0    0  0.00000000000E+00  0.00000000000E+00  0.14999999963E+04  0.15000000000E+04  0.10566000000E+00 0. -1.
        994   -1    0    0    0    0 -0.00000000000E+00 -0.00000000000E+00  0.11368683772E-12  0.17120000000E+03  0.17120000000E+03 0.  0.
         13    1    1    2    0    0 -0.94771429476E+01 -0.79830811227E+01  0.25897798667E+02  0.28709806033E+02  0.10566000000E+00 0. -1.
        994    1    1    2    0    0 -0.27218347116E+01  0.56037007947E+01  0.30387527376E+01  0.17134025757E+03  0.17120000000E+03 0.  0.
        998    1    1    2    0    0  0.12198977659E+02  0.23793803280E+01  0.14710634449E+04  0.14711499364E+04  0.10000000000E+02 0. -1.
</event>
<event>
 5    1  0.1574792E-008  0.3831993E+03  0.7957747E-01  0.3437345E+00
         13   -1    0    0    0    0  0.00000000000E+00  0.00000000000E+00  0.14999999963E+04  0.15000000000E+04  0.10566000000E+00 0. -1.
        994   -1    0    0    0    0 -0.00000000000E+00 -0.00000000000E+00  0.11368683772E-12  0.17120000000E+03  0.17120000000E+03 0.  0.
         13    1    1    2    0    0 -0.16569087064E+01 -0.25354536287E+02  0.14286872632E+03  0.14511058535E+03  0.10566000000E+00 0. -1.
        994    1    1    2    0    0  0.43615316028E+01  0.22074716296E+00  0.25898954547E+01  0.17127527330E+03  0.17120000000E+03 0.  0.
        998    1    1    2    0    0 -0.27046228964E+01  0.25133789124E+02  0.13545413745E+04  0.13548141413E+04  0.10000000000E+02 0. -1.
</event>
<event>
 5    1  0.1574792E-008  0.3774731E+03  0.7957747E-01  0.3462235E+00
         13   -1    0    0    0    0  0.00000000000E+00  0.00000000000E+00  0.14999999963E+04  0.15000000000E+04  0.10566000000E+00 0.  1.
        994   -1    0    0    0    0 -0.00000000000E+00 -0.00000000000E+00  0.11368683772E-12  0.17120000000E+03  0.17120000000E+03 0.  0.
         13    1    1    2    0    0 -0.29654449012E+02  0.72265479174E+02  0.42176809475E+03  0.42894058183E+03  0.10566000000E+00 0.  1.
        994    1    1    2    0    0  0.41010669298E+02 -0.63317149160E+02  0.24845634019E+02  0.18872647378E+03  0.17120000000E+03 0.  0.
        998    1    1    2    0    0 -0.11356220285E+02 -0.89483300139E+01  0.10533862675E+04  0.10535329444E+04  0.10000000000E+02 0. -1.
</event>
<event>
 5    1  0.1574792E-008  0.2831438E+03  0.7957747E-01  0.4024226E+00
         13   -1    0    0    0    0  0.00000000000E+00  0.00000000000E+00  0.14999999963E+04  0.15000000000E+04  0.10566000000E+00 0. -1.
        994   -1    0    0    0    0 -0.00000000000E+00 -0.00000000000E+00  0.11368683772E-12  0.17120000000E+03  0.17120000000E+03 0.  0.
         13    1    1    2    0    0 -0.57030681649E+02  0.15694019793E+03  0.74825404577E+03  0.76665954148E+03  0.10566000000E+00 0. -1.
        994    1    1    2    0    0  0.47556940963E+02 -0.23579631084E+02  0.44476658031E+02  0.18467613475E+03  0.17120000000E+03 0.  0.
        998    1    1    2    0    0  0.94737406860E+01 -0.13336056684E+03  0.70726929248E+03  0.71986432377E+03  0.10000000000E+02 0. -1.
</event>
<event>
 5    1  0.1574792E-008  0.3815151E+03  0.7957747E-01  0.3444588E+00
         13   -1    0    0    0    0  0.00000000000E+00  0.00000000000E+00  0.14999999963E+04  0.15000000000E+04  0.10566000000E+00 0. -1.
        994   -1    0    0    0    0 -0.00000000000E+00 -0.00000000000E+00  0.11368683772E-12  0.17120000000E+03  0.17120000000E+03 0.  0.
         13    1    1    2    0    0 -0.50108296556E+01 -0.93076714568E+01 -0.47435402396E+01  0.11586781254E+02  0.10566000000E+00 0. -1.
        994    1    1    2    0    0  0.16131642966E+02  0.51588945286E+01  0.18207903818E+02  0.17299656603E+03  0.17120000000E+03 0.  0.
        998    1    1    2    0    0 -0.11120813311E+02  0.41487769281E+01  0.14865356327E+04  0.14866166527E+04  0.10000000000E+02 0. -1.
</event>
<event>
 5    1  0.1574792E-008  0.3790086E+03  0.7957747E-01  0.3455487E+00
         13   -1    0    0    0    0  0.00000000000E+00  0.00000000000E+00  0.14999999963E+04  0.15000000000E+04  0.10566000000E+00 0. -1.
        994   -1    0    0    0    0 -0.00000000000E+00 -0.00000000000E+00  0.11368683772E-12  0.17120000000E+03  0.17120000000E+03 0.  0.
         13    1    1    2    0    0  0.20793672288E+02  0.70667824568E+00  0.50329472074E+02  0.54460473049E+02  0.10566000000E+00 0. -1.
        994    1    1    2    0    0  0.16735719320E+02  0.25490395440E+02  0.77593421140E+01  0.17406749252E+03  0.17120000000E+03 0.  0.
        998    1    1    2    0    0 -0.37529391608E+02 -0.26197073686E+02  0.14419111821E+04  0.14426720344E+04  0.10000000000E+02 0. -1.
</event>
<event>
 5    1  0.1574792E-008  0.3835492E+03  0.7957747E-01  0.3435849E+00
         13   -1    0    0    0    0  0.00000000000E+00  0.00000000000E+00  0.14999999963E+04  0.15000000000E+04  0.10566000000E+00 0.  1.
        994   -1    0    0    0    0 -0.00000000000E+00 -0.00000000000E+00  0.11368683772E-12  0.17120000000E+03  0.17120000000E+03 0.  0.
         13    1    1    2    0    0 -0.35155359405E+02 -0.68023553436E+01  0.18336156644E+03  0.18682517642E+03  0.10566000000E+00 0.  1.
        994    1    1    2    0    0  0.62445015884E+02  0.37518196461E+02  0.20089381136E+02  0.18713636287E+03  0.17120000000E+03 0.  0.
        998    1    1    2    0    0 -0.27289656479E+02 -0.30715841118E+02  0.12965490487E+04  0.12972384607E+04  0.10000000000E+02 0.  1.
</event>
<event>
 5    1  0.1574792E-008  0.3777359E+03  0.7957747E-01  0.3461077E+00
         13   -1    0    0    0    0  0.00000000000E+00  0.00000000000E+00  0.14999999963E+04  0.15000000000E+04  0.10566000000E+00 0. -1.
        994   -1    0    0    0    0 -0.00000000000E+00 -0.00000000000E+00  0.11368683772E-12  0.17120000000E+03  0.17120000000E+03 0.  0.
         13    1    1    2    0    0 -0.31052052544E+01  0.10907368054E+02  0.96720216806E+01  0.14905440113E+02  0.10566000000E+00 0. -1.
        994    1    1    2    0    0  0.17275920600E+01 -0.14428139043E+02  0.59919515175E+01  0.17192003738E+03  0.17120000000E+03 0.  0.
        998    1    1    2    0    0  0.13776131944E+01  0.35207709892E+01  0.14843360231E+04  0.14843745225E+04  0.10000000000E+02 0. -1.
</event>
<event>
 5    1  0.1574792E-008  0.3837196E+03  0.7957747E-01  0.3435121E+00
         13   -1    0    0    0    0  0.00000000000E+00  0.00000000000E+00  0.14999999963E+04  0.15000000000E+04  0.10566000000E+00 0. -1.
        994   -1    0    0    0    0 -0.00000000000E+00 -0.00000000000E+00  0.11368683772E-12  0.17120000000E+03  0.17120000000E+03 0.  0.
         13    1    1    2    0    0 -0.23319725018E+02  0.11386107787E+02  0.14956899052E+03  0.15180364658E+03  0.10566000000E+00 0. -1.
        994    1    1    2    0    0  0.16412292946E+02  0.67856605492E+00  0.31587217539E+01  0.17201523576E+03  0.17120000000E+03 0.  0.
        998    1    1    2    0    0  0.69074320717E+01 -0.12064673842E+02  0.13472722840E+04  0.13473811177E+04  0.10000000000E+02 0. -1.
</event>
<event>
 5    1  0.1574792E-008  0.3684797E+03  0.7957747E-01  0.3502907E+00
         13   -1    0    0    0    0  0.00000000000E+00  0.00000000000E+00  0.14999999963E+04  0.15000000000E+04  0.10566000000E+00 0. -1.
        994   -1    0    0    0    0 -0.00000000000E+00 -0.00000000000E+00  0.11368683772E-12  0.17120000000E+03  0.17120000000E+03 0.  0.
         13    1    1    2    0    0  0.44818200269E+02  0.39755286601E+02  0.19458142791E+03  0.20359542515E+03  0.10566000000E+00 0. -1.
        994    1    1    2    0    0 -0.51519402439E+02  0.34496704041E+02  0.23627459699E+02  0.18360819227E+03  0.17120000000E+03 0.  0.
        998    1    1    2    0    0  0.67012021696E+01 -0.74251990642E+02  0.12817911087E+04  0.12839963826E+04  0.10000000000E+02 0. -1.
</event>
<event>
 5    1  0.1574792E-008  0.3824828E+03  0.7957747E-01  0.3440419E+00
         13   -1    0    0    0    0  0.00000000000E+00  0.00000000000E+00  0.14999999963E+04  0.15000000000E+04  0.10566000000E+00 0. -1.
        994   -1    0    0    0    0 -0.00000000000E+00 -0.00000000000E+00  0.11368683772E-12  0.17120000000E+03  0.17120000000E+03 0.  0.
         13    1    1    2    0    0 -0.13348927097E+02 -0.80359835454E+01  0.41771101311E+02  0.44582585782E+02  0.10566000000E+00 0. -1.
        994    1    1    2    0    0  0.35064615926E+01  0.66146780185E+01  0.30709518381E+01  0.17139113158E+03  0.17120000000E+03 0.  0.
        998    1    1    2    0    0  0.98424655048E+01  0.14213055270E+01  0.14551579431E+04  0.14552262826E+04  0.10000000000E+02 0. -1.
</event>
<event>
 5    1  0.1574792E-008  0.3835333E+03  0.7957747E-01  0.3435916E+00
         13   -1    0    0    0    0  0.00000000000E+00  0.00000000000E+00  0.14999999963E+04  0.15000000000E+04  0.10566000000E+00 0. -1.
        994   -1    0    0    0    0 -0.00000000000E+00 -0.00000000000E+00  0.11368683772E-12  0.17120000000E+03  0.17120000000E+03 0.  0.
         13    1    1    2    0    0 -0.23283867041E+02  0.48307916567E+01  0.11769143419E+03  0.12006981244E+03  0.10566000000E+00 0. -1.
        994    1    1    2    0    0  0.16521764786E+02 -0.98369763983E+00  0.32657634919E+01  0.17202918817E+03  0.17120000000E+03 0.  0.
        998    1    1    2    0    0  0.67621022553E+01 -0.38470940169E+01  0.13790427986E+04  0.13791009994E+04  0.10000000000E+02 0. -1.
</event>
<event>
 5    1  0.1574792E-008  0.3840729E+03  0.7957747E-01  0.3433614E+00
         13   -1    0    0    0    0  0.00000000000E+00  0.00000000000E+00  0.14999999963E+04  0.15000000000E+04  0.10566000000E+00 0. -1.
        994   -1    0    0    0    0 -0.00000000000E+00 -0.00000000000E+00  0.11368683772E-12  0.17120000000E+03  0.17120000000E+03 0.  0.
         13    1    1    2    0    0 -0.87982219982E+01  0.72109592450E+01  0.30739477262E+02  0.32777023506E+02  0.10566000000E+00 0. -1.
        994    1    1    2    0    0  0.34834877035E+01 -0.33639555522E+01  0.21684967769E+01  0.17128220358E+03  0.17120000000E+03 0.  0.
        998    1    1    2    0    0  0.53147342947E+01 -0.38470036928E+01  0.14670920222E+04  0.14671407729E+04  0.10000000000E+02 0. -1.
</event>
<event>
 5    1  0.1574792E-008  0.3713218E+03  0.7957747E-01  0.3489838E+00
         13   -1    0    0    0    0  0.00000000000E+00  0.00000000000E+00  0.14999999963E+04  0.15000000000E+04  0.10566000000E+00 0.  1.
        994   -1    0    0    0    0 -0.00000000000E+00 -0.00000000000E+00  0.11368683772E-12  0.17120000000E+03  0.17120000000E+03 0.  0.
         13    1    1    2    0    0  0.73769738987E+02 -0.60368591882E+02  0.30701929553E+03  0.32147659365E+03  0.10566000000E+00 0.  1.
        994    1    1    2    0    0 -0.38837021077E+02  0.10541821645E+03  0.57391990967E+02  0.21266075141E+03  0.17120000000E+03 0.  0.
        998    1    1    2    0    0 -0.34932717910E+02 -0.45049624565E+02  0.11355887098E+04  0.11370626549E+04  0.10000000000E+02 0.  1.
</event>
<event>
 5    1  0.1574792E-008  0.3717262E+03  0.7957747E-01  0.3487995E+00
         13   -1    0    0    0    0  0.00000000000E+00  0.00000000000E+00  0.14999999963E+04  0.15000000000E+04  0.10566000000E+00 0. -1.
        994   -1    0    0    0    0 -0.00000000000E+00 -0.00000000000E+00  0.11368683772E-12  0.17120000000E+03  0.17120000000E+03 0.  0.
         13    1    1    2    0    0 -0.54536021270E+02  0.15304848156E+03  0.81935484705E+03  0.83530856088E+03  0.10566000000E+00 0. -1.
        994    1    1    2    0    0 -0.76790414074E+01 -0.17570639060E+03  0.12354429046E+03  0.27478052165E+03  0.17120000000E+03 0.  0.
        998    1    1    2    0    0  0.62215062678E+02  0.22657909033E+02  0.55710085877E+03  0.56111091748E+03  0.10000000000E+02 0. -1.
</event>
<event>
 5    1  0.1574792E-008  0.3804765E+03  0.7957747E-01  0.3449086E+00
         13   -1    0    0    0    0  0.00000000000E+00  0.00000000000E+00  0.14999999963E+04  0.15000000000E+04  0.10566000000E+00 0.  1.
        994   -1    0    0    0    0 -0.00000000000E+00 -0.00000000000E+00  0.11368683772E-12  0.17120000000E+03  0.17120000000E+03 0.  0.
         13    1    1    2    0    0  0.17683131175E+02  0.26303736583E+02  0.15809479249E+03  0.16124067186E+03  0.10566000000E+00 0.  1.
        994    1    1    2    0    0 -0.11351715508E+01  0.15128640009E+02  0.46613780840E+01  0.17193409438E+03  0.17120000000E+03 0.  0.
        998    1    1    2    0    0 -0.16547959624E+02 -0.41432376592E+02  0.13372438257E+04  0.13380252338E+04  0.10000000000E+02 0.  1.
</event>
<event>
 5    1  0.1574792E-008  0.3262839E+03  0.7957747E-01  0.3724580E+00
         13   -1    0    0    0    0  0.00000000000E+00  0.00000000000E+00  0.14999999963E+04  0.15000000000E+04  0.10566000000E+00 0. -1.
        994   -1    0    0    0    0 -0.00000000000E+00 -0.00000000000E+00  0.11368683772E-12  0.17120000000E+03  0.17120000000E+03 0.  0.
         13    1    1    2    0    0  0.25510396578E+03  0.54483069607E+01  0.39999750553E+03  0.47445308830E+03  0.10566000000E+00 0. -1.
        994    1    1    2    0    0 -0.30558431339E+03  0.21995569796E+02  0.61376084142E+03  0.70702007619E+03  0.17120000000E+03 0.  0.
        998    1    1    2    0    0  0.50480347609E+02 -0.27443876757E+02  0.48624164933E+03  0.48972683551E+03  0.10000000000E+02 0. -1.
</event>
<event>
 5    1  0.1574792E-008  0.3839772E+03  0.7957747E-01  0.3434021E+00
         13   -1    0    0    0    0  0.00000000000E+00  0.00000000000E+00  0.14999999963E+04  0.15000000000E+04  0.10566000000E+00 0. -1.
        994   -1    0    0    0    0 -0.00000000000E+00 -0.00000000000E+00  0.11368683772E-12  0.17120000000E+03  0.17120000000E+03 0.  0.
         13    1    1    2    0    0  0.11517768395E+02 -0.14162007347E+01  0.30623279890E+02  0.32748451087E+02  0.10566000000E+00 0. -1.
        994    1    1    2    0    0 -0.98225945468E+01  0.30105822053E+01  0.24871104252E+01  0.17152601169E+03  0.17120000000E+03 0.  0.
        998    1    1    2    0    0 -0.16951738486E+01 -0.15943814706E+01  0.14668896060E+04  0.14669255372E+04  0.10000000000E+02 0. -1.
</event>
<event>
 5    1  0.1574792E-008  0.3813208E+03  0.7957747E-01  0.3445427E+00
         13   -1    0    0    0    0  0.00000000000E+00  0.00000000000E+00  0.14999999963E+04  0.15000000000E+04  0.10566000000E+00 0.  1.
        994   -1    0    0    0    0 -0.00000000000E+00 -0.00000000000E+00  0.11368683772E-12  0.17120000000E+03  0.17120000000E+03 0.  0.
         13    1    1    2    0    0  0.32578962858E+02  0.34314103740E+02  0.57620526897E+02  0.74558586496E+02  0.10566000000E+00 0.  1.
        994    1    1    2    0    0 -0.30351460143E+02 -0.33566765257E+02  0.24548950558E+02  0.17877368329E+03  0.17120000000E+03 0.  0.
        998    1    1    2    0    0 -0.22275027149E+01 -0.74733848343E+00  0.14178305188E+04  0.14178677302E+04  0.10000000000E+02 0.  1.
</event>
<event>
 5    1  0.1574792E-008  0.3693233E+03  0.7957747E-01  0.3499007E+00
         13   -1    0    0    0    0  0.00000000000E+00  0.00000000000E+00  0.14999999963E+04  0.15000000000E+04  0.10566000000E+00 0.  1.
        994   -1    0    0    0    0 -0.00000000000E+00 -0.00000000000E+00  0.11368683772E-12  0.17120000000E+03  0.17120000000E+03 0.  0.
         13    1    1    2    0    0  0.76497486525E+01  0.80217547005E+02  0.45374002953E+03  0.46083988441E+03  0.10566000000E+00 0.  1.
        994    1    1    2    0    0 -0.13282625905E+02 -0.11205228016E+02  0.10670496272E+02  0.17241022237E+03  0.17120000000E+03 0.  0.
        998    1    1    2    0    0  0.56328772524E+01 -0.69012318989E+02  0.10355894705E+04  0.10379498932E+04  0.10000000000E+02 0.  1.
</event>
<event>
 5    1  0.1574792E-008  0.3812455E+03  0.7957747E-01  0.3445753E+00
         13   -1    0    0    0    0  0.00000000000E+00  0.00000000000E+00  0.14999999963E+04  0.15000000000E+04  0.10566000000E+00 0.  1.
        994   -1    0    0    0    0 -0.00000000000E+00 -0.00000000000E+00  0.11368683772E-12  0.17120000000E+03  0.17120000000E+03 0.  0.
         13    1    1    2    0    0 -0.11414763310E+02  0.81313459831E+01  0.25813228378E+02  0.29372598323E+02  0.10566000000E+00 0.  1.
        994    1    1    2    0    0  0.92703340955E+01 -0.21281800467E+02  0.53017516545E+01  0.17284791782E+03  0.17120000000E+03 0.  0.
        998    1    1    2    0    0  0.21444292141E+01  0.13150454484E+02  0.14688850162E+04  0.14689794839E+04  0.10000000000E+02 0.  1.
</event>
<event>
 5    1  0.1574792E-008  0.3752828E+03  0.7957747E-01  0.3471959E+00
         13   -1    0    0    0    0  0.00000000000E+00  0.00000000000E+00  0.14999999963E+04  0.15000000000E+04  0.10566000000E+00 0. -1.
        994   -1    0    0    0    0 -0.00000000000E+00 -0.00000000000E+00  0.11368683772E-12  0.17120000000E+03  0.17120000000E+03 0.  0.
         13    1    1    2    0    0 -0.38197994167E+02 -0.30028622944E+02  0.17087588693E+03  0.17764961259E+03  0.10566000000E+00 0. -1.
        994    1    1    2    0    0  0.27612085582E+02  0.23624666915E+02  0.11031291549E+02  0.17536157376E+03  0.17120000000E+03 0.  0.
        998    1    1    2    0    0  0.10585908585E+02  0.64039560293E+01  0.13180928178E+04  0.13181888137E+04  0.10000000000E+02 0. -1.
</event>
<event>
 5    1  0.1574792E-008  0.3793687E+03  0.7957747E-01  0.3453912E+00
         13   -1    0    0    0    0  0.00000000000E+00  0.00000000000E+00  0.14999999963E+04  0.15000000000E+04  0.10566000000E+00 0. -1.
        994   -1    0    0    0    0 -0.00000000000E+00 -0.00000000000E+00  0.11368683772E-12  0.17120000000E+03  0.17120000000E+03 0.  0.
         13    1    1    2    0    0 -0.19229210618E+02 -0.27004961629E+02  0.11159226118E+03  0.11641251828E+03  0.10566000000E+00 0. -1.
        994    1    1    2    0    0  0.28449351846E+02  0.25040236808E+02  0.92789241413E+01  0.17559019766E+03  0.17120000000E+03 0.  0.
        998    1    1    2    0    0 -0.92201412275E+01  0.19647248211E+01  0.13791288110E+04  0.13791972841E+04  0.10000000000E+02 0. -1.
</event>
<event>
 5    1  0.1574792E-008  0.3709354E+03  0.7957747E-01  0.3491603E+00
         13   -1    0    0    0    0  0.00000000000E+00  0.00000000000E+00  0.14999999963E+04  0.15000000000E+04  0.10566000000E+00 0.  1.
        994   -1    0    0    0    0 -0.00000000000E+00 -0.00000000000E+00  0.11368683772E-12  0.17120000000E+03  0.17120000000E+03 0.  0.
         13    1    1    2    0    0  0.24933438593E+02 -0.12427289582E+01  0.34411770377E+02  0.42513548897E+02  0.10566000000E+00 0.  1.
        994    1    1    2    0    0  0.11883889975E+02 -0.47763727413E+01  0.93465309497E+01  0.17193265606E+03  0.17120000000E+03 0.  0.
        998    1    1    2    0    0 -0.36817328568E+02  0.60191016995E+01  0.14562416950E+04  0.14567537950E+04  0.10000000000E+02 0.  1.
</event>
<event>
 5    1  0.1574792E-008  0.3838174E+03  0.7957747E-01  0.3434703E+00
         13   -1    0    0    0    0  0.00000000000E+00  0.00000000000E+00  0.14999999963E+04  0.15000000000E+04  0.10566000000E+00 0. -1.
        994   -1    0    0    0    0 -0.00000000000E+00 -0.00000000000E+00  0.11368683772E-12  0.17120000000E+03  0.17120000000E+03 0.  0.
         13    1    1    2    0    0 -0.12239292565E+02  0.17339082171E+02  0.10018199111E+03  0.10240550064E+03  0.10566000000E+00 0. -1.
        994    1    1    2    0    0  0.61935043874E+01 -0.13412213889E+02  0.29392592402E+01  0.17186135756E+03  0.17120000000E+03 0.  0.
        998    1    1    2    0    0  0.60457881777E+01 -0.39268682819E+01  0.13968787459E+04  0.13969331418E+04  0.10000000000E+02 0. -1.
</event>
<event>
 5    1  0.1574792E-008  0.3739507E+03  0.7957747E-01  0.3477929E+00
         13   -1    0    0    0    0  0.00000000000E+00  0.00000000000E+00  0.14999999963E+04  0.15000000000E+04  0.10566000000E+00 0.  1.
        994   -1    0    0    0    0 -0.00000000000E+00 -0.00000000000E+00  0.11368683772E-12  0.17120000000E+03  0.17120000000E+03 0.  0.
         13    1    1    2    0    0  0.76292953622E+01 -0.15585628584E+02  0.16425499464E+02  0.23894061245E+02  0.10566000000E+00 0.  1.
        994    1    1    2    0    0 -0.13305495287E+02  0.42272138170E+02  0.13947900708E+02  0.17739209059E+03  0.17120000000E+03 0.  0.
        998    1    1    2    0    0  0.56761999251E+01 -0.26686509586E+02  0.14696265961E+04  0.14699138482E+04  0.10000000000E+02 0.  1.
</event>
<event>
 5    1  0.1574792E-008  0.3860398E+03  0.7957747E-01  0.3425274E+00
         13   -1    0    0    0    0  0.00000000000E+00  0.00000000000E+00  0.14999999963E+04  0.15000000000E+04  0.10566000000E+00 0. -1.
        994   -1    0    0    0    0 -0.00000000000E+00 -0.00000000000E+00  0.11368683772E-12  0.17120000000E+03  0.17120000000E+03 0.  0.
         13    1    1    2    0    0 -0.12351263696E+02 -0.56366808033E+01  0.77647953001E+02  0.78826021431E+02  0.10566000000E+00 0. -1.
        994    1    1    2    0    0  0.21856673500E+02 -0.38197877923E+01  0.27300046688E+01  0.17265340391E+03  0.17120000000E+03 0.  0.
        998    1    1    2    0    0 -0.95054098033E+01  0.94564685956E+01  0.14196220386E+04  0.14197205747E+04  0.10000000000E+02 0. -1.
</event>
<event>
 5    1  0.1574792E-008  0.2853249E+03  0.7957747E-01  0.4006697E+00
         13   -1    0    0    0    0  0.00000000000E+00  0.00000000000E+00  0.14999999963E+04  0.15000000000E+04  0.10566000000E+00 0. -1.
        994   -1    0    0    0    0 -0.00000000000E+00 -0.00000000000E+00  0.11368683772E-12  0.17120000000E+03  0.17120000000E+03 0.  0.
         13    1    1    2    0    0 -0.11646091949E+03  0.21560750952E+03  0.42301949795E+03  0.48887140511E+03  0.10566000000E+00 0. -1.
        994    1    1    2    0    0  0.11141788807E+03 -0.16354517465E+03  0.27875276590E+03  0.38232645008E+03  0.17120000000E+03 0.  0.
        998    1    1    2    0    0  0.50430314174E+01 -0.52062334876E+02  0.79822773243E+03  0.80000214481E+03  0.10000000000E+02 0. -1.
</event>
<event>
 5    1  0.1574792E-008  0.3817356E+03  0.7957747E-01  0.3443636E+00
         13   -1    0    0    0    0  0.00000000000E+00  0.00000000000E+00  0.14999999963E+04  0.15000000000E+04  0.10566000000E+00 0. -1.
        994   -1    0    0    0    0 -0.00000000000E+00 -0.00000000000E+00  0.11368683772E-12  0.17120000000E+03  0.17120000000E+03 0.  0.
         13    1    1    2    0    0  0.17846580115E+02  0.86660387707E+00  0.46704766101E+02  0.50005977290E+02  0.10566000000E+00 0. -1.
        994    1    1    2    0    0 -0.17825255261E+02  0.14065014722E+01  0.43229969834E+01  0.17218549961E+03  0.17120000000E+03 0.  0.
        998    1    1    2    0    0 -0.21324854055E-01 -0.22731053493E+01  0.14489722332E+04  0.14490085231E+04  0.10000000000E+02 0. -1.
</event>
<event>
 5    1  0.1574792E-008  0.3723704E+03  0.7957747E-01  0.3485067E+00
         13   -1    0    0    0    0  0.00000000000E+00  0.00000000000E+00  0.14999999963E+04  0.15000000000E+04  0.10566000000E+00 0. -1.
        994   -1    0    0    0    0 -0.00000000000E+00 -0.00000000000E+00  0.11368683772E-12  0.17120000000E+03  0.17120000000E+03 0.  0.
         13    1    1    2    0    0  0.20194014619E+02  0.28764519663E+02  0.44825283138E+02  0.56960626667E+02  0.10566000000E+00 0. -1.
        994    1    1    2    0    0 -0.17894029687E+02 -0.28410401011E+02  0.16182279274E+02  0.17521031176E+03  0.17120000000E+03 0.  0.
        998    1    1    2    0    0 -0.22999849324E+01 -0.35411865150E+00  0.14389924339E+04  0.14390290616E+04  0.10000000000E+02 0. -1.
</event>
<event>
 5    1  0.1574792E-008  0.3734603E+03  0.7957747E-01  0.3480138E+00
         13   -1    0    0    0    0  0.00000000000E+00  0.00000000000E+00  0.14999999963E+04  0.15000000000E+04  0.10566000000E+00 0. -1.
        994   -1    0    0    0    0 -0.00000000000E+00 -0.00000000000E+00  0.11368683772E-12  0.17120000000E+03  0.17120000000E+03 0.  0.
         13    1    1    2    0    0  0.72070047070E+02 -0.13632733042E+03  0.78307548845E+03  0.79811431792E+03  0.10566000000E+00 0. -1.
        994    1    1    2    0    0 -0.66052541723E+02  0.13025593799E+03  0.84266854436E+02  0.24029126161E+03  0.17120000000E+03 0.  0.
        998    1    1    2    0    0 -0.60175053473E+01  0.60713924305E+01  0.63265765340E+03  0.63279442047E+03  0.10000000000E+02 0.  0.
</event>
<event>
 5    1  0.1574792E-008  0.3855986E+03  0.7957747E-01  0.3427137E+00
         13   -1    0    0    0    0  0.00000000000E+00  0.00000000000E+00  0.14999999963E+04  0.15000000000E+04  0.10566000000E+00 0.  1.
        994   -1    0    0    0    0 -0.00000000000E+00 -0.00000000000E+00  0.11368683772E-12  0.17120000000E+03  0.17120000000E+03 0.  0.
         13    1    1    2    0    0 -0.86606306097E+01  0.78217310904E+01  0.49922932110E+02  0.51268863009E+02  0.10566000000E+00 0.  1.
        994    1    1    2    0    0  0.82200325162E+01 -0.95729147620E+01  0.18559619439E+01  0.17167438430E+03  0.17120000000E+03 0.  0.
        998    1    1    2    0    0  0.44059809356E+00  0.17511836717E+01  0.14482211022E+04  0.14482567527E+04  0.10000000000E+02 0.  1.
</event>
<event>
 5    1  0.1574792E-008  0.3850978E+03  0.7957747E-01  0.3429257E+00
         13   -1    0    0    0    0  0.00000000000E+00  0.00000000000E+00  0.14999999963E+04  0.15000000000E+04  0.10566000000E+00 0. -1.
        994   -1    0    0    0    0 -0.00000000000E+00 -0.00000000000E+00  0.11368683772E-12  0.17120000000E+03  0.17120000000E+03 0.  0.
         13    1    1    2    0    0  0.80507765461E+01  0.82089195318E+01  0.40716550290E+02  0.42308982432E+02  0.10566000000E+00 0. -1.
        994    1    1    2    0    0 -0.10468645310E+02 -0.72789983734E+01  0.21162443924E+01  0.17168720058E+03  0.17120000000E+03 0.  0.
        998    1    1    2    0    0  0.24178687641E+01 -0.92992115840E+00  0.14571672016E+04  0.14572038170E+04  0.10000000000E+02 0. -1.
</event>
<event>
 5    1  0.1574792E-008  0.3779858E+03  0.7957747E-01  0.3459976E+00
         13   -1    0    0    0    0  0.00000000000E+00  0.00000000000E+00  0.14999999963E+04  0.15000000000E+04  0.10566000000E+00 0.  1.
        994   -1    0    0    0    0 -0.00000000000E+00 -0.00000000000E+00  0.11368683772E-12  0.17120000000E+03  0.17120000000E+03 0.  0.
         13    1    1    2    0    0 -0.88868559156E+00  0.25837379015E+02  0.68775667747E+02  0.73474237352E+02  0.10566000000E+00 0.  1.
        994    1    1    2    0    0  0.40114077948E+01  0.60738653827E+01  0.53316784590E+01  0.17143759806E+03  0.17120000000E+03 0.  0.
        998    1    1    2    0    0 -0.31227222033E+01 -0.31911244398E+02  0.14258926501E+04  0.14262881646E+04  0.10000000000E+02 0.  1.
</event>
<event>
 5    1  0.1574792E-008  0.3764308E+03  0.7957747E-01  0.3466848E+00
         13   -1    0    0    0    0  0.00000000000E+00  0.00000000000E+00  0.14999999963E+04  0.15000000000E+04  0.10566000000E+00 0. -1.
        994   -1    0    0    0    0 -0.00000000000E+00 -0.00000000000E+00  0.11368683772E-12  0.17120000000E+03  0.17120000000E+03 0.  0.
         13    1    1    2    0    0  0.12929918949E+02  0.45556636290E+00  0.11287242779E+02  0.17169838623E+02  0.10566000000E+00 0. -1.
        994    1    1    2    0    0 -0.14601384192E+02 -0.25004734705E+01  0.66885325159E+01  0.17196984984E+03  0.17120000000E+03 0.  0.
        998    1    1    2    0    0  0.16714652425E+01  0.20449071076E+01  0.14820242210E+04  0.14820603115E+04  0.10000000000E+02 0. -1.
</event>
<event>
 5    1  0.1574792E-008  0.3775916E+03  0.7957747E-01  0.3461713E+00
         13   -1    0    0    0    0  0.00000000000E+00  0.00000000000E+00  0.14999999963E+04  0.15000000000E+04  0.10566000000E+00 0.  1.
        994   -1    0    0    0    0 -0.00000000000E+00 -0.00000000000E+00  0.11368683772E-12  0.17120000000E+03  0.17120000000E+03 0.  0.
         13    1    1    2    0    0  0.88490134052E+02  0.73699419970E+01  0.53016873063E+03  0.53755345220E+03  0.10566000000E+00 0.  1.
        994    1    1    2    0    0 -0.78617426155E+02 -0.18512627536E+02  0.27661460881E+02  0.19130607280E+03  0.17120000000E+03 0.  0.
        998    1    1    2    0    0 -0.98727078968E+01  0.11142685539E+02  0.94216980477E+03  0.94234047500E+03  0.10000000000E+02 0.  1.
</event>
<event>
 5    1  0.1574792E-008  0.3839510E+03  0.7957747E-01  0.3434133E+00
         13   -1    0    0    0    0  0.00000000000E+00  0.00000000000E+00  0.14999999963E+04  0.15000000000E+04  0.10566000000E+00 0.  1.
        994   -1    0    0    0    0 -0.00000000000E+00 -0.00000000000E+00  0.11368683772E-12  0.17120000000E+03  0.17120000000E+03 0.  0.
         13    1    1    2    0    0  0.21707057195E+02  0.42623890296E+01  0.11866434992E+03  0.12070875444E+03  0.10566000000E+00 0.  1.
        994    1    1    2    0    0 -0.81638617522E+01  0.22547341344E+01  0.23885748373E+01  0.17142601248E+03  0.17120000000E+03 0.  0.
        998    1    1    2    0    0 -0.13543195443E+02 -0.65171231640E+01  0.13789470715E+04  0.13790652331E+04  0.10000000000E+02 0.  1.
</event>
<event>
 5    1  0.1574792E-008  0.3841786E+03  0.7957747E-01  0.3433163E+00
         13   -1    0    0    0    0  0.00000000000E+00  0.00000000000E+00  0.14999999963E+04  0.15000000000E+04  0.10566000000E+00 0.  1.
        994   -1    0    0    0    0 -0.00000000000E+00 -0.00000000000E+00  0.11368683772E-12  0.17120000000E+03  0.17120000000E+03 0.  0.
         13    1    1    2    0    0 -0.50158122205E+01 -0.10869198670E+02  0.33247281934E+02  0.35336818929E+02  0.10566000000E+00 0.  1.
        994    1    1    2    0    0  0.97627484468E+00  0.19429841756E+02  0.32874742586E+01  0.17233316381E+03  0.17120000000E+03 0.  0.
        998    1    1    2    0    0  0.40395373758E+01 -0.85606430862E+01  0.14634652401E+04  0.14635300173E+04  0.10000000000E+02 0.  1.
</event>
<event>
 5    1  0.3057299E-008  0.3858333E+03  0.7957747E-01  0.3426146E+00
         13   -1    0    0    0    0  0.00000000000E+00  0.00000000000E+00  0.14999999963E+04  0.15000000000E+04  0.10566000000E+00 0. -1.
        994   -1    0    0    0    0 -0.00000000000E+00 -0.00000000000E+00  0.11368683772E-12  0.17120000000E+03  0.17120000000E+03 0.  0.
         13    1    1    2    0    0 -0.11300637748E+02  0.63370364594E+01  0.67112143253E+02  0.68351396332E+02  0.10566000000E+00 0. -1.
        994    1    1    2    0    0  0.13179687867E+02 -0.42083283145E+01  0.18450418690E+01  0.17176803655E+03  0.17120000000E+03 0.  0.
        998    1    1    2    0    0 -0.18790501190E+01 -0.21287081448E+01  0.14310428112E+04  0.14310805671E+04  0.10000000000E+02 0. -1.
</event>
<event>
 5    1  0.1574792E-008  0.3855165E+03  0.7957747E-01  0.3427485E+00
         13   -1    0    0    0    0  0.00000000000E+00  0.00000000000E+00  0.14999999963E+04  0.15000000000E+04  0.10566000000E+00 0.  1.
        994   -1    0    0    0    0 -0.00000000000E+00 -0.00000000000E+00  0.11368683772E-12  0.17120000000E+03  0.17120000000E+03 0.  0.
         13    1    1    2    0    0  0.14344564528E+02  0.48932414691E+01  0.83824001081E+02  0.85183241690E+02  0.10566000000E+00 0.  1.
        994    1    1    2    0    0 -0.10721886700E+02 -0.17106117987E+00  0.17515514864E+01  0.17154444336E+03  0.17120000000E+03 0.  0.
        998    1    1    2    0    0 -0.36226778276E+01 -0.47221802892E+01  0.14144244437E+04  0.14144723149E+04  0.10000000000E+02 0.  1.
</event>
<event>
 5    1  0.1574792E-008  0.3769426E+03  0.7957747E-01  0.3464580E+00
         13   -1    0    0    0    0  0.00000000000E+00  0.00000000000E+00  0.14999999963E+04  0.15000000000E+04  0.10566000000E+00 0. -1.
        994   -1    0    0    0    0 -0.00000000000E+00 -0.00000000000E+00  0.11368683772E-12  0.17120000000E+03  0.17120000000E+03 0.  0.
         13    1    1    2    0    0  0.34001858011E+02  0.10301298812E+02  0.10536990977E+03  0.11119834601E+03  0.10566000000E+00 0. -1.
        994    1    1    2    0    0 -0.29404380230E+02 -0.27800116113E+01  0.86361177159E+01  0.17394357870E+03  0.17120000000E+03 0.  0.
        998    1    1    2    0    0 -0.45974777808E+01 -0.75212872011E+01  0.13859939688E+04  0.13860580753E+04  0.10000000000E+02 0. -1.
</event>
<event>
 5    1  0.1574792E-008  0.3824199E+03  0.7957747E-01  0.3440689E+00
         13   -1    0    0    0    0  0.00000000000E+00  0.00000000000E+00  0.14999999963E+04  0.15000000000E+04  0.10566000000E+00 0.  1.
        994   -1    0    0    0    0 -0.00000000000E+00 -0.00000000000E+00  0.11368683772E-12  0.17120000000E+03  0.17120000000E+03 0.  0.
         13    1    1    2    0    0  0.28585879772E+02 -0.12041031717E+02  0.16066105992E+03  0.16362801198E+03  0.10566000000E+00 0.  1.
        994    1    1    2    0    0 -0.18114323463E+02  0.11171931705E+02  0.44201407849E+01  0.17257438517E+03  0.17120000000E+03 0.  0.
        998    1    1    2    0    0 -0.10471556309E+02  0.86910001251E+00  0.13349187956E+04  0.13349976028E+04  0.10000000000E+02 0.  1.
</event>
<event>
 5    1  0.1574792E-008  0.3884074E+03  0.7957747E-01  0.3415348E+00
         13   -1    0    0    0    0  0.00000000000E+00  0.00000000000E+00  0.14999999963E+04  0.15000000000E+04  0.10566000000E+00 0. -1.
        994   -1    0    0    0    0 -0.00000000000E+00 -0.00000000000E+00  0.11368683772E-12  0.17120000000E+03  0.17120000000E+03 0.  0.
         13    1    1    2    0    0 -0.31624760855E+01  0.10560758513E+03  0.18748819880E+03  0.21520873390E+03  0.10566000000E+00 0. -1.
        994    1    1    2    0    0  0.92862729687E+02 -0.14156245220E+03  0.13810217525E+03  0.27756992857E+03  0.17120000000E+03 0.  0.
        998    1    1    2    0    0 -0.89700253601E+02  0.35954867069E+02  0.11744096222E+04  0.11784213375E+04  0.10000000000E+02 0. -1.
</event>
<event>
 5    1  0.1574792E-008  0.3862255E+03  0.7957747E-01  0.3424491E+00
         13   -1    0    0    0    0  0.00000000000E+00  0.00000000000E+00  0.14999999963E+04  0.15000000000E+04  0.10566000000E+00 0. -1.
        994   -1    0    0    0    0 -0.00000000000E+00 -0.00000000000E+00  0.11368683772E-12  0.17120000000E+03  0.17120000000E+03 0.  0.
         13    1    1    2    0    0  0.33593909165E+01  0.94384377059E+01  0.51175348143E+02  0.52146879439E+02  0.10566000000E+00 0. -1.
        994    1    1    2    0    0  0.92189193952E+01 -0.66825937593E+01  0.14476759784E+01  0.17158432708E+03  0.17120000000E+03 0.  0.
        998    1    1    2    0    0 -0.12578310312E+02 -0.27558439467E+01  0.14473769722E+04  0.14474687935E+04  0.10000000000E+02 0. -1.
</event>
<event>
 5    1  0.1574792E-008  0.3817317E+03  0.7957747E-01  0.3443653E+00
         13   -1    0    0    0    0  0.00000000000E+00  0.00000000000E+00  0.14999999963E+04  0.15000000000E+04  0.10566000000E+00 0. -1.
        994   -1    0    0    0    0 -0.00000000000E+00 -0.00000000000E+00  0.11368683772E-12  0.17120000000E+03  0.17120000000E+03 0.  0.
         13    1    1    2    0    0 -0.29323971393E+02  0.17026713341E+02  0.17998883799E+03  0.18315511795E+03  0.10566000000E+00 0. -1.
        994    1    1    2    0    0  0.51241288783E+01 -0.24875852479E+02  0.54086418167E+01  0.17315818820E+03  0.17120000000E+03 0.  0.
        998    1    1    2    0    0  0.24199842515E+02  0.78491391380E+01  0.13146025165E+04  0.13148866939E+04  0.10000000000E+02 0. -1.
</event>
<event>
 5    1  0.1574792E-008  0.3790994E+03  0.7957747E-01  0.3455089E+00
         13   -1    0    0    0    0  0.00000000000E+00  0.00000000000E+00  0.14999999963E+04  0.15000000000E+04  0.10566000000E+00 0. -1.
        994   -1    0    0    0    0 -0.00000000000E+00 -0.00000000000E+00  0.11368683772E-12  0.17120000000E+03  0.17120000000E+03 0.  0.
         13    1    1    2    0    0 -0.51194969310E+02 -0.23233246320E+02  0.27609630183E+03  0.28176211183E+03  0.10566000000E+00 0. -1.
        994    1    1    2    0    0  0.54530061824E+02  0.21317370131E+02  0.16169156792E+02  0.18165582717E+03  0.17120000000E+03 0.  0.
        998    1    1    2    0    0 -0.33350925140E+01  0.19158761891E+01  0.12077345377E+04  0.12077820610E+04  0.10000000000E+02 0. -1.
</event>
<event>
 5    1  0.1574792E-008  0.3844736E+03  0.7957747E-01  0.3431908E+00
         13   -1    0    0    0    0  0.00000000000E+00  0.00000000000E+00  0.14999999963E+04  0.15000000000E+04  0.10566000000E+00 0.  1.
        994   -1    0    0    0    0 -0.00000000000E+00 -0.00000000000E+00  0.11368683772E-12  0.17120000000E+03  0.17120000000E+03 0.  0.
         13    1    1    2    0    0  0.15460920236E+02 -0.22133811944E+02  0.15377964194E+03  0.15613178769E+03  0.10566000000E+00 0.  1.
        994    1    1    2    0    0 -0.10648691108E+02  0.44074480563E+02  0.86941729629E+01  0.17731605427E+03  0.17120000000E+03 0.  0.
        998    1    1    2    0    0 -0.48122291281E+01 -0.21940668619E+02  0.13375261814E+04  0.13377521580E+04  0.10000000000E+02 0.  1.
</event>
<event>
 5    1  0.1574792E-008  0.3811408E+03  0.7957747E-01  0.3446206E+00
         13   -1    0    0    0    0  0.00000000000E+00  0.00000000000E+00  0.14999999963E+04  0.15000000000E+04  0.10566000000E+00 0.  1.
        994   -1    0    0    0    0 -0.00000000000E+00 -0.00000000000E+00  0.11368683772E-12  0.17120000000E+03  0.17120000000E+03 0.  0.
         13    1    1    2    0    0 -0.70634072515E+01  0.29582464206E+02  0.11788478616E+03  0.12174501174E+03  0.10566000000E+00 0.  1.
        994    1    1    2    0    0  0.50436272959E+01 -0.32989128691E+02  0.72763643713E+01  0.17457407100E+03  0.17120000000E+03 0.  0.
        998    1    1    2    0    0  0.20197799556E+01  0.34066644855E+01  0.13748388457E+04  0.13748809173E+04  0.10000000000E+02 0.  1.
</event>
<event>
 5    1  0.1574792E-008  0.4013472E+03  0.7957747E-01  0.3363169E+00
         13   -1    0    0    0    0  0.00000000000E+00  0.00000000000E+00  0.14999999963E+04  0.15000000000E+04  0.10566000000E+00 0. -1.
        994   -1    0    0    0    0 -0.00000000000E+00 -0.00000000000E+00  0.11368683772E-12  0.17120000000E+03  0.17120000000E+03 0.  0.
         13    1    1    2    0    0 -0.13982947524E+02  0.82840862844E+02  0.11111202851E+03  0.13929833244E+03  0.10566000000E+00 0. -1.
        994    1    1    2    0    0  0.10387824318E+02 -0.70345153279E+02  0.48776324461E+02  0.19168963799E+03  0.17120000000E+03 0.  0.
        998    1    1    2    0    0  0.35951232051E+01 -0.12495709565E+02  0.13401116433E+04  0.13402120296E+04  0.10000000000E+02 0. -1.
</event>
<event>
 5    1  0.1574792E-008  0.3822421E+03  0.7957747E-01  0.3441454E+00
         13   -1    0    0    0    0  0.00000000000E+00  0.00000000000E+00  0.14999999963E+04  0.15000000000E+04  0.10566000000E+00 0.  1.
        994   -1    0    0    0    0 -0.00000000000E+00 -0.00000000000E+00  0.11368683772E-12  0.17120000000E+03  0.17120000000E+03 0.  0.
         13    1    1    2    0    0  0.12670838693E+03 -0.28063286378E+02  0.33201872596E+03  0.35648142857E+03  0.10566000000E+00 0.  1.
        994    1    1    2    0    0 -0.14635229831E+03 -0.46455079235E+01  0.10078679720E+03  0.24679545064E+03  0.17120000000E+03 0.  0.
        998    1    1    2    0    0  0.19643911388E+02  0.32708794302E+02  0.10671944731E+04  0.10679231208E+04  0.10000000000E+02 0.  1.
</event>
<event>
 5    1  0.1574792E-008  0.3833775E+03  0.7957747E-01  0.3436583E+00
         13   -1    0    0    0    0  0.00000000000E+00  0.00000000000E+00  0.14999999963E+04  0.15000000000E+04  0.10566000000E+00 0.  1.
        994   -1    0    0    0    0 -0.00000000000E+00 -0.00000000000E+00  0.11368683772E-12  0.17120000000E+03  0.17120000000E+03 0.  0.
         13    1    1    2    0    0  0.20606761671E+02  0.20880632469E+01  0.90492407890E+02  0.92832568017E+02  0.10566000000E+00 0.  1.
        994    1    1    2    0    0 -0.76723167885E+01  0.24460453008E+01  0.26522656263E+01  0.17140980747E+03  0.17120000000E+03 0.  0.
        998    1    1    2    0    0 -0.12934444883E+02 -0.45341085478E+01  0.14068553228E+04  0.14069576245E+04  0.10000000000E+02 0.  1.
</event>
<event>
 5    1  0.1574792E-008  0.3697325E+03  0.7957747E-01  0.3497121E+00
         13   -1    0    0    0    0  0.00000000000E+00  0.00000000000E+00  0.14999999963E+04  0.15000000000E+04  0.10566000000E+00 0. -1.
        994   -1    0    0    0    0 -0.00000000000E+00 -0.00000000000E+00  0.11368683772E-12  0.17120000000E+03  0.17120000000E+03 0.  0.
         13    1    1    2    0    0  0.31900125575E+01 -0.47954733084E+02  0.15062001552E+03  0.15810196977E+03  0.10566000000E+00 0. -1.
        994    1    1    2    0    0 -0.20133922992E+02 -0.22300735403E+02  0.12539444476E+02  0.17426811333E+03  0.17120000000E+03 0.  0.
        998    1    1    2    0    0  0.16943910434E+02  0.70255468487E+02  0.13368405363E+04  0.13388299169E+04  0.10000000000E+02 0. -1.
</event>
<event>
 5    1  0.1574792E-008  0.3845700E+03  0.7957747E-01  0.3431498E+00
         13   -1    0    0    0    0  0.00000000000E+00  0.00000000000E+00  0.14999999963E+04  0.15000000000E+04  0.10566000000E+00 0. -1.
        994   -1    0    0    0    0 -0.00000000000E+00 -0.00000000000E+00  0.11368683772E-12  0.17120000000E+03  0.17120000000E+03 0.  0.
         13    1    1    2    0    0  0.73228551846E+01 -0.84581650401E+01  0.35540222992E+02  0.37259674962E+02  0.10566000000E+00 0. -1.
        994    1    1    2    0    0 -0.14934459068E+01 -0.77131390450E+01  0.20470571788E+01  0.17139239580E+03  0.17120000000E+03 0.  0.
        998    1    1    2    0    0 -0.58294092778E+01  0.16171304085E+02  0.14624127161E+04  0.14625479292E+04  0.10000000000E+02 0. -1.
</event>
<event>
 5    1  0.1574792E-008  0.3724993E+03  0.7957747E-01  0.3484483E+00
         13   -1    0    0    0    0  0.00000000000E+00  0.00000000000E+00  0.14999999963E+04  0.15000000000E+04  0.10566000000E+00 0. -1.
        994   -1    0    0    0    0 -0.00000000000E+00 -0.00000000000E+00  0.11368683772E-12  0.17120000000E+03  0.17120000000E+03 0.  0.
         13    1    1    2    0    0 -0.49422824320E+02 -0.82354194215E+02  0.34063399371E+03  0.35391574945E+03  0.10566000000E+00 0. -1.
        994    1    1    2    0    0  0.56517887827E+02  0.11595637322E+03  0.67360654211E+02  0.22469323503E+03  0.17120000000E+03 0.  0.
        998    1    1    2    0    0 -0.70950635074E+01 -0.33602179004E+02  0.10920053484E+04  0.10925910155E+04  0.10000000000E+02 0. -1.
</event>
<event>
 5    1  0.1574792E-008  0.3781057E+03  0.7957747E-01  0.3459449E+00
         13   -1    0    0    0    0  0.00000000000E+00  0.00000000000E+00  0.14999999963E+04  0.15000000000E+04  0.10566000000E+00 0. -1.
        994   -1    0    0    0    0 -0.00000000000E+00 -0.00000000000E+00  0.11368683772E-12  0.17120000000E+03  0.17120000000E+03 0.  0.
         13    1    1    2    0    0  0.68251356110E+02 -0.72025740914E+01  0.41247196767E+03  0.41814263113E+03  0.10566000000E+00 0. -1.
        994    1    1    2    0    0 -0.54693721855E+02 -0.23838116227E+02  0.17162020096E+02  0.18210885187E+03  0.17120000000E+03 0.  0.
        998    1    1    2    0    0 -0.13557634254E+02  0.31040690318E+02  0.10703660085E+04  0.10709485170E+04  0.10000000000E+02 0. -1.
</event>
<event>
 5    1  0.1574792E-008  0.3802847E+03  0.7957747E-01  0.3449920E+00
         13   -1    0    0    0    0  0.00000000000E+00  0.00000000000E+00  0.14999999963E+04  0.15000000000E+04  0.10566000000E+00 0. -1.
        994   -1    0    0    0    0 -0.00000000000E+00 -0.00000000000E+00  0.11368683772E-12  0.17120000000E+03  0.17120000000E+03 0.  0.
         13    1    1    2    0    0 -0.97040005374E+01 -0.55314809501E+02  0.98698707538E+02  0.11355765853E+03  0.10566000000E+00 0. -1.
        994    1    1    2    0    0 -0.10595466567E+02  0.10355834308E+02  0.17280443413E+02  0.17270657469E+03  0.17120000000E+03 0.  0.
        998    1    1    2    0    0  0.20299467105E+02  0.44958975194E+02  0.13840208453E+04  0.13849357668E+04  0.10000000000E+02 0. -1.
</event>
<event>
 5    1  0.1574792E-008  0.3842276E+03  0.7957747E-01  0.3432955E+00
         13   -1    0    0    0    0  0.00000000000E+00  0.00000000000E+00  0.14999999963E+04  0.15000000000E+04  0.10566000000E+00 0. -1.
        994   -1    0    0    0    0 -0.00000000000E+00 -0.00000000000E+00  0.11368683772E-12  0.17120000000E+03  0.17120000000E+03 0.  0.
         13    1    1    2    0    0  0.22181285205E+02 -0.12160538107E+02  0.13332388140E+03  0.13570245619E+03  0.10566000000E+00 0. -1.
        994    1    1    2    0    0 -0.34216025574E+02  0.14566313974E+02  0.65868173023E+01  0.17531611469E+03  0.17120000000E+03 0.  0.
        998    1    1    2    0    0  0.12034740369E+02 -0.24057758671E+01  0.13600892976E+04  0.13601814291E+04  0.10000000000E+02 0. -1.
</event>
<event>
 5    1  0.1574792E-008  0.4076077E+03  0.7957747E-01  0.3339107E+00
         13   -1    0    0    0    0  0.00000000000E+00  0.00000000000E+00  0.14999999963E+04  0.15000000000E+04  0.10566000000E+00 0. -1.
        994   -1    0    0    0    0 -0.00000000000E+00 -0.00000000000E+00  0.11368683772E-12  0.17120000000E+03  0.17120000000E+03 0.  0.
         13    1    1    2    0    0  0.32620374653E+02 -0.10976717654E+03  0.18364213480E+03  0.21641942317E+03  0.10566000000E+00 0. -1.
        994    1    1    2    0    0 -0.34645583273E+02  0.86224502633E+02  0.68242065877E+02  0.20640106795E+03  0.17120000000E+03 0.  0.
        998    1    1    2    0    0  0.20252086200E+01  0.23542673907E+02  0.12481157956E+04  0.12483795089E+04  0.10000000000E+02 0. -1.
</event>
<event>
 5    1  0.1632160E-008  0.3850118E+03  0.7957747E-01  0.3429622E+00
         13   -1    0    0    0    0  0.00000000000E+00  0.00000000000E+00  0.14999999963E+04  0.15000000000E+04  0.10566000000E+00 0.  1.
        994   -1    0    0    0    0 -0.00000000000E+00 -0.00000000000E+00  0.11368683772E-12  0.17120000000E+03  0.17120000000E+03 0.  0.
         13    1    1    2    0    0  0.86815000916E+01  0.61049094244E+01  0.34303857598E+02  0.35908274437E+02  0.10566000000E+00 0.  1.
        994    1    1    2    0    0 -0.55718575043E+01 -0.66582028396E+01  0.18722033247E+01  0.17143022606E+03  0.17120000000E+03 0.  0.
        998    1    1    2    0    0 -0.31096425873E+01  0.55329341518E+00  0.14638239354E+04  0.14638614995E+04  0.10000000000E+02 0.  1.
</event>
<event>
 5    1  0.1574792E-008  0.3792502E+03  0.7957747E-01  0.3454430E+00
         13   -1    0    0    0    0  0.00000000000E+00  0.00000000000E+00  0.14999999963E+04  0.15000000000E+04  0.10566000000E+00 0.  1.
        994   -1    0    0    0    0 -0.00000000000E+00 -0.00000000000E+00  0.11368683772E-12  0.17120000000E+03  0.17120000000E+03 0.  0.
         13    1    1    2    0    0  0.33894955202E+02 -0.15594193597E+02  0.15903282499E+03  0.16335084160E+03  0.10566000000E+00 0.  1.
        994    1    1    2    0    0 -0.14414873695E+02  0.56071684347E+01  0.53142110136E+01  0.17197938760E+03  0.17120000000E+03 0.  0.
        998    1    1    2    0    0 -0.19480081507E+02  0.99870251620E+01  0.13356529603E+04  0.13358697708E+04  0.10000000000E+02 0.  1.
</event>
<event>
 5    1  0.1574792E-008  0.3781220E+03  0.7957747E-01  0.3459377E+00
         13   -1    0    0    0    0  0.00000000000E+00  0.00000000000E+00  0.14999999963E+04  0.15000000000E+04  0.10566000000E+00 0. -1.
        994   -1    0    0    0    0 -0.00000000000E+00 -0.00000000000E+00  0.11368683772E-12  0.17120000000E+03  0.17120000000E+03 0.  0.
         13    1    1    2    0    0 -0.34168463640E+02  0.45350721581E+02  0.25754463479E+03  0.26372982753E+03  0.10566000000E+00 0. -1.
        994    1    1    2    0    0  0.38201875955E+02 -0.45440099420E+02  0.17031832798E+02  0.18199920134E+03  0.17120000000E+03 0.  0.
        998    1    1    2    0    0 -0.40334123148E+01  0.89377838749E-01  0.12254235287E+04  0.12254709711E+04  0.10000000000E+02 0. -1.
</event>
<event>
 5    1  0.1574792E-008  0.3837274E+03  0.7957747E-01  0.3435088E+00
         13   -1    0    0    0    0  0.00000000000E+00  0.00000000000E+00  0.14999999963E+04  0.15000000000E+04  0.10566000000E+00 0. -1.
        994   -1    0    0    0    0 -0.00000000000E+00 -0.00000000000E+00  0.11368683772E-12  0.17120000000E+03  0.17120000000E+03 0.  0.
         13    1    1    2    0    0 -0.15415548671E+02 -0.26680785352E+01  0.55268076626E+02  0.57439787968E+02  0.10566000000E+00 0. -1.
        994    1    1    2    0    0  0.80714496803E+01 -0.21107462010E+02  0.39514932595E+01  0.17273021609E+03  0.17120000000E+03 0.  0.
        998    1    1    2    0    0  0.73440989903E+01  0.23775540545E+02  0.14407804264E+04  0.14410299959E+04  0.10000000000E+02 0. -1.
</event>
<event>
 5    1  0.1574792E-008  0.3711862E+03  0.7957747E-01  0.3490457E+00
         13   -1    0    0    0    0  0.00000000000E+00  0.00000000000E+00  0.14999999963E+04  0.15000000000E+04  0.10566000000E+00 0.  1.
        994   -1    0    0    0    0 -0.00000000000E+00 -0.00000000000E+00  0.11368683772E-12  0.17120000000E+03  0.17120000000E+03 0.  0.
         13    1    1    2    0    0  0.44359740422E+02  0.68723000842E+02  0.45993194237E+03  0.46714884158E+03  0.10566000000E+00 0.  1.
        994    1    1    2    0    0  0.10042938179E+02 -0.41342387393E+02  0.14909241758E+02  0.17703609545E+03  0.17120000000E+03 0.  0.
        998    1    1    2    0    0 -0.54402678601E+02 -0.27380613448E+02  0.10251588121E+04  0.10270150630E+04  0.10000000000E+02 0.  1.
</event>
<event>
 5    1  0.1574792E-008  0.3811919E+03  0.7957747E-01  0.3445985E+00
         13   -1    0    0    0    0  0.00000000000E+00  0.00000000000E+00  0.14999999963E+04  0.15000000000E+04  0.10566000000E+00 0. -1.
        994   -1    0    0    0    0 -0.00000000000E+00 -0.00000000000E+00  0.11368683772E-12  0.17120000000E+03  0.17120000000E+03 0.  0.
         13    1    1    2    0    0 -0.40952373716E+02 -0.10426032106E+03  0.30902073096E+03  0.32869611313E+03  0.10566000000E+00 0. -1.
        994    1    1    2    0    0  0.56638022101E+02  0.83200064660E+02  0.54852897140E+02  0.20603008671E+03  0.17120000000E+03 0.  0.
        998    1    1    2    0    0 -0.15685648386E+02  0.21060256400E+02  0.11361263682E+04  0.11364738002E+04  0.10000000000E+02 0. -1.
</event>
<event>
 5    1  0.1574792E-008  0.3733122E+03  0.7957747E-01  0.3480806E+00
         13   -1    0    0    0    0  0.00000000000E+00  0.00000000000E+00  0.14999999963E+04  0.15000000000E+04  0.10566000000E+00 0.  1.
        994   -1    0    0    0    0 -0.00000000000E+00 -0.00000000000E+00  0.11368683772E-12  0.17120000000E+03  0.17120000000E+03 0.  0.
         13    1    1    2    0    0  0.17293983713E+02 -0.82378920576E+01  0.86914583268E+01  0.21035620982E+02  0.10566000000E+00 0.  1.
        994    1    1    2    0    0 -0.18821442912E+02  0.74221030303E+01  0.14150118687E+02  0.17297109639E+03  0.17120000000E+03 0.  0.
        998    1    1    2    0    0  0.15274591993E+01  0.81578902730E+00  0.14771584193E+04  0.14771932826E+04  0.10000000000E+02 0.  1.
</event>
<event>
 5    1  0.1574792E-008  0.3749534E+03  0.7957747E-01  0.3473431E+00
         13   -1    0    0    0    0  0.00000000000E+00  0.00000000000E+00  0.14999999963E+04  0.15000000000E+04  0.10566000000E+00 0.  1.
        994   -1    0    0    0    0 -0.00000000000E+00 -0.00000000000E+00  0.11368683772E-12  0.17120000000E+03  0.17120000000E+03 0.  0.
         13    1    1    2    0    0 -0.11990766225E+02 -0.48537376918E+02  0.17267271357E+03  0.17976521524E+03  0.10566000000E+00 0.  1.
        994    1    1    2    0    0 -0.20616839514E+02  0.48242160954E+02  0.16118110175E+02  0.17978207263E+03  0.17120000000E+03 0.  0.
        998    1    1    2    0    0  0.32607605739E+02  0.29521596410E+00  0.13112091725E+04  0.13116527121E+04  0.10000000000E+02 0.  1.
</event>
<event>
 5    1  0.1574792E-008  0.3768711E+03  0.7957747E-01  0.3464897E+00
         13   -1    0    0    0    0  0.00000000000E+00  0.00000000000E+00  0.14999999963E+04  0.15000000000E+04  0.10566000000E+00 0.  1.
        994   -1    0    0    0    0 -0.00000000000E+00 -0.00000000000E+00  0.11368683772E-12  0.17120000000E+03  0.17120000000E+03 0.  0.
         13    1    1    2    0    0 -0.49114077927E+02 -0.12759505927E+03  0.61405834089E+03  0.62909486485E+03  0.10566000000E+00 0.  1.
        994    1    1    2    0    0  0.46894429206E+02  0.15826791878E+03  0.10411452957E+03  0.25960950844E+03  0.17120000000E+03 0.  0.
        998    1    1    2    0    0  0.22196487210E+01 -0.30672859515E+02  0.78182712581E+03  0.78249562670E+03  0.10000000000E+02 0.  1.
</event>
<event>
 5    1  0.1574792E-008  0.3763277E+03  0.7957747E-01  0.3467306E+00
         13   -1    0    0    0    0  0.00000000000E+00  0.00000000000E+00  0.14999999963E+04  0.15000000000E+04  0.10566000000E+00 0. -1.
        994   -1    0    0    0    0 -0.00000000000E+00 -0.00000000000E+00  0.11368683772E-12  0.17120000000E+03  0.17120000000E+03 0.  0.
         13    1    1    2    0    0  0.61847804242E+02 -0.24279014880E+02  0.18916897614E+03  0.20049821483E+03  0.10566000000E+00 0. -1.
        994    1    1    2    0    0  0.13418493226E+02 -0.72897979341E+00  0.14970505720E+02  0.17237790872E+03  0.17120000000E+03 0.  0.
        998    1    1    2    0    0 -0.75266297468E+02  0.25007994673E+02  0.12958605144E+04  0.12983238765E+04  0.10000000000E+02 0. -1.
</event>
<event>
 5    1  0.1574792E-008  0.3824193E+03  0.7957747E-01  0.3440692E+00
         13   -1    0    0    0    0  0.00000000000E+00  0.00000000000E+00  0.14999999963E+04  0.15000000000E+04  0.10566000000E+00 0. -1.
        994   -1    0    0    0    0 -0.00000000000E+00 -0.00000000000E+00  0.11368683772E-12  0.17120000000E+03  0.17120000000E+03 0.  0.
         13    1    1    2    0    0  0.16283274159E+02  0.28092342053E+01  0.44526403255E+02  0.47493668684E+02  0.10566000000E+00 0. -1.
        994    1    1    2    0    0 -0.18217392902E+02 -0.44928513572E+00  0.40189319335E+01  0.17221401533E+03  0.17120000000E+03 0.  0.
        998    1    1    2    0    0  0.19341187430E+01 -0.23599490696E+01  0.14514546611E+04  0.14514923160E+04  0.10000000000E+02 0. -1.
</event>
<event>
 5    1  0.1574792E-008  0.3830774E+03  0.7957747E-01  0.3437867E+00
         13   -1    0    0    0    0  0.00000000000E+00  0.00000000000E+00  0.14999999963E+04  0.15000000000E+04  0.10566000000E+00 0.  1.
        994   -1    0    0    0    0 -0.00000000000E+00 -0.00000000000E+00  0.11368683772E-12  0.17120000000E+03  0.17120000000E+03 0.  0.
         13    1    1    2    0    0 -0.25575205657E+02  0.13150403871E+02  0.14200224149E+03  0.14488503035E+03  0.10566000000E+00 0.  1.
        994    1    1    2    0    0  0.31655071552E+02 -0.94000128123E+01  0.62045169808E+01  0.17446587009E+03  0.17120000000E+03 0.  0.
        998    1    1    2    0    0 -0.60798658942E+01 -0.37503910589E+01  0.13517932378E+04  0.13518490996E+04  0.10000000000E+02 0.  1.
</event>
<event>
 5    1  0.1574792E-008  0.4034075E+03  0.7957747E-01  0.3355168E+00
         13   -1    0    0    0    0  0.00000000000E+00  0.00000000000E+00  0.14999999963E+04  0.15000000000E+04  0.10566000000E+00 0. -1.
        994   -1    0    0    0    0 -0.00000000000E+00 -0.00000000000E+00  0.11368683772E-12  0.17120000000E+03  0.17120000000E+03 0.  0.
         13    1    1    2    0    0 -0.12753739421E+02 -0.67718333398E+02  0.68537270195E+02  0.97189501065E+02  0.10566000000E+00 0. -1.
        994    1    1    2    0    0  0.32936235859E+02  0.54066112662E+02  0.45920760579E+02  0.18821821491E+03  0.17120000000E+03 0.  0.
        998    1    1    2    0    0 -0.20182496437E+02  0.13652220736E+02  0.13855419655E+04  0.13857922840E+04  0.10000000000E+02 0. -1.
</event>
<event>
 5    1  0.1574792E-008  0.3855658E+03  0.7957747E-01  0.3427276E+00
         13   -1    0    0    0    0  0.00000000000E+00  0.00000000000E+00  0.14999999963E+04  0.15000000000E+04  0.10566000000E+00 0. -1.
        994   -1    0    0    0    0 -0.00000000000E+00 -0.00000000000E+00  0.11368683772E-12  0.17120000000E+03  0.17120000000E+03 0.  0.
         13    1    1    2    0    0 -0.30683120968E+01  0.12404136803E+02  0.61160976791E+02  0.62481624459E+02  0.10566000000E+00 0. -1.
        994    1    1    2    0    0 -0.17265841011E+01 -0.84104151383E+01  0.15915244313E+01  0.17142254556E+03  0.17120000000E+03 0.  0.
        998    1    1    2    0    0  0.47948961979E+01 -0.39937216643E+01  0.14372474951E+04  0.14372958300E+04  0.10000000000E+02 0. -1.
</event>
<event>
 5    1  0.1574792E-008  0.3743994E+03  0.7957747E-01  0.3475913E+00
         13   -1    0    0    0    0  0.00000000000E+00  0.00000000000E+00  0.14999999963E+04  0.15000000000E+04  0.10566000000E+00 0.  1.
        994   -1    0    0    0    0 -0.00000000000E+00 -0.00000000000E+00  0.11368683772E-12  0.17120000000E+03  0.17120000000E+03 0.  0.
         13    1    1    2    0    0 -0.54584266765E+02 -0.60956496147E+02  0.31461710733E+03  0.32508317703E+03  0.10566000000E+00 0.  1.
        994    1    1    2    0    0  0.93206011070E+01  0.31824454825E+01  0.13628728161E+02  0.17202378846E+03  0.17120000000E+03 0.  0.
        998    1    1    2    0    0  0.45263665658E+02  0.57774050665E+02  0.11717541608E+04  0.11740930345E+04  0.10000000000E+02 0.  1.
</event>
<event>
 5    1  0.1574792E-008  0.3805858E+03  0.7957747E-01  0.3448612E+00
         13   -1    0    0    0    0  0.00000000000E+00  0.00000000000E+00  0.14999999963E+04  0.15000000000E+04  0.10566000000E+00 0.  1.
        994   -1    0    0    0    0 -0.00000000000E+00 -0.00000000000E+00  0.11368683772E-12  0.17120000000E+03  0.17120000000E+03 0.  0.
         13    1    1    2    0    0  0.18413661819E+02 -0.89832343199E+01  0.51003651477E+02  0.54964943996E+02  0.10566000000E+00 0.  1.
        994    1    1    2    0    0 -0.16588414194E+02  0.22194550092E+02  0.64036112606E+01  0.17354601631E+03  0.17120000000E+03 0.  0.
        998    1    1    2    0    0 -0.18252476251E+01 -0.13211315772E+02  0.14425927335E+04  0.14426890397E+04  0.10000000000E+02 0.  1.
</event>
<event>
 5    1  0.1574792E-008  0.3785400E+03  0.7957747E-01  0.3457540E+00
         13   -1    0    0    0    0  0.00000000000E+00  0.00000000000E+00  0.14999999963E+04  0.15000000000E+04  0.10566000000E+00 0. -1.
        994   -1    0    0    0    0 -0.00000000000E+00 -0.00000000000E+00  0.11368683772E-12  0.17120000000E+03  0.17120000000E+03 0.  0.
         13    1    1    2    0    0  0.24016674389E+02  0.46358371291E+02  0.23373010227E+03  0.23949044054E+03  0.10566000000E+00 0. -1.
        994    1    1    2    0    0 -0.29480451985E+02 -0.45247099657E+02  0.14731722328E+02  0.18011901821E+03  0.17120000000E+03 0.  0.
        998    1    1    2    0    0  0.54637775960E+01 -0.11112716342E+01  0.12515381717E+04  0.12515905413E+04  0.10000000000E+02 0.  0.
</event>
<event>
 5    1  0.1574792E-008  0.3806695E+03  0.7957747E-01  0.3448248E+00
         13   -1    0    0    0    0  0.00000000000E+00  0.00000000000E+00  0.14999999963E+04  0.15000000000E+04  0.10566000000E+00 0. -1.
        994   -1    0    0    0    0 -0.00000000000E+00 -0.00000000000E+00  0.11368683772E-12  0.17120000000E+03  0.17120000000E+03 0.  0.
         13    1    1    2    0    0 -0.55877100328E+02 -0.36005738341E+02  0.37807883062E+03  0.38387794527E+03  0.10566000000E+00 0. -1.
        994    1    1    2    0    0  0.64647410151E+02  0.45597126680E+02  0.24960627039E+02  0.19023895107E+03  0.17120000000E+03 0.  0.
        998    1    1    2    0    0 -0.87703098229E+01 -0.95913883393E+01  0.10969605386E+04  0.10970831037E+04  0.10000000000E+02 0.  0.
</event>
<event>
 5    1  0.1574792E-008  0.3786890E+03  0.7957747E-01  0.3456887E+00
         13   -1    0    0    0    0  0.00000000000E+00  0.00000000000E+00  0.14999999963E+04  0.15000000000E+04  0.10566000000E+00 0.  1.
        994   -1    0    0    0    0 -0.00000000000E+00 -0.00000000000E+00  0.11368683772E-12  0.17120000000E+03  0.17120000000E+03 0.  0.
         13    1    1    2    0    0  0.60893810050E+00 -0.13733329282E+02  0.17509772561E+02  0.22261591093E+02  0.10566000000E+00 0.  1.
        994    1    1    2    0    0 -0.21152291160E-01  0.12849075142E+02  0.53509179653E+01  0.17176487273E+03  0.17120000000E+03 0.  0.
        998    1    1    2    0    0 -0.58778580934E+00  0.88425414008E+00  0.14771393058E+04  0.14771735362E+04  0.10000000000E+02 0.  1.
</event>
<event>
 5    1  0.1574792E-008  0.3803066E+03  0.7957747E-01  0.3449824E+00
         13   -1    0    0    0    0  0.00000000000E+00  0.00000000000E+00  0.14999999963E+04  0.15000000000E+04  0.10566000000E+00 0.  1.
        994   -1    0    0    0    0 -0.00000000000E+00 -0.00000000000E+00  0.11368683772E-12  0.17120000000E+03  0.17120000000E+03 0.  0.
         13    1    1    2    0    0  0.10738632385E+02 -0.86040377027E+01  0.22015055036E+02  0.25961924092E+02  0.10566000000E+00 0.  1.
        994    1    1    2    0    0 -0.11292355591E+02  0.51513223148E+01  0.44930748785E+01  0.17170812776E+03  0.17120000000E+03 0.  0.
        998    1    1    2    0    0  0.55372320637E+00  0.34527153879E+01  0.14734918664E+04  0.14735299481E+04  0.10000000000E+02 0.  1.
</event>
<event>
 5    1  0.1574792E-008  0.3812096E+03  0.7957747E-01  0.3445909E+00
         13   -1    0    0    0    0  0.00000000000E+00  0.00000000000E+00  0.14999999963E+04  0.15000000000E+04  0.10566000000E+00 0. -1.
        994   -1    0    0    0    0 -0.00000000000E+00 -0.00000000000E+00  0.11368683772E-12  0.17120000000E+03  0.17120000000E+03 0.  0.
         13    1    1    2    0    0  0.10447897533E+01 -0.13728626902E+02  0.24479633963E+02  0.28086125138E+02  0.10566000000E+00 0. -1.
        994    1    1    2    0    0  0.17602108484E+02  0.24477554858E+02  0.65562584576E+01  0.17395806805E+03  0.17120000000E+03 0.  0.
        998    1    1    2    0    0 -0.18646898237E+02 -0.10748927956E+02  0.14689641039E+04  0.14691558068E+04  0.10000000000E+02 0. -1.
</event>
<event>
 5    1  0.1574792E-008  0.3807616E+03  0.7957747E-01  0.3447849E+00
         13   -1    0    0    0    0  0.00000000000E+00  0.00000000000E+00  0.14999999963E+04  0.15000000000E+04  0.10566000000E+00 0. -1.
        994   -1    0    0    0    0 -0.00000000000E+00 -0.00000000000E+00  0.11368683772E-12  0.17120000000E+03  0.17120000000E+03 0.  0.
         13    1    1    2    0    0  0.40824783791E+02  0.21458654082E+02  0.25890301643E+03  0.26297893430E+03  0.10566000000E+00 0. -1.
        994    1    1    2    0    0 -0.30779503213E+02 -0.19232337456E+02  0.81541171440E+01  0.17519472095E+03  0.17120000000E+03 0.  0.
        998    1    1    2    0    0 -0.10045280578E+02 -0.22263166260E+01  0.12329428627E+04  0.12330263447E+04  0.10000000000E+02 0. -1.
</event>
<event>
 5    1  0.1574792E-008  0.3851045E+03  0.7957747E-01  0.3429229E+00
         13   -1    0    0    0    0  0.00000000000E+00  0.00000000000E+00  0.14999999963E+04  0.15000000000E+04  0.10566000000E+00 0.  1.
        994   -1    0    0    0    0 -0.00000000000E+00 -0.00000000000E+00  0.11368683772E-12  0.17120000000E+03  0.17120000000E+03 0.  0.
         13    1    1    2    0    0 -0.75287578482E+01 -0.78026103047E+01  0.35715168585E+02  0.37324889195E+02  0.10566000000E+00 0.  1.
        994    1    1    2    0    0  0.16114421580E+02  0.59273181745E+01  0.25480546121E+01  0.17207771577E+03  0.17120000000E+03 0.  0.
        998    1    1    2    0    0 -0.85856637320E+01  0.18752921301E+01  0.14617367731E+04  0.14617973950E+04  0.10000000000E+02 0.  1.
</event>
<event>
 5    1  0.1574792E-008  0.3860612E+03  0.7957747E-01  0.3425184E+00
         13   -1    0    0    0    0  0.00000000000E+00  0.00000000000E+00  0.14999999963E+04  0.15000000000E+04  0.10566000000E+00 0.  1.
        994   -1    0    0    0    0 -0.00000000000E+00 -0.00000000000E+00  0.11368683772E-12  0.17120000000E+03  0.17120000000E+03 0.  0.
         13    1    1    2    0    0 -0.43779444725E+01  0.10915443439E+02  0.61434487000E+02  0.62550145166E+02  0.10566000000E+00 0.  1.
        994    1    1    2    0    0 -0.48823688455E+01 -0.15259493174E+02  0.19459239948E+01  0.17195905407E+03  0.17120000000E+03 0.  0.
        998    1    1    2    0    0  0.92603133180E+01  0.43440497350E+01  0.14366195853E+04  0.14366908008E+04  0.10000000000E+02 0.  1.
</event>
<event>
 5    1  0.1574792E-008  0.3712890E+03  0.7957747E-01  0.3489988E+00
         13   -1    0    0    0    0  0.00000000000E+00  0.00000000000E+00  0.14999999963E+04  0.15000000000E+04  0.10566000000E+00 0. -1.
        994   -1    0    0    0    0 -0.00000000000E+00 -0.00000000000E+00  0.11368683772E-12  0.17120000000E+03  0.17120000000E+03 0.  0.
         13    1    1    2    0    0  0.12021042668E+02  0.48452712937E+02  0.10446622225E+03  0.11578157717E+03  0.10566000000E+00 0. -1.
        994    1    1    2    0    0  0.60468190601E+01 -0.30782118954E+02  0.15085846467E+02  0.17470296400E+03  0.17120000000E+03 0.  0.
        998    1    1    2    0    0 -0.18067861728E+02 -0.17670593983E+02  0.13804479276E+04  0.13807154588E+04  0.10000000000E+02 0. -1.
</event>
<event>
 5    1  0.1574792E-008  0.3830324E+03  0.7957747E-01  0.3438060E+00
         13   -1    0    0    0    0  0.00000000000E+00  0.00000000000E+00  0.14999999963E+04  0.15000000000E+04  0.10566000000E+00 0.  1.
        994   -1    0    0    0    0 -0.00000000000E+00 -0.00000000000E+00  0.11368683772E-12  0.17120000000E+03  0.17120000000E+03 0.  0.
         13    1    1    2    0    0 -0.73730319770E+00 -0.13051175600E+02  0.31251997668E+02  0.33875881137E+02  0.10566000000E+00 0.  1.
        994    1    1    2    0    0 -0.21052597616E+00  0.14209075645E+02  0.32788214854E+01  0.17182005943E+03  0.17120000000E+03 0.  0.
        998    1    1    2    0    0  0.94782917386E+00 -0.11579000445E+01  0.14654691771E+04  0.14655040594E+04  0.10000000000E+02 0.  1.
</event>
<event>
 5    1  0.1574792E-008  0.3794690E+03  0.7957747E-01  0.3453474E+00
         13   -1    0    0    0    0  0.00000000000E+00  0.00000000000E+00  0.14999999963E+04  0.15000000000E+04  0.10566000000E+00 0. -1.
        994   -1    0    0    0    0 -0.00000000000E+00 -0.00000000000E+00  0.11368683772E-12  0.17120000000E+03  0.17120000000E+03 0.  0.
         13    1    1    2    0    0 -0.22589704502E+02  0.13788177233E+02  0.16081929207E+02  0.30968503224E+02  0.10566000000E+00 0. -1.
        994    1    1    2    0    0 -0.12097539430E+02 -0.56858176174E+01  0.16682454952E+02  0.17252948526E+03  0.17120000000E+03 0.  0.
        998    1    1    2    0    0  0.34687243933E+02 -0.81023596156E+01  0.14672356121E+04  0.14677020115E+04  0.10000000000E+02 0. -1.
</event>
<event>
 5    1  0.1574792E-008  0.3822366E+03  0.7957747E-01  0.3441477E+00
         13   -1    0    0    0    0  0.00000000000E+00  0.00000000000E+00  0.14999999963E+04  0.15000000000E+04  0.10566000000E+00 0.  1.
        994   -1    0    0    0    0 -0.00000000000E+00 -0.00000000000E+00  0.11368683772E-12  0.17120000000E+03  0.17120000000E+03 0.  0.
         13    1    1    2    0    0  0.19611718052E+02 -0.76080831299E+01  0.71698800334E+02  0.74721024800E+02  0.10566000000E+00 0.  1.
        994    1    1    2    0    0 -0.16320663126E+02  0.16707928739E+01  0.39020471402E+01  0.17202854869E+03  0.17120000000E+03 0.  0.
        998    1    1    2    0    0 -0.32910549262E+01  0.59372902560E+01  0.14243991488E+04  0.14244504265E+04  0.10000000000E+02 0.  1.
</event>
<event>
 5    1  0.1574792E-008  0.3698559E+03  0.7957747E-01  0.3496553E+00
         13   -1    0    0    0    0  0.00000000000E+00  0.00000000000E+00  0.14999999963E+04  0.15000000000E+04  0.10566000000E+00 0.  1.
        994   -1    0    0    0    0 -0.00000000000E+00 -0.00000000000E+00  0.11368683772E-12  0.17120000000E+03  0.17120000000E+03 0.  0.
         13    1    1    2    0    0 -0.73056426816E+01  0.20359007664E+02  0.16610221218E+02  0.27272187683E+02  0.10566000000E+00 0.  1.
        994    1    1    2    0    0  0.86358344253E+01 -0.20557383270E+02  0.12601828842E+02  0.17310525623E+03  0.17120000000E+03 0.  0.
        998    1    1    2    0    0 -0.13301917438E+01  0.19837560599E+00  0.14707879462E+04  0.14708225561E+04  0.10000000000E+02 0.  1.
</event>
<event>
 5    1  0.1574792E-008  0.3837880E+03  0.7957747E-01  0.3434829E+00
         13   -1    0    0    0    0  0.00000000000E+00  0.00000000000E+00  0.14999999963E+04  0.15000000000E+04  0.10566000000E+00 0. -1.
        994   -1    0    0    0    0 -0.00000000000E+00 -0.00000000000E+00  0.11368683772E-12  0.17120000000E+03  0.17120000000E+03 0.  0.
         13    1    1    2    0    0  0.11469920773E+02 -0.42628557027E+01  0.32685862018E+02  0.34901400562E+02  0.10566000000E+00 0. -1.
        994    1    1    2    0    0 -0.83960754477E+01  0.57863683689E+01  0.25764389846E+01  0.17152275120E+03  0.17120000000E+03 0.  0.
        998    1    1    2    0    0 -0.30738453248E+01 -0.15235126662E+01  0.14647376953E+04  0.14647758482E+04  0.10000000000E+02 0. -1.
</event>
<event>
 5    1  0.1574792E-008  0.3857013E+03  0.7957747E-01  0.3426703E+00
         13   -1    0    0    0    0  0.00000000000E+00  0.00000000000E+00  0.14999999963E+04  0.15000000000E+04  0.10566000000E+00 0.  1.
        994   -1    0    0    0    0 -0.00000000000E+00 -0.00000000000E+00  0.11368683772E-12  0.17120000000E+03  0.17120000000E+03 0.  0.
         13    1    1    2    0    0  0.11881664299E+02 -0.35470358429E+01  0.52302463083E+02  0.53752341515E+02  0.10566000000E+00 0.  1.
        994    1    1    2    0    0 -0.26506090221E+02  0.21657127639E+02  0.51360694071E+01  0.17466374325E+03  0.17120000000E+03 0.  0.
        998    1    1    2    0    0  0.14624425922E+02 -0.18110091796E+02  0.14425614638E+04  0.14427839152E+04  0.10000000000E+02 0.  1.
</event>
<event>
 5    1  0.1574792E-008  0.4212508E+03  0.7957747E-01  0.3289118E+00
         13   -1    0    0    0    0  0.00000000000E+00  0.00000000000E+00  0.14999999963E+04  0.15000000000E+04  0.10566000000E+00 0.  1.
        994   -1    0    0    0    0 -0.00000000000E+00 -0.00000000000E+00  0.11368683772E-12  0.17120000000E+03  0.17120000000E+03 0.  0.
         13    1    1    2    0    0 -0.32506781960E+02  0.10016913291E+03  0.11590090875E+03  0.15660005707E+03  0.10566000000E+00 0.  1.
        994    1    1    2    0    0  0.74218543188E+02 -0.78118662405E+02  0.93071233815E+02  0.22267153418E+03  0.17120000000E+03 0.  0.
        998    1    1    2    0    0 -0.41711761228E+02 -0.22050470507E+02  0.12910278537E+04  0.12919284088E+04  0.10000000000E+02 0.  1.
</event>
<event>
 5    1  0.1574792E-008  0.3808169E+03  0.7957747E-01  0.3447609E+00
         13   -1    0    0    0    0  0.00000000000E+00  0.00000000000E+00  0.14999999963E+04  0.15000000000E+04  0.10566000000E+00 0. -1.
        994   -1    0    0    0    0 -0.00000000000E+00 -0.00000000000E+00  0.11368683772E-12  0.17120000000E+03  0.17120000000E+03 0.  0.
         13    1    1    2    0    0 -0.21987005191E+03 -0.53145063649E+00  0.12847273929E+04  0.13034061560E+04  0.10566000000E+00 0. -1.
        994    1    1    2    0    0  0.20978736953E+03 -0.16472396460E+01  0.16864895452E+03  0.31900683954E+03  0.17120000000E+03 0.  0.
        998    1    1    2    0    0  0.10082682377E+02  0.21786902825E+01  0.46623648833E+02  0.48787004476E+02  0.10000000000E+02 0.  0.
</event>
<event>
 5    1  0.1574792E-008  0.3718088E+03  0.7957747E-01  0.3487619E+00
         13   -1    0    0    0    0  0.00000000000E+00  0.00000000000E+00  0.14999999963E+04  0.15000000000E+04  0.10566000000E+00 0.  1.
        994   -1    0    0    0    0 -0.00000000000E+00 -0.00000000000E+00  0.11368683772E-12  0.17120000000E+03  0.17120000000E+03 0.  0.
         13    1    1    2    0    0 -0.31473569447E+02 -0.73765475082E+01  0.63138478017E+02  0.70932909127E+02  0.10566000000E+00 0.  1.
        994    1    1    2    0    0 -0.36509466527E+01  0.29081145221E+02  0.11284235389E+02  0.17405693433E+03  0.17120000000E+03 0.  0.
        998    1    1    2    0    0  0.35124516100E+02 -0.21704597712E+02  0.14255772829E+04  0.14262101565E+04  0.10000000000E+02 0.  1.
</event>
<event>
 5    1  0.1574792E-008  0.3853707E+03  0.7957747E-01  0.3428102E+00
         13   -1    0    0    0    0  0.00000000000E+00  0.00000000000E+00  0.14999999963E+04  0.15000000000E+04  0.10566000000E+00 0.  1.
        994   -1    0    0    0    0 -0.00000000000E+00 -0.00000000000E+00  0.11368683772E-12  0.17120000000E+03  0.17120000000E+03 0.  0.
         13    1    1    2    0    0  0.41810482024E+01 -0.97528746382E+01  0.42950565987E+02  0.44242084155E+02  0.10566000000E+00 0.  1.
        994    1    1    2    0    0 -0.16255939017E+02 -0.17620885455E+02  0.33363836236E+01  0.17290263912E+03  0.17120000000E+03 0.  0.
        998    1    1    2    0    0  0.12074890815E+02  0.27373760093E+02  0.14537130467E+04  0.14540552767E+04  0.10000000000E+02 0.  1.
</event>
<event>
 5    1  0.1574792E-008  0.3849096E+03  0.7957747E-01  0.3430056E+00
         13   -1    0    0    0    0  0.00000000000E+00  0.00000000000E+00  0.14999999963E+04  0.15000000000E+04  0.10566000000E+00 0. -1.
        994   -1    0    0    0    0 -0.00000000000E+00 -0.00000000000E+00  0.11368683772E-12  0.17120000000E+03  0.17120000000E+03 0.  0.
         13    1    1    2    0    0 -0.15030845159E+02 -0.15251183715E+01  0.66924843687E+02  0.68609023888E+02  0.10566000000E+00 0. -1.
        994    1    1    2    0    0  0.12471080472E+02  0.28569297682E+01  0.22137018403E+01  0.17169167240E+03  0.17120000000E+03 0.  0.
        998    1    1    2    0    0  0.25597646869E+01 -0.13318113967E+01  0.14308614508E+04  0.14308993037E+04  0.10000000000E+02 0. -1.
</event>
<event>
 5    1  0.1574792E-008  0.3851892E+03  0.7957747E-01  0.3428870E+00
         13   -1    0    0    0    0  0.00000000000E+00  0.00000000000E+00  0.14999999963E+04  0.15000000000E+04  0.10566000000E+00 0. -1.
        994   -1    0    0    0    0 -0.00000000000E+00 -0.00000000000E+00  0.11368683772E-12  0.17120000000E+03  0.17120000000E+03 0.  0.
         13    1    1    2    0    0 -0.78971320547E+01  0.11926415990E+02  0.68964800826E+02  0.70432655849E+02  0.10566000000E+00 0. -1.
        994    1    1    2    0    0 -0.35394156595E+01 -0.78632224713E+01  0.17806406722E+01  0.17142627690E+03  0.17120000000E+03 0.  0.
        998    1    1    2    0    0  0.11436547714E+02 -0.40631935186E+01  0.14292545548E+04  0.14293410672E+04  0.10000000000E+02 0. -1.
</event>
<event>
 5    1  0.1574792E-008  0.4131442E+03  0.7957747E-01  0.3318429E+00
         13   -1    0    0    0    0  0.00000000000E+00  0.00000000000E+00  0.14999999963E+04  0.15000000000E+04  0.10566000000E+00 0. -1.
        994   -1    0    0    0    0 -0.00000000000E+00 -0.00000000000E+00  0.11368683772E-12  0.17120000000E+03  0.17120000000E+03 0.  0.
         13    1    1    2    0    0 -0.29447716258E+01 -0.20467740974E+02 -0.10012077274E+02  0.22975050727E+02  0.10566000000E+00 0. -1.
        994    1    1    2    0    0 -0.25545733743E+02  0.53550719200E+02  0.50595568244E+02  0.18812127887E+03  0.17120000000E+03 0.  0.
        998    1    1    2    0    0  0.28490505369E+02 -0.33082978226E+02  0.14594165053E+04  0.14601036704E+04  0.10000000000E+02 0. -1.
</event>
<event>
 5    1  0.1574792E-008  0.3858747E+03  0.7957747E-01  0.3425971E+00
         13   -1    0    0    0    0  0.00000000000E+00  0.00000000000E+00  0.14999999963E+04  0.15000000000E+04  0.10566000000E+00 0. -1.
        994   -1    0    0    0    0 -0.00000000000E+00 -0.00000000000E+00  0.11368683772E-12  0.17120000000E+03  0.17120000000E+03 0.  0.
         13    1    1    2    0    0  0.18615236385E+01  0.10709472596E+02  0.52399897803E+02  0.53515591442E+02  0.10566000000E+00 0. -1.
        994    1    1    2    0    0  0.11502092868E+02 -0.20213048593E+01  0.16438479442E+01  0.17160572849E+03  0.17120000000E+03 0.  0.
        998    1    1    2    0    0 -0.13363616507E+02 -0.86881677363E+01  0.14459562505E+04  0.14460786801E+04  0.10000000000E+02 0. -1.
</event>
<event>
 5    1  0.1574792E-008  0.3766041E+03  0.7957747E-01  0.3466080E+00
         13   -1    0    0    0    0  0.00000000000E+00  0.00000000000E+00  0.14999999963E+04  0.15000000000E+04  0.10566000000E+00 0.  1.
        994   -1    0    0    0    0 -0.00000000000E+00 -0.00000000000E+00  0.11368683772E-12  0.17120000000E+03  0.17120000000E+03 0.  0.
         13    1    1    2    0    0 -0.23232821838E+02  0.24940834875E+02  0.10151163172E+03  0.10708142600E+03  0.10566000000E+00 0.  1.
        994    1    1    2    0    0  0.61570311135E+02  0.38607930508E+02  0.23927446640E+02  0.18751916759E+03  0.17120000000E+03 0.  0.
        998    1    1    2    0    0 -0.38337489297E+02 -0.63548765384E+02  0.13745609179E+04  0.13765994064E+04  0.10000000000E+02 0.  1.
</event>
<event>
 5    1  0.1574792E-008  0.3745160E+03  0.7957747E-01  0.3475390E+00
         13   -1    0    0    0    0  0.00000000000E+00  0.00000000000E+00  0.14999999963E+04  0.15000000000E+04  0.10566000000E+00 0. -1.
        994   -1    0    0    0    0 -0.00000000000E+00 -0.00000000000E+00  0.11368683772E-12  0.17120000000E+03  0.17120000000E+03 0.  0.
         13    1    1    2    0    0  0.88740345542E+02 -0.41168727077E+02  0.39587167153E+03  0.40777948023E+03  0.10566000000E+00 0. -1.
        994    1    1    2    0    0 -0.11907190125E+03  0.36716257876E+02  0.61779150663E+02  0.22057267445E+03  0.17120000000E+03 0.  0.
        998    1    1    2    0    0  0.30331555707E+02  0.44524692015E+01  0.10423491741E+04  0.10428478453E+04  0.10000000000E+02 0. -1.
</event>
<event>
 5    1  0.1574792E-008  0.3826347E+03  0.7957747E-01  0.3439766E+00
         13   -1    0    0    0    0  0.00000000000E+00  0.00000000000E+00  0.14999999963E+04  0.15000000000E+04  0.10566000000E+00 0. -1.
        994   -1    0    0    0    0 -0.00000000000E+00 -0.00000000000E+00  0.11368683772E-12  0.17120000000E+03  0.17120000000E+03 0.  0.
         13    1    1    2    0    0  0.10962141275E+02 -0.27187110396E+00  0.20010266664E+02  0.22818071593E+02  0.10566000000E+00 0. -1.
        994    1    1    2    0    0 -0.13035403803E+02 -0.32174026448E+01  0.34067214996E+01  0.17175948062E+03  0.17120000000E+03 0.  0.
        998    1    1    2    0    0  0.20732625284E+01  0.34892737487E+01  0.14765830081E+04  0.14766224478E+04  0.10000000000E+02 0. -1.
</event>
<event>
 5    1  0.1574792E-008  0.3860249E+03  0.7957747E-01  0.3425337E+00
         13   -1    0    0    0    0  0.00000000000E+00  0.00000000000E+00  0.14999999963E+04  0.15000000000E+04  0.10566000000E+00 0. -1.
        994   -1    0    0    0    0 -0.00000000000E+00 -0.00000000000E+00  0.11368683772E-12  0.17120000000E+03  0.17120000000E+03 0.  0.
         13    1    1    2    0    0 -0.51691958114E+01  0.88810833965E+01  0.48527821705E+02  0.49603980396E+02  0.10566000000E+00 0. -1.
        994    1    1    2    0    0  0.77820316323E+00 -0.42379946493E+01  0.11830108287E+01  0.17125830115E+03  0.17120000000E+03 0.  0.
        998    1    1    2    0    0  0.43909926481E+01 -0.46430887473E+01  0.14502891637E+04  0.14503377185E+04  0.10000000000E+02 0. -1.
</event>
<event>
 5    1  0.2085992E-008  0.3860730E+03  0.7957747E-01  0.3425134E+00
         13   -1    0    0    0    0  0.00000000000E+00  0.00000000000E+00  0.14999999963E+04  0.15000000000E+04  0.10566000000E+00 0. -1.
        994   -1    0    0    0    0 -0.00000000000E+00 -0.00000000000E+00  0.11368683772E-12  0.17120000000E+03  0.17120000000E+03 0.  0.
         13    1    1    2    0    0  0.83967139841E+01  0.63476294582E+01  0.50216469596E+02  0.51307915453E+02  0.10566000000E+00 0. -1.
        994    1    1    2    0    0 -0.73678383525E+01 -0.62854445302E+01  0.14057983910E+01  0.17147946852E+03  0.17120000000E+03 0.  0.
        998    1    1    2    0    0 -0.10288756316E+01 -0.62184927992E-01  0.14483777283E+04  0.14484126160E+04  0.10000000000E+02 0. -1.
</event>
<event>
 5    1  0.1574792E-008  0.3789816E+03  0.7957747E-01  0.3455605E+00
         13   -1    0    0    0    0  0.00000000000E+00  0.00000000000E+00  0.14999999963E+04  0.15000000000E+04  0.10566000000E+00 0.  1.
        994   -1    0    0    0    0 -0.00000000000E+00 -0.00000000000E+00  0.11368683772E-12  0.17120000000E+03  0.17120000000E+03 0.  0.
         13    1    1    2    0    0 -0.10326451279E+03 -0.28106149820E+02  0.37911519846E+03  0.39393128859E+03  0.10566000000E+00 0.  1.
        994    1    1    2    0    0  0.17796235546E+03  0.15803179880E+03  0.22682542882E+03  0.37068027267E+03  0.17120000000E+03 0.  0.
        998    1    1    2    0    0 -0.74697842667E+02 -0.12992564898E+03  0.89405936900E+03  0.90658843874E+03  0.10000000000E+02 0.  1.
</event>
<event>
 5    1  0.1574792E-008  0.3855080E+03  0.7957747E-01  0.3427520E+00
         13   -1    0    0    0    0  0.00000000000E+00  0.00000000000E+00  0.14999999963E+04  0.15000000000E+04  0.10566000000E+00 0. -1.
        994   -1    0    0    0    0 -0.00000000000E+00 -0.00000000000E+00  0.11368683772E-12  0.17120000000E+03  0.17120000000E+03 0.  0.
         13    1    1    2    0    0  0.50756050070E+01  0.10282594454E+02  0.47736138415E+02  0.49094231736E+02  0.10566000000E+00 0. -1.
        994    1    1    2    0    0 -0.46211581402E+01 -0.70141053389E+01  0.16097986782E+01  0.17141348905E+03  0.17120000000E+03 0.  0.
        998    1    1    2    0    0 -0.45444686679E+00 -0.32684891154E+01  0.14506540592E+04  0.14506922792E+04  0.10000000000E+02 0. -1.
</event>
<event>
 5    1  0.1574792E-008  0.3808801E+03  0.7957747E-01  0.3447335E+00
         13   -1    0    0    0    0  0.00000000000E+00  0.00000000000E+00  0.14999999963E+04  0.15000000000E+04  0.10566000000E+00 0.  1.
        994   -1    0    0    0    0 -0.00000000000E+00 -0.00000000000E+00  0.11368683772E-12  0.17120000000E+03  0.17120000000E+03 0.  0.
         13    1    1    2    0    0 -0.39009844017E+02  0.22748620819E+02  0.20365915194E+03  0.20860567828E+03  0.10566000000E+00 0.  1.
        994    1    1    2    0    0  0.52455962501E+02 -0.41609797058E+02  0.18779594428E+02  0.18478397219E+03  0.17120000000E+03 0.  0.
        998    1    1    2    0    0 -0.13446118484E+02  0.18861176239E+02  0.12775612499E+04  0.12778103495E+04  0.10000000000E+02 0.  1.
</event>
<event>
 5    1  0.1574792E-008  0.3753169E+03  0.7957747E-01  0.3471807E+00
         13   -1    0    0    0    0  0.00000000000E+00  0.00000000000E+00  0.14999999963E+04  0.15000000000E+04  0.10566000000E+00 0. -1.
        994   -1    0    0    0    0 -0.00000000000E+00 -0.00000000000E+00  0.11368683772E-12  0.17120000000E+03  0.17120000000E+03 0.  0.
         13    1    1    2    0    0 -0.59449990864E+01  0.23308898590E+02  0.40096752790E+02  0.46759047423E+02  0.10566000000E+00 0. -1.
        994    1    1    2    0    0  0.40619831299E+01 -0.30112566230E+02  0.96574914848E+01  0.17414354278E+03  0.17120000000E+03 0.  0.
        998    1    1    2    0    0  0.18830159565E+01  0.68036676399E+01  0.14502457520E+04  0.14502974098E+04  0.10000000000E+02 0. -1.
</event>
<event>
 5    1  0.1574792E-008  0.3815090E+03  0.7957747E-01  0.3444614E+00
         13   -1    0    0    0    0  0.00000000000E+00  0.00000000000E+00  0.14999999963E+04  0.15000000000E+04  0.10566000000E+00 0. -1.
        994   -1    0    0    0    0 -0.00000000000E+00 -0.00000000000E+00  0.11368683772E-12  0.17120000000E+03  0.17120000000E+03 0.  0.
         13    1    1    2    0    0 -0.79489520490E+01 -0.29747695845E+02  0.14188112851E+03  0.14518394208E+03  0.10566000000E+00 0. -1.
        994    1    1    2    0    0  0.95387987660E+01  0.13731506666E+02  0.43037234841E+01  0.17206831490E+03  0.17120000000E+03 0.  0.
        998    1    1    2    0    0 -0.15898467170E+01  0.16016189179E+02  0.13538151443E+04  0.13539477430E+04  0.10000000000E+02 0. -1.
</event>
<event>
 5    1  0.1574792E-008  0.3740135E+03  0.7957747E-01  0.3477646E+00
         13   -1    0    0    0    0  0.00000000000E+00  0.00000000000E+00  0.14999999963E+04  0.15000000000E+04  0.10566000000E+00 0.  1.
        994   -1    0    0    0    0 -0.00000000000E+00 -0.00000000000E+00  0.11368683772E-12  0.17120000000E+03  0.17120000000E+03 0.  0.
         13    1    1    2    0    0 -0.10691915407E+02 -0.39742712321E+01  0.57059936710E+01  0.12754662469E+02  0.10566000000E+00 0.  1.
        994    1    1    2    0    0  0.11844970262E+02  0.13371676166E+01  0.76709227814E+01  0.17178583875E+03  0.17120000000E+03 0.  0.
        998    1    1    2    0    0 -0.11530548549E+01  0.26371036156E+01  0.14866230798E+04  0.14866594988E+04  0.10000000000E+02 0.  1.
</event>
<event>
 5    1  0.1574792E-008  0.3791266E+03  0.7957747E-01  0.3454970E+00
         13   -1    0    0    0    0  0.00000000000E+00  0.00000000000E+00  0.14999999963E+04  0.15000000000E+04  0.10566000000E+00 0.  1.
        994   -1    0    0    0    0 -0.00000000000E+00 -0.00000000000E+00  0.11368683772E-12  0.17120000000E+03  0.17120000000E+03 0.  0.
         13    1    1    2    0    0 -0.18720303406E+02 -0.28119165551E+02  0.28803492614E+02  0.44393575906E+02  0.10566000000E+00 0.  1.
        994    1    1    2    0    0  0.20806375855E+02  0.30757788824E+02  0.20845331497E+02  0.17641687758E+03  0.17120000000E+03 0.  0.
        998    1    1    2    0    0 -0.20860724484E+01 -0.26386232735E+01  0.14503511722E+04  0.14503895465E+04  0.10000000000E+02 0.  1.
</event>
<event>
 5    1  0.1574792E-008  0.3757685E+03  0.7957747E-01  0.3469793E+00
         13   -1    0    0    0    0  0.00000000000E+00  0.00000000000E+00  0.14999999963E+04  0.15000000000E+04  0.10566000000E+00 0.  1.
        994   -1    0    0    0    0 -0.00000000000E+00 -0.00000000000E+00  0.11368683772E-12  0.17120000000E+03  0.17120000000E+03 0.  0.
         13    1    1    2    0    0  0.17000542396E+02 -0.28811456802E+01  0.21365905625E+02  0.27456010807E+02  0.10566000000E+00 0.  1.
        994    1    1    2    0    0 -0.12275047102E+01  0.19719162673E+02  0.76091857363E+01  0.17250417923E+03  0.17120000000E+03 0.  0.
        998    1    1    2    0    0 -0.15773037686E+02 -0.16838016993E+02  0.14710249049E+04  0.14712398100E+04  0.10000000000E+02 0.  1.
</event>
<event>
 5    1  0.1574792E-008  0.3696823E+03  0.7957747E-01  0.3497352E+00
         13   -1    0    0    0    0  0.00000000000E+00  0.00000000000E+00  0.14999999963E+04  0.15000000000E+04  0.10566000000E+00 0. -1.
        994   -1    0    0    0    0 -0.00000000000E+00 -0.00000000000E+00  0.11368683772E-12  0.17120000000E+03  0.17120000000E+03 0.  0.
         13    1    1    2    0    0 -0.25873468474E+02 -0.78412548424E+02  0.38791625451E+03  0.39660685294E+03  0.10566000000E+00 0. -1.
        994    1    1    2    0    0  0.25955829836E+02  0.12237432875E+02  0.13651897757E+02  0.17412430668E+03  0.17120000000E+03 0.  0.
        998    1    1    2    0    0 -0.82361361524E-01  0.66175115549E+02  0.10984318440E+04  0.11004688404E+04  0.10000000000E+02 0. -1.
</event>
<event>
 5    1  0.1574792E-008  0.3736428E+03  0.7957747E-01  0.3479315E+00
         13   -1    0    0    0    0  0.00000000000E+00  0.00000000000E+00  0.14999999963E+04  0.15000000000E+04  0.10566000000E+00 0.  1.
        994   -1    0    0    0    0 -0.00000000000E+00 -0.00000000000E+00  0.11368683772E-12  0.17120000000E+03  0.17120000000E+03 0.  0.
         13    1    1    2    0    0 -0.45094111569E+02  0.51979511282E+02  0.17079150757E+03  0.18413337208E+03  0.10566000000E+00 0.  1.
        994    1    1    2    0    0  0.55367840729E+02 -0.23840464113E+02  0.25860664664E+02  0.18333624708E+03  0.17120000000E+03 0.  0.
        998    1    1    2    0    0 -0.10273729160E+02 -0.28139047169E+02  0.13033478240E+04  0.13037303808E+04  0.10000000000E+02 0.  1.
</event>
<event>
 5    1  0.1574792E-008  0.3844538E+03  0.7957747E-01  0.3431992E+00
         13   -1    0    0    0    0  0.00000000000E+00  0.00000000000E+00  0.14999999963E+04  0.15000000000E+04  0.10566000000E+00 0. -1.
        994   -1    0    0    0    0 -0.00000000000E+00 -0.00000000000E+00  0.11368683772E-12  0.17120000000E+03  0.17120000000E+03 0.  0.
         13    1    1    2    0    0  0.11062251181E+02 -0.52757555987E+01  0.41552330057E+02  0.43322214804E+02  0.10566000000E+00 0. -1.
        994    1    1    2    0    0 -0.30852819432E+01 -0.15767676498E+02  0.27524561403E+01  0.17197428471E+03  0.17120000000E+03 0.  0.
        998    1    1    2    0    0 -0.79769692374E+01  0.21043432097E+02  0.14556952101E+04  0.14559035005E+04  0.10000000000E+02 0. -1.
</event>
<event>
 5    1  0.1574792E-008  0.3854210E+03  0.7957747E-01  0.3427889E+00
         13   -1    0    0    0    0  0.00000000000E+00  0.00000000000E+00  0.14999999963E+04  0.15000000000E+04  0.10566000000E+00 0.  1.
        994   -1    0    0    0    0 -0.00000000000E+00 -0.00000000000E+00  0.11368683772E-12  0.17120000000E+03  0.17120000000E+03 0.  0.
         13    1    1    2    0    0 -0.34729805550E+01  0.14697221914E+02  0.74512161989E+02  0.76027254154E+02  0.10566000000E+00 0.  1.
        994    1    1    2    0    0  0.91911434101E+01 -0.19293639722E+02  0.29226332136E+01  0.17255347993E+03  0.17120000000E+03 0.  0.
        998    1    1    2    0    0 -0.57181628551E+01  0.45964178079E+01  0.14225652011E+04  0.14226192659E+04  0.10000000000E+02 0.  1.
</event>
<event>
 5    1  0.1595132E-008  0.3830247E+03  0.7957747E-01  0.3438093E+00
         13   -1    0    0    0    0  0.00000000000E+00  0.00000000000E+00  0.14999999963E+04  0.15000000000E+04  0.10566000000E+00 0. -1.
        994   -1    0    0    0    0 -0.00000000000E+00 -0.00000000000E+00  0.11368683772E-12  0.17120000000E+03  0.17120000000E+03 0.  0.
         13    1    1    2    0    0 -0.74031881562E+01 -0.87347343325E+01  0.23785442910E+02  0.26398129426E+02  0.10566000000E+00 0. -1.
        994    1    1    2    0    0  0.69923493888E+01  0.10446120487E+02  0.31372114905E+01  0.17168953515E+03  0.17120000000E+03 0.  0.
        998    1    1    2    0    0  0.41083876748E+00 -0.17113861545E+01  0.14730773419E+04  0.14731123354E+04  0.10000000000E+02 0. -1.
</event>
<event>
 5    1  0.1574792E-008  0.3724392E+03  0.7957747E-01  0.3484755E+00
         13   -1    0    0    0    0  0.00000000000E+00  0.00000000000E+00  0.14999999963E+04  0.15000000000E+04  0.10566000000E+00 0. -1.
        994   -1    0    0    0    0 -0.00000000000E+00 -0.00000000000E+00  0.11368683772E-12  0.17120000000E+03  0.17120000000E+03 0.  0.
         13    1    1    2    0    0 -0.19188240370E+02 -0.22604653293E+02  0.56335226744E+02  0.63661824159E+02  0.10566000000E+00 0. -1.
        994    1    1    2    0    0 -0.37277598966E+00 -0.89238731278E+01  0.82732261012E+01  0.17163234178E+03  0.17120000000E+03 0.  0.
        998    1    1    2    0    0  0.19561016359E+02  0.31528526421E+02  0.14353915434E+04  0.14359058341E+04  0.10000000000E+02 0. -1.
</event>
<event>
 5    1  0.1944249E-008  0.3856494E+03  0.7957747E-01  0.3426923E+00
         13   -1    0    0    0    0  0.00000000000E+00  0.00000000000E+00  0.14999999963E+04  0.15000000000E+04  0.10566000000E+00 0.  1.
        994   -1    0    0    0    0 -0.00000000000E+00 -0.00000000000E+00  0.11368683772E-12  0.17120000000E+03  0.17120000000E+03 0.  0.
         13    1    1    2    0    0  0.66937074346E+01 -0.99212049550E+01  0.52727953295E+02  0.54069254199E+02  0.10566000000E+00 0.  1.
        994    1    1    2    0    0 -0.60364194802E+01  0.14081853447E+02  0.20787992790E+01  0.17189676659E+03  0.17120000000E+03 0.  0.
        998    1    1    2    0    0 -0.65728795437E+00 -0.41606484919E+01  0.14451932437E+04  0.14452339792E+04  0.10000000000E+02 0.  1.
</event>
<event>
 5    1  0.1574792E-008  0.3810155E+03  0.7957747E-01  0.3446749E+00
         13   -1    0    0    0    0  0.00000000000E+00  0.00000000000E+00  0.14999999963E+04  0.15000000000E+04  0.10566000000E+00 0. -1.
        994   -1    0    0    0    0 -0.00000000000E+00 -0.00000000000E+00  0.11368683772E-12  0.17120000000E+03  0.17120000000E+03 0.  0.
         13    1    1    2    0    0 -0.13196415951E+02  0.21821473758E+02  0.83566920850E+02  0.87371411430E+02  0.10566000000E+00 0. -1.
        994    1    1    2    0    0  0.13421631910E+02 -0.24003479587E+02  0.61452821823E+01  0.17350363607E+03  0.17120000000E+03 0.  0.
        998    1    1    2    0    0 -0.22521595911E+00  0.21820058287E+01  0.14102877932E+04  0.14103249525E+04  0.10000000000E+02 0. -1.
</event>
<event>
 5    1  0.1574792E-008  0.3793383E+03  0.7957747E-01  0.3454045E+00
         13   -1    0    0    0    0  0.00000000000E+00  0.00000000000E+00  0.14999999963E+04  0.15000000000E+04  0.10566000000E+00 0. -1.
        994   -1    0    0    0    0 -0.00000000000E+00 -0.00000000000E+00  0.11368683772E-12  0.17120000000E+03  0.17120000000E+03 0.  0.
         13    1    1    2    0    0 -0.11849851066E+03 -0.93820303657E+01  0.62594735926E+03  0.63713423017E+03  0.10566000000E+00 0. -1.
        994    1    1    2    0    0  0.14045644434E+03  0.12224516988E+02  0.74229446572E+02  0.23387368879E+03  0.17120000000E+03 0.  0.
        998    1    1    2    0    0 -0.21957933674E+02 -0.28424866224E+01  0.79982319044E+03  0.80019208104E+03  0.10000000000E+02 0. -1.
</event>
<event>
 5    1  0.1574792E-008  0.3841768E+03  0.7957747E-01  0.3433171E+00
         13   -1    0    0    0    0  0.00000000000E+00  0.00000000000E+00  0.14999999963E+04  0.15000000000E+04  0.10566000000E+00 0.  1.
        994   -1    0    0    0    0 -0.00000000000E+00 -0.00000000000E+00  0.11368683772E-12  0.17120000000E+03  0.17120000000E+03 0.  0.
         13    1    1    2    0    0 -0.11802071726E+02  0.10234188296E+01  0.33335030926E+02  0.35377559752E+02  0.10566000000E+00 0.  1.
        994    1    1    2    0    0  0.12078451293E+02 -0.70633860976E+00  0.25222699770E+01  0.17164553518E+03  0.17120000000E+03 0.  0.
        998    1    1    2    0    0 -0.27637956722E+00 -0.31708021984E+00  0.14641426954E+04  0.14641769051E+04  0.10000000000E+02 0.  1.
</event>
<event>
 5    1  0.1574792E-008  0.3833889E+03  0.7957747E-01  0.3436534E+00
         13   -1    0    0    0    0  0.00000000000E+00  0.00000000000E+00  0.14999999963E+04  0.15000000000E+04  0.10566000000E+00 0.  1.
        994   -1    0    0    0    0 -0.00000000000E+00 -0.00000000000E+00  0.11368683772E-12  0.17120000000E+03  0.17120000000E+03 0.  0.
         13    1    1    2    0    0  0.76332222872E+01  0.12110403747E+02  0.40334758612E+02  0.42799905114E+02  0.10566000000E+00 0.  1.
        994    1    1    2    0    0 -0.73793509264E+01 -0.14122627403E+02  0.32719565510E+01  0.17197107060E+03  0.17120000000E+03 0.  0.
        998    1    1    2    0    0 -0.25387136085E+00  0.20122236559E+01  0.14563932811E+04  0.14564290243E+04  0.10000000000E+02 0.  1.
</event>
<event>
 5    1  0.1574792E-008  0.3853268E+03  0.7957747E-01  0.3428288E+00
         13   -1    0    0    0    0  0.00000000000E+00  0.00000000000E+00  0.14999999963E+04  0.15000000000E+04  0.10566000000E+00 0.  1.
        994   -1    0    0    0    0 -0.00000000000E+00 -0.00000000000E+00  0.11368683772E-12  0.17120000000E+03  0.17120000000E+03 0.  0.
         13    1    1    2    0    0 -0.17204489134E+02  0.22279894795E+01  0.10304676358E+03  0.10449691398E+03  0.10566000000E+00 0.  1.
        994    1    1    2    0    0  0.94207838438E+01 -0.13814434054E+02  0.23870323035E+01  0.17203118229E+03  0.17120000000E+03 0.  0.
        998    1    1    2    0    0  0.77837052902E+01  0.11586444575E+02  0.13945662004E+04  0.13946719037E+04  0.10000000000E+02 0.  1.
</event>
<event>
 5    1  0.1574792E-008  0.3853319E+03  0.7957747E-01  0.3428266E+00
         13   -1    0    0    0    0  0.00000000000E+00  0.00000000000E+00  0.14999999963E+04  0.15000000000E+04  0.10566000000E+00 0. -1.
        994   -1    0    0    0    0 -0.00000000000E+00 -0.00000000000E+00  0.11368683772E-12  0.17120000000E+03  0.17120000000E+03 0.  0.
         13    1    1    2    0    0  0.10633319136E+02 -0.11177974909E+02  0.77881929298E+02  0.79395344159E+02  0.10566000000E+00 0. -1.
        994    1    1    2    0    0 -0.58156333271E+01  0.17113730116E+02  0.25394525051E+01  0.17217023601E+03  0.17120000000E+03 0.  0.
        998    1    1    2    0    0 -0.48176858087E+01 -0.59357552067E+01  0.14195786145E+04  0.14196344198E+04  0.10000000000E+02 0.  0.
</event>
<event>
 5    1  0.1574792E-008  0.3778978E+03  0.7957747E-01  0.3460363E+00
         13   -1    0    0    0    0  0.00000000000E+00  0.00000000000E+00  0.14999999963E+04  0.15000000000E+04  0.10566000000E+00 0. -1.
        994   -1    0    0    0    0 -0.00000000000E+00 -0.00000000000E+00  0.11368683772E-12  0.17120000000E+03  0.17120000000E+03 0.  0.
         13    1    1    2    0    0 -0.15416077927E+02 -0.44698544900E+02  0.18856797991E+03  0.19440552869E+03  0.10566000000E+00 0. -1.
        994    1    1    2    0    0  0.12436505634E+02  0.45160762609E+02  0.12620177276E+02  0.17794063624E+03  0.17120000000E+03 0.  0.
        998    1    1    2    0    0  0.29795722937E+01 -0.46221770859E+00  0.12988118391E+04  0.12988538351E+04  0.10000000000E+02 0.  0.
</event>
<event>
 5    1  0.1574792E-008  0.3063568E+03  0.7957747E-01  0.3851657E+00
         13   -1    0    0    0    0  0.00000000000E+00  0.00000000000E+00  0.14999999963E+04  0.15000000000E+04  0.10566000000E+00 0.  1.
        994   -1    0    0    0    0 -0.00000000000E+00 -0.00000000000E+00  0.11368683772E-12  0.17120000000E+03  0.17120000000E+03 0.  0.
         13    1    1    2    0    0 -0.99768360391E+01 -0.19216754335E+03  0.75991407027E+03  0.78389878641E+03  0.10566000000E+00 0.  1.
        994    1    1    2    0    0  0.86482643303E+02  0.14601676667E+03  0.13643349887E+03  0.27699040300E+03  0.17120000000E+03 0.  0.
        998    1    1    2    0    0 -0.76505807264E+02  0.46150776680E+02  0.60365242714E+03  0.61031081059E+03  0.10000000000E+02 0.  1.
</event>
<event>
 5    1  0.1574792E-008  0.3841425E+03  0.7957747E-01  0.3433317E+00
         13   -1    0    0    0    0  0.00000000000E+00  0.00000000000E+00  0.14999999963E+04  0.15000000000E+04  0.10566000000E+00 0.  1.
        994   -1    0    0    0    0 -0.00000000000E+00 -0.00000000000E+00  0.11368683772E-12  0.17120000000E+03  0.17120000000E+03 0.  0.
         13    1    1    2    0    0 -0.59761421802E+01 -0.15734825297E+02  0.66884527126E+02  0.68969921962E+02  0.10566000000E+00 0.  1.
        994    1    1    2    0    0 -0.15488047696E+01  0.16818040515E+02  0.29977353696E+01  0.17205717567E+03  0.17120000000E+03 0.  0.
        998    1    1    2    0    0  0.75249469497E+01 -0.10832152181E+01  0.14301177338E+04  0.14301729024E+04  0.10000000000E+02 0.  1.
</event>
<event>
 5    1  0.1574792E-008  0.3824966E+03  0.7957747E-01  0.3440359E+00
         13   -1    0    0    0    0  0.00000000000E+00  0.00000000000E+00  0.14999999963E+04  0.15000000000E+04  0.10566000000E+00 0.  1.
        994   -1    0    0    0    0 -0.00000000000E+00 -0.00000000000E+00  0.11368683772E-12  0.17120000000E+03  0.17120000000E+03 0.  0.
         13    1    1    2    0    0  0.15116943673E+02 -0.90280783331E+01  0.56495230903E+02  0.59175590096E+02  0.10566000000E+00 0.  1.
        994    1    1    2    0    0  0.56793699920E+01  0.45823894750E+01  0.30547219862E+01  0.17138268542E+03  0.17120000000E+03 0.  0.
        998    1    1    2    0    0 -0.20796313665E+02  0.44456888581E+01  0.14404500434E+04  0.14406417245E+04  0.10000000000E+02 0.  1.
</event>
<event>
 5    1  0.1574792E-008  0.4256866E+03  0.7957747E-01  0.3273544E+00
         13   -1    0    0    0    0  0.00000000000E+00  0.00000000000E+00  0.14999999963E+04  0.15000000000E+04  0.10566000000E+00 0.  1.
        994   -1    0    0    0    0 -0.00000000000E+00 -0.00000000000E+00  0.11368683772E-12  0.17120000000E+03  0.17120000000E+03 0.  0.
         13    1    1    2    0    0  0.11200137413E+03  0.70835788067E+02  0.19225294150E+03  0.23350207998E+03  0.10566000000E+00 0.  1.
        994    1    1    2    0    0 -0.80058945861E+02 -0.37685827027E+02  0.79372646966E+02  0.20842052072E+03  0.17120000000E+03 0.  0.
        998    1    1    2    0    0 -0.31942428271E+02 -0.33149961040E+02  0.12283744078E+04  0.12292773993E+04  0.10000000000E+02 0.  1.
</event>
<event>
 5    1  0.1574792E-008  0.3779842E+03  0.7957747E-01  0.3459983E+00
         13   -1    0    0    0    0  0.00000000000E+00  0.00000000000E+00  0.14999999963E+04  0.15000000000E+04  0.10566000000E+00 0.  1.
        994   -1    0    0    0    0 -0.00000000000E+00 -0.00000000000E+00  0.11368683772E-12  0.17120000000E+03  0.17120000000E+03 0.  0.
         13    1    1    2    0    0  0.14339687300E+02 -0.31403604309E+02  0.33950700045E+02  0.48419770683E+02  0.10566000000E+00 0.  1.
        994    1    1    2    0    0  0.70035370329E+01  0.19601815783E+02  0.16784366228E+02  0.17327560608E+03  0.17120000000E+03 0.  0.
        998    1    1    2    0    0 -0.21343224332E+02  0.11801788525E+02  0.14492649300E+04  0.14495046232E+04  0.10000000000E+02 0.  1.
</event>
<event>
 5    1  0.1574792E-008  0.3845553E+03  0.7957747E-01  0.3431560E+00
         13   -1    0    0    0    0  0.00000000000E+00  0.00000000000E+00  0.14999999963E+04  0.15000000000E+04  0.10566000000E+00 0. -1.
        994   -1    0    0    0    0 -0.00000000000E+00 -0.00000000000E+00  0.11368683772E-12  0.17120000000E+03  0.17120000000E+03 0.  0.
         13    1    1    2    0    0 -0.86343989724E+01  0.61678355581E+01  0.29263506174E+02  0.31128106250E+02  0.10566000000E+00 0. -1.
        994    1    1    2    0    0  0.11951230964E+02 -0.62334457275E+01  0.24496784244E+01  0.17174728147E+03  0.17120000000E+03 0.  0.
        998    1    1    2    0    0 -0.33168319919E+01  0.65610169401E-01  0.14682868117E+04  0.14683246123E+04  0.10000000000E+02 0. -1.
</event>
<event>
 5    1  0.1574792E-008  0.3801628E+03  0.7957747E-01  0.3450450E+00
         13   -1    0    0    0    0  0.00000000000E+00  0.00000000000E+00  0.14999999963E+04  0.15000000000E+04  0.10566000000E+00 0. -1.
        994   -1    0    0    0    0 -0.00000000000E+00 -0.00000000000E+00  0.11368683772E-12  0.17120000000E+03  0.17120000000E+03 0.  0.
         13    1    1    2    0    0  0.30478790337E+02 -0.20238639024E+02  0.14921459388E+03  0.15363451878E+03  0.10566000000E+00 0. -1.
        994    1    1    2    0    0 -0.28010986262E+02  0.23604747412E+02  0.85471252562E+01  0.17528346414E+03  0.17120000000E+03 0.  0.
        998    1    1    2    0    0 -0.24678040748E+01 -0.33661083888E+01  0.13422382771E+04  0.13422820171E+04  0.10000000000E+02 0. -1.
</event>
<event>
 5    1  0.1574792E-008  0.3819189E+03  0.7957747E-01  0.3442845E+00
         13   -1    0    0    0    0  0.00000000000E+00  0.00000000000E+00  0.14999999963E+04  0.15000000000E+04  0.10566000000E+00 0. -1.
        994   -1    0    0    0    0 -0.00000000000E+00 -0.00000000000E+00  0.11368683772E-12  0.17120000000E+03  0.17120000000E+03 0.  0.
         13    1    1    2    0    0 -0.88090844200E+01 -0.40727879505E+02  0.47796143349E+02  0.63410114495E+02  0.10566000000E+00 0. -1.
        994    1    1    2    0    0  0.92683465439E+01 -0.11035272346E+02  0.18143638146E+02  0.17276084941E+03  0.17120000000E+03 0.  0.
        998    1    1    2    0    0 -0.45926212393E+00  0.51763151851E+02  0.14340602148E+04  0.14350290361E+04  0.10000000000E+02 0. -1.
</event>
<event>
 5    1  0.1574792E-008  0.3797949E+03  0.7957747E-01  0.3452052E+00
         13   -1    0    0    0    0  0.00000000000E+00  0.00000000000E+00  0.14999999963E+04  0.15000000000E+04  0.10566000000E+00 0.  1.
        994   -1    0    0    0    0 -0.00000000000E+00 -0.00000000000E+00  0.11368683772E-12  0.17120000000E+03  0.17120000000E+03 0.  0.
         13    1    1    2    0    0 -0.84932363901E+01  0.42436862046E+02  0.25538373502E+03  0.25902487448E+03  0.10566000000E+00 0.  1.
        994    1    1    2    0    0  0.10928690888E+02 -0.54492127546E+01  0.47357249920E+01  0.17170031245E+03  0.17120000000E+03 0.  0.
        998    1    1    2    0    0 -0.24354544979E+01 -0.36987649291E+02  0.12398805363E+04  0.12404748131E+04  0.10000000000E+02 0.  1.
</event>
<event>
 5    1  0.1574792E-008  0.3850478E+03  0.7957747E-01  0.3429470E+00
         13   -1    0    0    0    0  0.00000000000E+00  0.00000000000E+00  0.14999999963E+04  0.15000000000E+04  0.10566000000E+00 0. -1.
        994   -1    0    0    0    0 -0.00000000000E+00 -0.00000000000E+00  0.11368683772E-12  0.17120000000E+03  0.17120000000E+03 0.  0.
         13    1    1    2    0    0  0.42799955369E+00  0.15947755104E+02  0.75094850121E+02  0.76770839224E+02  0.10566000000E+00 0. -1.
        994    1    1    2    0    0 -0.10896252947E+02 -0.18282672804E+02  0.30973015701E+01  0.17254569751E+03  0.17120000000E+03 0.  0.
        998    1    1    2    0    0  0.10468253393E+02  0.23349177006E+01  0.14218078446E+04  0.14218834633E+04  0.10000000000E+02 0. -1.
</event>
<event>
 5    1  0.1574792E-008  0.3849316E+03  0.7957747E-01  0.3429962E+00
         13   -1    0    0    0    0  0.00000000000E+00  0.00000000000E+00  0.14999999963E+04  0.15000000000E+04  0.10566000000E+00 0.  1.
        994   -1    0    0    0    0 -0.00000000000E+00 -0.00000000000E+00  0.11368683772E-12  0.17120000000E+03  0.17120000000E+03 0.  0.
         13    1    1    2    0    0  0.68913914115E+01 -0.15738873900E+02  0.93516549487E+02  0.95081857467E+02  0.10566000000E+00 0.  1.
        994    1    1    2    0    0 -0.66928858783E+00  0.41951136982E+01  0.17234762835E+01  0.17126137129E+03  0.17120000000E+03 0.  0.
        998    1    1    2    0    0 -0.62221028236E+01  0.11543760202E+02  0.14047599705E+04  0.14048567712E+04  0.10000000000E+02 0.  1.
</event>
<event>
 5    1  0.1574792E-008  0.3774780E+03  0.7957747E-01  0.3462214E+00
         13   -1    0    0    0    0  0.00000000000E+00  0.00000000000E+00  0.14999999963E+04  0.15000000000E+04  0.10566000000E+00 0.  1.
        994   -1    0    0    0    0 -0.00000000000E+00 -0.00000000000E+00  0.11368683772E-12  0.17120000000E+03  0.17120000000E+03 0.  0.
         13    1    1    2    0    0 -0.31650616150E+02  0.39071029229E+02  0.25315165151E+03  0.25809702954E+03  0.10566000000E+00 0.  1.
        994    1    1    2    0    0  0.34777335272E+01 -0.19440816747E+02  0.67276017448E+01  0.17246663623E+03  0.17120000000E+03 0.  0.
        998    1    1    2    0    0  0.28172882623E+02 -0.19630212481E+02  0.12401207430E+04  0.12406363342E+04  0.10000000000E+02 0.  1.
</event>
<event>
 5    1  0.1574792E-008  0.3855302E+03  0.7957747E-01  0.3427427E+00
         13   -1    0    0    0    0  0.00000000000E+00  0.00000000000E+00  0.14999999963E+04  0.15000000000E+04  0.10566000000E+00 0.  1.
        994   -1    0    0    0    0 -0.00000000000E+00 -0.00000000000E+00  0.11368683772E-12  0.17120000000E+03  0.17120000000E+03 0.  0.
         13    1    1    2    0    0  0.36594555336E+01 -0.11651868389E+02  0.55423415971E+02  0.56753183644E+02  0.10566000000E+00 0.  1.
        994    1    1    2    0    0 -0.74326486651E+01  0.45007766070E+01  0.16150389372E+01  0.17142797207E+03  0.17120000000E+03 0.  0.
        998    1    1    2    0    0  0.37731931314E+01  0.71510917820E+01  0.14429615414E+04  0.14430188443E+04  0.10000000000E+02 0.  1.
</event>
<event>
 5    1  0.1574792E-008  0.3804755E+03  0.7957747E-01  0.3449091E+00
         13   -1    0    0    0    0  0.00000000000E+00  0.00000000000E+00  0.14999999963E+04  0.15000000000E+04  0.10566000000E+00 0.  1.
        994   -1    0    0    0    0 -0.00000000000E+00 -0.00000000000E+00  0.11368683772E-12  0.17120000000E+03  0.17120000000E+03 0.  0.
         13    1    1    2    0    0 -0.29248751683E+02 -0.41384896633E+02  0.26340395580E+03  0.26823469992E+03  0.10566000000E+00 0.  1.
        994    1    1    2    0    0  0.35386629386E+02  0.42001815916E+02  0.14027358554E+02  0.18034015878E+03  0.17120000000E+03 0.  0.
        998    1    1    2    0    0 -0.61378777029E+01 -0.61691928344E+00  0.12225686819E+04  0.12226251413E+04  0.10000000000E+02 0.  1.
</event>
<event>
 5    1  0.1574792E-008  0.3846014E+03  0.7957747E-01  0.3431364E+00
         13   -1    0    0    0    0  0.00000000000E+00  0.00000000000E+00  0.14999999963E+04  0.15000000000E+04  0.10566000000E+00 0.  1.
        994   -1    0    0    0    0 -0.00000000000E+00 -0.00000000000E+00  0.11368683772E-12  0.17120000000E+03  0.17120000000E+03 0.  0.
         13    1    1    2    0    0 -0.12948456845E+02  0.34683659193E+01  0.49360604120E+02  0.51148533703E+02  0.10566000000E+00 0.  1.
        994    1    1    2    0    0  0.75903216280E+01  0.55470125569E+00  0.20189056132E+01  0.17138096935E+03  0.17120000000E+03 0.  0.
        998    1    1    2    0    0  0.53581352170E+01 -0.40230671750E+01  0.14486204865E+04  0.14486704969E+04  0.10000000000E+02 0.  1.
</event>
<event>
 5    1  0.1574792E-008  0.3814325E+03  0.7957747E-01  0.3444945E+00
         13   -1    0    0    0    0  0.00000000000E+00  0.00000000000E+00  0.14999999963E+04  0.15000000000E+04  0.10566000000E+00 0.  1.
        994   -1    0    0    0    0 -0.00000000000E+00 -0.00000000000E+00  0.11368683772E-12  0.17120000000E+03  0.17120000000E+03 0.  0.
         13    1    1    2    0    0 -0.21416826600E+02 -0.21548382481E+02  0.14104514803E+03  0.14428013792E+03  0.10566000000E+00 0.  1.
        994    1    1    2    0    0  0.86303366023E+01  0.63822684562E+01  0.37952021218E+01  0.17157814435E+03  0.17120000000E+03 0.  0.
        998    1    1    2    0    0  0.12786489998E+02  0.15166114024E+02  0.13551596461E+04  0.13553417177E+04  0.10000000000E+02 0.  1.
</event>
<event>
 5    1  0.1574792E-008  0.3458116E+03  0.7957747E-01  0.3615020E+00
         13   -1    0    0    0    0  0.00000000000E+00  0.00000000000E+00  0.14999999963E+04  0.15000000000E+04  0.10566000000E+00 0. -1.
        994   -1    0    0    0    0 -0.00000000000E+00 -0.00000000000E+00  0.11368683772E-12  0.17120000000E+03  0.17120000000E+03 0.  0.
         13    1    1    2    0    0 -0.82762308968E+02 -0.21211752342E+03  0.10034993097E+04  0.10290064719E+04  0.10566000000E+00 0. -1.
        994    1    1    2    0    0  0.82613248882E+02  0.17057553024E+03  0.15654038773E+03  0.29955849745E+03  0.17120000000E+03 0.  0.
        998    1    1    2    0    0  0.14906008610E+00  0.41541993187E+02  0.33996029885E+03  0.34263503062E+03  0.10000000000E+02 0. -1.
</event>
<event>
 5    1  0.1574792E-008  0.3823523E+03  0.7957747E-01  0.3440979E+00
         13   -1    0    0    0    0  0.00000000000E+00  0.00000000000E+00  0.14999999963E+04  0.15000000000E+04  0.10566000000E+00 0.  1.
        994   -1    0    0    0    0 -0.00000000000E+00 -0.00000000000E+00  0.11368683772E-12  0.17120000000E+03  0.17120000000E+03 0.  0.
         13    1    1    2    0    0  0.52289601187E+01  0.95222290639E+01  0.18835421521E+02  0.21743944863E+02  0.10566000000E+00 0.  1.
        994    1    1    2    0    0 -0.10669690827E+02 -0.30054640810E+01  0.33580878257E+01  0.17159135139E+03  0.17120000000E+03 0.  0.
        998    1    1    2    0    0  0.54407307078E+01 -0.65167649828E+01  0.14778064869E+04  0.14778647038E+04  0.10000000000E+02 0.  1.
</event>
<event>
 5    1  0.1574792E-008  0.3827181E+03  0.7957747E-01  0.3439408E+00
         13   -1    0    0    0    0  0.00000000000E+00  0.00000000000E+00  0.14999999963E+04  0.15000000000E+04  0.10566000000E+00 0. -1.
        994   -1    0    0    0    0 -0.00000000000E+00 -0.00000000000E+00  0.11368683772E-12  0.17120000000E+03  0.17120000000E+03 0.  0.
         13    1    1    2    0    0 -0.18061048831E+02 -0.54546047898E+01  0.66245993516E+02  0.68880309372E+02  0.10566000000E+00 0. -1.
        994    1    1    2    0    0  0.10550032426E+02 -0.20714604290E+02  0.45598063525E+01  0.17283121781E+03  0.17120000000E+03 0.  0.
        998    1    1    2    0    0  0.75110164049E+01  0.26169209080E+02  0.14291941964E+04  0.14294884728E+04  0.10000000000E+02 0. -1.
</event>
<event>
 5    1  0.1574792E-008  0.3852061E+03  0.7957747E-01  0.3428798E+00
         13   -1    0    0    0    0  0.00000000000E+00  0.00000000000E+00  0.14999999963E+04  0.15000000000E+04  0.10566000000E+00 0. -1.
        994   -1    0    0    0    0 -0.00000000000E+00 -0.00000000000E+00  0.11368683772E-12  0.17120000000E+03  0.17120000000E+03 0.  0.
         13    1    1    2    0    0  0.10037442842E+02 -0.65256751650E+01  0.45764471285E+02  0.47304679380E+02  0.10566000000E+00 0. -1.
        994    1    1    2    0    0 -0.10064055969E+02  0.77036759729E+01  0.20559175209E+01  0.17168080453E+03  0.17120000000E+03 0.  0.
        998    1    1    2    0    0  0.26613126261E-01 -0.11780008080E+01  0.14521796075E+04  0.14522145161E+04  0.10000000000E+02 0. -1.
</event>
<event>
 5    1  0.1574792E-008  0.3798860E+03  0.7957747E-01  0.3451655E+00
         13   -1    0    0    0    0  0.00000000000E+00  0.00000000000E+00  0.14999999963E+04  0.15000000000E+04  0.10566000000E+00 0. -1.
        994   -1    0    0    0    0 -0.00000000000E+00 -0.00000000000E+00  0.11368683772E-12  0.17120000000E+03  0.17120000000E+03 0.  0.
         13    1    1    2    0    0  0.27041372405E+02  0.42194056610E+02  0.29862619491E+03  0.30280222866E+03  0.10566000000E+00 0. -1.
        994    1    1    2    0    0 -0.78034966946E+01 -0.28893936402E+02  0.71920546403E+01  0.17394516312E+03  0.17120000000E+03 0.  0.
        998    1    1    2    0    0 -0.19237875711E+02 -0.13300120209E+02  0.11941817467E+04  0.11944526082E+04  0.10000000000E+02 0. -1.
</event>
<event>
 5    1  0.1574792E-008  0.3388045E+03  0.7957747E-01  0.3652815E+00
         13   -1    0    0    0    0  0.00000000000E+00  0.00000000000E+00  0.14999999963E+04  0.15000000000E+04  0.10566000000E+00 0. -1.
        994   -1    0    0    0    0 -0.00000000000E+00 -0.00000000000E+00  0.11368683772E-12  0.17120000000E+03  0.17120000000E+03 0.  0.
         13    1    1    2    0    0 -0.22579648617E+03  0.22511917478E+02  0.96138007372E+03  0.98779678927E+03  0.10566000000E+00 0. -1.
        994    1    1    2    0    0  0.20839438081E+03  0.56343360833E+02  0.21435510455E+03  0.34908500843E+03  0.17120000000E+03 0.  0.
        998    1    1    2    0    0  0.17402105364E+02 -0.78855278311E+02  0.32426481801E+03  0.33431820230E+03  0.10000000000E+02 0. -1.
</event>
<event>
 5    1  0.1574792E-008  0.3837970E+03  0.7957747E-01  0.3434790E+00
         13   -1    0    0    0    0  0.00000000000E+00  0.00000000000E+00  0.14999999963E+04  0.15000000000E+04  0.10566000000E+00 0.  1.
        994   -1    0    0    0    0 -0.00000000000E+00 -0.00000000000E+00  0.11368683772E-12  0.17120000000E+03  0.17120000000E+03 0.  0.
         13    1    1    2    0    0 -0.13262634222E+02  0.69096527558E+01  0.52804722214E+02  0.54881605478E+02  0.10566000000E+00 0.  1.
        994    1    1    2    0    0  0.34621747306E+01  0.11670969786E+02  0.27180287984E+01  0.17165379655E+03  0.17120000000E+03 0.  0.
        998    1    1    2    0    0  0.98004594914E+01 -0.18580622542E+02  0.14444772453E+04  0.14446645980E+04  0.10000000000E+02 0.  1.
</event>
<event>
 5    1  0.1574792E-008  0.3739938E+03  0.7957747E-01  0.3477735E+00
         13   -1    0    0    0    0  0.00000000000E+00  0.00000000000E+00  0.14999999963E+04  0.15000000000E+04  0.10566000000E+00 0.  1.
        994   -1    0    0    0    0 -0.00000000000E+00 -0.00000000000E+00  0.11368683772E-12  0.17120000000E+03  0.17120000000E+03 0.  0.
         13    1    1    2    0    0 -0.31569904570E+02  0.58342571717E+01  0.32811882436E+02  0.45905644799E+02  0.10566000000E+00 0.  1.
        994    1    1    2    0    0  0.35666244962E+02 -0.25061572517E+02  0.19834117866E+02  0.17777231415E+03  0.17120000000E+03 0.  0.
        998    1    1    2    0    0 -0.40963403919E+01  0.19227315346E+02  0.14473539960E+04  0.14475220411E+04  0.10000000000E+02 0.  1.
</event>
<event>
 5    1  0.1574792E-008  0.3847588E+03  0.7957747E-01  0.3430696E+00
         13   -1    0    0    0    0  0.00000000000E+00  0.00000000000E+00  0.14999999963E+04  0.15000000000E+04  0.10566000000E+00 0.  1.
        994   -1    0    0    0    0 -0.00000000000E+00 -0.00000000000E+00  0.11368683772E-12  0.17120000000E+03  0.17120000000E+03 0.  0.
         13    1    1    2    0    0 -0.19356446355E+02  0.11989064362E+02  0.13458957996E+03  0.13650192628E+03  0.10566000000E+00 0.  1.
        994    1    1    2    0    0  0.27182711091E+02 -0.38970131726E+01  0.42357241036E+01  0.17344009874E+03  0.17120000000E+03 0.  0.
        998    1    1    2    0    0 -0.78262647352E+01 -0.80920511893E+01  0.13611746922E+04  0.13612579750E+04  0.10000000000E+02 0.  1.
</event>
<event>
 5    1  0.1574792E-008  0.3850564E+03  0.7957747E-01  0.3429433E+00
         13   -1    0    0    0    0  0.00000000000E+00  0.00000000000E+00  0.14999999963E+04  0.15000000000E+04  0.10566000000E+00 0.  1.
        994   -1    0    0    0    0 -0.00000000000E+00 -0.00000000000E+00  0.11368683772E-12  0.17120000000E+03  0.17120000000E+03 0.  0.
         13    1    1    2    0    0 -0.13978128338E+02  0.13958144976E+01  0.59444494407E+02  0.61081874965E+02  0.10566000000E+00 0.  1.
        994    1    1    2    0    0  0.15786914346E+02  0.46061087001E+01  0.24918898945E+01  0.17200608250E+03  0.17120000000E+03 0.  0.
        998    1    1    2    0    0 -0.18087860082E+01 -0.60019231978E+01  0.14380636120E+04  0.14381120425E+04  0.10000000000E+02 0.  1.
</event>
<event>
 5    1  0.1574792E-008  0.3804636E+03  0.7957747E-01  0.3449142E+00
         13   -1    0    0    0    0  0.00000000000E+00  0.00000000000E+00  0.14999999963E+04  0.15000000000E+04  0.10566000000E+00 0. -1.
        994   -1    0    0    0    0 -0.00000000000E+00 -0.00000000000E+00  0.11368683772E-12  0.17120000000E+03  0.17120000000E+03 0.  0.
         13    1    1    2    0    0 -0.80558489975E+01  0.49555602099E+02  0.25445023470E+03  0.25935610174E+03  0.10566000000E+00 0. -1.
        994    1    1    2    0    0 -0.83529514033E+01 -0.59414280994E+02  0.16009724895E+02  0.18211419460E+03  0.17120000000E+03 0.  0.
        998    1    1    2    0    0  0.16408800401E+02  0.98586788947E+01  0.12295400367E+04  0.12297297037E+04  0.10000000000E+02 0. -1.
</event>
<event>
 5    1  0.1717623E-008  0.3860204E+03  0.7957747E-01  0.3425356E+00
         13   -1    0    0    0    0  0.00000000000E+00  0.00000000000E+00  0.14999999963E+04  0.15000000000E+04  0.10566000000E+00 0.  1.
        994   -1    0    0    0    0 -0.00000000000E+00 -0.00000000000E+00  0.11368683772E-12  0.17120000000E+03  0.17120000000E+03 0.  0.
         13    1    1    2    0    0 -0.25666236109E+01 -0.11112805864E+02  0.59103757718E+02  0.60194246830E+02  0.10566000000E+00 0.  1.
        994    1    1    2    0    0  0.51084357719E+01  0.53406701745E+01  0.13034331071E+01  0.17136440065E+03  0.17120000000E+03 0.  0.
        998    1    1    2    0    0 -0.25418121610E+01  0.57721356899E+01  0.14395928055E+04  0.14396413525E+04  0.10000000000E+02 0.  1.
</event>
<event>
 5    1  0.1574792E-008  0.3822367E+03  0.7957747E-01  0.3441477E+00
         13   -1    0    0    0    0  0.00000000000E+00  0.00000000000E+00  0.14999999963E+04  0.15000000000E+04  0.10566000000E+00 0.  1.
        994   -1    0    0    0    0 -0.00000000000E+00 -0.00000000000E+00  0.11368683772E-12  0.17120000000E+03  0.17120000000E+03 0.  0.
         13    1    1    2    0    0 -0.21574637579E+02  0.13307928185E+02  0.99705948645E+02  0.10287785621E+03  0.10566000000E+00 0.  1.
        994    1    1    2    0    0  0.18608048665E+02 -0.18983260324E+02  0.53566833989E+01  0.17333423697E+03  0.17120000000E+03 0.  0.
        998    1    1    2    0    0  0.29665889135E+01  0.56753321391E+01  0.13949373642E+04  0.13949879068E+04  0.10000000000E+02 0.  1.
</event>
<event>
 5    1  0.1574792E-008  0.3848165E+03  0.7957747E-01  0.3430451E+00
         13   -1    0    0    0    0  0.00000000000E+00  0.00000000000E+00  0.14999999963E+04  0.15000000000E+04  0.10566000000E+00 0. -1.
        994   -1    0    0    0    0 -0.00000000000E+00 -0.00000000000E+00  0.11368683772E-12  0.17120000000E+03  0.17120000000E+03 0.  0.
         13    1    1    2    0    0 -0.67516504349E+01 -0.10039916095E+02  0.42811976259E+02  0.44488888209E+02  0.10566000000E+00 0. -1.
        994    1    1    2    0    0  0.72245479529E+01  0.22924687541E+01  0.19103141045E+01  0.17137834988E+03  0.17120000000E+03 0.  0.
        998    1    1    2    0    0 -0.47289751804E+00  0.77474473405E+01  0.14552777059E+04  0.14553327619E+04  0.10000000000E+02 0. -1.
</event>
<event>
 5    1  0.1574792E-008  0.3731811E+03  0.7957747E-01  0.3481398E+00
         13   -1    0    0    0    0  0.00000000000E+00  0.00000000000E+00  0.14999999963E+04  0.15000000000E+04  0.10566000000E+00 0.  1.
        994   -1    0    0    0    0 -0.00000000000E+00 -0.00000000000E+00  0.11368683772E-12  0.17120000000E+03  0.17120000000E+03 0.  0.
         13    1    1    2    0    0  0.67496532602E+01  0.76084430836E+01  0.32344415207E+01  0.10673284465E+02  0.10566000000E+00 0.  1.
        994    1    1    2    0    0 -0.53461706458E+01 -0.69204768156E+01  0.78773410871E+01  0.17160409973E+03  0.17120000000E+03 0.  0.
        998    1    1    2    0    0 -0.14034826144E+01 -0.68796626801E+00  0.14888882137E+04  0.14889226158E+04  0.10000000000E+02 0.  1.
</event>
<event>
 5    1  0.1574792E-008  0.3825960E+03  0.7957747E-01  0.3439932E+00
         13   -1    0    0    0    0  0.00000000000E+00  0.00000000000E+00  0.14999999963E+04  0.15000000000E+04  0.10566000000E+00 0.  1.
        994   -1    0    0    0    0 -0.00000000000E+00 -0.00000000000E+00  0.11368683772E-12  0.17120000000E+03  0.17120000000E+03 0.  0.
         13    1    1    2    0    0 -0.12097033317E+02 -0.17939234455E+01  0.25521104851E+02  0.28300076560E+02  0.10566000000E+00 0.  1.
        994    1    1    2    0    0  0.74095432149E+01 -0.17733335222E+01  0.30208030551E+01  0.17139606557E+03  0.17120000000E+03 0.  0.
        998    1    1    2    0    0  0.46874901025E+01  0.35672569677E+01  0.14714580884E+04  0.14715038579E+04  0.10000000000E+02 0.  1.
</event>
<event>
 5    1  0.1574792E-008  0.3704703E+03  0.7957747E-01  0.3493732E+00
         13   -1    0    0    0    0  0.00000000000E+00  0.00000000000E+00  0.14999999963E+04  0.15000000000E+04  0.10566000000E+00 0. -1.
        994   -1    0    0    0    0 -0.00000000000E+00 -0.00000000000E+00  0.11368683772E-12  0.17120000000E+03  0.17120000000E+03 0.  0.
         13    1    1    2    0    0  0.78549481939E+01 -0.83835190514E+01  0.30900663250E+01  0.11897196171E+02  0.10566000000E+00 0. -1.
        994    1    1    2    0    0 -0.89205158736E+01  0.87663516710E+01  0.95636193342E+01  0.17192244571E+03  0.17120000000E+03 0.  0.
        998    1    1    2    0    0  0.10655676796E+01 -0.38283261959E+00  0.14873463106E+04  0.14873803581E+04  0.10000000000E+02 0. -1.
</event>
<event>
 5    1  0.1574792E-008  0.3826278E+03  0.7957747E-01  0.3439796E+00
         13   -1    0    0    0    0  0.00000000000E+00  0.00000000000E+00  0.14999999963E+04  0.15000000000E+04  0.10566000000E+00 0. -1.
        994   -1    0    0    0    0 -0.00000000000E+00 -0.00000000000E+00  0.11368683772E-12  0.17120000000E+03  0.17120000000E+03 0.  0.
         13    1    1    2    0    0 -0.19752552828E+02  0.55250848569E-01  0.67894448678E+02  0.70709502340E+02  0.10566000000E+00 0. -1.
        994    1    1    2    0    0  0.14431206417E+02 -0.61237580198E+01  0.36273757895E+01  0.17195452302E+03  0.17120000000E+03 0.  0.
        998    1    1    2    0    0  0.53213464113E+01  0.60685071712E+01  0.14284781718E+04  0.14285359746E+04  0.10000000000E+02 0. -1.
</event>
<event>
 5    1  0.1574792E-008  0.3761579E+03  0.7957747E-01  0.3468060E+00
         13   -1    0    0    0    0  0.00000000000E+00  0.00000000000E+00  0.14999999963E+04  0.15000000000E+04  0.10566000000E+00 0. -1.
        994   -1    0    0    0    0 -0.00000000000E+00 -0.00000000000E+00  0.11368683772E-12  0.17120000000E+03  0.17120000000E+03 0.  0.
         13    1    1    2    0    0 -0.34843543245E+02 -0.18441188272E+02  0.14608931454E+03  0.15131506507E+03  0.10566000000E+00 0. -1.
        994    1    1    2    0    0 -0.78794869615E+00 -0.84628270507E+01  0.63299495847E+01  0.17152769038E+03  0.17120000000E+03 0.  0.
        998    1    1    2    0    0  0.35631491941E+02  0.26904015323E+02  0.13475807322E+04  0.13483572445E+04  0.10000000000E+02 0. -1.
</event>
<event>
 5    1  0.1574792E-008  0.2726260E+03  0.7957747E-01  0.4113163E+00
         13   -1    0    0    0    0  0.00000000000E+00  0.00000000000E+00  0.14999999963E+04  0.15000000000E+04  0.10566000000E+00 0. -1.
        994   -1    0    0    0    0 -0.00000000000E+00 -0.00000000000E+00  0.11368683772E-12  0.17120000000E+03  0.17120000000E+03 0.  0.
         13    1    1    2    0    0  0.44254387100E+02 -0.19172598911E+03  0.41584573288E+03  0.46004890001E+03  0.10566000000E+00 0. -1.
        994    1    1    2    0    0 -0.34089258633E+02  0.18133601635E+03  0.18636164417E+03  0.31318513821E+03  0.17120000000E+03 0.  0.
        998    1    1    2    0    0 -0.10165128467E+02  0.10389972763E+02  0.89779261923E+03  0.89796596178E+03  0.10000000000E+02 0. -1.
</event>
<event>
 5    1  0.1574792E-008  0.3815880E+03  0.7957747E-01  0.3444273E+00
         13   -1    0    0    0    0  0.00000000000E+00  0.00000000000E+00  0.14999999963E+04  0.15000000000E+04  0.10566000000E+00 0. -1.
        994   -1    0    0    0    0 -0.00000000000E+00 -0.00000000000E+00  0.11368683772E-12  0.17120000000E+03  0.17120000000E+03 0.  0.
         13    1    1    2    0    0  0.21012261762E+02 -0.30620535248E+02  0.21943114808E+03  0.22255150467E+03  0.10566000000E+00 0. -1.
        994    1    1    2    0    0 -0.10124276185E+02  0.10096727061E+02  0.40138544093E+01  0.17184293961E+03  0.17120000000E+03 0.  0.
        998    1    1    2    0    0 -0.10887985577E+02  0.20523808187E+02  0.12765549938E+04  0.12768055557E+04  0.10000000000E+02 0. -1.
</event>
<event>
 5    1  0.1574792E-008  0.3766791E+03  0.7957747E-01  0.3465747E+00
         13   -1    0    0    0    0  0.00000000000E+00  0.00000000000E+00  0.14999999963E+04  0.15000000000E+04  0.10566000000E+00 0.  1.
        994   -1    0    0    0    0 -0.00000000000E+00 -0.00000000000E+00  0.11368683772E-12  0.17120000000E+03  0.17120000000E+03 0.  0.
         13    1    1    2    0    0  0.16697100783E+01  0.10741376574E+02  0.75299216268E+01  0.13224068443E+02  0.10566000000E+00 0.  1.
        994    1    1    2    0    0  0.31262056483E+01 -0.69644400055E+01  0.60159945350E+01  0.17147567984E+03  0.17120000000E+03 0.  0.
        998    1    1    2    0    0 -0.47959157266E+01 -0.37769365687E+01  0.14864540801E+04  0.14865002517E+04  0.10000000000E+02 0.  1.
</event>
<event>
 5    1  0.1574792E-008  0.3794627E+03  0.7957747E-01  0.3453501E+00
         13   -1    0    0    0    0  0.00000000000E+00  0.00000000000E+00  0.14999999963E+04  0.15000000000E+04  0.10566000000E+00 0. -1.
        994   -1    0    0    0    0 -0.00000000000E+00 -0.00000000000E+00  0.11368683772E-12  0.17120000000E+03  0.17120000000E+03 0.  0.
         13    1    1    2    0    0  0.22666408166E+02 -0.20321906712E+02  0.98259310467E+02  0.10286714349E+03  0.10566000000E+00 0. -1.
        994    1    1    2    0    0 -0.20912753197E+02  0.20649322210E+02  0.73025410977E+01  0.17385771441E+03  0.17120000000E+03 0.  0.
        998    1    1    2    0    0 -0.17536549682E+01 -0.32741549837E+00  0.13944381447E+04  0.13944751421E+04  0.10000000000E+02 0. -1.
</event>
<event>
 5    1  0.1574792E-008  0.3805071E+03  0.7957747E-01  0.3448953E+00
         13   -1    0    0    0    0  0.00000000000E+00  0.00000000000E+00  0.14999999963E+04  0.15000000000E+04  0.10566000000E+00 0. -1.
        994   -1    0    0    0    0 -0.00000000000E+00 -0.00000000000E+00  0.11368683772E-12  0.17120000000E+03  0.17120000000E+03 0.  0.
         13    1    1    2    0    0  0.30193971129E+01 -0.10770647350E+02  0.14273665098E+02  0.18134836162E+02  0.10566000000E+00 0. -1.
        994    1    1    2    0    0 -0.90435214561E+01  0.11591754462E+02  0.45990710625E+01  0.17189166794E+03  0.17120000000E+03 0.  0.
        998    1    1    2    0    0  0.60241243433E+01 -0.82110711213E+00  0.14811272601E+04  0.14811734959E+04  0.10000000000E+02 0. -1.
</event>
<event>
 5    1  0.1574792E-008  0.3804930E+03  0.7957747E-01  0.3449015E+00
         13   -1    0    0    0    0  0.00000000000E+00  0.00000000000E+00  0.14999999963E+04  0.15000000000E+04  0.10566000000E+00 0.  1.
        994   -1    0    0    0    0 -0.00000000000E+00 -0.00000000000E+00  0.11368683772E-12  0.17120000000E+03  0.17120000000E+03 0.  0.
         13    1    1    2    0    0  0.12774543425E+01 -0.30536389301E+02  0.12459374096E+03  0.12828762376E+03  0.10566000000E+00 0.  1.
        994    1    1    2    0    0 -0.52808244285E+01  0.10265681171E+02  0.43294197037E+01  0.17164339542E+03  0.17120000000E+03 0.  0.
        998    1    1    2    0    0  0.40033700860E+01  0.20270708131E+02  0.13710768356E+04  0.13712689808E+04  0.10000000000E+02 0.  1.
</event>
<event>
 5    1  0.1574792E-008  0.3774064E+03  0.7957747E-01  0.3462530E+00
         13   -1    0    0    0    0  0.00000000000E+00  0.00000000000E+00  0.14999999963E+04  0.15000000000E+04  0.10566000000E+00 0. -1.
        994   -1    0    0    0    0 -0.00000000000E+00 -0.00000000000E+00  0.11368683772E-12  0.17120000000E+03  0.17120000000E+03 0.  0.
         13    1    1    2    0    0  0.20637388459E+02 -0.15132671809E+02  0.61240320174E+02  0.66372340154E+02  0.10566000000E+00 0. -1.
        994    1    1    2    0    0 -0.24676405296E+01 -0.15492735126E+00  0.54687477579E+01  0.17130516762E+03  0.17120000000E+03 0.  0.
        998    1    1    2    0    0 -0.18169747929E+02  0.15287599161E+02  0.14332909283E+04  0.14335224922E+04  0.10000000000E+02 0. -1.
</event>
<event>
 5    1  0.1574792E-008  0.3836148E+03  0.7957747E-01  0.3435568E+00
         13   -1    0    0    0    0  0.00000000000E+00  0.00000000000E+00  0.14999999963E+04  0.15000000000E+04  0.10566000000E+00 0. -1.
        994   -1    0    0    0    0 -0.00000000000E+00 -0.00000000000E+00  0.11368683772E-12  0.17120000000E+03  0.17120000000E+03 0.  0.
         13    1    1    2    0    0 -0.47412734212E+02 -0.30491881834E+02  0.81888166032E+02  0.99415316342E+02  0.10566000000E+00 0. -1.
        994    1    1    2    0    0  0.19740720509E+02  0.30065543382E+02  0.23092370673E+02  0.17645489658E+03  0.17120000000E+03 0.  0.
        998    1    1    2    0    0  0.27672013703E+02  0.42633845177E+00  0.13950194596E+04  0.13953297871E+04  0.10000000000E+02 0. -1.
</event>
<event>
 5    1  0.1574792E-008  0.3727082E+03  0.7957747E-01  0.3483536E+00
         13   -1    0    0    0    0  0.00000000000E+00  0.00000000000E+00  0.14999999963E+04  0.15000000000E+04  0.10566000000E+00 0. -1.
        994   -1    0    0    0    0 -0.00000000000E+00 -0.00000000000E+00  0.11368683772E-12  0.17120000000E+03  0.17120000000E+03 0.  0.
         13    1    1    2    0    0  0.46666528091E+02 -0.54181718475E+01  0.15326695514E+03  0.16030562102E+03  0.10566000000E+00 0. -1.
        994    1    1    2    0    0 -0.63557897158E+01 -0.11323757728E+00  0.79987823957E+01  0.17150460462E+03  0.17120000000E+03 0.  0.
        998    1    1    2    0    0 -0.40310738375E+02  0.55314094248E+01  0.13387342587E+04  0.13393897744E+04  0.10000000000E+02 0. -1.
</event>
<event>
 5    1  0.1574792E-008  0.3833266E+03  0.7957747E-01  0.3436801E+00
         13   -1    0    0    0    0  0.00000000000E+00  0.00000000000E+00  0.14999999963E+04  0.15000000000E+04  0.10566000000E+00 0.  1.
        994   -1    0    0    0    0 -0.00000000000E+00 -0.00000000000E+00  0.11368683772E-12  0.17120000000E+03  0.17120000000E+03 0.  0.
         13    1    1    2    0    0 -0.10343887914E+02  0.32442621145E+01  0.23302299169E+02  0.25700769725E+02  0.10566000000E+00 0.  1.
        994    1    1    2    0    0  0.50256674679E+01  0.38786974615E+01  0.25965258678E+01  0.17133733853E+03  0.17120000000E+03 0.  0.
        998    1    1    2    0    0  0.53182204458E+01 -0.71229595760E+01  0.14741011712E+04  0.14741618917E+04  0.10000000000E+02 0.  1.
</event>
<event>
 5    1  0.1574792E-008  0.3844971E+03  0.7957747E-01  0.3431808E+00
         13   -1    0    0    0    0  0.00000000000E+00  0.00000000000E+00  0.14999999963E+04  0.15000000000E+04  0.10566000000E+00 0. -1.
        994   -1    0    0    0    0 -0.00000000000E+00 -0.00000000000E+00  0.11368683772E-12  0.17120000000E+03  0.17120000000E+03 0.  0.
         13    1    1    2    0    0  0.11278024762E+02 -0.10149490980E+02  0.62785711387E+02  0.64593054798E+02  0.10566000000E+00 0. -1.
        994    1    1    2    0    0 -0.53648109150E+01  0.15349735223E+01  0.19825974025E+01  0.17130238770E+03  0.17120000000E+03 0.  0.
        998    1    1    2    0    0 -0.59132138466E+01  0.86145174579E+01  0.14352316875E+04  0.14353045575E+04  0.10000000000E+02 0. -1.
</event>
<event>
 5    1  0.1574792E-008  0.3793703E+03  0.7957747E-01  0.3453905E+00
         13   -1    0    0    0    0  0.00000000000E+00  0.00000000000E+00  0.14999999963E+04  0.15000000000E+04  0.10566000000E+00 0. -1.
        994   -1    0    0    0    0 -0.00000000000E+00 -0.00000000000E+00  0.11368683772E-12  0.17120000000E+03  0.17120000000E+03 0.  0.
         13    1    1    2    0    0  0.97330292907E+02 -0.66077175708E+01  0.23404758712E+03  0.25356484782E+03  0.10566000000E+00 0. -1.
        994    1    1    2    0    0 -0.10519910440E+03  0.29940752944E+02  0.60617960299E+02  0.21200772949E+03  0.17120000000E+03 0.  0.
        998    1    1    2    0    0  0.78688114920E+01 -0.23333035374E+02  0.12053344489E+04  0.12056274227E+04  0.10000000000E+02 0. -1.
</event>
<event>
 5    1  0.1574792E-008  0.3742654E+03  0.7957747E-01  0.3476515E+00
         13   -1    0    0    0    0  0.00000000000E+00  0.00000000000E+00  0.14999999963E+04  0.15000000000E+04  0.10566000000E+00 0. -1.
        994   -1    0    0    0    0 -0.00000000000E+00 -0.00000000000E+00  0.11368683772E-12  0.17120000000E+03  0.17120000000E+03 0.  0.
         13    1    1    2    0    0 -0.27474949462E+02 -0.17466635266E+02  0.75228069202E+02  0.81970907982E+02  0.10566000000E+00 0. -1.
        994    1    1    2    0    0  0.62325617544E+01  0.97858989876E+01  0.75152831141E+01  0.17175717780E+03  0.17120000000E+03 0.  0.
        998    1    1    2    0    0  0.21242387708E+02  0.76807362787E+01  0.14172566440E+04  0.14174719142E+04  0.10000000000E+02 0. -1.
</event>
<event>
 5    1  0.1574792E-008  0.3841698E+03  0.7957747E-01  0.3433201E+00
         13   -1    0    0    0    0  0.00000000000E+00  0.00000000000E+00  0.14999999963E+04  0.15000000000E+04  0.10566000000E+00 0.  1.
        994   -1    0    0    0    0 -0.00000000000E+00 -0.00000000000E+00  0.11368683772E-12  0.17120000000E+03  0.17120000000E+03 0.  0.
         13    1    1    2    0    0  0.12816383142E+02 -0.94111091821E+01  0.58655782821E+02  0.60772861339E+02  0.10566000000E+00 0.  1.
        994    1    1    2    0    0 -0.16572414816E+02  0.99248089649E+01  0.32743022500E+01  0.17231746232E+03  0.17120000000E+03 0.  0.
        998    1    1    2    0    0  0.37560316745E+01 -0.51369978282E+00  0.14380699112E+04  0.14381096763E+04  0.10000000000E+02 0.  1.
</event>
<event>
 5    1  0.1574792E-008  0.3816114E+03  0.7957747E-01  0.3444172E+00
         13   -1    0    0    0    0  0.00000000000E+00  0.00000000000E+00  0.14999999963E+04  0.15000000000E+04  0.10566000000E+00 0. -1.
        994   -1    0    0    0    0 -0.00000000000E+00 -0.00000000000E+00  0.11368683772E-12  0.17120000000E+03  0.17120000000E+03 0.  0.
         13    1    1    2    0    0 -0.21320910963E+02  0.15303114052E+02  0.11200871353E+03  0.11504229490E+03  0.10566000000E+00 0. -1.
        994    1    1    2    0    0  0.31686063967E+01  0.17949249020E+01  0.33660262205E+01  0.17127180724E+03  0.17120000000E+03 0.  0.
        998    1    1    2    0    0  0.18152304566E+02 -0.17098038954E+02  0.13846252565E+04  0.13848858979E+04  0.10000000000E+02 0. -1.
</event>
<event>
 5    1  0.1574792E-008  0.3737780E+03  0.7957747E-01  0.3478706E+00
         13   -1    0    0    0    0  0.00000000000E+00  0.00000000000E+00  0.14999999963E+04  0.15000000000E+04  0.10566000000E+00 0. -1.
        994   -1    0    0    0    0 -0.00000000000E+00 -0.00000000000E+00  0.11368683772E-12  0.17120000000E+03  0.17120000000E+03 0.  0.
         13    1    1    2    0    0  0.55221806524E+02  0.13734254013E+02  0.20325410417E+03  0.21106946647E+03  0.10566000000E+00 0. -1.
        994    1    1    2    0    0 -0.42404892551E+02 -0.21042290211E+02  0.14995429307E+02  0.17825615218E+03  0.17120000000E+03 0.  0.
        998    1    1    2    0    0 -0.12816913973E+02  0.73080361986E+01  0.12817504628E+04  0.12818743813E+04  0.10000000000E+02 0. -1.
</event>
<event>
 5    1  0.1574792E-008  0.3684570E+03  0.7957747E-01  0.3503012E+00
         13   -1    0    0    0    0  0.00000000000E+00  0.00000000000E+00  0.14999999963E+04  0.15000000000E+04  0.10566000000E+00 0. -1.
        994   -1    0    0    0    0 -0.00000000000E+00 -0.00000000000E+00  0.11368683772E-12  0.17120000000E+03  0.17120000000E+03 0.  0.
         13    1    1    2    0    0  0.48485905570E+02  0.54673994624E+02  0.20465814470E+03  0.21731335920E+03  0.10566000000E+00 0. -1.
        994    1    1    2    0    0 -0.10838776872E+03 -0.29040937274E+02  0.55220028520E+02  0.21201409386E+03  0.17120000000E+03 0.  0.
        998    1    1    2    0    0  0.59901863149E+02 -0.25633057350E+02  0.12401218231E+04  0.12418725469E+04  0.10000000000E+02 0. -1.
</event>
<event>
 5    1  0.1574792E-008  0.3712049E+03  0.7957747E-01  0.3490371E+00
         13   -1    0    0    0    0  0.00000000000E+00  0.00000000000E+00  0.14999999963E+04  0.15000000000E+04  0.10566000000E+00 0. -1.
        994   -1    0    0    0    0 -0.00000000000E+00 -0.00000000000E+00  0.11368683772E-12  0.17120000000E+03  0.17120000000E+03 0.  0.
         13    1    1    2    0    0  0.23060533341E+02 -0.20795514114E+02  0.36742266963E+02  0.48106620655E+02  0.10566000000E+00 0. -1.
        994    1    1    2    0    0 -0.19881426016E+02  0.15278900562E+02  0.13787764724E+02  0.17357493586E+03  0.17120000000E+03 0.  0.
        998    1    1    2    0    0 -0.31791073243E+01  0.55166135519E+01  0.14494699646E+04  0.14495184435E+04  0.10000000000E+02 0. -1.
</event>
<event>
 5    1  0.1574792E-008  0.3765865E+03  0.7957747E-01  0.3466157E+00
         13   -1    0    0    0    0  0.00000000000E+00  0.00000000000E+00  0.14999999963E+04  0.15000000000E+04  0.10566000000E+00 0. -1.
        994   -1    0    0    0    0 -0.00000000000E+00 -0.00000000000E+00  0.11368683772E-12  0.17120000000E+03  0.17120000000E+03 0.  0.
         13    1    1    2    0    0  0.15003406411E+02  0.28638159652E+02  0.29131888435E+02  0.43519242641E+02  0.10566000000E+00 0. -1.
        994    1    1    2    0    0 -0.33782503240E+02 -0.27034988107E+02  0.21194881642E+02  0.17785053026E+03  0.17120000000E+03 0.  0.
        998    1    1    2    0    0  0.18779096829E+02 -0.16031715455E+01  0.14496732262E+04  0.14498302271E+04  0.10000000000E+02 0. -1.
</event>
<event>
 5    1  0.1574792E-008  0.3818690E+03  0.7957747E-01  0.3443060E+00
         13   -1    0    0    0    0  0.00000000000E+00  0.00000000000E+00  0.14999999963E+04  0.15000000000E+04  0.10566000000E+00 0. -1.
        994   -1    0    0    0    0 -0.00000000000E+00 -0.00000000000E+00  0.11368683772E-12  0.17120000000E+03  0.17120000000E+03 0.  0.
         13    1    1    2    0    0  0.20552486075E+02  0.11759019316E+02  0.81825678430E+02  0.85182932761E+02  0.10566000000E+00 0. -1.
        994    1    1    2    0    0 -0.17380522193E+02 -0.22319511947E+02  0.58558982933E+01  0.17362020248E+03  0.17120000000E+03 0.  0.
        998    1    1    2    0    0 -0.31719638823E+01  0.10560492632E+02  0.14123184196E+04  0.14123968648E+04  0.10000000000E+02 0. -1.
</event>
<event>
 5    1  0.1574792E-008  0.3806612E+03  0.7957747E-01  0.3448285E+00
         13   -1    0    0    0    0  0.00000000000E+00  0.00000000000E+00  0.14999999963E+04  0.15000000000E+04  0.10566000000E+00 0.  1.
        994   -1    0    0    0    0 -0.00000000000E+00 -0.00000000000E+00  0.11368683772E-12  0.17120000000E+03  0.17120000000E+03 0.  0.
         13    1    1    2    0    0  0.12103244635E+02  0.44412266186E+01  0.21424156867E+02  0.25004373339E+02  0.10566000000E+00 0.  1.
        994    1    1    2    0    0  0.18222206949E+02 -0.20150757514E+02  0.62657023087E+01  0.17345547233E+03  0.17120000000E+03 0.  0.
        998    1    1    2    0    0 -0.30325451584E+02  0.15709530895E+02  0.14723101371E+04  0.14727401543E+04  0.10000000000E+02 0.  1.
</event>
<event>
 5    1  0.1574792E-008  0.3616280E+03  0.7957747E-01  0.3535275E+00
         13   -1    0    0    0    0  0.00000000000E+00  0.00000000000E+00  0.14999999963E+04  0.15000000000E+04  0.10566000000E+00 0.  1.
        994   -1    0    0    0    0 -0.00000000000E+00 -0.00000000000E+00  0.11368683772E-12  0.17120000000E+03  0.17120000000E+03 0.  0.
         13    1    1    2    0    0 -0.15661130499E+03 -0.17144240854E+03  0.10971269491E+04  0.11214308511E+04  0.10566000000E+00 0.  1.
        994    1    1    2    0    0  0.13847610300E+03  0.15922645134E+03  0.18076850775E+03  0.32636695192E+03  0.17120000000E+03 0.  0.
        998    1    1    2    0    0  0.18135201989E+02  0.12215957205E+02  0.22210453945E+03  0.22340219695E+03  0.10000000000E+02 0.  1.
</event>
<event>
 5    1  0.1574792E-008  0.3774427E+03  0.7957747E-01  0.3462370E+00
         13   -1    0    0    0    0  0.00000000000E+00  0.00000000000E+00  0.14999999963E+04  0.15000000000E+04  0.10566000000E+00 0.  1.
        994   -1    0    0    0    0 -0.00000000000E+00 -0.00000000000E+00  0.11368683772E-12  0.17120000000E+03  0.17120000000E+03 0.  0.
         13    1    1    2    0    0 -0.20711594030E+02 -0.44664560917E+02  0.21448319064E+03  0.22006122639E+03  0.10566000000E+00 0.  1.
        994    1    1    2    0    0  0.36861401535E+02  0.20147465994E+02  0.11402385142E+02  0.17664692948E+03  0.17120000000E+03 0.  0.
        998    1    1    2    0    0 -0.16149807505E+02  0.24517094924E+02  0.12741144205E+04  0.12744918441E+04  0.10000000000E+02 0.  1.
</event>
<event>
 5    1  0.1574792E-008  0.3702046E+03  0.7957747E-01  0.3494951E+00
         13   -1    0    0    0    0  0.00000000000E+00  0.00000000000E+00  0.14999999963E+04  0.15000000000E+04  0.10566000000E+00 0. -1.
        994   -1    0    0    0    0 -0.00000000000E+00 -0.00000000000E+00  0.11368683772E-12  0.17120000000E+03  0.17120000000E+03 0.  0.
         13    1    1    2    0    0 -0.59362598052E+02 -0.12624941960E+03  0.57418256209E+03  0.59088785719E+03  0.10566000000E+00 0. -1.
        994    1    1    2    0    0  0.56595550899E+02  0.11513874088E+03  0.71076147740E+02  0.22543567777E+03  0.17120000000E+03 0.  0.
        998    1    1    2    0    0  0.27670471532E+01  0.11110678723E+02  0.85474128645E+03  0.85487646505E+03  0.10000000000E+02 0.  0.
</event>
<event>
 5    1  0.1574792E-008  0.3685711E+03  0.7957747E-01  0.3502484E+00
         13   -1    0    0    0    0  0.00000000000E+00  0.00000000000E+00  0.14999999963E+04  0.15000000000E+04  0.10566000000E+00 0. -1.
        994   -1    0    0    0    0 -0.00000000000E+00 -0.00000000000E+00  0.11368683772E-12  0.17120000000E+03  0.17120000000E+03 0.  0.
         13    1    1    2    0    0  0.79808585571E+01 -0.16594036987E+02  0.12556225957E+02  0.22287353839E+02  0.10566000000E+00 0. -1.
        994    1    1    2    0    0  0.54958399474E+01  0.15969775948E+02  0.11009597802E+02  0.17238297261E+03  0.17120000000E+03 0.  0.
        998    1    1    2    0    0 -0.13476698504E+02  0.62426103865E+00  0.14764341725E+04  0.14765296736E+04  0.10000000000E+02 0. -1.
</event>
<event>
 5    1  0.1574792E-008  0.3863718E+03  0.7957747E-01  0.3423875E+00
         13   -1    0    0    0    0  0.00000000000E+00  0.00000000000E+00  0.14999999963E+04  0.15000000000E+04  0.10566000000E+00 0.  1.
        994   -1    0    0    0    0 -0.00000000000E+00 -0.00000000000E+00  0.11368683772E-12  0.17120000000E+03  0.17120000000E+03 0.  0.
         13    1    1    2    0    0  0.19253435476E+00 -0.10673902772E+02  0.58041587387E+02  0.59015305644E+02  0.10566000000E+00 0.  1.
        994    1    1    2    0    0  0.15810428007E+02  0.14505283335E+02  0.24593292792E+01  0.17255683463E+03  0.17120000000E+03 0.  0.
        998    1    1    2    0    0 -0.16002962362E+02 -0.38313805628E+01  0.14394990796E+04  0.14396278597E+04  0.10000000000E+02 0.  1.
</event>
<event>
 5    1  0.1574792E-008  0.3767999E+03  0.7957747E-01  0.3465212E+00
         13   -1    0    0    0    0  0.00000000000E+00  0.00000000000E+00  0.14999999963E+04  0.15000000000E+04  0.10566000000E+00 0.  1.
        994   -1    0    0    0    0 -0.00000000000E+00 -0.00000000000E+00  0.11368683772E-12  0.17120000000E+03  0.17120000000E+03 0.  0.
         13    1    1    2    0    0  0.33827310397E+02  0.76113396155E+02  0.45954324341E+03  0.46703055546E+03  0.10566000000E+00 0.  1.
        994    1    1    2    0    0 -0.41116524731E+02 -0.63048053834E+02  0.25145964441E+02  0.18869919244E+03  0.17120000000E+03 0.  0.
        998    1    1    2    0    0  0.72892143343E+01 -0.13065342321E+02  0.10153107884E+04  0.10154702521E+04  0.10000000000E+02 0.  1.
</event>
<event>
 5    1  0.1574792E-008  0.3794458E+03  0.7957747E-01  0.3453575E+00
         13   -1    0    0    0    0  0.00000000000E+00  0.00000000000E+00  0.14999999963E+04  0.15000000000E+04  0.10566000000E+00 0.  1.
        994   -1    0    0    0    0 -0.00000000000E+00 -0.00000000000E+00  0.11368683772E-12  0.17120000000E+03  0.17120000000E+03 0.  0.
         13    1    1    2    0    0  0.18711632213E+02 -0.96072888683E+01  0.48658343803E+02  0.53010100595E+02  0.10566000000E+00 0.  1.
        994    1    1    2    0    0 -0.88366502235E+01  0.10401446829E+02  0.50372789245E+01  0.17181702669E+03  0.17120000000E+03 0.  0.
        998    1    1    2    0    0 -0.98749819899E+01 -0.79415796029E+00  0.14463043736E+04  0.14463728727E+04  0.10000000000E+02 0.  1.
</event>
<event>
 5    1  0.1574792E-008  0.3846160E+03  0.7957747E-01  0.3431302E+00
         13   -1    0    0    0    0  0.00000000000E+00  0.00000000000E+00  0.14999999963E+04  0.15000000000E+04  0.10566000000E+00 0. -1.
        994   -1    0    0    0    0 -0.00000000000E+00 -0.00000000000E+00  0.11368683772E-12  0.17120000000E+03  0.17120000000E+03 0.  0.
         13    1    1    2    0    0 -0.13697443805E+02 -0.94152421489E+01  0.78953322514E+02  0.80683982621E+02  0.10566000000E+00 0. -1.
        994    1    1    2    0    0  0.63139300768E+01 -0.12548489393E+01  0.19573770276E+01  0.17133216769E+03  0.17120000000E+03 0.  0.
        998    1    1    2    0    0  0.73835137279E+01  0.10670091088E+02  0.14190892967E+04  0.14191838497E+04  0.10000000000E+02 0. -1.
</event>
<event>
 5    1  0.1574792E-008  0.3836181E+03  0.7957747E-01  0.3435554E+00
         13   -1    0    0    0    0  0.00000000000E+00  0.00000000000E+00  0.14999999963E+04  0.15000000000E+04  0.10566000000E+00 0.  1.
        994   -1    0    0    0    0 -0.00000000000E+00 -0.00000000000E+00  0.11368683772E-12  0.17120000000E+03  0.17120000000E+03 0.  0.
         13    1    1    2    0    0  0.12525394150E+02 -0.62786349600E+01  0.43670853153E+02  0.45863507658E+02  0.10566000000E+00 0.  1.
        994    1    1    2    0    0 -0.30773218022E+02 -0.57488397901E+02  0.16492663551E+02  0.18393845381E+03  0.17120000000E+03 0.  0.
        998    1    1    2    0    0  0.18247823872E+02  0.63767032861E+02  0.14398364796E+04  0.14413980385E+04  0.10000000000E+02 0.  1.
</event>
<event>
 5    1  0.1574792E-008  0.3731300E+03  0.7957747E-01  0.3481629E+00
         13   -1    0    0    0    0  0.00000000000E+00  0.00000000000E+00  0.14999999963E+04  0.15000000000E+04  0.10566000000E+00 0.  1.
        994   -1    0    0    0    0 -0.00000000000E+00 -0.00000000000E+00  0.11368683772E-12  0.17120000000E+03  0.17120000000E+03 0.  0.
         13    1    1    2    0    0  0.11695336396E+02  0.58192785632E+02  0.22903975124E+03  0.23660600162E+03  0.10566000000E+00 0.  1.
        994    1    1    2    0    0  0.38502195533E+01 -0.35188694503E+02  0.11940721703E+02  0.17522867701E+03  0.17120000000E+03 0.  0.
        998    1    1    2    0    0 -0.15545555950E+02 -0.23004091129E+02  0.12590195233E+04  0.12593653214E+04  0.10000000000E+02 0.  1.
</event>
<event>
 5    1  0.1574792E-008  0.3787464E+03  0.7957747E-01  0.3456635E+00
         13   -1    0    0    0    0  0.00000000000E+00  0.00000000000E+00  0.14999999963E+04  0.15000000000E+04  0.10566000000E+00 0.  1.
        994   -1    0    0    0    0 -0.00000000000E+00 -0.00000000000E+00  0.11368683772E-12  0.17120000000E+03  0.17120000000E+03 0.  0.
         13    1    1    2    0    0  0.13462965377E+03 -0.70589569206E+02  0.88169745754E+03  0.89470578894E+03  0.10566000000E+00 0.  1.
        994    1    1    2    0    0 -0.13288157382E+03  0.74207517689E+02  0.86928289228E+02  0.24501068510E+03  0.17120000000E+03 0.  0.
        998    1    1    2    0    0 -0.17480799490E+01 -0.36179484827E+01  0.53137424951E+03  0.53148352597E+03  0.10000000000E+02 0.  1.
</event>
<event>
 5    1  0.1574792E-008  0.3859765E+03  0.7957747E-01  0.3425541E+00
         13   -1    0    0    0    0  0.00000000000E+00  0.00000000000E+00  0.14999999963E+04  0.15000000000E+04  0.10566000000E+00 0.  1.
        994   -1    0    0    0    0 -0.00000000000E+00 -0.00000000000E+00  0.11368683772E-12  0.17120000000E+03  0.17120000000E+03 0.  0.
         13    1    1    2    0    0  0.10578353276E+02 -0.62229207403E+01  0.67930872879E+02  0.69030724715E+02  0.10566000000E+00 0.  1.
        994    1    1    2    0    0 -0.81166859561E+01 -0.31762103085E+01  0.13951935488E+01  0.17142740582E+03  0.17120000000E+03 0.  0.
        998    1    1    2    0    0 -0.24616673197E+01  0.93991310488E+01  0.14306739299E+04  0.14307418695E+04  0.10000000000E+02 0.  1.
</event>
<event>
 5    1  0.1574792E-008  0.3832785E+03  0.7957747E-01  0.3437006E+00
         13   -1    0    0    0    0  0.00000000000E+00  0.00000000000E+00  0.14999999963E+04  0.15000000000E+04  0.10566000000E+00 0.  1.
        994   -1    0    0    0    0 -0.00000000000E+00 -0.00000000000E+00  0.11368683772E-12  0.17120000000E+03  0.17120000000E+03 0.  0.
         13    1    1    2    0    0 -0.68009031249E+00  0.26741517068E+02  0.14660070164E+03  0.14902130097E+03  0.10566000000E+00 0.  1.
        994    1    1    2    0    0  0.88638839902E+01 -0.12961928758E+02  0.33031195565E+01  0.17195037259E+03  0.17120000000E+03 0.  0.
        998    1    1    2    0    0 -0.81837936777E+01 -0.13779588309E+02  0.13500961751E+04  0.13502283264E+04  0.10000000000E+02 0.  1.
</event>
<event>
 5    1  0.1574792E-008  0.3800418E+03  0.7957747E-01  0.3450977E+00
         13   -1    0    0    0    0  0.00000000000E+00  0.00000000000E+00  0.14999999963E+04  0.15000000000E+04  0.10566000000E+00 0.  1.
        994   -1    0    0    0    0 -0.00000000000E+00 -0.00000000000E+00  0.11368683772E-12  0.17120000000E+03  0.17120000000E+03 0.  0.
         13    1    1    2    0    0 -0.18006148660E+02 -0.11886937056E+02  0.53733347145E+02  0.57903405959E+02  0.10566000000E+00 0.  1.
        994    1    1    2    0    0  0.14489233592E+02  0.15083142226E+02  0.55755303933E+01  0.17256293231E+03  0.17120000000E+03 0.  0.
        998    1    1    2    0    0  0.35169150673E+01 -0.31962051694E+01  0.14406911187E+04  0.14407336617E+04  0.10000000000E+02 0.  1.
</event>
<event>
 5    1  0.1574792E-008  0.3744689E+03  0.7957747E-01  0.3475602E+00
         13   -1    0    0    0    0  0.00000000000E+00  0.00000000000E+00  0.14999999963E+04  0.15000000000E+04  0.10566000000E+00 0. -1.
        994   -1    0    0    0    0 -0.00000000000E+00 -0.00000000000E+00  0.11368683772E-12  0.17120000000E+03  0.17120000000E+03 0.  0.
         13    1    1    2    0    0 -0.15938885292E+01  0.10021506429E+02  0.40894981980E+01  0.10941034288E+02  0.10566000000E+00 0. -1.
        994    1    1    2    0    0 -0.14381456575E+01 -0.15929557874E+02  0.78233459437E+01  0.17212339707E+03  0.17120000000E+03 0.  0.
        998    1    1    2    0    0  0.30320341867E+01  0.59080514446E+01  0.14880871521E+04  0.14881355686E+04  0.10000000000E+02 0. -1.
</event>
<event>
 5    1  0.1574792E-008  0.3768405E+03  0.7957747E-01  0.3465032E+00
         13   -1    0    0    0    0  0.00000000000E+00  0.00000000000E+00  0.14999999963E+04  0.15000000000E+04  0.10566000000E+00 0.  1.
        994   -1    0    0    0    0 -0.00000000000E+00 -0.00000000000E+00  0.11368683772E-12  0.17120000000E+03  0.17120000000E+03 0.  0.
         13    1    1    2    0    0  0.11385838678E+03  0.49048238347E+02  0.67864570301E+03  0.68987641162E+03  0.10566000000E+00 0.  1.
        994    1    1    2    0    0 -0.11609657937E+03 -0.47796401404E+02  0.60990269557E+02  0.22088948529E+03  0.17120000000E+03 0.  0.
        998    1    1    2    0    0  0.22381925909E+01 -0.12518369431E+01  0.76036402371E+03  0.76043410310E+03  0.10000000000E+02 0.  0.
</event>
<event>
 5    1  0.1574792E-008  0.3843892E+03  0.7957747E-01  0.3432267E+00
         13   -1    0    0    0    0  0.00000000000E+00  0.00000000000E+00  0.14999999963E+04  0.15000000000E+04  0.10566000000E+00 0.  1.
        994   -1    0    0    0    0 -0.00000000000E+00 -0.00000000000E+00  0.11368683772E-12  0.17120000000E+03  0.17120000000E+03 0.  0.
         13    1    1    2    0    0 -0.20372413717E+03  0.34007926841E+02  0.86075668221E+03  0.88519045425E+03  0.10566000000E+00 0.  1.
        994    1    1    2    0    0  0.24666473351E+03 -0.41919843710E+02  0.24653639625E+03  0.39075618835E+03  0.17120000000E+03 0.  0.
        998    1    1    2    0    0 -0.42940596342E+02  0.79119168694E+01  0.39270691781E+03  0.39525335740E+03  0.10000000000E+02 0.  1.
</event>
<event>
 5    1  0.1574792E-008  0.3838225E+03  0.7957747E-01  0.3434682E+00
         13   -1    0    0    0    0  0.00000000000E+00  0.00000000000E+00  0.14999999963E+04  0.15000000000E+04  0.10566000000E+00 0. -1.
        994   -1    0    0    0    0 -0.00000000000E+00 -0.00000000000E+00  0.11368683772E-12  0.17120000000E+03  0.17120000000E+03 0.  0.
         13    1    1    2    0    0  0.18789948087E+02 -0.13253121246E+02  0.11982042820E+03  0.12200677666E+03  0.10566000000E+00 0. -1.
        994    1    1    2    0    0 -0.10909218262E+02  0.71066403187E+01  0.27757029421E+01  0.17171680147E+03  0.17120000000E+03 0.  0.
        998    1    1    2    0    0 -0.78807298252E+01  0.61464809274E+01  0.13774038651E+04  0.13774764219E+04  0.10000000000E+02 0. -1.
</event>
<event>
 5    1  0.1574792E-008  0.3779447E+03  0.7957747E-01  0.3460157E+00
         13   -1    0    0    0    0  0.00000000000E+00  0.00000000000E+00  0.14999999963E+04  0.15000000000E+04  0.10566000000E+00 0. -1.
        994   -1    0    0    0    0 -0.00000000000E+00 -0.00000000000E+00  0.11368683772E-12  0.17120000000E+03  0.17120000000E+03 0.  0.
         13    1    1    2    0    0 -0.26418844100E+02  0.15308219132E+02  0.84946760111E+02  0.90267713574E+02  0.10566000000E+00 0. -1.
        994    1    1    2    0    0  0.23819949633E+02 -0.13974859908E+02  0.77455703950E+01  0.17358606099E+03  0.17120000000E+03 0.  0.
        998    1    1    2    0    0  0.25988944679E+01 -0.13333592243E+01  0.14073076658E+04  0.14073462254E+04  0.10000000000E+02 0. -1.
</event>
<event>
 5    1  0.1574792E-008  0.3892135E+03  0.7957747E-01  0.3411997E+00
         13   -1    0    0    0    0  0.00000000000E+00  0.00000000000E+00  0.14999999963E+04  0.15000000000E+04  0.10566000000E+00 0.  1.
        994   -1    0    0    0    0 -0.00000000000E+00 -0.00000000000E+00  0.11368683772E-12  0.17120000000E+03  0.17120000000E+03 0.  0.
         13    1    1    2    0    0 -0.53989511611E+02 -0.21725990275E+02  0.67769599177E+02  0.89328695021E+02  0.10566000000E+00 0.  1.
        994    1    1    2    0    0  0.60148953380E+02  0.14519914109E+02  0.35989492598E+02  0.18556241019E+03  0.17120000000E+03 0.  0.
        998    1    1    2    0    0 -0.61594417693E+01  0.72060761657E+01  0.13962409045E+04  0.13963088948E+04  0.10000000000E+02 0.  1.
</event>
<event>
 5    1  0.1574792E-008  0.3813136E+03  0.7957747E-01  0.3445459E+00
         13   -1    0    0    0    0  0.00000000000E+00  0.00000000000E+00  0.14999999963E+04  0.15000000000E+04  0.10566000000E+00 0. -1.
        994   -1    0    0    0    0 -0.00000000000E+00 -0.00000000000E+00  0.11368683772E-12  0.17120000000E+03  0.17120000000E+03 0.  0.
         13    1    1    2    0    0  0.73376769233E+01 -0.15915860483E+02  0.39412965947E+02  0.43134083581E+02  0.10566000000E+00 0. -1.
        994    1    1    2    0    0  0.30560923854E+02  0.53507058700E+02  0.16214476524E+02  0.18267272551E+03  0.17120000000E+03 0.  0.
        998    1    1    2    0    0 -0.37898600778E+02 -0.37591198217E+02  0.14443725538E+04  0.14453931909E+04  0.10000000000E+02 0. -1.
</event>
<event>
 5    1  0.1574792E-008  0.3831989E+03  0.7957747E-01  0.3437347E+00
         13   -1    0    0    0    0  0.00000000000E+00  0.00000000000E+00  0.14999999963E+04  0.15000000000E+04  0.10566000000E+00 0. -1.
        994   -1    0    0    0    0 -0.00000000000E+00 -0.00000000000E+00  0.11368683772E-12  0.17120000000E+03  0.17120000000E+03 0.  0.
         13    1    1    2    0    0 -0.19781877863E+02 -0.98250320738E+01  0.76026503512E+02  0.79170034402E+02  0.10566000000E+00 0. -1.
        994    1    1    2    0    0  0.48840570165E+02  0.28875117563E+02  0.13249740632E+02  0.18084294107E+03  0.17120000000E+03 0.  0.
        998    1    1    2    0    0 -0.29058692302E+02 -0.19050085489E+02  0.14107237521E+04  0.14111870245E+04  0.10000000000E+02 0. -1.
</event>
<event>
 5    1  0.1574792E-008  0.3820931E+03  0.7957747E-01  0.3442095E+00
         13   -1    0    0    0    0  0.00000000000E+00  0.00000000000E+00  0.14999999963E+04  0.15000000000E+04  0.10566000000E+00 0.  1.
        994   -1    0    0    0    0 -0.00000000000E+00 -0.00000000000E+00  0.11368683772E-12  0.17120000000E+03  0.17120000000E+03 0.  0.
         13    1    1    2    0    0  0.10354930376E+02 -0.84668197972E+01  0.28382489677E+02  0.31376559800E+02  0.10566000000E+00 0.  1.
        994    1    1    2    0    0 -0.22087852649E+02 -0.20613986252E+02  0.61166889283E+01  0.17395304984E+03  0.17120000000E+03 0.  0.
        998    1    1    2    0    0  0.11732922273E+02  0.29080806049E+02  0.14655008177E+04  0.14658703904E+04  0.10000000000E+02 0.  1.
</event>
<event>
 5    1  0.1574792E-008  0.3712804E+03  0.7957747E-01  0.3490027E+00
         13   -1    0    0    0    0  0.00000000000E+00  0.00000000000E+00  0.14999999963E+04  0.15000000000E+04  0.10566000000E+00 0.  1.
        994   -1    0    0    0    0 -0.00000000000E+00 -0.00000000000E+00  0.11368683772E-12  0.17120000000E+03  0.17120000000E+03 0.  0.
         13    1    1    2    0    0  0.92266868817E+01  0.13978381020E+02  0.68091800423E+01  0.18080458612E+02  0.10566000000E+00 0.  1.
        994    1    1    2    0    0 -0.51758241295E+01 -0.14656366929E+02  0.12466322111E+02  0.17235558428E+03  0.17120000000E+03 0.  0.
        998    1    1    2    0    0 -0.40508627522E+01  0.67798590945E+00  0.14807244941E+04  0.14807639571E+04  0.10000000000E+02 0.  1.
</event>
<event>
 5    1  0.1574792E-008  0.3854261E+03  0.7957747E-01  0.3427867E+00
         13   -1    0    0    0    0  0.00000000000E+00  0.00000000000E+00  0.14999999963E+04  0.15000000000E+04  0.10566000000E+00 0.  1.
        994   -1    0    0    0    0 -0.00000000000E+00 -0.00000000000E+00  0.11368683772E-12  0.17120000000E+03  0.17120000000E+03 0.  0.
         13    1    1    2    0    0 -0.15873675446E+01 -0.10532211495E+02  0.38553989112E+02  0.39998355656E+02  0.10566000000E+00 0.  1.
        994    1    1    2    0    0  0.17212969871E+02  0.12277592177E+02  0.28881833421E+01  0.17252480171E+03  0.17120000000E+03 0.  0.
        998    1    1    2    0    0 -0.15625602326E+02 -0.17453806811E+01  0.14585578238E+04  0.14586768426E+04  0.10000000000E+02 0.  1.
</event>
<event>
 5    1  0.1574792E-008  0.3795811E+03  0.7957747E-01  0.3452984E+00
         13   -1    0    0    0    0  0.00000000000E+00  0.00000000000E+00  0.14999999963E+04  0.15000000000E+04  0.10566000000E+00 0. -1.
        994   -1    0    0    0    0 -0.00000000000E+00 -0.00000000000E+00  0.11368683772E-12  0.17120000000E+03  0.17120000000E+03 0.  0.
         13    1    1    2    0    0  0.80909580383E+01 -0.74434430792E+01  0.11943961161E+02  0.16233847945E+02  0.10566000000E+00 0. -1.
        994    1    1    2    0    0 -0.77010211505E+01  0.64001358708E+01  0.46804535698E+01  0.17155644585E+03  0.17120000000E+03 0.  0.
        998    1    1    2    0    0 -0.38993688784E+00  0.10433072084E+01  0.14833755815E+04  0.14834097062E+04  0.10000000000E+02 0. -1.
</event>
<event>
 5    1  0.1574792E-008  0.3831831E+03  0.7957747E-01  0.3437415E+00
         13   -1    0    0    0    0  0.00000000000E+00  0.00000000000E+00  0.14999999963E+04  0.15000000000E+04  0.10566000000E+00 0.  1.
        994   -1    0    0    0    0 -0.00000000000E+00 -0.00000000000E+00  0.11368683772E-12  0.17120000000E+03  0.17120000000E+03 0.  0.
         13    1    1    2    0    0 -0.23131929195E+02 -0.70799184567E+01  0.11218162824E+03  0.11476036020E+03  0.10566000000E+00 0.  1.
        994    1    1    2    0    0  0.19620477888E+02 -0.17988094844E+01  0.38201537106E+01  0.17237236566E+03  0.17120000000E+03 0.  0.
        998    1    1    2    0    0  0.35114513072E+01  0.88787279410E+01  0.13839982143E+04  0.13840672741E+04  0.10000000000E+02 0.  1.
</event>
<event>
 5    1  0.1574792E-008  0.3840745E+03  0.7957747E-01  0.3433607E+00
         13   -1    0    0    0    0  0.00000000000E+00  0.00000000000E+00  0.14999999963E+04  0.15000000000E+04  0.10566000000E+00 0.  1.
        994   -1    0    0    0    0 -0.00000000000E+00 -0.00000000000E+00  0.11368683772E-12  0.17120000000E+03  0.17120000000E+03 0.  0.
         13    1    1    2    0    0  0.88727389888E+01  0.83067958844E+01  0.34093379945E+02  0.36195276973E+02  0.10566000000E+00 0.  1.
        994    1    1    2    0    0 -0.10655745198E+02 -0.79268340153E+01  0.26723473785E+01  0.17173514796E+03  0.17120000000E+03 0.  0.
        998    1    1    2    0    0  0.17830062091E+01 -0.37996186906E+00  0.14632342690E+04  0.14632695751E+04  0.10000000000E+02 0.  1.
</event>
<event>
 5    1  0.1574792E-008  0.3709102E+03  0.7957747E-01  0.3491718E+00
         13   -1    0    0    0    0  0.00000000000E+00  0.00000000000E+00  0.14999999963E+04  0.15000000000E+04  0.10566000000E+00 0.  1.
        994   -1    0    0    0    0 -0.00000000000E+00 -0.00000000000E+00  0.11368683772E-12  0.17120000000E+03  0.17120000000E+03 0.  0.
         13    1    1    2    0    0 -0.65327644494E+01 -0.45878685254E+02  0.83851121506E+02  0.95804762480E+02  0.10566000000E+00 0.  1.
        994    1    1    2    0    0  0.62191748300E+02  0.42647972397E+02  0.31641295049E+02  0.18972947757E+03  0.17120000000E+03 0.  0.
        998    1    1    2    0    0 -0.55658983851E+02  0.32307128565E+01  0.13845075797E+04  0.13856657600E+04  0.10000000000E+02 0.  1.
</event>
<event>
 5    1  0.1574792E-008  0.3782953E+03  0.7957747E-01  0.3458615E+00
         13   -1    0    0    0    0  0.00000000000E+00  0.00000000000E+00  0.14999999963E+04  0.15000000000E+04  0.10566000000E+00 0. -1.
        994   -1    0    0    0    0 -0.00000000000E+00 -0.00000000000E+00  0.11368683772E-12  0.17120000000E+03  0.17120000000E+03 0.  0.
         13    1    1    2    0    0  0.31621964577E+02  0.24970549273E-01  0.10576833226E+03  0.11039429578E+03  0.10566000000E+00 0. -1.
        994    1    1    2    0    0 -0.44208659764E+01  0.99353884205E+01  0.53938129686E+01  0.17162980282E+03  0.17120000000E+03 0.  0.
        998    1    1    2    0    0 -0.27201098601E+02 -0.99603589698E+01  0.13888378510E+04  0.13891759014E+04  0.10000000000E+02 0. -1.
</event>
<event>
 5    1  0.1574792E-008  0.3826623E+03  0.7957747E-01  0.3439648E+00
         13   -1    0    0    0    0  0.00000000000E+00  0.00000000000E+00  0.14999999963E+04  0.15000000000E+04  0.10566000000E+00 0.  1.
        994   -1    0    0    0    0 -0.00000000000E+00 -0.00000000000E+00  0.11368683772E-12  0.17120000000E+03  0.17120000000E+03 0.  0.
         13    1    1    2    0    0  0.11773231722E+02 -0.19827715917E+02  0.89178282348E+02  0.92111478710E+02  0.10566000000E+00 0.  1.
        994    1    1    2    0    0 -0.82779037350E+01  0.23085272095E+02  0.47908764411E+01  0.17301400514E+03  0.17120000000E+03 0.  0.
        998    1    1    2    0    0 -0.34953279865E+01 -0.32575561786E+01  0.14060308375E+04  0.14060745161E+04  0.10000000000E+02 0.  1.
</event>
<event>
 5    1  0.1574792E-008  0.3850517E+03  0.7957747E-01  0.3429453E+00
         13   -1    0    0    0    0  0.00000000000E+00  0.00000000000E+00  0.14999999963E+04  0.15000000000E+04  0.10566000000E+00 0. -1.
        994   -1    0    0    0    0 -0.00000000000E+00 -0.00000000000E+00  0.11368683772E-12  0.17120000000E+03  0.17120000000E+03 0.  0.
         13    1    1    2    0    0 -0.75069762775E+01  0.12920390235E+02  0.81150866527E+02  0.82515243917E+02  0.10566000000E+00 0. -1.
        994    1    1    2    0    0  0.10069969377E+02  0.18081971293E+02  0.30142461915E+01  0.17247286062E+03  0.17120000000E+03 0.  0.
        998    1    1    2    0    0 -0.25629930990E+01 -0.31002361528E+02  0.14158348836E+04  0.14162118955E+04  0.10000000000E+02 0. -1.
</event>
<event>
 5    1  0.1574792E-008  0.3750635E+03  0.7957747E-01  0.3472939E+00
         13   -1    0    0    0    0  0.00000000000E+00  0.00000000000E+00  0.14999999963E+04  0.15000000000E+04  0.10566000000E+00 0. -1.
        994   -1    0    0    0    0 -0.00000000000E+00 -0.00000000000E+00  0.11368683772E-12  0.17120000000E+03  0.17120000000E+03 0.  0.
         13    1    1    2    0    0  0.61870204853E+02 -0.11253147413E+03  0.67723805605E+03  0.68930591949E+03  0.10566000000E+00 0. -1.
        994    1    1    2    0    0 -0.60459953621E+02  0.10916345934E+03  0.61556763294E+02  0.22061446452E+03  0.17120000000E+03 0.  0.
        998    1    1    2    0    0 -0.14102512321E+01  0.33680147899E+01  0.76120517694E+03  0.76127961599E+03  0.10000000000E+02 0.  0.
</event>
<event>
 5    1  0.1574792E-008  0.3786409E+03  0.7957747E-01  0.3457098E+00
         13   -1    0    0    0    0  0.00000000000E+00  0.00000000000E+00  0.14999999963E+04  0.15000000000E+04  0.10566000000E+00 0.  1.
        994   -1    0    0    0    0 -0.00000000000E+00 -0.00000000000E+00  0.11368683772E-12  0.17120000000E+03  0.17120000000E+03 0.  0.
         13    1    1    2    0    0  0.79465741238E+01  0.29897595233E+02  0.93286848518E+02  0.98282559549E+02  0.10566000000E+00 0.  1.
        994    1    1    2    0    0 -0.71525033168E+01 -0.27624696314E+02  0.75599514716E+01  0.17372643730E+03  0.17120000000E+03 0.  0.
        998    1    1    2    0    0 -0.79407080698E+00 -0.22728989186E+01  0.13991531963E+04  0.13991910032E+04  0.10000000000E+02 0.  1.
</event>
<event>
 5    1  0.1574792E-008  0.3849736E+03  0.7957747E-01  0.3429784E+00
         13   -1    0    0    0    0  0.00000000000E+00  0.00000000000E+00  0.14999999963E+04  0.15000000000E+04  0.10566000000E+00 0. -1.
        994   -1    0    0    0    0 -0.00000000000E+00 -0.00000000000E+00  0.11368683772E-12  0.17120000000E+03  0.17120000000E+03 0.  0.
         13    1    1    2    0    0 -0.67778837524E+01  0.10891826216E+02  0.50147933716E+02  0.51762901836E+02  0.10566000000E+00 0. -1.
        994    1    1    2    0    0  0.72051690846E+01 -0.50323966650E+01  0.18973476478E+01  0.17143593382E+03  0.17120000000E+03 0.  0.
        998    1    1    2    0    0 -0.42728533220E+00 -0.58594295513E+01  0.14479547149E+04  0.14480011643E+04  0.10000000000E+02 0. -1.
</event>
<event>
 5    1  0.1574792E-008  0.3712147E+03  0.7957747E-01  0.3490327E+00
         13   -1    0    0    0    0  0.00000000000E+00  0.00000000000E+00  0.14999999963E+04  0.15000000000E+04  0.10566000000E+00 0.  1.
        994   -1    0    0    0    0 -0.00000000000E+00 -0.00000000000E+00  0.11368683772E-12  0.17120000000E+03  0.17120000000E+03 0.  0.
         13    1    1    2    0    0  0.10021456206E+02  0.33961102074E+01  0.23948672285E+01  0.10849410219E+02  0.10566000000E+00 0.  1.
        994    1    1    2    0    0 -0.13284845508E+02 -0.64403632038E+01  0.93864018337E+01  0.17209157428E+03  0.17120000000E+03 0.  0.
        998    1    1    2    0    0  0.32633893025E+01  0.30442529964E+01  0.14882187272E+04  0.14882590155E+04  0.10000000000E+02 0.  1.
</event>
<event>
 5    1  0.1574792E-008  0.3832152E+03  0.7957747E-01  0.3437277E+00
         13   -1    0    0    0    0  0.00000000000E+00  0.00000000000E+00  0.14999999963E+04  0.15000000000E+04  0.10566000000E+00 0.  1.
        994   -1    0    0    0    0 -0.00000000000E+00 -0.00000000000E+00  0.11368683772E-12  0.17120000000E+03  0.17120000000E+03 0.  0.
         13    1    1    2    0    0  0.23183824541E+01 -0.23920049931E+02  0.11155852088E+03  0.11411773933E+03  0.10566000000E+00 0.  1.
        994    1    1    2    0    0  0.16735249484E+02  0.20059651620E+02  0.47795463918E+01  0.17324763277E+03  0.17120000000E+03 0.  0.
        998    1    1    2    0    0 -0.19053631938E+02  0.38603983110E+01  0.13836619290E+04  0.13838346279E+04  0.10000000000E+02 0.  1.
</event>
<event>
 5    1  0.1574792E-008  0.3711480E+03  0.7957747E-01  0.3490631E+00
         13   -1    0    0    0    0  0.00000000000E+00  0.00000000000E+00  0.14999999963E+04  0.15000000000E+04  0.10566000000E+00 0. -1.
        994   -1    0    0    0    0 -0.00000000000E+00 -0.00000000000E+00  0.11368683772E-12  0.17120000000E+03  0.17120000000E+03 0.  0.
         13    1    1    2    0    0  0.11299897952E+02  0.59767740918E+01  0.53468470126E+01  0.13856747789E+02  0.10566000000E+00 0. -1.
        994    1    1    2    0    0 -0.14523427790E+02 -0.81236902575E+01  0.96245468927E+01  0.17227593042E+03  0.17120000000E+03 0.  0.
        998    1    1    2    0    0  0.32235298383E+01  0.21469161657E+01  0.14850286024E+04  0.14850673218E+04  0.10000000000E+02 0. -1.
</event>
<event>
 5    1  0.1574792E-008  0.3854324E+03  0.7957747E-01  0.3427840E+00
         13   -1    0    0    0    0  0.00000000000E+00  0.00000000000E+00  0.14999999963E+04  0.15000000000E+04  0.10566000000E+00 0.  1.
        994   -1    0    0    0    0 -0.00000000000E+00 -0.00000000000E+00  0.11368683772E-12  0.17120000000E+03  0.17120000000E+03 0.  0.
         13    1    1    2    0    0 -0.60749777336E+01  0.13978341182E+02  0.86663951518E+02  0.87994039761E+02  0.10566000000E+00 0.  1.
        994    1    1    2    0    0  0.48631369201E+01 -0.17729331125E+01  0.15036088042E+01  0.17128483363E+03  0.17120000000E+03 0.  0.
        998    1    1    2    0    0  0.12118408136E+01 -0.12205408069E+02  0.14118324360E+04  0.14119211266E+04  0.10000000000E+02 0.  1.
</event>
<event>
 5    1  0.1574792E-008  0.3840046E+03  0.7957747E-01  0.3433905E+00
         13   -1    0    0    0    0  0.00000000000E+00  0.00000000000E+00  0.14999999963E+04  0.15000000000E+04  0.10566000000E+00 0. -1.
        994   -1    0    0    0    0 -0.00000000000E+00 -0.00000000000E+00  0.11368683772E-12  0.17120000000E+03  0.17120000000E+03 0.  0.
         13    1    1    2    0    0 -0.19115800566E+02  0.88659012055E+00  0.93359939519E+02  0.95301045872E+02  0.10566000000E+00 0. -1.
        994    1    1    2    0    0 -0.66968501285E+00 -0.91096027171E+01  0.24004614642E+01  0.17146030315E+03  0.17120000000E+03 0.  0.
        998    1    1    2    0    0  0.19785485579E+02  0.82230125966E+01  0.14042395953E+04  0.14044386510E+04  0.10000000000E+02 0. -1.
</event>
<event>
 5    1  0.1574792E-008  0.3821600E+03  0.7957747E-01  0.3441807E+00
         13   -1    0    0    0    0  0.00000000000E+00  0.00000000000E+00  0.14999999963E+04  0.15000000000E+04  0.10566000000E+00 0.  1.
        994   -1    0    0    0    0 -0.00000000000E+00 -0.00000000000E+00  0.11368683772E-12  0.17120000000E+03  0.17120000000E+03 0.  0.
         13    1    1    2    0    0  0.16611812904E+02  0.28876400779E+02  0.15998409093E+03  0.16341578677E+03  0.10566000000E+00 0.  1.
        994    1    1    2    0    0 -0.47045942171E+02 -0.16796274430E+02  0.11374300733E+02  0.17870156750E+03  0.17120000000E+03 0.  0.
        998    1    1    2    0    0  0.30434129267E+02 -0.12080126349E+02  0.13286416046E+04  0.13290826457E+04  0.10000000000E+02 0.  1.
</event>
<event>
 5    1  0.1574792E-008  0.3802146E+03  0.7957747E-01  0.3450225E+00
         13   -1    0    0    0    0  0.00000000000E+00  0.00000000000E+00  0.14999999963E+04  0.15000000000E+04  0.10566000000E+00 0. -1.
        994   -1    0    0    0    0 -0.00000000000E+00 -0.00000000000E+00  0.11368683772E-12  0.17120000000E+03  0.17120000000E+03 0.  0.
         13    1    1    2    0    0  0.23124644028E+02 -0.10738811313E+02  0.10085859833E+03  0.10403143395E+03  0.10566000000E+00 0. -1.
        994    1    1    2    0    0  0.35819075191E+02  0.10746661335E+02  0.87107495314E+01  0.17545316764E+03  0.17120000000E+03 0.  0.
        998    1    1    2    0    0 -0.58943719219E+02 -0.78500221765E-02  0.13904306484E+04  0.13917153984E+04  0.10000000000E+02 0. -1.
</event>
<event>
 5    1  0.1574792E-008  0.3829705E+03  0.7957747E-01  0.3438325E+00
         13   -1    0    0    0    0  0.00000000000E+00  0.00000000000E+00  0.14999999963E+04  0.15000000000E+04  0.10566000000E+00 0.  1.
        994   -1    0    0    0    0 -0.00000000000E+00 -0.00000000000E+00  0.11368683772E-12  0.17120000000E+03  0.17120000000E+03 0.  0.
         13    1    1    2    0    0  0.51514500691E+01 -0.12904431275E+02  0.36648379026E+02  0.39194089269E+02  0.10566000000E+00 0.  1.
        994    1    1    2    0    0 -0.70187898656E+01  0.79545974645E-01  0.28042182250E+01  0.17136678027E+03  0.17120000000E+03 0.  0.
        998    1    1    2    0    0  0.18673397964E+01  0.12824885300E+02  0.14605473990E+04  0.14606391305E+04  0.10000000000E+02 0.  1.
</event>
<event>
 5    1  0.1574792E-008  0.3845962E+03  0.7957747E-01  0.3431387E+00
         13   -1    0    0    0    0  0.00000000000E+00  0.00000000000E+00  0.14999999963E+04  0.15000000000E+04  0.10566000000E+00 0.  1.
        994   -1    0    0    0    0 -0.00000000000E+00 -0.00000000000E+00  0.11368683772E-12  0.17120000000E+03  0.17120000000E+03 0.  0.
         13    1    1    2    0    0 -0.11565445310E+02  0.12526658900E+02  0.79656470205E+02  0.81460672217E+02  0.10566000000E+00 0.  1.
        994    1    1    2    0    0 -0.87291523454E+00 -0.14883546623E+02  0.25630565723E+01  0.17186707422E+03  0.17120000000E+03 0.  0.
        998    1    1    2    0    0  0.12438360544E+02  0.23568877230E+01  0.14177804695E+04  0.14178722536E+04  0.10000000000E+02 0.  1.
</event>
<event>
 5    1  0.1574792E-008  0.3826961E+03  0.7957747E-01  0.3439502E+00
         13   -1    0    0    0    0  0.00000000000E+00  0.00000000000E+00  0.14999999963E+04  0.15000000000E+04  0.10566000000E+00 0.  1.
        994   -1    0    0    0    0 -0.00000000000E+00 -0.00000000000E+00  0.11368683772E-12  0.17120000000E+03  0.17120000000E+03 0.  0.
         13    1    1    2    0    0 -0.17985226157E+02  0.11623785390E+02  0.84273434751E+02  0.86951732102E+02  0.10566000000E+00 0.  1.
        994    1    1    2    0    0  0.88535959778E+01 -0.10525888596E+01  0.30417423882E+01  0.17145899306E+03  0.17120000000E+03 0.  0.
        998    1    1    2    0    0  0.91316301792E+01 -0.10571196531E+02  0.14126848191E+04  0.14127892748E+04  0.10000000000E+02 0.  1.
</event>
<event>
 5    1  0.1574792E-008  0.3827510E+03  0.7957747E-01  0.3439267E+00
         13   -1    0    0    0    0  0.00000000000E+00  0.00000000000E+00  0.14999999963E+04  0.15000000000E+04  0.10566000000E+00 0. -1.
        994   -1    0    0    0    0 -0.00000000000E+00 -0.00000000000E+00  0.11368683772E-12  0.17120000000E+03  0.17120000000E+03 0.  0.
         13    1    1    2    0    0  0.18918324058E+02 -0.40334137890E+01  0.69398290944E+02  0.72043773930E+02  0.10566000000E+00 0. -1.
        994    1    1    2    0    0 -0.67214323188E+01 -0.20431869754E+01  0.29143881740E+01  0.17136885926E+03  0.17120000000E+03 0.  0.
        998    1    1    2    0    0 -0.12196891740E+02  0.60766007645E+01  0.14276873172E+04  0.14277873668E+04  0.10000000000E+02 0. -1.
</event>
<event>
 5    1  0.1574792E-008  0.3716257E+03  0.7957747E-01  0.3488453E+00
         13   -1    0    0    0    0  0.00000000000E+00  0.00000000000E+00  0.14999999963E+04  0.15000000000E+04  0.10566000000E+00 0. -1.
        994   -1    0    0    0    0 -0.00000000000E+00 -0.00000000000E+00  0.11368683772E-12  0.17120000000E+03  0.17120000000E+03 0.  0.
         13    1    1    2    0    0  0.56095976563E+02  0.15689674862E+02  0.19799280748E+03  0.20638335074E+03  0.10566000000E+00 0. -1.
        994    1    1    2    0    0 -0.21029942487E+02 -0.63102141428E+02  0.23790653439E+02  0.18520144148E+03  0.17120000000E+03 0.  0.
        998    1    1    2    0    0 -0.35066034076E+02  0.47412466566E+02  0.12782165354E+04  0.12796152078E+04  0.10000000000E+02 0. -1.
</event>
<event>
 5    1  0.1574792E-008  0.3796062E+03  0.7957747E-01  0.3452875E+00
         13   -1    0    0    0    0  0.00000000000E+00  0.00000000000E+00  0.14999999963E+04  0.15000000000E+04  0.10566000000E+00 0. -1.
        994   -1    0    0    0    0 -0.00000000000E+00 -0.00000000000E+00  0.11368683772E-12  0.17120000000E+03  0.17120000000E+03 0.  0.
         13    1    1    2    0    0  0.13489086721E+02  0.69426398158E+01  0.24671307919E+02  0.28962739971E+02  0.10566000000E+00 0. -1.
        994    1    1    2    0    0 -0.97681465823E+01 -0.76985504954E+01  0.48500078970E+01  0.17171967547E+03  0.17120000000E+03 0.  0.
        998    1    1    2    0    0 -0.37209401390E+01  0.75591067957E+00  0.14704786805E+04  0.14705175846E+04  0.10000000000E+02 0. -1.
</event>
<event>
 5    1  0.1574792E-008  0.3747461E+03  0.7957747E-01  0.3474359E+00
         13   -1    0    0    0    0  0.00000000000E+00  0.00000000000E+00  0.14999999963E+04  0.15000000000E+04  0.10566000000E+00 0.  1.
        994   -1    0    0    0    0 -0.00000000000E+00 -0.00000000000E+00  0.11368683772E-12  0.17120000000E+03  0.17120000000E+03 0.  0.
         13    1    1    2    0    0 -0.40281589752E+02 -0.23359501026E+02  0.75649487416E+02  0.88832026159E+02  0.10566000000E+00 0.  1.
        994    1    1    2    0    0  0.33345292863E+02  0.48922055363E+01  0.17519465181E+02  0.17536309159E+03  0.17120000000E+03 0.  0.
        998    1    1    2    0    0  0.69362968885E+01  0.18467295489E+02  0.14068310437E+04  0.14070048823E+04  0.10000000000E+02 0.  1.
</event>
<event>
 5    1  0.1574792E-008  0.3865336E+03  0.7957747E-01  0.3423194E+00
         13   -1    0    0    0    0  0.00000000000E+00  0.00000000000E+00  0.14999999963E+04  0.15000000000E+04  0.10566000000E+00 0.  1.
        994   -1    0    0    0    0 -0.00000000000E+00 -0.00000000000E+00  0.11368683772E-12  0.17120000000E+03  0.17120000000E+03 0.  0.
         13    1    1    2    0    0 -0.61234189044E+02 -0.39576178860E+00  0.87697182921E+02  0.10696069181E+03  0.10566000000E+00 0.  1.
        994    1    1    2    0    0  0.41047216185E+02 -0.96305811069E+01  0.26592184350E+02  0.17830929958E+03  0.17120000000E+03 0.  0.
        998    1    1    2    0    0  0.20186972860E+02  0.10026342895E+02  0.13857106290E+04  0.13859300086E+04  0.10000000000E+02 0.  1.
</event>
<event>
 5    1  0.1574792E-008  0.3830722E+03  0.7957747E-01  0.3437889E+00
         13   -1    0    0    0    0  0.00000000000E+00  0.00000000000E+00  0.14999999963E+04  0.15000000000E+04  0.10566000000E+00 0.  1.
        994   -1    0    0    0    0 -0.00000000000E+00 -0.00000000000E+00  0.11368683772E-12  0.17120000000E+03  0.17120000000E+03 0.  0.
         13    1    1    2    0    0 -0.96747640655E+01  0.65147282212E+01  0.25730853512E+02  0.28251207585E+02  0.10566000000E+00 0.  1.
        994    1    1    2    0    0  0.24342029413E+01 -0.31339699022E+01  0.26423903170E+01  0.17126636955E+03  0.17120000000E+03 0.  0.
        998    1    1    2    0    0  0.72405611242E+01 -0.33807583190E+01  0.14716267525E+04  0.14716824229E+04  0.10000000000E+02 0.  1.
</event>
<event>
 5    1  0.1574792E-008  0.3841629E+03  0.7957747E-01  0.3433230E+00
         13   -1    0    0    0    0  0.00000000000E+00  0.00000000000E+00  0.14999999963E+04  0.15000000000E+04  0.10566000000E+00 0.  1.
        994   -1    0    0    0    0 -0.00000000000E+00 -0.00000000000E+00  0.11368683772E-12  0.17120000000E+03  0.17120000000E+03 0.  0.
         13    1    1    2    0    0  0.18557664445E+02  0.12019228299E+02  0.13109663981E+03  0.13294806840E+03  0.10566000000E+00 0.  1.
        994    1    1    2    0    0 -0.50396132580E+01  0.39247817532E+01  0.21808499727E+01  0.17133300243E+03  0.17120000000E+03 0.  0.
        998    1    1    2    0    0 -0.13518051187E+02 -0.15944010052E+02  0.13667225065E+04  0.13669189292E+04  0.10000000000E+02 0.  1.
</event>
<event>
 5    1  0.1574792E-008  0.3785388E+03  0.7957747E-01  0.3457546E+00
         13   -1    0    0    0    0  0.00000000000E+00  0.00000000000E+00  0.14999999963E+04  0.15000000000E+04  0.10566000000E+00 0. -1.
        994   -1    0    0    0    0 -0.00000000000E+00 -0.00000000000E+00  0.11368683772E-12  0.17120000000E+03  0.17120000000E+03 0.  0.
         13    1    1    2    0    0  0.52239910997E+02 -0.83680874773E+02  0.56056761659E+03  0.56918148340E+03  0.10566000000E+00 0. -1.
        994    1    1    2    0    0 -0.59499963272E+02  0.86682891262E+02  0.42950848652E+02  0.20544679279E+03  0.17120000000E+03 0.  0.
        998    1    1    2    0    0  0.72600522747E+01 -0.30020164897E+01  0.89648153103E+03  0.89657172382E+03  0.10000000000E+02 0. -1.
</event>
<event>
 5    1  0.1574792E-008  0.3840965E+03  0.7957747E-01  0.3433513E+00
         13   -1    0    0    0    0  0.00000000000E+00  0.00000000000E+00  0.14999999963E+04  0.15000000000E+04  0.10566000000E+00 0. -1.
        994   -1    0    0    0    0 -0.00000000000E+00 -0.00000000000E+00  0.11368683772E-12  0.17120000000E+03  0.17120000000E+03 0.  0.
         13    1    1    2    0    0  0.64755198120E+01 -0.11127010715E+02  0.38140102003E+02  0.40254456512E+02  0.10566000000E+00 0. -1.
        994    1    1    2    0    0 -0.71053422901E+01  0.14201733088E+02  0.29115634126E+01  0.17195956593E+03  0.17120000000E+03 0.  0.
        998    1    1    2    0    0  0.62982247806E+00 -0.30747223723E+01  0.14589483309E+04  0.14589859776E+04  0.10000000000E+02 0. -1.
</event>
<event>
 5    1  0.1574792E-008  0.3693013E+03  0.7957747E-01  0.3499108E+00
         13   -1    0    0    0    0  0.00000000000E+00  0.00000000000E+00  0.14999999963E+04  0.15000000000E+04  0.10566000000E+00 0. -1.
        994   -1    0    0    0    0 -0.00000000000E+00 -0.00000000000E+00  0.11368683772E-12  0.17120000000E+03  0.17120000000E+03 0.  0.
         13    1    1    2    0    0 -0.39329974047E+02  0.31776318161E+02  0.10243538873E+03  0.11423485144E+03  0.10566000000E+00 0. -1.
        994    1    1    2    0    0  0.39402296558E+02 -0.60837803295E+02  0.29123745021E+02  0.18817920132E+03  0.17120000000E+03 0.  0.
        998    1    1    2    0    0 -0.72322511386E-01  0.29061485133E+02  0.13684408625E+04  0.13687859472E+04  0.10000000000E+02 0. -1.
</event>
<event>
 5    1  0.1574792E-008  0.4228731E+03  0.7957747E-01  0.3283385E+00
         13   -1    0    0    0    0  0.00000000000E+00  0.00000000000E+00  0.14999999963E+04  0.15000000000E+04  0.10566000000E+00 0. -1.
        994   -1    0    0    0    0 -0.00000000000E+00 -0.00000000000E+00  0.11368683772E-12  0.17120000000E+03  0.17120000000E+03 0.  0.
         13    1    1    2    0    0  0.45894716816E+02 -0.75731316684E+01  0.90780798213E+01  0.47393038014E+02  0.10566000000E+00 0. -1.
        994    1    1    2    0    0 -0.52812442847E+02  0.58647728979E+01  0.54536702500E+02  0.18736926536E+03  0.17120000000E+03 0.  0.
        998    1    1    2    0    0  0.69177260306E+01  0.17083587705E+01  0.14363852140E+04  0.14364376966E+04  0.10000000000E+02 0. -1.
</event>
<event>
 5    1  0.1574792E-008  0.3853312E+03  0.7957747E-01  0.3428269E+00
         13   -1    0    0    0    0  0.00000000000E+00  0.00000000000E+00  0.14999999963E+04  0.15000000000E+04  0.10566000000E+00 0. -1.
        994   -1    0    0    0    0 -0.00000000000E+00 -0.00000000000E+00  0.11368683772E-12  0.17120000000E+03  0.17120000000E+03 0.  0.
         13    1    1    2    0    0 -0.53473327134E+01 -0.13596802645E+02  0.76612775027E+02  0.77993560444E+02  0.10566000000E+00 0. -1.
        994    1    1    2    0    0 -0.41511448387E+01  0.49926678369E+01  0.16043027725E+01  0.17133059424E+03  0.17120000000E+03 0.  0.
        998    1    1    2    0    0  0.94984775521E+01  0.86041348085E+01  0.14217829185E+04  0.14218758453E+04  0.10000000000E+02 0. -1.
</event>
<event>
 5    1  0.1574792E-008  0.3824188E+03  0.7957747E-01  0.3440694E+00
         13   -1    0    0    0    0  0.00000000000E+00  0.00000000000E+00  0.14999999963E+04  0.15000000000E+04  0.10566000000E+00 0.  1.
        994   -1    0    0    0    0 -0.00000000000E+00 -0.00000000000E+00  0.11368683772E-12  0.17120000000E+03  0.17120000000E+03 0.  0.
         13    1    1    2    0    0 -0.57953284262E+01  0.10165274261E+02  0.22452145377E+02  0.25318543173E+02  0.10566000000E+00 0.  1.
        994    1    1    2    0    0  0.65640931361E+01 -0.41530084202E+01  0.31172320507E+01  0.17140446883E+03  0.17120000000E+03 0.  0.
        998    1    1    2    0    0 -0.76876470991E+00 -0.60122658406E+01  0.14744306189E+04  0.14744769880E+04  0.10000000000E+02 0.  1.
</event>
<event>
 5    1  0.1574792E-008  0.3721372E+03  0.7957747E-01  0.3486126E+00
         13   -1    0    0    0    0  0.00000000000E+00  0.00000000000E+00  0.14999999963E+04  0.15000000000E+04  0.10566000000E+00 0.  1.
        994   -1    0    0    0    0 -0.00000000000E+00 -0.00000000000E+00  0.11368683772E-12  0.17120000000E+03  0.17120000000E+03 0.  0.
         13    1    1    2    0    0 -0.27399269432E+02  0.40398044232E+02  0.12940511044E+03  0.13830551585E+03  0.10566000000E+00 0.  1.
        994    1    1    2    0    0  0.28978837943E+02 -0.43956518339E+02  0.17731255791E+02  0.17998829402E+03  0.17120000000E+03 0.  0.
        998    1    1    2    0    0 -0.15795685115E+01  0.35584741062E+01  0.13528636301E+04  0.13529061901E+04  0.10000000000E+02 0.  1.
</event>
<event>
 5    1  0.1574792E-008  0.3789912E+03  0.7957747E-01  0.3455563E+00
         13   -1    0    0    0    0  0.00000000000E+00  0.00000000000E+00  0.14999999963E+04  0.15000000000E+04  0.10566000000E+00 0.  1.
        994   -1    0    0    0    0 -0.00000000000E+00 -0.00000000000E+00  0.11368683772E-12  0.17120000000E+03  0.17120000000E+03 0.  0.
         13    1    1    2    0    0 -0.68896417834E+01 -0.94845368586E+01  0.12615897068E+02  0.17221951869E+02  0.10566000000E+00 0.  1.
        994    1    1    2    0    0  0.46840040730E+01  0.12951623003E+02  0.52797044360E+01  0.17183422160E+03  0.17120000000E+03 0.  0.
        998    1    1    2    0    0  0.22056377105E+01 -0.34670861441E+01  0.14821043948E+04  0.14821438265E+04  0.10000000000E+02 0.  1.
</event>
<event>
 5    1  0.1574792E-008  0.3781852E+03  0.7957747E-01  0.3459099E+00
         13   -1    0    0    0    0  0.00000000000E+00  0.00000000000E+00  0.14999999963E+04  0.15000000000E+04  0.10566000000E+00 0.  1.
        994   -1    0    0    0    0 -0.00000000000E+00 -0.00000000000E+00  0.11368683772E-12  0.17120000000E+03  0.17120000000E+03 0.  0.
         13    1    1    2    0    0  0.25051351216E+02 -0.30565436570E+02  0.14096509047E+03  0.14640008199E+03  0.10566000000E+00 0.  1.
        994    1    1    2    0    0 -0.29504484774E+02  0.24833890898E+02  0.10070085099E+02  0.17577850657E+03  0.17120000000E+03 0.  0.
        998    1    1    2    0    0  0.44531335577E+01  0.57315456718E+01  0.13489648207E+04  0.13490214114E+04  0.10000000000E+02 0.  1.
</event>
<event>
 5    1  0.1574792E-008  0.3851331E+03  0.7957747E-01  0.3429108E+00
         13   -1    0    0    0    0  0.00000000000E+00  0.00000000000E+00  0.14999999963E+04  0.15000000000E+04  0.10566000000E+00 0.  1.
        994   -1    0    0    0    0 -0.00000000000E+00 -0.00000000000E+00  0.11368683772E-12  0.17120000000E+03  0.17120000000E+03 0.  0.
         13    1    1    2    0    0 -0.12726000628E+02 -0.66177989295E+01  0.64996906535E+02  0.66560914791E+02  0.10566000000E+00 0.  1.
        994    1    1    2    0    0  0.14271576932E+02 -0.22640916751E+01  0.22507495644E+01  0.17182348470E+03  0.17120000000E+03 0.  0.
        998    1    1    2    0    0 -0.15455763040E+01  0.88818906046E+01  0.14327523402E+04  0.14328156005E+04  0.10000000000E+02 0.  1.
</event>
<event>
 5    1  0.1574792E-008  0.3797216E+03  0.7957747E-01  0.3452372E+00
         13   -1    0    0    0    0  0.00000000000E+00  0.00000000000E+00  0.14999999963E+04  0.15000000000E+04  0.10566000000E+00 0. -1.
        994   -1    0    0    0    0 -0.00000000000E+00 -0.00000000000E+00  0.11368683772E-12  0.17120000000E+03  0.17120000000E+03 0.  0.
         13    1    1    2    0    0  0.31919157558E+02  0.67415999319E+00  0.12830947115E+03  0.13222185395E+03  0.10566000000E+00 0. -1.
        994    1    1    2    0    0 -0.43605508269E+01  0.31442058249E+00  0.43377236540E+01  0.17131073846E+03  0.17120000000E+03 0.  0.
        998    1    1    2    0    0 -0.27558606731E+02 -0.98858057568E+00  0.13673528015E+04  0.13676674076E+04  0.10000000000E+02 0. -1.
</event>
<event>
 5    1  0.1574792E-008  0.3854342E+03  0.7957747E-01  0.3427833E+00
         13   -1    0    0    0    0  0.00000000000E+00  0.00000000000E+00  0.14999999963E+04  0.15000000000E+04  0.10566000000E+00 0. -1.
        994   -1    0    0    0    0 -0.00000000000E+00 -0.00000000000E+00  0.11368683772E-12  0.17120000000E+03  0.17120000000E+03 0.  0.
         13    1    1    2    0    0  0.15288578843E+02  0.10025830047E+02  0.10709996250E+03  0.10864930300E+03  0.10566000000E+00 0. -1.
        994    1    1    2    0    0 -0.91799997417E+01 -0.30304017904E+02  0.47142520475E+01  0.17416736224E+03  0.17120000000E+03 0.  0.
        998    1    1    2    0    0 -0.61085791016E+01  0.20278187856E+02  0.13881857817E+04  0.13883833348E+04  0.10000000000E+02 0. -1.
</event>
<event>
 5    1  0.1574792E-008  0.3791433E+03  0.7957747E-01  0.3454897E+00
         13   -1    0    0    0    0  0.00000000000E+00  0.00000000000E+00  0.14999999963E+04  0.15000000000E+04  0.10566000000E+00 0.  1.
        994   -1    0    0    0    0 -0.00000000000E+00 -0.00000000000E+00  0.11368683772E-12  0.17120000000E+03  0.17120000000E+03 0.  0.
         13    1    1    2    0    0  0.11496124317E+02  0.11167143966E+02  0.25885150494E+02  0.30445330657E+02  0.10566000000E+00 0.  1.
        994    1    1    2    0    0 -0.13055365160E+02 -0.96408079022E+01  0.54496900827E+01  0.17205384872E+03  0.17120000000E+03 0.  0.
        998    1    1    2    0    0  0.15592408436E+01 -0.15263360640E+01  0.14686651557E+04  0.14687008206E+04  0.10000000000E+02 0.  1.
</event>
<event>
 5    1  0.1574792E-008  0.3850783E+03  0.7957747E-01  0.3429340E+00
         13   -1    0    0    0    0  0.00000000000E+00  0.00000000000E+00  0.14999999963E+04  0.15000000000E+04  0.10566000000E+00 0. -1.
        994   -1    0    0    0    0 -0.00000000000E+00 -0.00000000000E+00  0.11368683772E-12  0.17120000000E+03  0.17120000000E+03 0.  0.
         13    1    1    2    0    0  0.71678699835E-01 -0.17127221059E+02  0.97781654321E+02  0.99270387955E+02  0.10566000000E+00 0. -1.
        994    1    1    2    0    0 -0.42589346793E+01  0.37365935976E+01  0.16968318775E+01  0.17130213044E+03  0.17120000000E+03 0.  0.
        998    1    1    2    0    0  0.41872559795E+01  0.13390627462E+02  0.14005215101E+04  0.14006274816E+04  0.10000000000E+02 0. -1.
</event>
<event>
 5    1  0.1574792E-008  0.3803787E+03  0.7957747E-01  0.3449511E+00
         13   -1    0    0    0    0  0.00000000000E+00  0.00000000000E+00  0.14999999963E+04  0.15000000000E+04  0.10566000000E+00 0.  1.
        994   -1    0    0    0    0 -0.00000000000E+00 -0.00000000000E+00  0.11368683772E-12  0.17120000000E+03  0.17120000000E+03 0.  0.
         13    1    1    2    0    0  0.26697500694E+01  0.12459170350E+02  0.18754155612E+02  0.22673508948E+02  0.10566000000E+00 0.  1.
        994    1    1    2    0    0 -0.18952742512E+00 -0.13099127429E+02  0.45152933865E+01  0.17175986415E+03  0.17120000000E+03 0.  0.
        998    1    1    2    0    0 -0.24802226443E+01  0.63995707931E+00  0.14767305473E+04  0.14767666269E+04  0.10000000000E+02 0.  1.
</event>
<event>
 5    1  0.1574792E-008  0.3827627E+03  0.7957747E-01  0.3439217E+00
         13   -1    0    0    0    0  0.00000000000E+00  0.00000000000E+00  0.14999999963E+04  0.15000000000E+04  0.10566000000E+00 0.  1.
        994   -1    0    0    0    0 -0.00000000000E+00 -0.00000000000E+00  0.11368683772E-12  0.17120000000E+03  0.17120000000E+03 0.  0.
         13    1    1    2    0    0 -0.47976592184E+02  0.23828743883E+02  0.28741746232E+03  0.29236684361E+03  0.10566000000E+00 0.  1.
        994    1    1    2    0    0  0.78015868162E+02 -0.47804079187E+02  0.30991261407E+02  0.19657467781E+03  0.17120000000E+03 0.  0.
        998    1    1    2    0    0 -0.30039275978E+02  0.23975335304E+02  0.11815912726E+04  0.11822584786E+04  0.10000000000E+02 0.  1.
</event>
<event>
 5    1  0.1574792E-008  0.3795323E+03  0.7957747E-01  0.3453198E+00
         13   -1    0    0    0    0  0.00000000000E+00  0.00000000000E+00  0.14999999963E+04  0.15000000000E+04  0.10566000000E+00 0. -1.
        994   -1    0    0    0    0 -0.00000000000E+00 -0.00000000000E+00  0.11368683772E-12  0.17120000000E+03  0.17120000000E+03 0.  0.
         13    1    1    2    0    0  0.64966046126E+01 -0.10935852532E+02  0.17039156308E+02  0.21263648647E+02  0.10566000000E+00 0. -1.
        994    1    1    2    0    0  0.12511433652E+02  0.72103592096E+01  0.50679044539E+01  0.17188266029E+03  0.17120000000E+03 0.  0.
        998    1    1    2    0    0 -0.19008038265E+02  0.37254933224E+01  0.14778929355E+04  0.14780536911E+04  0.10000000000E+02 0.  1.
</event>
<event>
 5    1  0.1574792E-008  0.3776677E+03  0.7957747E-01  0.3461377E+00
         13   -1    0    0    0    0  0.00000000000E+00  0.00000000000E+00  0.14999999963E+04  0.15000000000E+04  0.10566000000E+00 0.  1.
        994   -1    0    0    0    0 -0.00000000000E+00 -0.00000000000E+00  0.11368683772E-12  0.17120000000E+03  0.17120000000E+03 0.  0.
         13    1    1    2    0    0  0.40782622312E+02 -0.24229082059E+02  0.22231698131E+03  0.22732162687E+03  0.10566000000E+00 0.  1.
        994    1    1    2    0    0 -0.21126055844E+02  0.21140059425E+01  0.68352299104E+01  0.17264686393E+03  0.17120000000E+03 0.  0.
        998    1    1    2    0    0 -0.19656566469E+02  0.22115076116E+02  0.12708477851E+04  0.12712315092E+04  0.10000000000E+02 0.  1.
</event>
<event>
 5    1  0.1574792E-008  0.3811588E+03  0.7957747E-01  0.3446128E+00
         13   -1    0    0    0    0  0.00000000000E+00  0.00000000000E+00  0.14999999963E+04  0.15000000000E+04  0.10566000000E+00 0.  1.
        994   -1    0    0    0    0 -0.00000000000E+00 -0.00000000000E+00  0.11368683772E-12  0.17120000000E+03  0.17120000000E+03 0.  0.
         13    1    1    2    0    0  0.15825785477E+03 -0.25136310578E+03  0.11011506784E+04  0.11405094420E+04  0.10566000000E+00 0.  1.
        994    1    1    2    0    0 -0.14979245891E+03  0.24404898960E+03  0.37022052878E+03  0.49836770562E+03  0.17120000000E+03 0.  0.
        998    1    1    2    0    0 -0.84653958525E+01  0.73141161781E+01  0.28628789121E+02  0.32322852426E+02  0.10000000000E+02 0. -1.
</event>
<event>
 5    1  0.1574792E-008  0.3854858E+03  0.7957747E-01  0.3427615E+00
         13   -1    0    0    0    0  0.00000000000E+00  0.00000000000E+00  0.14999999963E+04  0.15000000000E+04  0.10566000000E+00 0. -1.
        994   -1    0    0    0    0 -0.00000000000E+00 -0.00000000000E+00  0.11368683772E-12  0.17120000000E+03  0.17120000000E+03 0.  0.
         13    1    1    2    0    0 -0.95691451343E+01 -0.13043113263E+02  0.92916916878E+02  0.94314664546E+02  0.10566000000E+00 0. -1.
        994    1    1    2    0    0  0.48837314610E+01  0.12173111144E+02  0.19542339707E+01  0.17171282567E+03  0.17120000000E+03 0.  0.
        998    1    1    2    0    0  0.46854136733E+01  0.87000211922E+00  0.14051288454E+04  0.14051725098E+04  0.10000000000E+02 0. -1.
</event>
<event>
 5    1  0.1574792E-008  0.3782337E+03  0.7957747E-01  0.3458886E+00
         13   -1    0    0    0    0  0.00000000000E+00  0.00000000000E+00  0.14999999963E+04  0.15000000000E+04  0.10566000000E+00 0.  1.
        994   -1    0    0    0    0 -0.00000000000E+00 -0.00000000000E+00  0.11368683772E-12  0.17120000000E+03  0.17120000000E+03 0.  0.
         13    1    1    2    0    0  0.85495161491E+02  0.58647641475E+02  0.58290717123E+03  0.59205552943E+03  0.10566000000E+00 0.  1.
        994    1    1    2    0    0 -0.97860216665E+02 -0.52321997607E+02  0.47619128673E+02  0.20950235048E+03  0.17120000000E+03 0.  0.
        998    1    1    2    0    0  0.12365055174E+02 -0.63256438680E+01  0.86947369637E+03  0.86964212010E+03  0.10000000000E+02 0.  0.
</event>
<event>
 5    1  0.1574792E-008  0.3843668E+03  0.7957747E-01  0.3432362E+00
         13   -1    0    0    0    0  0.00000000000E+00  0.00000000000E+00  0.14999999963E+04  0.15000000000E+04  0.10566000000E+00 0. -1.
        994   -1    0    0    0    0 -0.00000000000E+00 -0.00000000000E+00  0.11368683772E-12  0.17120000000E+03  0.17120000000E+03 0.  0.
         13    1    1    2    0    0 -0.10381158989E+02 -0.18429741512E+02  0.10201094229E+03  0.10418093561E+03  0.10566000000E+00 0. -1.
        994    1    1    2    0    0  0.32187807484E+02  0.16611205584E+02  0.62803900429E+01  0.17510245687E+03  0.17120000000E+03 0.  0.
        998    1    1    2    0    0 -0.21806648495E+02  0.18185359283E+01  0.13917086639E+04  0.13919166075E+04  0.10000000000E+02 0. -1.
</event>
<event>
 5    1  0.1574792E-008  0.3694060E+03  0.7957747E-01  0.3498625E+00
         13   -1    0    0    0    0  0.00000000000E+00  0.00000000000E+00  0.14999999963E+04  0.15000000000E+04  0.10566000000E+00 0.  1.
        994   -1    0    0    0    0 -0.00000000000E+00 -0.00000000000E+00  0.11368683772E-12  0.17120000000E+03  0.17120000000E+03 0.  0.
         13    1    1    2    0    0  0.41005191814E+02  0.18885550160E+02  0.12909464199E+03  0.13676084057E+03  0.10566000000E+00 0.  1.
        994    1    1    2    0    0  0.21095245975E+02  0.15504593169E+02  0.11958278123E+02  0.17360254096E+03  0.17120000000E+03 0.  0.
        998    1    1    2    0    0 -0.62100437788E+02 -0.34390143330E+02  0.13589470762E+04  0.13608366185E+04  0.10000000000E+02 0.  1.
</event>
<event>
 5    1  0.1574792E-008  0.3860957E+03  0.7957747E-01  0.3425039E+00
         13   -1    0    0    0    0  0.00000000000E+00  0.00000000000E+00  0.14999999963E+04  0.15000000000E+04  0.10566000000E+00 0. -1.
        994   -1    0    0    0    0 -0.00000000000E+00 -0.00000000000E+00  0.11368683772E-12  0.17120000000E+03  0.17120000000E+03 0.  0.
         13    1    1    2    0    0 -0.97358330471E+01 -0.36995692779E+01  0.54570851607E+02  0.55555938180E+02  0.10566000000E+00 0. -1.
        994    1    1    2    0    0  0.14085918668E+01 -0.13280871996E+02  0.16718526863E+01  0.17172827602E+03  0.17120000000E+03 0.  0.
        998    1    1    2    0    0  0.83272411803E+01  0.16980441274E+02  0.14437572920E+04  0.14439157858E+04  0.10000000000E+02 0. -1.
</event>
<event>
 5    1  0.1574792E-008  0.2738069E+03  0.7957747E-01  0.4102796E+00
         13   -1    0    0    0    0  0.00000000000E+00  0.00000000000E+00  0.14999999963E+04  0.15000000000E+04  0.10566000000E+00 0.  1.
        994   -1    0    0    0    0 -0.00000000000E+00 -0.00000000000E+00  0.11368683772E-12  0.17120000000E+03  0.17120000000E+03 0.  0.
         13    1    1    2    0    0 -0.67852915487E+02 -0.17524122741E+03  0.47969806550E+03  0.51519292613E+03  0.10566000000E+00 0.  1.
        994    1    1    2    0    0  0.22498265322E+01  0.17102912270E+03  0.15332869786E+03  0.28648761250E+03  0.17120000000E+03 0.  0.
        998    1    1    2    0    0  0.65603088954E+02  0.42121047116E+01  0.86697323291E+03  0.86951946137E+03  0.10000000000E+02 0.  1.
</event>
<event>
 5    1  0.1574792E-008  0.3764624E+03  0.7957747E-01  0.3466708E+00
         13   -1    0    0    0    0  0.00000000000E+00  0.00000000000E+00  0.14999999963E+04  0.15000000000E+04  0.10566000000E+00 0.  1.
        994   -1    0    0    0    0 -0.00000000000E+00 -0.00000000000E+00  0.11368683772E-12  0.17120000000E+03  0.17120000000E+03 0.  0.
         13    1    1    2    0    0  0.61437768395E+02 -0.28760628930E+01  0.27697246029E+03  0.28371927330E+03  0.10566000000E+00 0.  1.
        994    1    1    2    0    0 -0.53140281831E+02  0.39714445674E+01  0.15595931640E+02  0.17997870710E+03  0.17120000000E+03 0.  0.
        998    1    1    2    0    0 -0.82974865638E+01 -0.10953816744E+01  0.12074316044E+04  0.12075020196E+04  0.10000000000E+02 0.  1.
</event>
<event>
 5    1  0.1574792E-008  0.3817302E+03  0.7957747E-01  0.3443659E+00
         13   -1    0    0    0    0  0.00000000000E+00  0.00000000000E+00  0.14999999963E+04  0.15000000000E+04  0.10566000000E+00 0.  1.
        994   -1    0    0    0    0 -0.00000000000E+00 -0.00000000000E+00  0.11368683772E-12  0.17120000000E+03  0.17120000000E+03 0.  0.
         13    1    1    2    0    0 -0.10680197827E+02 -0.79266533665E+01  0.26887391048E+02  0.29997356894E+02  0.10566000000E+00 0.  1.
        994    1    1    2    0    0 -0.85981417829E+00 -0.38599034388E+01  0.33142719751E+01  0.17127773508E+03  0.17120000000E+03 0.  0.
        998    1    1    2    0    0  0.11540012005E+02  0.11786556805E+02  0.14697983333E+04  0.14699249080E+04  0.10000000000E+02 0.  1.
</event>
<event>
 5    1  0.1574792E-008  0.3853684E+03  0.7957747E-01  0.3428111E+00
         13   -1    0    0    0    0  0.00000000000E+00  0.00000000000E+00  0.14999999963E+04  0.15000000000E+04  0.10566000000E+00 0.  1.
        994   -1    0    0    0    0 -0.00000000000E+00 -0.00000000000E+00  0.11368683772E-12  0.17120000000E+03  0.17120000000E+03 0.  0.
         13    1    1    2    0    0 -0.14864275859E+02  0.45580133544E+01  0.90811340219E+02  0.92132691587E+02  0.10566000000E+00 0.  1.
        994    1    1    2    0    0 -0.36851356096E+01 -0.13641395803E+02  0.21034861989E+01  0.17179503066E+03  0.17120000000E+03 0.  0.
        998    1    1    2    0    0  0.18549411469E+02  0.90833824487E+01  0.14070851699E+04  0.14072722778E+04  0.10000000000E+02 0.  1.
</event>
<event>
 5    1  0.1574792E-008  0.3812550E+03  0.7957747E-01  0.3445712E+00
         13   -1    0    0    0    0  0.00000000000E+00  0.00000000000E+00  0.14999999963E+04  0.15000000000E+04  0.10566000000E+00 0. -1.
        994   -1    0    0    0    0 -0.00000000000E+00 -0.00000000000E+00  0.11368683772E-12  0.17120000000E+03  0.17120000000E+03 0.  0.
         13    1    1    2    0    0  0.79515371023E+01  0.19523381051E+02  0.64115140796E+02  0.67491864645E+02  0.10566000000E+00 0. -1.
        994    1    1    2    0    0 -0.18490135132E+02 -0.12837313976E+00  0.46400042818E+01  0.17225815283E+03  0.17120000000E+03 0.  0.
        998    1    1    2    0    0  0.10538598030E+02 -0.19395007911E+02  0.14312448512E+04  0.14314499825E+04  0.10000000000E+02 0. -1.
</event>
<event>
 5    1  0.1574792E-008  0.3852261E+03  0.7957747E-01  0.3428714E+00
         13   -1    0    0    0    0  0.00000000000E+00  0.00000000000E+00  0.14999999963E+04  0.15000000000E+04  0.10566000000E+00 0.  1.
        994   -1    0    0    0    0 -0.00000000000E+00 -0.00000000000E+00  0.11368683772E-12  0.17120000000E+03  0.17120000000E+03 0.  0.
         13    1    1    2    0    0  0.14462294756E+02  0.11387820879E+01  0.66710227823E+02  0.68269469417E+02  0.10566000000E+00 0.  1.
        994    1    1    2    0    0 -0.15278692912E+02 -0.71016841670E+01  0.24513732765E+01  0.17204453379E+03  0.17120000000E+03 0.  0.
        998    1    1    2    0    0  0.81639815560E+00  0.59629020790E+01  0.14308383952E+04  0.14308859968E+04  0.10000000000E+02 0.  1.
</event>
<event>
 5    1  0.1574792E-008  0.3832892E+03  0.7957747E-01  0.3436961E+00
         13   -1    0    0    0    0  0.00000000000E+00  0.00000000000E+00  0.14999999963E+04  0.15000000000E+04  0.10566000000E+00 0. -1.
        994   -1    0    0    0    0 -0.00000000000E+00 -0.00000000000E+00  0.11368683772E-12  0.17120000000E+03  0.17120000000E+03 0.  0.
         13    1    1    2    0    0 -0.23368059326E+02  0.32247014756E+01  0.10769681486E+03  0.11025007932E+03  0.10566000000E+00 0. -1.
        994    1    1    2    0    0  0.19560259463E+02 -0.20082696673E+01  0.37615693676E+01  0.17236654635E+03  0.17120000000E+03 0.  0.
        998    1    1    2    0    0  0.38077998628E+01 -0.12164318083E+01  0.13885416121E+04  0.13885833743E+04  0.10000000000E+02 0. -1.
</event>
<event>
 5    1  0.1574792E-008  0.3755727E+03  0.7957747E-01  0.3470666E+00
         13   -1    0    0    0    0  0.00000000000E+00  0.00000000000E+00  0.14999999963E+04  0.15000000000E+04  0.10566000000E+00 0. -1.
        994   -1    0    0    0    0 -0.00000000000E+00 -0.00000000000E+00  0.11368683772E-12  0.17120000000E+03  0.17120000000E+03 0.  0.
         13    1    1    2    0    0  0.34472442111E+02  0.59597598272E+01  0.68277394599E+02  0.76718197187E+02  0.10566000000E+00 0. -1.
        994    1    1    2    0    0 -0.98355841187E+02 -0.57473080745E+02  0.51767751098E+02  0.21205274476E+03  0.17120000000E+03 0.  0.
        998    1    1    2    0    0  0.63883399076E+02  0.51513320918E+02  0.13799548506E+04  0.13824290581E+04  0.10000000000E+02 0. -1.
</event>
<event>
 5    1  0.1574792E-008  0.3811849E+03  0.7957747E-01  0.3446015E+00
         13   -1    0    0    0    0  0.00000000000E+00  0.00000000000E+00  0.14999999963E+04  0.15000000000E+04  0.10566000000E+00 0. -1.
        994   -1    0    0    0    0 -0.00000000000E+00 -0.00000000000E+00  0.11368683772E-12  0.17120000000E+03  0.17120000000E+03 0.  0.
         13    1    1    2    0    0 -0.79056142386E+02  0.34034808559E+02  0.40657282479E+03  0.41558358349E+03  0.10566000000E+00 0. -1.
        994    1    1    2    0    0  0.12673343860E+03 -0.59149909476E+02  0.71672607906E+02  0.23239294089E+03  0.17120000000E+03 0.  0.
        998    1    1    2    0    0 -0.47677296213E+02  0.25115100917E+02  0.10217545636E+04  0.10232234756E+04  0.10000000000E+02 0. -1.
</event>
<event>
 5    1  0.1574792E-008  0.3832186E+03  0.7957747E-01  0.3437262E+00
         13   -1    0    0    0    0  0.00000000000E+00  0.00000000000E+00  0.14999999963E+04  0.15000000000E+04  0.10566000000E+00 0.  1.
        994   -1    0    0    0    0 -0.00000000000E+00 -0.00000000000E+00  0.11368683772E-12  0.17120000000E+03  0.17120000000E+03 0.  0.
         13    1    1    2    0    0 -0.67178701292E+02  0.74155798208E+02  0.30498756703E+03  0.32098206729E+03  0.10566000000E+00 0.  1.
        994    1    1    2    0    0  0.16240238787E+02 -0.36421163349E+02  0.23960199879E+02  0.17740850508E+03  0.17120000000E+03 0.  0.
        998    1    1    2    0    0  0.50938462505E+02 -0.37734634859E+02  0.11710522294E+04  0.11728094276E+04  0.10000000000E+02 0.  1.
</event>
<event>
 5    1  0.1574792E-008  0.3689754E+03  0.7957747E-01  0.3500613E+00
         13   -1    0    0    0    0  0.00000000000E+00  0.00000000000E+00  0.14999999963E+04  0.15000000000E+04  0.10566000000E+00 0. -1.
        994   -1    0    0    0    0 -0.00000000000E+00 -0.00000000000E+00  0.11368683772E-12  0.17120000000E+03  0.17120000000E+03 0.  0.
         13    1    1    2    0    0 -0.61090295404E+02  0.28401409883E+02  0.21918367846E+03  0.22930364224E+03  0.10566000000E+00 0. -1.
        994    1    1    2    0    0  0.48497470613E+02  0.16644627025E+02  0.19613020961E+02  0.17978642567E+03  0.17120000000E+03 0.  0.
        998    1    1    2    0    0  0.12592824791E+02 -0.45046036908E+02  0.12612032969E+04  0.12621099321E+04  0.10000000000E+02 0. -1.
</event>
<event>
 5    1  0.1574792E-008  0.3840438E+03  0.7957747E-01  0.3433738E+00
         13   -1    0    0    0    0  0.00000000000E+00  0.00000000000E+00  0.14999999963E+04  0.15000000000E+04  0.10566000000E+00 0. -1.
        994   -1    0    0    0    0 -0.00000000000E+00 -0.00000000000E+00  0.11368683772E-12  0.17120000000E+03  0.17120000000E+03 0.  0.
         13    1    1    2    0    0 -0.26605396736E+02  0.48885693081E+00  0.15766115224E+03  0.15989101353E+03  0.10566000000E+00 0. -1.
        994    1    1    2    0    0  0.23139250786E+02  0.40196458781E+01  0.39273406327E+01  0.17284804449E+03  0.17120000000E+03 0.  0.
        998    1    1    2    0    0  0.34661459497E+01 -0.45085028089E+01  0.13384115034E+04  0.13384609420E+04  0.10000000000E+02 0. -1.
</event>
<event>
 5    1  0.1574792E-008  0.3699168E+03  0.7957747E-01  0.3496273E+00
         13   -1    0    0    0    0  0.00000000000E+00  0.00000000000E+00  0.14999999963E+04  0.15000000000E+04  0.10566000000E+00 0. -1.
        994   -1    0    0    0    0 -0.00000000000E+00 -0.00000000000E+00  0.11368683772E-12  0.17120000000E+03  0.17120000000E+03 0.  0.
         13    1    1    2    0    0  0.14408088185E+02  0.85296828606E+02  0.49334752177E+03  0.50087416621E+03  0.10566000000E+00 0. -1.
        994    1    1    2    0    0  0.12649704048E+02 -0.11793627909E+02  0.11940871388E+02  0.17248515612E+03  0.17120000000E+03 0.  0.
        998    1    1    2    0    0 -0.27057792233E+02 -0.73503200697E+02  0.99471160312E+03  0.99784067767E+03  0.10000000000E+02 0. -1.
</event>
<event>
 5    1  0.1574792E-008  0.3741832E+03  0.7957747E-01  0.3476884E+00
         13   -1    0    0    0    0  0.00000000000E+00  0.00000000000E+00  0.14999999963E+04  0.15000000000E+04  0.10566000000E+00 0. -1.
        994   -1    0    0    0    0 -0.00000000000E+00 -0.00000000000E+00  0.11368683772E-12  0.17120000000E+03  0.17120000000E+03 0.  0.
         13    1    1    2    0    0  0.20911761400E+01  0.18467255083E+02  0.21730731290E+02  0.28594551481E+02  0.10566000000E+00 0. -1.
        994    1    1    2    0    0 -0.12955388755E+00 -0.50285824419E+01  0.71850176728E+01  0.17142452539E+03  0.17120000000E+03 0.  0.
        998    1    1    2    0    0 -0.19616222524E+01 -0.13438672641E+02  0.14710842473E+04  0.14711809231E+04  0.10000000000E+02 0. -1.
</event>
<event>
 5    1  0.1574792E-008  0.3904419E+03  0.7957747E-01  0.3406915E+00
         13   -1    0    0    0    0  0.00000000000E+00  0.00000000000E+00  0.14999999963E+04  0.15000000000E+04  0.10566000000E+00 0. -1.
        994   -1    0    0    0    0 -0.00000000000E+00 -0.00000000000E+00  0.11368683772E-12  0.17120000000E+03  0.17120000000E+03 0.  0.
         13    1    1    2    0    0  0.51120233805E+02  0.28283580530E+02  0.69905207829E+02  0.91104272554E+02  0.10566000000E+00 0. -1.
        994    1    1    2    0    0 -0.33650841266E+02 -0.20912395784E+02  0.28123884469E+02  0.17796095160E+03  0.17120000000E+03 0.  0.
        998    1    1    2    0    0 -0.17469392539E+02 -0.73711847457E+01  0.14019709040E+04  0.14021347758E+04  0.10000000000E+02 0. -1.
</event>
<event>
 5    1  0.1574792E-008  0.3842909E+03  0.7957747E-01  0.3432685E+00
         13   -1    0    0    0    0  0.00000000000E+00  0.00000000000E+00  0.14999999963E+04  0.15000000000E+04  0.10566000000E+00 0.  1.
        994   -1    0    0    0    0 -0.00000000000E+00 -0.00000000000E+00  0.11368683772E-12  0.17120000000E+03  0.17120000000E+03 0.  0.
         13    1    1    2    0    0 -0.15898922667E+02 -0.74463710446E+01  0.79635874845E+02  0.81548193788E+02  0.10566000000E+00 0.  1.
        994    1    1    2    0    0  0.78753689680E+01 -0.42720433431E+00  0.21876595234E+01  0.17139553610E+03  0.17120000000E+03 0.  0.
        998    1    1    2    0    0  0.80235536992E+01  0.78735753789E+01  0.14181764619E+04  0.14182562701E+04  0.10000000000E+02 0.  1.
</event>
<event>
 5    1  0.1574792E-008  0.3897419E+03  0.7957747E-01  0.3409807E+00
         13   -1    0    0    0    0  0.00000000000E+00  0.00000000000E+00  0.14999999963E+04  0.15000000000E+04  0.10566000000E+00 0. -1.
        994   -1    0    0    0    0 -0.00000000000E+00 -0.00000000000E+00  0.11368683772E-12  0.17120000000E+03  0.17120000000E+03 0.  0.
         13    1    1    2    0    0  0.77650722822E+02 -0.90086667146E+02  0.31815983258E+03  0.33966296911E+03  0.10566000000E+00 0. -1.
        994    1    1    2    0    0 -0.29106390976E+02  0.71465704262E+02  0.44529246205E+02  0.19299435911E+03  0.17120000000E+03 0.  0.
        998    1    1    2    0    0 -0.48544331846E+02  0.18620962884E+02  0.11373109175E+04  0.11385426718E+04  0.10000000000E+02 0. -1.
</event>
<event>
 5    1  0.1574792E-008  0.3842252E+03  0.7957747E-01  0.3432965E+00
         13   -1    0    0    0    0  0.00000000000E+00  0.00000000000E+00  0.14999999963E+04  0.15000000000E+04  0.10566000000E+00 0.  1.
        994   -1    0    0    0    0 -0.00000000000E+00 -0.00000000000E+00  0.11368683772E-12  0.17120000000E+03  0.17120000000E+03 0.  0.
         13    1    1    2    0    0  0.16379370145E+02  0.90148396558E+01  0.83929841665E+02  0.85987095464E+02  0.10566000000E+00 0.  1.
        994    1    1    2    0    0 -0.14951434998E+02 -0.68750131191E+01  0.29086686124E+01  0.17201369587E+03  0.17120000000E+03 0.  0.
        998    1    1    2    0    0 -0.14279351467E+01 -0.21398265367E+01  0.14131614860E+04  0.14131992087E+04  0.10000000000E+02 0.  1.
</event>
<event>
 5    1  0.1574792E-008  0.3254908E+03  0.7957747E-01  0.3729322E+00
         13   -1    0    0    0    0  0.00000000000E+00  0.00000000000E+00  0.14999999963E+04  0.15000000000E+04  0.10566000000E+00 0.  1.
        994   -1    0    0    0    0 -0.00000000000E+00 -0.00000000000E+00  0.11368683772E-12  0.17120000000E+03  0.17120000000E+03 0.  0.
         13    1    1    2    0    0  0.14733507826E+03  0.10819183850E+03  0.10910697819E+04  0.11062759056E+04  0.10566000000E+00 0.  1.
        994    1    1    2    0    0 -0.44865320466E+02 -0.60095201625E+02  0.57458256152E+02  0.19553828638E+03  0.17120000000E+03 0.  0.
        998    1    1    2    0    0 -0.10246975779E+03 -0.48096636870E+02  0.35147195823E+03  0.36938580802E+03  0.10000000000E+02 0. -1.
</event>
<event>
 5    1  0.1574792E-008  0.3785745E+03  0.7957747E-01  0.3457389E+00
         13   -1    0    0    0    0  0.00000000000E+00  0.00000000000E+00  0.14999999963E+04  0.15000000000E+04  0.10566000000E+00 0. -1.
        994   -1    0    0    0    0 -0.00000000000E+00 -0.00000000000E+00  0.11368683772E-12  0.17120000000E+03  0.17120000000E+03 0.  0.
         13    1    1    2    0    0  0.17889893413E+02  0.12769391801E+02  0.46879155886E+02  0.51776172839E+02  0.10566000000E+00 0. -1.
        994    1    1    2    0    0 -0.19212659793E+02 -0.85918150856E+01  0.63436168367E+01  0.17260540854E+03  0.17120000000E+03 0.  0.
        998    1    1    2    0    0  0.13227663800E+01 -0.41775767151E+01  0.14467772236E+04  0.14468184186E+04  0.10000000000E+02 0. -1.
</event>
<event>
 5    1  0.1574792E-008  0.3849509E+03  0.7957747E-01  0.3429880E+00
         13   -1    0    0    0    0  0.00000000000E+00  0.00000000000E+00  0.14999999963E+04  0.15000000000E+04  0.10566000000E+00 0. -1.
        994   -1    0    0    0    0 -0.00000000000E+00 -0.00000000000E+00  0.11368683772E-12  0.17120000000E+03  0.17120000000E+03 0.  0.
         13    1    1    2    0    0 -0.58406873133E+01 -0.14092482530E+02  0.67772132713E+02  0.69467869038E+02  0.10566000000E+00 0. -1.
        994    1    1    2    0    0  0.83030685454E+01  0.13683905755E+02  0.24976123642E+01  0.17196472979E+03  0.17120000000E+03 0.  0.
        998    1    1    2    0    0 -0.24623812321E+01  0.40857677463E+00  0.14297302512E+04  0.14297674012E+04  0.10000000000E+02 0. -1.
</event>
<event>
 5    1  0.1574792E-008  0.3774151E+03  0.7957747E-01  0.3462491E+00
         13   -1    0    0    0    0  0.00000000000E+00  0.00000000000E+00  0.14999999963E+04  0.15000000000E+04  0.10566000000E+00 0.  1.
        994   -1    0    0    0    0 -0.00000000000E+00 -0.00000000000E+00  0.11368683772E-12  0.17120000000E+03  0.17120000000E+03 0.  0.
         13    1    1    2    0    0  0.36513383949E+02  0.14387169853E+02  0.14902148891E+03  0.15410267092E+03  0.10566000000E+00 0.  1.
        994    1    1    2    0    0 -0.90278386718E+01 -0.86699409614E+01  0.59721104801E+01  0.17176081000E+03  0.17120000000E+03 0.  0.
        998    1    1    2    0    0 -0.27485545277E+02 -0.57172288915E+01  0.13450063969E+04  0.13453365191E+04  0.10000000000E+02 0.  1.
</event>
<event>
 5    1  0.1574792E-008  0.3852845E+03  0.7957747E-01  0.3428467E+00
         13   -1    0    0    0    0  0.00000000000E+00  0.00000000000E+00  0.14999999963E+04  0.15000000000E+04  0.10566000000E+00 0. -1.
        994   -1    0    0    0    0 -0.00000000000E+00 -0.00000000000E+00  0.11368683772E-12  0.17120000000E+03  0.17120000000E+03 0.  0.
         13    1    1    2    0    0 -0.52629010717E+01 -0.14360320956E+02  0.72923804668E+02  0.74510465016E+02  0.10566000000E+00 0. -1.
        994    1    1    2    0    0 -0.52784219061E+01  0.24790058561E+02  0.36025330142E+01  0.17310351523E+03  0.17120000000E+03 0.  0.
        998    1    1    2    0    0  0.10541322978E+02 -0.10429737605E+02  0.14234736586E+04  0.14235860198E+04  0.10000000000E+02 0. -1.
</event>
<event>
 5    1  0.1574792E-008  0.3806301E+03  0.7957747E-01  0.3448419E+00
         13   -1    0    0    0    0  0.00000000000E+00  0.00000000000E+00  0.14999999963E+04  0.15000000000E+04  0.10566000000E+00 0.  1.
        994   -1    0    0    0    0 -0.00000000000E+00 -0.00000000000E+00  0.11368683772E-12  0.17120000000E+03  0.17120000000E+03 0.  0.
         13    1    1    2    0    0  0.33392249642E+01 -0.98279892585E+01  0.12370402747E+02  0.16148616795E+02  0.10566000000E+00 0.  1.
        994    1    1    2    0    0 -0.44603647291E+01  0.97733024323E+01  0.42004998318E+01  0.17158815954E+03  0.17120000000E+03 0.  0.
        998    1    1    2    0    0  0.11211397649E+01  0.54686826238E-01  0.14834290937E+04  0.14834632237E+04  0.10000000000E+02 0.  1.
</event>
<event>
 5    1  0.1574792E-008  0.3842817E+03  0.7957747E-01  0.3432724E+00
         13   -1    0    0    0    0  0.00000000000E+00  0.00000000000E+00  0.14999999963E+04  0.15000000000E+04  0.10566000000E+00 0.  1.
        994   -1    0    0    0    0 -0.00000000000E+00 -0.00000000000E+00  0.11368683772E-12  0.17120000000E+03  0.17120000000E+03 0.  0.
         13    1    1    2    0    0 -0.12344782184E+02  0.82567320774E+01  0.54626419309E+02  0.56609399593E+02  0.10566000000E+00 0.  1.
        994    1    1    2    0    0  0.12144331930E+02 -0.27715261785E+01  0.24988304219E+01  0.17167076137E+03  0.17120000000E+03 0.  0.
        998    1    1    2    0    0  0.20045025477E+00 -0.54852058988E+01  0.14428747465E+04  0.14429198390E+04  0.10000000000E+02 0.  1.
</event>
<event>
 5    1  0.1574792E-008  0.3838136E+03  0.7957747E-01  0.3434720E+00
         13   -1    0    0    0    0  0.00000000000E+00  0.00000000000E+00  0.14999999963E+04  0.15000000000E+04  0.10566000000E+00 0.  1.
        994   -1    0    0    0    0 -0.00000000000E+00 -0.00000000000E+00  0.11368683772E-12  0.17120000000E+03  0.17120000000E+03 0.  0.
         13    1    1    2    0    0 -0.13777853768E+02  0.71027576062E+01  0.54230679972E+02  0.56402626130E+02  0.10566000000E+00 0.  1.
        994    1    1    2    0    0  0.98740389380E+01  0.19364196929E+01  0.25546401750E+01  0.17151446747E+03  0.17120000000E+03 0.  0.
        998    1    1    2    0    0  0.39038148297E+01 -0.90391772991E+01  0.14432146761E+04  0.14432829064E+04  0.10000000000E+02 0.  1.
</event>
<event>
 5    1  0.1574792E-008  0.3827374E+03  0.7957747E-01  0.3439325E+00
         13   -1    0    0    0    0  0.00000000000E+00  0.00000000000E+00  0.14999999963E+04  0.15000000000E+04  0.10566000000E+00 0.  1.
        994   -1    0    0    0    0 -0.00000000000E+00 -0.00000000000E+00  0.11368683772E-12  0.17120000000E+03  0.17120000000E+03 0.  0.
         13    1    1    2    0    0  0.96667331974E+01  0.29964562790E+01  0.17412447569E+02  0.20140232752E+02  0.10566000000E+00 0.  1.
        994    1    1    2    0    0 -0.69003758939E+01 -0.76565457179E+01  0.31096844283E+01  0.17153818239E+03  0.17120000000E+03 0.  0.
        998    1    1    2    0    0 -0.27663573035E+01  0.46600894389E+01  0.14794778643E+04  0.14795215849E+04  0.10000000000E+02 0.  1.
</event>
<event>
 5    1  0.1574792E-008  0.3856508E+03  0.7957747E-01  0.3426917E+00
         13   -1    0    0    0    0  0.00000000000E+00  0.00000000000E+00  0.14999999963E+04  0.15000000000E+04  0.10566000000E+00 0.  1.
        994   -1    0    0    0    0 -0.00000000000E+00 -0.00000000000E+00  0.11368683772E-12  0.17120000000E+03  0.17120000000E+03 0.  0.
         13    1    1    2    0    0 -0.12338990474E+02  0.20612640090E+00  0.54760079381E+02  0.56133507211E+02  0.10566000000E+00 0.  1.
        994    1    1    2    0    0  0.18918027551E+02 -0.25921195456E+01  0.25048403327E+01  0.17227978719E+03  0.17120000000E+03 0.  0.
        998    1    1    2    0    0 -0.65790370769E+01  0.23859931447E+01  0.14427350766E+04  0.14427867056E+04  0.10000000000E+02 0.  1.
</event>
<event>
 5    1  0.1574792E-008  0.3787747E+03  0.7957747E-01  0.3456511E+00
         13   -1    0    0    0    0  0.00000000000E+00  0.00000000000E+00  0.14999999963E+04  0.15000000000E+04  0.10566000000E+00 0. -1.
        994   -1    0    0    0    0 -0.00000000000E+00 -0.00000000000E+00  0.11368683772E-12  0.17120000000E+03  0.17120000000E+03 0.  0.
         13    1    1    2    0    0 -0.29342145853E+02  0.47513184577E+02  0.28690549903E+03  0.29228965218E+03  0.10566000000E+00 0. -1.
        994    1    1    2    0    0  0.34025861534E+02 -0.34699811038E+02  0.12721701670E+02  0.17841837863E+03  0.17120000000E+03 0.  0.
        998    1    1    2    0    0 -0.46837156809E+01 -0.12813373539E+02  0.12003727956E+04  0.12004919692E+04  0.10000000000E+02 0. -1.
</event>
<event>
 5    1  0.3156099E-008  0.3860494E+03  0.7957747E-01  0.3425234E+00
         13   -1    0    0    0    0  0.00000000000E+00  0.00000000000E+00  0.14999999963E+04  0.15000000000E+04  0.10566000000E+00 0. -1.
        994   -1    0    0    0    0 -0.00000000000E+00 -0.00000000000E+00  0.11368683772E-12  0.17120000000E+03  0.17120000000E+03 0.  0.
         13    1    1    2    0    0 -0.88747009116E+01 -0.53816965431E+01  0.49168168239E+02  0.50251795052E+02  0.10566000000E+00 0. -1.
        994    1    1    2    0    0  0.49456845335E+01  0.51288378173E+01  0.12764142818E+01  0.17135295155E+03  0.17120000000E+03 0.  0.
        998    1    1    2    0    0  0.39290163781E+01  0.25285872581E+00  0.14495554138E+04  0.14495952534E+04  0.10000000000E+02 0. -1.
</event>
<event>
 5    1  0.1574792E-008  0.3813576E+03  0.7957747E-01  0.3445268E+00
         13   -1    0    0    0    0  0.00000000000E+00  0.00000000000E+00  0.14999999963E+04  0.15000000000E+04  0.10566000000E+00 0.  1.
        994   -1    0    0    0    0 -0.00000000000E+00 -0.00000000000E+00  0.11368683772E-12  0.17120000000E+03  0.17120000000E+03 0.  0.
         13    1    1    2    0    0 -0.12214991162E+02  0.17711599143E+01  0.20839814545E+02  0.24220901115E+02  0.10566000000E+00 0.  1.
        994    1    1    2    0    0  0.58842008771E+01 -0.26080249268E+01  0.35872814776E+01  0.17135849615E+03  0.17120000000E+03 0.  0.
        998    1    1    2    0    0  0.63307902848E+01  0.83686501254E+00  0.14755729003E+04  0.14756206027E+04  0.10000000000E+02 0.  1.
</event>
<event>
 5    1  0.1574792E-008  0.3752714E+03  0.7957747E-01  0.3472010E+00
         13   -1    0    0    0    0  0.00000000000E+00  0.00000000000E+00  0.14999999963E+04  0.15000000000E+04  0.10566000000E+00 0.  1.
        994   -1    0    0    0    0 -0.00000000000E+00 -0.00000000000E+00  0.11368683772E-12  0.17120000000E+03  0.17120000000E+03 0.  0.
         13    1    1    2    0    0  0.26183403791E+02 -0.32610903578E+02  0.15440265217E+03  0.15996634592E+03  0.10566000000E+00 0.  1.
        994    1    1    2    0    0  0.12053407327E+02  0.32538599272E+01  0.70689373697E+01  0.17180012255E+03  0.17120000000E+03 0.  0.
        998    1    1    2    0    0 -0.38236811118E+02  0.29357043651E+02  0.13385284067E+04  0.13394335315E+04  0.10000000000E+02 0.  1.
</event>
<event>
 5    1  0.1574792E-008  0.3784811E+03  0.7957747E-01  0.3457799E+00
         13   -1    0    0    0    0  0.00000000000E+00  0.00000000000E+00  0.14999999963E+04  0.15000000000E+04  0.10566000000E+00 0. -1.
        994   -1    0    0    0    0 -0.00000000000E+00 -0.00000000000E+00  0.11368683772E-12  0.17120000000E+03  0.17120000000E+03 0.  0.
         13    1    1    2    0    0  0.47480715945E+02  0.14791616064E+02  0.28043197503E+03  0.28480750354E+03  0.10566000000E+00 0. -1.
        994    1    1    2    0    0 -0.17157242000E+02  0.38157677292E+01  0.59404469075E+01  0.17220238078E+03  0.17120000000E+03 0.  0.
        998    1    1    2    0    0 -0.30323473945E+02 -0.18607383793E+02  0.12136275743E+04  0.12141901157E+04  0.10000000000E+02 0. -1.
</event>
<event>
 5    1  0.1574792E-008  0.3591525E+03  0.7957747E-01  0.3547279E+00
         13   -1    0    0    0    0  0.00000000000E+00  0.00000000000E+00  0.14999999963E+04  0.15000000000E+04  0.10566000000E+00 0.  1.
        994   -1    0    0    0    0 -0.00000000000E+00 -0.00000000000E+00  0.11368683772E-12  0.17120000000E+03  0.17120000000E+03 0.  0.
         13    1    1    2    0    0 -0.17695426677E+03 -0.20397105901E+03  0.92224555261E+03  0.96096507528E+03  0.10566000000E+00 0.  1.
        994    1    1    2    0    0  0.19502940795E+03  0.19329122801E+03  0.33280376794E+03  0.46418289148E+03  0.17120000000E+03 0.  0.
        998    1    1    2    0    0 -0.18075141178E+02  0.10679830999E+02  0.24495067573E+03  0.24605203324E+03  0.10000000000E+02 0.  1.
</event>
<event>
 5    1  0.1574792E-008  0.3812529E+03  0.7957747E-01  0.3445721E+00
         13   -1    0    0    0    0  0.00000000000E+00  0.00000000000E+00  0.14999999963E+04  0.15000000000E+04  0.10566000000E+00 0. -1.
        994   -1    0    0    0    0 -0.00000000000E+00 -0.00000000000E+00  0.11368683772E-12  0.17120000000E+03  0.17120000000E+03 0.  0.
         13    1    1    2    0    0  0.56129441017E+01 -0.29634994824E+02  0.11937174275E+03  0.12312336167E+03  0.10566000000E+00 0. -1.
        994    1    1    2    0    0 -0.21056999683E+02  0.27505898802E+02  0.75072158840E+01  0.17483068951E+03  0.17120000000E+03 0.  0.
        998    1    1    2    0    0  0.15444055582E+02  0.21290960223E+01  0.13731210376E+04  0.13732459488E+04  0.10000000000E+02 0. -1.
</event>
<event>
 5    1  0.1574792E-008  0.3839848E+03  0.7957747E-01  0.3433989E+00
         13   -1    0    0    0    0  0.00000000000E+00  0.00000000000E+00  0.14999999963E+04  0.15000000000E+04  0.10566000000E+00 0.  1.
        994   -1    0    0    0    0 -0.00000000000E+00 -0.00000000000E+00  0.11368683772E-12  0.17120000000E+03  0.17120000000E+03 0.  0.
         13    1    1    2    0    0 -0.58790646163E+01 -0.16475431328E+02  0.69888544787E+02  0.72044591016E+02  0.10566000000E+00 0.  1.
        994    1    1    2    0    0 -0.64192905856E+00  0.15790851790E+02  0.29595095270E+01  0.17195337092E+03  0.17120000000E+03 0.  0.
        998    1    1    2    0    0  0.65209936748E+01  0.68457953768E+00  0.14271519420E+04  0.14272020381E+04  0.10000000000E+02 0.  1.
</event>
<event>
 5    1  0.1574792E-008  0.3838763E+03  0.7957747E-01  0.3434452E+00
         13   -1    0    0    0    0  0.00000000000E+00  0.00000000000E+00  0.14999999963E+04  0.15000000000E+04  0.10566000000E+00 0. -1.
        994   -1    0    0    0    0 -0.00000000000E+00 -0.00000000000E+00  0.11368683772E-12  0.17120000000E+03  0.17120000000E+03 0.  0.
         13    1    1    2    0    0  0.24255053427E+02 -0.57569030673E+01  0.14465491671E+03  0.14678728024E+03  0.10566000000E+00 0. -1.
        994    1    1    2    0    0 -0.13255951886E+02 -0.18999082877E+01  0.27811831266E+01  0.17174546542E+03  0.17120000000E+03 0.  0.
        998    1    1    2    0    0 -0.10999101541E+02  0.76568113550E+01  0.13525638964E+04  0.13526672543E+04  0.10000000000E+02 0. -1.
</event>
<event>
 5    1  0.1574792E-008  0.3774987E+03  0.7957747E-01  0.3462123E+00
         13   -1    0    0    0    0  0.00000000000E+00  0.00000000000E+00  0.14999999963E+04  0.15000000000E+04  0.10566000000E+00 0. -1.
        994   -1    0    0    0    0 -0.00000000000E+00 -0.00000000000E+00  0.11368683772E-12  0.17120000000E+03  0.17120000000E+03 0.  0.
         13    1    1    2    0    0  0.10161657251E+02 -0.42023330685E+02  0.55980055965E+02  0.70731869972E+02  0.10566000000E+00 0. -1.
        994    1    1    2    0    0  0.12924655582E+02  0.40488325120E+02  0.21474081200E+02  0.17769897962E+03  0.17120000000E+03 0.  0.
        998    1    1    2    0    0 -0.23086312834E+02  0.15350055646E+01  0.14225458591E+04  0.14227691504E+04  0.10000000000E+02 0. -1.
</event>
<event>
 5    1  0.1574792E-008  0.4214212E+03  0.7957747E-01  0.3288514E+00
         13   -1    0    0    0    0  0.00000000000E+00  0.00000000000E+00  0.14999999963E+04  0.15000000000E+04  0.10566000000E+00 0.  1.
        994   -1    0    0    0    0 -0.00000000000E+00 -0.00000000000E+00  0.11368683772E-12  0.17120000000E+03  0.17120000000E+03 0.  0.
         13    1    1    2    0    0  0.84048923096E+02  0.97277471343E+02  0.39351734127E+03  0.41398434385E+03  0.10566000000E+00 0.  1.
        994    1    1    2    0    0  0.11859188816E+03 -0.27671142591E+02  0.10852582325E+03  0.23646780411E+03  0.17120000000E+03 0.  0.
        998    1    1    2    0    0 -0.20264081126E+03 -0.69606328752E+02  0.99795683176E+03  0.10207478520E+04  0.10000000000E+02 0.  1.
</event>
<event>
 5    1  0.2015072E-008  0.3861276E+03  0.7957747E-01  0.3424904E+00
         13   -1    0    0    0    0  0.00000000000E+00  0.00000000000E+00  0.14999999963E+04  0.15000000000E+04  0.10566000000E+00 0.  1.
        994   -1    0    0    0    0 -0.00000000000E+00 -0.00000000000E+00  0.11368683772E-12  0.17120000000E+03  0.17120000000E+03 0.  0.
         13    1    1    2    0    0  0.10528168085E+02  0.42895837277E+01  0.59553749705E+02  0.60629226613E+02  0.10566000000E+00 0.  1.
        994    1    1    2    0    0 -0.12670251075E+02  0.12269788003E+01  0.16024688185E+01  0.17168007644E+03  0.17120000000E+03 0.  0.
        998    1    1    2    0    0  0.21420829894E+01 -0.55165625280E+01  0.14388437778E+04  0.14388906969E+04  0.10000000000E+02 0.  1.
</event>
<event>
 5    1  0.1574792E-008  0.3803590E+03  0.7957747E-01  0.3449597E+00
         13   -1    0    0    0    0  0.00000000000E+00  0.00000000000E+00  0.14999999963E+04  0.15000000000E+04  0.10566000000E+00 0. -1.
        994   -1    0    0    0    0 -0.00000000000E+00 -0.00000000000E+00  0.11368683772E-12  0.17120000000E+03  0.17120000000E+03 0.  0.
         13    1    1    2    0    0  0.38485911124E+02  0.13754723630E+02  0.19791782850E+03  0.20209363122E+03  0.10566000000E+00 0. -1.
        994    1    1    2    0    0 -0.31477287145E+02 -0.58196877440E+01  0.73809855684E+01  0.17432328393E+03  0.17120000000E+03 0.  0.
        998    1    1    2    0    0 -0.70086239788E+01 -0.79350358857E+01  0.12947011822E+04  0.12947830849E+04  0.10000000000E+02 0. -1.
</event>
<event>
 5    1  0.1574792E-008  0.3818471E+03  0.7957747E-01  0.3443155E+00
         13   -1    0    0    0    0  0.00000000000E+00  0.00000000000E+00  0.14999999963E+04  0.15000000000E+04  0.10566000000E+00 0. -1.
        994   -1    0    0    0    0 -0.00000000000E+00 -0.00000000000E+00  0.11368683772E-12  0.17120000000E+03  0.17120000000E+03 0.  0.
         13    1    1    2    0    0  0.80711446309E+02 -0.81309993110E+01  0.19520033161E+03  0.21138503102E+03  0.10566000000E+00 0. -1.
        994    1    1    2    0    0 -0.43623331326E+02 -0.55045900709E+02  0.35571704201E+02  0.18843522059E+03  0.17120000000E+03 0.  0.
        998    1    1    2    0    0 -0.37088114983E+02  0.63176900020E+02  0.12692279605E+04  0.12713797484E+04  0.10000000000E+02 0. -1.
</event>
<event>
 5    1  0.1574792E-008  0.3757404E+03  0.7957747E-01  0.3469918E+00
         13   -1    0    0    0    0  0.00000000000E+00  0.00000000000E+00  0.14999999963E+04  0.15000000000E+04  0.10566000000E+00 0. -1.
        994   -1    0    0    0    0 -0.00000000000E+00 -0.00000000000E+00  0.11368683772E-12  0.17120000000E+03  0.17120000000E+03 0.  0.
         13    1    1    2    0    0 -0.19826537729E+02 -0.22758336240E+02  0.66820932338E+02  0.73321767772E+02  0.10566000000E+00 0. -1.
        994    1    1    2    0    0  0.36347572389E+02  0.10677808078E+02  0.11180767857E+02  0.17569749905E+03  0.17120000000E+03 0.  0.
        998    1    1    2    0    0 -0.16521034660E+02  0.12080528162E+02  0.14219982961E+04  0.14221807332E+04  0.10000000000E+02 0. -1.
</event>
<event>
 5    1  0.1574792E-008  0.3776253E+03  0.7957747E-01  0.3461564E+00
         13   -1    0    0    0    0  0.00000000000E+00  0.00000000000E+00  0.14999999963E+04  0.15000000000E+04  0.10566000000E+00 0. -1.
        994   -1    0    0    0    0 -0.00000000000E+00 -0.00000000000E+00  0.11368683772E-12  0.17120000000E+03  0.17120000000E+03 0.  0.
         13    1    1    2    0    0  0.70217785749E-01  0.21462691792E+02  0.43477957999E+02  0.48487071115E+02  0.10566000000E+00 0. -1.
        994    1    1    2    0    0 -0.44203213482E+01  0.34833409413E+01  0.54434411864E+01  0.17137894841E+03  0.17120000000E+03 0.  0.
        998    1    1    2    0    0  0.43501035625E+01 -0.24946032733E+02  0.14510785971E+04  0.14513339805E+04  0.10000000000E+02 0. -1.
</event>
<event>
 5    1  0.1574792E-008  0.3782146E+03  0.7957747E-01  0.3458970E+00
         13   -1    0    0    0    0  0.00000000000E+00  0.00000000000E+00  0.14999999963E+04  0.15000000000E+04  0.10566000000E+00 0.  1.
        994   -1    0    0    0    0 -0.00000000000E+00 -0.00000000000E+00  0.11368683772E-12  0.17120000000E+03  0.17120000000E+03 0.  0.
         13    1    1    2    0    0 -0.20781861653E+01 -0.13283381538E+02  0.15490348533E+02  0.20511683122E+02  0.10566000000E+00 0.  1.
        994    1    1    2    0    0 -0.38375614142E+00  0.16906058987E+02  0.59993552502E+01  0.17213771917E+03  0.17120000000E+03 0.  0.
        998    1    1    2    0    0  0.24619423067E+01 -0.36226774498E+01  0.14785102925E+04  0.14785505977E+04  0.10000000000E+02 0.  1.
</event>
<event>
 5    1  0.1574792E-008  0.3701065E+03  0.7957747E-01  0.3495402E+00
         13   -1    0    0    0    0  0.00000000000E+00  0.00000000000E+00  0.14999999963E+04  0.15000000000E+04  0.10566000000E+00 0.  1.
        994   -1    0    0    0    0 -0.00000000000E+00 -0.00000000000E+00  0.11368683772E-12  0.17120000000E+03  0.17120000000E+03 0.  0.
         13    1    1    2    0    0  0.30861707625E+02 -0.27998948700E+02  0.78912379587E+02  0.89238786085E+02  0.10566000000E+00 0.  1.
        994    1    1    2    0    0 -0.81649578034E+01  0.78560139185E+01  0.11444254280E+02  0.17195579213E+03  0.17120000000E+03 0.  0.
        998    1    1    2    0    0 -0.22696749822E+02  0.20142934782E+02  0.14096433624E+04  0.14100054218E+04  0.10000000000E+02 0.  1.
</event>
<event>
 5    1  0.1574792E-008  0.3706737E+03  0.7957747E-01  0.3492800E+00
         13   -1    0    0    0    0  0.00000000000E+00  0.00000000000E+00  0.14999999963E+04  0.15000000000E+04  0.10566000000E+00 0.  1.
        994   -1    0    0    0    0 -0.00000000000E+00 -0.00000000000E+00  0.11368683772E-12  0.17120000000E+03  0.17120000000E+03 0.  0.
         13    1    1    2    0    0 -0.41518406827E+02  0.50899961975E+01  0.94323591821E+02  0.10318254361E+03  0.10566000000E+00 0.  1.
        994    1    1    2    0    0  0.26223274088E+02 -0.16572460158E+02  0.12244152659E+02  0.17441807766E+03  0.17120000000E+03 0.  0.
        998    1    1    2    0    0  0.15295132739E+02  0.11482463961E+02  0.13934322518E+04  0.13935993787E+04  0.10000000000E+02 0.  1.
</event>
<event>
 5    1  0.1574792E-008  0.3819098E+03  0.7957747E-01  0.3442885E+00
         13   -1    0    0    0    0  0.00000000000E+00  0.00000000000E+00  0.14999999963E+04  0.15000000000E+04  0.10566000000E+00 0. -1.
        994   -1    0    0    0    0 -0.00000000000E+00 -0.00000000000E+00  0.11368683772E-12  0.17120000000E+03  0.17120000000E+03 0.  0.
         13    1    1    2    0    0  0.20646675481E+02 -0.81544375295E+01  0.72909472590E+02  0.76214056559E+02  0.10566000000E+00 0. -1.
        994    1    1    2    0    0 -0.22167868124E+02  0.95407080443E+01  0.51093943374E+01  0.17296816296E+03  0.17120000000E+03 0.  0.
        998    1    1    2    0    0  0.15211926423E+01 -0.13862705148E+01  0.14219811294E+04  0.14220177805E+04  0.10000000000E+02 0. -1.
</event>
<event>
 5    1  0.1574792E-008  0.3848855E+03  0.7957747E-01  0.3430158E+00
         13   -1    0    0    0    0  0.00000000000E+00  0.00000000000E+00  0.14999999963E+04  0.15000000000E+04  0.10566000000E+00 0. -1.
        994   -1    0    0    0    0 -0.00000000000E+00 -0.00000000000E+00  0.11368683772E-12  0.17120000000E+03  0.17120000000E+03 0.  0.
         13    1    1    2    0    0 -0.81285898806E+01  0.77383213357E+01  0.37928569084E+02  0.39554305800E+02  0.10566000000E+00 0. -1.
        994    1    1    2    0    0 -0.23770251239E+01 -0.71642622282E+01  0.18744532057E+01  0.17137657505E+03  0.17120000000E+03 0.  0.
        998    1    1    2    0    0  0.10505615004E+02 -0.57405910747E+00  0.14601969740E+04  0.14602691191E+04  0.10000000000E+02 0. -1.
</event>
<event>
 5    1  0.1574792E-008  0.3800937E+03  0.7957747E-01  0.3450751E+00
         13   -1    0    0    0    0  0.00000000000E+00  0.00000000000E+00  0.14999999963E+04  0.15000000000E+04  0.10566000000E+00 0.  1.
        994   -1    0    0    0    0 -0.00000000000E+00 -0.00000000000E+00  0.11368683772E-12  0.17120000000E+03  0.17120000000E+03 0.  0.
         13    1    1    2    0    0 -0.26561151049E+02 -0.83997319475E+01  0.10129803379E+03  0.10505880760E+03  0.10566000000E+00 0.  1.
        994    1    1    2    0    0  0.42211521521E+00  0.49962007590E+01  0.41698840122E+01  0.17132416098E+03  0.17120000000E+03 0.  0.
        998    1    1    2    0    0  0.26139035834E+02  0.34035311885E+01  0.13945320785E+04  0.13948170314E+04  0.10000000000E+02 0.  1.
</event>
<event>
 5    1  0.1574792E-008  0.3761413E+03  0.7957747E-01  0.3468134E+00
         13   -1    0    0    0    0  0.00000000000E+00  0.00000000000E+00  0.14999999963E+04  0.15000000000E+04  0.10566000000E+00 0.  1.
        994   -1    0    0    0    0 -0.00000000000E+00 -0.00000000000E+00  0.11368683772E-12  0.17120000000E+03  0.17120000000E+03 0.  0.
         13    1    1    2    0    0 -0.98886471458E+01 -0.87443024680E+01  0.11290271215E+02  0.17370364307E+02  0.10566000000E+00 0.  1.
        994    1    1    2    0    0  0.12525415380E+02  0.16833408009E+02  0.75860082802E+01  0.17264772566E+03  0.17120000000E+03 0.  0.
        998    1    1    2    0    0 -0.26367682339E+01 -0.80891055412E+01  0.14811237168E+04  0.14811819100E+04  0.10000000000E+02 0.  1.
</event>
<event>
 5    1  0.1574792E-008  0.3840479E+03  0.7957747E-01  0.3433720E+00
         13   -1    0    0    0    0  0.00000000000E+00  0.00000000000E+00  0.14999999963E+04  0.15000000000E+04  0.10566000000E+00 0.  1.
        994   -1    0    0    0    0 -0.00000000000E+00 -0.00000000000E+00  0.11368683772E-12  0.17120000000E+03  0.17120000000E+03 0.  0.
         13    1    1    2    0    0  0.10951649509E+02  0.77598667503E+01  0.43136150992E+02  0.45176242046E+02  0.10566000000E+00 0.  1.
        994    1    1    2    0    0 -0.63871080922E+00 -0.77328602102E+01  0.23022256792E+01  0.17139120550E+03  0.17120000000E+03 0.  0.
        998    1    1    2    0    0 -0.10312938699E+02 -0.27006540044E-01  0.14545616196E+04  0.14546325525E+04  0.10000000000E+02 0.  1.
</event>
<event>
 5    1  0.1574792E-008  0.3772215E+03  0.7957747E-01  0.3463346E+00
         13   -1    0    0    0    0  0.00000000000E+00  0.00000000000E+00  0.14999999963E+04  0.15000000000E+04  0.10566000000E+00 0. -1.
        994   -1    0    0    0    0 -0.00000000000E+00 -0.00000000000E+00  0.11368683772E-12  0.17120000000E+03  0.17120000000E+03 0.  0.
         13    1    1    2    0    0  0.93911906318E+00  0.88738191213E+02  0.48269115615E+03  0.49078112424E+03  0.10566000000E+00 0. -1.
        994    1    1    2    0    0  0.15054782961E+01 -0.87476756220E+02  0.31819865775E+02  0.19487532733E+03  0.17120000000E+03 0.  0.
        998    1    1    2    0    0 -0.24445973593E+01 -0.12614349936E+01  0.98548897435E+03  0.98554354843E+03  0.10000000000E+02 0.  0.
</event>
<event>
 5    1  0.1574792E-008  0.3841179E+03  0.7957747E-01  0.3433422E+00
         13   -1    0    0    0    0  0.00000000000E+00  0.00000000000E+00  0.14999999963E+04  0.15000000000E+04  0.10566000000E+00 0.  1.
        994   -1    0    0    0    0 -0.00000000000E+00 -0.00000000000E+00  0.11368683772E-12  0.17120000000E+03  0.17120000000E+03 0.  0.
         13    1    1    2    0    0 -0.22429726989E+02  0.72694346083E+01  0.11107570299E+03  0.11355069481E+03  0.10566000000E+00 0.  1.
        994    1    1    2    0    0  0.36953592647E+02 -0.18025518052E+02  0.76641063481E+01  0.17623468965E+03  0.17120000000E+03 0.  0.
        998    1    1    2    0    0 -0.14523865658E+02  0.10756083444E+02  0.13812601869E+04  0.13814146155E+04  0.10000000000E+02 0.  1.
</event>
<event>
 5    1  0.1574792E-008  0.3836596E+03  0.7957747E-01  0.3435377E+00
         13   -1    0    0    0    0  0.00000000000E+00  0.00000000000E+00  0.14999999963E+04  0.15000000000E+04  0.10566000000E+00 0.  1.
        994   -1    0    0    0    0 -0.00000000000E+00 -0.00000000000E+00  0.11368683772E-12  0.17120000000E+03  0.17120000000E+03 0.  0.
         13    1    1    2    0    0  0.12220447876E+02 -0.85098456604E+01  0.49949003003E+02  0.52121693031E+02  0.10566000000E+00 0.  1.
        994    1    1    2    0    0 -0.34058832170E+01 -0.44870738998E+01  0.24018930424E+01  0.17130949467E+03  0.17120000000E+03 0.  0.
        998    1    1    2    0    0 -0.88145646588E+01  0.12996919560E+02  0.14476491002E+04  0.14477688123E+04  0.10000000000E+02 0.  1.
</event>
<event>
 5    1  0.1574792E-008  0.3794825E+03  0.7957747E-01  0.3453415E+00
         13   -1    0    0    0    0  0.00000000000E+00  0.00000000000E+00  0.14999999963E+04  0.15000000000E+04  0.10566000000E+00 0.  1.
        994   -1    0    0    0    0 -0.00000000000E+00 -0.00000000000E+00  0.11368683772E-12  0.17120000000E+03  0.17120000000E+03 0.  0.
         13    1    1    2    0    0  0.10184962097E+03 -0.28850700363E+02  0.56865914021E+03  0.57842798784E+03  0.10566000000E+00 0.  1.
        994    1    1    2    0    0 -0.12340357651E+03  0.30649326247E+02  0.60588952593E+02  0.22169412503E+03  0.17120000000E+03 0.  0.
        998    1    1    2    0    0  0.21553955540E+02 -0.17986258837E+01  0.87075190348E+03  0.87107788714E+03  0.10000000000E+02 0.  1.
</event>
<event>
 5    1  0.1574792E-008  0.3799951E+03  0.7957747E-01  0.3451180E+00
         13   -1    0    0    0    0  0.00000000000E+00  0.00000000000E+00  0.14999999963E+04  0.15000000000E+04  0.10566000000E+00 0.  1.
        994   -1    0    0    0    0 -0.00000000000E+00 -0.00000000000E+00  0.11368683772E-12  0.17120000000E+03  0.17120000000E+03 0.  0.
         13    1    1    2    0    0  0.31002945493E+02  0.29373968065E+02  0.22857486788E+03  0.23253063028E+03  0.10566000000E+00 0.  1.
        994    1    1    2    0    0 -0.36821381260E+02  0.84816105243E+01  0.89233556965E+01  0.17554719625E+03  0.17120000000E+03 0.  0.
        998    1    1    2    0    0  0.58184357669E+01 -0.37855578590E+02  0.12625017727E+04  0.12631221735E+04  0.10000000000E+02 0.  1.
</event>
<event>
 5    1  0.1574792E-008  0.3684932E+03  0.7957747E-01  0.3502845E+00
         13   -1    0    0    0    0  0.00000000000E+00  0.00000000000E+00  0.14999999963E+04  0.15000000000E+04  0.10566000000E+00 0. -1.
        994   -1    0    0    0    0 -0.00000000000E+00 -0.00000000000E+00  0.11368683772E-12  0.17120000000E+03  0.17120000000E+03 0.  0.
         13    1    1    2    0    0 -0.69886476604E+01  0.30270250693E+02  0.48119455037E+02  0.57276717698E+02  0.10566000000E+00 0. -1.
        994    1    1    2    0    0  0.11436692511E+02  0.14057626465E+02  0.11201095655E+02  0.17252048963E+03  0.17120000000E+03 0.  0.
        998    1    1    2    0    0 -0.44480448502E+01 -0.44327877158E+02  0.14406794456E+04  0.14414027927E+04  0.10000000000E+02 0. -1.
</event>
<event>
 5    1  0.1574792E-008  0.3759825E+03  0.7957747E-01  0.3468840E+00
         13   -1    0    0    0    0  0.00000000000E+00  0.00000000000E+00  0.14999999963E+04  0.15000000000E+04  0.10566000000E+00 0. -1.
        994   -1    0    0    0    0 -0.00000000000E+00 -0.00000000000E+00  0.11368683772E-12  0.17120000000E+03  0.17120000000E+03 0.  0.
         13    1    1    2    0    0  0.26153373477E+02  0.70612113707E+01  0.19880412311E+02  0.33602107195E+02  0.10566000000E+00 0. -1.
        994    1    1    2    0    0 -0.22991289941E+02 -0.55599265639E+01  0.16138238672E+02  0.17357820988E+03  0.17120000000E+03 0.  0.
        998    1    1    2    0    0 -0.31620835359E+01 -0.15012848067E+01  0.14639813453E+04  0.14640196829E+04  0.10000000000E+02 0. -1.
</event>
<event>
 5    1  0.1574792E-008  0.3806978E+03  0.7957747E-01  0.3448126E+00
         13   -1    0    0    0    0  0.00000000000E+00  0.00000000000E+00  0.14999999963E+04  0.15000000000E+04  0.10566000000E+00 0.  1.
        994   -1    0    0    0    0 -0.00000000000E+00 -0.00000000000E+00  0.11368683772E-12  0.17120000000E+03  0.17120000000E+03 0.  0.
         13    1    1    2    0    0  0.14677589859E+02 -0.27191522827E+02  0.14474282609E+03  0.14800441691E+03  0.10566000000E+00 0.  1.
        994    1    1    2    0    0 -0.49336064568E+00 -0.46000626918E+01  0.38527128402E+01  0.17130582996E+03  0.17120000000E+03 0.  0.
        998    1    1    2    0    0 -0.14184229214E+02  0.31791585518E+02  0.13514044573E+04  0.13518897531E+04  0.10000000000E+02 0.  1.
</event>
<event>
 5    1  0.1574792E-008  0.3785584E+03  0.7957747E-01  0.3457460E+00
         13   -1    0    0    0    0  0.00000000000E+00  0.00000000000E+00  0.14999999963E+04  0.15000000000E+04  0.10566000000E+00 0.  1.
        994   -1    0    0    0    0 -0.00000000000E+00 -0.00000000000E+00  0.11368683772E-12  0.17120000000E+03  0.17120000000E+03 0.  0.
         13    1    1    2    0    0 -0.65057577830E+01 -0.23427367585E+02  0.58079037477E+02  0.62963101850E+02  0.10566000000E+00 0.  1.
        994    1    1    2    0    0 -0.15147891956E+01  0.20819404315E+02  0.63276153623E+01  0.17258395319E+03  0.17120000000E+03 0.  0.
        998    1    1    2    0    0  0.80205469787E+01  0.26079632701E+01  0.14355933434E+04  0.14356529450E+04  0.10000000000E+02 0.  1.
</event>
<event>
 5    1  0.1574792E-008  0.3940045E+03  0.7957747E-01  0.3392358E+00
         13   -1    0    0    0    0  0.00000000000E+00  0.00000000000E+00  0.14999999963E+04  0.15000000000E+04  0.10566000000E+00 0.  1.
        994   -1    0    0    0    0 -0.00000000000E+00 -0.00000000000E+00  0.11368683772E-12  0.17120000000E+03  0.17120000000E+03 0.  0.
         13    1    1    2    0    0  0.42414197109E+02  0.42874233204E+02  0.66782744253E+02  0.89983943474E+02  0.10566000000E+00 0.  1.
        994    1    1    2    0    0 -0.28362726895E+01 -0.58334554534E+02  0.37396633958E+02  0.18471305565E+03  0.17120000000E+03 0.  0.
        998    1    1    2    0    0 -0.39577924420E+02  0.15460321330E+02  0.13958206181E+04  0.13965030009E+04  0.10000000000E+02 0.  1.
</event>
<event>
 5    1  0.1574792E-008  0.3764800E+03  0.7957747E-01  0.3466630E+00
         13   -1    0    0    0    0  0.00000000000E+00  0.00000000000E+00  0.14999999963E+04  0.15000000000E+04  0.10566000000E+00 0.  1.
        994   -1    0    0    0    0 -0.00000000000E+00 -0.00000000000E+00  0.11368683772E-12  0.17120000000E+03  0.17120000000E+03 0.  0.
         13    1    1    2    0    0  0.47867662023E+02  0.26885163988E+01  0.28364282900E+03  0.28766613772E+03  0.10566000000E+00 0.  1.
        994    1    1    2    0    0  0.19969966166E+02 -0.73766871823E+01  0.74551050482E+01  0.17267956930E+03  0.17120000000E+03 0.  0.
        998    1    1    2    0    0 -0.67837628189E+02  0.46881707834E+01  0.12089020622E+04  0.12108542930E+04  0.10000000000E+02 0.  1.
</event>
<event>
 5    1  0.1574792E-008  0.3827059E+03  0.7957747E-01  0.3439461E+00
         13   -1    0    0    0    0  0.00000000000E+00  0.00000000000E+00  0.14999999963E+04  0.15000000000E+04  0.10566000000E+00 0. -1.
        994   -1    0    0    0    0 -0.00000000000E+00 -0.00000000000E+00  0.11368683772E-12  0.17120000000E+03  0.17120000000E+03 0.  0.
         13    1    1    2    0    0  0.12086053475E+02  0.16398750486E+02  0.92562392053E+02  0.94777630761E+02  0.10566000000E+00 0. -1.
        994    1    1    2    0    0  0.12051422297E+02  0.20459392800E+02  0.46437828371E+01  0.17290120952E+03  0.17120000000E+03 0.  0.
        998    1    1    2    0    0 -0.24137475772E+02 -0.36858143286E+02  0.14027938214E+04  0.14035211597E+04  0.10000000000E+02 0. -1.
</event>
<event>
 5    1  0.1574792E-008  0.3865241E+03  0.7957747E-01  0.3423234E+00
         13   -1    0    0    0    0  0.00000000000E+00  0.00000000000E+00  0.14999999963E+04  0.15000000000E+04  0.10566000000E+00 0.  1.
        994   -1    0    0    0    0 -0.00000000000E+00 -0.00000000000E+00  0.11368683772E-12  0.17120000000E+03  0.17120000000E+03 0.  0.
         13    1    1    2    0    0  0.86113645957E+01 -0.95432514587E+01  0.77478968571E+02  0.78538086197E+02  0.10566000000E+00 0.  1.
        994    1    1    2    0    0 -0.42744224241E+02  0.75647315489E+01  0.70660681095E+01  0.17675877118E+03  0.17120000000E+03 0.  0.
        998    1    1    2    0    0  0.34132859645E+02  0.19785199099E+01  0.14154549596E+04  0.14159031426E+04  0.10000000000E+02 0.  1.
</event>
<event>
 5    1  0.1574792E-008  0.3752304E+03  0.7957747E-01  0.3472193E+00
         13   -1    0    0    0    0  0.00000000000E+00  0.00000000000E+00  0.14999999963E+04  0.15000000000E+04  0.10566000000E+00 0. -1.
        994   -1    0    0    0    0 -0.00000000000E+00 -0.00000000000E+00  0.11368683772E-12  0.17120000000E+03  0.17120000000E+03 0.  0.
         13    1    1    2    0    0 -0.30831287123E+02 -0.43451864975E+01  0.67713449459E+02  0.74528996458E+02  0.10566000000E+00 0. -1.
        994    1    1    2    0    0  0.34713310755E+02  0.24331229343E+01  0.10684536546E+02  0.17502723603E+03  0.17120000000E+03 0.  0.
        998    1    1    2    0    0 -0.38820236323E+01  0.19120635633E+01  0.14216020103E+04  0.14216437675E+04  0.10000000000E+02 0. -1.
</event>
<event>
 5    1  0.1574792E-008  0.3839582E+03  0.7957747E-01  0.3434103E+00
         13   -1    0    0    0    0  0.00000000000E+00  0.00000000000E+00  0.14999999963E+04  0.15000000000E+04  0.10566000000E+00 0. -1.
        994   -1    0    0    0    0 -0.00000000000E+00 -0.00000000000E+00  0.11368683772E-12  0.17120000000E+03  0.17120000000E+03 0.  0.
         13    1    1    2    0    0 -0.15727922679E+01 -0.17088123709E+02  0.66851230936E+02  0.69018663339E+02  0.10566000000E+00 0. -1.
        994    1    1    2    0    0  0.86211018283E+01  0.13730868608E+02  0.30161320805E+01  0.17199243356E+03  0.17120000000E+03 0.  0.
        998    1    1    2    0    0 -0.70483095605E+01  0.33572551013E+01  0.14301326333E+04  0.14301889031E+04  0.10000000000E+02 0. -1.
</event>
<event>
 5    1  0.2209305E-008  0.3855260E+03  0.7957747E-01  0.3427445E+00
         13   -1    0    0    0    0  0.00000000000E+00  0.00000000000E+00  0.14999999963E+04  0.15000000000E+04  0.10566000000E+00 0. -1.
        994   -1    0    0    0    0 -0.00000000000E+00 -0.00000000000E+00  0.11368683772E-12  0.17120000000E+03  0.17120000000E+03 0.  0.
         13    1    1    2    0    0 -0.62821498956E+01 -0.98891275682E+01  0.48031082366E+02  0.49439420392E+02  0.10566000000E+00 0. -1.
        994    1    1    2    0    0  0.72989454975E+01  0.14207122118E+02  0.22072459189E+01  0.17195763681E+03  0.17120000000E+03 0.  0.
        998    1    1    2    0    0 -0.10167956019E+01 -0.43179945499E+01  0.14497616680E+04  0.14498029428E+04  0.10000000000E+02 0. -1.
</event>
<event>
 5    1  0.1574792E-008  0.3834081E+03  0.7957747E-01  0.3436452E+00
         13   -1    0    0    0    0  0.00000000000E+00  0.00000000000E+00  0.14999999963E+04  0.15000000000E+04  0.10566000000E+00 0. -1.
        994   -1    0    0    0    0 -0.00000000000E+00 -0.00000000000E+00  0.11368683772E-12  0.17120000000E+03  0.17120000000E+03 0.  0.
         13    1    1    2    0    0  0.13091248142E+02 -0.30687581998E+01  0.38810914843E+02  0.41074278202E+02  0.10566000000E+00 0. -1.
        994    1    1    2    0    0  0.76530472532E+01  0.11250706540E+02  0.30348445925E+01  0.17176669587E+03  0.17120000000E+03 0.  0.
        998    1    1    2    0    0 -0.20744295395E+02 -0.81819483401E+01  0.14581542368E+04  0.14583590259E+04  0.10000000000E+02 0. -1.
</event>
<event>
 5    1  0.1574792E-008  0.3776388E+03  0.7957747E-01  0.3461505E+00
         13   -1    0    0    0    0  0.00000000000E+00  0.00000000000E+00  0.14999999963E+04  0.15000000000E+04  0.10566000000E+00 0.  1.
        994   -1    0    0    0    0 -0.00000000000E+00 -0.00000000000E+00  0.11368683772E-12  0.17120000000E+03  0.17120000000E+03 0.  0.
         13    1    1    2    0    0 -0.10457881531E+02 -0.41596573905E+02  0.20982928224E+03  0.21416811410E+03  0.10566000000E+00 0.  1.
        994    1    1    2    0    0  0.20812069686E+01 -0.52219856898E+01  0.54363239287E+01  0.17137851142E+03  0.17120000000E+03 0.  0.
        998    1    1    2    0    0  0.83766745623E+01  0.46818559595E+02  0.12847343901E+04  0.12856533745E+04  0.10000000000E+02 0.  1.
</event>
<event>
 5    1  0.1574792E-008  0.3789595E+03  0.7957747E-01  0.3455702E+00
         13   -1    0    0    0    0  0.00000000000E+00  0.00000000000E+00  0.14999999963E+04  0.15000000000E+04  0.10566000000E+00 0.  1.
        994   -1    0    0    0    0 -0.00000000000E+00 -0.00000000000E+00  0.11368683772E-12  0.17120000000E+03  0.17120000000E+03 0.  0.
         13    1    1    2    0    0 -0.42035468350E+02  0.14200357224E+02  0.26165218466E+03  0.26538746701E+03  0.10566000000E+00 0.  1.
        994    1    1    2    0    0  0.81626846018E+00  0.42721443612E+01  0.47227897381E+01  0.17132034980E+03  0.17120000000E+03 0.  0.
        998    1    1    2    0    0  0.41219199890E+02 -0.18472501585E+02  0.12336250219E+04  0.12344921832E+04  0.10000000000E+02 0.  1.
</event>
<event>
 5    1  0.1574792E-008  0.3718025E+03  0.7957747E-01  0.3487648E+00
         13   -1    0    0    0    0  0.00000000000E+00  0.00000000000E+00  0.14999999963E+04  0.15000000000E+04  0.10566000000E+00 0. -1.
        994   -1    0    0    0    0 -0.00000000000E+00 -0.00000000000E+00  0.11368683772E-12  0.17120000000E+03  0.17120000000E+03 0.  0.
         13    1    1    2    0    0  0.30041388102E+02 -0.66355999420E+02  0.24014234493E+03  0.25094613098E+03  0.10566000000E+00 0. -1.
        994    1    1    2    0    0 -0.10316972513E+03  0.55385475110E+02  0.57028209499E+02  0.21511206315E+03  0.17120000000E+03 0.  0.
        998    1    1    2    0    0  0.73128337026E+02  0.10970524311E+02  0.12028294418E+04  0.12051418059E+04  0.10000000000E+02 0. -1.
</event>
<event>
 5    1  0.1574792E-008  0.3729776E+03  0.7957747E-01  0.3482317E+00
         13   -1    0    0    0    0  0.00000000000E+00  0.00000000000E+00  0.14999999963E+04  0.15000000000E+04  0.10566000000E+00 0.  1.
        994   -1    0    0    0    0 -0.00000000000E+00 -0.00000000000E+00  0.11368683772E-12  0.17120000000E+03  0.17120000000E+03 0.  0.
         13    1    1    2    0    0 -0.27262937306E+02 -0.48949638277E+01  0.26947857708E+02  0.38644878322E+02  0.10566000000E+00 0.  1.
        994    1    1    2    0    0 -0.46822571312E+01  0.46923321822E+01  0.12677280889E+02  0.17179666750E+03  0.17120000000E+03 0.  0.
        998    1    1    2    0    0  0.31945194437E+02  0.20263164549E+00  0.14603748577E+04  0.14607584542E+04  0.10000000000E+02 0.  1.
</event>
<event>
 5    1  0.1574792E-008  0.3833236E+03  0.7957747E-01  0.3436813E+00
         13   -1    0    0    0    0  0.00000000000E+00  0.00000000000E+00  0.14999999963E+04  0.15000000000E+04  0.10566000000E+00 0. -1.
        994   -1    0    0    0    0 -0.00000000000E+00 -0.00000000000E+00  0.11368683772E-12  0.17120000000E+03  0.17120000000E+03 0.  0.
         13    1    1    2    0    0 -0.12178623392E+02  0.21628912407E+02  0.11681862763E+03  0.11942667895E+03  0.10566000000E+00 0. -1.
        994    1    1    2    0    0  0.81654647310E+01 -0.23122502559E+02  0.44556372144E+01  0.17300467520E+03  0.17120000000E+03 0.  0.
        998    1    1    2    0    0  0.40131586612E+01  0.14935901521E+01  0.13787257314E+04  0.13787686458E+04  0.10000000000E+02 0. -1.
</event>
<event>
 5    1  0.1574792E-008  0.3853851E+03  0.7957747E-01  0.3428041E+00
         13   -1    0    0    0    0  0.00000000000E+00  0.00000000000E+00  0.14999999963E+04  0.15000000000E+04  0.10566000000E+00 0.  1.
        994   -1    0    0    0    0 -0.00000000000E+00 -0.00000000000E+00  0.11368683772E-12  0.17120000000E+03  0.17120000000E+03 0.  0.
         13    1    1    2    0    0  0.13275995089E+02 -0.12601530495E+02  0.10016553931E+03  0.10182434408E+03  0.10566000000E+00 0.  1.
        994    1    1    2    0    0 -0.17030549545E+02  0.26665073247E+02  0.47340512063E+01  0.17416347777E+03  0.17120000000E+03 0.  0.
        998    1    1    2    0    0  0.37545544566E+01 -0.14063542752E+02  0.13951004058E+04  0.13952121782E+04  0.10000000000E+02 0.  1.
</event>
<event>
 5    1  0.1574792E-008  0.3848311E+03  0.7957747E-01  0.3430389E+00
         13   -1    0    0    0    0  0.00000000000E+00  0.00000000000E+00  0.14999999963E+04  0.15000000000E+04  0.10566000000E+00 0.  1.
        994   -1    0    0    0    0 -0.00000000000E+00 -0.00000000000E+00  0.11368683772E-12  0.17120000000E+03  0.17120000000E+03 0.  0.
         13    1    1    2    0    0 -0.12876963233E+02 -0.17288289769E+02  0.11730915560E+03  0.11927342661E+03  0.10566000000E+00 0.  1.
        994    1    1    2    0    0  0.13397971169E+02  0.29022565963E+02  0.50835152058E+01  0.17423288178E+03  0.17120000000E+03 0.  0.
        998    1    1    2    0    0 -0.52100793653E+00 -0.11734276193E+02  0.13776073255E+04  0.13776936916E+04  0.10000000000E+02 0.  1.
</event>
<event>
 5    1  0.1627215E-008  0.3855329E+03  0.7957747E-01  0.3427415E+00
         13   -1    0    0    0    0  0.00000000000E+00  0.00000000000E+00  0.14999999963E+04  0.15000000000E+04  0.10566000000E+00 0. -1.
        994   -1    0    0    0    0 -0.00000000000E+00 -0.00000000000E+00  0.11368683772E-12  0.17120000000E+03  0.17120000000E+03 0.  0.
         13    1    1    2    0    0 -0.37399789500E+01  0.11086712263E+02  0.47847695633E+02  0.49257646846E+02  0.10566000000E+00 0. -1.
        994    1    1    2    0    0  0.73015976599E+01 -0.15014337161E+02  0.22814171085E+01  0.17202729002E+03  0.17120000000E+03 0.  0.
        998    1    1    2    0    0 -0.35616187099E+01  0.39276248981E+01  0.14498708835E+04  0.14499150631E+04  0.10000000000E+02 0. -1.
</event>
<event>
 5    1  0.1574792E-008  0.3717148E+03  0.7957747E-01  0.3488047E+00
         13   -1    0    0    0    0  0.00000000000E+00  0.00000000000E+00  0.14999999963E+04  0.15000000000E+04  0.10566000000E+00 0. -1.
        994   -1    0    0    0    0 -0.00000000000E+00 -0.00000000000E+00  0.11368683772E-12  0.17120000000E+03  0.17120000000E+03 0.  0.
         13    1    1    2    0    0  0.30432722644E+02 -0.17224814219E+02  0.45392719557E+02  0.57300567058E+02  0.10566000000E+00 0. -1.
        994    1    1    2    0    0 -0.33226321533E+02  0.17229167505E+02  0.16791418121E+02  0.17604608595E+03  0.17120000000E+03 0.  0.
        998    1    1    2    0    0  0.27935988890E+01 -0.43532867852E-02  0.14378158586E+04  0.14378533470E+04  0.10000000000E+02 0. -1.
</event>
<event>
 5    1  0.1574792E-008  0.3804464E+03  0.7957747E-01  0.3449217E+00
         13   -1    0    0    0    0  0.00000000000E+00  0.00000000000E+00  0.14999999963E+04  0.15000000000E+04  0.10566000000E+00 0. -1.
        994   -1    0    0    0    0 -0.00000000000E+00 -0.00000000000E+00  0.11368683772E-12  0.17120000000E+03  0.17120000000E+03 0.  0.
         13    1    1    2    0    0 -0.19473664438E+02  0.14952709795E+01  0.45719938210E+02  0.49717032855E+02  0.10566000000E+00 0. -1.
        994    1    1    2    0    0  0.22741705092E+02  0.41905619402E+01  0.56949949433E+01  0.17284854332E+03  0.17120000000E+03 0.  0.
        998    1    1    2    0    0 -0.32680406540E+01 -0.56858329197E+01  0.14485850631E+04  0.14486344238E+04  0.10000000000E+02 0. -1.
</event>
<event>
 5    1  0.1574792E-008  0.3809769E+03  0.7957747E-01  0.3446916E+00
         13   -1    0    0    0    0  0.00000000000E+00  0.00000000000E+00  0.14999999963E+04  0.15000000000E+04  0.10566000000E+00 0. -1.
        994   -1    0    0    0    0 -0.00000000000E+00 -0.00000000000E+00  0.11368683772E-12  0.17120000000E+03  0.17120000000E+03 0.  0.
         13    1    1    2    0    0 -0.17819777204E+02  0.33172142086E+02  0.19954656963E+03  0.20306841233E+03  0.10566000000E+00 0. -1.
        994    1    1    2    0    0  0.19448712243E+00 -0.20356010281E+02  0.50229176175E+01  0.17247920072E+03  0.17120000000E+03 0.  0.
        998    1    1    2    0    0  0.17625290082E+02 -0.12816131805E+02  0.12954305090E+04  0.12956523870E+04  0.10000000000E+02 0. -1.
</event>
<event>
 5    1  0.1574792E-008  0.3839187E+03  0.7957747E-01  0.3434271E+00
         13   -1    0    0    0    0  0.00000000000E+00  0.00000000000E+00  0.14999999963E+04  0.15000000000E+04  0.10566000000E+00 0.  1.
        994   -1    0    0    0    0 -0.00000000000E+00 -0.00000000000E+00  0.11368683772E-12  0.17120000000E+03  0.17120000000E+03 0.  0.
         13    1    1    2    0    0  0.12065230087E+02 -0.82704702326E+01  0.46689741897E+02  0.48927636540E+02  0.10566000000E+00 0.  1.
        994    1    1    2    0    0 -0.32598183498E+02 -0.12535300866E+02  0.62038616133E+01  0.17483621831E+03  0.17120000000E+03 0.  0.
        998    1    1    2    0    0  0.20532953410E+02  0.20805771099E+02  0.14471063928E+04  0.14474361451E+04  0.10000000000E+02 0.  1.
</event>
<event>
 5    1  0.1574792E-008  0.3821124E+03  0.7957747E-01  0.3442012E+00
         13   -1    0    0    0    0  0.00000000000E+00  0.00000000000E+00  0.14999999963E+04  0.15000000000E+04  0.10566000000E+00 0. -1.
        994   -1    0    0    0    0 -0.00000000000E+00 -0.00000000000E+00  0.11368683772E-12  0.17120000000E+03  0.17120000000E+03 0.  0.
         13    1    1    2    0    0 -0.30324953009E+02 -0.13092509393E+02  0.15945209687E+03  0.16283733889E+03  0.10566000000E+00 0. -1.
        994    1    1    2    0    0  0.31819593834E+02  0.10528334518E+02  0.68087644549E+01  0.17458273584E+03  0.17120000000E+03 0.  0.
        998    1    1    2    0    0 -0.14946408245E+01  0.25641748756E+01  0.13337391350E+04  0.13337799253E+04  0.10000000000E+02 0. -1.
</event>
<event>
 5    1  0.1574792E-008  0.3847784E+03  0.7957747E-01  0.3430613E+00
         13   -1    0    0    0    0  0.00000000000E+00  0.00000000000E+00  0.14999999963E+04  0.15000000000E+04  0.10566000000E+00 0.  1.
        994   -1    0    0    0    0 -0.00000000000E+00 -0.00000000000E+00  0.11368683772E-12  0.17120000000E+03  0.17120000000E+03 0.  0.
         13    1    1    2    0    0 -0.60191112086E+01 -0.10750186026E+02  0.46833419715E+02  0.48427023092E+02  0.10566000000E+00 0.  1.
        994    1    1    2    0    0 -0.10267808371E+02 -0.10318000967E+01  0.20907595070E+01  0.17152347879E+03  0.17120000000E+03 0.  0.
        998    1    1    2    0    0  0.16286919580E+02  0.11781986123E+02  0.14510758171E+04  0.14512494981E+04  0.10000000000E+02 0.  1.
</event>
<event>
 5    1  0.1574792E-008  0.3821395E+03  0.7957747E-01  0.3441895E+00
         13   -1    0    0    0    0  0.00000000000E+00  0.00000000000E+00  0.14999999963E+04  0.15000000000E+04  0.10566000000E+00 0.  1.
        994   -1    0    0    0    0 -0.00000000000E+00 -0.00000000000E+00  0.11368683772E-12  0.17120000000E+03  0.17120000000E+03 0.  0.
         13    1    1    2    0    0 -0.10431079340E+02  0.31228557555E+02  0.16529144625E+03  0.16853873024E+03  0.10566000000E+00 0.  1.
        994    1    1    2    0    0  0.73877356786E+01 -0.26930270297E+02  0.56498773878E+01  0.17355454247E+03  0.17120000000E+03 0.  0.
        998    1    1    2    0    0  0.30433436618E+01 -0.42982872574E+01  0.13290586726E+04  0.13291067273E+04  0.10000000000E+02 0.  0.
</event>
<event>
 5    1  0.1574792E-008  0.3852642E+03  0.7957747E-01  0.3428552E+00
         13   -1    0    0    0    0  0.00000000000E+00  0.00000000000E+00  0.14999999963E+04  0.15000000000E+04  0.10566000000E+00 0.  1.
        994   -1    0    0    0    0 -0.00000000000E+00 -0.00000000000E+00  0.11368683772E-12  0.17120000000E+03  0.17120000000E+03 0.  0.
         13    1    1    2    0    0  0.15898368599E+02  0.56452670003E+01  0.91363367880E+02  0.92908036886E+02  0.10566000000E+00 0.  1.
        994    1    1    2    0    0 -0.14289202251E+02 -0.80884349662E+01  0.23853975915E+01  0.17200213430E+03  0.17120000000E+03 0.  0.
        998    1    1    2    0    0 -0.16091663481E+01  0.24431679659E+01  0.14062512308E+04  0.14062898288E+04  0.10000000000E+02 0.  1.
</event>
<event>
 5    1  0.1574792E-008  0.3828845E+03  0.7957747E-01  0.3438694E+00
         13   -1    0    0    0    0  0.00000000000E+00  0.00000000000E+00  0.14999999963E+04  0.15000000000E+04  0.10566000000E+00 0. -1.
        994   -1    0    0    0    0 -0.00000000000E+00 -0.00000000000E+00  0.11368683772E-12  0.17120000000E+03  0.17120000000E+03 0.  0.
         13    1    1    2    0    0  0.51139218482E+00 -0.17260247446E+02  0.56269376402E+02  0.58859421918E+02  0.10566000000E+00 0. -1.
        994    1    1    2    0    0 -0.33011788382E+02  0.51991234934E+01  0.63910614151E+01  0.17454825901E+03  0.17120000000E+03 0.  0.
        998    1    1    2    0    0  0.32500396197E+02  0.12061123952E+02  0.14373395585E+04  0.14377923191E+04  0.10000000000E+02 0. -1.
</event>
<event>
 5    1  0.1574792E-008  0.3856022E+03  0.7957747E-01  0.3427122E+00
         13   -1    0    0    0    0  0.00000000000E+00  0.00000000000E+00  0.14999999963E+04  0.15000000000E+04  0.10566000000E+00 0. -1.
        994   -1    0    0    0    0 -0.00000000000E+00 -0.00000000000E+00  0.11368683772E-12  0.17120000000E+03  0.17120000000E+03 0.  0.
         13    1    1    2    0    0  0.14550571968E+02 -0.25752278628E+01  0.86958703023E+02  0.88205318086E+02  0.10566000000E+00 0. -1.
        994    1    1    2    0    0 -0.48695123553E+01 -0.84277461372E+01  0.16424571258E+01  0.17148433375E+03  0.17120000000E+03 0.  0.
        998    1    1    2    0    0 -0.96810596125E+01  0.11002974000E+02  0.14113988361E+04  0.14115103482E+04  0.10000000000E+02 0. -1.
</event>
<event>
 5    1  0.1574792E-008  0.3901650E+03  0.7957747E-01  0.3408058E+00
         13   -1    0    0    0    0  0.00000000000E+00  0.00000000000E+00  0.14999999963E+04  0.15000000000E+04  0.10566000000E+00 0.  1.
        994   -1    0    0    0    0 -0.00000000000E+00 -0.00000000000E+00  0.11368683772E-12  0.17120000000E+03  0.17120000000E+03 0.  0.
         13    1    1    2    0    0 -0.93893202791E+02  0.33788284728E+02  0.19774754744E+03  0.22149872550E+03  0.10566000000E+00 0.  1.
        994    1    1    2    0    0  0.82324350545E+02 -0.37705357384E+02  0.53602960060E+02  0.20095200918E+03  0.17120000000E+03 0.  0.
        998    1    1    2    0    0  0.11568852245E+02  0.39170726556E+01  0.12486494888E+04  0.12487492653E+04  0.10000000000E+02 0.  0.
</event>
<event>
 5    1  0.1574792E-008  0.3834697E+03  0.7957747E-01  0.3436188E+00
         13   -1    0    0    0    0  0.00000000000E+00  0.00000000000E+00  0.14999999963E+04  0.15000000000E+04  0.10566000000E+00 0. -1.
        994   -1    0    0    0    0 -0.00000000000E+00 -0.00000000000E+00  0.11368683772E-12  0.17120000000E+03  0.17120000000E+03 0.  0.
         13    1    1    2    0    0  0.96026035652E+01  0.20870638665E+02  0.11617232816E+03  0.11842218773E+03  0.10566000000E+00 0. -1.
        994    1    1    2    0    0 -0.90677831284E+01 -0.27189035344E+01  0.26880345392E+01  0.17148260162E+03  0.17120000000E+03 0.  0.
        998    1    1    2    0    0 -0.53482043687E+00 -0.18151735131E+02  0.13811396336E+04  0.13812952107E+04  0.10000000000E+02 0. -1.
</event>
<event>
 5    1  0.1574792E-008  0.3847613E+03  0.7957747E-01  0.3430685E+00
         13   -1    0    0    0    0  0.00000000000E+00  0.00000000000E+00  0.14999999963E+04  0.15000000000E+04  0.10566000000E+00 0. -1.
        994   -1    0    0    0    0 -0.00000000000E+00 -0.00000000000E+00  0.11368683772E-12  0.17120000000E+03  0.17120000000E+03 0.  0.
         13    1    1    2    0    0  0.36705456203E+01 -0.11605484079E+02  0.41336667692E+02  0.43091663066E+02  0.10566000000E+00 0. -1.
        994    1    1    2    0    0 -0.89590544400E+01  0.99064304427E+01  0.23360497012E+01  0.17173613233E+03  0.17120000000E+03 0.  0.
        998    1    1    2    0    0  0.52885088197E+01  0.16990536359E+01  0.14563272789E+04  0.14563722046E+04  0.10000000000E+02 0. -1.
</event>
<event>
 5    1  0.1574792E-008  0.3849581E+03  0.7957747E-01  0.3429850E+00
         13   -1    0    0    0    0  0.00000000000E+00  0.00000000000E+00  0.14999999963E+04  0.15000000000E+04  0.10566000000E+00 0.  1.
        994   -1    0    0    0    0 -0.00000000000E+00 -0.00000000000E+00  0.11368683772E-12  0.17120000000E+03  0.17120000000E+03 0.  0.
         13    1    1    2    0    0  0.14507934727E+02  0.11555124992E+02  0.10486381741E+03  0.10649146656E+03  0.10566000000E+00 0.  1.
        994    1    1    2    0    0  0.68678321871E+01 -0.28215942154E+02  0.44295937405E+01  0.17370195109E+03  0.17120000000E+03 0.  0.
        998    1    1    2    0    0 -0.21375766914E+02  0.16660817162E+02  0.13907065851E+04  0.13910065824E+04  0.10000000000E+02 0.  1.
</event>
<event>
 5    1  0.1574792E-008  0.3686834E+03  0.7957747E-01  0.3501964E+00
         13   -1    0    0    0    0  0.00000000000E+00  0.00000000000E+00  0.14999999963E+04  0.15000000000E+04  0.10566000000E+00 0. -1.
        994   -1    0    0    0    0 -0.00000000000E+00 -0.00000000000E+00  0.11368683772E-12  0.17120000000E+03  0.17120000000E+03 0.  0.
         13    1    1    2    0    0  0.58931018879E+00 -0.67373171176E+02  0.23391188184E+03  0.24342200210E+03  0.10566000000E+00 0. -1.
        994    1    1    2    0    0 -0.50445371622E+01  0.32265808716E+02  0.13672400924E+02  0.17482249373E+03  0.17120000000E+03 0.  0.
        998    1    1    2    0    0  0.44552269734E+01  0.35107362460E+02  0.12524157135E+04  0.12529555042E+04  0.10000000000E+02 0. -1.
</event>
<event>
 5    1  0.1574792E-008  0.3853039E+03  0.7957747E-01  0.3428384E+00
         13   -1    0    0    0    0  0.00000000000E+00  0.00000000000E+00  0.14999999963E+04  0.15000000000E+04  0.10566000000E+00 0. -1.
        994   -1    0    0    0    0 -0.00000000000E+00 -0.00000000000E+00  0.11368683772E-12  0.17120000000E+03  0.17120000000E+03 0.  0.
         13    1    1    2    0    0 -0.25027652672E+01 -0.10217431853E+02  0.38212625967E+02  0.39634274246E+02  0.10566000000E+00 0. -1.
        994    1    1    2    0    0  0.69966461484E+01  0.13060918481E+01  0.16457871545E+01  0.17135579228E+03  0.17120000000E+03 0.  0.
        998    1    1    2    0    0 -0.44938808811E+01  0.89113400053E+01  0.14601415832E+04  0.14602099335E+04  0.10000000000E+02 0. -1.
</event>
<event>
 5    1  0.1574792E-008  0.3758877E+03  0.7957747E-01  0.3469262E+00
         13   -1    0    0    0    0  0.00000000000E+00  0.00000000000E+00  0.14999999963E+04  0.15000000000E+04  0.10566000000E+00 0. -1.
        994   -1    0    0    0    0 -0.00000000000E+00 -0.00000000000E+00  0.11368683772E-12  0.17120000000E+03  0.17120000000E+03 0.  0.
         13    1    1    2    0    0  0.68268794409E+02 -0.26124689035E+02  0.38012675039E+03  0.38709105543E+03  0.10566000000E+00 0. -1.
        994    1    1    2    0    0 -0.39050616487E+02  0.61051935758E+02  0.24236874929E+02  0.18748108068E+03  0.17120000000E+03 0.  0.
        998    1    1    2    0    0 -0.29218177922E+02 -0.34927246723E+02  0.10956363710E+04  0.10966278639E+04  0.10000000000E+02 0. -1.
</event>
<event>
 5    1  0.1574792E-008  0.3839610E+03  0.7957747E-01  0.3434091E+00
         13   -1    0    0    0    0  0.00000000000E+00  0.00000000000E+00  0.14999999963E+04  0.15000000000E+04  0.10566000000E+00 0. -1.
        994   -1    0    0    0    0 -0.00000000000E+00 -0.00000000000E+00  0.11368683772E-12  0.17120000000E+03  0.17120000000E+03 0.  0.
         13    1    1    2    0    0  0.15360982802E+02 -0.82146783892E+01  0.67431488347E+02  0.69645226099E+02  0.10566000000E+00 0. -1.
        994    1    1    2    0    0 -0.16585613954E+02  0.82060262196E+01  0.32775891951E+01  0.17222834856E+03  0.17120000000E+03 0.  0.
        998    1    1    2    0    0  0.12246311516E+01  0.86521695800E-02  0.14292909187E+04  0.14293264253E+04  0.10000000000E+02 0.  0.
</event>
<event>
 5    1  0.1574792E-008  0.3843967E+03  0.7957747E-01  0.3432235E+00
         13   -1    0    0    0    0  0.00000000000E+00  0.00000000000E+00  0.14999999963E+04  0.15000000000E+04  0.10566000000E+00 0.  1.
        994   -1    0    0    0    0 -0.00000000000E+00 -0.00000000000E+00  0.11368683772E-12  0.17120000000E+03  0.17120000000E+03 0.  0.
         13    1    1    2    0    0 -0.83101230758E+01 -0.23118042756E+02  0.14001446618E+03  0.14215331143E+03  0.10566000000E+00 0.  1.
        994    1    1    2    0    0  0.22822448987E+02  0.21678231024E+02  0.52016056234E+01  0.17414737029E+03  0.17120000000E+03 0.  0.
        998    1    1    2    0    0 -0.14512325911E+02  0.14398117325E+01  0.13547839245E+04  0.13548993183E+04  0.10000000000E+02 0.  1.
</event>
<event>
 5    1  0.1574792E-008  0.3816525E+03  0.7957747E-01  0.3443994E+00
         13   -1    0    0    0    0  0.00000000000E+00  0.00000000000E+00  0.14999999963E+04  0.15000000000E+04  0.10566000000E+00 0.  1.
        994   -1    0    0    0    0 -0.00000000000E+00 -0.00000000000E+00  0.11368683772E-12  0.17120000000E+03  0.17120000000E+03 0.  0.
         13    1    1    2    0    0  0.18178877934E+02 -0.64920986754E+01  0.55968325688E+02  0.59203746439E+02  0.10566000000E+00 0.  1.
        994    1    1    2    0    0 -0.10519449931E+02 -0.44909939011E+00  0.36699452859E+01  0.17156272618E+03  0.17120000000E+03 0.  0.
        998    1    1    2    0    0 -0.76594280029E+01  0.69411980655E+01  0.14403617253E+04  0.14404335274E+04  0.10000000000E+02 0.  1.
</event>
<event>
 5    1  0.1574792E-008  0.3798208E+03  0.7957747E-01  0.3451939E+00
         13   -1    0    0    0    0  0.00000000000E+00  0.00000000000E+00  0.14999999963E+04  0.15000000000E+04  0.10566000000E+00 0. -1.
        994   -1    0    0    0    0 -0.00000000000E+00 -0.00000000000E+00  0.11368683772E-12  0.17120000000E+03  0.17120000000E+03 0.  0.
         13    1    1    2    0    0 -0.94356804237E-01 -0.21166690283E+02  0.50306430945E+02  0.54578254270E+02  0.10566000000E+00 0. -1.
        994    1    1    2    0    0 -0.20591232597E+02  0.20056950341E+02  0.69923847960E+01  0.17373719683E+03  0.17120000000E+03 0.  0.
        998    1    1    2    0    0  0.20685589402E+02  0.11097399420E+01  0.14427011805E+04  0.14428845489E+04  0.10000000000E+02 0. -1.
</event>
<event>
 5    1  0.1574792E-008  0.3854484E+03  0.7957747E-01  0.3427773E+00
         13   -1    0    0    0    0  0.00000000000E+00  0.00000000000E+00  0.14999999963E+04  0.15000000000E+04  0.10566000000E+00 0. -1.
        994   -1    0    0    0    0 -0.00000000000E+00 -0.00000000000E+00  0.11368683772E-12  0.17120000000E+03  0.17120000000E+03 0.  0.
         13    1    1    2    0    0 -0.16497954123E+02 -0.47119390823E+00  0.94641944195E+02  0.96070355880E+02  0.10566000000E+00 0. -1.
        994    1    1    2    0    0  0.13791443160E+02  0.29081292577E+01  0.20603412782E+01  0.17179157758E+03  0.17120000000E+03 0.  0.
        998    1    1    2    0    0  0.27065109633E+01 -0.24369353495E+01  0.14032977108E+04  0.14033380665E+04  0.10000000000E+02 0. -1.
</event>
<event>
 5    1  0.1574792E-008  0.3824437E+03  0.7957747E-01  0.3440587E+00
         13   -1    0    0    0    0  0.00000000000E+00  0.00000000000E+00  0.14999999963E+04  0.15000000000E+04  0.10566000000E+00 0.  1.
        994   -1    0    0    0    0 -0.00000000000E+00 -0.00000000000E+00  0.11368683772E-12  0.17120000000E+03  0.17120000000E+03 0.  0.
         13    1    1    2    0    0  0.66217922837E+01 -0.10001832068E+02  0.24571007316E+02  0.27342829815E+02  0.10566000000E+00 0.  1.
        994    1    1    2    0    0 -0.58029800270E+01 -0.75751901040E+01  0.32066453010E+01  0.17149571615E+03  0.17120000000E+03 0.  0.
        998    1    1    2    0    0 -0.81881225679E+00  0.17577022172E+02  0.14722223437E+04  0.14723614540E+04  0.10000000000E+02 0.  1.
</event>
<event>
 5    1  0.1574792E-008  0.3827278E+03  0.7957747E-01  0.3439366E+00
         13   -1    0    0    0    0  0.00000000000E+00  0.00000000000E+00  0.14999999963E+04  0.15000000000E+04  0.10566000000E+00 0. -1.
        994   -1    0    0    0    0 -0.00000000000E+00 -0.00000000000E+00  0.11368683772E-12  0.17120000000E+03  0.17120000000E+03 0.  0.
         13    1    1    2    0    0  0.10052919359E+02  0.80004801663E-01  0.17013651365E+02  0.19762162969E+02  0.10566000000E+00 0. -1.
        994    1    1    2    0    0 -0.11177340262E+02 -0.23244979232E+01  0.31943911547E+01  0.17160996580E+03  0.17120000000E+03 0.  0.
        998    1    1    2    0    0  0.11244209031E+01  0.22444931215E+01  0.14797919538E+04  0.14798278712E+04  0.10000000000E+02 0. -1.
</event>
<event>
 5    1  0.1574792E-008  0.3824596E+03  0.7957747E-01  0.3440518E+00
         13   -1    0    0    0    0  0.00000000000E+00  0.00000000000E+00  0.14999999963E+04  0.15000000000E+04  0.10566000000E+00 0. -1.
        994   -1    0    0    0    0 -0.00000000000E+00 -0.00000000000E+00  0.11368683772E-12  0.17120000000E+03  0.17120000000E+03 0.  0.
         13    1    1    2    0    0  0.16260988463E+02 -0.80062344045E+01  0.57369497750E+02  0.60164690403E+02  0.10566000000E+00 0. -1.
        994    1    1    2    0    0 -0.33394744319E+01  0.62048007702E+01  0.30613318183E+01  0.17137229471E+03  0.17120000000E+03 0.  0.
        998    1    1    2    0    0 -0.12921514031E+02  0.18014336343E+01  0.14395691667E+04  0.14396630149E+04  0.10000000000E+02 0. -1.
</event>
<event>
 5    1  0.1574792E-008  0.3848938E+03  0.7957747E-01  0.3430123E+00
         13   -1    0    0    0    0  0.00000000000E+00  0.00000000000E+00  0.14999999963E+04  0.15000000000E+04  0.10566000000E+00 0.  1.
        994   -1    0    0    0    0 -0.00000000000E+00 -0.00000000000E+00  0.11368683772E-12  0.17120000000E+03  0.17120000000E+03 0.  0.
         13    1    1    2    0    0  0.28170585349E+01  0.12626206817E+02  0.50177715303E+02  0.51818637520E+02  0.10566000000E+00 0.  1.
        994    1    1    2    0    0  0.60437034195E+01 -0.81710691305E+01  0.20227568392E+01  0.17151333554E+03  0.17120000000E+03 0.  0.
        998    1    1    2    0    0 -0.88607619544E+01 -0.44551376864E+01  0.14477995241E+04  0.14478680269E+04  0.10000000000E+02 0.  1.
</event>
<event>
 5    1  0.1574792E-008  0.3857713E+03  0.7957747E-01  0.3426408E+00
         13   -1    0    0    0    0  0.00000000000E+00  0.00000000000E+00  0.14999999963E+04  0.15000000000E+04  0.10566000000E+00 0. -1.
        994   -1    0    0    0    0 -0.00000000000E+00 -0.00000000000E+00  0.11368683772E-12  0.17120000000E+03  0.17120000000E+03 0.  0.
         13    1    1    2    0    0 -0.11406443036E+02  0.11601693865E+01  0.53376424829E+02  0.54594018237E+02  0.10566000000E+00 0. -1.
        994    1    1    2    0    0  0.69788002795E+01  0.10775198454E+00  0.14075224512E+01  0.17134799790E+03  0.17120000000E+03 0.  0.
        998    1    1    2    0    0  0.44276427563E+01 -0.12679213711E+01  0.14452160490E+04  0.14452579839E+04  0.10000000000E+02 0. -1.
</event>
<event>
 5    1  0.1964551E-008  0.3856881E+03  0.7957747E-01  0.3426759E+00
         13   -1    0    0    0    0  0.00000000000E+00  0.00000000000E+00  0.14999999963E+04  0.15000000000E+04  0.10566000000E+00 0. -1.
        994   -1    0    0    0    0 -0.00000000000E+00 -0.00000000000E+00  0.11368683772E-12  0.17120000000E+03  0.17120000000E+03 0.  0.
         13    1    1    2    0    0  0.47977847651E+01 -0.96868790531E+01  0.45535228161E+02  0.46800881746E+02  0.10566000000E+00 0. -1.
        994    1    1    2    0    0 -0.38960282354E+01  0.65736279764E+01  0.14805231009E+01  0.17137684666E+03  0.17120000000E+03 0.  0.
        998    1    1    2    0    0 -0.90175652978E+00  0.31132510768E+01  0.14529842450E+04  0.14530222716E+04  0.10000000000E+02 0. -1.
</event>
<event>
 5    1  0.1574792E-008  0.3793219E+03  0.7957747E-01  0.3454116E+00
         13   -1    0    0    0    0  0.00000000000E+00  0.00000000000E+00  0.14999999963E+04  0.15000000000E+04  0.10566000000E+00 0. -1.
        994   -1    0    0    0    0 -0.00000000000E+00 -0.00000000000E+00  0.11368683772E-12  0.17120000000E+03  0.17120000000E+03 0.  0.
         13    1    1    2    0    0  0.59096644407E+01 -0.28220393241E+02  0.99217489054E+02  0.10332200166E+03  0.10566000000E+00 0. -1.
        994    1    1    2    0    0 -0.46574066452E+01  0.62172635588E-01  0.45485228636E+01  0.17132374139E+03  0.17120000000E+03 0.  0.
        998    1    1    2    0    0 -0.12522577955E+01  0.28158220606E+02  0.13962339844E+04  0.13965542570E+04  0.10000000000E+02 0. -1.
</event>
<event>
 5    1  0.1574792E-008  0.3687864E+03  0.7957747E-01  0.3501487E+00
         13   -1    0    0    0    0  0.00000000000E+00  0.00000000000E+00  0.14999999963E+04  0.15000000000E+04  0.10566000000E+00 0. -1.
        994   -1    0    0    0    0 -0.00000000000E+00 -0.00000000000E+00  0.11368683772E-12  0.17120000000E+03  0.17120000000E+03 0.  0.
         13    1    1    2    0    0  0.11515904984E+02  0.12406599112E+02  0.98565163142E+01  0.19588308937E+02  0.10566000000E+00 0. -1.
        994    1    1    2    0    0 -0.72936238672E+01 -0.21229292924E+02  0.11656299250E+02  0.17305834028E+03  0.17120000000E+03 0.  0.
        998    1    1    2    0    0 -0.42222811169E+01  0.88226938116E+01  0.14784871807E+04  0.14785533508E+04  0.10000000000E+02 0. -1.
</event>
<event>
 5    1  0.1574792E-008  0.3837987E+03  0.7957747E-01  0.3434783E+00
         13   -1    0    0    0    0  0.00000000000E+00  0.00000000000E+00  0.14999999963E+04  0.15000000000E+04  0.10566000000E+00 0.  1.
        994   -1    0    0    0    0 -0.00000000000E+00 -0.00000000000E+00  0.11368683772E-12  0.17120000000E+03  0.17120000000E+03 0.  0.
         13    1    1    2    0    0  0.11332201665E+02  0.11135729420E+02  0.59511372293E+02  0.61595761709E+02  0.10566000000E+00 0.  1.
        994    1    1    2    0    0 -0.24577569481E+01  0.33022037992E+01  0.22837036401E+01  0.17126470863E+03  0.17120000000E+03 0.  0.
        998    1    1    2    0    0 -0.88744447169E+01 -0.14437933219E+02  0.14382049203E+04  0.14383395297E+04  0.10000000000E+02 0.  1.
</event>
<event>
 5    1  0.1574792E-008  0.3846696E+03  0.7957747E-01  0.3431075E+00
         13   -1    0    0    0    0  0.00000000000E+00  0.00000000000E+00  0.14999999963E+04  0.15000000000E+04  0.10566000000E+00 0.  1.
        994   -1    0    0    0    0 -0.00000000000E+00 -0.00000000000E+00  0.11368683772E-12  0.17120000000E+03  0.17120000000E+03 0.  0.
         13    1    1    2    0    0 -0.37811452831E+01 -0.12134936964E+02  0.44818920934E+02  0.46586485084E+02  0.10566000000E+00 0.  1.
        994    1    1    2    0    0  0.12150268184E+01  0.83848235943E+01  0.20306141837E+01  0.17142154168E+03  0.17120000000E+03 0.  0.
        998    1    1    2    0    0  0.25661184647E+01  0.37501133697E+01  0.14531504612E+04  0.14531919732E+04  0.10000000000E+02 0.  1.
</event>
<event>
 5    1  0.1574792E-008  0.3818633E+03  0.7957747E-01  0.3443085E+00
         13   -1    0    0    0    0  0.00000000000E+00  0.00000000000E+00  0.14999999963E+04  0.15000000000E+04  0.10566000000E+00 0. -1.
        994   -1    0    0    0    0 -0.00000000000E+00 -0.00000000000E+00  0.11368683772E-12  0.17120000000E+03  0.17120000000E+03 0.  0.
         13    1    1    2    0    0  0.64680418932E+01  0.88661446001E+01  0.18201375077E+02  0.21254300853E+02  0.10566000000E+00 0. -1.
        994    1    1    2    0    0  0.56870153648E+01  0.22409703681E+01  0.33196729458E+01  0.17134125108E+03  0.17120000000E+03 0.  0.
        998    1    1    2    0    0 -0.12155057258E+02 -0.11107114968E+02  0.14784789483E+04  0.14786044481E+04  0.10000000000E+02 0. -1.
</event>
<event>
 5    1  0.1753649E-008  0.3855192E+03  0.7957747E-01  0.3427473E+00
         13   -1    0    0    0    0  0.00000000000E+00  0.00000000000E+00  0.14999999963E+04  0.15000000000E+04  0.10566000000E+00 0.  1.
        994   -1    0    0    0    0 -0.00000000000E+00 -0.00000000000E+00  0.11368683772E-12  0.17120000000E+03  0.17120000000E+03 0.  0.
         13    1    1    2    0    0  0.12198605805E+02 -0.68524522983E+01  0.68563194790E+02  0.69976316922E+02  0.10566000000E+00 0.  1.
        994    1    1    2    0    0 -0.14452813051E+02  0.61447438090E+01  0.21827327861E+01  0.17193267870E+03  0.17120000000E+03 0.  0.
        998    1    1    2    0    0  0.22542072457E+01  0.70770848933E+00  0.14292540687E+04  0.14292910044E+04  0.10000000000E+02 0.  1.
</event>
<event>
 5    1  0.1574792E-008  0.3827594E+03  0.7957747E-01  0.3439231E+00
         13   -1    0    0    0    0  0.00000000000E+00  0.00000000000E+00  0.14999999963E+04  0.15000000000E+04  0.10566000000E+00 0. -1.
        994   -1    0    0    0    0 -0.00000000000E+00 -0.00000000000E+00  0.11368683772E-12  0.17120000000E+03  0.17120000000E+03 0.  0.
         13    1    1    2    0    0 -0.16641396140E+02 -0.10096504212E+02  0.67558767481E+02  0.70306996027E+02  0.10566000000E+00 0. -1.
        994    1    1    2    0    0  0.11457038341E+02  0.84660234409E+01  0.34192395639E+01  0.17182569214E+03  0.17120000000E+03 0.  0.
        998    1    1    2    0    0  0.51843577990E+01  0.16304807708E+01  0.14290219892E+04  0.14290673118E+04  0.10000000000E+02 0. -1.
</event>
<event>
 5    1  0.1574792E-008  0.3834867E+03  0.7957747E-01  0.3436116E+00
         13   -1    0    0    0    0  0.00000000000E+00  0.00000000000E+00  0.14999999963E+04  0.15000000000E+04  0.10566000000E+00 0. -1.
        994   -1    0    0    0    0 -0.00000000000E+00 -0.00000000000E+00  0.11368683772E-12  0.17120000000E+03  0.17120000000E+03 0.  0.
         13    1    1    2    0    0 -0.53968974272E+01 -0.18364061816E+02  0.80906675273E+02  0.83140041713E+02  0.10566000000E+00 0. -1.
        994    1    1    2    0    0  0.54628355888E+01  0.83473277537E+00  0.24842910748E+01  0.17130718331E+03  0.17120000000E+03 0.  0.
        998    1    1    2    0    0 -0.65938161629E-01  0.17529329040E+02  0.14166090299E+04  0.14167527750E+04  0.10000000000E+02 0. -1.
</event>
<event>
 5    1  0.1574792E-008  0.3830197E+03  0.7957747E-01  0.3438114E+00
         13   -1    0    0    0    0  0.00000000000E+00  0.00000000000E+00  0.14999999963E+04  0.15000000000E+04  0.10566000000E+00 0. -1.
        994   -1    0    0    0    0 -0.00000000000E+00 -0.00000000000E+00  0.11368683772E-12  0.17120000000E+03  0.17120000000E+03 0.  0.
         13    1    1    2    0    0 -0.23724056960E+01  0.18608708483E+02  0.67366761424E+02  0.69929993915E+02  0.10566000000E+00 0. -1.
        994    1    1    2    0    0  0.11146735623E+02 -0.83215664496E+01  0.32572293871E+01  0.17179507480E+03  0.17120000000E+03 0.  0.
        998    1    1    2    0    0 -0.87743299274E+01 -0.10287142034E+02  0.14293760055E+04  0.14294749313E+04  0.10000000000E+02 0. -1.
</event>
<event>
 5    1  0.1574792E-008  0.3854345E+03  0.7957747E-01  0.3427831E+00
         13   -1    0    0    0    0  0.00000000000E+00  0.00000000000E+00  0.14999999963E+04  0.15000000000E+04  0.10566000000E+00 0. -1.
        994   -1    0    0    0    0 -0.00000000000E+00 -0.00000000000E+00  0.11368683772E-12  0.17120000000E+03  0.17120000000E+03 0.  0.
         13    1    1    2    0    0  0.96512845559E+01  0.54925293835E+01  0.42670162254E+02  0.44091598785E+02  0.10566000000E+00 0. -1.
        994    1    1    2    0    0 -0.16414350952E+02  0.46051253636E+01  0.23696033349E+01  0.17206304983E+03  0.17120000000E+03 0.  0.
        998    1    1    2    0    0  0.67630663962E+01 -0.10097654747E+02  0.14549602307E+04  0.14550453514E+04  0.10000000000E+02 0. -1.
</event>
<event>
 5    1  0.1574792E-008  0.3795699E+03  0.7957747E-01  0.3453033E+00
         13   -1    0    0    0    0  0.00000000000E+00  0.00000000000E+00  0.14999999963E+04  0.15000000000E+04  0.10566000000E+00 0.  1.
        994   -1    0    0    0    0 -0.00000000000E+00 -0.00000000000E+00  0.11368683772E-12  0.17120000000E+03  0.17120000000E+03 0.  0.
         13    1    1    2    0    0 -0.68221179638E+02 -0.23550439687E+02  0.16897154856E+03  0.18373934785E+03  0.10566000000E+00 0.  1.
        994    1    1    2    0    0  0.64043318220E+01  0.65066540479E+02  0.31723442376E+02  0.18598517939E+03  0.17120000000E+03 0.  0.
        998    1    1    2    0    0  0.61816847816E+02 -0.41516100791E+02  0.12993050053E+04  0.13014754728E+04  0.10000000000E+02 0.  1.
</event>
<event>
 5    1  0.1574792E-008  0.3827480E+03  0.7957747E-01  0.3439280E+00
         13   -1    0    0    0    0  0.00000000000E+00  0.00000000000E+00  0.14999999963E+04  0.15000000000E+04  0.10566000000E+00 0.  1.
        994   -1    0    0    0    0 -0.00000000000E+00 -0.00000000000E+00  0.11368683772E-12  0.17120000000E+03  0.17120000000E+03 0.  0.
         13    1    1    2    0    0  0.10841147780E+02 -0.34292964118E+01  0.22316679489E+02  0.25046674560E+02  0.10566000000E+00 0.  1.
        994    1    1    2    0    0 -0.58095839420E+01  0.14911701414E+02  0.36012838425E+01  0.17198406714E+03  0.17120000000E+03 0.  0.
        998    1    1    2    0    0 -0.50315638382E+01 -0.11482405002E+02  0.14740820329E+04  0.14741692583E+04  0.10000000000E+02 0.  1.
</event>
<event>
 5    1  0.1574792E-008  0.3851381E+03  0.7957747E-01  0.3429087E+00
         13   -1    0    0    0    0  0.00000000000E+00  0.00000000000E+00  0.14999999963E+04  0.15000000000E+04  0.10566000000E+00 0. -1.
        994   -1    0    0    0    0 -0.00000000000E+00 -0.00000000000E+00  0.11368683772E-12  0.17120000000E+03  0.17120000000E+03 0.  0.
         13    1    1    2    0    0  0.33900359442E+01  0.10496794858E+02  0.39921106187E+02  0.41417157425E+02  0.10566000000E+00 0. -1.
        994    1    1    2    0    0  0.25143588897E+01 -0.32686806870E+01  0.16174908839E+01  0.17125729926E+03  0.17120000000E+03 0.  0.
        998    1    1    2    0    0 -0.59043948340E+01 -0.72281141710E+01  0.14584613992E+04  0.14585255433E+04  0.10000000000E+02 0. -1.
</event>
<event>
 5    1  0.1574792E-008  0.3842832E+03  0.7957747E-01  0.3432718E+00
         13   -1    0    0    0    0  0.00000000000E+00  0.00000000000E+00  0.14999999963E+04  0.15000000000E+04  0.10566000000E+00 0.  1.
        994   -1    0    0    0    0 -0.00000000000E+00 -0.00000000000E+00  0.11368683772E-12  0.17120000000E+03  0.17120000000E+03 0.  0.
         13    1    1    2    0    0  0.12486640019E+02  0.11200139905E+02  0.65851533499E+02  0.67954359250E+02  0.10566000000E+00 0.  1.
        994    1    1    2    0    0 -0.16392321878E+02 -0.15850168172E+02  0.37021693449E+01  0.17275150392E+03  0.17120000000E+03 0.  0.
        998    1    1    2    0    0  0.39056818595E+01  0.46500282667E+01  0.14304462934E+04  0.14304941368E+04  0.10000000000E+02 0.  1.
</event>
<event>
 5    1  0.1574792E-008  0.3781674E+03  0.7957747E-01  0.3459177E+00
         13   -1    0    0    0    0  0.00000000000E+00  0.00000000000E+00  0.14999999963E+04  0.15000000000E+04  0.10566000000E+00 0. -1.
        994   -1    0    0    0    0 -0.00000000000E+00 -0.00000000000E+00  0.11368683772E-12  0.17120000000E+03  0.17120000000E+03 0.  0.
         13    1    1    2    0    0 -0.87056101800E+01  0.10538125172E+03  0.27359138025E+03  0.29331425191E+03  0.10566000000E+00 0. -1.
        994    1    1    2    0    0  0.29529495835E+02 -0.11449326199E+03  0.67539159731E+02  0.21875026003E+03  0.17120000000E+03 0.  0.
        998    1    1    2    0    0 -0.20823885655E+02  0.91120102753E+01  0.11588694563E+04  0.11591354881E+04  0.10000000000E+02 0. -1.
</event>
<event>
 5    1  0.1574792E-008  0.3823960E+03  0.7957747E-01  0.3440792E+00
         13   -1    0    0    0    0  0.00000000000E+00  0.00000000000E+00  0.14999999963E+04  0.15000000000E+04  0.10566000000E+00 0.  1.
        994   -1    0    0    0    0 -0.00000000000E+00 -0.00000000000E+00  0.11368683772E-12  0.17120000000E+03  0.17120000000E+03 0.  0.
         13    1    1    2    0    0  0.82002883769E+01  0.11068129182E+02  0.34014381942E+02  0.36697923047E+02  0.10566000000E+00 0.  1.
        994    1    1    2    0    0  0.57969185061E+01  0.11635376293E+02  0.34891790692E+01  0.17172827553E+03  0.17120000000E+03 0.  0.
        998    1    1    2    0    0 -0.13997206883E+02 -0.22703505475E+02  0.14624964353E+04  0.14627738014E+04  0.10000000000E+02 0.  1.
</event>
<event>
 5    1  0.1574792E-008  0.3853992E+03  0.7957747E-01  0.3427981E+00
         13   -1    0    0    0    0  0.00000000000E+00  0.00000000000E+00  0.14999999963E+04  0.15000000000E+04  0.10566000000E+00 0. -1.
        994   -1    0    0    0    0 -0.00000000000E+00 -0.00000000000E+00  0.11368683772E-12  0.17120000000E+03  0.17120000000E+03 0.  0.
         13    1    1    2    0    0 -0.36383547645E+01 -0.14237072255E+02  0.74910558878E+02  0.76338292142E+02  0.10566000000E+00 0. -1.
        994    1    1    2    0    0  0.71263922273E+01  0.96497675968E+01  0.19048639436E+01  0.17163033528E+03  0.17120000000E+03 0.  0.
        998    1    1    2    0    0 -0.34880374628E+01  0.45873046583E+01  0.14231845735E+04  0.14232313726E+04  0.10000000000E+02 0. -1.
</event>
<event>
 5    1  0.1574792E-008  0.3720464E+03  0.7957747E-01  0.3486538E+00
         13   -1    0    0    0    0  0.00000000000E+00  0.00000000000E+00  0.14999999963E+04  0.15000000000E+04  0.10566000000E+00 0.  1.
        994   -1    0    0    0    0 -0.00000000000E+00 -0.00000000000E+00  0.11368683772E-12  0.17120000000E+03  0.17120000000E+03 0.  0.
         13    1    1    2    0    0  0.17732520435E+02  0.21186788118E+02  0.26466738473E+02  0.38259922649E+02  0.10566000000E+00 0.  1.
        994    1    1    2    0    0 -0.12342669103E+02 -0.22293018731E+02  0.14314736099E+02  0.17367691797E+03  0.17120000000E+03 0.  0.
        998    1    1    2    0    0 -0.53898513321E+01  0.11062306137E+01  0.14592185217E+04  0.14592631594E+04  0.10000000000E+02 0.  1.
</event>
<event>
 5    1  0.1574792E-008  0.3760490E+03  0.7957747E-01  0.3468545E+00
         13   -1    0    0    0    0  0.00000000000E+00  0.00000000000E+00  0.14999999963E+04  0.15000000000E+04  0.10566000000E+00 0.  1.
        994   -1    0    0    0    0 -0.00000000000E+00 -0.00000000000E+00  0.11368683772E-12  0.17120000000E+03  0.17120000000E+03 0.  0.
         13    1    1    2    0    0  0.25954723734E+02  0.64731838895E+01  0.54883493783E+02  0.61055375256E+02  0.10566000000E+00 0.  1.
        994    1    1    2    0    0 -0.22759421461E+02 -0.30877338393E+01  0.79299355168E+01  0.17291572873E+03  0.17120000000E+03 0.  0.
        998    1    1    2    0    0 -0.31953022726E+01 -0.33854500502E+01  0.14371865670E+04  0.14372288960E+04  0.10000000000E+02 0.  1.
</event>
<event>
 5    1  0.1574792E-008  0.3841275E+03  0.7957747E-01  0.3433381E+00
         13   -1    0    0    0    0  0.00000000000E+00  0.00000000000E+00  0.14999999963E+04  0.15000000000E+04  0.10566000000E+00 0. -1.
        994   -1    0    0    0    0 -0.00000000000E+00 -0.00000000000E+00  0.11368683772E-12  0.17120000000E+03  0.17120000000E+03 0.  0.
         13    1    1    2    0    0  0.59563883593E+01 -0.93364079778E+01  0.30329923991E+02  0.32288736884E+02  0.10566000000E+00 0. -1.
        994    1    1    2    0    0 -0.98652095343E+01 -0.88582878915E+01  0.26439165457E+01  0.17173299601E+03  0.17120000000E+03 0.  0.
        998    1    1    2    0    0  0.39088211750E+01  0.18194695869E+02  0.14670261557E+04  0.14671782671E+04  0.10000000000E+02 0. -1.
</event>
<event>
 5    1  0.1574792E-008  0.3841548E+03  0.7957747E-01  0.3433265E+00
         13   -1    0    0    0    0  0.00000000000E+00  0.00000000000E+00  0.14999999963E+04  0.15000000000E+04  0.10566000000E+00 0.  1.
        994   -1    0    0    0    0 -0.00000000000E+00 -0.00000000000E+00  0.11368683772E-12  0.17120000000E+03  0.17120000000E+03 0.  0.
         13    1    1    2    0    0  0.10364131679E+02 -0.91281682278E+01  0.46132639503E+02  0.48155687849E+02  0.10566000000E+00 0.  1.
        994    1    1    2    0    0 -0.19091516913E+01  0.11507887546E+02  0.24992299703E+01  0.17161515809E+03  0.17120000000E+03 0.  0.
        998    1    1    2    0    0 -0.84549799879E+01 -0.23797193184E+01  0.14513681268E+04  0.14514291541E+04  0.10000000000E+02 0.  1.
</event>
<event>
 5    1  0.1574792E-008  0.3687224E+03  0.7957747E-01  0.3501783E+00
         13   -1    0    0    0    0  0.00000000000E+00  0.00000000000E+00  0.14999999963E+04  0.15000000000E+04  0.10566000000E+00 0. -1.
        994   -1    0    0    0    0 -0.00000000000E+00 -0.00000000000E+00  0.11368683772E-12  0.17120000000E+03  0.17120000000E+03 0.  0.
         13    1    1    2    0    0 -0.11131309507E+03 -0.13161902972E+02  0.43542170356E+03  0.44961751736E+03  0.10566000000E+00 0. -1.
        994    1    1    2    0    0  0.10808504055E+03  0.76211517284E+01  0.52319490688E+02  0.20925397738E+03  0.17120000000E+03 0.  0.
        998    1    1    2    0    0  0.32280545175E+01  0.55407512440E+01  0.10122588020E+04  0.10123285053E+04  0.10000000000E+02 0. -1.
</event>
<event>
 5    1  0.1574792E-008  0.3845501E+03  0.7957747E-01  0.3431583E+00
         13   -1    0    0    0    0  0.00000000000E+00  0.00000000000E+00  0.14999999963E+04  0.15000000000E+04  0.10566000000E+00 0.  1.
        994   -1    0    0    0    0 -0.00000000000E+00 -0.00000000000E+00  0.11368683772E-12  0.17120000000E+03  0.17120000000E+03 0.  0.
         13    1    1    2    0    0 -0.13787319345E+02 -0.10787913777E+02  0.86264788309E+02  0.88023258997E+02  0.10566000000E+00 0.  1.
        994    1    1    2    0    0  0.37279856399E+01  0.29747953857E+01  0.19286166484E+01  0.17127728059E+03  0.17120000000E+03 0.  0.
        998    1    1    2    0    0  0.10059333705E+02  0.78131183915E+01  0.14118065913E+04  0.14118994604E+04  0.10000000000E+02 0.  1.
</event>
<event>
 5    1  0.1574792E-008  0.3808028E+03  0.7957747E-01  0.3447670E+00
         13   -1    0    0    0    0  0.00000000000E+00  0.00000000000E+00  0.14999999963E+04  0.15000000000E+04  0.10566000000E+00 0.  1.
        994   -1    0    0    0    0 -0.00000000000E+00 -0.00000000000E+00  0.11368683772E-12  0.17120000000E+03  0.17120000000E+03 0.  0.
         13    1    1    2    0    0 -0.67677692042E+02  0.17284630680E+03  0.10053088056E+04  0.10223022652E+04  0.10566000000E+00 0.  1.
        994    1    1    2    0    0  0.61348849224E+02 -0.18052452177E+03  0.13632288995E+03  0.29025188128E+03  0.17120000000E+03 0.  0.
        998    1    1    2    0    0  0.63288428187E+01  0.76782149699E+01  0.35836830075E+03  0.35864585348E+03  0.10000000000E+02 0. -1.
</event>
<event>
 5    1  0.1574792E-008  0.3829728E+03  0.7957747E-01  0.3438316E+00
         13   -1    0    0    0    0  0.00000000000E+00  0.00000000000E+00  0.14999999963E+04  0.15000000000E+04  0.10566000000E+00 0. -1.
        994   -1    0    0    0    0 -0.00000000000E+00 -0.00000000000E+00  0.11368683772E-12  0.17120000000E+03  0.17120000000E+03 0.  0.
         13    1    1    2    0    0 -0.23636670822E+02  0.62688658953E+02  0.12343990825E+03  0.14044921603E+03  0.10566000000E+00 0. -1.
        994    1    1    2    0    0  0.12288246689E+02 -0.31349170392E+02  0.22134480512E+02  0.17587821559E+03  0.17120000000E+03 0.  0.
        998    1    1    2    0    0  0.11348424133E+02 -0.31339488560E+02  0.13544256075E+04  0.13548725684E+04  0.10000000000E+02 0. -1.
</event>
<event>
 5    1  0.1574792E-008  0.3784004E+03  0.7957747E-01  0.3458153E+00
         13   -1    0    0    0    0  0.00000000000E+00  0.00000000000E+00  0.14999999963E+04  0.15000000000E+04  0.10566000000E+00 0.  1.
        994   -1    0    0    0    0 -0.00000000000E+00 -0.00000000000E+00  0.11368683772E-12  0.17120000000E+03  0.17120000000E+03 0.  0.
         13    1    1    2    0    0  0.62158578893E+01  0.10217236211E+02  0.12241634434E+02  0.17114250867E+02  0.10566000000E+00 0.  1.
        994    1    1    2    0    0 -0.12112449460E+02 -0.45173526215E+01  0.55046383482E+01  0.17177560639E+03  0.17120000000E+03 0.  0.
        998    1    1    2    0    0  0.58965915704E+01 -0.56998835897E+01  0.14822537235E+04  0.14823101427E+04  0.10000000000E+02 0.  1.
</event>
<event>
 5    1  0.2173282E-008  0.3854690E+03  0.7957747E-01  0.3427686E+00
         13   -1    0    0    0    0  0.00000000000E+00  0.00000000000E+00  0.14999999963E+04  0.15000000000E+04  0.10566000000E+00 0. -1.
        994   -1    0    0    0    0 -0.00000000000E+00 -0.00000000000E+00  0.11368683772E-12  0.17120000000E+03  0.17120000000E+03 0.  0.
         13    1    1    2    0    0 -0.66885189091E+01  0.81966249299E+01  0.39749667301E+02  0.41133540573E+02  0.10566000000E+00 0. -1.
        994    1    1    2    0    0  0.72548438986E+01 -0.56984809969E+01  0.16769751265E+01  0.17145657669E+03  0.17120000000E+03 0.  0.
        998    1    1    2    0    0 -0.56632498957E+00 -0.24981439330E+01  0.14585733539E+04  0.14586098827E+04  0.10000000000E+02 0. -1.
</event>
<event>
 5    1  0.1574792E-008  0.3830817E+03  0.7957747E-01  0.3437849E+00
         13   -1    0    0    0    0  0.00000000000E+00  0.00000000000E+00  0.14999999963E+04  0.15000000000E+04  0.10566000000E+00 0. -1.
        994   -1    0    0    0    0 -0.00000000000E+00 -0.00000000000E+00  0.11368683772E-12  0.17120000000E+03  0.17120000000E+03 0.  0.
         13    1    1    2    0    0 -0.15034105927E+02 -0.21185270029E+02  0.14029674719E+03  0.14268156308E+03  0.10566000000E+00 0. -1.
        994    1    1    2    0    0 -0.34639202866E+01  0.93241839354E+01  0.29130439500E+01  0.17151345421E+03  0.17120000000E+03 0.  0.
        998    1    1    2    0    0  0.18498026214E+02  0.11861086093E+02  0.13567902051E+04  0.13570049827E+04  0.10000000000E+02 0. -1.
</event>
<event>
 5    1  0.1574792E-008  0.3826990E+03  0.7957747E-01  0.3439490E+00
         13   -1    0    0    0    0  0.00000000000E+00  0.00000000000E+00  0.14999999963E+04  0.15000000000E+04  0.10566000000E+00 0. -1.
        994   -1    0    0    0    0 -0.00000000000E+00 -0.00000000000E+00  0.11368683772E-12  0.17120000000E+03  0.17120000000E+03 0.  0.
         13    1    1    2    0    0 -0.19374455353E+02  0.19051713337E+01  0.69652385949E+02  0.72321955384E+02  0.10566000000E+00 0. -1.
        994    1    1    2    0    0  0.52699814761E+01 -0.95478114405E+01  0.31710603409E+01  0.17157630673E+03  0.17120000000E+03 0.  0.
        998    1    1    2    0    0  0.14104473877E+02  0.76426401068E+01  0.14271765500E+04  0.14273017379E+04  0.10000000000E+02 0. -1.
</event>
<event>
 5    1  0.1574792E-008  0.3851502E+03  0.7957747E-01  0.3429035E+00
         13   -1    0    0    0    0  0.00000000000E+00  0.00000000000E+00  0.14999999963E+04  0.15000000000E+04  0.10566000000E+00 0.  1.
        994   -1    0    0    0    0 -0.00000000000E+00 -0.00000000000E+00  0.11368683772E-12  0.17120000000E+03  0.17120000000E+03 0.  0.
         13    1    1    2    0    0  0.79864297665E+01 -0.14339251085E+02  0.80758232653E+02  0.82409347087E+02  0.10566000000E+00 0.  1.
        994    1    1    2    0    0  0.45335999252E+01  0.26690425301E+02  0.39684863785E+01  0.17337278107E+03  0.17120000000E+03 0.  0.
        998    1    1    2    0    0 -0.12520029692E+02 -0.12351174215E+02  0.14152732772E+04  0.14154178718E+04  0.10000000000E+02 0.  1.
</event>
<event>
 5    1  0.1574792E-008  0.3736680E+03  0.7957747E-01  0.3479201E+00
         13   -1    0    0    0    0  0.00000000000E+00  0.00000000000E+00  0.14999999963E+04  0.15000000000E+04  0.10566000000E+00 0. -1.
        994   -1    0    0    0    0 -0.00000000000E+00 -0.00000000000E+00  0.11368683772E-12  0.17120000000E+03  0.17120000000E+03 0.  0.
         13    1    1    2    0    0  0.71921980290E+02 -0.16720448558E+02  0.18987143686E+03  0.20372412314E+03  0.10566000000E+00 0. -1.
        994    1    1    2    0    0 -0.63050431831E+02  0.13154181358E+02  0.27732508179E+02  0.18500519304E+03  0.17120000000E+03 0.  0.
        998    1    1    2    0    0 -0.88715484592E+01  0.35662672001E+01  0.12823960512E+04  0.12824706838E+04  0.10000000000E+02 0. -1.
</event>
<event>
 5    1  0.1574792E-008  0.3803808E+03  0.7957747E-01  0.3449502E+00
         13   -1    0    0    0    0  0.00000000000E+00  0.00000000000E+00  0.14999999963E+04  0.15000000000E+04  0.10566000000E+00 0. -1.
        994   -1    0    0    0    0 -0.00000000000E+00 -0.00000000000E+00  0.11368683772E-12  0.17120000000E+03  0.17120000000E+03 0.  0.
         13    1    1    2    0    0  0.27693443667E+02 -0.18913499314E+02  0.12920337130E+03  0.13348471672E+03  0.10566000000E+00 0. -1.
        994    1    1    2    0    0 -0.30215541908E+02  0.18058229570E+02  0.80890654512E+01  0.17496843032E+03  0.17120000000E+03 0.  0.
        998    1    1    2    0    0  0.25220982412E+01  0.85526974472E+00  0.13627075595E+04  0.13627468530E+04  0.10000000000E+02 0. -1.
</event>
<event>
 5    1  0.1574792E-008  0.3761342E+03  0.7957747E-01  0.3468166E+00
         13   -1    0    0    0    0  0.00000000000E+00  0.00000000000E+00  0.14999999963E+04  0.15000000000E+04  0.10566000000E+00 0. -1.
        994   -1    0    0    0    0 -0.00000000000E+00 -0.00000000000E+00  0.11368683772E-12  0.17120000000E+03  0.17120000000E+03 0.  0.
         13    1    1    2    0    0 -0.19386583980E+02 -0.13468641037E+02  0.45831751529E+02  0.51553899387E+02  0.10566000000E+00 0. -1.
        994    1    1    2    0    0 -0.53588599444E+01  0.34254356374E+01  0.62344316896E+01  0.17143149981E+03  0.17120000000E+03 0.  0.
        998    1    1    2    0    0  0.24745443924E+02  0.10043205400E+02  0.14479338131E+04  0.14482146008E+04  0.10000000000E+02 0. -1.
</event>
<event>
 5    1  0.1574792E-008  0.3791752E+03  0.7957747E-01  0.3454758E+00
         13   -1    0    0    0    0  0.00000000000E+00  0.00000000000E+00  0.14999999963E+04  0.15000000000E+04  0.10566000000E+00 0. -1.
        994   -1    0    0    0    0 -0.00000000000E+00 -0.00000000000E+00  0.11368683772E-12  0.17120000000E+03  0.17120000000E+03 0.  0.
         13    1    1    2    0    0 -0.28436404348E+02  0.20872449810E+02  0.13894248039E+03  0.14335031313E+03  0.10566000000E+00 0. -1.
        994    1    1    2    0    0  0.15358178304E+02 -0.64212228589E+01  0.54794739806E+01  0.17209465529E+03  0.17120000000E+03 0.  0.
        998    1    1    2    0    0  0.13078226044E+02 -0.14451226951E+02  0.13555780419E+04  0.13557550316E+04  0.10000000000E+02 0. -1.
</event>
<event>
 5    1  0.1574792E-008  0.3810611E+03  0.7957747E-01  0.3446551E+00
         13   -1    0    0    0    0  0.00000000000E+00  0.00000000000E+00  0.14999999963E+04  0.15000000000E+04  0.10566000000E+00 0.  1.
        994   -1    0    0    0    0 -0.00000000000E+00 -0.00000000000E+00  0.11368683772E-12  0.17120000000E+03  0.17120000000E+03 0.  0.
         13    1    1    2    0    0  0.65030586678E+01  0.16656877796E+02  0.41969235886E+02  0.45619834226E+02  0.10566000000E+00 0.  1.
        994    1    1    2    0    0 -0.11646843947E+02 -0.15986726528E+02  0.49027926328E+01  0.17240853162E+03  0.17120000000E+03 0.  0.
        998    1    1    2    0    0  0.51437852790E+01 -0.67015126739E+00  0.14531279678E+04  0.14531716342E+04  0.10000000000E+02 0.  1.
</event>
<event>
 5    1  0.1574792E-008  0.3833066E+03  0.7957747E-01  0.3436886E+00
         13   -1    0    0    0    0  0.00000000000E+00  0.00000000000E+00  0.14999999963E+04  0.15000000000E+04  0.10566000000E+00 0.  1.
        994   -1    0    0    0    0 -0.00000000000E+00 -0.00000000000E+00  0.11368683772E-12  0.17120000000E+03  0.17120000000E+03 0.  0.
         13    1    1    2    0    0  0.96521827752E+01  0.17599390608E+02  0.79981614007E+02  0.82461948348E+02  0.10566000000E+00 0.  1.
        994    1    1    2    0    0 -0.13299537752E+02 -0.92987370781E+01  0.33445495979E+01  0.17199991345E+03  0.17120000000E+03 0.  0.
        998    1    1    2    0    0  0.36473549765E+01 -0.83006535299E+01  0.14166738327E+04  0.14167381382E+04  0.10000000000E+02 0.  1.
</event>
<event>
 5    1  0.1574792E-008  0.3833931E+03  0.7957747E-01  0.3436516E+00
         13   -1    0    0    0    0  0.00000000000E+00  0.00000000000E+00  0.14999999963E+04  0.15000000000E+04  0.10566000000E+00 0.  1.
        994   -1    0    0    0    0 -0.00000000000E+00 -0.00000000000E+00  0.11368683772E-12  0.17120000000E+03  0.17120000000E+03 0.  0.
         13    1    1    2    0    0  0.19437560795E+02 -0.16027256566E+02  0.15053101347E+03  0.15262466676E+03  0.10566000000E+00 0.  1.
        994    1    1    2    0    0 -0.57137393426E+01 -0.10441244518E+02  0.28985234738E+01  0.17163772267E+03  0.17120000000E+03 0.  0.
        998    1    1    2    0    0 -0.13723821453E+02  0.26468501083E+02  0.13465704593E+04  0.13469376106E+04  0.10000000000E+02 0.  1.
</event>
<event>
 5    1  0.1574792E-008  0.3833425E+03  0.7957747E-01  0.3436733E+00
         13   -1    0    0    0    0  0.00000000000E+00  0.00000000000E+00  0.14999999963E+04  0.15000000000E+04  0.10566000000E+00 0.  1.
        994   -1    0    0    0    0 -0.00000000000E+00 -0.00000000000E+00  0.11368683772E-12  0.17120000000E+03  0.17120000000E+03 0.  0.
         13    1    1    2    0    0 -0.20604250978E+02  0.10252615721E+02  0.10327284269E+03  0.10580615525E+03  0.10566000000E+00 0.  1.
        994    1    1    2    0    0  0.14220286907E+02 -0.16390602810E+02  0.40137573858E+01  0.17261639166E+03  0.17120000000E+03 0.  0.
        998    1    1    2    0    0  0.63839640705E+01  0.61379870892E+01  0.13927133962E+04  0.13927774531E+04  0.10000000000E+02 0.  1.
</event>
<event>
 5    1  0.1574792E-008  0.3842008E+03  0.7957747E-01  0.3433069E+00
         13   -1    0    0    0    0  0.00000000000E+00  0.00000000000E+00  0.14999999963E+04  0.15000000000E+04  0.10566000000E+00 0. -1.
        994   -1    0    0    0    0 -0.00000000000E+00 -0.00000000000E+00  0.11368683772E-12  0.17120000000E+03  0.17120000000E+03 0.  0.
         13    1    1    2    0    0  0.25514485669E+01 -0.21233517847E+02  0.12325417131E+03  0.12509585957E+03  0.10566000000E+00 0. -1.
        994    1    1    2    0    0  0.74213698750E+01  0.28752166907E+01  0.22363141338E+01  0.17139948863E+03  0.17120000000E+03 0.  0.
        998    1    1    2    0    0 -0.99728184419E+01  0.18358301156E+02  0.13745095108E+04  0.13747046518E+04  0.10000000000E+02 0. -1.
</event>
<event>
 5    1  0.1574792E-008  0.3730362E+03  0.7957747E-01  0.3482052E+00
         13   -1    0    0    0    0  0.00000000000E+00  0.00000000000E+00  0.14999999963E+04  0.15000000000E+04  0.10566000000E+00 0.  1.
        994   -1    0    0    0    0 -0.00000000000E+00 -0.00000000000E+00  0.11368683772E-12  0.17120000000E+03  0.17120000000E+03 0.  0.
         13    1    1    2    0    0  0.75205301471E+02 -0.14012234332E+03  0.66348237154E+03  0.68227485442E+03  0.10566000000E+00 0.  1.
        994    1    1    2    0    0 -0.90340463783E+02  0.14952231220E+03  0.12059368733E+03  0.27270973336E+03  0.17120000000E+03 0.  0.
        998    1    1    2    0    0  0.15135162312E+02 -0.93999688773E+01  0.71592393740E+03  0.71621541222E+03  0.10000000000E+02 0. -1.
</event>
<event>
 5    1  0.1574792E-008  0.3842629E+03  0.7957747E-01  0.3432804E+00
         13   -1    0    0    0    0  0.00000000000E+00  0.00000000000E+00  0.14999999963E+04  0.15000000000E+04  0.10566000000E+00 0.  1.
        994   -1    0    0    0    0 -0.00000000000E+00 -0.00000000000E+00  0.11368683772E-12  0.17120000000E+03  0.17120000000E+03 0.  0.
         13    1    1    2    0    0  0.16120283990E+02 -0.10099005825E+02  0.83111712112E+02  0.85260901524E+02  0.10566000000E+00 0.  1.
        994    1    1    2    0    0 -0.14507175259E+02  0.24471055394E+02  0.46689201496E+01  0.17361028052E+03  0.17120000000E+03 0.  0.
        998    1    1    2    0    0 -0.16131087305E+01 -0.14372049569E+02  0.14122193640E+04  0.14123288180E+04  0.10000000000E+02 0.  1.
</event>
<event>
 5    1  0.1574792E-008  0.3772916E+03  0.7957747E-01  0.3463037E+00
         13   -1    0    0    0    0  0.00000000000E+00  0.00000000000E+00  0.14999999963E+04  0.15000000000E+04  0.10566000000E+00 0. -1.
        994   -1    0    0    0    0 -0.00000000000E+00 -0.00000000000E+00  0.11368683772E-12  0.17120000000E+03  0.17120000000E+03 0.  0.
         13    1    1    2    0    0 -0.30008015267E+02 -0.67380902209E+01  0.99834743238E+02  0.10446468284E+03  0.10566000000E+00 0. -1.
        994    1    1    2    0    0 -0.14202588743E+02 -0.20435452753E+02  0.75984924060E+01  0.17316610044E+03  0.17120000000E+03 0.  0.
        998    1    1    2    0    0  0.44210604009E+02  0.27173542974E+02  0.13925667606E+04  0.13935692167E+04  0.10000000000E+02 0. -1.
</event>
<event>
 5    1  0.1574792E-008  0.3832118E+03  0.7957747E-01  0.3437292E+00
         13   -1    0    0    0    0  0.00000000000E+00  0.00000000000E+00  0.14999999963E+04  0.15000000000E+04  0.10566000000E+00 0. -1.
        994   -1    0    0    0    0 -0.00000000000E+00 -0.00000000000E+00  0.11368683772E-12  0.17120000000E+03  0.17120000000E+03 0.  0.
         13    1    1    2    0    0  0.69702229478E+01 -0.90592155204E+01  0.25975752009E+02  0.28379644998E+02  0.10566000000E+00 0. -1.
        994    1    1    2    0    0  0.44196201387E+01  0.19592517197E+00  0.25853051645E+01  0.17127666283E+03  0.17120000000E+03 0.  0.
        998    1    1    2    0    0 -0.11389843086E+02  0.88632903484E+01  0.14714389391E+04  0.14715436922E+04  0.10000000000E+02 0. -1.
</event>
<event>
 5    1  0.1574792E-008  0.3816527E+03  0.7957747E-01  0.3443994E+00
         13   -1    0    0    0    0  0.00000000000E+00  0.00000000000E+00  0.14999999963E+04  0.15000000000E+04  0.10566000000E+00 0.  1.
        994   -1    0    0    0    0 -0.00000000000E+00 -0.00000000000E+00  0.11368683772E-12  0.17120000000E+03  0.17120000000E+03 0.  0.
         13    1    1    2    0    0 -0.12524025900E+02 -0.44443932157E+00  0.23178476819E+02  0.26349605362E+02  0.10566000000E+00 0.  1.
        994    1    1    2    0    0 -0.14109838734E+01  0.30787429655E+01  0.33393551331E+01  0.17126605276E+03  0.17120000000E+03 0.  0.
        998    1    1    2    0    0  0.13935009773E+02 -0.26343036439E+01  0.14734821643E+04  0.14735843419E+04  0.10000000000E+02 0.  1.
</event>
<event>
 5    1  0.1574792E-008  0.3778802E+03  0.7957747E-01  0.3460441E+00
         13   -1    0    0    0    0  0.00000000000E+00  0.00000000000E+00  0.14999999963E+04  0.15000000000E+04  0.10566000000E+00 0.  1.
        994   -1    0    0    0    0 -0.00000000000E+00 -0.00000000000E+00  0.11368683772E-12  0.17120000000E+03  0.17120000000E+03 0.  0.
         13    1    1    2    0    0  0.53124833903E+01 -0.38881418338E+02  0.17936177282E+03  0.18360458569E+03  0.10566000000E+00 0.  1.
        994    1    1    2    0    0  0.72544673414E+00 -0.86697072889E+01  0.54619012636E+01  0.17150790787E+03  0.17120000000E+03 0.  0.
        998    1    1    2    0    0 -0.60379301244E+01  0.47551125627E+02  0.13151763222E+04  0.13160875064E+04  0.10000000000E+02 0.  1.
</event>
<event>
 5    1  0.1574792E-008  0.3829148E+03  0.7957747E-01  0.3438564E+00
         13   -1    0    0    0    0  0.00000000000E+00  0.00000000000E+00  0.14999999963E+04  0.15000000000E+04  0.10566000000E+00 0. -1.
        994   -1    0    0    0    0 -0.00000000000E+00 -0.00000000000E+00  0.11368683772E-12  0.17120000000E+03  0.17120000000E+03 0.  0.
         13    1    1    2    0    0 -0.15714217598E+02  0.21361624739E+02  0.16018370237E+03  0.16236405179E+03  0.10566000000E+00 0. -1.
        994    1    1    2    0    0 -0.14093135398E+02 -0.32703703175E+00  0.33271935866E+01  0.17181162253E+03  0.17120000000E+03 0.  0.
        998    1    1    2    0    0  0.29807352996E+02 -0.21034587708E+02  0.13364891003E+04  0.13370243257E+04  0.10000000000E+02 0. -1.
</event>
<event>
 5    1  0.1574792E-008  0.3828028E+03  0.7957747E-01  0.3439045E+00
         13   -1    0    0    0    0  0.00000000000E+00  0.00000000000E+00  0.14999999963E+04  0.15000000000E+04  0.10566000000E+00 0. -1.
        994   -1    0    0    0    0 -0.00000000000E+00 -0.00000000000E+00  0.11368683772E-12  0.17120000000E+03  0.17120000000E+03 0.  0.
         13    1    1    2    0    0 -0.18965428643E+02  0.67560429042E+01  0.86816464860E+02  0.89120375527E+02  0.10566000000E+00 0. -1.
        994    1    1    2    0    0 -0.13161473270E+02  0.82382699776E+01  0.35239369745E+01  0.17193880191E+03  0.17120000000E+03 0.  0.
        998    1    1    2    0    0  0.32126901913E+02 -0.14994312882E+02  0.14096595944E+04  0.14101408226E+04  0.10000000000E+02 0. -1.
</event>
<event>
 5    1  0.1574792E-008  0.3815667E+03  0.7957747E-01  0.3444365E+00
         13   -1    0    0    0    0  0.00000000000E+00  0.00000000000E+00  0.14999999963E+04  0.15000000000E+04  0.10566000000E+00 0. -1.
        994   -1    0    0    0    0 -0.00000000000E+00 -0.00000000000E+00  0.11368683772E-12  0.17120000000E+03  0.17120000000E+03 0.  0.
         13    1    1    2    0    0  0.67283570471E+01 -0.10461897265E+02  0.22302922116E+02  0.25537297858E+02  0.10566000000E+00 0. -1.
        994    1    1    2    0    0  0.10168673710E+02  0.77820173423E+01  0.38898437074E+01  0.17172225425E+03  0.17120000000E+03 0.  0.
        998    1    1    2    0    0 -0.16897030757E+02  0.26798799228E+01  0.14738072305E+04  0.14739404479E+04  0.10000000000E+02 0. -1.
</event>
<event>
 5    1  0.1574792E-008  0.3817678E+03  0.7957747E-01  0.3443497E+00
         13   -1    0    0    0    0  0.00000000000E+00  0.00000000000E+00  0.14999999963E+04  0.15000000000E+04  0.10566000000E+00 0. -1.
        994   -1    0    0    0    0 -0.00000000000E+00 -0.00000000000E+00  0.11368683772E-12  0.17120000000E+03  0.17120000000E+03 0.  0.
         13    1    1    2    0    0  0.12644432145E+02  0.79735402177E+01  0.32487217632E+02  0.35761564302E+02  0.10566000000E+00 0. -1.
        994    1    1    2    0    0 -0.13857093863E+02 -0.96725888210E+01  0.41931205229E+01  0.17208312028E+03  0.17120000000E+03 0.  0.
        998    1    1    2    0    0  0.12126617181E+01  0.16990486033E+01  0.14633196581E+04  0.14633553154E+04  0.10000000000E+02 0. -1.
</event>
<event>
 5    1  0.1574792E-008  0.3819435E+03  0.7957747E-01  0.3442739E+00
         13   -1    0    0    0    0  0.00000000000E+00  0.00000000000E+00  0.14999999963E+04  0.15000000000E+04  0.10566000000E+00 0. -1.
        994   -1    0    0    0    0 -0.00000000000E+00 -0.00000000000E+00  0.11368683772E-12  0.17120000000E+03  0.17120000000E+03 0.  0.
         13    1    1    2    0    0 -0.24299326533E+01 -0.22323558668E+02  0.77817269305E+02  0.80992496013E+02  0.10566000000E+00 0. -1.
        994    1    1    2    0    0 -0.11157954780E+02  0.18211643283E+02  0.46719367379E+01  0.17259035575E+03  0.17120000000E+03 0.  0.
        998    1    1    2    0    0  0.13587887434E+02  0.41119153847E+01  0.14175107902E+04  0.14176171482E+04  0.10000000000E+02 0. -1.
</event>
<event>
 5    1  0.1574792E-008  0.3826715E+03  0.7957747E-01  0.3439608E+00
         13   -1    0    0    0    0  0.00000000000E+00  0.00000000000E+00  0.14999999963E+04  0.15000000000E+04  0.10566000000E+00 0. -1.
        994   -1    0    0    0    0 -0.00000000000E+00 -0.00000000000E+00  0.11368683772E-12  0.17120000000E+03  0.17120000000E+03 0.  0.
         13    1    1    2    0    0  0.23788954426E+01  0.12828353171E+02  0.28638867275E+02  0.31470965531E+02  0.10566000000E+00 0. -1.
        994    1    1    2    0    0 -0.18525276469E+02 -0.14502084189E+02  0.46268960605E+01  0.17287088963E+03  0.17120000000E+03 0.  0.
        998    1    1    2    0    0  0.16146381027E+02  0.16737310174E+01  0.14667342329E+04  0.14668581448E+04  0.10000000000E+02 0. -1.
</event>
<event>
 5    1  0.1574792E-008  0.3839017E+03  0.7957747E-01  0.3434344E+00
         13   -1    0    0    0    0  0.00000000000E+00  0.00000000000E+00  0.14999999963E+04  0.15000000000E+04  0.10566000000E+00 0. -1.
        994   -1    0    0    0    0 -0.00000000000E+00 -0.00000000000E+00  0.11368683772E-12  0.17120000000E+03  0.17120000000E+03 0.  0.
         13    1    1    2    0    0  0.14700316661E+02  0.67833949582E+01  0.60140201264E+02  0.62281367432E+02  0.10566000000E+00 0. -1.
        994    1    1    2    0    0 -0.81325395147E+01 -0.47097372448E+01  0.24679577108E+01  0.17147551032E+03  0.17120000000E+03 0.  0.
        998    1    1    2    0    0 -0.65677771467E+01 -0.20736577134E+01  0.14373918373E+04  0.14374431222E+04  0.10000000000E+02 0. -1.
</event>
<event>
 5    1  0.1574792E-008  0.3814129E+03  0.7957747E-01  0.3445029E+00
         13   -1    0    0    0    0  0.00000000000E+00  0.00000000000E+00  0.14999999963E+04  0.15000000000E+04  0.10566000000E+00 0.  1.
        994   -1    0    0    0    0 -0.00000000000E+00 -0.00000000000E+00  0.11368683772E-12  0.17120000000E+03  0.17120000000E+03 0.  0.
         13    1    1    2    0    0  0.57222382200E+01 -0.10650260915E+02  0.19715737715E+02  0.23127765683E+02  0.10566000000E+00 0.  1.
        994    1    1    2    0    0 -0.84340915104E+01  0.10379209978E+02  0.40169678805E+01  0.17176855920E+03  0.17120000000E+03 0.  0.
        998    1    1    2    0    0  0.27118532904E+01  0.27105093775E+00  0.14762672907E+04  0.14763036751E+04  0.10000000000E+02 0.  1.
</event>
<event>
 5    1  0.1574792E-008  0.3801371E+03  0.7957747E-01  0.3450562E+00
         13   -1    0    0    0    0  0.00000000000E+00  0.00000000000E+00  0.14999999963E+04  0.15000000000E+04  0.10566000000E+00 0.  1.
        994   -1    0    0    0    0 -0.00000000000E+00 -0.00000000000E+00  0.11368683772E-12  0.17120000000E+03  0.17120000000E+03 0.  0.
         13    1    1    2    0    0  0.28365642960E+02  0.19813516655E+02  0.14961089718E+03  0.15355981525E+03  0.10566000000E+00 0.  1.
        994    1    1    2    0    0 -0.26992305601E+02  0.88419056596E+01  0.67643417018E+01  0.17367199019E+03  0.17120000000E+03 0.  0.
        998    1    1    2    0    0 -0.13733373595E+01 -0.28655422315E+02  0.13436247574E+04  0.13439681946E+04  0.10000000000E+02 0.  1.
</event>
<event>
 5    1  0.1574792E-008  0.3844622E+03  0.7957747E-01  0.3431956E+00
         13   -1    0    0    0    0  0.00000000000E+00  0.00000000000E+00  0.14999999963E+04  0.15000000000E+04  0.10566000000E+00 0. -1.
        994   -1    0    0    0    0 -0.00000000000E+00 -0.00000000000E+00  0.11368683772E-12  0.17120000000E+03  0.17120000000E+03 0.  0.
         13    1    1    2    0    0 -0.55654920739E+00 -0.17385437178E+02  0.78530393787E+02  0.80433805612E+02  0.10566000000E+00 0. -1.
        994    1    1    2    0    0  0.22899326437E+00  0.13129551306E+02  0.24656415233E+01  0.17172057810E+03  0.17120000000E+03 0.  0.
        998    1    1    2    0    0  0.32755594302E+00  0.42558858722E+01  0.14190039610E+04  0.14190456163E+04  0.10000000000E+02 0. -1.
</event>
<event>
 5    1  0.1574792E-008  0.3855081E+03  0.7957747E-01  0.3427520E+00
         13   -1    0    0    0    0  0.00000000000E+00  0.00000000000E+00  0.14999999963E+04  0.15000000000E+04  0.10566000000E+00 0. -1.
        994   -1    0    0    0    0 -0.00000000000E+00 -0.00000000000E+00  0.11368683772E-12  0.17120000000E+03  0.17120000000E+03 0.  0.
         13    1    1    2    0    0  0.94950534303E+01 -0.87941832575E+01  0.63070831476E+02  0.64385049864E+02  0.10566000000E+00 0. -1.
        994    1    1    2    0    0 -0.70849569763E+01 -0.18541564028E+01  0.15541867580E+01  0.17136361927E+03  0.17120000000E+03 0.  0.
        998    1    1    2    0    0 -0.24100964540E+01  0.10648339660E+02  0.14353749780E+04  0.14354513309E+04  0.10000000000E+02 0. -1.
</event>
<event>
 5    1  0.1574792E-008  0.3871404E+03  0.7957747E-01  0.3420645E+00
         13   -1    0    0    0    0  0.00000000000E+00  0.00000000000E+00  0.14999999963E+04  0.15000000000E+04  0.10566000000E+00 0. -1.
        994   -1    0    0    0    0 -0.00000000000E+00 -0.00000000000E+00  0.11368683772E-12  0.17120000000E+03  0.17120000000E+03 0.  0.
         13    1    1    2    0    0  0.33315769262E+02  0.39574531730E+02  0.60952893519E+02  0.79945921945E+02  0.10566000000E+00 0. -1.
        994    1    1    2    0    0 -0.39532408160E+01 -0.26924980303E+02  0.23066576943E+02  0.17487735602E+03  0.17120000000E+03 0.  0.
        998    1    1    2    0    0 -0.29362528446E+02 -0.12649551428E+02  0.14159805258E+04  0.14163767220E+04  0.10000000000E+02 0. -1.
</event>
<event>
 5    1  0.1574792E-008  0.3848982E+03  0.7957747E-01  0.3430104E+00
         13   -1    0    0    0    0  0.00000000000E+00  0.00000000000E+00  0.14999999963E+04  0.15000000000E+04  0.10566000000E+00 0. -1.
        994   -1    0    0    0    0 -0.00000000000E+00 -0.00000000000E+00  0.11368683772E-12  0.17120000000E+03  0.17120000000E+03 0.  0.
         13    1    1    2    0    0 -0.48505304035E+01 -0.14400183563E+02  0.68876979315E+02  0.70533271407E+02  0.10566000000E+00 0. -1.
        994    1    1    2    0    0  0.90389520967E+01  0.70063221475E+01  0.21110878100E+01  0.17159454507E+03  0.17120000000E+03 0.  0.
        998    1    1    2    0    0 -0.41884216931E+01  0.73938614151E+01  0.14290119292E+04  0.14290721835E+04  0.10000000000E+02 0. -1.
</event>
<event>
 5    1  0.1574792E-008  0.3786913E+03  0.7957747E-01  0.3456877E+00
         13   -1    0    0    0    0  0.00000000000E+00  0.00000000000E+00  0.14999999963E+04  0.15000000000E+04  0.10566000000E+00 0.  1.
        994   -1    0    0    0    0 -0.00000000000E+00 -0.00000000000E+00  0.11368683772E-12  0.17120000000E+03  0.17120000000E+03 0.  0.
         13    1    1    2    0    0  0.13138517093E+02 -0.82321587733E+01  0.23381808409E+02  0.28055466454E+02  0.10566000000E+00 0.  1.
        994    1    1    2    0    0 -0.54417003363E+01  0.22311944754E+01  0.49113742092E+01  0.17137138597E+03  0.17120000000E+03 0.  0.
        998    1    1    2    0    0 -0.76968167567E+01  0.60009642979E+01  0.14717068137E+04  0.14717731476E+04  0.10000000000E+02 0.  1.
</event>
<event>
 5    1  0.1574792E-008  0.3693006E+03  0.7957747E-01  0.3499112E+00
         13   -1    0    0    0    0  0.00000000000E+00  0.00000000000E+00  0.14999999963E+04  0.15000000000E+04  0.10566000000E+00 0.  1.
        994   -1    0    0    0    0 -0.00000000000E+00 -0.00000000000E+00  0.11368683772E-12  0.17120000000E+03  0.17120000000E+03 0.  0.
         13    1    1    2    0    0  0.24589906009E+01 -0.14565323240E+02  0.72686648862E+01  0.16463290349E+02  0.10566000000E+00 0.  1.
        994    1    1    2    0    0  0.32570825623E+02 -0.27621901453E+01  0.13347509798E+02  0.17480298737E+03  0.17120000000E+03 0.  0.
        998    1    1    2    0    0 -0.35029816224E+02  0.17327513385E+02  0.14793838216E+04  0.14799337223E+04  0.10000000000E+02 0.  1.
</event>
<event>
 5    1  0.1574792E-008  0.3828049E+03  0.7957747E-01  0.3439036E+00
         13   -1    0    0    0    0  0.00000000000E+00  0.00000000000E+00  0.14999999963E+04  0.15000000000E+04  0.10566000000E+00 0.  1.
        994   -1    0    0    0    0 -0.00000000000E+00 -0.00000000000E+00  0.11368683772E-12  0.17120000000E+03  0.17120000000E+03 0.  0.
         13    1    1    2    0    0  0.10816002269E+02  0.61504057906E+01  0.23333756951E+02  0.26444068786E+02  0.10566000000E+00 0.  1.
        994    1    1    2    0    0 -0.71715372063E+02  0.87629665040E+01  0.20210013910E+02  0.18691647556E+03  0.17120000000E+03 0.  0.
        998    1    1    2    0    0  0.60899369794E+02 -0.14913372295E+02  0.14564562254E+04  0.14578394557E+04  0.10000000000E+02 0.  1.
</event>
<event>
 5    1  0.1574792E-008  0.3861404E+03  0.7957747E-01  0.3424850E+00
         13   -1    0    0    0    0  0.00000000000E+00  0.00000000000E+00  0.14999999963E+04  0.15000000000E+04  0.10566000000E+00 0. -1.
        994   -1    0    0    0    0 -0.00000000000E+00 -0.00000000000E+00  0.11368683772E-12  0.17120000000E+03  0.17120000000E+03 0.  0.
         13    1    1    2    0    0  0.95658200586E+00  0.10382208666E+02  0.52596471067E+02  0.53620007820E+02  0.10566000000E+00 0. -1.
        994    1    1    2    0    0  0.45603734170E+01 -0.52228786771E+01  0.12225433601E+01  0.17134471127E+03  0.17120000000E+03 0.  0.
        998    1    1    2    0    0 -0.55169554229E+01 -0.51593299893E+01  0.14461809819E+04  0.14462352809E+04  0.10000000000E+02 0. -1.
</event>
<event>
 5    1  0.1574792E-008  0.3816567E+03  0.7957747E-01  0.3443976E+00
         13   -1    0    0    0    0  0.00000000000E+00  0.00000000000E+00  0.14999999963E+04  0.15000000000E+04  0.10566000000E+00 0. -1.
        994   -1    0    0    0    0 -0.00000000000E+00 -0.00000000000E+00  0.11368683772E-12  0.17120000000E+03  0.17120000000E+03 0.  0.
         13    1    1    2    0    0 -0.30440721629E+00  0.15301078316E+02  0.33854495333E+02  0.37153111306E+02  0.10566000000E+00 0. -1.
        994    1    1    2    0    0  0.78973688156E+00 -0.13910262744E+02  0.39448432663E+01  0.17181129440E+03  0.17120000000E+03 0.  0.
        998    1    1    2    0    0 -0.48532966527E+00 -0.13908155729E+01  0.14622006577E+04  0.14622355943E+04  0.10000000000E+02 0. -1.
</event>
<event>
 5    1  0.1574792E-008  0.3823127E+03  0.7957747E-01  0.3441150E+00
         13   -1    0    0    0    0  0.00000000000E+00  0.00000000000E+00  0.14999999963E+04  0.15000000000E+04  0.10566000000E+00 0.  1.
        994   -1    0    0    0    0 -0.00000000000E+00 -0.00000000000E+00  0.11368683772E-12  0.17120000000E+03  0.17120000000E+03 0.  0.
         13    1    1    2    0    0 -0.20462313149E+02  0.40283704370E+01  0.65579048297E+02  0.68815381764E+02  0.10566000000E+00 0.  1.
        994    1    1    2    0    0  0.31248530750E+02 -0.15164283266E+02  0.69829656138E+01  0.17482742339E+03  0.17120000000E+03 0.  0.
        998    1    1    2    0    0 -0.10786217601E+02  0.11135912829E+02  0.14274379824E+04  0.14275571948E+04  0.10000000000E+02 0.  1.
</event>
<event>
 5    1  0.1574792E-008  0.3729525E+03  0.7957747E-01  0.3482431E+00
         13   -1    0    0    0    0  0.00000000000E+00  0.00000000000E+00  0.14999999963E+04  0.15000000000E+04  0.10566000000E+00 0. -1.
        994   -1    0    0    0    0 -0.00000000000E+00 -0.00000000000E+00  0.11368683772E-12  0.17120000000E+03  0.17120000000E+03 0.  0.
         13    1    1    2    0    0 -0.80875251739E+01 -0.50257433228E+02  0.17565385643E+03  0.18288112560E+03  0.10566000000E+00 0. -1.
        994    1    1    2    0    0  0.97204968148E+01  0.16805643881E+02  0.90250947365E+01  0.17253350417E+03  0.17120000000E+03 0.  0.
        998    1    1    2    0    0 -0.16329716409E+01  0.33451789347E+02  0.13153210451E+04  0.13157853702E+04  0.10000000000E+02 0. -1.
</event>
<event>
 5    1  0.1574792E-008  0.3787285E+03  0.7957747E-01  0.3456714E+00
         13   -1    0    0    0    0  0.00000000000E+00  0.00000000000E+00  0.14999999963E+04  0.15000000000E+04  0.10566000000E+00 0. -1.
        994   -1    0    0    0    0 -0.00000000000E+00 -0.00000000000E+00  0.11368683772E-12  0.17120000000E+03  0.17120000000E+03 0.  0.
         13    1    1    2    0    0  0.36795834890E+02  0.28793643474E+02  0.18906845236E+03  0.19475599660E+03  0.10566000000E+00 0. -1.
        994    1    1    2    0    0 -0.36859402868E+02 -0.42126664504E+02  0.15367741733E+02  0.18077300387E+03  0.17120000000E+03 0.  0.
        998    1    1    2    0    0  0.63567977822E-01  0.13333021030E+02  0.12955638022E+04  0.12956709995E+04  0.10000000000E+02 0. -1.
</event>
<event>
 5    1  0.1574792E-008  0.3844304E+03  0.7957747E-01  0.3432092E+00
         13   -1    0    0    0    0  0.00000000000E+00  0.00000000000E+00  0.14999999963E+04  0.15000000000E+04  0.10566000000E+00 0. -1.
        994   -1    0    0    0    0 -0.00000000000E+00 -0.00000000000E+00  0.11368683772E-12  0.17120000000E+03  0.17120000000E+03 0.  0.
         13    1    1    2    0    0  0.12813743165E+02 -0.94094273200E+01  0.68391477142E+02  0.70214917546E+02  0.10566000000E+00 0. -1.
        994    1    1    2    0    0 -0.41410256741E+01  0.11232852736E+01  0.19738609313E+01  0.17126513361E+03  0.17120000000E+03 0.  0.
        998    1    1    2    0    0 -0.86727174909E+01  0.82861420464E+01  0.14296346582E+04  0.14297199488E+04  0.10000000000E+02 0. -1.
</event>
<event>
 5    1  0.1574792E-008  0.3852336E+03  0.7957747E-01  0.3428682E+00
         13   -1    0    0    0    0  0.00000000000E+00  0.00000000000E+00  0.14999999963E+04  0.15000000000E+04  0.10566000000E+00 0. -1.
        994   -1    0    0    0    0 -0.00000000000E+00 -0.00000000000E+00  0.11368683772E-12  0.17120000000E+03  0.17120000000E+03 0.  0.
         13    1    1    2    0    0 -0.12361576015E+02  0.65505796741E+01  0.69706134463E+02  0.71096237604E+02  0.10566000000E+00 0. -1.
        994    1    1    2    0    0 -0.49552879375E+01 -0.65134598516E+01  0.17343322039E+01  0.17140428217E+03  0.17120000000E+03 0.  0.
        998    1    1    2    0    0  0.17316863953E+02 -0.37119822558E-01  0.14285595296E+04  0.14286994802E+04  0.10000000000E+02 0. -1.
</event>
<event>
 5    1  0.1574792E-008  0.3712275E+03  0.7957747E-01  0.3490268E+00
         13   -1    0    0    0    0  0.00000000000E+00  0.00000000000E+00  0.14999999963E+04  0.15000000000E+04  0.10566000000E+00 0.  1.
        994   -1    0    0    0    0 -0.00000000000E+00 -0.00000000000E+00  0.11368683772E-12  0.17120000000E+03  0.17120000000E+03 0.  0.
         13    1    1    2    0    0  0.11662172246E+02 -0.36142185847E+02  0.75884326592E+02  0.84856974054E+02  0.10566000000E+00 0.  1.
        994    1    1    2    0    0 -0.61453073606E+01  0.41277191512E+02  0.14649102569E+02  0.17682083460E+03  0.17120000000E+03 0.  0.
        998    1    1    2    0    0 -0.55168648853E+01 -0.51350056653E+01  0.14094665671E+04  0.14095221913E+04  0.10000000000E+02 0.  1.
</event>
<event>
 5    1  0.1574792E-008  0.3710213E+03  0.7957747E-01  0.3491210E+00
         13   -1    0    0    0    0  0.00000000000E+00  0.00000000000E+00  0.14999999963E+04  0.15000000000E+04  0.10566000000E+00 0.  1.
        994   -1    0    0    0    0 -0.00000000000E+00 -0.00000000000E+00  0.11368683772E-12  0.17120000000E+03  0.17120000000E+03 0.  0.
         13    1    1    2    0    0  0.26142209009E+02  0.22326535739E+02  0.46072402771E+02  0.57485361190E+02  0.10566000000E+00 0.  1.
        994    1    1    2    0    0 -0.13638273102E+02 -0.32185715246E+02  0.15779147893E+02  0.17544327935E+03  0.17120000000E+03 0.  0.
        998    1    1    2    0    0 -0.12503935907E+02  0.98591795069E+01  0.14381484456E+04  0.14382713595E+04  0.10000000000E+02 0.  1.
</event>
<event>
 5    1  0.1574792E-008  0.3685698E+03  0.7957747E-01  0.3502490E+00
         13   -1    0    0    0    0  0.00000000000E+00  0.00000000000E+00  0.14999999963E+04  0.15000000000E+04  0.10566000000E+00 0. -1.
        994   -1    0    0    0    0 -0.00000000000E+00 -0.00000000000E+00  0.11368683772E-12  0.17120000000E+03  0.17120000000E+03 0.  0.
         13    1    1    2    0    0 -0.35333970179E+02  0.61533693649E+00  0.70247836443E+02  0.78636109881E+02  0.10566000000E+00 0. -1.
        994    1    1    2    0    0 -0.34989349911E+02 -0.15237478830E+02  0.15096359647E+02  0.17605049117E+03  0.17120000000E+03 0.  0.
        998    1    1    2    0    0  0.70323320090E+02  0.14622141894E+02  0.14146558002E+04  0.14165133989E+04  0.10000000000E+02 0. -1.
</event>
<event>
 5    1  0.1574792E-008  0.3850800E+03  0.7957747E-01  0.3429333E+00
         13   -1    0    0    0    0  0.00000000000E+00  0.00000000000E+00  0.14999999963E+04  0.15000000000E+04  0.10566000000E+00 0.  1.
        994   -1    0    0    0    0 -0.00000000000E+00 -0.00000000000E+00  0.11368683772E-12  0.17120000000E+03  0.17120000000E+03 0.  0.
         13    1    1    2    0    0  0.62144166481E+01 -0.13871460559E+02  0.75286283240E+02  0.76805416479E+02  0.10566000000E+00 0.  1.
        994    1    1    2    0    0  0.28933709536E+01  0.67527524360E+01  0.17678934270E+01  0.17136667327E+03  0.17120000000E+03 0.  0.
        998    1    1    2    0    0 -0.91077876017E+01  0.71187081231E+01  0.14229458196E+04  0.14230279102E+04  0.10000000000E+02 0.  1.
</event>
<event>
 5    1  0.1574792E-008  0.3749898E+03  0.7957747E-01  0.3473268E+00
         13   -1    0    0    0    0  0.00000000000E+00  0.00000000000E+00  0.14999999963E+04  0.15000000000E+04  0.10566000000E+00 0. -1.
        994   -1    0    0    0    0 -0.00000000000E+00 -0.00000000000E+00  0.11368683772E-12  0.17120000000E+03  0.17120000000E+03 0.  0.
         13    1    1    2    0    0 -0.32402322062E+02  0.43264401960E+02  0.18310150873E+03  0.19091331178E+03  0.10566000000E+00 0. -1.
        994    1    1    2    0    0  0.20247655668E+02 -0.61782227164E+02  0.21191334242E+02  0.18435163086E+03  0.17120000000E+03 0.  0.
        998    1    1    2    0    0  0.12154666394E+02  0.18517825204E+02  0.12957071533E+04  0.12959350574E+04  0.10000000000E+02 0. -1.
</event>
<event>
 5    1  0.1574792E-008  0.3855837E+03  0.7957747E-01  0.3427201E+00
         13   -1    0    0    0    0  0.00000000000E+00  0.00000000000E+00  0.14999999963E+04  0.15000000000E+04  0.10566000000E+00 0.  1.
        994   -1    0    0    0    0 -0.00000000000E+00 -0.00000000000E+00  0.11368683772E-12  0.17120000000E+03  0.17120000000E+03 0.  0.
         13    1    1    2    0    0  0.81997295377E+01 -0.59055161284E+01  0.37983116691E+02  0.39304439988E+02  0.10566000000E+00 0.  1.
        994    1    1    2    0    0 -0.13535017762E+02 -0.48490122478E+01  0.20194373913E+01  0.17181451555E+03  0.17120000000E+03 0.  0.
        998    1    1    2    0    0  0.53352882247E+01  0.10754528376E+02  0.14599974422E+04  0.14600810445E+04  0.10000000000E+02 0.  1.
</event>
<event>
 5    1  0.1574792E-008  0.3839735E+03  0.7957747E-01  0.3434038E+00
         13   -1    0    0    0    0  0.00000000000E+00  0.00000000000E+00  0.14999999963E+04  0.15000000000E+04  0.10566000000E+00 0. -1.
        994   -1    0    0    0    0 -0.00000000000E+00 -0.00000000000E+00  0.11368683772E-12  0.17120000000E+03  0.17120000000E+03 0.  0.
         13    1    1    2    0    0 -0.18071284116E+02 -0.24749937281E+01  0.83886551985E+02  0.85846733610E+02  0.10566000000E+00 0. -1.
        994    1    1    2    0    0  0.24527083673E+01 -0.21636497018E+02  0.37067449957E+01  0.17261904223E+03  0.17120000000E+03 0.  0.
        998    1    1    2    0    0  0.15618575748E+02  0.24111490746E+02  0.14124066993E+04  0.14127342242E+04  0.10000000000E+02 0. -1.
</event>
<event>
 5    1  0.1574792E-008  0.3852999E+03  0.7957747E-01  0.3428401E+00
         13   -1    0    0    0    0  0.00000000000E+00  0.00000000000E+00  0.14999999963E+04  0.15000000000E+04  0.10566000000E+00 0.  1.
        994   -1    0    0    0    0 -0.00000000000E+00 -0.00000000000E+00  0.11368683772E-12  0.17120000000E+03  0.17120000000E+03 0.  0.
         13    1    1    2    0    0  0.11300688494E+02  0.11216594346E+02  0.84825295316E+02  0.86306775160E+02  0.10566000000E+00 0.  1.
        994    1    1    2    0    0 -0.68471588008E+01 -0.10006583449E+02  0.19644635387E+01  0.17164007228E+03  0.17120000000E+03 0.  0.
        998    1    1    2    0    0 -0.44535296931E+01 -0.12100108970E+01  0.14132102374E+04  0.14132531526E+04  0.10000000000E+02 0.  1.
</event>
<event>
 5    1  0.1574792E-008  0.3751202E+03  0.7957747E-01  0.3472685E+00
         13   -1    0    0    0    0  0.00000000000E+00  0.00000000000E+00  0.14999999963E+04  0.15000000000E+04  0.10566000000E+00 0.  1.
        994   -1    0    0    0    0 -0.00000000000E+00 -0.00000000000E+00  0.11368683772E-12  0.17120000000E+03  0.17120000000E+03 0.  0.
         13    1    1    2    0    0  0.69711375251E+02 -0.39327331982E+02  0.19613357150E+03  0.21183650279E+03  0.10566000000E+00 0.  1.
        994    1    1    2    0    0 -0.76501021553E+02  0.35460421007E+02  0.39437310437E+02  0.19487069870E+03  0.17120000000E+03 0.  0.
        998    1    1    2    0    0  0.67896463017E+01  0.38669109751E+01  0.12644291143E+04  0.12644927985E+04  0.10000000000E+02 0.  1.
</event>
<event>
 5    1  0.1574792E-008  0.3775526E+03  0.7957747E-01  0.3461885E+00
         13   -1    0    0    0    0  0.00000000000E+00  0.00000000000E+00  0.14999999963E+04  0.15000000000E+04  0.10566000000E+00 0.  1.
        994   -1    0    0    0    0 -0.00000000000E+00 -0.00000000000E+00  0.11368683772E-12  0.17120000000E+03  0.17120000000E+03 0.  0.
         13    1    1    2    0    0  0.16165723353E+02 -0.32510735375E+02  0.14021175108E+03  0.14483654522E+03  0.10566000000E+00 0.  1.
        994    1    1    2    0    0  0.90139136743E+01 -0.13124989957E+01  0.56533978602E+01  0.17153534388E+03  0.17120000000E+03 0.  0.
        998    1    1    2    0    0 -0.25179637028E+02  0.33823234371E+02  0.13541348473E+04  0.13548281109E+04  0.10000000000E+02 0.  1.
</event>
<event>
 5    1  0.1574792E-008  0.3852283E+03  0.7957747E-01  0.3428704E+00
         13   -1    0    0    0    0  0.00000000000E+00  0.00000000000E+00  0.14999999963E+04  0.15000000000E+04  0.10566000000E+00 0.  1.
        994   -1    0    0    0    0 -0.00000000000E+00 -0.00000000000E+00  0.11368683772E-12  0.17120000000E+03  0.17120000000E+03 0.  0.
         13    1    1    2    0    0  0.96873163099E+01  0.48667510787E+01  0.40947608963E+02  0.42358555301E+02  0.10566000000E+00 0.  1.
        994    1    1    2    0    0  0.49919487758E+01 -0.26520560874E+01  0.16218258120E+01  0.17130097277E+03  0.17120000000E+03 0.  0.
        998    1    1    2    0    0 -0.14679265086E+02 -0.22146949913E+01  0.14574305615E+04  0.14575404719E+04  0.10000000000E+02 0.  1.
</event>
<event>
 5    1  0.1574792E-008  0.3794403E+03  0.7957747E-01  0.3453599E+00
         13   -1    0    0    0    0  0.00000000000E+00  0.00000000000E+00  0.14999999963E+04  0.15000000000E+04  0.10566000000E+00 0.  1.
        994   -1    0    0    0    0 -0.00000000000E+00 -0.00000000000E+00  0.11368683772E-12  0.17120000000E+03  0.17120000000E+03 0.  0.
         13    1    1    2    0    0  0.58921405987E+02  0.27977811366E+02  0.12113303026E+03  0.13757802221E+03  0.10566000000E+00 0.  1.
        994    1    1    2    0    0 -0.59877909524E+02 -0.76898609020E+01  0.29319532258E+02  0.18388467305E+03  0.17120000000E+03 0.  0.
        998    1    1    2    0    0  0.95650353679E+00 -0.20287950464E+02  0.13495474338E+04  0.13497373047E+04  0.10000000000E+02 0.  1.
</event>
<event>
 5    1  0.1574792E-008  0.3440398E+03  0.7957747E-01  0.3624426E+00
         13   -1    0    0    0    0  0.00000000000E+00  0.00000000000E+00  0.14999999963E+04  0.15000000000E+04  0.10566000000E+00 0. -1.
        994   -1    0    0    0    0 -0.00000000000E+00 -0.00000000000E+00  0.11368683772E-12  0.17120000000E+03  0.17120000000E+03 0.  0.
         13    1    1    2    0    0 -0.11569549768E+03  0.22712721317E+03  0.85768601417E+03  0.89476115764E+03  0.10566000000E+00 0. -1.
        994    1    1    2    0    0  0.99949957897E+02 -0.22320646478E+03  0.26661014947E+03  0.40025183548E+03  0.17120000000E+03 0.  0.
        998    1    1    2    0    0  0.15745539782E+02 -0.39207483877E+01  0.37570383264E+03  0.37618700688E+03  0.10000000000E+02 0.  1.
</event>
<event>
 5    1  0.1574792E-008  0.3819772E+03  0.7957747E-01  0.3442594E+00
         13   -1    0    0    0    0  0.00000000000E+00  0.00000000000E+00  0.14999999963E+04  0.15000000000E+04  0.10566000000E+00 0.  1.
        994   -1    0    0    0    0 -0.00000000000E+00 -0.00000000000E+00  0.11368683772E-12  0.17120000000E+03  0.17120000000E+03 0.  0.
         13    1    1    2    0    0 -0.25163743133E+02  0.15464852166E+02  0.13531185262E+03  0.13849795754E+03  0.10566000000E+00 0.  1.
        994    1    1    2    0    0  0.53100131239E+01 -0.32024237566E+02  0.66460292961E+01  0.17437705622E+03  0.17120000000E+03 0.  0.
        998    1    1    2    0    0  0.19853730009E+02  0.16559385400E+02  0.13580421144E+04  0.13583249862E+04  0.10000000000E+02 0.  1.
</event>
<event>
 5    1  0.1574792E-008  0.3786906E+03  0.7957747E-01  0.3456880E+00
         13   -1    0    0    0    0  0.00000000000E+00  0.00000000000E+00  0.14999999963E+04  0.15000000000E+04  0.10566000000E+00 0.  1.
        994   -1    0    0    0    0 -0.00000000000E+00 -0.00000000000E+00  0.11368683772E-12  0.17120000000E+03  0.17120000000E+03 0.  0.
         13    1    1    2    0    0  0.26893328539E+02  0.41147581676E+01  0.73699005756E+02  0.78560403309E+02  0.10566000000E+00 0.  1.
        994    1    1    2    0    0 -0.23402294750E+02  0.34651037485E+01  0.66769026754E+01  0.17295576132E+03  0.17120000000E+03 0.  0.
        998    1    1    2    0    0 -0.34910337892E+01 -0.75798619160E+01  0.14196240878E+04  0.14196838354E+04  0.10000000000E+02 0.  1.
</event>
<event>
 5    1  0.1574792E-008  0.3690102E+03  0.7957747E-01  0.3500452E+00
         13   -1    0    0    0    0  0.00000000000E+00  0.00000000000E+00  0.14999999963E+04  0.15000000000E+04  0.10566000000E+00 0. -1.
        994   -1    0    0    0    0 -0.00000000000E+00 -0.00000000000E+00  0.11368683772E-12  0.17120000000E+03  0.17120000000E+03 0.  0.
         13    1    1    2    0    0 -0.41861076178E+02  0.27019905713E+02  0.11324295108E+03  0.12371904517E+03  0.10566000000E+00 0. -1.
        994    1    1    2    0    0  0.30733896983E+02 -0.50493564684E+02  0.22010079714E+02  0.18245014691E+03  0.17120000000E+03 0.  0.
        998    1    1    2    0    0  0.11127179195E+02  0.23473658971E+02  0.13647469655E+04  0.13650308079E+04  0.10000000000E+02 0. -1.
</event>
<event>
 5    1  0.1574792E-008  0.3803604E+03  0.7957747E-01  0.3449591E+00
         13   -1    0    0    0    0  0.00000000000E+00  0.00000000000E+00  0.14999999963E+04  0.15000000000E+04  0.10566000000E+00 0.  1.
        994   -1    0    0    0    0 -0.00000000000E+00 -0.00000000000E+00  0.11368683772E-12  0.17120000000E+03  0.17120000000E+03 0.  0.
         13    1    1    2    0    0  0.15990622341E+02 -0.20883060050E+02  0.90632141453E+02  0.94371597572E+02  0.10566000000E+00 0.  1.
        994    1    1    2    0    0  0.28484467110E+01  0.10050011951E+02  0.43157563390E+01  0.17157267306E+03  0.17120000000E+03 0.  0.
        998    1    1    2    0    0 -0.18839069052E+02  0.10833048100E+02  0.14050520985E+04  0.14052557294E+04  0.10000000000E+02 0.  1.
</event>
<event>
 5    1  0.1574792E-008  0.3857759E+03  0.7957747E-01  0.3426388E+00
         13   -1    0    0    0    0  0.00000000000E+00  0.00000000000E+00  0.14999999963E+04  0.15000000000E+04  0.10566000000E+00 0. -1.
        994   -1    0    0    0    0 -0.00000000000E+00 -0.00000000000E+00  0.11368683772E-12  0.17120000000E+03  0.17120000000E+03 0.  0.
         13    1    1    2    0    0  0.81658019077E+01  0.63630158243E+01  0.44795306048E+02  0.45976068766E+02  0.10566000000E+00 0. -1.
        994    1    1    2    0    0  0.47745604461E+01 -0.88555561892E+01  0.15774996365E+01  0.17150261167E+03  0.17120000000E+03 0.  0.
        998    1    1    2    0    0 -0.12940362354E+02  0.24925403649E+01  0.14536271906E+04  0.14537213196E+04  0.10000000000E+02 0. -1.
</event>
<event>
 5    1  0.1574792E-008  0.3696272E+03  0.7957747E-01  0.3497606E+00
         13   -1    0    0    0    0  0.00000000000E+00  0.00000000000E+00  0.14999999963E+04  0.15000000000E+04  0.10566000000E+00 0. -1.
        994   -1    0    0    0    0 -0.00000000000E+00 -0.00000000000E+00  0.11368683772E-12  0.17120000000E+03  0.17120000000E+03 0.  0.
         13    1    1    2    0    0 -0.80195152880E+02  0.40657495932E+02  0.45049304552E+03  0.45937815550E+03  0.10566000000E+00 0. -1.
        994    1    1    2    0    0  0.35401774965E+02 -0.29664202453E+02  0.16886089813E+02  0.17812307713E+03  0.17120000000E+03 0.  0.
        998    1    1    2    0    0  0.44793377914E+02 -0.10993293478E+02  0.10326208609E+04  0.10336987674E+04  0.10000000000E+02 0. -1.
</event>
<event>
 5    1  0.1574792E-008  0.3773573E+03  0.7957747E-01  0.3462747E+00
         13   -1    0    0    0    0  0.00000000000E+00  0.00000000000E+00  0.14999999963E+04  0.15000000000E+04  0.10566000000E+00 0.  1.
        994   -1    0    0    0    0 -0.00000000000E+00 -0.00000000000E+00  0.11368683772E-12  0.17120000000E+03  0.17120000000E+03 0.  0.
         13    1    1    2    0    0 -0.14823255797E+02  0.57314809630E+02  0.10144896896E+03  0.11745901746E+03  0.10566000000E+00 0.  1.
        994    1    1    2    0    0  0.95309915832E+01 -0.70468683176E+02  0.33261594521E+02  0.18834130927E+03  0.17120000000E+03 0.  0.
        998    1    1    2    0    0  0.52922642139E+01  0.13153873545E+02  0.13652894328E+04  0.13653996733E+04  0.10000000000E+02 0.  1.
</event>
<event>
 5    1  0.1574792E-008  0.3832206E+03  0.7957747E-01  0.3437254E+00
         13   -1    0    0    0    0  0.00000000000E+00  0.00000000000E+00  0.14999999963E+04  0.15000000000E+04  0.10566000000E+00 0. -1.
        994   -1    0    0    0    0 -0.00000000000E+00 -0.00000000000E+00  0.11368683772E-12  0.17120000000E+03  0.17120000000E+03 0.  0.
         13    1    1    2    0    0 -0.67351782136E+01  0.10423968892E+02  0.29197893504E+02  0.31726170619E+02  0.10566000000E+00 0. -1.
        994    1    1    2    0    0  0.77717793596E+01 -0.11520285431E+02  0.31551790110E+01  0.17179206235E+03  0.17120000000E+03 0.  0.
        998    1    1    2    0    0 -0.10366011460E+01  0.10963165397E+01  0.14676469238E+04  0.14676817670E+04  0.10000000000E+02 0. -1.
</event>
<event>
 5    1  0.1574792E-008  0.3781791E+03  0.7957747E-01  0.3459125E+00
         13   -1    0    0    0    0  0.00000000000E+00  0.00000000000E+00  0.14999999963E+04  0.15000000000E+04  0.10566000000E+00 0. -1.
        994   -1    0    0    0    0 -0.00000000000E+00 -0.00000000000E+00  0.11368683772E-12  0.17120000000E+03  0.17120000000E+03 0.  0.
         13    1    1    2    0    0  0.27569570978E+02 -0.17861869774E+02  0.10350599233E+03  0.10859387298E+03  0.10566000000E+00 0. -1.
        994    1    1    2    0    0 -0.26166338735E+02  0.17646316850E+01  0.73717388477E+01  0.17335389739E+03  0.17120000000E+03 0.  0.
        998    1    1    2    0    0 -0.14032322429E+01  0.16097238089E+02  0.13891222651E+04  0.13892522296E+04  0.10000000000E+02 0. -1.
</event>
<event>
 5    1  0.1574792E-008  0.3774461E+03  0.7957747E-01  0.3462355E+00
         13   -1    0    0    0    0  0.00000000000E+00  0.00000000000E+00  0.14999999963E+04  0.15000000000E+04  0.10566000000E+00 0.  1.
        994   -1    0    0    0    0 -0.00000000000E+00 -0.00000000000E+00  0.11368683772E-12  0.17120000000E+03  0.17120000000E+03 0.  0.
         13    1    1    2    0    0  0.14631466201E+02  0.98802190743E+02  0.57025070621E+03  0.57893162964E+03  0.10566000000E+00 0.  1.
        994    1    1    2    0    0 -0.68921806054E+01 -0.98301769495E+02  0.38899824847E+02  0.20132902526E+03  0.17120000000E+03 0.  0.
        998    1    1    2    0    0 -0.77392855956E+01 -0.50042124844E+00  0.89084946522E+03  0.89093934510E+03  0.10000000000E+02 0.  1.
</event>
<event>
 5    1  0.1574792E-008  0.3853771E+03  0.7957747E-01  0.3428074E+00
         13   -1    0    0    0    0  0.00000000000E+00  0.00000000000E+00  0.14999999963E+04  0.15000000000E+04  0.10566000000E+00 0.  1.
        994   -1    0    0    0    0 -0.00000000000E+00 -0.00000000000E+00  0.11368683772E-12  0.17120000000E+03  0.17120000000E+03 0.  0.
         13    1    1    2    0    0  0.20030999455E+01 -0.15720753874E+02  0.84657167093E+02  0.86127821382E+02  0.10566000000E+00 0.  1.
        994    1    1    2    0    0 -0.79054104437E+01  0.13571475556E+02  0.22537014052E+01  0.17193370709E+03  0.17120000000E+03 0.  0.
        998    1    1    2    0    0  0.59023104982E+01  0.21492783184E+01  0.14130891278E+04  0.14131384715E+04  0.10000000000E+02 0.  1.
</event>
<event>
 5    1  0.1574792E-008  0.3820090E+03  0.7957747E-01  0.3442457E+00
         13   -1    0    0    0    0  0.00000000000E+00  0.00000000000E+00  0.14999999963E+04  0.15000000000E+04  0.10566000000E+00 0. -1.
        994   -1    0    0    0    0 -0.00000000000E+00 -0.00000000000E+00  0.11368683772E-12  0.17120000000E+03  0.17120000000E+03 0.  0.
         13    1    1    2    0    0 -0.27234938864E+02  0.29288765923E+02  0.23222457452E+03  0.23564345499E+03  0.10566000000E+00 0. -1.
        994    1    1    2    0    0  0.22908599993E+02 -0.24374767218E+02  0.68471643123E+01  0.17457163827E+03  0.17120000000E+03 0.  0.
        998    1    1    2    0    0  0.43263388713E+01 -0.49139987056E+01  0.12609282574E+04  0.12609849067E+04  0.10000000000E+02 0. -1.
</event>
<event>
 5    1  0.1574792E-008  0.3729007E+03  0.7957747E-01  0.3482665E+00
         13   -1    0    0    0    0  0.00000000000E+00  0.00000000000E+00  0.14999999963E+04  0.15000000000E+04  0.10566000000E+00 0. -1.
        994   -1    0    0    0    0 -0.00000000000E+00 -0.00000000000E+00  0.11368683772E-12  0.17120000000E+03  0.17120000000E+03 0.  0.
         13    1    1    2    0    0  0.46760585836E+02  0.12719717259E+01  0.13809561445E+03  0.14580322423E+03  0.10566000000E+00 0. -1.
        994    1    1    2    0    0 -0.29944578287E+02  0.32555033336E+02  0.14488532990E+02  0.17741438936E+03  0.17120000000E+03 0.  0.
        998    1    1    2    0    0 -0.16816007549E+02 -0.33827005061E+02  0.13474158488E+04  0.13479823864E+04  0.10000000000E+02 0. -1.
</event>
<event>
 5    1  0.1574792E-008  0.3826516E+03  0.7957747E-01  0.3439694E+00
         13   -1    0    0    0    0  0.00000000000E+00  0.00000000000E+00  0.14999999963E+04  0.15000000000E+04  0.10566000000E+00 0. -1.
        994   -1    0    0    0    0 -0.00000000000E+00 -0.00000000000E+00  0.11368683772E-12  0.17120000000E+03  0.17120000000E+03 0.  0.
         13    1    1    2    0    0 -0.54362242153E+01  0.23706388781E+02  0.11448225551E+03  0.11703735896E+03  0.10566000000E+00 0. -1.
        994    1    1    2    0    0  0.34324401270E+01 -0.83104478614E+00  0.28419262067E+01  0.17126000358E+03  0.17120000000E+03 0.  0.
        998    1    1    2    0    0  0.20037840883E+01 -0.22875343995E+02  0.13826758146E+04  0.13829026375E+04  0.10000000000E+02 0. -1.
</event>
<event>
 5    1  0.1574792E-008  0.3827276E+03  0.7957747E-01  0.3439367E+00
         13   -1    0    0    0    0  0.00000000000E+00  0.00000000000E+00  0.14999999963E+04  0.15000000000E+04  0.10566000000E+00 0.  1.
        994   -1    0    0    0    0 -0.00000000000E+00 -0.00000000000E+00  0.11368683772E-12  0.17120000000E+03  0.17120000000E+03 0.  0.
         13    1    1    2    0    0 -0.77001064283E+01 -0.83759132841E+01  0.21516028956E+02  0.24339232289E+02  0.10566000000E+00 0.  1.
        994    1    1    2    0    0  0.17634735940E+02  0.12038236605E+02  0.42744352039E+01  0.17257929728E+03  0.17120000000E+03 0.  0.
        998    1    1    2    0    0 -0.99346295120E+01 -0.36623233209E+01  0.14742095321E+04  0.14742814704E+04  0.10000000000E+02 0.  1.
</event>
<event>
 5    1  0.1574792E-008  0.3833330E+03  0.7957747E-01  0.3436773E+00
         13   -1    0    0    0    0  0.00000000000E+00  0.00000000000E+00  0.14999999963E+04  0.15000000000E+04  0.10566000000E+00 0.  1.
        994   -1    0    0    0    0 -0.00000000000E+00 -0.00000000000E+00  0.11368683772E-12  0.17120000000E+03  0.17120000000E+03 0.  0.
         13    1    1    2    0    0  0.22605289143E+02  0.13368545766E+02  0.15871819295E+03  0.16087632843E+03  0.10566000000E+00 0.  1.
        994    1    1    2    0    0 -0.33305038709E+01  0.44517785586E+01  0.25622290863E+01  0.17130941482E+03  0.17120000000E+03 0.  0.
        998    1    1    2    0    0 -0.19274785272E+02 -0.17820324325E+02  0.13387195742E+04  0.13390142567E+04  0.10000000000E+02 0.  1.
</event>
<event>
 5    1  0.1574792E-008  0.3687189E+03  0.7957747E-01  0.3501800E+00
         13   -1    0    0    0    0  0.00000000000E+00  0.00000000000E+00  0.14999999963E+04  0.15000000000E+04  0.10566000000E+00 0. -1.
        994   -1    0    0    0    0 -0.00000000000E+00 -0.00000000000E+00  0.11368683772E-12  0.17120000000E+03  0.17120000000E+03 0.  0.
         13    1    1    2    0    0 -0.26891087513E+02 -0.25329601835E+01  0.31407226507E+02  0.41424286546E+02  0.10566000000E+00 0. -1.
        994    1    1    2    0    0  0.15398599487E+02  0.27656245036E+02  0.13758248163E+02  0.17464453655E+03  0.17120000000E+03 0.  0.
        998    1    1    2    0    0  0.11492488027E+02 -0.25123284852E+02  0.14548345216E+04  0.14551311769E+04  0.10000000000E+02 0. -1.
</event>
<event>
 5    1  0.1574792E-008  0.3838959E+03  0.7957747E-01  0.3434369E+00
         13   -1    0    0    0    0  0.00000000000E+00  0.00000000000E+00  0.14999999963E+04  0.15000000000E+04  0.10566000000E+00 0.  1.
        994   -1    0    0    0    0 -0.00000000000E+00 -0.00000000000E+00  0.11368683772E-12  0.17120000000E+03  0.17120000000E+03 0.  0.
         13    1    1    2    0    0 -0.35058128263E+01 -0.15137048668E+02  0.50054214252E+02  0.52410461688E+02  0.10566000000E+00 0.  1.
        994    1    1    2    0    0 -0.68591608138E+01  0.31810540211E+02  0.56822165881E+01  0.17435792537E+03  0.17120000000E+03 0.  0.
        998    1    1    2    0    0  0.10364973640E+02 -0.16673491544E+02  0.14442635654E+04  0.14444316129E+04  0.10000000000E+02 0.  1.
</event>
<event>
 5    1  0.1574792E-008  0.3858660E+03  0.7957747E-01  0.3426008E+00
         13   -1    0    0    0    0  0.00000000000E+00  0.00000000000E+00  0.14999999963E+04  0.15000000000E+04  0.10566000000E+00 0.  1.
        994   -1    0    0    0    0 -0.00000000000E+00 -0.00000000000E+00  0.11368683772E-12  0.17120000000E+03  0.17120000000E+03 0.  0.
         13    1    1    2    0    0 -0.89019048856E+01  0.50232067973E+01  0.42191292510E+02  0.43411897503E+02  0.10566000000E+00 0.  1.
        994    1    1    2    0    0  0.13525220002E+02 -0.37663544963E+01  0.18474875783E+01  0.17178466233E+03  0.17120000000E+03 0.  0.
        998    1    1    2    0    0 -0.46233151162E+01 -0.12568523010E+01  0.14559612162E+04  0.14560034402E+04  0.10000000000E+02 0.  1.
</event>
<event>
 5    1  0.1574792E-008  0.3833840E+03  0.7957747E-01  0.3436555E+00
         13   -1    0    0    0    0  0.00000000000E+00  0.00000000000E+00  0.14999999963E+04  0.15000000000E+04  0.10566000000E+00 0. -1.
        994   -1    0    0    0    0 -0.00000000000E+00 -0.00000000000E+00  0.11368683772E-12  0.17120000000E+03  0.17120000000E+03 0.  0.
         13    1    1    2    0    0 -0.97137244195E+01 -0.39333947203E+01  0.22165383186E+02  0.24518226118E+02  0.10566000000E+00 0. -1.
        994    1    1    2    0    0 -0.53271716993E+00  0.38194221940E+01  0.24837533617E+01  0.17126143992E+03  0.17120000000E+03 0.  0.
        998    1    1    2    0    0  0.10246441589E+02  0.11397252627E+00  0.14753508597E+04  0.14754203340E+04  0.10000000000E+02 0. -1.
</event>
<event>
 5    1  0.1574792E-008  0.3746016E+03  0.7957747E-01  0.3475006E+00
         13   -1    0    0    0    0  0.00000000000E+00  0.00000000000E+00  0.14999999963E+04  0.15000000000E+04  0.10566000000E+00 0.  1.
        994   -1    0    0    0    0 -0.00000000000E+00 -0.00000000000E+00  0.11368683772E-12  0.17120000000E+03  0.17120000000E+03 0.  0.
         13    1    1    2    0    0 -0.31588303575E+02  0.11005418400E+02  0.34988141264E+02  0.48405798723E+02  0.10566000000E+00 0.  1.
        994    1    1    2    0    0  0.36546518125E+02 -0.18140681278E+02  0.19331693239E+02  0.17705334413E+03  0.17120000000E+03 0.  0.
        998    1    1    2    0    0 -0.49582145497E+01  0.71352628780E+01  0.14456801618E+04  0.14457408571E+04  0.10000000000E+02 0.  1.
</event>
<event>
 5    1  0.1574792E-008  0.3722836E+03  0.7957747E-01  0.3485461E+00
         13   -1    0    0    0    0  0.00000000000E+00  0.00000000000E+00  0.14999999963E+04  0.15000000000E+04  0.10566000000E+00 0.  1.
        994   -1    0    0    0    0 -0.00000000000E+00 -0.00000000000E+00  0.11368683772E-12  0.17120000000E+03  0.17120000000E+03 0.  0.
         13    1    1    2    0    0 -0.56090814835E+01  0.18660773693E+02  0.19629884978E+02  0.27659172406E+02  0.10566000000E+00 0.  1.
        994    1    1    2    0    0  0.70800994992E+01 -0.21253921542E+02  0.98039060208E+01  0.17293760020E+03  0.17120000000E+03 0.  0.
        998    1    1    2    0    0 -0.14710180158E+01  0.25931478494E+01  0.14705662053E+04  0.14706032274E+04  0.10000000000E+02 0.  1.
</event>
<event>
 5    1  0.1574792E-008  0.3766541E+03  0.7957747E-01  0.3465858E+00
         13   -1    0    0    0    0  0.00000000000E+00  0.00000000000E+00  0.14999999963E+04  0.15000000000E+04  0.10566000000E+00 0.  1.
        994   -1    0    0    0    0 -0.00000000000E+00 -0.00000000000E+00  0.11368683772E-12  0.17120000000E+03  0.17120000000E+03 0.  0.
         13    1    1    2    0    0  0.28596157218E+00  0.19421127687E+02  0.28741639763E+02  0.34689407532E+02  0.10566000000E+00 0.  1.
        994    1    1    2    0    0 -0.26924433679E+01 -0.28156399696E+02  0.85408891822E+01  0.17373088063E+03  0.17120000000E+03 0.  0.
        998    1    1    2    0    0  0.24064817957E+01  0.87352720086E+01  0.14627174673E+04  0.14627797118E+04  0.10000000000E+02 0.  1.
</event>
<event>
 5    1  0.1574792E-008  0.3811741E+03  0.7957747E-01  0.3446062E+00
         13   -1    0    0    0    0  0.00000000000E+00  0.00000000000E+00  0.14999999963E+04  0.15000000000E+04  0.10566000000E+00 0. -1.
        994   -1    0    0    0    0 -0.00000000000E+00 -0.00000000000E+00  0.11368683772E-12  0.17120000000E+03  0.17120000000E+03 0.  0.
         13    1    1    2    0    0  0.48501175194E+02 -0.14971143594E+01  0.23486728235E+03  0.23982755645E+03  0.10566000000E+00 0. -1.
        994    1    1    2    0    0 -0.71125668964E+02  0.41551901880E+02  0.26477143697E+02  0.19182257551E+03  0.17120000000E+03 0.  0.
        998    1    1    2    0    0  0.22624493770E+02 -0.40054787521E+02  0.12386555702E+04  0.12395498680E+04  0.10000000000E+02 0. -1.
</event>
<event>
 5    1  0.1574792E-008  0.3770419E+03  0.7957747E-01  0.3464141E+00
         13   -1    0    0    0    0  0.00000000000E+00  0.00000000000E+00  0.14999999963E+04  0.15000000000E+04  0.10566000000E+00 0. -1.
        994   -1    0    0    0    0 -0.00000000000E+00 -0.00000000000E+00  0.11368683772E-12  0.17120000000E+03  0.17120000000E+03 0.  0.
         13    1    1    2    0    0  0.39446158940E+02 -0.19350038021E+02  0.15767321465E+03  0.16368041181E+03  0.10566000000E+00 0. -1.
        994    1    1    2    0    0 -0.28050472331E+02  0.30728310354E+02  0.11500263710E+02  0.17655807577E+03  0.17120000000E+03 0.  0.
        998    1    1    2    0    0 -0.11395686609E+02 -0.11378272333E+02  0.13308265179E+04  0.13309615124E+04  0.10000000000E+02 0. -1.
</event>
<event>
 5    1  0.1574792E-008  0.3706619E+03  0.7957747E-01  0.3492854E+00
         13   -1    0    0    0    0  0.00000000000E+00  0.00000000000E+00  0.14999999963E+04  0.15000000000E+04  0.10566000000E+00 0.  1.
        994   -1    0    0    0    0 -0.00000000000E+00 -0.00000000000E+00  0.11368683772E-12  0.17120000000E+03  0.17120000000E+03 0.  0.
         13    1    1    2    0    0 -0.13980494198E+02 -0.12446360282E+02  0.16679026406E+02  0.25071242255E+02  0.10566000000E+00 0.  1.
        994    1    1    2    0    0 -0.73142255525E+01 -0.93284451841E+01  0.94083794079E+01  0.17186761006E+03  0.17120000000E+03 0.  0.
        998    1    1    2    0    0  0.21294719750E+02  0.21774805466E+02  0.14739125905E+04  0.14742611477E+04  0.10000000000E+02 0.  1.
</event>
<event>
 5    1  0.1574792E-008  0.3840715E+03  0.7957747E-01  0.3433620E+00
         13   -1    0    0    0    0  0.00000000000E+00  0.00000000000E+00  0.14999999963E+04  0.15000000000E+04  0.10566000000E+00 0.  1.
        994   -1    0    0    0    0 -0.00000000000E+00 -0.00000000000E+00  0.11368683772E-12  0.17120000000E+03  0.17120000000E+03 0.  0.
         13    1    1    2    0    0  0.52763711563E+01 -0.10000776466E+02  0.29920163905E+02  0.31985668582E+02  0.10566000000E+00 0.  1.
        994    1    1    2    0    0 -0.70241911747E+01  0.57295209404E+01  0.23629102663E+01  0.17145608772E+03  0.17120000000E+03 0.  0.
        998    1    1    2    0    0  0.17478200183E+01  0.42712555253E+01  0.14677169221E+04  0.14677582437E+04  0.10000000000E+02 0.  1.
</event>
<event>
 5    1  0.1574792E-008  0.3810703E+03  0.7957747E-01  0.3446511E+00
         13   -1    0    0    0    0  0.00000000000E+00  0.00000000000E+00  0.14999999963E+04  0.15000000000E+04  0.10566000000E+00 0.  1.
        994   -1    0    0    0    0 -0.00000000000E+00 -0.00000000000E+00  0.11368683772E-12  0.17120000000E+03  0.17120000000E+03 0.  0.
         13    1    1    2    0    0 -0.11740627277E+02  0.12987671591E+02  0.43035548938E+02  0.46460645482E+02  0.10566000000E+00 0.  1.
        994    1    1    2    0    0  0.32619386458E+01  0.19579085381E+01  0.36420630775E+01  0.17128099215E+03  0.17120000000E+03 0.  0.
        998    1    1    2    0    0  0.84786886312E+01 -0.14945580129E+02  0.14533223843E+04  0.14534583624E+04  0.10000000000E+02 0.  1.
</event>
<event>
 5    1  0.1574792E-008  0.3764793E+03  0.7957747E-01  0.3466633E+00
         13   -1    0    0    0    0  0.00000000000E+00  0.00000000000E+00  0.14999999963E+04  0.15000000000E+04  0.10566000000E+00 0.  1.
        994   -1    0    0    0    0 -0.00000000000E+00 -0.00000000000E+00  0.11368683772E-12  0.17120000000E+03  0.17120000000E+03 0.  0.
         13    1    1    2    0    0 -0.90361242015E+02 -0.72937797640E+02  0.42883394866E+03  0.44427878981E+03  0.10566000000E+00 0.  1.
        994    1    1    2    0    0  0.77882261188E+02  0.30974948541E+02  0.39987526853E+02  0.19476533662E+03  0.17120000000E+03 0.  0.
        998    1    1    2    0    0  0.12478980827E+02  0.41962849099E+02  0.10311785208E+04  0.10321558736E+04  0.10000000000E+02 0.  1.
</event>
<event>
 5    1  0.1574792E-008  0.3840036E+03  0.7957747E-01  0.3433909E+00
         13   -1    0    0    0    0  0.00000000000E+00  0.00000000000E+00  0.14999999963E+04  0.15000000000E+04  0.10566000000E+00 0.  1.
        994   -1    0    0    0    0 -0.00000000000E+00 -0.00000000000E+00  0.11368683772E-12  0.17120000000E+03  0.17120000000E+03 0.  0.
         13    1    1    2    0    0  0.20182608954E+02  0.91162175568E+02  0.29052870610E+03  0.30516359578E+03  0.10566000000E+00 0.  1.
        994    1    1    2    0    0 -0.10420636587E+01 -0.10165850753E+02  0.18928409057E+02  0.17254609554E+03  0.17120000000E+03 0.  0.
        998    1    1    2    0    0 -0.19140545296E+02 -0.80996324815E+02  0.11905428811E+04  0.11934903087E+04  0.10000000000E+02 0.  1.
</event>
<event>
 5    1  0.1574792E-008  0.3853794E+03  0.7957747E-01  0.3428065E+00
         13   -1    0    0    0    0  0.00000000000E+00  0.00000000000E+00  0.14999999963E+04  0.15000000000E+04  0.10566000000E+00 0.  1.
        994   -1    0    0    0    0 -0.00000000000E+00 -0.00000000000E+00  0.11368683772E-12  0.17120000000E+03  0.17120000000E+03 0.  0.
         13    1    1    2    0    0 -0.70981135143E+01 -0.11221636868E+02  0.58662888382E+02  0.60146936637E+02  0.10566000000E+00 0.  1.
        994    1    1    2    0    0  0.11302662599E+02  0.11713459048E+02  0.23126425520E+01  0.17198762636E+03  0.17120000000E+03 0.  0.
        998    1    1    2    0    0 -0.42045490845E+01 -0.49182218046E+00  0.14390244653E+04  0.14390654370E+04  0.10000000000E+02 0.  1.
</event>
<event>
 5    1  0.1574792E-008  0.3995804E+03  0.7957747E-01  0.3370095E+00
         13   -1    0    0    0    0  0.00000000000E+00  0.00000000000E+00  0.14999999963E+04  0.15000000000E+04  0.10566000000E+00 0. -1.
        994   -1    0    0    0    0 -0.00000000000E+00 -0.00000000000E+00  0.11368683772E-12  0.17120000000E+03  0.17120000000E+03 0.  0.
         13    1    1    2    0    0  0.55351218754E+02 -0.31624594144E+01  0.44427743898E+02  0.71046422563E+02  0.10566000000E+00 0. -1.
        994    1    1    2    0    0 -0.57221845795E+02  0.22670303316E+01  0.40457494266E+02  0.18500196730E+03  0.17120000000E+03 0.  0.
        998    1    1    2    0    0  0.18706270416E+01  0.89542908280E+00  0.14151147581E+04  0.14151516101E+04  0.10000000000E+02 0. -1.
</event>
<event>
 5    1  0.1574792E-008  0.2716600E+03  0.7957747E-01  0.4121720E+00
         13   -1    0    0    0    0  0.00000000000E+00  0.00000000000E+00  0.14999999963E+04  0.15000000000E+04  0.10566000000E+00 0.  1.
        994   -1    0    0    0    0 -0.00000000000E+00 -0.00000000000E+00  0.11368683772E-12  0.17120000000E+03  0.17120000000E+03 0.  0.
         13    1    1    2    0    0 -0.54526092009E+02  0.12417650264E+03  0.64277257888E+03  0.65692427101E+03  0.10566000000E+00 0.  1.
        994    1    1    2    0    0  0.46770426480E+02 -0.81686501922E+01  0.31609744939E+02  0.18045169884E+03  0.17120000000E+03 0.  0.
        998    1    1    2    0    0  0.77556655287E+01 -0.11600785245E+03  0.82561767246E+03  0.83382403015E+03  0.10000000000E+02 0.  1.
</event>
<event>
 5    1  0.1574792E-008  0.3905950E+03  0.7957747E-01  0.3406284E+00
         13   -1    0    0    0    0  0.00000000000E+00  0.00000000000E+00  0.14999999963E+04  0.15000000000E+04  0.10566000000E+00 0. -1.
        994   -1    0    0    0    0 -0.00000000000E+00 -0.00000000000E+00  0.11368683772E-12  0.17120000000E+03  0.17120000000E+03 0.  0.
         13    1    1    2    0    0 -0.67532212568E+02  0.81791992012E+02  0.44025390557E+03  0.45285101548E+03  0.10566000000E+00 0. -1.
        994    1    1    2    0    0  0.16166916155E+02  0.45207293342E+02  0.31016434493E+02  0.18048968879E+03  0.17120000000E+03 0.  0.
        998    1    1    2    0    0  0.51365296413E+02 -0.12699928535E+03  0.10287296562E+04  0.10378592957E+04  0.10000000000E+02 0. -1.
</event>
<event>
 5    1  0.1574792E-008  0.3795507E+03  0.7957747E-01  0.3453117E+00
         13   -1    0    0    0    0  0.00000000000E+00  0.00000000000E+00  0.14999999963E+04  0.15000000000E+04  0.10566000000E+00 0. -1.
        994   -1    0    0    0    0 -0.00000000000E+00 -0.00000000000E+00  0.11368683772E-12  0.17120000000E+03  0.17120000000E+03 0.  0.
         13    1    1    2    0    0  0.24547065197E+02  0.24955328760E+02  0.11780824420E+03  0.12289882184E+03  0.10566000000E+00 0. -1.
        994    1    1    2    0    0 -0.65385694937E+02 -0.10067081706E+02  0.19154649843E+02  0.18453448417E+03  0.17120000000E+03 0.  0.
        998    1    1    2    0    0  0.40838629740E+02 -0.14888247053E+02  0.13630371022E+04  0.13637666940E+04  0.10000000000E+02 0. -1.
</event>
<event>
 5    1  0.1574792E-008  0.3823070E+03  0.7957747E-01  0.3441175E+00
         13   -1    0    0    0    0  0.00000000000E+00  0.00000000000E+00  0.14999999963E+04  0.15000000000E+04  0.10566000000E+00 0. -1.
        994   -1    0    0    0    0 -0.00000000000E+00 -0.00000000000E+00  0.11368683772E-12  0.17120000000E+03  0.17120000000E+03 0.  0.
         13    1    1    2    0    0  0.25780948109E+01  0.22770431364E+02  0.97767513500E+02  0.10041731413E+03  0.10566000000E+00 0. -1.
        994    1    1    2    0    0  0.58472462650E+01  0.38401023142E+01  0.31354803301E+01  0.17137154931E+03  0.17120000000E+03 0.  0.
        998    1    1    2    0    0 -0.84253410760E+01 -0.26610533678E+02  0.13990970024E+04  0.13994111366E+04  0.10000000000E+02 0. -1.
</event>
<event>
 5    1  0.1574792E-008  0.3725183E+03  0.7957747E-01  0.3484397E+00
         13   -1    0    0    0    0  0.00000000000E+00  0.00000000000E+00  0.14999999963E+04  0.15000000000E+04  0.10566000000E+00 0.  1.
        994   -1    0    0    0    0 -0.00000000000E+00 -0.00000000000E+00  0.11368683772E-12  0.17120000000E+03  0.17120000000E+03 0.  0.
         13    1    1    2    0    0 -0.65972257772E+02 -0.76033931776E+01  0.28525928739E+03  0.29288738892E+03  0.10566000000E+00 0.  1.
        994    1    1    2    0    0 -0.39616453476E+02 -0.92364918258E+01  0.18135939227E+02  0.17689863894E+03  0.17120000000E+03 0.  0.
        998    1    1    2    0    0  0.10558871125E+03  0.16839885003E+02  0.11966047697E+04  0.12014139721E+04  0.10000000000E+02 0.  1.
</event>
<event>
 5    1  0.1574792E-008  0.3862088E+03  0.7957747E-01  0.3424561E+00
         13   -1    0    0    0    0  0.00000000000E+00  0.00000000000E+00  0.14999999963E+04  0.15000000000E+04  0.10566000000E+00 0.  1.
        994   -1    0    0    0    0 -0.00000000000E+00 -0.00000000000E+00  0.11368683772E-12  0.17120000000E+03  0.17120000000E+03 0.  0.
         13    1    1    2    0    0  0.34678778688E-01 -0.11659053148E+02  0.67565937378E+02  0.68564581095E+02  0.10566000000E+00 0.  1.
        994    1    1    2    0    0 -0.86428126498E+01  0.66847582758E+01  0.14223255950E+01  0.17155421071E+03  0.17120000000E+03 0.  0.
        998    1    1    2    0    0  0.86081338711E+01  0.49742948723E+01  0.14310117333E+04  0.14310812082E+04  0.10000000000E+02 0.  1.
</event>
<event>
 5    1  0.1574792E-008  0.3820443E+03  0.7957747E-01  0.3442305E+00
         13   -1    0    0    0    0  0.00000000000E+00  0.00000000000E+00  0.14999999963E+04  0.15000000000E+04  0.10566000000E+00 0. -1.
        994   -1    0    0    0    0 -0.00000000000E+00 -0.00000000000E+00  0.11368683772E-12  0.17120000000E+03  0.17120000000E+03 0.  0.
         13    1    1    2    0    0 -0.16993214349E+02 -0.25997624020E+02  0.17320568208E+03  0.17596836437E+03  0.10566000000E+00 0. -1.
        994    1    1    2    0    0  0.20246942877E+01  0.31952382947E+01  0.31522557808E+01  0.17127079626E+03  0.17120000000E+03 0.  0.
        998    1    1    2    0    0  0.14968520061E+02  0.22802385725E+02  0.13236420584E+04  0.13239608394E+04  0.10000000000E+02 0. -1.
</event>
<event>
 5    1  0.1574792E-008  0.3702724E+03  0.7957747E-01  0.3494640E+00
         13   -1    0    0    0    0  0.00000000000E+00  0.00000000000E+00  0.14999999963E+04  0.15000000000E+04  0.10566000000E+00 0.  1.
        994   -1    0    0    0    0 -0.00000000000E+00 -0.00000000000E+00  0.11368683772E-12  0.17120000000E+03  0.17120000000E+03 0.  0.
         13    1    1    2    0    0 -0.29712602386E+02 -0.10300911263E+02  0.49101438482E+02  0.58308746672E+02  0.10566000000E+00 0.  1.
        994    1    1    2    0    0  0.28107776903E+02  0.15935925168E+02  0.12741703470E+02  0.17468769802E+03  0.17120000000E+03 0.  0.
        998    1    1    2    0    0  0.16048254826E+01 -0.56350139058E+01  0.14381568543E+04  0.14382035553E+04  0.10000000000E+02 0.  1.
</event>
<event>
 5    1  0.1574792E-008  0.3763412E+03  0.7957747E-01  0.3467246E+00
         13   -1    0    0    0    0  0.00000000000E+00  0.00000000000E+00  0.14999999963E+04  0.15000000000E+04  0.10566000000E+00 0.  1.
        994   -1    0    0    0    0 -0.00000000000E+00 -0.00000000000E+00  0.11368683772E-12  0.17120000000E+03  0.17120000000E+03 0.  0.
         13    1    1    2    0    0 -0.57711077260E+02  0.16403780711E+02  0.26950708928E+03  0.27610457221E+03  0.10566000000E+00 0.  1.
        994    1    1    2    0    0  0.45434298398E+02 -0.16461902520E+02  0.13935092879E+02  0.17843457210E+03  0.17120000000E+03 0.  0.
        998    1    1    2    0    0  0.12276778862E+02  0.58121808618E-01  0.12165578141E+04  0.12166608557E+04  0.10000000000E+02 0.  1.
</event>
<event>
 5    1  0.1574792E-008  0.3967498E+03  0.7957747E-01  0.3381319E+00
         13   -1    0    0    0    0  0.00000000000E+00  0.00000000000E+00  0.14999999963E+04  0.15000000000E+04  0.10566000000E+00 0. -1.
        994   -1    0    0    0    0 -0.00000000000E+00 -0.00000000000E+00  0.11368683772E-12  0.17120000000E+03  0.17120000000E+03 0.  0.
         13    1    1    2    0    0 -0.48435094970E+02  0.11497369382E+03  0.22475864138E+03  0.25706296259E+03  0.10566000000E+00 0. -1.
        994    1    1    2    0    0  0.79194987910E+02 -0.12116842696E+03  0.11233285935E+03  0.25076232790E+03  0.17120000000E+03 0.  0.
        998    1    1    2    0    0 -0.30759892940E+02  0.61947331408E+01  0.11629084955E+04  0.11633747095E+04  0.10000000000E+02 0. -1.
</event>
<event>
 5    1  0.1574792E-008  0.3815941E+03  0.7957747E-01  0.3444247E+00
         13   -1    0    0    0    0  0.00000000000E+00  0.00000000000E+00  0.14999999963E+04  0.15000000000E+04  0.10566000000E+00 0. -1.
        994   -1    0    0    0    0 -0.00000000000E+00 -0.00000000000E+00  0.11368683772E-12  0.17120000000E+03  0.17120000000E+03 0.  0.
         13    1    1    2    0    0  0.35559888843E+02 -0.22499902005E+02  0.23156641913E+03  0.23535880888E+03  0.10566000000E+00 0. -1.
        994    1    1    2    0    0 -0.33346061832E+02  0.21377035872E+02  0.85656035917E+01  0.17593108613E+03  0.17120000000E+03 0.  0.
        998    1    1    2    0    0 -0.22138270113E+01  0.11228661337E+01  0.12598679736E+04  0.12599101050E+04  0.10000000000E+02 0.  0.
</event>
<event>
 5    1  0.1574792E-008  0.3757246E+03  0.7957747E-01  0.3469988E+00
         13   -1    0    0    0    0  0.00000000000E+00  0.00000000000E+00  0.14999999963E+04  0.15000000000E+04  0.10566000000E+00 0. -1.
        994   -1    0    0    0    0 -0.00000000000E+00 -0.00000000000E+00  0.11368683772E-12  0.17120000000E+03  0.17120000000E+03 0.  0.
         13    1    1    2    0    0 -0.28684463656E+02  0.47985492415E+02  0.20742768126E+03  0.21482937428E+03  0.10566000000E+00 0. -1.
        994    1    1    2    0    0  0.30532705941E+02 -0.51527898957E+02  0.18570159273E+02  0.18232295884E+03  0.17120000000E+03 0.  0.
        998    1    1    2    0    0 -0.18482422851E+01  0.35424065421E+01  0.12740021557E+04  0.12740476669E+04  0.10000000000E+02 0.  0.
</event>
<event>
 5    1  0.1574792E-008  0.3781225E+03  0.7957747E-01  0.3459375E+00
         13   -1    0    0    0    0  0.00000000000E+00  0.00000000000E+00  0.14999999963E+04  0.15000000000E+04  0.10566000000E+00 0.  1.
        994   -1    0    0    0    0 -0.00000000000E+00 -0.00000000000E+00  0.11368683772E-12  0.17120000000E+03  0.17120000000E+03 0.  0.
         13    1    1    2    0    0  0.21567282676E+02  0.36767231049E+01  0.47503129693E+02  0.52299373509E+02  0.10566000000E+00 0.  1.
        994    1    1    2    0    0  0.72880789471E+00  0.58445714969E+00  0.50868716545E+01  0.17127810431E+03  0.17120000000E+03 0.  0.
        998    1    1    2    0    0 -0.22296090571E+02 -0.42611802546E+01  0.14474099949E+04  0.14476225222E+04  0.10000000000E+02 0.  1.
</event>
<event>
 5    1  0.1574792E-008  0.3779185E+03  0.7957747E-01  0.3460272E+00
         13   -1    0    0    0    0  0.00000000000E+00  0.00000000000E+00  0.14999999963E+04  0.15000000000E+04  0.10566000000E+00 0.  1.
        994   -1    0    0    0    0 -0.00000000000E+00 -0.00000000000E+00  0.11368683772E-12  0.17120000000E+03  0.17120000000E+03 0.  0.
         13    1    1    2    0    0  0.38600322757E+01  0.20436602274E+02  0.39865699944E+02  0.44964872487E+02  0.10566000000E+00 0.  1.
        994    1    1    2    0    0 -0.11295732204E+02 -0.10176589037E+02  0.59660518375E+01  0.17197729590E+03  0.17120000000E+03 0.  0.
        998    1    1    2    0    0  0.74356999288E+01 -0.10260013238E+02  0.14541682445E+04  0.14542578316E+04  0.10000000000E+02 0.  1.
</event>
<event>
 5    1  0.1574792E-008  0.3003340E+03  0.7957747E-01  0.3893637E+00
         13   -1    0    0    0    0  0.00000000000E+00  0.00000000000E+00  0.14999999963E+04  0.15000000000E+04  0.10566000000E+00 0. -1.
        994   -1    0    0    0    0 -0.00000000000E+00 -0.00000000000E+00  0.11368683772E-12  0.17120000000E+03  0.17120000000E+03 0.  0.
         13    1    1    2    0    0 -0.14521987224E+03  0.93088650551E+02  0.98010719614E+03  0.99517055585E+03  0.10566000000E+00 0. -1.
        994    1    1    2    0    0  0.73320914166E+02  0.48380578253E+02  0.80194775195E+02  0.20846409469E+03  0.17120000000E+03 0.  0.
        998    1    1    2    0    0  0.71898958074E+02 -0.14146922880E+03  0.43969802495E+03  0.46756534946E+03  0.10000000000E+02 0. -1.
</event>
<event>
 5    1  0.1574792E-008  0.3782317E+03  0.7957747E-01  0.3458894E+00
         13   -1    0    0    0    0  0.00000000000E+00  0.00000000000E+00  0.14999999963E+04  0.15000000000E+04  0.10566000000E+00 0. -1.
        994   -1    0    0    0    0 -0.00000000000E+00 -0.00000000000E+00  0.11368683772E-12  0.17120000000E+03  0.17120000000E+03 0.  0.
         13    1    1    2    0    0 -0.13990184818E+02  0.38316504403E+02  0.22328753016E+03  0.22698284532E+03  0.10566000000E+00 0. -1.
        994    1    1    2    0    0 -0.92438741159E+01  0.14895153569E+02  0.60624740214E+01  0.17220194075E+03  0.17120000000E+03 0.  0.
        998    1    1    2    0    0  0.23234058934E+02 -0.53211657971E+02  0.12706499921E+04  0.12720152139E+04  0.10000000000E+02 0. -1.
</event>
<event>
 5    1  0.1574792E-008  0.3692563E+03  0.7957747E-01  0.3499316E+00
         13   -1    0    0    0    0  0.00000000000E+00  0.00000000000E+00  0.14999999963E+04  0.15000000000E+04  0.10566000000E+00 0.  1.
        994   -1    0    0    0    0 -0.00000000000E+00 -0.00000000000E+00  0.11368683772E-12  0.17120000000E+03  0.17120000000E+03 0.  0.
         13    1    1    2    0    0 -0.64161537253E+01 -0.17216409436E+02  0.11160482810E+02  0.21497425964E+02  0.10566000000E+00 0.  1.
        994    1    1    2    0    0  0.70560979322E+01  0.19285420277E+02  0.12017941330E+02  0.17284555785E+03  0.17120000000E+03 0.  0.
        998    1    1    2    0    0 -0.63994420682E+00 -0.20690108409E+01  0.14768215721E+04  0.14768570162E+04  0.10000000000E+02 0.  1.
</event>
<event>
 5    1  0.1574792E-008  0.3850780E+03  0.7957747E-01  0.3429342E+00
         13   -1    0    0    0    0  0.00000000000E+00  0.00000000000E+00  0.14999999963E+04  0.15000000000E+04  0.10566000000E+00 0.  1.
        994   -1    0    0    0    0 -0.00000000000E+00 -0.00000000000E+00  0.11368683772E-12  0.17120000000E+03  0.17120000000E+03 0.  0.
         13    1    1    2    0    0  0.13818925442E+02  0.55954753583E+01  0.56829552244E+02  0.58752712424E+02  0.10566000000E+00 0.  1.
        994    1    1    2    0    0 -0.36419071151E+02 -0.31878855907E+02  0.93317629389E+01  0.17815479785E+03  0.17120000000E+03 0.  0.
        998    1    1    2    0    0  0.22600145709E+02  0.26283380548E+02  0.14338386811E+04  0.14342924897E+04  0.10000000000E+02 0.  1.
</event>
<event>
 5    1  0.1574792E-008  0.3782795E+03  0.7957747E-01  0.3458684E+00
         13   -1    0    0    0    0  0.00000000000E+00  0.00000000000E+00  0.14999999963E+04  0.15000000000E+04  0.10566000000E+00 0. -1.
        994   -1    0    0    0    0 -0.00000000000E+00 -0.00000000000E+00  0.11368683772E-12  0.17120000000E+03  0.17120000000E+03 0.  0.
         13    1    1    2    0    0  0.19776738495E+02 -0.11884775282E+02  0.13777706515E+02  0.26873846578E+02  0.10566000000E+00 0. -1.
        994    1    1    2    0    0  0.77131674456E+02 -0.87024200289E+02  0.65846054098E+02  0.21718114439E+03  0.17120000000E+03 0.  0.
        998    1    1    2    0    0 -0.96908412952E+02  0.98908975571E+02  0.14203762357E+04  0.14271450090E+04  0.10000000000E+02 0. -1.
</event>
<event>
 5    1  0.1574792E-008  0.3784805E+03  0.7957747E-01  0.3457801E+00
         13   -1    0    0    0    0  0.00000000000E+00  0.00000000000E+00  0.14999999963E+04  0.15000000000E+04  0.10566000000E+00 0. -1.
        994   -1    0    0    0    0 -0.00000000000E+00 -0.00000000000E+00  0.11368683772E-12  0.17120000000E+03  0.17120000000E+03 0.  0.
         13    1    1    2    0    0  0.25211146162E+01 -0.41128588897E+02  0.15038204899E+03  0.15592526628E+03  0.10566000000E+00 0. -1.
        994    1    1    2    0    0  0.41702898878E+01  0.47291313570E+02  0.12512241432E+02  0.17810069018E+03  0.17120000000E+03 0.  0.
        998    1    1    2    0    0 -0.66914045041E+01 -0.61627246736E+01  0.13371057059E+04  0.13371740435E+04  0.10000000000E+02 0. -1.
</event>
<event>
 5    1  0.1574792E-008  0.3823437E+03  0.7957747E-01  0.3441017E+00
         13   -1    0    0    0    0  0.00000000000E+00  0.00000000000E+00  0.14999999963E+04  0.15000000000E+04  0.10566000000E+00 0.  1.
        994   -1    0    0    0    0 -0.00000000000E+00 -0.00000000000E+00  0.11368683772E-12  0.17120000000E+03  0.17120000000E+03 0.  0.
         13    1    1    2    0    0 -0.17867432692E+02 -0.11878027436E+02  0.77782463436E+02  0.80687393495E+02  0.10566000000E+00 0.  1.
        994    1    1    2    0    0  0.98729387414E+01  0.60310518652E+01  0.33988623112E+01  0.17162412642E+03  0.17120000000E+03 0.  0.
        998    1    1    2    0    0  0.79944939504E+01  0.58469755711E+01  0.14188186705E+04  0.14188884801E+04  0.10000000000E+02 0.  1.
</event>
<event>
 5    1  0.1574792E-008  0.3776630E+03  0.7957747E-01  0.3461398E+00
         13   -1    0    0    0    0  0.00000000000E+00  0.00000000000E+00  0.14999999963E+04  0.15000000000E+04  0.10566000000E+00 0. -1.
        994   -1    0    0    0    0 -0.00000000000E+00 -0.00000000000E+00  0.11368683772E-12  0.17120000000E+03  0.17120000000E+03 0.  0.
         13    1    1    2    0    0  0.86463472054E+01  0.21651861613E+02  0.53101243769E+02  0.57994100434E+02  0.10566000000E+00 0. -1.
        994    1    1    2    0    0  0.40976906532E+00  0.77459256620E+01  0.55202554228E+01  0.17146451672E+03  0.17120000000E+03 0.  0.
        998    1    1    2    0    0 -0.90561162707E+01 -0.29397787275E+02  0.14413784971E+04  0.14417413828E+04  0.10000000000E+02 0. -1.
</event>
<event>
 5    1  0.1574792E-008  0.3843000E+03  0.7957747E-01  0.3432646E+00
         13   -1    0    0    0    0  0.00000000000E+00  0.00000000000E+00  0.14999999963E+04  0.15000000000E+04  0.10566000000E+00 0.  1.
        994   -1    0    0    0    0 -0.00000000000E+00 -0.00000000000E+00  0.11368683772E-12  0.17120000000E+03  0.17120000000E+03 0.  0.
         13    1    1    2    0    0  0.14334340472E+02  0.88770104388E+01  0.76189351449E+02  0.78032705127E+02  0.10566000000E+00 0.  1.
        994    1    1    2    0    0 -0.13074789865E+02  0.18080479237E+02  0.36207867753E+01  0.17268585338E+03  0.17120000000E+03 0.  0.
        998    1    1    2    0    0 -0.12595506077E+01 -0.26957489676E+02  0.14201898581E+04  0.14204814415E+04  0.10000000000E+02 0.  1.
</event>
<event>
 5    1  0.1574792E-008  0.3782909E+03  0.7957747E-01  0.3458634E+00
         13   -1    0    0    0    0  0.00000000000E+00  0.00000000000E+00  0.14999999963E+04  0.15000000000E+04  0.10566000000E+00 0.  1.
        994   -1    0    0    0    0 -0.00000000000E+00 -0.00000000000E+00  0.11368683772E-12  0.17120000000E+03  0.17120000000E+03 0.  0.
         13    1    1    2    0    0  0.31800596219E+02 -0.10763548875E+03  0.34226549775E+03  0.36019766583E+03  0.10566000000E+00 0.  1.
        994    1    1    2    0    0 -0.18327857067E+02  0.93731631795E+02  0.49020461410E+02  0.20207418138E+03  0.17120000000E+03 0.  0.
        998    1    1    2    0    0 -0.13472739152E+02  0.13903856952E+02  0.11087140371E+04  0.11089281528E+04  0.10000000000E+02 0.  1.
</event>
<event>
 5    1  0.1574792E-008  0.3845244E+03  0.7957747E-01  0.3431692E+00
         13   -1    0    0    0    0  0.00000000000E+00  0.00000000000E+00  0.14999999963E+04  0.15000000000E+04  0.10566000000E+00 0. -1.
        994   -1    0    0    0    0 -0.00000000000E+00 -0.00000000000E+00  0.11368683772E-12  0.17120000000E+03  0.17120000000E+03 0.  0.
         13    1    1    2    0    0  0.92879407688E+01 -0.15398724605E+02  0.87783776781E+02  0.89606859074E+02  0.10566000000E+00 0. -1.
        994    1    1    2    0    0 -0.18201427790E+02  0.25091863506E+00  0.29585913683E+01  0.17219044165E+03  0.17120000000E+03 0.  0.
        998    1    1    2    0    0  0.89134870208E+01  0.15147805970E+02  0.14092576281E+04  0.14094026993E+04  0.10000000000E+02 0. -1.
</event>
<event>
 5    1  0.1574792E-008  0.3822609E+03  0.7957747E-01  0.3441373E+00
         13   -1    0    0    0    0  0.00000000000E+00  0.00000000000E+00  0.14999999963E+04  0.15000000000E+04  0.10566000000E+00 0. -1.
        994   -1    0    0    0    0 -0.00000000000E+00 -0.00000000000E+00  0.11368683772E-12  0.17120000000E+03  0.17120000000E+03 0.  0.
         13    1    1    2    0    0 -0.10986011379E+02 -0.39819695265E+01  0.22732758380E+02  0.25560477205E+02  0.10566000000E+00 0. -1.
        994    1    1    2    0    0 -0.67706584956E+01 -0.42965781214E+01  0.32095684839E+01  0.17141774625E+03  0.17120000000E+03 0.  0.
        998    1    1    2    0    0  0.17756669875E+02  0.82785476478E+01  0.14740576694E+04  0.14742217765E+04  0.10000000000E+02 0. -1.
</event>
<event>
 5    1  0.1574792E-008  0.3828404E+03  0.7957747E-01  0.3438883E+00
         13   -1    0    0    0    0  0.00000000000E+00  0.00000000000E+00  0.14999999963E+04  0.15000000000E+04  0.10566000000E+00 0.  1.
        994   -1    0    0    0    0 -0.00000000000E+00 -0.00000000000E+00  0.11368683772E-12  0.17120000000E+03  0.17120000000E+03 0.  0.
         13    1    1    2    0    0 -0.96340007533E+01 -0.15823635106E+02  0.60597160999E+02  0.63365830569E+02  0.10566000000E+00 0.  1.
        994    1    1    2    0    0  0.70652144470E+01  0.17600262907E+02  0.38982842612E+01  0.17229139018E+03  0.17120000000E+03 0.  0.
        998    1    1    2    0    0  0.25687863063E+01 -0.17766278016E+01  0.14355045510E+04  0.14355427793E+04  0.10000000000E+02 0.  1.
</event>
<event>
 5    1  0.1574792E-008  0.3761613E+03  0.7957747E-01  0.3468045E+00
         13   -1    0    0    0    0  0.00000000000E+00  0.00000000000E+00  0.14999999963E+04  0.15000000000E+04  0.10566000000E+00 0. -1.
        994   -1    0    0    0    0 -0.00000000000E+00 -0.00000000000E+00  0.11368683772E-12  0.17120000000E+03  0.17120000000E+03 0.  0.
         13    1    1    2    0    0  0.24099786715E+02 -0.53896502522E+01  0.46288642614E+02  0.52464251149E+02  0.10566000000E+00 0. -1.
        994    1    1    2    0    0 -0.25503058917E+02  0.52116420165E+01  0.83811624382E+01  0.17337027170E+03  0.17120000000E+03 0.  0.
        998    1    1    2    0    0  0.14032722017E+01  0.17800823572E+00  0.14453301912E+04  0.14453654771E+04  0.10000000000E+02 0. -1.
</event>
<event>
 5    1  0.1574792E-008  0.3774814E+03  0.7957747E-01  0.3462199E+00
         13   -1    0    0    0    0  0.00000000000E+00  0.00000000000E+00  0.14999999963E+04  0.15000000000E+04  0.10566000000E+00 0.  1.
        994   -1    0    0    0    0 -0.00000000000E+00 -0.00000000000E+00  0.11368683772E-12  0.17120000000E+03  0.17120000000E+03 0.  0.
         13    1    1    2    0    0 -0.20724399082E+02  0.49253213720E+02  0.22959545565E+03  0.23573176324E+03  0.10566000000E+00 0.  1.
        994    1    1    2    0    0  0.12123005059E+02 -0.48889227828E+02  0.14010807972E+02  0.17900521386E+03  0.17120000000E+03 0.  0.
        998    1    1    2    0    0  0.86013940236E+01 -0.36398589203E+00  0.12563937327E+04  0.12564630229E+04  0.10000000000E+02 0.  1.
</event>
<event>
 5    1  0.1574792E-008  0.3855015E+03  0.7957747E-01  0.3427548E+00
         13   -1    0    0    0    0  0.00000000000E+00  0.00000000000E+00  0.14999999963E+04  0.15000000000E+04  0.10566000000E+00 0. -1.
        994   -1    0    0    0    0 -0.00000000000E+00 -0.00000000000E+00  0.11368683772E-12  0.17120000000E+03  0.17120000000E+03 0.  0.
         13    1    1    2    0    0 -0.21276332885E+00 -0.14147754904E+02  0.76401815364E+02  0.77701047560E+02  0.10566000000E+00 0. -1.
        994    1    1    2    0    0  0.36844681852E+01  0.28917238760E+01  0.14533907136E+01  0.17127022426E+03  0.17120000000E+03 0.  0.
        998    1    1    2    0    0 -0.34717048563E+01  0.11256031028E+02  0.14221447902E+04  0.14222287282E+04  0.10000000000E+02 0. -1.
</event>
<event>
 5    1  0.1574792E-008  0.3844600E+03  0.7957747E-01  0.3431966E+00
         13   -1    0    0    0    0  0.00000000000E+00  0.00000000000E+00  0.14999999963E+04  0.15000000000E+04  0.10566000000E+00 0.  1.
        994   -1    0    0    0    0 -0.00000000000E+00 -0.00000000000E+00  0.11368683772E-12  0.17120000000E+03  0.17120000000E+03 0.  0.
         13    1    1    2    0    0  0.73531421627E+01  0.10162049050E+02  0.40763495540E+02  0.42649849627E+02  0.10566000000E+00 0.  1.
        994    1    1    2    0    0 -0.74609236001E+01 -0.71193105719E+01  0.22489124172E+01  0.17152506397E+03  0.17120000000E+03 0.  0.
        998    1    1    2    0    0  0.10778143739E+00 -0.30427384779E+01  0.14569875883E+04  0.14570250864E+04  0.10000000000E+02 0.  1.
</event>
<event>
 5    1  0.1574792E-008  0.3794906E+03  0.7957747E-01  0.3453380E+00
         13   -1    0    0    0    0  0.00000000000E+00  0.00000000000E+00  0.14999999963E+04  0.15000000000E+04  0.10566000000E+00 0. -1.
        994   -1    0    0    0    0 -0.00000000000E+00 -0.00000000000E+00  0.11368683772E-12  0.17120000000E+03  0.17120000000E+03 0.  0.
         13    1    1    2    0    0 -0.93915579113E+01 -0.84877669504E+01  0.16231799309E+02  0.20584606400E+02  0.10566000000E+00 0. -1.
        994    1    1    2    0    0  0.96914775771E+01  0.77057004656E+01  0.49040363844E+01  0.17171718647E+03  0.17120000000E+03 0.  0.
        998    1    1    2    0    0 -0.29991966586E+00  0.78206648477E+00  0.14788641606E+04  0.14788982071E+04  0.10000000000E+02 0. -1.
</event>
<event>
 5    1  0.1574792E-008  0.3802709E+03  0.7957747E-01  0.3449980E+00
         13   -1    0    0    0    0  0.00000000000E+00  0.00000000000E+00  0.14999999963E+04  0.15000000000E+04  0.10566000000E+00 0. -1.
        994   -1    0    0    0    0 -0.00000000000E+00 -0.00000000000E+00  0.11368683772E-12  0.17120000000E+03  0.17120000000E+03 0.  0.
         13    1    1    2    0    0 -0.17200558690E+02 -0.12651694337E+01  0.34948433064E+02  0.38972605900E+02  0.10566000000E+00 0. -1.
        994    1    1    2    0    0  0.17858337423E+02  0.10187101400E+00  0.50623906290E+01  0.17220336348E+03  0.17120000000E+03 0.  0.
        998    1    1    2    0    0 -0.65777873322E+00  0.11632984197E+01  0.14599891726E+04  0.14600240306E+04  0.10000000000E+02 0. -1.
</event>
<event>
 5    1  0.1574792E-008  0.3854256E+03  0.7957747E-01  0.3427869E+00
         13   -1    0    0    0    0  0.00000000000E+00  0.00000000000E+00  0.14999999963E+04  0.15000000000E+04  0.10566000000E+00 0.  1.
        994   -1    0    0    0    0 -0.00000000000E+00 -0.00000000000E+00  0.11368683772E-12  0.17120000000E+03  0.17120000000E+03 0.  0.
         13    1    1    2    0    0 -0.92709206116E+01 -0.69570125058E+01  0.47045719917E+02  0.48452666784E+02  0.10566000000E+00 0.  1.
        994    1    1    2    0    0  0.74257866581E+01  0.58142391163E+01  0.17111373585E+01  0.17146811854E+03  0.17120000000E+03 0.  0.
        998    1    1    2    0    0  0.18451339535E+01  0.11427733896E+01  0.14512431390E+04  0.14512792147E+04  0.10000000000E+02 0.  1.
</event>
<event>
 5    1  0.1574792E-008  0.3811455E+03  0.7957747E-01  0.3446186E+00
         13   -1    0    0    0    0  0.00000000000E+00  0.00000000000E+00  0.14999999963E+04  0.15000000000E+04  0.10566000000E+00 0.  1.
        994   -1    0    0    0    0 -0.00000000000E+00 -0.00000000000E+00  0.11368683772E-12  0.17120000000E+03  0.17120000000E+03 0.  0.
         13    1    1    2    0    0 -0.38114810865E+02  0.56170603740E+01  0.20106546360E+03  0.20472328151E+03  0.10566000000E+00 0.  1.
        994    1    1    2    0    0  0.25419413883E+02 -0.77915242071E+01  0.59136404837E+01  0.17335300861E+03  0.17120000000E+03 0.  0.
        998    1    1    2    0    0  0.12695396982E+02  0.21744638331E+01  0.12930208922E+04  0.12931237099E+04  0.10000000000E+02 0.  1.
</event>
<event>
 5    1  0.2190209E-008  0.3857983E+03  0.7957747E-01  0.3426294E+00
         13   -1    0    0    0    0  0.00000000000E+00  0.00000000000E+00  0.14999999963E+04  0.15000000000E+04  0.10566000000E+00 0.  1.
        994   -1    0    0    0    0 -0.00000000000E+00 -0.00000000000E+00  0.11368683772E-12  0.17120000000E+03  0.17120000000E+03 0.  0.
         13    1    1    2    0    0 -0.14969554782E+02  0.17962730269E+01  0.88186285207E+02  0.89465894227E+02  0.10566000000E+00 0.  1.
        994    1    1    2    0    0  0.16072332256E+02  0.61599540115E-01  0.20821284712E+01  0.17196540035E+03  0.17120000000E+03 0.  0.
        998    1    1    2    0    0 -0.11027774736E+01 -0.18578725670E+01  0.14097315826E+04  0.14097687054E+04  0.10000000000E+02 0.  1.
</event>
<event>
 5    1  0.1574792E-008  0.3811697E+03  0.7957747E-01  0.3446081E+00
         13   -1    0    0    0    0  0.00000000000E+00  0.00000000000E+00  0.14999999963E+04  0.15000000000E+04  0.10566000000E+00 0.  1.
        994   -1    0    0    0    0 -0.00000000000E+00 -0.00000000000E+00  0.11368683772E-12  0.17120000000E+03  0.17120000000E+03 0.  0.
         13    1    1    2    0    0 -0.61580445473E+01 -0.96002949599E+01  0.16798410039E+02  0.20304800413E+02  0.10566000000E+00 0.  1.
        994    1    1    2    0    0  0.59698184614E+01  0.79846130457E+01  0.38748884165E+01  0.17153380873E+03  0.17120000000E+03 0.  0.
        998    1    1    2    0    0  0.18822608593E+00  0.16156819142E+01  0.14793266978E+04  0.14793613909E+04  0.10000000000E+02 0.  1.
</event>
<event>
 5    1  0.1574792E-008  0.3726901E+03  0.7957747E-01  0.3483618E+00
         13   -1    0    0    0    0  0.00000000000E+00  0.00000000000E+00  0.14999999963E+04  0.15000000000E+04  0.10566000000E+00 0.  1.
        994   -1    0    0    0    0 -0.00000000000E+00 -0.00000000000E+00  0.11368683772E-12  0.17120000000E+03  0.17120000000E+03 0.  0.
         13    1    1    2    0    0  0.18986395975E+02 -0.16423169697E+02  0.40652412426E+02  0.47779007264E+02  0.10566000000E+00 0.  1.
        994    1    1    2    0    0 -0.35013466138E+01 -0.32009806263E+02  0.11430240966E+02  0.17457656639E+03  0.17120000000E+03 0.  0.
        998    1    1    2    0    0 -0.15485049362E+02  0.48432975960E+02  0.14479173429E+04  0.14488444263E+04  0.10000000000E+02 0.  1.
</event>
<event>
 5    1  0.1574792E-008  0.3856760E+03  0.7957747E-01  0.3426810E+00
         13   -1    0    0    0    0  0.00000000000E+00  0.00000000000E+00  0.14999999963E+04  0.15000000000E+04  0.10566000000E+00 0.  1.
        994   -1    0    0    0    0 -0.00000000000E+00 -0.00000000000E+00  0.11368683772E-12  0.17120000000E+03  0.17120000000E+03 0.  0.
         13    1    1    2    0    0 -0.11334384910E+02 -0.10149859751E+02  0.91798236558E+02  0.93050606303E+02  0.10566000000E+00 0.  1.
        994    1    1    2    0    0  0.14188617642E+01  0.97904658648E+01  0.16161078676E+01  0.17149320160E+03  0.17120000000E+03 0.  0.
        998    1    1    2    0    0  0.99155231456E+01  0.35939388588E+00  0.14065856519E+04  0.14066561921E+04  0.10000000000E+02 0.  1.
</event>
<event>
 5    1  0.1574792E-008  0.3787576E+03  0.7957747E-01  0.3456586E+00
         13   -1    0    0    0    0  0.00000000000E+00  0.00000000000E+00  0.14999999963E+04  0.15000000000E+04  0.10566000000E+00 0.  1.
        994   -1    0    0    0    0 -0.00000000000E+00 -0.00000000000E+00  0.11368683772E-12  0.17120000000E+03  0.17120000000E+03 0.  0.
         13    1    1    2    0    0  0.62703517736E+02  0.43586966470E+02  0.42990715947E+03  0.43663684190E+03  0.10566000000E+00 0.  1.
        994    1    1    2    0    0 -0.61853798388E+02 -0.46490177046E+02  0.25129103801E+02  0.18954719938E+03  0.17120000000E+03 0.  0.
        998    1    1    2    0    0 -0.84971934784E+00  0.29032105763E+01  0.10449637330E+04  0.10450159587E+04  0.10000000000E+02 0.  1.
</event>
<event>
 5    1  0.1574792E-008  0.3764841E+03  0.7957747E-01  0.3466612E+00
         13   -1    0    0    0    0  0.00000000000E+00  0.00000000000E+00  0.14999999963E+04  0.15000000000E+04  0.10566000000E+00 0. -1.
        994   -1    0    0    0    0 -0.00000000000E+00 -0.00000000000E+00  0.11368683772E-12  0.17120000000E+03  0.17120000000E+03 0.  0.
         13    1    1    2    0    0  0.10140016224E+02 -0.57654447652E+00  0.60909480748E+01  0.11843274253E+02  0.10566000000E+00 0. -1.
        994    1    1    2    0    0 -0.89510129076E+00 -0.55374797633E+01  0.60250080308E+01  0.17139779932E+03  0.17120000000E+03 0.  0.
        998    1    1    2    0    0 -0.92449149331E+01  0.61140242398E+01  0.14878840402E+04  0.14879589264E+04  0.10000000000E+02 0. -1.
</event>
<event>
 5    1  0.1574792E-008  0.3768236E+03  0.7957747E-01  0.3465107E+00
         13   -1    0    0    0    0  0.00000000000E+00  0.00000000000E+00  0.14999999963E+04  0.15000000000E+04  0.10566000000E+00 0. -1.
        994   -1    0    0    0    0 -0.00000000000E+00 -0.00000000000E+00  0.11368683772E-12  0.17120000000E+03  0.17120000000E+03 0.  0.
         13    1    1    2    0    0  0.17385060688E+02  0.66110491668E+02  0.34760506882E+03  0.35426280143E+03  0.10566000000E+00 0. -1.
        994    1    1    2    0    0 -0.19420674044E+02 -0.53406306692E+02  0.16734445847E+02  0.18115981302E+03  0.17120000000E+03 0.  0.
        998    1    1    2    0    0  0.20356133557E+01 -0.12704184975E+02  0.11356604816E+04  0.11357773856E+04  0.10000000000E+02 0. -1.
</event>
<event>
 5    1  0.1574792E-008  0.3792532E+03  0.7957747E-01  0.3454417E+00
         13   -1    0    0    0    0  0.00000000000E+00  0.00000000000E+00  0.14999999963E+04  0.15000000000E+04  0.10566000000E+00 0.  1.
        994   -1    0    0    0    0 -0.00000000000E+00 -0.00000000000E+00  0.11368683772E-12  0.17120000000E+03  0.17120000000E+03 0.  0.
         13    1    1    2    0    0  0.70690832993E+02 -0.76610138548E+02  0.38253372769E+03  0.39648249795E+03  0.10566000000E+00 0.  1.
        994    1    1    2    0    0 -0.15991552999E+03  0.10958338133E+03  0.14293120508E+03  0.29550002298E+03  0.17120000000E+03 0.  0.
        998    1    1    2    0    0  0.89224697002E+02 -0.32973242786E+02  0.97453506351E+03  0.97921747906E+03  0.10000000000E+02 0.  1.
</event>
<event>
 5    1  0.1574792E-008  0.3857271E+03  0.7957747E-01  0.3426595E+00
         13   -1    0    0    0    0  0.00000000000E+00  0.00000000000E+00  0.14999999963E+04  0.15000000000E+04  0.10566000000E+00 0. -1.
        994   -1    0    0    0    0 -0.00000000000E+00 -0.00000000000E+00  0.11368683772E-12  0.17120000000E+03  0.17120000000E+03 0.  0.
         13    1    1    2    0    0  0.10018017720E+02 -0.63076059972E+01  0.54585734281E+02  0.55854812895E+02  0.10566000000E+00 0. -1.
        994    1    1    2    0    0 -0.98012354135E+01  0.47018289500E+01  0.16574016096E+01  0.17155278602E+03  0.17120000000E+03 0.  0.
        998    1    1    2    0    0 -0.21678230697E+00  0.16057770472E+01  0.14437568604E+04  0.14437924011E+04  0.10000000000E+02 0.  0.
</event>
<event>
 5    1  0.1574792E-008  0.3833382E+03  0.7957747E-01  0.3436751E+00
         13   -1    0    0    0    0  0.00000000000E+00  0.00000000000E+00  0.14999999963E+04  0.15000000000E+04  0.10566000000E+00 0.  1.
        994   -1    0    0    0    0 -0.00000000000E+00 -0.00000000000E+00  0.11368683772E-12  0.17120000000E+03  0.17120000000E+03 0.  0.
         13    1    1    2    0    0 -0.56254575379E+01  0.11228304131E+02  0.33724612229E+02  0.35987236907E+02  0.10566000000E+00 0.  1.
        994    1    1    2    0    0 -0.14290969140E+02  0.43695580790E+01  0.31961916756E+01  0.17188071584E+03  0.17120000000E+03 0.  0.
        998    1    1    2    0    0  0.19916426678E+02 -0.15597862210E+02  0.14630791924E+04  0.14633320473E+04  0.10000000000E+02 0.  1.
</event>
<event>
 5    1  0.2502506E-008  0.3860307E+03  0.7957747E-01  0.3425313E+00
         13   -1    0    0    0    0  0.00000000000E+00  0.00000000000E+00  0.14999999963E+04  0.15000000000E+04  0.10566000000E+00 0.  1.
        994   -1    0    0    0    0 -0.00000000000E+00 -0.00000000000E+00  0.11368683772E-12  0.17120000000E+03  0.17120000000E+03 0.  0.
         13    1    1    2    0    0  0.11567832453E+02 -0.52327425889E+01  0.71128792852E+02  0.72253115360E+02  0.10566000000E+00 0.  1.
        994    1    1    2    0    0 -0.93448156073E+01  0.72201180855E+01  0.15765112182E+01  0.17161404684E+03  0.17120000000E+03 0.  0.
        998    1    1    2    0    0 -0.22230168455E+01 -0.19873754966E+01  0.14272946922E+04  0.14273328378E+04  0.10000000000E+02 0.  1.
</event>
<event>
 5    1  0.1574792E-008  0.3609466E+03  0.7957747E-01  0.3538562E+00
         13   -1    0    0    0    0  0.00000000000E+00  0.00000000000E+00  0.14999999963E+04  0.15000000000E+04  0.10566000000E+00 0.  1.
        994   -1    0    0    0    0 -0.00000000000E+00 -0.00000000000E+00  0.11368683772E-12  0.17120000000E+03  0.17120000000E+03 0.  0.
         13    1    1    2    0    0 -0.21122602076E+03 -0.76439546137E+00  0.12551400452E+04  0.12727896764E+04  0.10566000000E+00 0.  1.
        994    1    1    2    0    0  0.16815382736E+03  0.34677558972E+02  0.14082647728E+03  0.28039218865E+03  0.17120000000E+03 0.  0.
        998    1    1    2    0    0  0.43072193403E+02 -0.33913163511E+02  0.10403347379E+03  0.11801813493E+03  0.10000000000E+02 0. -1.
</event>
<event>
 5    1  0.2469096E-008  0.3853535E+03  0.7957747E-01  0.3428174E+00
         13   -1    0    0    0    0  0.00000000000E+00  0.00000000000E+00  0.14999999963E+04  0.15000000000E+04  0.10566000000E+00 0.  1.
        994   -1    0    0    0    0 -0.00000000000E+00 -0.00000000000E+00  0.11368683772E-12  0.17120000000E+03  0.17120000000E+03 0.  0.
         13    1    1    2    0    0  0.14138373079E+02  0.34341216679E+01  0.69476171399E+02  0.70983352564E+02  0.10566000000E+00 0.  1.
        994    1    1    2    0    0 -0.16234137983E+02 -0.45132249969E+01  0.23879022533E+01  0.17204376918E+03  0.17120000000E+03 0.  0.
        998    1    1    2    0    0  0.20957649047E+01  0.10791033290E+01  0.14281359226E+04  0.14281728783E+04  0.10000000000E+02 0.  1.
</event>
<event>
 5    1  0.1574792E-008  0.3827909E+03  0.7957747E-01  0.3439096E+00
         13   -1    0    0    0    0  0.00000000000E+00  0.00000000000E+00  0.14999999963E+04  0.15000000000E+04  0.10566000000E+00 0. -1.
        994   -1    0    0    0    0 -0.00000000000E+00 -0.00000000000E+00  0.11368683772E-12  0.17120000000E+03  0.17120000000E+03 0.  0.
         13    1    1    2    0    0  0.37118905820E+00  0.29693347301E+02  0.16310628492E+03  0.16578752668E+03  0.10566000000E+00 0. -1.
        994    1    1    2    0    0  0.64794032271E+01 -0.15826871723E+02  0.37002987055E+01  0.17209184973E+03  0.17120000000E+03 0.  0.
        998    1    1    2    0    0 -0.68505922853E+01 -0.13866475578E+02  0.13331934126E+04  0.13333206236E+04  0.10000000000E+02 0. -1.
</event>
<event>
 5    1  0.1574792E-008  0.3807742E+03  0.7957747E-01  0.3447794E+00
         13   -1    0    0    0    0  0.00000000000E+00  0.00000000000E+00  0.14999999963E+04  0.15000000000E+04  0.10566000000E+00 0.  1.
        994   -1    0    0    0    0 -0.00000000000E+00 -0.00000000000E+00  0.11368683772E-12  0.17120000000E+03  0.17120000000E+03 0.  0.
         13    1    1    2    0    0 -0.18723226599E+02  0.71989091084E+01  0.54690768325E+02  0.58253539040E+02  0.10566000000E+00 0.  1.
        994    1    1    2    0    0  0.86221435844E+01  0.15065945721E+02  0.47482106878E+01  0.17214328214E+03  0.17120000000E+03 0.  0.
        998    1    1    2    0    0  0.10101083015E+02 -0.22264854829E+02  0.14405610173E+04  0.14408031788E+04  0.10000000000E+02 0.  1.
</event>
<event>
 5    1  0.1574792E-008  0.3749842E+03  0.7957747E-01  0.3473294E+00
         13   -1    0    0    0    0  0.00000000000E+00  0.00000000000E+00  0.14999999963E+04  0.15000000000E+04  0.10566000000E+00 0. -1.
        994   -1    0    0    0    0 -0.00000000000E+00 -0.00000000000E+00  0.11368683772E-12  0.17120000000E+03  0.17120000000E+03 0.  0.
         13    1    1    2    0    0  0.65117238838E+01  0.18265696448E+02  0.25536013549E+02  0.32064581187E+02  0.10566000000E+00 0. -1.
        994    1    1    2    0    0 -0.11022220534E+01 -0.10342100125E+02  0.70546594548E+01  0.17166065987E+03  0.17120000000E+03 0.  0.
        998    1    1    2    0    0 -0.54095018304E+01 -0.79235963229E+01  0.14674093233E+04  0.14674747589E+04  0.10000000000E+02 0. -1.
</event>
<event>
 5    1  0.1574792E-008  0.3797031E+03  0.7957747E-01  0.3452452E+00
         13   -1    0    0    0    0  0.00000000000E+00  0.00000000000E+00  0.14999999963E+04  0.15000000000E+04  0.10566000000E+00 0.  1.
        994   -1    0    0    0    0 -0.00000000000E+00 -0.00000000000E+00  0.11368683772E-12  0.17120000000E+03  0.17120000000E+03 0.  0.
         13    1    1    2    0    0 -0.14306070584E+02 -0.10793598582E+02  0.40160392771E+02  0.43977650431E+02  0.10566000000E+00 0.  1.
        994    1    1    2    0    0 -0.23250650779E+02 -0.51588956600E+01  0.61834035950E+01  0.17295919012E+03  0.17120000000E+03 0.  0.
        998    1    1    2    0    0  0.37556721363E+02  0.15952494242E+02  0.14536561999E+04  0.14542631595E+04  0.10000000000E+02 0.  1.
</event>
<event>
 5    1  0.1574792E-008  0.3836227E+03  0.7957747E-01  0.3435534E+00
         13   -1    0    0    0    0  0.00000000000E+00  0.00000000000E+00  0.14999999963E+04  0.15000000000E+04  0.10566000000E+00 0.  1.
        994   -1    0    0    0    0 -0.00000000000E+00 -0.00000000000E+00  0.11368683772E-12  0.17120000000E+03  0.17120000000E+03 0.  0.
         13    1    1    2    0    0  0.16734106125E+02  0.12881798346E+02  0.10280899265E+03  0.10495556760E+03  0.10566000000E+00 0.  1.
        994    1    1    2    0    0 -0.38620404176E+01  0.38673283612E+00  0.23652392394E+01  0.17126032604E+03  0.17120000000E+03 0.  0.
        998    1    1    2    0    0 -0.12872065707E+02 -0.13268531182E+02  0.13948257644E+04  0.13949841064E+04  0.10000000000E+02 0.  1.
</event>
<event>
 5    1  0.1754029E-008  0.3862531E+03  0.7957747E-01  0.3424375E+00
         13   -1    0    0    0    0  0.00000000000E+00  0.00000000000E+00  0.14999999963E+04  0.15000000000E+04  0.10566000000E+00 0.  1.
        994   -1    0    0    0    0 -0.00000000000E+00 -0.00000000000E+00  0.11368683772E-12  0.17120000000E+03  0.17120000000E+03 0.  0.
         13    1    1    2    0    0 -0.84350382131E+01 -0.61669194418E+01  0.53772287834E+02  0.54778197013E+02  0.10566000000E+00 0.  1.
        994    1    1    2    0    0  0.79073435989E+01  0.63062916956E+01  0.13443819339E+01  0.17150376894E+03  0.17120000000E+03 0.  0.
        998    1    1    2    0    0  0.52769461419E+00 -0.13937225373E+00  0.14448833265E+04  0.14449180340E+04  0.10000000000E+02 0.  0.
</event>
<event>
 5    1  0.1574792E-008  0.3729764E+03  0.7957747E-01  0.3482323E+00
         13   -1    0    0    0    0  0.00000000000E+00  0.00000000000E+00  0.14999999963E+04  0.15000000000E+04  0.10566000000E+00 0.  1.
        994   -1    0    0    0    0 -0.00000000000E+00 -0.00000000000E+00  0.11368683772E-12  0.17120000000E+03  0.17120000000E+03 0.  0.
         13    1    1    2    0    0  0.51386047416E+02  0.67274306919E+02  0.35649817587E+03  0.36641140649E+03  0.10566000000E+00 0.  1.
        994    1    1    2    0    0 -0.48908594438E+02 -0.66220406909E+02  0.31285194907E+02  0.19252375521E+03  0.17120000000E+03 0.  0.
        998    1    1    2    0    0 -0.24774529779E+01 -0.10539000096E+01  0.11122166255E+04  0.11122648383E+04  0.10000000000E+02 0.  0.
</event>
<event>
 5    1  0.1574792E-008  0.3733201E+03  0.7957747E-01  0.3480770E+00
         13   -1    0    0    0    0  0.00000000000E+00  0.00000000000E+00  0.14999999963E+04  0.15000000000E+04  0.10566000000E+00 0.  1.
        994   -1    0    0    0    0 -0.00000000000E+00 -0.00000000000E+00  0.11368683772E-12  0.17120000000E+03  0.17120000000E+03 0.  0.
         13    1    1    2    0    0 -0.71904418393E+02 -0.34997101841E+02  0.36283258848E+03  0.37154076620E+03  0.10566000000E+00 0.  1.
        994    1    1    2    0    0 -0.21295696986E+02  0.26507399712E+02  0.16805695825E+02  0.17535113448E+03  0.17120000000E+03 0.  0.
        998    1    1    2    0    0  0.93200115379E+02  0.84897021291E+01  0.11203617120E+04  0.11243080993E+04  0.10000000000E+02 0.  1.
</event>
<event>
 5    1  0.1574792E-008  0.3761434E+03  0.7957747E-01  0.3468125E+00
         13   -1    0    0    0    0  0.00000000000E+00  0.00000000000E+00  0.14999999963E+04  0.15000000000E+04  0.10566000000E+00 0.  1.
        994   -1    0    0    0    0 -0.00000000000E+00 -0.00000000000E+00  0.11368683772E-12  0.17120000000E+03  0.17120000000E+03 0.  0.
         13    1    1    2    0    0 -0.46642835398E+01  0.22238206392E+02  0.47703797066E+02  0.52838970306E+02  0.10566000000E+00 0.  1.
        994    1    1    2    0    0 -0.14776713924E+02  0.38215483975E+02  0.11798537162E+02  0.17642964595E+03  0.17120000000E+03 0.  0.
        998    1    1    2    0    0  0.19440997463E+02 -0.60453690366E+02  0.14404976621E+04  0.14419313837E+04  0.10000000000E+02 0.  1.
</event>
<event>
 5    1  0.1574792E-008  0.3757903E+03  0.7957747E-01  0.3469696E+00
         13   -1    0    0    0    0  0.00000000000E+00  0.00000000000E+00  0.14999999963E+04  0.15000000000E+04  0.10566000000E+00 0.  1.
        994   -1    0    0    0    0 -0.00000000000E+00 -0.00000000000E+00  0.11368683772E-12  0.17120000000E+03  0.17120000000E+03 0.  0.
         13    1    1    2    0    0  0.96015169278E+01 -0.53990741572E+01  0.66873164664E+01  0.12886834158E+02  0.10566000000E+00 0.  1.
        994    1    1    2    0    0 -0.59911518534E+01  0.19811483702E+02  0.77270952475E+01  0.17261963037E+03  0.17120000000E+03 0.  0.
        998    1    1    2    0    0 -0.36103650745E+01 -0.14412409544E+02  0.14855855846E+04  0.14856935355E+04  0.10000000000E+02 0.  1.
</event>
<event>
 5    1  0.1574792E-008  0.3917843E+03  0.7957747E-01  0.3401399E+00
         13   -1    0    0    0    0  0.00000000000E+00  0.00000000000E+00  0.14999999963E+04  0.15000000000E+04  0.10566000000E+00 0.  1.
        994   -1    0    0    0    0 -0.00000000000E+00 -0.00000000000E+00  0.11368683772E-12  0.17120000000E+03  0.17120000000E+03 0.  0.
         13    1    1    2    0    0  0.17141832551E+02  0.85494670330E+01 -0.22161667266E+01  0.19283629554E+02  0.10566000000E+00 0.  1.
        994    1    1    2    0    0 -0.15333653435E+02 -0.69520113678E+01  0.24031947726E+02  0.17369636122E+03  0.17120000000E+03 0.  0.
        998    1    1    2    0    0 -0.18081791159E+01 -0.15974556652E+01  0.14781842153E+04  0.14782200092E+04  0.10000000000E+02 0.  1.
</event>
<event>
 5    1  0.1574792E-008  0.3806550E+03  0.7957747E-01  0.3448311E+00
         13   -1    0    0    0    0  0.00000000000E+00  0.00000000000E+00  0.14999999963E+04  0.15000000000E+04  0.10566000000E+00 0.  1.
        994   -1    0    0    0    0 -0.00000000000E+00 -0.00000000000E+00  0.11368683772E-12  0.17120000000E+03  0.17120000000E+03 0.  0.
         13    1    1    2    0    0 -0.10276083957E+02  0.23211341369E+02  0.81450003449E+02  0.85313999411E+02  0.10566000000E+00 0.  1.
        994    1    1    2    0    0  0.12320772966E+02 -0.17192699583E+02  0.52966451971E+01  0.17258297951E+03  0.17120000000E+03 0.  0.
        998    1    1    2    0    0 -0.20446890089E+01 -0.60186417861E+01  0.14132533476E+04  0.14133030211E+04  0.10000000000E+02 0.  1.
</event>
<event>
 5    1  0.1574792E-008  0.3733470E+03  0.7957747E-01  0.3480649E+00
         13   -1    0    0    0    0  0.00000000000E+00  0.00000000000E+00  0.14999999963E+04  0.15000000000E+04  0.10566000000E+00 0.  1.
        994   -1    0    0    0    0 -0.00000000000E+00 -0.00000000000E+00  0.11368683772E-12  0.17120000000E+03  0.17120000000E+03 0.  0.
         13    1    1    2    0    0  0.83126998564E+02  0.21686891853E+02  0.26958350603E+03  0.28294115476E+03  0.10566000000E+00 0.  1.
        994    1    1    2    0    0 -0.48891306958E+02 -0.64224852904E+02  0.36140550413E+02  0.19269346385E+03  0.17120000000E+03 0.  0.
        998    1    1    2    0    0 -0.34235691605E+02  0.42537961052E+02  0.11942759398E+04  0.11955653814E+04  0.10000000000E+02 0.  1.
</event>
<event>
 5    1  0.1574792E-008  0.3756400E+03  0.7957747E-01  0.3470366E+00
         13   -1    0    0    0    0  0.00000000000E+00  0.00000000000E+00  0.14999999963E+04  0.15000000000E+04  0.10566000000E+00 0.  1.
        994   -1    0    0    0    0 -0.00000000000E+00 -0.00000000000E+00  0.11368683772E-12  0.17120000000E+03  0.17120000000E+03 0.  0.
         13    1    1    2    0    0  0.60175814312E+01  0.29230602657E+02  0.65339881198E+02  0.71832796527E+02  0.10566000000E+00 0.  1.
        994    1    1    2    0    0 -0.12611804664E+02 -0.27151529706E+02  0.93964703044E+01  0.17405170736E+03  0.17120000000E+03 0.  0.
        998    1    1    2    0    0  0.65942232332E+01 -0.20790729506E+01  0.14252636448E+04  0.14253154961E+04  0.10000000000E+02 0.  1.
</event>
<event>
 5    1  0.1574792E-008  0.3854330E+03  0.7957747E-01  0.3427838E+00
         13   -1    0    0    0    0  0.00000000000E+00  0.00000000000E+00  0.14999999963E+04  0.15000000000E+04  0.10566000000E+00 0. -1.
        994   -1    0    0    0    0 -0.00000000000E+00 -0.00000000000E+00  0.11368683772E-12  0.17120000000E+03  0.17120000000E+03 0.  0.
         13    1    1    2    0    0 -0.15364154739E+01 -0.12299319750E+02  0.56848563001E+02  0.58184225682E+02  0.10566000000E+00 0. -1.
        994    1    1    2    0    0 -0.47064892528E+01  0.22816188999E+01  0.15051536574E+01  0.17128649192E+03  0.17120000000E+03 0.  0.
        998    1    1    2    0    0  0.62429047267E+01  0.10017700850E+02  0.14416462796E+04  0.14417292824E+04  0.10000000000E+02 0. -1.
</event>
<event>
 5    1  0.1574792E-008  0.3848698E+03  0.7957747E-01  0.3430225E+00
         13   -1    0    0    0    0  0.00000000000E+00  0.00000000000E+00  0.14999999963E+04  0.15000000000E+04  0.10566000000E+00 0. -1.
        994   -1    0    0    0    0 -0.00000000000E+00 -0.00000000000E+00  0.11368683772E-12  0.17120000000E+03  0.17120000000E+03 0.  0.
         13    1    1    2    0    0  0.14151516033E+02  0.44165910546E+01  0.66555003275E+02  0.68186151876E+02  0.10566000000E+00 0. -1.
        994    1    1    2    0    0 -0.57875359771E+01  0.12298166434E+00  0.18050498895E+01  0.17130735215E+03  0.17120000000E+03 0.  0.
        998    1    1    2    0    0 -0.83639800562E+01 -0.45395727189E+01  0.14316399431E+04  0.14317064960E+04  0.10000000000E+02 0. -1.
</event>
<event>
 5    1  0.1574792E-008  0.3852967E+03  0.7957747E-01  0.3428415E+00
         13   -1    0    0    0    0  0.00000000000E+00  0.00000000000E+00  0.14999999963E+04  0.15000000000E+04  0.10566000000E+00 0. -1.
        994   -1    0    0    0    0 -0.00000000000E+00 -0.00000000000E+00  0.11368683772E-12  0.17120000000E+03  0.17120000000E+03 0.  0.
         13    1    1    2    0    0 -0.17140475296E+00 -0.11211203021E+02  0.36916336944E+02  0.38581699680E+02  0.10566000000E+00 0. -1.
        994    1    1    2    0    0  0.24422390992E+01  0.35503522918E+02  0.56549549283E+01  0.17495108798E+03  0.17120000000E+03 0.  0.
        998    1    1    2    0    0 -0.22708343462E+01 -0.24292319897E+02  0.14574287044E+04  0.14576672123E+04  0.10000000000E+02 0. -1.
</event>
<event>
 5    1  0.1574792E-008  0.3741635E+03  0.7957747E-01  0.3476972E+00
         13   -1    0    0    0    0  0.00000000000E+00  0.00000000000E+00  0.14999999963E+04  0.15000000000E+04  0.10566000000E+00 0. -1.
        994   -1    0    0    0    0 -0.00000000000E+00 -0.00000000000E+00  0.11368683772E-12  0.17120000000E+03  0.17120000000E+03 0.  0.
         13    1    1    2    0    0 -0.58657632197E+01  0.38630362086E+02  0.11640797931E+03  0.12279063834E+03  0.10566000000E+00 0. -1.
        994    1    1    2    0    0 -0.32271692807E+02 -0.59197891615E+01  0.10787304352E+02  0.17464911106E+03  0.17120000000E+03 0.  0.
        998    1    1    2    0    0  0.38137456027E+02 -0.32710572924E+02  0.13728047126E+04  0.13737602506E+04  0.10000000000E+02 0. -1.
</event>
<event>
 5    1  0.1574792E-008  0.3705222E+03  0.7957747E-01  0.3493495E+00
         13   -1    0    0    0    0  0.00000000000E+00  0.00000000000E+00  0.14999999963E+04  0.15000000000E+04  0.10566000000E+00 0. -1.
        994   -1    0    0    0    0 -0.00000000000E+00 -0.00000000000E+00  0.11368683772E-12  0.17120000000E+03  0.17120000000E+03 0.  0.
         13    1    1    2    0    0 -0.35869313775E+02 -0.59316063300E+02  0.23049051446E+03  0.24068837000E+03  0.10566000000E+00 0. -1.
        994    1    1    2    0    0  0.33201413771E+02  0.55340949414E+02  0.23511806101E+02  0.18446462963E+03  0.17120000000E+03 0.  0.
        998    1    1    2    0    0  0.26679000042E+01  0.39751138862E+01  0.12459976757E+04  0.12460470004E+04  0.10000000000E+02 0. -1.
</event>
<event>
 5    1  0.1574792E-008  0.3836494E+03  0.7957747E-01  0.3435420E+00
         13   -1    0    0    0    0  0.00000000000E+00  0.00000000000E+00  0.14999999963E+04  0.15000000000E+04  0.10566000000E+00 0. -1.
        994   -1    0    0    0    0 -0.00000000000E+00 -0.00000000000E+00  0.11368683772E-12  0.17120000000E+03  0.17120000000E+03 0.  0.
         13    1    1    2    0    0  0.17930008430E+02  0.78712979789E-01  0.67719593533E+02  0.70053164885E+02  0.10566000000E+00 0. -1.
        994    1    1    2    0    0 -0.15740319124E+02  0.35506342722E+01  0.31626503000E+01  0.17198781063E+03  0.17120000000E+03 0.  0.
        998    1    1    2    0    0 -0.21896893057E+01 -0.36293472520E+01  0.14291177524E+04  0.14291590245E+04  0.10000000000E+02 0. -1.
</event>
<event>
 5    1  0.2440584E-008  0.3864711E+03  0.7957747E-01  0.3423457E+00
         13   -1    0    0    0    0  0.00000000000E+00  0.00000000000E+00  0.14999999963E+04  0.15000000000E+04  0.10566000000E+00 0.  1.
        994   -1    0    0    0    0 -0.00000000000E+00 -0.00000000000E+00  0.11368683772E-12  0.17120000000E+03  0.17120000000E+03 0.  0.
         13    1    1    2    0    0 -0.43471115341E+01  0.13211444506E+02  0.82334236234E+02  0.83500762062E+02  0.10566000000E+00 0.  1.
        994    1    1    2    0    0  0.19284759646E+02 -0.36570818248E+02  0.65162808823E+01  0.17624196044E+03  0.17120000000E+03 0.  0.
        998    1    1    2    0    0 -0.14937648112E+02  0.23359373742E+02  0.14111494792E+04  0.14114572775E+04  0.10000000000E+02 0.  1.
</event>
<event>
 5    1  0.1574792E-008  0.3826451E+03  0.7957747E-01  0.3439721E+00
         13   -1    0    0    0    0  0.00000000000E+00  0.00000000000E+00  0.14999999963E+04  0.15000000000E+04  0.10566000000E+00 0.  1.
        994   -1    0    0    0    0 -0.00000000000E+00 -0.00000000000E+00  0.11368683772E-12  0.17120000000E+03  0.17120000000E+03 0.  0.
         13    1    1    2    0    0 -0.13026312380E+02  0.63868130120E+01 -0.20321279303E+01  0.14649808962E+02  0.10566000000E+00 0.  1.
        994    1    1    2    0    0 -0.11628738461E+02 -0.38162441646E+01  0.18336277319E+02  0.17261358679E+03  0.17120000000E+03 0.  0.
        998    1    1    2    0    0  0.24655050841E+02 -0.25705688474E+01  0.14836958469E+04  0.14839366043E+04  0.10000000000E+02 0.  1.
</event>
<event>
 5    1  0.1574792E-008  0.3730306E+03  0.7957747E-01  0.3482078E+00
         13   -1    0    0    0    0  0.00000000000E+00  0.00000000000E+00  0.14999999963E+04  0.15000000000E+04  0.10566000000E+00 0.  1.
        994   -1    0    0    0    0 -0.00000000000E+00 -0.00000000000E+00  0.11368683772E-12  0.17120000000E+03  0.17120000000E+03 0.  0.
         13    1    1    2    0    0 -0.21262927620E+02 -0.97251423859E+01  0.32050426525E+02  0.39672805420E+02  0.10566000000E+00 0.  1.
        994    1    1    2    0    0  0.18217917414E+02  0.81751531064E+01  0.90591228228E+01  0.17259847435E+03  0.17120000000E+03 0.  0.
        998    1    1    2    0    0  0.30450102063E+01  0.15499892795E+01  0.14588904469E+04  0.14589287202E+04  0.10000000000E+02 0.  1.
</event>
<event>
 5    1  0.1574792E-008  0.3802979E+03  0.7957747E-01  0.3449862E+00
         13   -1    0    0    0    0  0.00000000000E+00  0.00000000000E+00  0.14999999963E+04  0.15000000000E+04  0.10566000000E+00 0. -1.
        994   -1    0    0    0    0 -0.00000000000E+00 -0.00000000000E+00  0.11368683772E-12  0.17120000000E+03  0.17120000000E+03 0.  0.
         13    1    1    2    0    0 -0.12193505461E+02 -0.16305911435E+02  0.48546586821E+02  0.52643580608E+02  0.10566000000E+00 0. -1.
        994    1    1    2    0    0  0.24228063677E+02  0.12099515150E+02  0.64359701194E+01  0.17344814513E+03  0.17120000000E+03 0.  0.
        998    1    1    2    0    0 -0.12034558216E+02  0.42063962855E+01  0.14450174393E+04  0.14451082743E+04  0.10000000000E+02 0. -1.
</event>
<event>
 5    1  0.1574792E-008  0.3773526E+03  0.7957747E-01  0.3462768E+00
         13   -1    0    0    0    0  0.00000000000E+00  0.00000000000E+00  0.14999999963E+04  0.15000000000E+04  0.10566000000E+00 0.  1.
        994   -1    0    0    0    0 -0.00000000000E+00 -0.00000000000E+00  0.11368683772E-12  0.17120000000E+03  0.17120000000E+03 0.  0.
         13    1    1    2    0    0 -0.42144644928E+02 -0.55495083006E+02  0.39440990438E+03  0.40051848792E+03  0.10566000000E+00 0.  1.
        994    1    1    2    0    0  0.31411710085E+02  0.40721774774E+02  0.14448043337E+02  0.17934086101E+03  0.17120000000E+03 0.  0.
        998    1    1    2    0    0  0.10732934844E+02  0.14773308232E+02  0.10911420486E+04  0.10913406511E+04  0.10000000000E+02 0.  0.
</event>
<event>
 5    1  0.1574792E-008  0.3781618E+03  0.7957747E-01  0.3459202E+00
         13   -1    0    0    0    0  0.00000000000E+00  0.00000000000E+00  0.14999999963E+04  0.15000000000E+04  0.10566000000E+00 0.  1.
        994   -1    0    0    0    0 -0.00000000000E+00 -0.00000000000E+00  0.11368683772E-12  0.17120000000E+03  0.17120000000E+03 0.  0.
         13    1    1    2    0    0  0.10686223890E+02 -0.36276892626E+02  0.18507468956E+03  0.18889907411E+03  0.10566000000E+00 0.  1.
        994    1    1    2    0    0  0.14521423086E+02 -0.16030958903E+02  0.66391425792E+01  0.17268868401E+03  0.17120000000E+03 0.  0.
        998    1    1    2    0    0 -0.25207646976E+02  0.52307851530E+02  0.13082861641E+04  0.13096122419E+04  0.10000000000E+02 0.  1.
</event>
<event>
 5    1  0.1574792E-008  0.3789583E+03  0.7957747E-01  0.3455707E+00
         13   -1    0    0    0    0  0.00000000000E+00  0.00000000000E+00  0.14999999963E+04  0.15000000000E+04  0.10566000000E+00 0.  1.
        994   -1    0    0    0    0 -0.00000000000E+00 -0.00000000000E+00  0.11368683772E-12  0.17120000000E+03  0.17120000000E+03 0.  0.
         13    1    1    2    0    0 -0.74921596927E+02 -0.52563885055E+02  0.24596604402E+03  0.26244144808E+03  0.10566000000E+00 0.  1.
        994    1    1    2    0    0  0.46671643907E+02  0.51566748020E+02  0.33432122400E+02  0.18778849447E+03  0.17120000000E+03 0.  0.
        998    1    1    2    0    0  0.28249953021E+02  0.99713703489E+00  0.12206018299E+04  0.12209700575E+04  0.10000000000E+02 0.  1.
</event>
<event>
 5    1  0.1574792E-008  0.3822937E+03  0.7957747E-01  0.3441232E+00
         13   -1    0    0    0    0  0.00000000000E+00  0.00000000000E+00  0.14999999963E+04  0.15000000000E+04  0.10566000000E+00 0.  1.
        994   -1    0    0    0    0 -0.00000000000E+00 -0.00000000000E+00  0.11368683772E-12  0.17120000000E+03  0.17120000000E+03 0.  0.
         13    1    1    2    0    0  0.98369657099E+01  0.39632370919E+01  0.17064443007E+02  0.20091777467E+02  0.10566000000E+00 0.  1.
        994    1    1    2    0    0 -0.18417214050E+02 -0.82002053171E+01  0.43294063503E+01  0.17243729556E+03  0.17120000000E+03 0.  0.
        998    1    1    2    0    0  0.85802483401E+01  0.42369682252E+01  0.14786061469E+04  0.14786709270E+04  0.10000000000E+02 0.  1.
</event>
<event>
 5    1  0.1574792E-008  0.3850803E+03  0.7957747E-01  0.3429332E+00
         13   -1    0    0    0    0  0.00000000000E+00  0.00000000000E+00  0.14999999963E+04  0.15000000000E+04  0.10566000000E+00 0.  1.
        994   -1    0    0    0    0 -0.00000000000E+00 -0.00000000000E+00  0.11368683772E-12  0.17120000000E+03  0.17120000000E+03 0.  0.
         13    1    1    2    0    0 -0.75451188946E+01  0.98165208183E+01  0.49187055468E+02  0.50721499285E+02  0.10566000000E+00 0.  1.
        994    1    1    2    0    0 -0.78088329958E+00 -0.63982191961E+01  0.17268950998E+01  0.17133000074E+03  0.17120000000E+03 0.  0.
        998    1    1    2    0    0  0.83260021942E+01 -0.34183016222E+01  0.14490860457E+04  0.14491485000E+04  0.10000000000E+02 0.  1.
</event>
<event>
 5    1  0.1574792E-008  0.3818462E+03  0.7957747E-01  0.3443159E+00
         13   -1    0    0    0    0  0.00000000000E+00  0.00000000000E+00  0.14999999963E+04  0.15000000000E+04  0.10566000000E+00 0. -1.
        994   -1    0    0    0    0 -0.00000000000E+00 -0.00000000000E+00  0.11368683772E-12  0.17120000000E+03  0.17120000000E+03 0.  0.
         13    1    1    2    0    0  0.30773346356E+01 -0.39385137885E+02  0.37318642914E+02  0.54344745354E+02  0.10566000000E+00 0. -1.
        994    1    1    2    0    0  0.34145186493E+01  0.40068502591E+02  0.23267781946E+02  0.17739214615E+03  0.17120000000E+03 0.  0.
        998    1    1    2    0    0 -0.64918532848E+01 -0.68336470564E+00  0.14394135714E+04  0.14394631085E+04  0.10000000000E+02 0. -1.
</event>
<event>
 5    1  0.1574792E-008  0.3845004E+03  0.7957747E-01  0.3431794E+00
         13   -1    0    0    0    0  0.00000000000E+00  0.00000000000E+00  0.14999999963E+04  0.15000000000E+04  0.10566000000E+00 0.  1.
        994   -1    0    0    0    0 -0.00000000000E+00 -0.00000000000E+00  0.11368683772E-12  0.17120000000E+03  0.17120000000E+03 0.  0.
         13    1    1    2    0    0 -0.10964916628E+02  0.38178621544E+01  0.35956641048E+02  0.37784873529E+02  0.10566000000E+00 0.  1.
        994    1    1    2    0    0  0.39338774370E+01 -0.42567060028E+01  0.19890337980E+01  0.17130963544E+03  0.17120000000E+03 0.  0.
        998    1    1    2    0    0  0.70310391914E+01  0.43884384839E+00  0.14620543214E+04  0.14621054910E+04  0.10000000000E+02 0.  1.
</event>
<event>
 5    1  0.1574792E-008  0.3779199E+03  0.7957747E-01  0.3460266E+00
         13   -1    0    0    0    0  0.00000000000E+00  0.00000000000E+00  0.14999999963E+04  0.15000000000E+04  0.10566000000E+00 0.  1.
        994   -1    0    0    0    0 -0.00000000000E+00 -0.00000000000E+00  0.11368683772E-12  0.17120000000E+03  0.17120000000E+03 0.  0.
         13    1    1    2    0    0 -0.81305319451E+01  0.12535619137E+02  0.19896895558E+02  0.24882622727E+02  0.10566000000E+00 0.  1.
        994    1    1    2    0    0 -0.53210153796E+01 -0.18992237546E+01  0.52943185143E+01  0.17137499836E+03  0.17120000000E+03 0.  0.
        998    1    1    2    0    0  0.13451547325E+02 -0.10636395383E+02  0.14748087822E+04  0.14749423789E+04  0.10000000000E+02 0.  1.
</event>
<event>
 5    1  0.1574792E-008  0.3847664E+03  0.7957747E-01  0.3430664E+00
         13   -1    0    0    0    0  0.00000000000E+00  0.00000000000E+00  0.14999999963E+04  0.15000000000E+04  0.10566000000E+00 0.  1.
        994   -1    0    0    0    0 -0.00000000000E+00 -0.00000000000E+00  0.11368683772E-12  0.17120000000E+03  0.17120000000E+03 0.  0.
         13    1    1    2    0    0  0.35702841220E+01 -0.15314800828E+02  0.65436855064E+02  0.67299949613E+02  0.10566000000E+00 0.  1.
        994    1    1    2    0    0  0.84452315409E+01  0.25882223940E+02  0.41893960787E+01  0.17340185262E+03  0.17120000000E+03 0.  0.
        998    1    1    2    0    0 -0.12015515663E+02 -0.10567423112E+02  0.14303737451E+04  0.14304981978E+04  0.10000000000E+02 0.  1.
</event>
<event>
 5    1  0.1574792E-008  0.3801910E+03  0.7957747E-01  0.3450327E+00
         13   -1    0    0    0    0  0.00000000000E+00  0.00000000000E+00  0.14999999963E+04  0.15000000000E+04  0.10566000000E+00 0. -1.
        994   -1    0    0    0    0 -0.00000000000E+00 -0.00000000000E+00  0.11368683772E-12  0.17120000000E+03  0.17120000000E+03 0.  0.
         13    1    1    2    0    0  0.18161676952E+02  0.41705228637E+02  0.26501567215E+03  0.26889122383E+03  0.10566000000E+00 0. -1.
        994    1    1    2    0    0  0.86315523215E+01 -0.28046749027E+02  0.69189344898E+01  0.17383450601E+03  0.17120000000E+03 0.  0.
        998    1    1    2    0    0 -0.26793229273E+02 -0.13658479609E+02  0.12280653896E+04  0.12284742702E+04  0.10000000000E+02 0. -1.
</event>
<event>
 5    1  0.1574792E-008  0.3851340E+03  0.7957747E-01  0.3429104E+00
         13   -1    0    0    0    0  0.00000000000E+00  0.00000000000E+00  0.14999999963E+04  0.15000000000E+04  0.10566000000E+00 0.  1.
        994   -1    0    0    0    0 -0.00000000000E+00 -0.00000000000E+00  0.11368683772E-12  0.17120000000E+03  0.17120000000E+03 0.  0.
         13    1    1    2    0    0 -0.36676462844E+01  0.12721098183E+02  0.60844058339E+02  0.62267877493E+02  0.10566000000E+00 0.  1.
        994    1    1    2    0    0  0.17514952760E+00  0.42008882497E+01  0.16217328763E+01  0.17125930094E+03  0.17120000000E+03 0.  0.
        998    1    1    2    0    0  0.34924967568E+01 -0.16921986433E+02  0.14375342051E+04  0.14376728216E+04  0.10000000000E+02 0.  1.
</event>
<event>
 5    1  0.1574792E-008  0.3712969E+03  0.7957747E-01  0.3489952E+00
         13   -1    0    0    0    0  0.00000000000E+00  0.00000000000E+00  0.14999999963E+04  0.15000000000E+04  0.10566000000E+00 0.  1.
        994   -1    0    0    0    0 -0.00000000000E+00 -0.00000000000E+00  0.11368683772E-12  0.17120000000E+03  0.17120000000E+03 0.  0.
         13    1    1    2    0    0  0.16383663203E+02 -0.23176865054E+01  0.63956918674E+01  0.17740127654E+02  0.10566000000E+00 0.  1.
        994    1    1    2    0    0 -0.20657697824E+02  0.36984271221E+00  0.13126770488E+02  0.17294111532E+03  0.17120000000E+03 0.  0.
        998    1    1    2    0    0  0.42740346206E+01  0.19478437932E+01  0.14804775339E+04  0.14805187570E+04  0.10000000000E+02 0.  1.
</event>
<event>
 5    1  0.1574792E-008  0.3859429E+03  0.7957747E-01  0.3425683E+00
         13   -1    0    0    0    0  0.00000000000E+00  0.00000000000E+00  0.14999999963E+04  0.15000000000E+04  0.10566000000E+00 0.  1.
        994   -1    0    0    0    0 -0.00000000000E+00 -0.00000000000E+00  0.11368683772E-12  0.17120000000E+03  0.17120000000E+03 0.  0.
         13    1    1    2    0    0 -0.11111560600E+02  0.68895594888E+01  0.74401333812E+02  0.75541395578E+02  0.10566000000E+00 0.  1.
        994    1    1    2    0    0  0.14350237855E+02  0.65663290858E+01  0.19796644294E+01  0.17193721260E+03  0.17120000000E+03 0.  0.
        998    1    1    2    0    0 -0.32386772547E+01 -0.13455888575E+02  0.14236189980E+04  0.14237213918E+04  0.10000000000E+02 0.  1.
</event>
<event>
 5    1  0.1574792E-008  0.3800796E+03  0.7957747E-01  0.3450812E+00
         13   -1    0    0    0    0  0.00000000000E+00  0.00000000000E+00  0.14999999963E+04  0.15000000000E+04  0.10566000000E+00 0. -1.
        994   -1    0    0    0    0 -0.00000000000E+00 -0.00000000000E+00  0.11368683772E-12  0.17120000000E+03  0.17120000000E+03 0.  0.
         13    1    1    2    0    0 -0.31202955830E+02 -0.27690523850E+01  0.11328214536E+03  0.11753360254E+03  0.10566000000E+00 0. -1.
        994    1    1    2    0    0  0.26512757139E+02  0.71432028680E+01  0.66167708275E+01  0.17351418759E+03  0.17120000000E+03 0.  0.
        998    1    1    2    0    0  0.46901986912E+01 -0.43741504830E+01  0.13801010801E+04  0.13801522099E+04  0.10000000000E+02 0. -1.
</event>
<event>
 5    1  0.1574792E-008  0.3842625E+03  0.7957747E-01  0.3432806E+00
         13   -1    0    0    0    0  0.00000000000E+00  0.00000000000E+00  0.14999999963E+04  0.15000000000E+04  0.10566000000E+00 0.  1.
        994   -1    0    0    0    0 -0.00000000000E+00 -0.00000000000E+00  0.11368683772E-12  0.17120000000E+03  0.17120000000E+03 0.  0.
         13    1    1    2    0    0  0.15835926837E+02 -0.38817095543E+01  0.72690431254E+02  0.74496672461E+02  0.10566000000E+00 0.  1.
        994    1    1    2    0    0  0.34371000562E+01 -0.43838567498E+01  0.20990568819E+01  0.17130346726E+03  0.17120000000E+03 0.  0.
        998    1    1    2    0    0 -0.19273026893E+02  0.82655663042E+01  0.14252105081E+04  0.14253998603E+04  0.10000000000E+02 0.  1.
</event>
<event>
 5    1  0.1574792E-008  0.3852682E+03  0.7957747E-01  0.3428535E+00
         13   -1    0    0    0    0  0.00000000000E+00  0.00000000000E+00  0.14999999963E+04  0.15000000000E+04  0.10566000000E+00 0. -1.
        994   -1    0    0    0    0 -0.00000000000E+00 -0.00000000000E+00  0.11368683772E-12  0.17120000000E+03  0.17120000000E+03 0.  0.
         13    1    1    2    0    0 -0.39669087529E+01  0.13659994409E+02  0.64576291544E+02  0.66124431233E+02  0.10566000000E+00 0. -1.
        994    1    1    2    0    0  0.78046031826E+01 -0.15219700149E+02  0.24588772020E+01  0.17206986134E+03  0.17120000000E+03 0.  0.
        998    1    1    2    0    0 -0.38376944297E+01  0.15597057405E+01  0.14329648275E+04  0.14330057074E+04  0.10000000000E+02 0. -1.
</event>
<event>
 5    1  0.1574792E-008  0.3789162E+03  0.7957747E-01  0.3455891E+00
         13   -1    0    0    0    0  0.00000000000E+00  0.00000000000E+00  0.14999999963E+04  0.15000000000E+04  0.10566000000E+00 0.  1.
        994   -1    0    0    0    0 -0.00000000000E+00 -0.00000000000E+00  0.11368683772E-12  0.17120000000E+03  0.17120000000E+03 0.  0.
         13    1    1    2    0    0  0.36677693361E+01  0.12987247393E+02  0.17291903007E+02  0.21934953850E+02  0.10566000000E+00 0.  1.
        994    1    1    2    0    0 -0.91903519547E+00 -0.13423866989E+02  0.52888734042E+01  0.17180936241E+03  0.17120000000E+03 0.  0.
        998    1    1    2    0    0 -0.27487341406E+01  0.43661959587E+00  0.14774192199E+04  0.14774556837E+04  0.10000000000E+02 0.  1.
</event>
<event>
 5    1  0.1574792E-008  0.3830646E+03  0.7957747E-01  0.3437922E+00
         13   -1    0    0    0    0  0.00000000000E+00  0.00000000000E+00  0.14999999963E+04  0.15000000000E+04  0.10566000000E+00 0. -1.
        994   -1    0    0    0    0 -0.00000000000E+00 -0.00000000000E+00  0.11368683772E-12  0.17120000000E+03  0.17120000000E+03 0.  0.
         13    1    1    2    0    0 -0.89497582467E+01  0.98657186872E+01  0.34112009603E+02  0.36620635455E+02  0.10566000000E+00 0. -1.
        994    1    1    2    0    0  0.65611922778E+00 -0.37090503718E+01  0.26410429311E+01  0.17126179567E+03  0.17120000000E+03 0.  0.
        998    1    1    2    0    0  0.82936390190E+01 -0.61566683155E+01  0.14632469437E+04  0.14633175689E+04  0.10000000000E+02 0. -1.
</event>
<event>
 5    1  0.1574792E-008  0.3724407E+03  0.7957747E-01  0.3484748E+00
         13   -1    0    0    0    0  0.00000000000E+00  0.00000000000E+00  0.14999999963E+04  0.15000000000E+04  0.10566000000E+00 0.  1.
        994   -1    0    0    0    0 -0.00000000000E+00 -0.00000000000E+00  0.11368683772E-12  0.17120000000E+03  0.17120000000E+03 0.  0.
         13    1    1    2    0    0  0.89088193328E+02  0.10156227537E+03  0.66168228625E+03  0.67533329629E+03  0.10566000000E+00 0.  1.
        994    1    1    2    0    0 -0.75059867886E+02 -0.10429009236E+03  0.66920901236E+02  0.22427272272E+03  0.17120000000E+03 0.  0.
        998    1    1    2    0    0 -0.14028325442E+02  0.27278169957E+01  0.77139680879E+03  0.77159398100E+03  0.10000000000E+02 0.  1.
</event>
<event>
 5    1  0.1574792E-008  0.3801389E+03  0.7957747E-01  0.3450554E+00
         13   -1    0    0    0    0  0.00000000000E+00  0.00000000000E+00  0.14999999963E+04  0.15000000000E+04  0.10566000000E+00 0. -1.
        994   -1    0    0    0    0 -0.00000000000E+00 -0.00000000000E+00  0.11368683772E-12  0.17120000000E+03  0.17120000000E+03 0.  0.
         13    1    1    2    0    0 -0.30007184029E+02  0.12931992637E+02  0.28441203486E+02  0.43319519234E+02  0.10566000000E+00 0. -1.
        994    1    1    2    0    0 -0.21608556177E+02 -0.10162230349E+02  0.18473396935E+02  0.17384161475E+03  0.17120000000E+03 0.  0.
        998    1    1    2    0    0  0.51615740206E+02 -0.27697622876E+01  0.14530853959E+04  0.14540388660E+04  0.10000000000E+02 0. -1.
</event>
<event>
 5    1  0.1574792E-008  0.3829969E+03  0.7957747E-01  0.3438212E+00
         13   -1    0    0    0    0  0.00000000000E+00  0.00000000000E+00  0.14999999963E+04  0.15000000000E+04  0.10566000000E+00 0.  1.
        994   -1    0    0    0    0 -0.00000000000E+00 -0.00000000000E+00  0.11368683772E-12  0.17120000000E+03  0.17120000000E+03 0.  0.
         13    1    1    2    0    0  0.16632282096E+02  0.13518766643E+02  0.81357948111E+02  0.84133921484E+02  0.10566000000E+00 0.  1.
        994    1    1    2    0    0 -0.18814272968E+02 -0.16038089764E+02  0.46536753645E+01  0.17303841737E+03  0.17120000000E+03 0.  0.
        998    1    1    2    0    0  0.21819908717E+01  0.25193231208E+01  0.14139883728E+04  0.14140276611E+04  0.10000000000E+02 0.  1.
</event>
<event>
 5    1  0.1574792E-008  0.3846018E+03  0.7957747E-01  0.3431363E+00
         13   -1    0    0    0    0  0.00000000000E+00  0.00000000000E+00  0.14999999963E+04  0.15000000000E+04  0.10566000000E+00 0. -1.
        994   -1    0    0    0    0 -0.00000000000E+00 -0.00000000000E+00  0.11368683772E-12  0.17120000000E+03  0.17120000000E+03 0.  0.
         13    1    1    2    0    0 -0.12691120859E+02  0.11481417889E+02  0.79821978422E+02  0.81636063775E+02  0.10566000000E+00 0. -1.
        994    1    1    2    0    0  0.91563080158E+01 -0.67221598281E+01  0.22529404802E+01  0.17159120359E+03  0.17120000000E+03 0.  0.
        998    1    1    2    0    0  0.35348128431E+01 -0.47592580611E+01  0.14179250774E+04  0.14179727326E+04  0.10000000000E+02 0. -1.
</event>
<event>
 5    1  0.1574792E-008  0.3697689E+03  0.7957747E-01  0.3496954E+00
         13   -1    0    0    0    0  0.00000000000E+00  0.00000000000E+00  0.14999999963E+04  0.15000000000E+04  0.10566000000E+00 0. -1.
        994   -1    0    0    0    0 -0.00000000000E+00 -0.00000000000E+00  0.11368683772E-12  0.17120000000E+03  0.17120000000E+03 0.  0.
         13    1    1    2    0    0 -0.28038011533E+02 -0.16350436984E+03  0.64359591493E+03  0.66463186948E+03  0.10566000000E+00 0. -1.
        994    1    1    2    0    0  0.35064094757E+02  0.17360017371E+03  0.12726842284E+03  0.27726017115E+03  0.17120000000E+03 0.  0.
        998    1    1    2    0    0 -0.70260832232E+01 -0.10095803865E+02  0.72913565850E+03  0.72930795937E+03  0.10000000000E+02 0.  0.
</event>
<event>
 5    1  0.1574792E-008  0.3685913E+03  0.7957747E-01  0.3502390E+00
         13   -1    0    0    0    0  0.00000000000E+00  0.00000000000E+00  0.14999999963E+04  0.15000000000E+04  0.10566000000E+00 0.  1.
        994   -1    0    0    0    0 -0.00000000000E+00 -0.00000000000E+00  0.11368683772E-12  0.17120000000E+03  0.17120000000E+03 0.  0.
         13    1    1    2    0    0  0.54291261349E+02  0.91261654385E+02  0.30631559888E+03  0.32419976543E+03  0.10566000000E+00 0.  1.
        994    1    1    2    0    0 -0.85974414852E+02 -0.12949115331E+03  0.99646299629E+02  0.25179035689E+03  0.17120000000E+03 0.  0.
        998    1    1    2    0    0  0.31683153503E+02  0.38229498924E+02  0.10940380978E+04  0.10952098777E+04  0.10000000000E+02 0.  1.
</event>
<event>
 5    1  0.1574792E-008  0.3712885E+03  0.7957747E-01  0.3489990E+00
         13   -1    0    0    0    0  0.00000000000E+00  0.00000000000E+00  0.14999999963E+04  0.15000000000E+04  0.10566000000E+00 0.  1.
        994   -1    0    0    0    0 -0.00000000000E+00 -0.00000000000E+00  0.11368683772E-12  0.17120000000E+03  0.17120000000E+03 0.  0.
         13    1    1    2    0    0  0.13110682296E+02  0.20977778077E+02  0.32761185624E+02  0.41051962326E+02  0.10566000000E+00 0.  1.
        994    1    1    2    0    0  0.60707435555E+00 -0.10964541474E+02  0.90123502626E+01  0.17178839357E+03  0.17120000000E+03 0.  0.
        998    1    1    2    0    0 -0.13717756652E+02 -0.10013236602E+02  0.14582264604E+04  0.14583596441E+04  0.10000000000E+02 0.  1.
</event>
<event>
 5    1  0.1574792E-008  0.3825430E+03  0.7957747E-01  0.3440160E+00
         13   -1    0    0    0    0  0.00000000000E+00  0.00000000000E+00  0.14999999963E+04  0.15000000000E+04  0.10566000000E+00 0. -1.
        994   -1    0    0    0    0 -0.00000000000E+00 -0.00000000000E+00  0.11368683772E-12  0.17120000000E+03  0.17120000000E+03 0.  0.
         13    1    1    2    0    0 -0.27322573701E+02 -0.86044706538E+01  0.16039767143E+03  0.16293552134E+03  0.10566000000E+00 0. -1.
        994    1    1    2    0    0  0.15289749329E+01  0.31391994118E+01  0.28953334539E+01  0.17126008085E+03  0.17120000000E+03 0.  0.
        998    1    1    2    0    0  0.25793598768E+02  0.54652712420E+01  0.13367069914E+04  0.13370043978E+04  0.10000000000E+02 0. -1.
</event>
<event>
 5    1  0.1574792E-008  0.3753988E+03  0.7957747E-01  0.3471441E+00
         13   -1    0    0    0    0  0.00000000000E+00  0.00000000000E+00  0.14999999963E+04  0.15000000000E+04  0.10566000000E+00 0.  1.
        994   -1    0    0    0    0 -0.00000000000E+00 -0.00000000000E+00  0.11368683772E-12  0.17120000000E+03  0.17120000000E+03 0.  0.
         13    1    1    2    0    0 -0.97587506718E+01  0.12197573709E+02  0.15094424704E+02  0.21722496179E+02  0.10566000000E+00 0.  1.
        994    1    1    2    0    0  0.21967853952E+02 -0.28429200145E+02  0.10868477169E+02  0.17526656790E+03  0.17120000000E+03 0.  0.
        998    1    1    2    0    0 -0.12209103280E+02  0.16231626436E+02  0.14740370944E+04  0.14742109359E+04  0.10000000000E+02 0.  1.
</event>
<event>
 5    1  0.1574792E-008  0.3862922E+03  0.7957747E-01  0.3424210E+00
         13   -1    0    0    0    0  0.00000000000E+00  0.00000000000E+00  0.14999999963E+04  0.15000000000E+04  0.10566000000E+00 0.  1.
        994   -1    0    0    0    0 -0.00000000000E+00 -0.00000000000E+00  0.11368683772E-12  0.17120000000E+03  0.17120000000E+03 0.  0.
         13    1    1    2    0    0  0.75559873859E+01 -0.79132896391E+01  0.64858178827E+02  0.65774673112E+02  0.10566000000E+00 0.  1.
        994    1    1    2    0    0  0.57484579303E+01  0.67716541612E+01  0.12483575872E+01  0.17143482279E+03  0.17120000000E+03 0.  0.
        998    1    1    2    0    0 -0.13304445316E+02  0.11416354779E+01  0.14338934599E+04  0.14339905041E+04  0.10000000000E+02 0.  1.
</event>
<event>
 5    1  0.1574792E-008  0.3825745E+03  0.7957747E-01  0.3440025E+00
         13   -1    0    0    0    0  0.00000000000E+00  0.00000000000E+00  0.14999999963E+04  0.15000000000E+04  0.10566000000E+00 0. -1.
        994   -1    0    0    0    0 -0.00000000000E+00 -0.00000000000E+00  0.11368683772E-12  0.17120000000E+03  0.17120000000E+03 0.  0.
         13    1    1    2    0    0  0.16110521504E+02 -0.48167167790E+01  0.50605007501E+02  0.53325674978E+02  0.10566000000E+00 0. -1.
        994    1    1    2    0    0 -0.41939075563E+01 -0.27739425969E+01  0.29229974709E+01  0.17129876687E+03  0.17120000000E+03 0.  0.
        998    1    1    2    0    0 -0.11916613948E+02  0.75906593759E+01  0.14464719913E+04  0.14465755581E+04  0.10000000000E+02 0. -1.
</event>
<event>
 5    1  0.1574792E-008  0.3746166E+03  0.7957747E-01  0.3474939E+00
         13   -1    0    0    0    0  0.00000000000E+00  0.00000000000E+00  0.14999999963E+04  0.15000000000E+04  0.10566000000E+00 0. -1.
        994   -1    0    0    0    0 -0.00000000000E+00 -0.00000000000E+00  0.11368683772E-12  0.17120000000E+03  0.17120000000E+03 0.  0.
         13    1    1    2    0    0  0.16171249519E+02  0.10183381815E+02  0.76640937608E+01  0.20590290756E+02  0.10566000000E+00 0. -1.
        994    1    1    2    0    0 -0.47112286222E+01 -0.20736506428E+02  0.15009503708E+02  0.17316732826E+03  0.17120000000E+03 0.  0.
        998    1    1    2    0    0 -0.11460020897E+02  0.10553124613E+02  0.14773263988E+04  0.14774423810E+04  0.10000000000E+02 0. -1.
</event>
<event>
 5    1  0.1623795E-008  0.3859102E+03  0.7957747E-01  0.3425821E+00
         13   -1    0    0    0    0  0.00000000000E+00  0.00000000000E+00  0.14999999963E+04  0.15000000000E+04  0.10566000000E+00 0. -1.
        994   -1    0    0    0    0 -0.00000000000E+00 -0.00000000000E+00  0.11368683772E-12  0.17120000000E+03  0.17120000000E+03 0.  0.
         13    1    1    2    0    0 -0.13405196996E+02  0.36263712108E+01  0.82169219037E+02  0.83334516233E+02  0.10566000000E+00 0. -1.
        994    1    1    2    0    0  0.93864291660E+01 -0.25744147265E+01  0.14896064825E+01  0.17148291924E+03  0.17120000000E+03 0.  0.
        998    1    1    2    0    0  0.40187678295E+01 -0.10519564843E+01  0.14163411708E+04  0.14163825645E+04  0.10000000000E+02 0. -1.
</event>
<event>
 5    1  0.1574792E-008  0.3814065E+03  0.7957747E-01  0.3445057E+00
         13   -1    0    0    0    0  0.00000000000E+00  0.00000000000E+00  0.14999999963E+04  0.15000000000E+04  0.10566000000E+00 0.  1.
        994   -1    0    0    0    0 -0.00000000000E+00 -0.00000000000E+00  0.11368683772E-12  0.17120000000E+03  0.17120000000E+03 0.  0.
         13    1    1    2    0    0  0.36248411869E+02 -0.24683307489E+02  0.25385272712E+03  0.25761294855E+03  0.10566000000E+00 0.  1.
        994    1    1    2    0    0 -0.44126264616E+02  0.75619820375E+00  0.99329847013E+01  0.17707569921E+03  0.17120000000E+03 0.  0.
        998    1    1    2    0    0  0.78778527469E+01  0.23927109285E+02  0.12362142845E+04  0.12365113522E+04  0.10000000000E+02 0.  1.
</event>
<event>
 5    1  0.1574792E-008  0.3741411E+03  0.7957747E-01  0.3477073E+00
         13   -1    0    0    0    0  0.00000000000E+00  0.00000000000E+00  0.14999999963E+04  0.15000000000E+04  0.10566000000E+00 0. -1.
        994   -1    0    0    0    0 -0.00000000000E+00 -0.00000000000E+00  0.11368683772E-12  0.17120000000E+03  0.17120000000E+03 0.  0.
         13    1    1    2    0    0 -0.79044111256E+01  0.98922582545E+01  0.79473497734E+01  0.14950184650E+02  0.10566000000E+00 0. -1.
        994    1    1    2    0    0  0.45444371077E+01 -0.13696465065E+02  0.78306743128E+01  0.17198547765E+03  0.17120000000E+03 0.  0.
        998    1    1    2    0    0  0.33599740179E+01  0.38042068106E+01  0.14842219722E+04  0.14842643377E+04  0.10000000000E+02 0. -1.
</event>
<event>
 5    1  0.1574792E-008  0.3797969E+03  0.7957747E-01  0.3452043E+00
         13   -1    0    0    0    0  0.00000000000E+00  0.00000000000E+00  0.14999999963E+04  0.15000000000E+04  0.10566000000E+00 0. -1.
        994   -1    0    0    0    0 -0.00000000000E+00 -0.00000000000E+00  0.11368683772E-12  0.17120000000E+03  0.17120000000E+03 0.  0.
         13    1    1    2    0    0 -0.52358041665E+02 -0.46377640478E+02  0.29874977572E+03  0.30682843694E+03  0.10566000000E+00 0. -1.
        994    1    1    2    0    0  0.13181620311E+03  0.38581647452E+02  0.70163713768E+02  0.23042665135E+03  0.17120000000E+03 0.  0.
        998    1    1    2    0    0 -0.79458161447E+02  0.77959930260E+01  0.11310865068E+04  0.11339449117E+04  0.10000000000E+02 0. -1.
</event>
<event>
 5    1  0.1574792E-008  0.3766595E+03  0.7957747E-01  0.3465834E+00
         13   -1    0    0    0    0  0.00000000000E+00  0.00000000000E+00  0.14999999963E+04  0.15000000000E+04  0.10566000000E+00 0. -1.
        994   -1    0    0    0    0 -0.00000000000E+00 -0.00000000000E+00  0.11368683772E-12  0.17120000000E+03  0.17120000000E+03 0.  0.
         13    1    1    2    0    0 -0.13607259213E+01 -0.27251331889E+02  0.65547436992E+02  0.70999748768E+02  0.10566000000E+00 0. -1.
        994    1    1    2    0    0 -0.40794097166E+02  0.33630622882E+01  0.11513575110E+02  0.17640144830E+03  0.17120000000E+03 0.  0.
        998    1    1    2    0    0  0.42154823087E+02  0.23888269601E+02  0.14229389842E+04  0.14237988029E+04  0.10000000000E+02 0. -1.
</event>
<event>
 5    1  0.1574792E-008  0.3835945E+03  0.7957747E-01  0.3435655E+00
         13   -1    0    0    0    0  0.00000000000E+00  0.00000000000E+00  0.14999999963E+04  0.15000000000E+04  0.10566000000E+00 0. -1.
        994   -1    0    0    0    0 -0.00000000000E+00 -0.00000000000E+00  0.11368683772E-12  0.17120000000E+03  0.17120000000E+03 0.  0.
         13    1    1    2    0    0 -0.10514368767E+02 -0.23545656952E+02  0.13492009194E+03  0.13736226659E+03  0.10566000000E+00 0. -1.
        994    1    1    2    0    0  0.37144970407E+01  0.22898473643E+02  0.41094315112E+01  0.17281338204E+03  0.17120000000E+03 0.  0.
        998    1    1    2    0    0  0.67998717260E+01  0.64718330908E+00  0.13609704728E+04  0.13610243514E+04  0.10000000000E+02 0.  0.
</event>
<event>
 5    1  0.1574792E-008  0.3788372E+03  0.7957747E-01  0.3456237E+00
         13   -1    0    0    0    0  0.00000000000E+00  0.00000000000E+00  0.14999999963E+04  0.15000000000E+04  0.10566000000E+00 0. -1.
        994   -1    0    0    0    0 -0.00000000000E+00 -0.00000000000E+00  0.11368683772E-12  0.17120000000E+03  0.17120000000E+03 0.  0.
         13    1    1    2    0    0  0.12143379453E+02  0.18580595101E+02  0.51558948346E+02  0.56134093895E+02  0.10566000000E+00 0. -1.
        994    1    1    2    0    0 -0.22557121026E+02  0.49776679561E+01  0.65139997028E+01  0.17287415388E+03  0.17120000000E+03 0.  0.
        998    1    1    2    0    0  0.10413741573E+02 -0.23558263057E+02  0.14419270482E+04  0.14421917522E+04  0.10000000000E+02 0. -1.
</event>
<event>
 5    1  0.1574792E-008  0.3703600E+03  0.7957747E-01  0.3494238E+00
         13   -1    0    0    0    0  0.00000000000E+00  0.00000000000E+00  0.14999999963E+04  0.15000000000E+04  0.10566000000E+00 0.  1.
        994   -1    0    0    0    0 -0.00000000000E+00 -0.00000000000E+00  0.11368683772E-12  0.17120000000E+03  0.17120000000E+03 0.  0.
         13    1    1    2    0    0 -0.79537616242E+01 -0.41653776110E+02  0.73396608946E+02  0.84766578066E+02  0.10566000000E+00 0.  1.
        994    1    1    2    0    0  0.10060751783E+02  0.40915840664E+02  0.17369464063E+02  0.17716225057E+03  0.17120000000E+03 0.  0.
        998    1    1    2    0    0 -0.21069901592E+01  0.73793544606E+00  0.14092339233E+04  0.14092711714E+04  0.10000000000E+02 0.  1.
</event>
<event>
 5    1  0.1574792E-008  0.3838711E+03  0.7957747E-01  0.3434474E+00
         13   -1    0    0    0    0  0.00000000000E+00  0.00000000000E+00  0.14999999963E+04  0.15000000000E+04  0.10566000000E+00 0.  1.
        994   -1    0    0    0    0 -0.00000000000E+00 -0.00000000000E+00  0.11368683772E-12  0.17120000000E+03  0.17120000000E+03 0.  0.
         13    1    1    2    0    0  0.96596129936E+01  0.97014429853E+01  0.41646815311E+02  0.43839417295E+02  0.10566000000E+00 0.  1.
        994    1    1    2    0    0 -0.93220343456E+01 -0.78984071204E+01  0.26845377538E+01  0.17165643566E+03  0.17120000000E+03 0.  0.
        998    1    1    2    0    0 -0.33757864800E+00 -0.18030358649E+01  0.14556686432E+04  0.14557041470E+04  0.10000000000E+02 0.  1.
</event>
<event>
 5    1  0.1574792E-008  0.3850430E+03  0.7957747E-01  0.3429490E+00
         13   -1    0    0    0    0  0.00000000000E+00  0.00000000000E+00  0.14999999963E+04  0.15000000000E+04  0.10566000000E+00 0. -1.
        994   -1    0    0    0    0 -0.00000000000E+00 -0.00000000000E+00  0.11368683772E-12  0.17120000000E+03  0.17120000000E+03 0.  0.
         13    1    1    2    0    0  0.36260190643E+01  0.17728394924E+02  0.96160149714E+02  0.97847992100E+02  0.10566000000E+00 0. -1.
        994    1    1    2    0    0 -0.19130017234E+02 -0.15951134922E+02  0.36514541267E+01  0.17304094712E+03  0.17120000000E+03 0.  0.
        998    1    1    2    0    0  0.15503998170E+02 -0.17772600023E+01  0.14001883924E+04  0.14003110608E+04  0.10000000000E+02 0.  1.
</event>
<event>
 5    1  0.1574792E-008  0.3763825E+03  0.7957747E-01  0.3467063E+00
         13   -1    0    0    0    0  0.00000000000E+00  0.00000000000E+00  0.14999999963E+04  0.15000000000E+04  0.10566000000E+00 0. -1.
        994   -1    0    0    0    0 -0.00000000000E+00 -0.00000000000E+00  0.11368683772E-12  0.17120000000E+03  0.17120000000E+03 0.  0.
         13    1    1    2    0    0  0.92991156050E+01 -0.63587539256E+02  0.29860333252E+03  0.30544035434E+03  0.10566000000E+00 0. -1.
        994    1    1    2    0    0 -0.52541952779E+01  0.54684007698E+02  0.16250629420E+02  0.18053107827E+03  0.17120000000E+03 0.  0.
        998    1    1    2    0    0 -0.40449203271E+01  0.89035315582E+01  0.11851460343E+04  0.11852285674E+04  0.10000000000E+02 0. -1.
</event>
<event>
 5    1  0.1574792E-008  0.3847506E+03  0.7957747E-01  0.3430730E+00
         13   -1    0    0    0    0  0.00000000000E+00  0.00000000000E+00  0.14999999963E+04  0.15000000000E+04  0.10566000000E+00 0. -1.
        994   -1    0    0    0    0 -0.00000000000E+00 -0.00000000000E+00  0.11368683772E-12  0.17120000000E+03  0.17120000000E+03 0.  0.
         13    1    1    2    0    0  0.24022936076E+01  0.11325975273E+02  0.38055053957E+02  0.39777468826E+02  0.10566000000E+00 0. -1.
        994    1    1    2    0    0 -0.34487829651E+01 -0.67268066223E+01  0.19420918554E+01  0.17137781581E+03  0.17120000000E+03 0.  0.
        998    1    1    2    0    0  0.10464893575E+01 -0.45991686506E+01  0.14600028505E+04  0.14600447154E+04  0.10000000000E+02 0. -1.
</event>
<event>
 5    1  0.1574792E-008  0.3713204E+03  0.7957747E-01  0.3489844E+00
         13   -1    0    0    0    0  0.00000000000E+00  0.00000000000E+00  0.14999999963E+04  0.15000000000E+04  0.10566000000E+00 0.  1.
        994   -1    0    0    0    0 -0.00000000000E+00 -0.00000000000E+00  0.11368683772E-12  0.17120000000E+03  0.17120000000E+03 0.  0.
         13    1    1    2    0    0 -0.33127198944E+02  0.11453073308E+02  0.46608776312E+02  0.58317865114E+02  0.10566000000E+00 0.  1.
        994    1    1    2    0    0  0.36376110339E+02 -0.88986750698E+01  0.16580384577E+02  0.17603055693E+03  0.17120000000E+03 0.  0.
        998    1    1    2    0    0 -0.32489113956E+01 -0.25543982380E+01  0.14368108354E+04  0.14368515780E+04  0.10000000000E+02 0.  1.
</event>
<event>
 5    1  0.1574792E-008  0.3823730E+03  0.7957747E-01  0.3440891E+00
         13   -1    0    0    0    0  0.00000000000E+00  0.00000000000E+00  0.14999999963E+04  0.15000000000E+04  0.10566000000E+00 0.  1.
        994   -1    0    0    0    0 -0.00000000000E+00 -0.00000000000E+00  0.11368683772E-12  0.17120000000E+03  0.17120000000E+03 0.  0.
         13    1    1    2    0    0  0.11182240935E+02 -0.38683949347E+01  0.22353823806E+02  0.25292520525E+02  0.10566000000E+00 0.  1.
        994    1    1    2    0    0 -0.82856707193E+01  0.16079220209E+02  0.40260667183E+01  0.17220000835E+03  0.17120000000E+03 0.  0.
        998    1    1    2    0    0 -0.28965702162E+01 -0.12210825275E+02  0.14736201058E+04  0.14737074711E+04  0.10000000000E+02 0.  1.
</event>
<event>
 5    1  0.1574792E-008  0.3859588E+03  0.7957747E-01  0.3425616E+00
         13   -1    0    0    0    0  0.00000000000E+00  0.00000000000E+00  0.14999999963E+04  0.15000000000E+04  0.10566000000E+00 0. -1.
        994   -1    0    0    0    0 -0.00000000000E+00 -0.00000000000E+00  0.11368683772E-12  0.17120000000E+03  0.17120000000E+03 0.  0.
         13    1    1    2    0    0 -0.15503761778E+00 -0.12584914173E+02  0.71262510563E+02  0.72365466054E+02  0.10566000000E+00 0. -1.
        994    1    1    2    0    0 -0.44254853708E+00  0.48671804984E+01  0.12331482411E+01  0.17127418355E+03  0.17120000000E+03 0.  0.
        998    1    1    2    0    0  0.59758615487E+00  0.77177336749E+01  0.14275043375E+04  0.14275603504E+04  0.10000000000E+02 0. -1.
</event>
<event>
 5    1  0.1574792E-008  0.3808744E+03  0.7957747E-01  0.3447360E+00
         13   -1    0    0    0    0  0.00000000000E+00  0.00000000000E+00  0.14999999963E+04  0.15000000000E+04  0.10566000000E+00 0. -1.
        994   -1    0    0    0    0 -0.00000000000E+00 -0.00000000000E+00  0.11368683772E-12  0.17120000000E+03  0.17120000000E+03 0.  0.
         13    1    1    2    0    0 -0.74263300330E+02 -0.31487682607E+02  0.48751738147E+03  0.49414544451E+03  0.10566000000E+00 0. -1.
        994    1    1    2    0    0  0.90396845182E+02  0.30001972881E+02  0.34547177110E+02  0.19893379663E+03  0.17120000000E+03 0.  0.
        998    1    1    2    0    0 -0.16133544852E+02  0.14857097260E+01  0.97793543770E+03  0.97812075886E+03  0.10000000000E+02 0. -1.
</event>
<event>
 5    1  0.1574792E-008  0.3825817E+03  0.7957747E-01  0.3439994E+00
         13   -1    0    0    0    0  0.00000000000E+00  0.00000000000E+00  0.14999999963E+04  0.15000000000E+04  0.10566000000E+00 0. -1.
        994   -1    0    0    0    0 -0.00000000000E+00 -0.00000000000E+00  0.11368683772E-12  0.17120000000E+03  0.17120000000E+03 0.  0.
         13    1    1    2    0    0 -0.23384526285E+02 -0.11254912398E+02  0.11351929352E+03  0.11644805833E+03  0.10566000000E+00 0. -1.
        994    1    1    2    0    0  0.21099954226E+02  0.61487750217E+01  0.44382220668E+01  0.17266196257E+03  0.17120000000E+03 0.  0.
        998    1    1    2    0    0  0.22845720597E+01  0.51061373765E+01  0.13820424807E+04  0.13820899791E+04  0.10000000000E+02 0. -1.
</event>
<event>
 5    1  0.1574792E-008  0.3787188E+03  0.7957747E-01  0.3456756E+00
         13   -1    0    0    0    0  0.00000000000E+00  0.00000000000E+00  0.14999999963E+04  0.15000000000E+04  0.10566000000E+00 0. -1.
        994   -1    0    0    0    0 -0.00000000000E+00 -0.00000000000E+00  0.11368683772E-12  0.17120000000E+03  0.17120000000E+03 0.  0.
         13    1    1    2    0    0 -0.51934218950E+01  0.10395590354E+02  0.12181766679E+02  0.16835870433E+02  0.10566000000E+00 0. -1.
        994    1    1    2    0    0  0.81572864862E+01  0.14560120679E+01  0.50118128366E+01  0.17147367017E+03  0.17120000000E+03 0.  0.
        998    1    1    2    0    0 -0.29638645912E+01 -0.11851602422E+02  0.14828064168E+04  0.14828904594E+04  0.10000000000E+02 0. -1.
</event>
<event>
 5    1  0.1574792E-008  0.3754690E+03  0.7957747E-01  0.3471128E+00
         13   -1    0    0    0    0  0.00000000000E+00  0.00000000000E+00  0.14999999963E+04  0.15000000000E+04  0.10566000000E+00 0.  1.
        994   -1    0    0    0    0 -0.00000000000E+00 -0.00000000000E+00  0.11368683772E-12  0.17120000000E+03  0.17120000000E+03 0.  0.
         13    1    1    2    0    0  0.27312361007E+02 -0.36552180305E+02  0.15460235996E+03  0.16119530954E+03  0.10566000000E+00 0.  1.
        994    1    1    2    0    0 -0.31388865729E+02  0.17698025462E+02  0.10857597904E+02  0.17528778745E+03  0.17120000000E+03 0.  0.
        998    1    1    2    0    0  0.40765047226E+01  0.18854154843E+02  0.13345400384E+04  0.13347169030E+04  0.10000000000E+02 0.  1.
</event>
<event>
 5    1  0.1574792E-008  0.3930861E+03  0.7957747E-01  0.3396086E+00
         13   -1    0    0    0    0  0.00000000000E+00  0.00000000000E+00  0.14999999963E+04  0.15000000000E+04  0.10566000000E+00 0. -1.
        994   -1    0    0    0    0 -0.00000000000E+00 -0.00000000000E+00  0.11368683772E-12  0.17120000000E+03  0.17120000000E+03 0.  0.
         13    1    1    2    0    0  0.44330668222E+02 -0.11562075467E+03  0.25524457799E+03  0.28369556361E+03  0.10566000000E+00 0. -1.
        994    1    1    2    0    0 -0.46673038058E+02  0.11631948378E+03  0.86381372870E+02  0.22908464891E+03  0.17120000000E+03 0.  0.
        998    1    1    2    0    0  0.23423698361E+01 -0.69872910897E+00  0.11583740454E+04  0.11584197875E+04  0.10000000000E+02 0.  0.
</event>
<event>
 5    1  0.1574792E-008  0.3821599E+03  0.7957747E-01  0.3441807E+00
         13   -1    0    0    0    0  0.00000000000E+00  0.00000000000E+00  0.14999999963E+04  0.15000000000E+04  0.10566000000E+00 0. -1.
        994   -1    0    0    0    0 -0.00000000000E+00 -0.00000000000E+00  0.11368683772E-12  0.17120000000E+03  0.17120000000E+03 0.  0.
         13    1    1    2    0    0  0.55975439772E+01  0.16966690045E+02  0.51100531660E+02  0.54133876359E+02  0.10566000000E+00 0. -1.
        994    1    1    2    0    0  0.82978859821E+00 -0.13886470053E+02  0.36893948734E+01  0.17180388306E+03  0.17120000000E+03 0.  0.
        998    1    1    2    0    0 -0.64273325754E+01 -0.30802199918E+01  0.14452100697E+04  0.14452622406E+04  0.10000000000E+02 0. -1.
</event>
<event>
 5    1  0.2159064E-008  0.3859430E+03  0.7957747E-01  0.3425683E+00
         13   -1    0    0    0    0  0.00000000000E+00  0.00000000000E+00  0.14999999963E+04  0.15000000000E+04  0.10566000000E+00 0. -1.
        994   -1    0    0    0    0 -0.00000000000E+00 -0.00000000000E+00  0.11368683772E-12  0.17120000000E+03  0.17120000000E+03 0.  0.
         13    1    1    2    0    0 -0.11194093891E+02  0.61927615326E+01  0.69312606910E+02  0.70483378709E+02  0.10566000000E+00 0. -1.
        994    1    1    2    0    0  0.12708145807E+02 -0.16201072251E+01  0.17009599297E+01  0.17168708449E+03  0.17120000000E+03 0.  0.
        998    1    1    2    0    0 -0.15140519157E+01 -0.45726543074E+01  0.14289864294E+04  0.14290295368E+04  0.10000000000E+02 0. -1.
</event>
<event>
 5    1  0.1574792E-008  0.3843721E+03  0.7957747E-01  0.3432339E+00
         13   -1    0    0    0    0  0.00000000000E+00  0.00000000000E+00  0.14999999963E+04  0.15000000000E+04  0.10566000000E+00 0.  1.
        994   -1    0    0    0    0 -0.00000000000E+00 -0.00000000000E+00  0.11368683772E-12  0.17120000000E+03  0.17120000000E+03 0.  0.
         13    1    1    2    0    0 -0.13467356165E+02 -0.57325121431E+01  0.53400135881E+02  0.55369820784E+02  0.10566000000E+00 0.  1.
        994    1    1    2    0    0  0.13169976966E+02  0.66342266413E+01  0.26591292815E+01  0.17185450889E+03  0.17120000000E+03 0.  0.
        998    1    1    2    0    0  0.29737919830E+00 -0.90171449817E+00  0.14439407311E+04  0.14439756703E+04  0.10000000000E+02 0.  1.
</event>
<event>
 5    1  0.1574792E-008  0.3773510E+03  0.7957747E-01  0.3462775E+00
         13   -1    0    0    0    0  0.00000000000E+00  0.00000000000E+00  0.14999999963E+04  0.15000000000E+04  0.10566000000E+00 0.  1.
        994   -1    0    0    0    0 -0.00000000000E+00 -0.00000000000E+00  0.11368683772E-12  0.17120000000E+03  0.17120000000E+03 0.  0.
         13    1    1    2    0    0  0.13130209636E+02  0.17349831863E+02  0.40612708268E+02  0.46074095842E+02  0.10566000000E+00 0.  1.
        994    1    1    2    0    0 -0.15325343822E+02 -0.10958417498E+02  0.66743342792E+01  0.17236281448E+03  0.17120000000E+03 0.  0.
        998    1    1    2    0    0  0.21951341859E+01 -0.63914143653E+01  0.14527129537E+04  0.14527630897E+04  0.10000000000E+02 0.  1.
</event>
<event>
 5    1  0.1574792E-008  0.3830602E+03  0.7957747E-01  0.3437941E+00
         13   -1    0    0    0    0  0.00000000000E+00  0.00000000000E+00  0.14999999963E+04  0.15000000000E+04  0.10566000000E+00 0. -1.
        994   -1    0    0    0    0 -0.00000000000E+00 -0.00000000000E+00  0.11368683772E-12  0.17120000000E+03  0.17120000000E+03 0.  0.
         13    1    1    2    0    0  0.60830782739E+01 -0.15318397886E+02  0.51336849559E+02  0.53917904650E+02  0.10566000000E+00 0. -1.
        994    1    1    2    0    0 -0.94739214726E+00  0.12269771857E+02  0.30976605221E+01  0.17166968385E+03  0.17120000000E+03 0.  0.
        998    1    1    2    0    0 -0.51356861267E+01  0.30486260292E+01  0.14455654862E+04  0.14456124115E+04  0.10000000000E+02 0. -1.
</event>
<event>
 5    1  0.1574792E-008  0.3757669E+03  0.7957747E-01  0.3469800E+00
         13   -1    0    0    0    0  0.00000000000E+00  0.00000000000E+00  0.14999999963E+04  0.15000000000E+04  0.10566000000E+00 0.  1.
        994   -1    0    0    0    0 -0.00000000000E+00 -0.00000000000E+00  0.11368683772E-12  0.17120000000E+03  0.17120000000E+03 0.  0.
         13    1    1    2    0    0 -0.92388139423E+01  0.64526801659E+02  0.37688181451E+03  0.38247742036E+03  0.10566000000E+00 0.  1.
        994    1    1    2    0    0  0.11768795240E+02 -0.23270401715E+02  0.85944097813E+01  0.17338777355E+03  0.17120000000E+03 0.  0.
        998    1    1    2    0    0 -0.25299812976E+01 -0.41256399944E+02  0.11145237720E+04  0.11153348061E+04  0.10000000000E+02 0.  1.
</event>
<event>
 5    1  0.1574792E-008  0.3805846E+03  0.7957747E-01  0.3448617E+00
         13   -1    0    0    0    0  0.00000000000E+00  0.00000000000E+00  0.14999999963E+04  0.15000000000E+04  0.10566000000E+00 0.  1.
        994   -1    0    0    0    0 -0.00000000000E+00 -0.00000000000E+00  0.11368683772E-12  0.17120000000E+03  0.17120000000E+03 0.  0.
         13    1    1    2    0    0 -0.45343407472E+02 -0.46531892083E+00  0.22848500849E+03  0.23294130460E+03  0.10566000000E+00 0.  1.
        994    1    1    2    0    0  0.45277139199E+02  0.12048161235E+02  0.11197439217E+02  0.17784825039E+03  0.17120000000E+03 0.  0.
        998    1    1    2    0    0  0.66268272182E-01 -0.11582842314E+02  0.12603175486E+04  0.12604104450E+04  0.10000000000E+02 0.  1.
</event>
<event>
 5    1  0.1574792E-008  0.3850983E+03  0.7957747E-01  0.3429255E+00
         13   -1    0    0    0    0  0.00000000000E+00  0.00000000000E+00  0.14999999963E+04  0.15000000000E+04  0.10566000000E+00 0. -1.
        994   -1    0    0    0    0 -0.00000000000E+00 -0.00000000000E+00  0.11368683772E-12  0.17120000000E+03  0.17120000000E+03 0.  0.
         13    1    1    2    0    0 -0.10595946570E+02  0.79455398204E+01  0.57323394680E+02  0.58833565492E+02  0.10566000000E+00 0. -1.
        994    1    1    2    0    0  0.58818191323E+01  0.20233503835E+01  0.17085364504E+01  0.17132147805E+03  0.17120000000E+03 0.  0.
        998    1    1    2    0    0  0.47141274375E+01 -0.99688902040E+01  0.14409680651E+04  0.14410449565E+04  0.10000000000E+02 0. -1.
</event>
<event>
 5    1  0.1574792E-008  0.3836251E+03  0.7957747E-01  0.3435524E+00
         13   -1    0    0    0    0  0.00000000000E+00  0.00000000000E+00  0.14999999963E+04  0.15000000000E+04  0.10566000000E+00 0.  1.
        994   -1    0    0    0    0 -0.00000000000E+00 -0.00000000000E+00  0.11368683772E-12  0.17120000000E+03  0.17120000000E+03 0.  0.
         13    1    1    2    0    0 -0.11030236120E+02 -0.11917152750E+02  0.59000552487E+02  0.61194452333E+02  0.10566000000E+00 0.  1.
        994    1    1    2    0    0  0.14740429168E+02 -0.10659942923E+02  0.34082077115E+01  0.17219747534E+03  0.17120000000E+03 0.  0.
        998    1    1    2    0    0 -0.37101930475E+01  0.22577095673E+02  0.14375912361E+04  0.14378080723E+04  0.10000000000E+02 0.  1.
</event>
<event>
 5    1  0.1574792E-008  0.3850132E+03  0.7957747E-01  0.3429616E+00
         13   -1    0    0    0    0  0.00000000000E+00  0.00000000000E+00  0.14999999963E+04  0.15000000000E+04  0.10566000000E+00 0.  1.
        994   -1    0    0    0    0 -0.00000000000E+00 -0.00000000000E+00  0.11368683772E-12  0.17120000000E+03  0.17120000000E+03 0.  0.
         13    1    1    2    0    0  0.87019089964E+01  0.52732835600E+01  0.34433630709E+02  0.35905665674E+02  0.10566000000E+00 0.  1.
        994    1    1    2    0    0  0.10557605737E+02  0.30543802831E+01  0.20209198462E+01  0.17156432145E+03  0.17120000000E+03 0.  0.
        998    1    1    2    0    0 -0.19259514733E+02 -0.83276638430E+01  0.14635454457E+04  0.14637300129E+04  0.10000000000E+02 0.  1.
</event>
<event>
 5    1  0.1574792E-008  0.3823657E+03  0.7957747E-01  0.3440922E+00
         13   -1    0    0    0    0  0.00000000000E+00  0.00000000000E+00  0.14999999963E+04  0.15000000000E+04  0.10566000000E+00 0.  1.
        994   -1    0    0    0    0 -0.00000000000E+00 -0.00000000000E+00  0.11368683772E-12  0.17120000000E+03  0.17120000000E+03 0.  0.
         13    1    1    2    0    0  0.51801087990E+02  0.59200252368E+02  0.37748089763E+03  0.38559027716E+03  0.10566000000E+00 0.  1.
        994    1    1    2    0    0 -0.64403400215E+02 -0.13743216573E+03  0.83539131995E+02  0.24356441594E+03  0.17120000000E+03 0.  0.
        998    1    1    2    0    0  0.12602312224E+02  0.78231913361E+02  0.10389799666E+04  0.10420453069E+04  0.10000000000E+02 0.  1.
</event>
<event>
 5    1  0.1574792E-008  0.3802686E+03  0.7957747E-01  0.3449990E+00
         13   -1    0    0    0    0  0.00000000000E+00  0.00000000000E+00  0.14999999963E+04  0.15000000000E+04  0.10566000000E+00 0. -1.
        994   -1    0    0    0    0 -0.00000000000E+00 -0.00000000000E+00  0.11368683772E-12  0.17120000000E+03  0.17120000000E+03 0.  0.
         13    1    1    2    0    0 -0.19424816535E+02  0.62918927781E+01  0.48774157921E+02  0.52875713301E+02  0.10566000000E+00 0. -1.
        994    1    1    2    0    0  0.22819706768E+02 -0.56456763647E+01  0.58455176337E+01  0.17290524213E+03  0.17120000000E+03 0.  0.
        998    1    1    2    0    0 -0.33948902330E+01 -0.64621641345E+00  0.14453803207E+04  0.14454190446E+04  0.10000000000E+02 0. -1.
</event>
<event>
 5    1  0.1574792E-008  0.3816787E+03  0.7957747E-01  0.3443882E+00
         13   -1    0    0    0    0  0.00000000000E+00  0.00000000000E+00  0.14999999963E+04  0.15000000000E+04  0.10566000000E+00 0.  1.
        994   -1    0    0    0    0 -0.00000000000E+00 -0.00000000000E+00  0.11368683772E-12  0.17120000000E+03  0.17120000000E+03 0.  0.
         13    1    1    2    0    0 -0.25577908835E+01 -0.20415350419E+02  0.63990576363E+02  0.67217065201E+02  0.10566000000E+00 0.  1.
        994    1    1    2    0    0  0.13973369836E+02  0.91202290593E+01  0.42143398815E+01  0.17206287892E+03  0.17120000000E+03 0.  0.
        998    1    1    2    0    0 -0.11415578952E+02  0.11295121360E+02  0.14317950800E+04  0.14319200559E+04  0.10000000000E+02 0.  1.
</event>
<event>
 5    1  0.1574792E-008  0.3695816E+03  0.7957747E-01  0.3497816E+00
         13   -1    0    0    0    0  0.00000000000E+00  0.00000000000E+00  0.14999999963E+04  0.15000000000E+04  0.10566000000E+00 0.  1.
        994   -1    0    0    0    0 -0.00000000000E+00 -0.00000000000E+00  0.11368683772E-12  0.17120000000E+03  0.17120000000E+03 0.  0.
         13    1    1    2    0    0  0.17328431427E+02  0.29307255712E+02  0.55995394604E+02  0.65533847392E+02  0.10566000000E+00 0.  1.
        994    1    1    2    0    0 -0.17454395924E+02 -0.26161121509E+02  0.12920358001E+02  0.17454350709E+03  0.17120000000E+03 0.  0.
        998    1    1    2    0    0  0.12596449722E+00 -0.31461342030E+01  0.14310842437E+04  0.14311226455E+04  0.10000000000E+02 0.  1.
</event>
<event>
 5    1  0.1574792E-008  0.3829630E+03  0.7957747E-01  0.3438357E+00
         13   -1    0    0    0    0  0.00000000000E+00  0.00000000000E+00  0.14999999963E+04  0.15000000000E+04  0.10566000000E+00 0.  1.
        994   -1    0    0    0    0 -0.00000000000E+00 -0.00000000000E+00  0.11368683772E-12  0.17120000000E+03  0.17120000000E+03 0.  0.
         13    1    1    2    0    0 -0.12252010684E+02  0.76218275402E+01  0.37329419407E+02  0.40021253580E+02  0.10566000000E+00 0.  1.
        994    1    1    2    0    0  0.12739480021E+02 -0.12853903976E+02  0.37298410069E+01  0.17219427665E+03  0.17120000000E+03 0.  0.
        998    1    1    2    0    0 -0.48746933748E+00  0.52320764358E+01  0.14589407359E+04  0.14589844698E+04  0.10000000000E+02 0.  1.
</event>
<event>
 5    1  0.1574792E-008  0.3807889E+03  0.7957747E-01  0.3447730E+00
         13   -1    0    0    0    0  0.00000000000E+00  0.00000000000E+00  0.14999999963E+04  0.15000000000E+04  0.10566000000E+00 0. -1.
        994   -1    0    0    0    0 -0.00000000000E+00 -0.00000000000E+00  0.11368683772E-12  0.17120000000E+03  0.17120000000E+03 0.  0.
         13    1    1    2    0    0 -0.20829294233E+02  0.35761798095E+01  0.60100632001E+02  0.63708285892E+02  0.10566000000E+00 0. -1.
        994    1    1    2    0    0  0.68803443263E+01 -0.15388866938E+01  0.39011758286E+01  0.17138951684E+03  0.17120000000E+03 0.  0.
        998    1    1    2    0    0  0.13948949906E+02 -0.20372931156E+01  0.14359981884E+04  0.14361021973E+04  0.10000000000E+02 0. -1.
</event>
<event>
 5    1  0.1574792E-008  0.3779887E+03  0.7957747E-01  0.3459963E+00
         13   -1    0    0    0    0  0.00000000000E+00  0.00000000000E+00  0.14999999963E+04  0.15000000000E+04  0.10566000000E+00 0.  1.
        994   -1    0    0    0    0 -0.00000000000E+00 -0.00000000000E+00  0.11368683772E-12  0.17120000000E+03  0.17120000000E+03 0.  0.
         13    1    1    2    0    0  0.27285771686E+02 -0.28575760139E+02  0.17366437539E+03  0.17810225671E+03  0.10566000000E+00 0.  1.
        994    1    1    2    0    0  0.62076495657E+01  0.56709124941E+01  0.53898317228E+01  0.17149106230E+03  0.17120000000E+03 0.  0.
        998    1    1    2    0    0 -0.33493421251E+02  0.22904847645E+02  0.13209457892E+04  0.13216066810E+04  0.10000000000E+02 0.  1.
</event>
<event>
 5    1  0.1574792E-008  0.3837817E+03  0.7957747E-01  0.3434856E+00
         13   -1    0    0    0    0  0.00000000000E+00  0.00000000000E+00  0.14999999963E+04  0.15000000000E+04  0.10566000000E+00 0. -1.
        994   -1    0    0    0    0 -0.00000000000E+00 -0.00000000000E+00  0.11368683772E-12  0.17120000000E+03  0.17120000000E+03 0.  0.
         13    1    1    2    0    0  0.40798943885E+00  0.10043434241E+02  0.22041386194E+02  0.24225418389E+02  0.10566000000E+00 0. -1.
        994    1    1    2    0    0  0.52141202633E+00 -0.45077631918E+01  0.23042161828E+01  0.17127562936E+03  0.17120000000E+03 0.  0.
        998    1    1    2    0    0 -0.92940146519E+00 -0.55356710492E+01  0.14756543939E+04  0.14756989523E+04  0.10000000000E+02 0. -1.
</event>
<event>
 5    1  0.1574792E-008  0.3759292E+03  0.7957747E-01  0.3469077E+00
         13   -1    0    0    0    0  0.00000000000E+00  0.00000000000E+00  0.14999999963E+04  0.15000000000E+04  0.10566000000E+00 0. -1.
        994   -1    0    0    0    0 -0.00000000000E+00 -0.00000000000E+00  0.11368683772E-12  0.17120000000E+03  0.17120000000E+03 0.  0.
         13    1    1    2    0    0  0.35380174403E+02  0.27667239118E+02  0.19842930924E+03  0.20344885055E+03  0.10566000000E+00 0. -1.
        994    1    1    2    0    0  0.76161962715E+01  0.20185167463E+01  0.64127303613E+01  0.17150114859E+03  0.17120000000E+03 0.  0.
        998    1    1    2    0    0 -0.42996370675E+02 -0.29685755864E+02  0.12951579567E+04  0.12962500009E+04  0.10000000000E+02 0. -1.
</event>
<event>
 5    1  0.1574792E-008  0.3776517E+03  0.7957747E-01  0.3461448E+00
         13   -1    0    0    0    0  0.00000000000E+00  0.00000000000E+00  0.14999999963E+04  0.15000000000E+04  0.10566000000E+00 0. -1.
        994   -1    0    0    0    0 -0.00000000000E+00 -0.00000000000E+00  0.11368683772E-12  0.17120000000E+03  0.17120000000E+03 0.  0.
         13    1    1    2    0    0  0.36403113657E+02  0.22009094560E+02  0.15519979519E+03  0.16092412659E+03  0.10566000000E+00 0. -1.
        994    1    1    2    0    0 -0.28849448107E+02 -0.27751549239E+02  0.10741086256E+02  0.17614553663E+03  0.17120000000E+03 0.  0.
        998    1    1    2    0    0 -0.75536655498E+01  0.57424546786E+01  0.13340591148E+04  0.13341303368E+04  0.10000000000E+02 0. -1.
</event>
<event>
 5    1  0.1574792E-008  0.3823717E+03  0.7957747E-01  0.3440896E+00
         13   -1    0    0    0    0  0.00000000000E+00  0.00000000000E+00  0.14999999963E+04  0.15000000000E+04  0.10566000000E+00 0.  1.
        994   -1    0    0    0    0 -0.00000000000E+00 -0.00000000000E+00  0.11368683772E-12  0.17120000000E+03  0.17120000000E+03 0.  0.
         13    1    1    2    0    0  0.16233330232E+02  0.11723434097E+02  0.70889653028E+02  0.73663518705E+02  0.10566000000E+00 0.  1.
        994    1    1    2    0    0 -0.43409887420E+01  0.18397220157E+01  0.30144326411E+01  0.17129143459E+03  0.17120000000E+03 0.  0.
        998    1    1    2    0    0 -0.11892341490E+02 -0.13563156113E+02  0.14260959106E+04  0.14262450467E+04  0.10000000000E+02 0.  1.
</event>
<event>
 5    1  0.1574792E-008  0.3845125E+03  0.7957747E-01  0.3431742E+00
         13   -1    0    0    0    0  0.00000000000E+00  0.00000000000E+00  0.14999999963E+04  0.15000000000E+04  0.10566000000E+00 0.  1.
        994   -1    0    0    0    0 -0.00000000000E+00 -0.00000000000E+00  0.11368683772E-12  0.17120000000E+03  0.17120000000E+03 0.  0.
         13    1    1    2    0    0  0.48277231393E+01 -0.15149752848E+02  0.70344503580E+02  0.72119222611E+02  0.10566000000E+00 0.  1.
        994    1    1    2    0    0 -0.26056112193E+02 -0.40464080294E+01  0.41659073471E+01  0.17326883501E+03  0.17120000000E+03 0.  0.
        998    1    1    2    0    0  0.21228389054E+02  0.19196160877E+02  0.14254895854E+04  0.14258119424E+04  0.10000000000E+02 0.  1.
</event>
<event>
 5    1  0.1574792E-008  0.3820866E+03  0.7957747E-01  0.3442123E+00
         13   -1    0    0    0    0  0.00000000000E+00  0.00000000000E+00  0.14999999963E+04  0.15000000000E+04  0.10566000000E+00 0.  1.
        994   -1    0    0    0    0 -0.00000000000E+00 -0.00000000000E+00  0.11368683772E-12  0.17120000000E+03  0.17120000000E+03 0.  0.
         13    1    1    2    0    0 -0.13199846914E+03  0.35874367799E+02  0.38461636147E+03  0.40821602467E+03  0.10566000000E+00 0.  1.
        994    1    1    2    0    0  0.12826854129E+03 -0.39153138353E+02  0.86509717962E+02  0.23404947816E+03  0.17120000000E+03 0.  0.
        998    1    1    2    0    0  0.37299278484E+01  0.32787705538E+01  0.10288739168E+04  0.10289344972E+04  0.10000000000E+02 0.  0.
</event>
<event>
 5    1  0.1574792E-008  0.3846681E+03  0.7957747E-01  0.3431081E+00
         13   -1    0    0    0    0  0.00000000000E+00  0.00000000000E+00  0.14999999963E+04  0.15000000000E+04  0.10566000000E+00 0. -1.
        994   -1    0    0    0    0 -0.00000000000E+00 -0.00000000000E+00  0.11368683772E-12  0.17120000000E+03  0.17120000000E+03 0.  0.
         13    1    1    2    0    0 -0.64916945408E+01  0.11581419442E+02  0.48039979513E+02  0.49840968790E+02  0.10566000000E+00 0. -1.
        994    1    1    2    0    0  0.26966295335E+01 -0.12492702744E+02  0.23329616100E+01  0.17169223087E+03  0.17120000000E+03 0.  0.
        998    1    1    2    0    0  0.37950650073E+01  0.91128330204E+00  0.14496270552E+04  0.14496668003E+04  0.10000000000E+02 0. -1.
</event>
<event>
 5    1  0.1574792E-008  0.3851140E+03  0.7957747E-01  0.3429189E+00
         13   -1    0    0    0    0  0.00000000000E+00  0.00000000000E+00  0.14999999963E+04  0.15000000000E+04  0.10566000000E+00 0. -1.
        994   -1    0    0    0    0 -0.00000000000E+00 -0.00000000000E+00  0.11368683772E-12  0.17120000000E+03  0.17120000000E+03 0.  0.
         13    1    1    2    0    0  0.17332556552E+02 -0.59421451990E+01  0.96425784580E+02  0.98151259299E+02  0.10566000000E+00 0. -1.
        994    1    1    2    0    0 -0.19752649620E+02  0.20304383393E+02  0.42159353914E+01  0.17357894245E+03  0.17120000000E+03 0.  0.
        998    1    1    2    0    0  0.24200930677E+01 -0.14362238194E+02  0.13993582763E+04  0.13994697982E+04  0.10000000000E+02 0. -1.
</event>
<event>
 5    1  0.1574792E-008  0.3845564E+03  0.7957747E-01  0.3431556E+00
         13   -1    0    0    0    0  0.00000000000E+00  0.00000000000E+00  0.14999999963E+04  0.15000000000E+04  0.10566000000E+00 0. -1.
        994   -1    0    0    0    0 -0.00000000000E+00 -0.00000000000E+00  0.11368683772E-12  0.17120000000E+03  0.17120000000E+03 0.  0.
         13    1    1    2    0    0  0.10344513712E+00  0.10556440739E+02  0.28725998816E+02  0.30604628963E+02  0.10566000000E+00 0. -1.
        994    1    1    2    0    0  0.15302914091E+02 -0.15653247780E+02  0.34303397449E+01  0.17262795422E+03  0.17120000000E+03 0.  0.
        998    1    1    2    0    0 -0.15406359228E+02  0.50968070406E+01  0.14678436577E+04  0.14679674168E+04  0.10000000000E+02 0. -1.
</event>
<event>
 5    1  0.1574792E-008  0.3715728E+03  0.7957747E-01  0.3488694E+00
         13   -1    0    0    0    0  0.00000000000E+00  0.00000000000E+00  0.14999999963E+04  0.15000000000E+04  0.10566000000E+00 0.  1.
        994   -1    0    0    0    0 -0.00000000000E+00 -0.00000000000E+00  0.11368683772E-12  0.17120000000E+03  0.17120000000E+03 0.  0.
         13    1    1    2    0    0 -0.11106189881E+02  0.34164653995E+02  0.74959659436E+02  0.83123599194E+02  0.10566000000E+00 0.  1.
        994    1    1    2    0    0  0.44428044273E-02 -0.17167316792E+02  0.94634662122E+01  0.17231864083E+03  0.17120000000E+03 0.  0.
        998    1    1    2    0    0  0.11101747076E+02 -0.16997337203E+02  0.14155768706E+04  0.14157577600E+04  0.10000000000E+02 0.  1.
</event>
<event>
 5    1  0.1574792E-008  0.4061685E+03  0.7957747E-01  0.3344573E+00
         13   -1    0    0    0    0  0.00000000000E+00  0.00000000000E+00  0.14999999963E+04  0.15000000000E+04  0.10566000000E+00 0.  1.
        994   -1    0    0    0    0 -0.00000000000E+00 -0.00000000000E+00  0.11368683772E-12  0.17120000000E+03  0.17120000000E+03 0.  0.
         13    1    1    2    0    0  0.36532824647E+02 -0.49645391488E+02  0.42729703656E+02  0.75001006069E+02  0.10566000000E+00 0.  1.
        994    1    1    2    0    0 -0.75918150974E+02  0.66504885842E+02  0.73748900245E+02  0.21197831440E+03  0.17120000000E+03 0.  0.
        998    1    1    2    0    0  0.39385326326E+02 -0.16859494353E+02  0.13835213924E+04  0.13842206795E+04  0.10000000000E+02 0.  1.
</event>
<event>
 5    1  0.1574792E-008  0.3833263E+03  0.7957747E-01  0.3436802E+00
         13   -1    0    0    0    0  0.00000000000E+00  0.00000000000E+00  0.14999999963E+04  0.15000000000E+04  0.10566000000E+00 0. -1.
        994   -1    0    0    0    0 -0.00000000000E+00 -0.00000000000E+00  0.11368683772E-12  0.17120000000E+03  0.17120000000E+03 0.  0.
         13    1    1    2    0    0  0.13187750383E+02  0.10268974851E+01  0.35070933577E+02  0.37482700338E+02  0.10566000000E+00 0. -1.
        994    1    1    2    0    0 -0.68169148213E+01  0.17316210527E+01  0.26269872894E+01  0.17136455264E+03  0.17120000000E+03 0.  0.
        998    1    1    2    0    0 -0.63708355614E+01 -0.27585185378E+01  0.14623020754E+04  0.14623527470E+04  0.10000000000E+02 0. -1.
</event>
<event>
 5    1  0.1574792E-008  0.3755288E+03  0.7957747E-01  0.3470861E+00
         13   -1    0    0    0    0  0.00000000000E+00  0.00000000000E+00  0.14999999963E+04  0.15000000000E+04  0.10566000000E+00 0.  1.
        994   -1    0    0    0    0 -0.00000000000E+00 -0.00000000000E+00  0.11368683772E-12  0.17120000000E+03  0.17120000000E+03 0.  0.
         13    1    1    2    0    0 -0.72873413943E+01 -0.36363288503E+02  0.11136420388E+03  0.11737713221E+03  0.10566000000E+00 0.  1.
        994    1    1    2    0    0  0.11231957791E+02  0.76985850673E+01  0.70368585118E+01  0.17188479417E+03  0.17120000000E+03 0.  0.
        998    1    1    2    0    0 -0.39446163966E+01  0.28664703435E+02  0.13815989339E+04  0.13819380736E+04  0.10000000000E+02 0.  1.
</event>
<event>
 5    1  0.1574792E-008  0.3809231E+03  0.7957747E-01  0.3447149E+00
         13   -1    0    0    0    0  0.00000000000E+00  0.00000000000E+00  0.14999999963E+04  0.15000000000E+04  0.10566000000E+00 0.  1.
        994   -1    0    0    0    0 -0.00000000000E+00 -0.00000000000E+00  0.11368683772E-12  0.17120000000E+03  0.17120000000E+03 0.  0.
         13    1    1    2    0    0 -0.31361497931E+02 -0.15610964150E+01  0.16421031267E+03  0.16718558110E+03  0.10566000000E+00 0.  1.
        994    1    1    2    0    0 -0.98526922994E+01 -0.73401482044E+01  0.41711533161E+01  0.17169097775E+03  0.17120000000E+03 0.  0.
        998    1    1    2    0    0  0.41214190230E+02  0.89012446194E+01  0.13316185303E+04  0.13323234412E+04  0.10000000000E+02 0.  1.
</event>
<event>
 5    1  0.1574792E-008  0.3737484E+03  0.7957747E-01  0.3478839E+00
         13   -1    0    0    0    0  0.00000000000E+00  0.00000000000E+00  0.14999999963E+04  0.15000000000E+04  0.10566000000E+00 0. -1.
        994   -1    0    0    0    0 -0.00000000000E+00 -0.00000000000E+00  0.11368683772E-12  0.17120000000E+03  0.17120000000E+03 0.  0.
         13    1    1    2    0    0 -0.30772220699E+02  0.63873760700E+02  0.38370734773E+03  0.39020267393E+03  0.10566000000E+00 0. -1.
        994    1    1    2    0    0 -0.27121156783E+02 -0.46817263834E+02  0.17382577578E+02  0.18038571823E+03  0.17120000000E+03 0.  0.
        998    1    1    2    0    0  0.57893377482E+02 -0.17056496866E+02  0.10989100710E+04  0.11006116078E+04  0.10000000000E+02 0. -1.
</event>
<event>
 5    1  0.1574792E-008  0.3849092E+03  0.7957747E-01  0.3430057E+00
         13   -1    0    0    0    0  0.00000000000E+00  0.00000000000E+00  0.14999999963E+04  0.15000000000E+04  0.10566000000E+00 0.  1.
        994   -1    0    0    0    0 -0.00000000000E+00 -0.00000000000E+00  0.11368683772E-12  0.17120000000E+03  0.17120000000E+03 0.  0.
         13    1    1    2    0    0 -0.16618787923E+02 -0.69070172642E+01  0.89560765602E+02  0.91351151601E+02  0.10566000000E+00 0.  1.
        994    1    1    2    0    0  0.18524997868E+02  0.13129116457E+02  0.33730305575E+01  0.17273206587E+03  0.17120000000E+03 0.  0.
        998    1    1    2    0    0 -0.19062099453E+01 -0.62220991932E+01  0.14070662001E+04  0.14071167825E+04  0.10000000000E+02 0.  1.
</event>
<event>
 5    1  0.1574792E-008  0.3844088E+03  0.7957747E-01  0.3432183E+00
         13   -1    0    0    0    0  0.00000000000E+00  0.00000000000E+00  0.14999999963E+04  0.15000000000E+04  0.10566000000E+00 0.  1.
        994   -1    0    0    0    0 -0.00000000000E+00 -0.00000000000E+00  0.11368683772E-12  0.17120000000E+03  0.17120000000E+03 0.  0.
         13    1    1    2    0    0  0.35637799534E+01  0.19985583829E+02  0.12126379880E+03  0.12295138939E+03  0.10566000000E+00 0.  1.
        994    1    1    2    0    0  0.88512094471E+01  0.10045568607E+01  0.21854321086E+01  0.17144552825E+03  0.17120000000E+03 0.  0.
        998    1    1    2    0    0 -0.12414989401E+02 -0.20990140690E+02  0.13765507654E+04  0.13768030824E+04  0.10000000000E+02 0.  1.
</event>
<event>
 5    1  0.1574792E-008  0.3725310E+03  0.7957747E-01  0.3484339E+00
         13   -1    0    0    0    0  0.00000000000E+00  0.00000000000E+00  0.14999999963E+04  0.15000000000E+04  0.10566000000E+00 0.  1.
        994   -1    0    0    0    0 -0.00000000000E+00 -0.00000000000E+00  0.11368683772E-12  0.17120000000E+03  0.17120000000E+03 0.  0.
         13    1    1    2    0    0 -0.32448944446E+02  0.62152315419E+01  0.39760785493E+02  0.51696173222E+02  0.10566000000E+00 0.  1.
        994    1    1    2    0    0  0.18205993822E+02 -0.19544904495E+02  0.14804049758E+02  0.17390244792E+03  0.17120000000E+03 0.  0.
        998    1    1    2    0    0  0.14242950624E+02  0.13329672953E+02  0.14454351610E+04  0.14456013789E+04  0.10000000000E+02 0.  1.
</event>
<event>
 5    1  0.1574792E-008  0.2545056E+03  0.7957747E-01  0.4286041E+00
         13   -1    0    0    0    0  0.00000000000E+00  0.00000000000E+00  0.14999999963E+04  0.15000000000E+04  0.10566000000E+00 0.  1.
        994   -1    0    0    0    0 -0.00000000000E+00 -0.00000000000E+00  0.11368683772E-12  0.17120000000E+03  0.17120000000E+03 0.  0.
         13    1    1    2    0    0  0.11248245471E+03  0.13859116375E+03  0.21425928365E+03  0.27886711007E+03  0.10566000000E+00 0.  1.
        994    1    1    2    0    0 -0.95604818747E+02 -0.17993107180E+03  0.28273299012E+03  0.38828192808E+03  0.17120000000E+03 0.  0.
        998    1    1    2    0    0 -0.16877635960E+02  0.41339908052E+02  0.10030077225E+04  0.10040509619E+04  0.10000000000E+02 0.  1.
</event>
<event>
 5    1  0.1574792E-008  0.3762983E+03  0.7957747E-01  0.3467436E+00
         13   -1    0    0    0    0  0.00000000000E+00  0.00000000000E+00  0.14999999963E+04  0.15000000000E+04  0.10566000000E+00 0.  1.
        994   -1    0    0    0    0 -0.00000000000E+00 -0.00000000000E+00  0.11368683772E-12  0.17120000000E+03  0.17120000000E+03 0.  0.
         13    1    1    2    0    0  0.45538710769E+02 -0.16534959079E+02  0.88052543774E+02  0.10050094865E+03  0.10566000000E+00 0.  1.
        994    1    1    2    0    0  0.59384901622E+01 -0.16633599609E+02  0.15424604557E+02  0.17279843960E+03  0.17120000000E+03 0.  0.
        998    1    1    2    0    0 -0.51477200932E+02  0.33168558688E+02  0.13965228479E+04  0.13979006118E+04  0.10000000000E+02 0.  1.
</event>
<event>
 5    1  0.1574792E-008  0.3839319E+03  0.7957747E-01  0.3434215E+00
         13   -1    0    0    0    0  0.00000000000E+00  0.00000000000E+00  0.14999999963E+04  0.15000000000E+04  0.10566000000E+00 0.  1.
        994   -1    0    0    0    0 -0.00000000000E+00 -0.00000000000E+00  0.11368683772E-12  0.17120000000E+03  0.17120000000E+03 0.  0.
         13    1    1    2    0    0 -0.27972829094E+02  0.34099741200E+01  0.16949678680E+03  0.17182339477E+03  0.10566000000E+00 0.  1.
        994    1    1    2    0    0  0.24854579040E+02 -0.66990269043E+01  0.43511480030E+01  0.17317909675E+03  0.17120000000E+03 0.  0.
        998    1    1    2    0    0  0.31182500536E+01  0.32890527843E+01  0.13261520615E+04  0.13261975085E+04  0.10000000000E+02 0.  1.
</event>
<event>
 5    1  0.1574792E-008  0.4334248E+03  0.7957747E-01  0.3247121E+00
         13   -1    0    0    0    0  0.00000000000E+00  0.00000000000E+00  0.14999999963E+04  0.15000000000E+04  0.10566000000E+00 0.  1.
        994   -1    0    0    0    0 -0.00000000000E+00 -0.00000000000E+00  0.11368683772E-12  0.17120000000E+03  0.17120000000E+03 0.  0.
         13    1    1    2    0    0  0.10274484495E+03 -0.66147850565E+02  0.11979133303E+03  0.17111988760E+03  0.10566000000E+00 0.  1.
        994    1    1    2    0    0 -0.11164160908E+03  0.72654550275E+02  0.13651481964E+03  0.25629722694E+03  0.17120000000E+03 0.  0.
        998    1    1    2    0    0  0.88967641331E+01 -0.65066997099E+01  0.12436938436E+04  0.12437828855E+04  0.10000000000E+02 0.  1.
</event>
<event>
 5    1  0.1574792E-008  0.3716350E+03  0.7957747E-01  0.3488410E+00
         13   -1    0    0    0    0  0.00000000000E+00  0.00000000000E+00  0.14999999963E+04  0.15000000000E+04  0.10566000000E+00 0. -1.
        994   -1    0    0    0    0 -0.00000000000E+00 -0.00000000000E+00  0.11368683772E-12  0.17120000000E+03  0.17120000000E+03 0.  0.
         13    1    1    2    0    0  0.11507451310E+02 -0.19334520651E+02  0.16921970181E+02  0.28153318869E+02  0.10566000000E+00 0. -1.
        994    1    1    2    0    0 -0.58002643959E+01 -0.61761289613E+00  0.11925653870E+02  0.17171396487E+03  0.17120000000E+03 0.  0.
        998    1    1    2    0    0 -0.57071869144E+01  0.19952133548E+02  0.14711523722E+04  0.14713327163E+04  0.10000000000E+02 0. -1.
</event>
<event>
 5    1  0.1574792E-008  0.3824008E+03  0.7957747E-01  0.3440771E+00
         13   -1    0    0    0    0  0.00000000000E+00  0.00000000000E+00  0.14999999963E+04  0.15000000000E+04  0.10566000000E+00 0.  1.
        994   -1    0    0    0    0 -0.00000000000E+00 -0.00000000000E+00  0.11368683772E-12  0.17120000000E+03  0.17120000000E+03 0.  0.
         13    1    1    2    0    0 -0.28795938476E+02  0.18594012799E+02  0.28460705989E+02  0.44552961003E+02  0.10566000000E+00 0.  1.
        994    1    1    2    0    0  0.61720773178E+00  0.18496467272E+02  0.18905372154E+02  0.17323207943E+03  0.17120000000E+03 0.  0.
        998    1    1    2    0    0  0.28178730744E+02 -0.37090480071E+02  0.14526339181E+04  0.14534149596E+04  0.10000000000E+02 0.  1.
</event>
<event>
 5    1  0.1574792E-008  0.3710522E+03  0.7957747E-01  0.3491069E+00
         13   -1    0    0    0    0  0.00000000000E+00  0.00000000000E+00  0.14999999963E+04  0.15000000000E+04  0.10566000000E+00 0. -1.
        994   -1    0    0    0    0 -0.00000000000E+00 -0.00000000000E+00  0.11368683772E-12  0.17120000000E+03  0.17120000000E+03 0.  0.
         13    1    1    2    0    0 -0.23990624057E+02  0.53750100514E+02  0.20381720995E+03  0.21214638715E+03  0.10566000000E+00 0. -1.
        994    1    1    2    0    0 -0.56002076357E+02 -0.59983304010E+02  0.32291123167E+02  0.19257825929E+03  0.17120000000E+03 0.  0.
        998    1    1    2    0    0  0.79992700414E+02  0.62332034958E+01  0.12638916632E+04  0.12664753536E+04  0.10000000000E+02 0. -1.
</event>
<event>
 5    1  0.1574792E-008  0.3854825E+03  0.7957747E-01  0.3427628E+00
         13   -1    0    0    0    0  0.00000000000E+00  0.00000000000E+00  0.14999999963E+04  0.15000000000E+04  0.10566000000E+00 0.  1.
        994   -1    0    0    0    0 -0.00000000000E+00 -0.00000000000E+00  0.11368683772E-12  0.17120000000E+03  0.17120000000E+03 0.  0.
         13    1    1    2    0    0  0.73015034682E+00  0.13472988130E+02  0.66953140370E+02  0.68299258401E+02  0.10566000000E+00 0.  1.
        994    1    1    2    0    0 -0.78106155270E+01 -0.60351628602E+01  0.17107264423E+01  0.17149284385E+03  0.17120000000E+03 0.  0.
        998    1    1    2    0    0  0.70804651802E+01 -0.74378252701E+01  0.14313361295E+04  0.14314078978E+04  0.10000000000E+02 0.  1.
</event>
<event>
 5    1  0.1574792E-008  0.3696219E+03  0.7957747E-01  0.3497630E+00
         13   -1    0    0    0    0  0.00000000000E+00  0.00000000000E+00  0.14999999963E+04  0.15000000000E+04  0.10566000000E+00 0.  1.
        994   -1    0    0    0    0 -0.00000000000E+00 -0.00000000000E+00  0.11368683772E-12  0.17120000000E+03  0.17120000000E+03 0.  0.
         13    1    1    2    0    0 -0.34997767865E+02 -0.22084856051E+01  0.62095716713E+02  0.71313465505E+02  0.10566000000E+00 0.  1.
        994    1    1    2    0    0  0.19349955733E+02  0.13204883728E+01  0.10770243497E+02  0.17263140682E+03  0.17120000000E+03 0.  0.
        998    1    1    2    0    0  0.15647812132E+02  0.88799723232E+00  0.14271340361E+04  0.14272551277E+04  0.10000000000E+02 0.  1.
</event>
<event>
 5    1  0.1574792E-008  0.3689800E+03  0.7957747E-01  0.3500592E+00
         13   -1    0    0    0    0  0.00000000000E+00  0.00000000000E+00  0.14999999963E+04  0.15000000000E+04  0.10566000000E+00 0. -1.
        994   -1    0    0    0    0 -0.00000000000E+00 -0.00000000000E+00  0.11368683772E-12  0.17120000000E+03  0.17120000000E+03 0.  0.
         13    1    1    2    0    0  0.67936690976E+02 -0.42395853107E+02  0.42003536191E+03  0.42760088723E+03  0.10566000000E+00 0. -1.
        994    1    1    2    0    0 -0.17769826895E+02 -0.13790178539E+02  0.12164881913E+02  0.17309927823E+03  0.17120000000E+03 0.  0.
        998    1    1    2    0    0 -0.50166864081E+02  0.56186031645E+02  0.10677997525E+04  0.10704998345E+04  0.10000000000E+02 0. -1.
</event>
<event>
 5    1  0.1574792E-008  0.3852354E+03  0.7957747E-01  0.3428675E+00
         13   -1    0    0    0    0  0.00000000000E+00  0.00000000000E+00  0.14999999963E+04  0.15000000000E+04  0.10566000000E+00 0.  1.
        994   -1    0    0    0    0 -0.00000000000E+00 -0.00000000000E+00  0.11368683772E-12  0.17120000000E+03  0.17120000000E+03 0.  0.
         13    1    1    2    0    0  0.14171193816E+02  0.37590527921E+00  0.64901160397E+02  0.66431437015E+02  0.10566000000E+00 0.  1.
        994    1    1    2    0    0 -0.13576622880E+02  0.90678310809E+01  0.23897349397E+01  0.17199331697E+03  0.17120000000E+03 0.  0.
        998    1    1    2    0    0 -0.59457093599E+00 -0.94437363601E+01  0.14327091009E+04  0.14327752460E+04  0.10000000000E+02 0.  1.
</event>
<event>
 5    1  0.1574792E-008  0.3832321E+03  0.7957747E-01  0.3437205E+00
         13   -1    0    0    0    0  0.00000000000E+00  0.00000000000E+00  0.14999999963E+04  0.15000000000E+04  0.10566000000E+00 0.  1.
        994   -1    0    0    0    0 -0.00000000000E+00 -0.00000000000E+00  0.11368683772E-12  0.17120000000E+03  0.17120000000E+03 0.  0.
         13    1    1    2    0    0 -0.88840933421E+01  0.83145427429E+01  0.28040777135E+02  0.30567222345E+02  0.10566000000E+00 0.  1.
        994    1    1    2    0    0  0.92785745397E+01 -0.11136966750E+02  0.32057364356E+01  0.17184248811E+03  0.17120000000E+03 0.  0.
        998    1    1    2    0    0 -0.39448119756E+00  0.28224240070E+01  0.14687534827E+04  0.14687902895E+04  0.10000000000E+02 0.  1.
</event>
<event>
 5    1  0.1574792E-008  0.3754703E+03  0.7957747E-01  0.3471122E+00
         13   -1    0    0    0    0  0.00000000000E+00  0.00000000000E+00  0.14999999963E+04  0.15000000000E+04  0.10566000000E+00 0.  1.
        994   -1    0    0    0    0 -0.00000000000E+00 -0.00000000000E+00  0.11368683772E-12  0.17120000000E+03  0.17120000000E+03 0.  0.
         13    1    1    2    0    0  0.36655867167E+01 -0.12740232053E+02  0.10603259200E+02  0.16976168839E+02  0.10566000000E+00 0.  1.
        994    1    1    2    0    0 -0.52915795623E+01  0.15541000764E+02  0.73526359321E+01  0.17214245489E+03  0.17120000000E+03 0.  0.
        998    1    1    2    0    0  0.16259928456E+01 -0.28007687105E+01  0.14820441011E+04  0.14820813763E+04  0.10000000000E+02 0.  1.
</event>
<event>
 5    1  0.1574792E-008  0.3810380E+03  0.7957747E-01  0.3446651E+00
         13   -1    0    0    0    0  0.00000000000E+00  0.00000000000E+00  0.14999999963E+04  0.15000000000E+04  0.10566000000E+00 0. -1.
        994   -1    0    0    0    0 -0.00000000000E+00 -0.00000000000E+00  0.11368683772E-12  0.17120000000E+03  0.17120000000E+03 0.  0.
         13    1    1    2    0    0  0.10819007455E+02 -0.79353260894E+01  0.22952965231E+02  0.26587028780E+02  0.10566000000E+00 0. -1.
        994    1    1    2    0    0 -0.15920585748E+02  0.73403922839E+01  0.46346541560E+01  0.17215767897E+03  0.17120000000E+03 0.  0.
        998    1    1    2    0    0  0.51015782932E+01  0.59493380550E+00  0.14724123769E+04  0.14724552922E+04  0.10000000000E+02 0. -1.
</event>
<event>
 5    1  0.1574792E-008  0.3829415E+03  0.7957747E-01  0.3438450E+00
         13   -1    0    0    0    0  0.00000000000E+00  0.00000000000E+00  0.14999999963E+04  0.15000000000E+04  0.10566000000E+00 0. -1.
        994   -1    0    0    0    0 -0.00000000000E+00 -0.00000000000E+00  0.11368683772E-12  0.17120000000E+03  0.17120000000E+03 0.  0.
         13    1    1    2    0    0 -0.24373908115E+02 -0.13762372967E+02  0.12815953184E+03  0.13118066577E+03  0.10566000000E+00 0. -1.
        994    1    1    2    0    0  0.33249437633E+02  0.14963027196E+02  0.70694418485E+01  0.17518228876E+03  0.17120000000E+03 0.  0.
        998    1    1    2    0    0 -0.88755295179E+01 -0.12006542297E+01  0.13647710226E+04  0.13648370455E+04  0.10000000000E+02 0. -1.
</event>
<event>
 5    1  0.1574792E-008  0.3849846E+03  0.7957747E-01  0.3429738E+00
         13   -1    0    0    0    0  0.00000000000E+00  0.00000000000E+00  0.14999999963E+04  0.15000000000E+04  0.10566000000E+00 0.  1.
        994   -1    0    0    0    0 -0.00000000000E+00 -0.00000000000E+00  0.11368683772E-12  0.17120000000E+03  0.17120000000E+03 0.  0.
         13    1    1    2    0    0 -0.83209452629E+01  0.77965496111E+01  0.40480653024E+02  0.42056138068E+02  0.10566000000E+00 0.  1.
        994    1    1    2    0    0  0.46985321207E+01  0.42432396290E+00  0.17109930786E+01  0.17127353489E+03  0.17120000000E+03 0.  0.
        998    1    1    2    0    0  0.36224131422E+01 -0.82208735740E+01  0.14578083502E+04  0.14578703270E+04  0.10000000000E+02 0.  1.
</event>
<event>
 5    1  0.1574792E-008  0.3820468E+03  0.7957747E-01  0.3442294E+00
         13   -1    0    0    0    0  0.00000000000E+00  0.00000000000E+00  0.14999999963E+04  0.15000000000E+04  0.10566000000E+00 0. -1.
        994   -1    0    0    0    0 -0.00000000000E+00 -0.00000000000E+00  0.11368683772E-12  0.17120000000E+03  0.17120000000E+03 0.  0.
         13    1    1    2    0    0  0.19069023673E+02 -0.35742721066E+02  0.24451225309E+03  0.24784556249E+03  0.10566000000E+00 0. -1.
        994    1    1    2    0    0 -0.16993865523E+02  0.26345970844E+02  0.63740297167E+01  0.17416362967E+03  0.17120000000E+03 0.  0.
        998    1    1    2    0    0 -0.20751581495E+01  0.93967502225E+01  0.12491137135E+04  0.12491908078E+04  0.10000000000E+02 0. -1.
</event>
<event>
 5    1  0.1574792E-008  0.3819439E+03  0.7957747E-01  0.3442738E+00
         13   -1    0    0    0    0  0.00000000000E+00  0.00000000000E+00  0.14999999963E+04  0.15000000000E+04  0.10566000000E+00 0.  1.
        994   -1    0    0    0    0 -0.00000000000E+00 -0.00000000000E+00  0.11368683772E-12  0.17120000000E+03  0.17120000000E+03 0.  0.
         13    1    1    2    0    0  0.92973301825E+00  0.17256900950E+02  0.45005289308E+02  0.48209462387E+02  0.10566000000E+00 0.  1.
        994    1    1    2    0    0  0.16666741377E+01 -0.18327612830E+02  0.42808518759E+01  0.17223949863E+03  0.17120000000E+03 0.  0.
        998    1    1    2    0    0 -0.25964071560E+01  0.10707118795E+01  0.14507138551E+04  0.14507510390E+04  0.10000000000E+02 0.  1.
</event>
<event>
 5    1  0.1574792E-008  0.3688860E+03  0.7957747E-01  0.3501026E+00
         13   -1    0    0    0    0  0.00000000000E+00  0.00000000000E+00  0.14999999963E+04  0.15000000000E+04  0.10566000000E+00 0. -1.
        994   -1    0    0    0    0 -0.00000000000E+00 -0.00000000000E+00  0.11368683772E-12  0.17120000000E+03  0.17120000000E+03 0.  0.
         13    1    1    2    0    0 -0.10893535386E+02 -0.10281564095E+02  0.61050477486E+01  0.16175983602E+02  0.10566000000E+00 0. -1.
        994    1    1    2    0    0  0.10966039204E+02  0.83156308180E+01  0.11010811436E+02  0.17210485670E+03  0.17120000000E+03 0.  0.
        998    1    1    2    0    0 -0.72503817845E-01  0.19659332766E+01  0.14828841371E+04  0.14829191597E+04  0.10000000000E+02 0. -1.
</event>
<event>
 5    1  0.1574792E-008  0.3797689E+03  0.7957747E-01  0.3452165E+00
         13   -1    0    0    0    0  0.00000000000E+00  0.00000000000E+00  0.14999999963E+04  0.15000000000E+04  0.10566000000E+00 0. -1.
        994   -1    0    0    0    0 -0.00000000000E+00 -0.00000000000E+00  0.11368683772E-12  0.17120000000E+03  0.17120000000E+03 0.  0.
         13    1    1    2    0    0  0.58786509265E+02  0.57212650694E+02  0.25159870093E+03  0.26463381973E+03  0.10566000000E+00 0. -1.
        994    1    1    2    0    0  0.12624777332E+02 -0.21451778677E+02  0.18446589186E+02  0.17398068992E+03  0.17120000000E+03 0.  0.
        998    1    1    2    0    0 -0.71411286597E+02 -0.35760872018E+02  0.12299547062E+04  0.12325854904E+04  0.10000000000E+02 0. -1.
</event>
<event>
 5    1  0.1574792E-008  0.3813517E+03  0.7957747E-01  0.3445294E+00
         13   -1    0    0    0    0  0.00000000000E+00  0.00000000000E+00  0.14999999963E+04  0.15000000000E+04  0.10566000000E+00 0. -1.
        994   -1    0    0    0    0 -0.00000000000E+00 -0.00000000000E+00  0.11368683772E-12  0.17120000000E+03  0.17120000000E+03 0.  0.
         13    1    1    2    0    0  0.81105074087E+01  0.14967489470E+02  0.40893787934E+02  0.44295813877E+02  0.10566000000E+00 0. -1.
        994    1    1    2    0    0 -0.79555651587E+01 -0.72266400498E+01  0.38369191657E+01  0.17157994432E+03  0.17120000000E+03 0.  0.
        998    1    1    2    0    0 -0.15494225000E+00 -0.77408494200E+01  0.14552692892E+04  0.14553242418E+04  0.10000000000E+02 0. -1.
</event>
<event>
 5    1  0.1574792E-008  0.3730552E+03  0.7957747E-01  0.3481966E+00
         13   -1    0    0    0    0  0.00000000000E+00  0.00000000000E+00  0.14999999963E+04  0.15000000000E+04  0.10566000000E+00 0. -1.
        994   -1    0    0    0    0 -0.00000000000E+00 -0.00000000000E+00  0.11368683772E-12  0.17120000000E+03  0.17120000000E+03 0.  0.
         13    1    1    2    0    0  0.28988692722E+02 -0.38828423639E+01  0.55160204563E+02  0.62434606606E+02  0.10566000000E+00 0. -1.
        994    1    1    2    0    0 -0.52699379522E+01 -0.30397168919E+01  0.78074733580E+01  0.17148588503E+03  0.17120000000E+03 0.  0.
        998    1    1    2    0    0 -0.23718754770E+02  0.69225592558E+01  0.14370323184E+04  0.14372795084E+04  0.10000000000E+02 0. -1.
</event>
<event>
 5    1  0.1574792E-008  0.3753028E+03  0.7957747E-01  0.3471870E+00
         13   -1    0    0    0    0  0.00000000000E+00  0.00000000000E+00  0.14999999963E+04  0.15000000000E+04  0.10566000000E+00 0.  1.
        994   -1    0    0    0    0 -0.00000000000E+00 -0.00000000000E+00  0.11368683772E-12  0.17120000000E+03  0.17120000000E+03 0.  0.
         13    1    1    2    0    0 -0.41904936569E+02  0.35524372519E+01  0.12397501771E+03  0.13091394005E+03  0.10566000000E+00 0.  1.
        994    1    1    2    0    0  0.40836076094E+02  0.27177477192E+00  0.12207314994E+02  0.17642595476E+03  0.17120000000E+03 0.  0.
        998    1    1    2    0    0  0.10688604748E+01 -0.38242120238E+01  0.13638176636E+04  0.13638601052E+04  0.10000000000E+02 0.  0.
</event>
<event>
 5    1  0.1574792E-008  0.3811305E+03  0.7957747E-01  0.3446251E+00
         13   -1    0    0    0    0  0.00000000000E+00  0.00000000000E+00  0.14999999963E+04  0.15000000000E+04  0.10566000000E+00 0. -1.
        994   -1    0    0    0    0 -0.00000000000E+00 -0.00000000000E+00  0.11368683772E-12  0.17120000000E+03  0.17120000000E+03 0.  0.
         13    1    1    2    0    0 -0.24130859112E+02  0.68760214906E+01  0.11574168500E+03  0.11843026152E+03  0.10566000000E+00 0. -1.
        994    1    1    2    0    0 -0.38943398385E+02 -0.33588836876E+02  0.12422618988E+02  0.17918861488E+03  0.17120000000E+03 0.  0.
        998    1    1    2    0    0  0.63074257497E+02  0.26712815385E+02  0.13718356923E+04  0.13735811236E+04  0.10000000000E+02 0. -1.
</event>
<event>
 5    1  0.1574792E-008  0.3685794E+03  0.7957747E-01  0.3502445E+00
         13   -1    0    0    0    0  0.00000000000E+00  0.00000000000E+00  0.14999999963E+04  0.15000000000E+04  0.10566000000E+00 0.  1.
        994   -1    0    0    0    0 -0.00000000000E+00 -0.00000000000E+00  0.11368683772E-12  0.17120000000E+03  0.17120000000E+03 0.  0.
         13    1    1    2    0    0  0.17085644241E+02  0.79495472957E+02  0.48110425208E+03  0.48792700478E+03  0.10566000000E+00 0.  1.
        994    1    1    2    0    0 -0.12482176281E+02 -0.30072447718E+01  0.10586494939E+02  0.17200686649E+03  0.17120000000E+03 0.  0.
        998    1    1    2    0    0 -0.46034679603E+01 -0.76488228186E+02  0.10083092493E+04  0.10112661287E+04  0.10000000000E+02 0.  1.
</event>
<event>
 5    1  0.1574792E-008  0.3853200E+03  0.7957747E-01  0.3428316E+00
         13   -1    0    0    0    0  0.00000000000E+00  0.00000000000E+00  0.14999999963E+04  0.15000000000E+04  0.10566000000E+00 0.  1.
        994   -1    0    0    0    0 -0.00000000000E+00 -0.00000000000E+00  0.11368683772E-12  0.17120000000E+03  0.17120000000E+03 0.  0.
         13    1    1    2    0    0 -0.57196876369E+01 -0.19248142952E+02  0.10746866559E+03  0.10932854651E+03  0.10566000000E+00 0.  1.
        994    1    1    2    0    0  0.70201958028E+01  0.42486526678E+02  0.75873031903E+01  0.17669577037E+03  0.17120000000E+03 0.  0.
        998    1    1    2    0    0 -0.13005081659E+01 -0.23238383727E+02  0.13849440275E+04  0.13851756831E+04  0.10000000000E+02 0.  1.
</event>
<event>
 5    1  0.1574792E-008  0.3803881E+03  0.7957747E-01  0.3449470E+00
         13   -1    0    0    0    0  0.00000000000E+00  0.00000000000E+00  0.14999999963E+04  0.15000000000E+04  0.10566000000E+00 0. -1.
        994   -1    0    0    0    0 -0.00000000000E+00 -0.00000000000E+00  0.11368683772E-12  0.17120000000E+03  0.17120000000E+03 0.  0.
         13    1    1    2    0    0  0.22856177586E+02  0.97127994366E+01  0.77036237390E+02  0.80940325932E+02  0.10566000000E+00 0. -1.
        994    1    1    2    0    0 -0.14027342066E+02 -0.59890078771E+01  0.47144312515E+01  0.17194272419E+03  0.17120000000E+03 0.  0.
        998    1    1    2    0    0 -0.88288355202E+01 -0.37237915595E+01  0.14182493276E+04  0.14183169499E+04  0.10000000000E+02 0. -1.
</event>
<event>
 5    1  0.1574792E-008  0.3782343E+03  0.7957747E-01  0.3458883E+00
         13   -1    0    0    0    0  0.00000000000E+00  0.00000000000E+00  0.14999999963E+04  0.15000000000E+04  0.10566000000E+00 0.  1.
        994   -1    0    0    0    0 -0.00000000000E+00 -0.00000000000E+00  0.11368683772E-12  0.17120000000E+03  0.17120000000E+03 0.  0.
         13    1    1    2    0    0  0.16166635000E+02 -0.15714533933E+02  0.46648414354E+02  0.51811122259E+02  0.10566000000E+00 0.  1.
        994    1    1    2    0    0 -0.26369475479E+02  0.11549204169E+02  0.78187764711E+01  0.17377947698E+03  0.17120000000E+03 0.  0.
        998    1    1    2    0    0  0.10202840479E+02  0.41653297641E+01  0.14455328055E+04  0.14456094008E+04  0.10000000000E+02 0.  1.
</event>
<event>
 5    1  0.1574792E-008  0.3849330E+03  0.7957747E-01  0.3429956E+00
         13   -1    0    0    0    0  0.00000000000E+00  0.00000000000E+00  0.14999999963E+04  0.15000000000E+04  0.10566000000E+00 0. -1.
        994   -1    0    0    0    0 -0.00000000000E+00 -0.00000000000E+00  0.11368683772E-12  0.17120000000E+03  0.17120000000E+03 0.  0.
         13    1    1    2    0    0 -0.42287744812E+01  0.17484406113E+02  0.99755613252E+02  0.10136459209E+03  0.10566000000E+00 0. -1.
        994    1    1    2    0    0  0.41824878446E+01 -0.75167882673E+01  0.19068334231E+01  0.17142657706E+03  0.17120000000E+03 0.  0.
        998    1    1    2    0    0  0.46286636605E-01 -0.99676178458E+01  0.13983375496E+04  0.13984088308E+04  0.10000000000E+02 0. -1.
</event>
<event>
 5    1  0.1574792E-008  0.3765215E+03  0.7957747E-01  0.3466446E+00
         13   -1    0    0    0    0  0.00000000000E+00  0.00000000000E+00  0.14999999963E+04  0.15000000000E+04  0.10566000000E+00 0.  1.
        994   -1    0    0    0    0 -0.00000000000E+00 -0.00000000000E+00  0.11368683772E-12  0.17120000000E+03  0.17120000000E+03 0.  0.
         13    1    1    2    0    0 -0.59070521925E+00 -0.15471096282E+02  0.17768123805E+02  0.23567374492E+02  0.10566000000E+00 0.  1.
        994    1    1    2    0    0  0.68179291530E+00  0.10992352364E+02  0.63098095213E+01  0.17166988772E+03  0.17120000000E+03 0.  0.
        998    1    1    2    0    0 -0.91087696050E-01  0.44787439183E+01  0.14759220630E+04  0.14759627378E+04  0.10000000000E+02 0.  1.
</event>
<event>
 5    1  0.1574792E-008  0.3763106E+03  0.7957747E-01  0.3467382E+00
         13   -1    0    0    0    0  0.00000000000E+00  0.00000000000E+00  0.14999999963E+04  0.15000000000E+04  0.10566000000E+00 0.  1.
        994   -1    0    0    0    0 -0.00000000000E+00 -0.00000000000E+00  0.11368683772E-12  0.17120000000E+03  0.17120000000E+03 0.  0.
         13    1    1    2    0    0 -0.64693779049E+02  0.12189595942E+03  0.56544159177E+03  0.58203789811E+03  0.10566000000E+00 0.  1.
        994    1    1    2    0    0  0.51446171359E+02 -0.85898556602E+02  0.51089572002E+02  0.20480443096E+03  0.17120000000E+03 0.  0.
        998    1    1    2    0    0  0.13247607690E+02 -0.35997402816E+02  0.88346883251E+03  0.88435767093E+03  0.10000000000E+02 0.  1.
</event>
<event>
 5    1  0.1574792E-008  0.3712394E+03  0.7957747E-01  0.3490214E+00
         13   -1    0    0    0    0  0.00000000000E+00  0.00000000000E+00  0.14999999963E+04  0.15000000000E+04  0.10566000000E+00 0. -1.
        994   -1    0    0    0    0 -0.00000000000E+00 -0.00000000000E+00  0.11368683772E-12  0.17120000000E+03  0.17120000000E+03 0.  0.
         13    1    1    2    0    0  0.68412460027E+02 -0.62492358654E+02  0.41544284812E+03  0.42565047962E+03  0.10566000000E+00 0. -1.
        994    1    1    2    0    0 -0.21135983645E+02  0.32020367850E+02  0.16782065747E+02  0.17624730209E+03  0.17120000000E+03 0.  0.
        998    1    1    2    0    0 -0.47276476382E+02  0.30471990804E+02  0.10677750824E+04  0.10693022183E+04  0.10000000000E+02 0. -1.
</event>
<event>
 5    1  0.1574792E-008  0.3714021E+03  0.7957747E-01  0.3489472E+00
         13   -1    0    0    0    0  0.00000000000E+00  0.00000000000E+00  0.14999999963E+04  0.15000000000E+04  0.10566000000E+00 0. -1.
        994   -1    0    0    0    0 -0.00000000000E+00 -0.00000000000E+00  0.11368683772E-12  0.17120000000E+03  0.17120000000E+03 0.  0.
         13    1    1    2    0    0 -0.90410676893E+00 -0.37548568422E+02  0.57235950387E+02  0.68459313321E+02  0.10566000000E+00 0. -1.
        994    1    1    2    0    0  0.68341490643E+01  0.17499380527E+02  0.12923012974E+02  0.17271183566E+03  0.17120000000E+03 0.  0.
        998    1    1    2    0    0 -0.59300422954E+01  0.20049187895E+02  0.14298410329E+04  0.14300288510E+04  0.10000000000E+02 0. -1.
</event>
<event>
 5    1  0.1574792E-008  0.3854574E+03  0.7957747E-01  0.3427735E+00
         13   -1    0    0    0    0  0.00000000000E+00  0.00000000000E+00  0.14999999963E+04  0.15000000000E+04  0.10566000000E+00 0. -1.
        994   -1    0    0    0    0 -0.00000000000E+00 -0.00000000000E+00  0.11368683772E-12  0.17120000000E+03  0.17120000000E+03 0.  0.
         13    1    1    2    0    0  0.34750340097E+01 -0.15343089603E+02  0.85418443500E+02  0.86855097225E+02  0.10566000000E+00 0. -1.
        994    1    1    2    0    0 -0.15566867436E+02  0.12025342981E+02  0.26748605043E+01  0.17234712389E+03  0.17120000000E+03 0.  0.
        998    1    1    2    0    0  0.12091833427E+02  0.33177466221E+01  0.14119066923E+04  0.14119977789E+04  0.10000000000E+02 0. -1.
</event>
<event>
 5    1  0.1574792E-008  0.3731672E+03  0.7957747E-01  0.3481460E+00
         13   -1    0    0    0    0  0.00000000000E+00  0.00000000000E+00  0.14999999963E+04  0.15000000000E+04  0.10566000000E+00 0.  1.
        994   -1    0    0    0    0 -0.00000000000E+00 -0.00000000000E+00  0.11368683772E-12  0.17120000000E+03  0.17120000000E+03 0.  0.
         13    1    1    2    0    0 -0.26534393087E+02  0.33258811818E+02  0.11173872931E+03  0.11956495043E+03  0.10566000000E+00 0.  1.
        994    1    1    2    0    0  0.18463659827E+02 -0.30032110773E+02  0.11885720613E+02  0.17519573273E+03  0.17120000000E+03 0.  0.
        998    1    1    2    0    0  0.80707332603E+01 -0.32267010453E+01  0.13763755464E+04  0.13764393168E+04  0.10000000000E+02 0.  1.
</event>
<event>
 5    1  0.1574792E-008  0.3788778E+03  0.7957747E-01  0.3456059E+00
         13   -1    0    0    0    0  0.00000000000E+00  0.00000000000E+00  0.14999999963E+04  0.15000000000E+04  0.10566000000E+00 0.  1.
        994   -1    0    0    0    0 -0.00000000000E+00 -0.00000000000E+00  0.11368683772E-12  0.17120000000E+03  0.17120000000E+03 0.  0.
         13    1    1    2    0    0  0.24148039574E+02  0.26536639505E+02  0.12822684725E+03  0.13315200551E+03  0.10566000000E+00 0.  1.
        994    1    1    2    0    0 -0.17083789838E+02 -0.26581653321E+02  0.80580919379E+01  0.17427797627E+03  0.17120000000E+03 0.  0.
        998    1    1    2    0    0 -0.70642497361E+01  0.45013816619E-01  0.13637150571E+04  0.13637700182E+04  0.10000000000E+02 0.  1.
</event>
<event>
 5    1  0.1574792E-008  0.3838851E+03  0.7957747E-01  0.3434414E+00
         13   -1    0    0    0    0  0.00000000000E+00  0.00000000000E+00  0.14999999963E+04  0.15000000000E+04  0.10566000000E+00 0. -1.
        994   -1    0    0    0    0 -0.00000000000E+00 -0.00000000000E+00  0.11368683772E-12  0.17120000000E+03  0.17120000000E+03 0.  0.
         13    1    1    2    0    0 -0.12198966973E+02 -0.32271701718E+01  0.35738010480E+02  0.37900474663E+02  0.10566000000E+00 0. -1.
        994    1    1    2    0    0  0.10698645817E+02 -0.37965085098E+01  0.26101383470E+01  0.17159582548E+03  0.17120000000E+03 0.  0.
        998    1    1    2    0    0  0.15003211557E+01  0.70236786816E+01  0.14616518475E+04  0.14617036999E+04  0.10000000000E+02 0. -1.
</event>
<event>
 5    1  0.1574792E-008  0.3858785E+03  0.7957747E-01  0.3425955E+00
         13   -1    0    0    0    0  0.00000000000E+00  0.00000000000E+00  0.14999999963E+04  0.15000000000E+04  0.10566000000E+00 0.  1.
        994   -1    0    0    0    0 -0.00000000000E+00 -0.00000000000E+00  0.11368683772E-12  0.17120000000E+03  0.17120000000E+03 0.  0.
         13    1    1    2    0    0  0.78099078459E+01  0.10853620853E+02  0.72503810604E+02  0.73726585858E+02  0.10566000000E+00 0.  1.
        994    1    1    2    0    0 -0.13594628158E+02 -0.77810430183E+01  0.19996147092E+01  0.17192671987E+03  0.17120000000E+03 0.  0.
        998    1    1    2    0    0  0.57847203118E+01 -0.30725778346E+01  0.14254965710E+04  0.14255466943E+04  0.10000000000E+02 0.  1.
</event>
<event>
 5    1  0.1574792E-008  0.3818956E+03  0.7957747E-01  0.3442946E+00
         13   -1    0    0    0    0  0.00000000000E+00  0.00000000000E+00  0.14999999963E+04  0.15000000000E+04  0.10566000000E+00 0.  1.
        994   -1    0    0    0    0 -0.00000000000E+00 -0.00000000000E+00  0.11368683772E-12  0.17120000000E+03  0.17120000000E+03 0.  0.
         13    1    1    2    0    0  0.15072966745E+02  0.24762125059E+01  0.36390799726E+02  0.39466788869E+02  0.10566000000E+00 0.  1.
        994    1    1    2    0    0 -0.64907787831E+01  0.15388308377E+02  0.41065133835E+01  0.17206171479E+03  0.17120000000E+03 0.  0.
        998    1    1    2    0    0 -0.85821879619E+01 -0.17864520883E+02  0.14595026832E+04  0.14596714963E+04  0.10000000000E+02 0.  1.
</event>
<event>
 5    1  0.1574792E-008  0.3687213E+03  0.7957747E-01  0.3501788E+00
         13   -1    0    0    0    0  0.00000000000E+00  0.00000000000E+00  0.14999999963E+04  0.15000000000E+04  0.10566000000E+00 0. -1.
        994   -1    0    0    0    0 -0.00000000000E+00 -0.00000000000E+00  0.11368683772E-12  0.17120000000E+03  0.17120000000E+03 0.  0.
         13    1    1    2    0    0 -0.40886971632E+02  0.11375192859E+02  0.80462926982E+02  0.90969408289E+02  0.10566000000E+00 0. -1.
        994    1    1    2    0    0  0.38863889806E+02 -0.11354568317E+02  0.15991504018E+02  0.17664794466E+03  0.17120000000E+03 0.  0.
        998    1    1    2    0    0  0.20230818259E+01 -0.20624541254E-01  0.14035455653E+04  0.14035826470E+04  0.10000000000E+02 0.  0.
</event>
<event>
 5    1  0.1574792E-008  0.3843428E+03  0.7957747E-01  0.3432464E+00
         13   -1    0    0    0    0  0.00000000000E+00  0.00000000000E+00  0.14999999963E+04  0.15000000000E+04  0.10566000000E+00 0.  1.
        994   -1    0    0    0    0 -0.00000000000E+00 -0.00000000000E+00  0.11368683772E-12  0.17120000000E+03  0.17120000000E+03 0.  0.
         13    1    1    2    0    0  0.10701563407E+02  0.39713622640E+01  0.33216994216E+02  0.35123710601E+02  0.10566000000E+00 0.  1.
        994    1    1    2    0    0 -0.71560686580E+01  0.45317599711E+01  0.21932681423E+01  0.17142344236E+03  0.17120000000E+03 0.  0.
        998    1    1    2    0    0 -0.35454947494E+01 -0.85031222350E+01  0.14645897339E+04  0.14646528470E+04  0.10000000000E+02 0.  1.
</event>
<event>
 5    1  0.1574792E-008  0.3847015E+03  0.7957747E-01  0.3430939E+00
         13   -1    0    0    0    0  0.00000000000E+00  0.00000000000E+00  0.14999999963E+04  0.15000000000E+04  0.10566000000E+00 0. -1.
        994   -1    0    0    0    0 -0.00000000000E+00 -0.00000000000E+00  0.11368683772E-12  0.17120000000E+03  0.17120000000E+03 0.  0.
         13    1    1    2    0    0 -0.13897109731E+02 -0.10700950927E+02  0.84202925473E+02  0.86010370491E+02  0.10566000000E+00 0. -1.
        994    1    1    2    0    0  0.62561002529E+01  0.16663421039E+02  0.28219694350E+01  0.17214590295E+03  0.17120000000E+03 0.  0.
        998    1    1    2    0    0  0.76410094779E+01 -0.59624701116E+01  0.14129751014E+04  0.14130437266E+04  0.10000000000E+02 0. -1.
</event>
<event>
 5    1  0.1574792E-008  0.3787212E+03  0.7957747E-01  0.3456746E+00
         13   -1    0    0    0    0  0.00000000000E+00  0.00000000000E+00  0.14999999963E+04  0.15000000000E+04  0.10566000000E+00 0. -1.
        994   -1    0    0    0    0 -0.00000000000E+00 -0.00000000000E+00  0.11368683772E-12  0.17120000000E+03  0.17120000000E+03 0.  0.
         13    1    1    2    0    0  0.22895905337E+02  0.16699519601E+02  0.88197400102E+02  0.92638485442E+02  0.10566000000E+00 0. -1.
        994    1    1    2    0    0 -0.49507914945E+01  0.26581376252E+01  0.48860742435E+01  0.17136186785E+03  0.17120000000E+03 0.  0.
        998    1    1    2    0    0 -0.17945113843E+02 -0.19357657226E+02  0.14069165219E+04  0.14071996467E+04  0.10000000000E+02 0. -1.
</event>
<event>
 5    1  0.1574792E-008  0.3815750E+03  0.7957747E-01  0.3444329E+00
         13   -1    0    0    0    0  0.00000000000E+00  0.00000000000E+00  0.14999999963E+04  0.15000000000E+04  0.10566000000E+00 0. -1.
        994   -1    0    0    0    0 -0.00000000000E+00 -0.00000000000E+00  0.11368683772E-12  0.17120000000E+03  0.17120000000E+03 0.  0.
         13    1    1    2    0    0  0.44489839630E+01 -0.20698433145E+02  0.64696662451E+02  0.68072666242E+02  0.10566000000E+00 0. -1.
        994    1    1    2    0    0  0.73530035387E+01  0.19812588970E+02  0.48268360219E+01  0.17256692525E+03  0.17120000000E+03 0.  0.
        998    1    1    2    0    0 -0.11801987502E+02  0.88584417476E+00  0.14304764978E+04  0.14305604085E+04  0.10000000000E+02 0. -1.
</event>
<event>
 5    1  0.1574792E-008  0.3808857E+03  0.7957747E-01  0.3447311E+00
         13   -1    0    0    0    0  0.00000000000E+00  0.00000000000E+00  0.14999999963E+04  0.15000000000E+04  0.10566000000E+00 0.  1.
        994   -1    0    0    0    0 -0.00000000000E+00 -0.00000000000E+00  0.11368683772E-12  0.17120000000E+03  0.17120000000E+03 0.  0.
         13    1    1    2    0    0 -0.24183338679E+02 -0.61714548574E+00  0.80769058073E+02  0.84314095170E+02  0.10566000000E+00 0.  1.
        994    1    1    2    0    0  0.84616136472E+01 -0.70874807151E+01  0.40929273995E+01  0.17160426377E+03  0.17120000000E+03 0.  0.
        998    1    1    2    0    0  0.15721725031E+02  0.77046262009E+01  0.14151380108E+04  0.14152816411E+04  0.10000000000E+02 0.  1.
</event>
<event>
 5    1  0.1574792E-008  0.3816284E+03  0.7957747E-01  0.3444099E+00
         13   -1    0    0    0    0  0.00000000000E+00  0.00000000000E+00  0.14999999963E+04  0.15000000000E+04  0.10566000000E+00 0.  1.
        994   -1    0    0    0    0 -0.00000000000E+00 -0.00000000000E+00  0.11368683772E-12  0.17120000000E+03  0.17120000000E+03 0.  0.
         13    1    1    2    0    0  0.33831187285E+02  0.83580796204E+01  0.15193566286E+03  0.15588092745E+03  0.10566000000E+00 0.  1.
        994    1    1    2    0    0 -0.52411064940E+02  0.12722821480E+02  0.13046277263E+02  0.17996787287E+03  0.17120000000E+03 0.  0.
        998    1    1    2    0    0  0.18579877654E+02 -0.21080901101E+02  0.13350180562E+04  0.13353511997E+04  0.10000000000E+02 0.  1.
</event>
<event>
 5    1  0.1574792E-008  0.3838870E+03  0.7957747E-01  0.3434406E+00
         13   -1    0    0    0    0  0.00000000000E+00  0.00000000000E+00  0.14999999963E+04  0.15000000000E+04  0.10566000000E+00 0. -1.
        994   -1    0    0    0    0 -0.00000000000E+00 -0.00000000000E+00  0.11368683772E-12  0.17120000000E+03  0.17120000000E+03 0.  0.
         13    1    1    2    0    0  0.23870684561E+02  0.36206223869E+01  0.12312604940E+03  0.12547092768E+03  0.10566000000E+00 0. -1.
        994    1    1    2    0    0 -0.25720282981E+02  0.23894562866E+01  0.43890882416E+01  0.17319337907E+03  0.17120000000E+03 0.  0.
        998    1    1    2    0    0  0.18495984201E+01 -0.60100786735E+01  0.13724848586E+04  0.13725356932E+04  0.10000000000E+02 0. -1.
</event>
<event>
 5    1  0.1574792E-008  0.3693796E+03  0.7957747E-01  0.3498747E+00
         13   -1    0    0    0    0  0.00000000000E+00  0.00000000000E+00  0.14999999963E+04  0.15000000000E+04  0.10566000000E+00 0.  1.
        994   -1    0    0    0    0 -0.00000000000E+00 -0.00000000000E+00  0.11368683772E-12  0.17120000000E+03  0.17120000000E+03 0.  0.
         13    1    1    2    0    0  0.47646767993E+02 -0.10437670266E+02  0.11390241986E+03  0.12390694845E+03  0.10566000000E+00 0.  1.
        994    1    1    2    0    0 -0.43751124523E+02  0.10429398908E+02  0.16636156400E+02  0.17778958057E+03  0.17120000000E+03 0.  0.
        998    1    1    2    0    0 -0.38956434707E+01  0.82713580096E-02  0.13694614200E+04  0.13695034710E+04  0.10000000000E+02 0.  1.
</event>
<event>
 5    1  0.1574792E-008  0.3815089E+03  0.7957747E-01  0.3444615E+00
         13   -1    0    0    0    0  0.00000000000E+00  0.00000000000E+00  0.14999999963E+04  0.15000000000E+04  0.10566000000E+00 0.  1.
        994   -1    0    0    0    0 -0.00000000000E+00 -0.00000000000E+00  0.11368683772E-12  0.17120000000E+03  0.17120000000E+03 0.  0.
         13    1    1    2    0    0 -0.90503700557E+01  0.16907455709E+02  0.53536394712E+02  0.56867635607E+02  0.10566000000E+00 0.  1.
        994    1    1    2    0    0  0.85714431538E+01 -0.85555628855E+01  0.38614004738E+01  0.17167124893E+03  0.17120000000E+03 0.  0.
        998    1    1    2    0    0  0.47892690199E+00 -0.83518928239E+01  0.14426022011E+04  0.14426611155E+04  0.10000000000E+02 0.  1.
</event>
<event>
 5    1  0.1574792E-008  0.3788010E+03  0.7957747E-01  0.3456396E+00
         13   -1    0    0    0    0  0.00000000000E+00  0.00000000000E+00  0.14999999963E+04  0.15000000000E+04  0.10566000000E+00 0. -1.
        994   -1    0    0    0    0 -0.00000000000E+00 -0.00000000000E+00  0.11368683772E-12  0.17120000000E+03  0.17120000000E+03 0.  0.
         13    1    1    2    0    0 -0.26250497026E+02 -0.36212039916E+01  0.69762234229E+02  0.74625613572E+02  0.10566000000E+00 0. -1.
        994    1    1    2    0    0  0.25824701337E+02 -0.18312920770E+00  0.69812538350E+01  0.17327759994E+03  0.17120000000E+03 0.  0.
        998    1    1    2    0    0  0.42579568902E+00  0.38043331993E+01  0.14232565082E+04  0.14232967865E+04  0.10000000000E+02 0. -1.
</event>
<event>
 5    1  0.1574792E-008  0.3949278E+03  0.7957747E-01  0.3388628E+00
         13   -1    0    0    0    0  0.00000000000E+00  0.00000000000E+00  0.14999999963E+04  0.15000000000E+04  0.10566000000E+00 0. -1.
        994   -1    0    0    0    0 -0.00000000000E+00 -0.00000000000E+00  0.11368683772E-12  0.17120000000E+03  0.17120000000E+03 0.  0.
         13    1    1    2    0    0 -0.16448348655E+02  0.82405299289E+01 -0.41858203301E+01  0.18867611477E+02  0.10566000000E+00 0. -1.
        994    1    1    2    0    0  0.97428683555E+01 -0.14123490902E+02  0.25912072041E+02  0.17399790791E+03  0.17120000000E+03 0.  0.
        998    1    1    2    0    0  0.67054802991E+01  0.58829609729E+01  0.14782737446E+04  0.14783344806E+04  0.10000000000E+02 0. -1.
</event>
<event>
 5    1  0.1574792E-008  0.3753621E+03  0.7957747E-01  0.3471605E+00
         13   -1    0    0    0    0  0.00000000000E+00  0.00000000000E+00  0.14999999963E+04  0.15000000000E+04  0.10566000000E+00 0. -1.
        994   -1    0    0    0    0 -0.00000000000E+00 -0.00000000000E+00  0.11368683772E-12  0.17120000000E+03  0.17120000000E+03 0.  0.
         13    1    1    2    0    0  0.35028741174E+01  0.17563270947E+02  0.21737945244E+02  0.28165369533E+02  0.10566000000E+00 0. -1.
        994    1    1    2    0    0 -0.14251952371E+01 -0.16334055979E+02  0.74061364216E+01  0.17214274142E+03  0.17120000000E+03 0.  0.
        998    1    1    2    0    0 -0.20776788803E+01 -0.12292149680E+01  0.14708559146E+04  0.14708918890E+04  0.10000000000E+02 0. -1.
</event>
<event>
 5    1  0.1574792E-008  0.3847265E+03  0.7957747E-01  0.3430833E+00
         13   -1    0    0    0    0  0.00000000000E+00  0.00000000000E+00  0.14999999963E+04  0.15000000000E+04  0.10566000000E+00 0. -1.
        994   -1    0    0    0    0 -0.00000000000E+00 -0.00000000000E+00  0.11368683772E-12  0.17120000000E+03  0.17120000000E+03 0.  0.
         13    1    1    2    0    0  0.14567333518E+01  0.15957958086E+02  0.69927005901E+02  0.71739639089E+02  0.10566000000E+00 0. -1.
        994    1    1    2    0    0 -0.18819954018E+01 -0.16305902600E+02  0.26532988743E+01  0.17200553584E+03  0.17120000000E+03 0.  0.
        998    1    1    2    0    0  0.42526204992E+00  0.34794451355E+00  0.14274196915E+04  0.14274548251E+04  0.10000000000E+02 0. -1.
</event>
<event>
 5    1  0.1574792E-008  0.3848814E+03  0.7957747E-01  0.3430175E+00
         13   -1    0    0    0    0  0.00000000000E+00  0.00000000000E+00  0.14999999963E+04  0.15000000000E+04  0.10566000000E+00 0.  1.
        994   -1    0    0    0    0 -0.00000000000E+00 -0.00000000000E+00  0.11368683772E-12  0.17120000000E+03  0.17120000000E+03 0.  0.
         13    1    1    2    0    0  0.23068557555E+01  0.16516440565E+02  0.88324919192E+02  0.89885576745E+02  0.10566000000E+00 0.  1.
        994    1    1    2    0    0 -0.45263929278E+01 -0.59695636889E+00  0.17576181399E+01  0.17126988589E+03  0.17120000000E+03 0.  0.
        998    1    1    2    0    0  0.22195371722E+01 -0.15919484196E+02  0.14099174589E+04  0.14100445374E+04  0.10000000000E+02 0.  1.
</event>
<event>
 5    1  0.1574792E-008  0.3743058E+03  0.7957747E-01  0.3476333E+00
         13   -1    0    0    0    0  0.00000000000E+00  0.00000000000E+00  0.14999999963E+04  0.15000000000E+04  0.10566000000E+00 0.  1.
        994   -1    0    0    0    0 -0.00000000000E+00 -0.00000000000E+00  0.11368683772E-12  0.17120000000E+03  0.17120000000E+03 0.  0.
         13    1    1    2    0    0  0.80940431237E+01  0.14728974044E+02  0.17335299008E+02  0.24144978074E+02  0.10566000000E+00 0.  1.
        994    1    1    2    0    0 -0.12969283813E+02  0.24832714821E+01  0.76299861871E+01  0.17187793823E+03  0.17120000000E+03 0.  0.
        998    1    1    2    0    0  0.48752406892E+01 -0.17212245527E+02  0.14750347111E+04  0.14751770837E+04  0.10000000000E+02 0.  1.
</event>
<event>
 5    1  0.1574792E-008  0.3701688E+03  0.7957747E-01  0.3495116E+00
         13   -1    0    0    0    0  0.00000000000E+00  0.00000000000E+00  0.14999999963E+04  0.15000000000E+04  0.10566000000E+00 0.  1.
        994   -1    0    0    0    0 -0.00000000000E+00 -0.00000000000E+00  0.11368683772E-12  0.17120000000E+03  0.17120000000E+03 0.  0.
         13    1    1    2    0    0  0.32657452759E+02 -0.11676709766E+02  0.62555182074E+02  0.71526335989E+02  0.10566000000E+00 0.  1.
        994    1    1    2    0    0 -0.20535053383E+02  0.25802758840E+01  0.10662477456E+02  0.17277579306E+03  0.17120000000E+03 0.  0.
        998    1    1    2    0    0 -0.12122399376E+02  0.90964338817E+01  0.14267823367E+04  0.14268978710E+04  0.10000000000E+02 0.  1.
</event>
<event>
 5    1  0.1812081E-008  0.3860713E+03  0.7957747E-01  0.3425141E+00
         13   -1    0    0    0    0  0.00000000000E+00  0.00000000000E+00  0.14999999963E+04  0.15000000000E+04  0.10566000000E+00 0.  1.
        994   -1    0    0    0    0 -0.00000000000E+00 -0.00000000000E+00  0.11368683772E-12  0.17120000000E+03  0.17120000000E+03 0.  0.
         13    1    1    2    0    0 -0.68580670520E+01 -0.96394891952E+01  0.63190531690E+02  0.64288469377E+02  0.10566000000E+00 0.  1.
        994    1    1    2    0    0  0.10346602781E+01  0.12337638089E+02  0.16016972869E+01  0.17165457544E+03  0.17120000000E+03 0.  0.
        998    1    1    2    0    0  0.58234067738E+01 -0.26981488938E+01  0.14352077673E+04  0.14352569552E+04  0.10000000000E+02 0.  1.
</event>
<event>
 5    1  0.1574792E-008  0.3829262E+03  0.7957747E-01  0.3438515E+00
         13   -1    0    0    0    0  0.00000000000E+00  0.00000000000E+00  0.14999999963E+04  0.15000000000E+04  0.10566000000E+00 0. -1.
        994   -1    0    0    0    0 -0.00000000000E+00 -0.00000000000E+00  0.11368683772E-12  0.17120000000E+03  0.17120000000E+03 0.  0.
         13    1    1    2    0    0  0.12943949358E+02 -0.19194737905E-01  0.31668310193E+02  0.34211682624E+02  0.10566000000E+00 0. -1.
        994    1    1    2    0    0  0.85817477836E+00 -0.95876247753E+01  0.29700994433E+01  0.17149612387E+03  0.17120000000E+03 0.  0.
        998    1    1    2    0    0 -0.13802124137E+02  0.96068195132E+01  0.14653615866E+04  0.14654921935E+04  0.10000000000E+02 0. -1.
</event>
<event>
 5    1  0.1574792E-008  0.3821555E+03  0.7957747E-01  0.3441826E+00
         13   -1    0    0    0    0  0.00000000000E+00  0.00000000000E+00  0.14999999963E+04  0.15000000000E+04  0.10566000000E+00 0.  1.
        994   -1    0    0    0    0 -0.00000000000E+00 -0.00000000000E+00  0.11368683772E-12  0.17120000000E+03  0.17120000000E+03 0.  0.
         13    1    1    2    0    0  0.19787787274E+02  0.62355067621E+01  0.57099145945E+02  0.60751639496E+02  0.10566000000E+00 0.  1.
        994    1    1    2    0    0 -0.59076834907E+02 -0.55009079981E+01  0.14823249551E+02  0.18179521759E+03  0.17120000000E+03 0.  0.
        998    1    1    2    0    0  0.39289047633E+02 -0.73459876402E+00  0.14280776008E+04  0.14286531429E+04  0.10000000000E+02 0.  1.
</event>
<event>
 5    1  0.1574792E-008  0.3711477E+03  0.7957747E-01  0.3490633E+00
         13   -1    0    0    0    0  0.00000000000E+00  0.00000000000E+00  0.14999999963E+04  0.15000000000E+04  0.10566000000E+00 0.  1.
        994   -1    0    0    0    0 -0.00000000000E+00 -0.00000000000E+00  0.11368683772E-12  0.17120000000E+03  0.17120000000E+03 0.  0.
         13    1    1    2    0    0 -0.46598632436E+02  0.13466977023E+02  0.12420304748E+03  0.13333866725E+03  0.10566000000E+00 0.  1.
        994    1    1    2    0    0  0.60366368674E+02  0.41995023807E+02  0.27531515485E+02  0.18834836032E+03  0.17120000000E+03 0.  0.
        998    1    1    2    0    0 -0.13767736238E+02 -0.55462000830E+02  0.13482654333E+04  0.13495129724E+04  0.10000000000E+02 0.  1.
</event>
<event>
 5    1  0.1574792E-008  0.3847806E+03  0.7957747E-01  0.3430603E+00
         13   -1    0    0    0    0  0.00000000000E+00  0.00000000000E+00  0.14999999963E+04  0.15000000000E+04  0.10566000000E+00 0.  1.
        994   -1    0    0    0    0 -0.00000000000E+00 -0.00000000000E+00  0.11368683772E-12  0.17120000000E+03  0.17120000000E+03 0.  0.
         13    1    1    2    0    0  0.98065411888E+01 -0.65232840600E+01  0.39414811704E+02  0.41137088262E+02  0.10566000000E+00 0.  1.
        994    1    1    2    0    0 -0.77813091145E+01  0.49204940863E+01  0.20180842653E+01  0.17145924501E+03  0.17120000000E+03 0.  0.
        998    1    1    2    0    0 -0.20252320743E+01  0.16027899737E+01  0.14585671003E+04  0.14586036667E+04  0.10000000000E+02 0.  1.
</event>
<event>
 5    1  0.1574792E-008  0.4301348E+03  0.7957747E-01  0.3258242E+00
         13   -1    0    0    0    0  0.00000000000E+00  0.00000000000E+00  0.14999999963E+04  0.15000000000E+04  0.10566000000E+00 0. -1.
        994   -1    0    0    0    0 -0.00000000000E+00 -0.00000000000E+00  0.11368683772E-12  0.17120000000E+03  0.17120000000E+03 0.  0.
         13    1    1    2    0    0 -0.17460497604E+02 -0.11565425931E+03  0.10821400641E+03  0.15934572169E+03  0.10566000000E+00 0. -1.
        994    1    1    2    0    0 -0.13241180769E+03  0.13920465786E+03  0.24591878139E+03  0.35594425213E+03  0.17120000000E+03 0.  0.
        998    1    1    2    0    0  0.14987230529E+03 -0.23550398551E+02  0.11458672085E+04  0.11559100262E+04  0.10000000000E+02 0. -1.
</event>
<event>
 5    1  0.1574792E-008  0.3811367E+03  0.7957747E-01  0.3446224E+00
         13   -1    0    0    0    0  0.00000000000E+00  0.00000000000E+00  0.14999999963E+04  0.15000000000E+04  0.10566000000E+00 0.  1.
        994   -1    0    0    0    0 -0.00000000000E+00 -0.00000000000E+00  0.11368683772E-12  0.17120000000E+03  0.17120000000E+03 0.  0.
         13    1    1    2    0    0  0.24511744565E+02  0.10568783379E+02  0.10268535469E+03  0.10609815284E+03  0.10566000000E+00 0.  1.
        994    1    1    2    0    0 -0.44708587982E+01 -0.13986925807E+02  0.42788809215E+01  0.17188185330E+03  0.17120000000E+03 0.  0.
        998    1    1    2    0    0 -0.20040885766E+02  0.34181424279E+01  0.13930357607E+04  0.13932199939E+04  0.10000000000E+02 0.  1.
</event>
<event>
 5    1  0.1574792E-008  0.3817295E+03  0.7957747E-01  0.3443662E+00
         13   -1    0    0    0    0  0.00000000000E+00  0.00000000000E+00  0.14999999963E+04  0.15000000000E+04  0.10566000000E+00 0.  1.
        994   -1    0    0    0    0 -0.00000000000E+00 -0.00000000000E+00  0.11368683772E-12  0.17120000000E+03  0.17120000000E+03 0.  0.
         13    1    1    2    0    0  0.20560967751E+02 -0.12598068824E+02  0.91798162281E+02  0.94912478079E+02  0.10566000000E+00 0.  1.
        994    1    1    2    0    0 -0.10079064059E+01  0.12602061307E+02  0.37940937443E+01  0.17170807486E+03  0.17120000000E+03 0.  0.
        998    1    1    2    0    0 -0.19553061345E+02 -0.39924827133E-02  0.14044077403E+04  0.14045794471E+04  0.10000000000E+02 0.  1.
</event>
<event>
 5    1  0.1574792E-008  0.3773674E+03  0.7957747E-01  0.3462702E+00
         13   -1    0    0    0    0  0.00000000000E+00  0.00000000000E+00  0.14999999963E+04  0.15000000000E+04  0.10566000000E+00 0. -1.
        994   -1    0    0    0    0 -0.00000000000E+00 -0.00000000000E+00  0.11368683772E-12  0.17120000000E+03  0.17120000000E+03 0.  0.
         13    1    1    2    0    0  0.22379331616E+02 -0.11133757093E+02  0.51446746925E+02  0.57197674461E+02  0.10566000000E+00 0. -1.
        994    1    1    2    0    0 -0.13239830239E+02  0.54016691089E+02  0.15970778706E+02  0.18071414387E+03  0.17120000000E+03 0.  0.
        998    1    1    2    0    0 -0.91395013765E+01 -0.42882933995E+02  0.14325824706E+04  0.14332881817E+04  0.10000000000E+02 0. -1.
</event>
<event>
 5    1  0.1574792E-008  0.3707801E+03  0.7957747E-01  0.3492313E+00
         13   -1    0    0    0    0  0.00000000000E+00  0.00000000000E+00  0.14999999963E+04  0.15000000000E+04  0.10566000000E+00 0.  1.
        994   -1    0    0    0    0 -0.00000000000E+00 -0.00000000000E+00  0.11368683772E-12  0.17120000000E+03  0.17120000000E+03 0.  0.
         13    1    1    2    0    0 -0.75887288496E+01 -0.23552776689E+02  0.21822629871E+02  0.32993339234E+02  0.10566000000E+00 0.  1.
        994    1    1    2    0    0  0.11594919877E+02  0.22753886981E+02  0.13641508753E+02  0.17363096585E+03  0.17120000000E+03 0.  0.
        998    1    1    2    0    0 -0.40061910278E+01  0.79888970752E+00  0.14645358577E+04  0.14645756949E+04  0.10000000000E+02 0.  1.
</event>
<event>
 5    1  0.1574792E-008  0.3841842E+03  0.7957747E-01  0.3433140E+00
         13   -1    0    0    0    0  0.00000000000E+00  0.00000000000E+00  0.14999999963E+04  0.15000000000E+04  0.10566000000E+00 0.  1.
        994   -1    0    0    0    0 -0.00000000000E+00 -0.00000000000E+00  0.11368683772E-12  0.17120000000E+03  0.17120000000E+03 0.  0.
         13    1    1    2    0    0  0.21214096612E+02  0.81047018606E+02  0.16290528180E+03  0.18318514984E+03  0.10566000000E+00 0.  1.
        994    1    1    2    0    0 -0.11168985236E+02 -0.83512585835E+02  0.45265919387E+02  0.19610594504E+03  0.17120000000E+03 0.  0.
        998    1    1    2    0    0 -0.10045111376E+02  0.24655672288E+01  0.12918287951E+04  0.12919089051E+04  0.10000000000E+02 0.  1.
</event>
<event>
 5    1  0.1574792E-008  0.3726688E+03  0.7957747E-01  0.3483715E+00
         13   -1    0    0    0    0  0.00000000000E+00  0.00000000000E+00  0.14999999963E+04  0.15000000000E+04  0.10566000000E+00 0. -1.
        994   -1    0    0    0    0 -0.00000000000E+00 -0.00000000000E+00  0.11368683772E-12  0.17120000000E+03  0.17120000000E+03 0.  0.
         13    1    1    2    0    0  0.35203730092E+02 -0.40593470419E+01  0.84492240306E+02  0.91622763256E+02  0.10566000000E+00 0. -1.
        994    1    1    2    0    0  0.39518633095E+01  0.40015543179E+01  0.79891140735E+01  0.17147855727E+03  0.17120000000E+03 0.  0.
        998    1    1    2    0    0 -0.39155593401E+02  0.57792724042E-01  0.14075186419E+04  0.14080986795E+04  0.10000000000E+02 0. -1.
</event>
<event>
 5    1  0.1574792E-008  0.3848973E+03  0.7957747E-01  0.3430108E+00
         13   -1    0    0    0    0  0.00000000000E+00  0.00000000000E+00  0.14999999963E+04  0.15000000000E+04  0.10566000000E+00 0. -1.
        994   -1    0    0    0    0 -0.00000000000E+00 -0.00000000000E+00  0.11368683772E-12  0.17120000000E+03  0.17120000000E+03 0.  0.
         13    1    1    2    0    0  0.11856244644E+02  0.88749465967E+01  0.63179645118E+02  0.64892325706E+02  0.10566000000E+00 0. -1.
        994    1    1    2    0    0 -0.16482087444E+02 -0.29157489400E+01  0.26033578864E+01  0.17203597958E+03  0.17120000000E+03 0.  0.
        998    1    1    2    0    0  0.46258427991E+01 -0.59591976567E+01  0.14342169933E+04  0.14342716947E+04  0.10000000000E+02 0. -1.
</event>
<event>
 5    1  0.1574792E-008  0.3848990E+03  0.7957747E-01  0.3430101E+00
         13   -1    0    0    0    0  0.00000000000E+00  0.00000000000E+00  0.14999999963E+04  0.15000000000E+04  0.10566000000E+00 0. -1.
        994   -1    0    0    0    0 -0.00000000000E+00 -0.00000000000E+00  0.11368683772E-12  0.17120000000E+03  0.17120000000E+03 0.  0.
         13    1    1    2    0    0  0.15191824860E+02  0.75151805434E+01  0.83897598712E+02  0.85592568105E+02  0.10566000000E+00 0. -1.
        994    1    1    2    0    0 -0.17569151301E+02  0.44223606878E+01  0.27608434778E+01  0.17217808980E+03  0.17120000000E+03 0.  0.
        998    1    1    2    0    0  0.23773264410E+01 -0.11937541231E+02  0.14133415541E+04  0.14134293421E+04  0.10000000000E+02 0. -1.
</event>
<event>
 5    1  0.1574792E-008  0.3804115E+03  0.7957747E-01  0.3449369E+00
         13   -1    0    0    0    0  0.00000000000E+00  0.00000000000E+00  0.14999999963E+04  0.15000000000E+04  0.10566000000E+00 0. -1.
        994   -1    0    0    0    0 -0.00000000000E+00 -0.00000000000E+00  0.11368683772E-12  0.17120000000E+03  0.17120000000E+03 0.  0.
         13    1    1    2    0    0 -0.11299623105E+02  0.32094096741E+02  0.11503071905E+03  0.11995745086E+03  0.10566000000E+00 0. -1.
        994    1    1    2    0    0 -0.94022121711E+01 -0.71987704082E+02  0.21726138798E+02  0.18722205062E+03  0.17120000000E+03 0.  0.
        998    1    1    2    0    0  0.20701835276E+02  0.39893607341E+02  0.13632431384E+04  0.13640204985E+04  0.10000000000E+02 0. -1.
</event>
<event>
 5    1  0.1574792E-008  0.3814980E+03  0.7957747E-01  0.3444662E+00
         13   -1    0    0    0    0  0.00000000000E+00  0.00000000000E+00  0.14999999963E+04  0.15000000000E+04  0.10566000000E+00 0.  1.
        994   -1    0    0    0    0 -0.00000000000E+00 -0.00000000000E+00  0.11368683772E-12  0.17120000000E+03  0.17120000000E+03 0.  0.
         13    1    1    2    0    0  0.35193826802E+02  0.23991155957E+00  0.19120331192E+03  0.19441548461E+03  0.10566000000E+00 0.  1.
        994    1    1    2    0    0 -0.14410224744E+02  0.12032395126E+01  0.40747331924E+01  0.17185792334E+03  0.17120000000E+03 0.  0.
        998    1    1    2    0    0 -0.20783602058E+02 -0.14431510722E+01  0.13047219512E+04  0.13049265921E+04  0.10000000000E+02 0.  1.
</event>
<event>
 5    1  0.1574792E-008  0.3772029E+03  0.7957747E-01  0.3463429E+00
         13   -1    0    0    0    0  0.00000000000E+00  0.00000000000E+00  0.14999999963E+04  0.15000000000E+04  0.10566000000E+00 0. -1.
        994   -1    0    0    0    0 -0.00000000000E+00 -0.00000000000E+00  0.11368683772E-12  0.17120000000E+03  0.17120000000E+03 0.  0.
         13    1    1    2    0    0 -0.52604013456E+02 -0.48032137992E+02  0.18584242569E+03  0.19902684960E+03  0.10566000000E+00 0. -1.
        994    1    1    2    0    0  0.76511567590E+01  0.19288843785E+02  0.16345145726E+02  0.17322587417E+03  0.17120000000E+03 0.  0.
        998    1    1    2    0    0  0.44952856697E+02  0.28743294207E+02  0.12978124249E+04  0.12989472762E+04  0.10000000000E+02 0. -1.
</event>
<event>
 5    1  0.1574792E-008  0.3796046E+03  0.7957747E-01  0.3452882E+00
         13   -1    0    0    0    0  0.00000000000E+00  0.00000000000E+00  0.14999999963E+04  0.15000000000E+04  0.10566000000E+00 0.  1.
        994   -1    0    0    0    0 -0.00000000000E+00 -0.00000000000E+00  0.11368683772E-12  0.17120000000E+03  0.17120000000E+03 0.  0.
         13    1    1    2    0    0 -0.21745263196E+02 -0.38243611740E+01  0.58201094089E+02  0.62248379313E+02  0.10566000000E+00 0.  1.
        994    1    1    2    0    0 -0.27815000168E+01  0.59682466441E+01  0.44780018161E+01  0.17138509040E+03  0.17120000000E+03 0.  0.
        998    1    1    2    0    0  0.24526763213E+02 -0.21438854700E+01  0.14373209004E+04  0.14375665303E+04  0.10000000000E+02 0.  1.
</event>
<event>
 5    1  0.1574792E-008  0.3837415E+03  0.7957747E-01  0.3435027E+00
         13   -1    0    0    0    0  0.00000000000E+00  0.00000000000E+00  0.14999999963E+04  0.15000000000E+04  0.10566000000E+00 0.  1.
        994   -1    0    0    0    0 -0.00000000000E+00 -0.00000000000E+00  0.11368683772E-12  0.17120000000E+03  0.17120000000E+03 0.  0.
         13    1    1    2    0    0 -0.19147588031E+02  0.22435977017E+01  0.90669960615E+02  0.92696908147E+02  0.10566000000E+00 0.  1.
        994    1    1    2    0    0 -0.48161657650E+01 -0.14192935643E+02  0.29983648707E+01  0.17188096191E+03  0.17120000000E+03 0.  0.
        998    1    1    2    0    0  0.23963753796E+02  0.11949337941E+02  0.14063316708E+04  0.14066221299E+04  0.10000000000E+02 0.  1.
</event>
<event>
 5    1  0.1574792E-008  0.3839195E+03  0.7957747E-01  0.3434268E+00
         13   -1    0    0    0    0  0.00000000000E+00  0.00000000000E+00  0.14999999963E+04  0.15000000000E+04  0.10566000000E+00 0. -1.
        994   -1    0    0    0    0 -0.00000000000E+00 -0.00000000000E+00  0.11368683772E-12  0.17120000000E+03  0.17120000000E+03 0.  0.
         13    1    1    2    0    0 -0.15517709255E+02 -0.12845285087E+02  0.88562733184E+02  0.90824938880E+02  0.10566000000E+00 0. -1.
        994    1    1    2    0    0  0.14197606764E+02  0.15208737601E+02  0.35974482245E+01  0.17249712859E+03  0.17120000000E+03 0.  0.
        998    1    1    2    0    0  0.13201024911E+01 -0.23634525133E+01  0.14078398149E+04  0.14078779325E+04  0.10000000000E+02 0. -1.
</event>
<event>
 5    1  0.1574792E-008  0.3809019E+03  0.7957747E-01  0.3447241E+00
         13   -1    0    0    0    0  0.00000000000E+00  0.00000000000E+00  0.14999999963E+04  0.15000000000E+04  0.10566000000E+00 0.  1.
        994   -1    0    0    0    0 -0.00000000000E+00 -0.00000000000E+00  0.11368683772E-12  0.17120000000E+03  0.17120000000E+03 0.  0.
         13    1    1    2    0    0  0.20426968187E+02 -0.27366627039E+02  0.15706248241E+03  0.16073216184E+03  0.10566000000E+00 0.  1.
        994    1    1    2    0    0 -0.58260840655E+01  0.21026908568E+02  0.52669074495E+01  0.17266515124E+03  0.17120000000E+03 0.  0.
        998    1    1    2    0    0 -0.14600884122E+02  0.63397184711E+01  0.13376706064E+04  0.13378026869E+04  0.10000000000E+02 0.  1.
</event>
<event>
 5    1  0.1574792E-008  0.3706051E+03  0.7957747E-01  0.3493115E+00
         13   -1    0    0    0    0  0.00000000000E+00  0.00000000000E+00  0.14999999963E+04  0.15000000000E+04  0.10566000000E+00 0.  1.
        994   -1    0    0    0    0 -0.00000000000E+00 -0.00000000000E+00  0.11368683772E-12  0.17120000000E+03  0.17120000000E+03 0.  0.
         13    1    1    2    0    0  0.55176250471E+02  0.50618971693E+02  0.28893361609E+03  0.29847838210E+03  0.10566000000E+00 0.  1.
        994    1    1    2    0    0 -0.40147208297E+02 -0.36450227640E+02  0.19168200272E+02  0.18060253966E+03  0.17120000000E+03 0.  0.
        998    1    1    2    0    0 -0.15029042175E+02 -0.14168744054E+02  0.11918981799E+04  0.11921190782E+04  0.10000000000E+02 0.  1.
</event>
<event>
 5    1  0.1574792E-008  0.3794791E+03  0.7957747E-01  0.3453430E+00
         13   -1    0    0    0    0  0.00000000000E+00  0.00000000000E+00  0.14999999963E+04  0.15000000000E+04  0.10566000000E+00 0.  1.
        994   -1    0    0    0    0 -0.00000000000E+00 -0.00000000000E+00  0.11368683772E-12  0.17120000000E+03  0.17120000000E+03 0.  0.
         13    1    1    2    0    0  0.96017129147E+01 -0.10726638966E+02  0.21508504840E+02  0.25882052061E+02  0.10566000000E+00 0.  1.
        994    1    1    2    0    0 -0.85985756976E+01  0.11144709361E+02  0.50600956621E+01  0.17185221738E+03  0.17120000000E+03 0.  0.
        998    1    1    2    0    0 -0.10031372171E+01 -0.41807039440E+00  0.14734313958E+04  0.14734657306E+04  0.10000000000E+02 0.  1.
</event>
<event>
 5    1  0.1574792E-008  0.3799287E+03  0.7957747E-01  0.3451469E+00
         13   -1    0    0    0    0  0.00000000000E+00  0.00000000000E+00  0.14999999963E+04  0.15000000000E+04  0.10566000000E+00 0.  1.
        994   -1    0    0    0    0 -0.00000000000E+00 -0.00000000000E+00  0.11368683772E-12  0.17120000000E+03  0.17120000000E+03 0.  0.
         13    1    1    2    0    0 -0.40426530258E+02 -0.82409856232E+01  0.23509780935E+03  0.23869061422E+03  0.10566000000E+00 0.  1.
        994    1    1    2    0    0  0.54718879060E+01  0.23824363786E+01  0.42882357068E+01  0.17135765675E+03  0.17120000000E+03 0.  0.
        998    1    1    2    0    0  0.34954642352E+02  0.58585492446E+01  0.12606139512E+04  0.12611517290E+04  0.10000000000E+02 0.  1.
</event>
<event>
 5    1  0.1574792E-008  0.3857492E+03  0.7957747E-01  0.3426501E+00
         13   -1    0    0    0    0  0.00000000000E+00  0.00000000000E+00  0.14999999963E+04  0.15000000000E+04  0.10566000000E+00 0. -1.
        994   -1    0    0    0    0 -0.00000000000E+00 -0.00000000000E+00  0.11368683772E-12  0.17120000000E+03  0.17120000000E+03 0.  0.
         13    1    1    2    0    0  0.45137131445E+01 -0.99801890089E+01  0.49209905969E+02  0.50414321264E+02  0.10566000000E+00 0. -1.
        994    1    1    2    0    0  0.56924094154E+01  0.64876128667E+01  0.15030661882E+01  0.17142401189E+03  0.17120000000E+03 0.  0.
        998    1    1    2    0    0 -0.10206122560E+02  0.34925761422E+01  0.14492870241E+04  0.14493616668E+04  0.10000000000E+02 0. -1.
</event>
<event>
 5    1  0.1574792E-008  0.3849319E+03  0.7957747E-01  0.3429961E+00
         13   -1    0    0    0    0  0.00000000000E+00  0.00000000000E+00  0.14999999963E+04  0.15000000000E+04  0.10566000000E+00 0.  1.
        994   -1    0    0    0    0 -0.00000000000E+00 -0.00000000000E+00  0.11368683772E-12  0.17120000000E+03  0.17120000000E+03 0.  0.
         13    1    1    2    0    0 -0.15932111673E+02 -0.88652142682E+00  0.81777948371E+02  0.83320238276E+02  0.10566000000E+00 0.  1.
        994    1    1    2    0    0  0.16400889527E+01 -0.88745964440E+01  0.19319261385E+01  0.17144859490E+03  0.17120000000E+03 0.  0.
        998    1    1    2    0    0  0.14292022720E+02  0.97611178709E+01  0.14162901218E+04  0.14164311668E+04  0.10000000000E+02 0.  1.
</event>
<event>
 5    1  0.1574792E-008  0.3828608E+03  0.7957747E-01  0.3438796E+00
         13   -1    0    0    0    0  0.00000000000E+00  0.00000000000E+00  0.14999999963E+04  0.15000000000E+04  0.10566000000E+00 0. -1.
        994   -1    0    0    0    0 -0.00000000000E+00 -0.00000000000E+00  0.11368683772E-12  0.17120000000E+03  0.17120000000E+03 0.  0.
         13    1    1    2    0    0 -0.17335151086E+02 -0.15082675398E+02  0.93025017477E+02  0.95820976832E+02  0.10566000000E+00 0. -1.
        994    1    1    2    0    0  0.16084568813E+02  0.14332863494E+02  0.42345467365E+01  0.17260218920E+03  0.17120000000E+03 0.  0.
        998    1    1    2    0    0  0.12505822724E+01  0.74981190328E+00  0.14027404321E+04  0.14027768340E+04  0.10000000000E+02 0.  0.
</event>
<event>
 5    1  0.1574792E-008  0.3798481E+03  0.7957747E-01  0.3451820E+00
         13   -1    0    0    0    0  0.00000000000E+00  0.00000000000E+00  0.14999999963E+04  0.15000000000E+04  0.10566000000E+00 0. -1.
        994   -1    0    0    0    0 -0.00000000000E+00 -0.00000000000E+00  0.11368683772E-12  0.17120000000E+03  0.17120000000E+03 0.  0.
         13    1    1    2    0    0  0.49682176977E+02 -0.34976278787E+02  0.33685760686E+03  0.34229332049E+03  0.10566000000E+00 0. -1.
        994    1    1    2    0    0 -0.62866337284E+02  0.19620878800E+02  0.18854960573E+02  0.18439659646E+03  0.17120000000E+03 0.  0.
        998    1    1    2    0    0  0.13184160307E+02  0.15355399987E+02  0.11442874288E+04  0.11445100830E+04  0.10000000000E+02 0. -1.
</event>
<event>
 5    1  0.1574792E-008  0.3783478E+03  0.7957747E-01  0.3458384E+00
         13   -1    0    0    0    0  0.00000000000E+00  0.00000000000E+00  0.14999999963E+04  0.15000000000E+04  0.10566000000E+00 0. -1.
        994   -1    0    0    0    0 -0.00000000000E+00 -0.00000000000E+00  0.11368683772E-12  0.17120000000E+03  0.17120000000E+03 0.  0.
         13    1    1    2    0    0  0.12842716022E+02 -0.37702099666E+02  0.13470338882E+03  0.14046849397E+03  0.10566000000E+00 0. -1.
        994    1    1    2    0    0 -0.19796917820E+02  0.49086701902E+02  0.14444228696E+02  0.17977624426E+03  0.17120000000E+03 0.  0.
        998    1    1    2    0    0  0.69542017973E+01 -0.11384602236E+02  0.13508523788E+04  0.13509552618E+04  0.10000000000E+02 0. -1.
</event>
<event>
 5    1  0.1574792E-008  0.3800117E+03  0.7957747E-01  0.3451107E+00
         13   -1    0    0    0    0  0.00000000000E+00  0.00000000000E+00  0.14999999963E+04  0.15000000000E+04  0.10566000000E+00 0. -1.
        994   -1    0    0    0    0 -0.00000000000E+00 -0.00000000000E+00  0.11368683772E-12  0.17120000000E+03  0.17120000000E+03 0.  0.
         13    1    1    2    0    0  0.15666484256E+02 -0.13782584874E+02  0.51531651517E+02  0.55596048842E+02  0.10566000000E+00 0. -1.
        994    1    1    2    0    0 -0.35717398309E+01  0.14073528007E+02  0.48322739423E+01  0.17188255405E+03  0.17120000000E+03 0.  0.
        998    1    1    2    0    0 -0.12094744425E+02 -0.29094313264E+00  0.14436360708E+04  0.14437213971E+04  0.10000000000E+02 0. -1.
</event>
<event>
 5    1  0.1574792E-008  0.3834533E+03  0.7957747E-01  0.3436259E+00
         13   -1    0    0    0    0  0.00000000000E+00  0.00000000000E+00  0.14999999963E+04  0.15000000000E+04  0.10566000000E+00 0.  1.
        994   -1    0    0    0    0 -0.00000000000E+00 -0.00000000000E+00  0.11368683772E-12  0.17120000000E+03  0.17120000000E+03 0.  0.
         13    1    1    2    0    0 -0.16099081505E+02  0.49052356559E+01  0.56202227358E+02  0.58668077232E+02  0.10566000000E+00 0.  1.
        994    1    1    2    0    0  0.18776989739E+02 -0.25826139623E+01  0.35882997872E+01  0.17228337451E+03  0.17120000000E+03 0.  0.
        998    1    1    2    0    0 -0.26779082343E+01 -0.23226216936E+01  0.14402094691E+04  0.14402485483E+04  0.10000000000E+02 0.  1.
</event>
<event>
 5    1  0.1574792E-008  0.3730123E+03  0.7957747E-01  0.3482161E+00
         13   -1    0    0    0    0  0.00000000000E+00  0.00000000000E+00  0.14999999963E+04  0.15000000000E+04  0.10566000000E+00 0. -1.
        994   -1    0    0    0    0 -0.00000000000E+00 -0.00000000000E+00  0.11368683772E-12  0.17120000000E+03  0.17120000000E+03 0.  0.
         13    1    1    2    0    0  0.24674397995E+00 -0.82565449902E+02  0.27920920409E+03  0.29116130446E+03  0.10566000000E+00 0. -1.
        994    1    1    2    0    0  0.21798435251E+02  0.41760368198E+02  0.20422783901E+02  0.17873340548E+03  0.17120000000E+03 0.  0.
        998    1    1    2    0    0 -0.22045179231E+02  0.40805081704E+02  0.12003680083E+04  0.12013052901E+04  0.10000000000E+02 0. -1.
</event>
<event>
 5    1  0.1574792E-008  0.3841970E+03  0.7957747E-01  0.3433085E+00
         13   -1    0    0    0    0  0.00000000000E+00  0.00000000000E+00  0.14999999963E+04  0.15000000000E+04  0.10566000000E+00 0. -1.
        994   -1    0    0    0    0 -0.00000000000E+00 -0.00000000000E+00  0.11368683772E-12  0.17120000000E+03  0.17120000000E+03 0.  0.
         13    1    1    2    0    0  0.13412096426E+02  0.11739121204E+02  0.77056100924E+02  0.79090739982E+02  0.10566000000E+00 0. -1.
        994    1    1    2    0    0 -0.11189212217E+02 -0.74095817164E+01  0.26234021675E+01  0.17174522587E+03  0.17120000000E+03 0.  0.
        998    1    1    2    0    0 -0.22228842092E+01 -0.43295394876E+01  0.14203204932E+04  0.14203640341E+04  0.10000000000E+02 0. -1.
</event>
<event>
 5    1  0.1574792E-008  0.3765220E+03  0.7957747E-01  0.3466444E+00
         13   -1    0    0    0    0  0.00000000000E+00  0.00000000000E+00  0.14999999963E+04  0.15000000000E+04  0.10566000000E+00 0. -1.
        994   -1    0    0    0    0 -0.00000000000E+00 -0.00000000000E+00  0.11368683772E-12  0.17120000000E+03  0.17120000000E+03 0.  0.
         13    1    1    2    0    0 -0.35427181700E+02 -0.27968873676E+02  0.18774479956E+03  0.19309444327E+03  0.10566000000E+00 0. -1.
        994    1    1    2    0    0  0.20754430532E+02 -0.81389779611E+01  0.75817632112E+01  0.17281178340E+03  0.17120000000E+03 0.  0.
        998    1    1    2    0    0  0.14672751168E+02  0.36107851637E+02  0.13046734335E+04  0.13052937733E+04  0.10000000000E+02 0. -1.
</event>
<event>
 5    1  0.1574792E-008  0.3851922E+03  0.7957747E-01  0.3428857E+00
         13   -1    0    0    0    0  0.00000000000E+00  0.00000000000E+00  0.14999999963E+04  0.15000000000E+04  0.10566000000E+00 0. -1.
        994   -1    0    0    0    0 -0.00000000000E+00 -0.00000000000E+00  0.11368683772E-12  0.17120000000E+03  0.17120000000E+03 0.  0.
         13    1    1    2    0    0  0.15685167389E+02 -0.11770030089E+00  0.79948999861E+02  0.81473259860E+02  0.10566000000E+00 0. -1.
        994    1    1    2    0    0 -0.10923880422E+02 -0.37746663046E+01  0.19738853628E+01  0.17160103581E+03  0.17120000000E+03 0.  0.
        998    1    1    2    0    0 -0.47612869664E+01  0.38923666055E+01  0.14180771111E+04  0.14181257043E+04  0.10000000000E+02 0. -1.
</event>
<event>
 5    1  0.1574792E-008  0.3786288E+03  0.7957747E-01  0.3457151E+00
         13   -1    0    0    0    0  0.00000000000E+00  0.00000000000E+00  0.14999999963E+04  0.15000000000E+04  0.10566000000E+00 0.  1.
        994   -1    0    0    0    0 -0.00000000000E+00 -0.00000000000E+00  0.11368683772E-12  0.17120000000E+03  0.17120000000E+03 0.  0.
         13    1    1    2    0    0 -0.33291837047E+01 -0.16091596309E+02  0.25178099067E+02  0.30066106708E+02  0.10566000000E+00 0.  1.
        994    1    1    2    0    0 -0.32839498598E+00  0.23157117027E+02  0.66301648107E+01  0.17288654950E+03  0.17120000000E+03 0.  0.
        998    1    1    2    0    0  0.36575786906E+01 -0.70655207185E+01  0.14681917324E+04  0.14682473438E+04  0.10000000000E+02 0.  1.
</event>
<event>
 5    1  0.1574792E-008  0.3825151E+03  0.7957747E-01  0.3440280E+00
         13   -1    0    0    0    0  0.00000000000E+00  0.00000000000E+00  0.14999999963E+04  0.15000000000E+04  0.10566000000E+00 0.  1.
        994   -1    0    0    0    0 -0.00000000000E+00 -0.00000000000E+00  0.11368683772E-12  0.17120000000E+03  0.17120000000E+03 0.  0.
         13    1    1    2    0    0  0.10342687882E+02  0.99985622020E+01  0.35952820404E+02  0.38724138438E+02  0.10566000000E+00 0.  1.
        994    1    1    2    0    0 -0.46427422658E+01  0.18968505050E+00  0.29404591453E+01  0.17128828721E+03  0.17120000000E+03 0.  0.
        998    1    1    2    0    0 -0.56999456159E+01 -0.10188247253E+02  0.14611067167E+04  0.14611875743E+04  0.10000000000E+02 0.  1.
</event>
<event>
 5    1  0.1574792E-008  0.3751877E+03  0.7957747E-01  0.3472384E+00
         13   -1    0    0    0    0  0.00000000000E+00  0.00000000000E+00  0.14999999963E+04  0.15000000000E+04  0.10566000000E+00 0. -1.
        994   -1    0    0    0    0 -0.00000000000E+00 -0.00000000000E+00  0.11368683772E-12  0.17120000000E+03  0.17120000000E+03 0.  0.
         13    1    1    2    0    0  0.29281098770E+02  0.42599524630E+02  0.18105848228E+03  0.18829308913E+03  0.10566000000E+00 0. -1.
        994    1    1    2    0    0 -0.26154223394E+02 -0.40813131955E+02  0.14606764231E+02  0.17852885678E+03  0.17120000000E+03 0.  0.
        998    1    1    2    0    0 -0.31268753764E+01 -0.17863926750E+01  0.13043347498E+04  0.13043780541E+04  0.10000000000E+02 0. -1.
</event>
<event>
 5    1  0.1574792E-008  0.3749762E+03  0.7957747E-01  0.3473329E+00
         13   -1    0    0    0    0  0.00000000000E+00  0.00000000000E+00  0.14999999963E+04  0.15000000000E+04  0.10566000000E+00 0.  1.
        994   -1    0    0    0    0 -0.00000000000E+00 -0.00000000000E+00  0.11368683772E-12  0.17120000000E+03  0.17120000000E+03 0.  0.
         13    1    1    2    0    0  0.11595644030E+03  0.55426795130E+02  0.56046123929E+03  0.57500855436E+03  0.10566000000E+00 0.  1.
        994    1    1    2    0    0 -0.13265394883E+03 -0.71567139524E+02  0.88323130578E+02  0.24460036998E+03  0.17120000000E+03 0.  0.
        998    1    1    2    0    0  0.16697508532E+02  0.16140344394E+02  0.85121562641E+03  0.85159107566E+03  0.10000000000E+02 0.  1.
</event>
<event>
 5    1  0.1574792E-008  0.3844577E+03  0.7957747E-01  0.3431975E+00
         13   -1    0    0    0    0  0.00000000000E+00  0.00000000000E+00  0.14999999963E+04  0.15000000000E+04  0.10566000000E+00 0. -1.
        994   -1    0    0    0    0 -0.00000000000E+00 -0.00000000000E+00  0.11368683772E-12  0.17120000000E+03  0.17120000000E+03 0.  0.
         13    1    1    2    0    0 -0.37251204477E+01 -0.22968219617E+02  0.13014357045E+03  0.13220732101E+03  0.10566000000E+00 0. -1.
        994    1    1    2    0    0  0.59713493164E+01  0.24441054270E+02  0.39878433680E+01  0.17308484925E+03  0.17120000000E+03 0.  0.
        998    1    1    2    0    0 -0.22462288687E+01 -0.14728346527E+01  0.13658685825E+04  0.13659078297E+04  0.10000000000E+02 0. -1.
</event>
<event>
 5    1  0.1574792E-008  0.3756010E+03  0.7957747E-01  0.3470539E+00
         13   -1    0    0    0    0  0.00000000000E+00  0.00000000000E+00  0.14999999963E+04  0.15000000000E+04  0.10566000000E+00 0. -1.
        994   -1    0    0    0    0 -0.00000000000E+00 -0.00000000000E+00  0.11368683772E-12  0.17120000000E+03  0.17120000000E+03 0.  0.
         13    1    1    2    0    0 -0.18631423299E+02 -0.14256303403E+02  0.39973440618E+02  0.46349317576E+02  0.10566000000E+00 0. -1.
        994    1    1    2    0    0  0.17342511955E+02  0.12601387722E+02  0.79309502647E+01  0.17271912941E+03  0.17120000000E+03 0.  0.
        998    1    1    2    0    0  0.12889113433E+01  0.16549156812E+01  0.14520956054E+04  0.14521315530E+04  0.10000000000E+02 0. -1.
</event>
<event>
 5    1  0.1574792E-008  0.3793175E+03  0.7957747E-01  0.3454136E+00
         13   -1    0    0    0    0  0.00000000000E+00  0.00000000000E+00  0.14999999963E+04  0.15000000000E+04  0.10566000000E+00 0.  1.
        994   -1    0    0    0    0 -0.00000000000E+00 -0.00000000000E+00  0.11368683772E-12  0.17120000000E+03  0.17120000000E+03 0.  0.
         13    1    1    2    0    0 -0.16427230257E+02 -0.95650580654E+01  0.37256031135E+02  0.41825437830E+02  0.10566000000E+00 0.  1.
        994    1    1    2    0    0  0.23555081393E+02  0.64530097305E+01  0.64791278917E+01  0.17305462228E+03  0.17120000000E+03 0.  0.
        998    1    1    2    0    0 -0.71278511360E+01  0.31120483349E+01  0.14562648373E+04  0.14563199399E+04  0.10000000000E+02 0.  1.
</event>
<event>
 5    1  0.1574792E-008  0.3756130E+03  0.7957747E-01  0.3470486E+00
         13   -1    0    0    0    0  0.00000000000E+00  0.00000000000E+00  0.14999999963E+04  0.15000000000E+04  0.10566000000E+00 0.  1.
        994   -1    0    0    0    0 -0.00000000000E+00 -0.00000000000E+00  0.11368683772E-12  0.17120000000E+03  0.17120000000E+03 0.  0.
         13    1    1    2    0    0  0.57200481362E+02  0.20379394914E+03  0.10136955130E+04  0.10355590147E+04  0.10566000000E+00 0.  1.
        994    1    1    2    0    0 -0.73404761709E+02 -0.19192260990E+03  0.16649178725E+03  0.31504206458E+03  0.17120000000E+03 0.  0.
        998    1    1    2    0    0  0.16204280347E+02 -0.11871339242E+02  0.31981269603E+03  0.32059892067E+03  0.10000000000E+02 0.  1.
</event>
<event>
 5    1  0.1574792E-008  0.3856789E+03  0.7957747E-01  0.3426798E+00
         13   -1    0    0    0    0  0.00000000000E+00  0.00000000000E+00  0.14999999963E+04  0.15000000000E+04  0.10566000000E+00 0. -1.
        994   -1    0    0    0    0 -0.00000000000E+00 -0.00000000000E+00  0.11368683772E-12  0.17120000000E+03  0.17120000000E+03 0.  0.
         13    1    1    2    0    0 -0.96715927441E+01  0.50685777971E+01  0.41481597922E+02  0.42894805248E+02  0.10566000000E+00 0. -1.
        994    1    1    2    0    0  0.22693827276E+02 -0.15620804575E+02  0.37880899959E+01  0.17344396489E+03  0.17120000000E+03 0.  0.
        998    1    1    2    0    0 -0.13022234532E+02  0.10552226778E+02  0.14547303084E+04  0.14548612299E+04  0.10000000000E+02 0. -1.
</event>
<event>
 5    1  0.1574792E-008  0.3851163E+03  0.7957747E-01  0.3429179E+00
         13   -1    0    0    0    0  0.00000000000E+00  0.00000000000E+00  0.14999999963E+04  0.15000000000E+04  0.10566000000E+00 0. -1.
        994   -1    0    0    0    0 -0.00000000000E+00 -0.00000000000E+00  0.11368683772E-12  0.17120000000E+03  0.17120000000E+03 0.  0.
         13    1    1    2    0    0 -0.82784969434E+01 -0.69285990384E+01  0.36962880557E+02  0.38507203214E+02  0.10566000000E+00 0. -1.
        994    1    1    2    0    0  0.87134312959E+01  0.89783854368E+00  0.18247055726E+01  0.17143365932E+03  0.17120000000E+03 0.  0.
        998    1    1    2    0    0 -0.43493435252E+00  0.60307604948E+01  0.14612124101E+04  0.14612591375E+04  0.10000000000E+02 0. -1.
</event>
<event>
 5    1  0.1574792E-008  0.3852665E+03  0.7957747E-01  0.3428543E+00
         13   -1    0    0    0    0  0.00000000000E+00  0.00000000000E+00  0.14999999963E+04  0.15000000000E+04  0.10566000000E+00 0. -1.
        994   -1    0    0    0    0 -0.00000000000E+00 -0.00000000000E+00  0.11368683772E-12  0.17120000000E+03  0.17120000000E+03 0.  0.
         13    1    1    2    0    0  0.11898455490E+02  0.10494803633E+01  0.48597929232E+02  0.50044425681E+02  0.10566000000E+00 0. -1.
        994    1    1    2    0    0 -0.44410139501E+01 -0.36921748038E+01  0.16074969220E+01  0.17130492931E+03  0.17120000000E+03 0.  0.
        998    1    1    2    0    0 -0.74574415402E+01  0.26426944405E+01  0.14497945701E+04  0.14498506450E+04  0.10000000000E+02 0. -1.
</event>
<event>
 5    1  0.1574792E-008  0.3833617E+03  0.7957747E-01  0.3436650E+00
         13   -1    0    0    0    0  0.00000000000E+00  0.00000000000E+00  0.14999999963E+04  0.15000000000E+04  0.10566000000E+00 0.  1.
        994   -1    0    0    0    0 -0.00000000000E+00 -0.00000000000E+00  0.11368683772E-12  0.17120000000E+03  0.17120000000E+03 0.  0.
         13    1    1    2    0    0  0.11568798138E+02  0.78893826291E+01  0.39140532838E+02  0.41570084478E+02  0.10566000000E+00 0.  1.
        994    1    1    2    0    0 -0.77938446276E+01 -0.76708421013E+01  0.28411718744E+01  0.17157242812E+03  0.17120000000E+03 0.  0.
        998    1    1    2    0    0 -0.37749535102E+01 -0.21854052784E+00  0.14580182916E+04  0.14580574874E+04  0.10000000000E+02 0.  1.
</event>
<event>
 5    1  0.1574792E-008  0.3840250E+03  0.7957747E-01  0.3433818E+00
         13   -1    0    0    0    0  0.00000000000E+00  0.00000000000E+00  0.14999999963E+04  0.15000000000E+04  0.10566000000E+00 0. -1.
        994   -1    0    0    0    0 -0.00000000000E+00 -0.00000000000E+00  0.11368683772E-12  0.17120000000E+03  0.17120000000E+03 0.  0.
         13    1    1    2    0    0 -0.32587143490E+01  0.97754867686E+01  0.22758581420E+02  0.24982865189E+02  0.10566000000E+00 0. -1.
        994    1    1    2    0    0  0.18958092102E+02 -0.22787331782E+02  0.50191853278E+01  0.17381974562E+03  0.17120000000E+03 0.  0.
        998    1    1    2    0    0 -0.15699377753E+02  0.13011845013E+02  0.14722222295E+04  0.14723973892E+04  0.10000000000E+02 0. -1.
</event>
<event>
 5    1  0.1574792E-008  0.3835674E+03  0.7957747E-01  0.3435771E+00
         13   -1    0    0    0    0  0.00000000000E+00  0.00000000000E+00  0.14999999963E+04  0.15000000000E+04  0.10566000000E+00 0. -1.
        994   -1    0    0    0    0 -0.00000000000E+00 -0.00000000000E+00  0.11368683772E-12  0.17120000000E+03  0.17120000000E+03 0.  0.
         13    1    1    2    0    0  0.10342949413E+02  0.35987967405E+02  0.30403128750E+02  0.48233513270E+02  0.10566000000E+00 0. -1.
        994    1    1    2    0    0 -0.28789002113E+02 -0.30610803237E+02  0.24812149677E+02  0.17801941099E+03  0.17120000000E+03 0.  0.
        998    1    1    2    0    0  0.18446052700E+02 -0.53771641682E+01  0.14447847179E+04  0.14449470757E+04  0.10000000000E+02 0. -1.
</event>
<event>
 5    1  0.1574792E-008  0.3853813E+03  0.7957747E-01  0.3428057E+00
         13   -1    0    0    0    0  0.00000000000E+00  0.00000000000E+00  0.14999999963E+04  0.15000000000E+04  0.10566000000E+00 0.  1.
        994   -1    0    0    0    0 -0.00000000000E+00 -0.00000000000E+00  0.11368683772E-12  0.17120000000E+03  0.17120000000E+03 0.  0.
         13    1    1    2    0    0 -0.10643289409E+02 -0.32241285655E+01  0.44712126242E+02  0.46074505006E+02  0.10566000000E+00 0.  1.
        994    1    1    2    0    0  0.25519311588E+01 -0.62735300779E+01  0.15916171483E+01  0.17134130494E+03  0.17120000000E+03 0.  0.
        998    1    1    2    0    0  0.80913582504E+01  0.94976586433E+01  0.14536962529E+04  0.14537841901E+04  0.10000000000E+02 0.  1.
</event>
<event>
 5    1  0.1574792E-008  0.3834550E+03  0.7957747E-01  0.3436251E+00
         13   -1    0    0    0    0  0.00000000000E+00  0.00000000000E+00  0.14999999963E+04  0.15000000000E+04  0.10566000000E+00 0. -1.
        994   -1    0    0    0    0 -0.00000000000E+00 -0.00000000000E+00  0.11368683772E-12  0.17120000000E+03  0.17120000000E+03 0.  0.
         13    1    1    2    0    0  0.11210519374E+02  0.12029069712E+02  0.55442955307E+02  0.57829981152E+02  0.10566000000E+00 0. -1.
        994    1    1    2    0    0 -0.83299760309E+01 -0.83300523018E+01  0.28579545042E+01  0.17162862866E+03  0.17120000000E+03 0.  0.
        998    1    1    2    0    0 -0.28805433427E+01 -0.36990174101E+01  0.14416990865E+04  0.14417413902E+04  0.10000000000E+02 0. -1.
</event>
<event>
 5    1  0.1574792E-008  0.3784742E+03  0.7957747E-01  0.3457829E+00
         13   -1    0    0    0    0  0.00000000000E+00  0.00000000000E+00  0.14999999963E+04  0.15000000000E+04  0.10566000000E+00 0. -1.
        994   -1    0    0    0    0 -0.00000000000E+00 -0.00000000000E+00  0.11368683772E-12  0.17120000000E+03  0.17120000000E+03 0.  0.
         13    1    1    2    0    0  0.32591482699E+02 -0.22916474208E+02  0.17840788104E+03  0.18280249647E+03  0.10566000000E+00 0. -1.
        994    1    1    2    0    0 -0.75129795792E+01  0.93928153985E+00  0.50979756524E+01  0.17144315812E+03  0.17120000000E+03 0.  0.
        998    1    1    2    0    0 -0.25078503120E+02  0.21977192668E+02  0.13164941396E+04  0.13169543454E+04  0.10000000000E+02 0. -1.
</event>
<event>
 5    1  0.1574792E-008  0.3766649E+03  0.7957747E-01  0.3465810E+00
         13   -1    0    0    0    0  0.00000000000E+00  0.00000000000E+00  0.14999999963E+04  0.15000000000E+04  0.10566000000E+00 0. -1.
        994   -1    0    0    0    0 -0.00000000000E+00 -0.00000000000E+00  0.11368683772E-12  0.17120000000E+03  0.17120000000E+03 0.  0.
         13    1    1    2    0    0 -0.16496709774E+01 -0.24308613438E+02  0.47029221720E+02  0.52965922642E+02  0.10566000000E+00 0. -1.
        994    1    1    2    0    0  0.33342533904E+01  0.26464798150E+02  0.82350105737E+01  0.17346111433E+03  0.17120000000E+03 0.  0.
        998    1    1    2    0    0 -0.16845824130E+01 -0.21561847125E+01  0.14447357640E+04  0.14447729630E+04  0.10000000000E+02 0. -1.
</event>
<event>
 5    1  0.1574792E-008  0.3756556E+03  0.7957747E-01  0.3470296E+00
         13   -1    0    0    0    0  0.00000000000E+00  0.00000000000E+00  0.14999999963E+04  0.15000000000E+04  0.10566000000E+00 0. -1.
        994   -1    0    0    0    0 -0.00000000000E+00 -0.00000000000E+00  0.11368683772E-12  0.17120000000E+03  0.17120000000E+03 0.  0.
         13    1    1    2    0    0  0.38160480499E+01 -0.12858524531E+02  0.11622221113E+02  0.17747987589E+02  0.10566000000E+00 0. -1.
        994    1    1    2    0    0  0.85052517709E+01  0.18821487946E+01  0.65998588470E+01  0.17154847691E+03  0.17120000000E+03 0.  0.
        998    1    1    2    0    0 -0.12321299821E+02  0.10976375736E+02  0.14817779163E+04  0.14819035355E+04  0.10000000000E+02 0. -1.
</event>
<event>
 5    1  0.1574792E-008  0.3766767E+03  0.7957747E-01  0.3465758E+00
         13   -1    0    0    0    0  0.00000000000E+00  0.00000000000E+00  0.14999999963E+04  0.15000000000E+04  0.10566000000E+00 0.  1.
        994   -1    0    0    0    0 -0.00000000000E+00 -0.00000000000E+00  0.11368683772E-12  0.17120000000E+03  0.17120000000E+03 0.  0.
         13    1    1    2    0    0 -0.31417214136E+02 -0.63868446629E+02  0.42067168281E+03  0.42665078893E+03  0.10566000000E+00 0.  1.
        994    1    1    2    0    0  0.23457994580E+01  0.48319676468E+02  0.13771880330E+02  0.17843597899E+03  0.17120000000E+03 0.  0.
        998    1    1    2    0    0  0.29071414678E+02  0.15548770161E+02  0.10655564331E+04  0.10661132321E+04  0.10000000000E+02 0.  1.
</event>
<event>
 5    1  0.1574792E-008  0.3841612E+03  0.7957747E-01  0.3433237E+00
         13   -1    0    0    0    0  0.00000000000E+00  0.00000000000E+00  0.14999999963E+04  0.15000000000E+04  0.10566000000E+00 0. -1.
        994   -1    0    0    0    0 -0.00000000000E+00 -0.00000000000E+00  0.11368683772E-12  0.17120000000E+03  0.17120000000E+03 0.  0.
         13    1    1    2    0    0 -0.21467675611E+02 -0.34764643087E+01  0.10937339314E+03  0.11151456044E+03  0.10566000000E+00 0. -1.
        994    1    1    2    0    0  0.19697039234E+02  0.70679048740E+01  0.34926018345E+01  0.17250961394E+03  0.17120000000E+03 0.  0.
        998    1    1    2    0    0  0.17706363767E+01 -0.35914405653E+01  0.13871340013E+04  0.13871758256E+04  0.10000000000E+02 0. -1.
</event>
<event>
 5    1  0.1574792E-008  0.3818403E+03  0.7957747E-01  0.3443184E+00
         13   -1    0    0    0    0  0.00000000000E+00  0.00000000000E+00  0.14999999963E+04  0.15000000000E+04  0.10566000000E+00 0. -1.
        994   -1    0    0    0    0 -0.00000000000E+00 -0.00000000000E+00  0.11368683772E-12  0.17120000000E+03  0.17120000000E+03 0.  0.
         13    1    1    2    0    0 -0.81769095381E+01  0.12214974149E+02  0.32532990487E+02  0.35699776990E+02  0.10566000000E+00 0. -1.
        994    1    1    2    0    0  0.46154277752E+01 -0.86350472102E+01  0.35256403573E+01  0.17151599445E+03  0.17120000000E+03 0.  0.
        998    1    1    2    0    0  0.35614817629E+01 -0.35799269389E+01  0.14639413654E+04  0.14639842286E+04  0.10000000000E+02 0. -1.
</event>
<event>
 5    1  0.1574792E-008  0.3859749E+03  0.7957747E-01  0.3425548E+00
         13   -1    0    0    0    0  0.00000000000E+00  0.00000000000E+00  0.14999999963E+04  0.15000000000E+04  0.10566000000E+00 0. -1.
        994   -1    0    0    0    0 -0.00000000000E+00 -0.00000000000E+00  0.11368683772E-12  0.17120000000E+03  0.17120000000E+03 0.  0.
         13    1    1    2    0    0  0.74905140439E+01  0.79090957619E+01  0.51014925234E+02  0.52165077946E+02  0.10566000000E+00 0. -1.
        994    1    1    2    0    0 -0.18435079157E+02  0.17412236812E+01  0.22717774578E+01  0.17221348663E+03  0.17120000000E+03 0.  0.
        998    1    1    2    0    0  0.10944565113E+02 -0.96503194430E+01  0.14467132936E+04  0.14468214354E+04  0.10000000000E+02 0. -1.
</event>
<event>
 5    1  0.1574792E-008  0.3831089E+03  0.7957747E-01  0.3437732E+00
         13   -1    0    0    0    0  0.00000000000E+00  0.00000000000E+00  0.14999999963E+04  0.15000000000E+04  0.10566000000E+00 0.  1.
        994   -1    0    0    0    0 -0.00000000000E+00 -0.00000000000E+00  0.11368683772E-12  0.17120000000E+03  0.17120000000E+03 0.  0.
         13    1    1    2    0    0  0.17905984510E+02 -0.12726333753E+02  0.97888823802E+02  0.10032356075E+03  0.10566000000E+00 0.  1.
        994    1    1    2    0    0 -0.12268824066E+02 -0.69339386341E+01  0.32293848738E+01  0.17180940741E+03  0.17120000000E+03 0.  0.
        998    1    1    2    0    0 -0.56371604436E+01  0.19660272387E+02  0.13988817876E+04  0.13990670318E+04  0.10000000000E+02 0.  1.
</event>
<event>
 5    1  0.1574792E-008  0.3841261E+03  0.7957747E-01  0.3433387E+00
         13   -1    0    0    0    0  0.00000000000E+00  0.00000000000E+00  0.14999999963E+04  0.15000000000E+04  0.10566000000E+00 0.  1.
        994   -1    0    0    0    0 -0.00000000000E+00 -0.00000000000E+00  0.11368683772E-12  0.17120000000E+03  0.17120000000E+03 0.  0.
         13    1    1    2    0    0  0.13140740355E+02 -0.12419933452E+02  0.77351093169E+02  0.79436368135E+02  0.10566000000E+00 0.  1.
        994    1    1    2    0    0 -0.11841051259E+02  0.87922063423E+01  0.27823254020E+01  0.17185661093E+03  0.17120000000E+03 0.  0.
        998    1    1    2    0    0 -0.12996890962E+01  0.36277271096E+01  0.14198665777E+04  0.14199070209E+04  0.10000000000E+02 0.  1.
</event>
<event>
 5    1  0.1574792E-008  0.3860033E+03  0.7957747E-01  0.3425428E+00
         13   -1    0    0    0    0  0.00000000000E+00  0.00000000000E+00  0.14999999963E+04  0.15000000000E+04  0.10566000000E+00 0.  1.
        994   -1    0    0    0    0 -0.00000000000E+00 -0.00000000000E+00  0.11368683772E-12  0.17120000000E+03  0.17120000000E+03 0.  0.
         13    1    1    2    0    0  0.98414498908E+01 -0.51133591529E+01  0.52830523807E+02  0.53982182131E+02  0.10566000000E+00 0.  1.
        994    1    1    2    0    0 -0.12488501706E+02  0.46461369359E+01  0.17150696860E+01  0.17172632509E+03  0.17120000000E+03 0.  0.
        998    1    1    2    0    0  0.26470518149E+01  0.46722221708E+00  0.14454544028E+04  0.14454914928E+04  0.10000000000E+02 0.  1.
</event>
<event>
 5    1  0.1574792E-008  0.3772958E+03  0.7957747E-01  0.3463018E+00
         13   -1    0    0    0    0  0.00000000000E+00  0.00000000000E+00  0.14999999963E+04  0.15000000000E+04  0.10566000000E+00 0.  1.
        994   -1    0    0    0    0 -0.00000000000E+00 -0.00000000000E+00  0.11368683772E-12  0.17120000000E+03  0.17120000000E+03 0.  0.
         13    1    1    2    0    0 -0.18466843404E+02 -0.12068958450E+01  0.29245370713E+02  0.34609012916E+02  0.10566000000E+00 0.  1.
        994    1    1    2    0    0  0.74031396863E+01  0.60027131204E+01  0.58109286455E+01  0.17156353323E+03  0.17120000000E+03 0.  0.
        998    1    1    2    0    0  0.11063703718E+02 -0.47958172754E+01  0.14649436969E+04  0.14650274539E+04  0.10000000000E+02 0.  1.
</event>
<event>
 5    1  0.1574792E-008  0.3859423E+03  0.7957747E-01  0.3425685E+00
         13   -1    0    0    0    0  0.00000000000E+00  0.00000000000E+00  0.14999999963E+04  0.15000000000E+04  0.10566000000E+00 0. -1.
        994   -1    0    0    0    0 -0.00000000000E+00 -0.00000000000E+00  0.11368683772E-12  0.17120000000E+03  0.17120000000E+03 0.  0.
         13    1    1    2    0    0  0.11564091604E+02 -0.53349508879E+01  0.64905007779E+02  0.66142732892E+02  0.10566000000E+00 0. -1.
        994    1    1    2    0    0 -0.20729742249E+02  0.22636737256E+01  0.25900047106E+01  0.17248476616E+03  0.17120000000E+03 0.  0.
        998    1    1    2    0    0  0.91656506452E+01  0.30712771623E+01  0.14325049838E+04  0.14325725009E+04  0.10000000000E+02 0. -1.
</event>
<event>
 5    1  0.1574792E-008  0.3713179E+03  0.7957747E-01  0.3489856E+00
         13   -1    0    0    0    0  0.00000000000E+00  0.00000000000E+00  0.14999999963E+04  0.15000000000E+04  0.10566000000E+00 0. -1.
        994   -1    0    0    0    0 -0.00000000000E+00 -0.00000000000E+00  0.11368683772E-12  0.17120000000E+03  0.17120000000E+03 0.  0.
         13    1    1    2    0    0 -0.60258119977E+01  0.15461742472E+02  0.12608690093E+02  0.20841451975E+02  0.10566000000E+00 0. -1.
        994    1    1    2    0    0 -0.37274648316E+01 -0.74091634704E+00  0.86315783681E+01  0.17145957861E+03  0.17120000000E+03 0.  0.
        998    1    1    2    0    0  0.97532768294E+01 -0.14720826125E+02  0.14787597278E+04  0.14788989694E+04  0.10000000000E+02 0. -1.
</event>
<event>
 5    1  0.1574792E-008  0.3807244E+03  0.7957747E-01  0.3448010E+00
         13   -1    0    0    0    0  0.00000000000E+00  0.00000000000E+00  0.14999999963E+04  0.15000000000E+04  0.10566000000E+00 0.  1.
        994   -1    0    0    0    0 -0.00000000000E+00 -0.00000000000E+00  0.11368683772E-12  0.17120000000E+03  0.17120000000E+03 0.  0.
         13    1    1    2    0    0  0.26851094841E+02 -0.66214189868E+01  0.94082267162E+02  0.98062779086E+02  0.10566000000E+00 0.  1.
        994    1    1    2    0    0 -0.27547707795E+02  0.10013500097E+02  0.66384034076E+01  0.17381787822E+03  0.17120000000E+03 0.  0.
        998    1    1    2    0    0  0.69661295316E+00 -0.33920811100E+01  0.13992793257E+04  0.13993193427E+04  0.10000000000E+02 0.  1.
</event>
<event>
 5    1  0.1574792E-008  0.3734571E+03  0.7957747E-01  0.3480152E+00
         13   -1    0    0    0    0  0.00000000000E+00  0.00000000000E+00  0.14999999963E+04  0.15000000000E+04  0.10566000000E+00 0.  1.
        994   -1    0    0    0    0 -0.00000000000E+00 -0.00000000000E+00  0.11368683772E-12  0.17120000000E+03  0.17120000000E+03 0.  0.
         13    1    1    2    0    0  0.40876530589E+02  0.33744061058E+02  0.10256904650E+03  0.11545550170E+03  0.10566000000E+00 0.  1.
        994    1    1    2    0    0 -0.19208137481E+02 -0.43551525242E+02  0.20840032751E+02  0.17891180750E+03  0.17120000000E+03 0.  0.
        998    1    1    2    0    0 -0.21668393108E+02  0.98074641843E+01  0.13765909170E+04  0.13768326908E+04  0.10000000000E+02 0.  1.
</event>
<event>
 5    1  0.1574792E-008  0.3752716E+03  0.7957747E-01  0.3472009E+00
         13   -1    0    0    0    0  0.00000000000E+00  0.00000000000E+00  0.14999999963E+04  0.15000000000E+04  0.10566000000E+00 0. -1.
        994   -1    0    0    0    0 -0.00000000000E+00 -0.00000000000E+00  0.11368683772E-12  0.17120000000E+03  0.17120000000E+03 0.  0.
         13    1    1    2    0    0  0.35421415774E+02  0.25004904422E+01  0.17933177146E+03  0.18281363342E+03  0.10566000000E+00 0. -1.
        994    1    1    2    0    0  0.80186695154E+02 -0.19596845615E+00  0.28699177791E+02  0.19121461055E+03  0.17120000000E+03 0.  0.
        998    1    1    2    0    0 -0.11560811093E+03 -0.23045219861E+01  0.12919690470E+04  0.12971717560E+04  0.10000000000E+02 0. -1.
</event>
<event>
 5    1  0.1574792E-008  0.3737495E+03  0.7957747E-01  0.3478835E+00
         13   -1    0    0    0    0  0.00000000000E+00  0.00000000000E+00  0.14999999963E+04  0.15000000000E+04  0.10566000000E+00 0.  1.
        994   -1    0    0    0    0 -0.00000000000E+00 -0.00000000000E+00  0.11368683772E-12  0.17120000000E+03  0.17120000000E+03 0.  0.
         13    1    1    2    0    0  0.47205961000E+01 -0.17214001632E+02  0.18360076390E+02  0.25606824263E+02  0.10566000000E+00 0.  1.
        994    1    1    2    0    0 -0.52986808446E+01  0.17336179579E+02  0.84448793373E+01  0.17236407726E+03  0.17120000000E+03 0.  0.
        998    1    1    2    0    0  0.57808474466E+00 -0.12217794643E+00  0.14731950406E+04  0.14732290985E+04  0.10000000000E+02 0.  1.
</event>
<event>
 5    1  0.1574792E-008  0.3723626E+03  0.7957747E-01  0.3485103E+00
         13   -1    0    0    0    0  0.00000000000E+00  0.00000000000E+00  0.14999999963E+04  0.15000000000E+04  0.10566000000E+00 0. -1.
        994   -1    0    0    0    0 -0.00000000000E+00 -0.00000000000E+00  0.11368683772E-12  0.17120000000E+03  0.17120000000E+03 0.  0.
         13    1    1    2    0    0 -0.39641146706E+01  0.28189538478E+02  0.45551065493E+02  0.53714756039E+02  0.10566000000E+00 0. -1.
        994    1    1    2    0    0  0.94995584759E+01 -0.30536056784E+02  0.11554985270E+02  0.17454412067E+03  0.17120000000E+03 0.  0.
        998    1    1    2    0    0 -0.55354438053E+01  0.23465183060E+01  0.14428939455E+04  0.14429411233E+04  0.10000000000E+02 0. -1.
</event>
<event>
 5    1  0.1574792E-008  0.3849633E+03  0.7957747E-01  0.3429828E+00
         13   -1    0    0    0    0  0.00000000000E+00  0.00000000000E+00  0.14999999963E+04  0.15000000000E+04  0.10566000000E+00 0. -1.
        994   -1    0    0    0    0 -0.00000000000E+00 -0.00000000000E+00  0.11368683772E-12  0.17120000000E+03  0.17120000000E+03 0.  0.
         13    1    1    2    0    0  0.10448712117E+02 -0.94726433797E+01  0.67510700235E+02  0.68968198235E+02  0.10566000000E+00 0. -1.
        994    1    1    2    0    0 -0.82259454361E+01 -0.20017776918E+02  0.31903923230E+01  0.17259199337E+03  0.17120000000E+03 0.  0.
        998    1    1    2    0    0 -0.22227666812E+01  0.29490420298E+02  0.14292989037E+04  0.14296398084E+04  0.10000000000E+02 0. -1.
</event>
<event>
 5    1  0.1574792E-008  0.3831895E+03  0.7957747E-01  0.3437387E+00
         13   -1    0    0    0    0  0.00000000000E+00  0.00000000000E+00  0.14999999963E+04  0.15000000000E+04  0.10566000000E+00 0.  1.
        994   -1    0    0    0    0 -0.00000000000E+00 -0.00000000000E+00  0.11368683772E-12  0.17120000000E+03  0.17120000000E+03 0.  0.
         13    1    1    2    0    0 -0.18720052801E+01 -0.11145254734E+02  0.23156279981E+02  0.25767141352E+02  0.10566000000E+00 0.  1.
        994    1    1    2    0    0 -0.98029613543E+00  0.23332868711E+02  0.43379406367E+01  0.17283993020E+03  0.17120000000E+03 0.  0.
        998    1    1    2    0    0  0.28523014155E+01 -0.12187613977E+02  0.14725057757E+04  0.14725929284E+04  0.10000000000E+02 0.  1.
</event>
<event>
 5    1  0.1574792E-008  0.3692154E+03  0.7957747E-01  0.3499504E+00
         13   -1    0    0    0    0  0.00000000000E+00  0.00000000000E+00  0.14999999963E+04  0.15000000000E+04  0.10566000000E+00 0. -1.
        994   -1    0    0    0    0 -0.00000000000E+00 -0.00000000000E+00  0.11368683772E-12  0.17120000000E+03  0.17120000000E+03 0.  0.
         13    1    1    2    0    0 -0.99300173614E+02 -0.14186376631E+02  0.39564139091E+03  0.40815915906E+03  0.10566000000E+00 0. -1.
        994    1    1    2    0    0  0.80438558081E+02  0.25782939460E+02  0.35832199163E+02  0.19423827658E+03  0.17120000000E+03 0.  0.
        998    1    1    2    0    0  0.18861615533E+02 -0.11596562829E+02  0.10685264062E+04  0.10688025644E+04  0.10000000000E+02 0. -1.
</event>
<event>
 5    1  0.1574792E-008  0.3804227E+03  0.7957747E-01  0.3449320E+00
         13   -1    0    0    0    0  0.00000000000E+00  0.00000000000E+00  0.14999999963E+04  0.15000000000E+04  0.10566000000E+00 0. -1.
        994   -1    0    0    0    0 -0.00000000000E+00 -0.00000000000E+00  0.11368683772E-12  0.17120000000E+03  0.17120000000E+03 0.  0.
         13    1    1    2    0    0  0.20197016799E+02 -0.10434669265E+02  0.66804413763E+02  0.70566583256E+02  0.10566000000E+00 0. -1.
        994    1    1    2    0    0 -0.78244194347E+01 -0.98564581178E+00  0.41275792052E+01  0.17143123971E+03  0.17120000000E+03 0.  0.
        998    1    1    2    0    0 -0.12372597364E+02  0.11420315077E+02  0.14290680033E+04  0.14292021770E+04  0.10000000000E+02 0. -1.
</event>
<event>
 5    1  0.1574792E-008  0.3947850E+03  0.7957747E-01  0.3389204E+00
         13   -1    0    0    0    0  0.00000000000E+00  0.00000000000E+00  0.14999999963E+04  0.15000000000E+04  0.10566000000E+00 0. -1.
        994   -1    0    0    0    0 -0.00000000000E+00 -0.00000000000E+00  0.11368683772E-12  0.17120000000E+03  0.17120000000E+03 0.  0.
         13    1    1    2    0    0 -0.30340621885E+02  0.57585874938E+01  0.94038153051E+01  0.32282465405E+02  0.10566000000E+00 0. -1.
        994    1    1    2    0    0  0.10308440508E+02 -0.18853269836E+02  0.26470169000E+02  0.17456179300E+03  0.17120000000E+03 0.  0.
        998    1    1    2    0    0  0.20032181377E+02  0.13094682343E+02  0.14641260120E+04  0.14643557416E+04  0.10000000000E+02 0. -1.
</event>
<event>
 5    1  0.1574792E-008  0.3728398E+03  0.7957747E-01  0.3482941E+00
         13   -1    0    0    0    0  0.00000000000E+00  0.00000000000E+00  0.14999999963E+04  0.15000000000E+04  0.10566000000E+00 0.  1.
        994   -1    0    0    0    0 -0.00000000000E+00 -0.00000000000E+00  0.11368683772E-12  0.17120000000E+03  0.17120000000E+03 0.  0.
         13    1    1    2    0    0 -0.47102846052E+02 -0.25665759299E+02  0.20792504255E+03  0.21473295926E+03  0.10566000000E+00 0.  1.
        994    1    1    2    0    0  0.10658916280E+02 -0.17215326113E+01  0.81915309583E+01  0.17173560304E+03  0.17120000000E+03 0.  0.
        998    1    1    2    0    0  0.36443929772E+02  0.27387291910E+02  0.12838834228E+04  0.12847314377E+04  0.10000000000E+02 0.  1.
</event>
<event>
 5    1  0.1574792E-008  0.3809519E+03  0.7957747E-01  0.3447024E+00
         13   -1    0    0    0    0  0.00000000000E+00  0.00000000000E+00  0.14999999963E+04  0.15000000000E+04  0.10566000000E+00 0. -1.
        994   -1    0    0    0    0 -0.00000000000E+00 -0.00000000000E+00  0.11368683772E-12  0.17120000000E+03  0.17120000000E+03 0.  0.
         13    1    1    2    0    0 -0.12264946279E+02 -0.17812692724E+02  0.61207730539E+02  0.64916241197E+02  0.10566000000E+00 0. -1.
        994    1    1    2    0    0  0.10823217044E+02  0.16272357286E+02  0.49272051734E+01  0.17238227574E+03  0.17120000000E+03 0.  0.
        998    1    1    2    0    0  0.14417292349E+01  0.15403354376E+01  0.14338650606E+04  0.14339014831E+04  0.10000000000E+02 0. -1.
</event>
<event>
 5    1  0.1574792E-008  0.3705644E+03  0.7957747E-01  0.3493301E+00
         13   -1    0    0    0    0  0.00000000000E+00  0.00000000000E+00  0.14999999963E+04  0.15000000000E+04  0.10566000000E+00 0.  1.
        994   -1    0    0    0    0 -0.00000000000E+00 -0.00000000000E+00  0.11368683772E-12  0.17120000000E+03  0.17120000000E+03 0.  0.
         13    1    1    2    0    0 -0.38373300180E+01 -0.32319753432E+02  0.55093209677E+02  0.63988784018E+02  0.10566000000E+00 0.  1.
        994    1    1    2    0    0  0.24680994257E+01  0.24432898801E+02  0.11058246337E+02  0.17330546117E+03  0.17120000000E+03 0.  0.
        998    1    1    2    0    0  0.13692305923E+01  0.78868546308E+01  0.14338485403E+04  0.14339057548E+04  0.10000000000E+02 0.  1.
</event>
<event>
 5    1  0.1574792E-008  0.3721876E+03  0.7957747E-01  0.3485897E+00
         13   -1    0    0    0    0  0.00000000000E+00  0.00000000000E+00  0.14999999963E+04  0.15000000000E+04  0.10566000000E+00 0. -1.
        994   -1    0    0    0    0 -0.00000000000E+00 -0.00000000000E+00  0.11368683772E-12  0.17120000000E+03  0.17120000000E+03 0.  0.
         13    1    1    2    0    0  0.52575722685E+02  0.10876240864E+02  0.99883180577E+02  0.11339823701E+03  0.10566000000E+00 0. -1.
        994    1    1    2    0    0 -0.73707750756E+02 -0.12226053673E+02  0.32036059723E+02  0.18952060055E+03  0.17120000000E+03 0.  0.
        998    1    1    2    0    0  0.21132028071E+02  0.13498128090E+01  0.13680807560E+04  0.13682811624E+04  0.10000000000E+02 0. -1.
</event>
<event>
 5    1  0.1574792E-008  0.3762440E+03  0.7957747E-01  0.3467678E+00
         13   -1    0    0    0    0  0.00000000000E+00  0.00000000000E+00  0.14999999963E+04  0.15000000000E+04  0.10566000000E+00 0. -1.
        994   -1    0    0    0    0 -0.00000000000E+00 -0.00000000000E+00  0.11368683772E-12  0.17120000000E+03  0.17120000000E+03 0.  0.
         13    1    1    2    0    0  0.87885901916E+01  0.14876340896E+02  0.24218714501E+02  0.29750666079E+02  0.10566000000E+00 0. -1.
        994    1    1    2    0    0  0.35482017064E+02  0.61767221900E+01  0.10444634579E+02  0.17525882524E+03  0.17120000000E+03 0.  0.
        998    1    1    2    0    0 -0.44270607256E+02 -0.21053063086E+02  0.14653366472E+04  0.14661905087E+04  0.10000000000E+02 0. -1.
</event>
<event>
 5    1  0.1574792E-008  0.3823594E+03  0.7957747E-01  0.3440949E+00
         13   -1    0    0    0    0  0.00000000000E+00  0.00000000000E+00  0.14999999963E+04  0.15000000000E+04  0.10566000000E+00 0. -1.
        994   -1    0    0    0    0 -0.00000000000E+00 -0.00000000000E+00  0.11368683772E-12  0.17120000000E+03  0.17120000000E+03 0.  0.
         13    1    1    2    0    0 -0.14196191787E+02  0.34658474624E+02  0.19754985410E+03  0.20106888806E+03  0.10566000000E+00 0. -1.
        994    1    1    2    0    0  0.13370622676E+02 -0.41757577199E+02  0.93501387362E+01  0.17697269252E+03  0.17120000000E+03 0.  0.
        998    1    1    2    0    0  0.82556911104E+00  0.70991025752E+01  0.12931000034E+04  0.12931584194E+04  0.10000000000E+02 0. -1.
</event>
<event>
 5    1  0.1574792E-008  0.3848194E+03  0.7957747E-01  0.3430439E+00
         13   -1    0    0    0    0  0.00000000000E+00  0.00000000000E+00  0.14999999963E+04  0.15000000000E+04  0.10566000000E+00 0. -1.
        994   -1    0    0    0    0 -0.00000000000E+00 -0.00000000000E+00  0.11368683772E-12  0.17120000000E+03  0.17120000000E+03 0.  0.
         13    1    1    2    0    0 -0.15293970875E+02 -0.13375134973E+01  0.66214876060E+02  0.67971431228E+02  0.10566000000E+00 0. -1.
        994    1    1    2    0    0  0.15722401810E+02 -0.24833763916E+01  0.25539818179E+01  0.17195733163E+03  0.17120000000E+03 0.  0.
        998    1    1    2    0    0 -0.42843093422E+00  0.38208898889E+01  0.14312311384E+04  0.14312712371E+04  0.10000000000E+02 0. -1.
</event>
<event>
 5    1  0.1574792E-008  0.3843314E+03  0.7957747E-01  0.3432513E+00
         13   -1    0    0    0    0  0.00000000000E+00  0.00000000000E+00  0.14999999963E+04  0.15000000000E+04  0.10566000000E+00 0. -1.
        994   -1    0    0    0    0 -0.00000000000E+00 -0.00000000000E+00  0.11368683772E-12  0.17120000000E+03  0.17120000000E+03 0.  0.
         13    1    1    2    0    0  0.28602392695E+00 -0.14430931346E+02  0.52432973640E+02  0.54383466954E+02  0.10566000000E+00 0. -1.
        994    1    1    2    0    0 -0.47329983702E+00  0.10694687755E+02  0.23402616162E+01  0.17155033426E+03  0.17120000000E+03 0.  0.
        998    1    1    2    0    0  0.18727591007E+00  0.37362435911E+01  0.14452267610E+04  0.14452661988E+04  0.10000000000E+02 0. -1.
</event>
<event>
 5    1  0.1574792E-008  0.3830981E+03  0.7957747E-01  0.3437779E+00
         13   -1    0    0    0    0  0.00000000000E+00  0.00000000000E+00  0.14999999963E+04  0.15000000000E+04  0.10566000000E+00 0.  1.
        994   -1    0    0    0    0 -0.00000000000E+00 -0.00000000000E+00  0.11368683772E-12  0.17120000000E+03  0.17120000000E+03 0.  0.
         13    1    1    2    0    0  0.20245143608E+01 -0.24710594112E+02  0.10636336289E+03  0.10921487192E+03  0.10566000000E+00 0.  1.
        994    1    1    2    0    0 -0.23354364391E+01  0.31941923267E+02  0.59789837792E+01  0.17427257091E+03  0.17120000000E+03 0.  0.
        998    1    1    2    0    0  0.31092207834E+00 -0.72313291553E+01  0.13876576496E+04  0.13877125572E+04  0.10000000000E+02 0.  1.
</event>
<event>
 5    1  0.1574792E-008  0.3863573E+03  0.7957747E-01  0.3423936E+00
         13   -1    0    0    0    0  0.00000000000E+00  0.00000000000E+00  0.14999999963E+04  0.15000000000E+04  0.10566000000E+00 0. -1.
        994   -1    0    0    0    0 -0.00000000000E+00 -0.00000000000E+00  0.11368683772E-12  0.17120000000E+03  0.17120000000E+03 0.  0.
         13    1    1    2    0    0 -0.52787008868E+01  0.10165381391E+02  0.65426495647E+02  0.66421661817E+02  0.10566000000E+00 0. -1.
        994    1    1    2    0    0  0.12403113330E+02 -0.11107266022E+02  0.18659031323E+01  0.17201781935E+03  0.17120000000E+03 0.  0.
        998    1    1    2    0    0 -0.71244124429E+01  0.94188463168E+00  0.14327075975E+04  0.14327605188E+04  0.10000000000E+02 0. -1.
</event>
<event>
 5    1  0.1574792E-008  0.3707536E+03  0.7957747E-01  0.3492434E+00
         13   -1    0    0    0    0  0.00000000000E+00  0.00000000000E+00  0.14999999963E+04  0.15000000000E+04  0.10566000000E+00 0.  1.
        994   -1    0    0    0    0 -0.00000000000E+00 -0.00000000000E+00  0.11368683772E-12  0.17120000000E+03  0.17120000000E+03 0.  0.
         13    1    1    2    0    0  0.87617170650E+02 -0.11823106253E+02  0.32041548668E+03  0.33238930444E+03  0.10566000000E+00 0.  1.
        994    1    1    2    0    0 -0.98103750936E+02  0.26263240983E+00  0.42838208991E+02  0.20191326621E+03  0.17120000000E+03 0.  0.
        998    1    1    2    0    0  0.10486580286E+02  0.11560473843E+02  0.11367463006E+04  0.11368974294E+04  0.10000000000E+02 0.  1.
</event>
<event>
 5    1  0.1574792E-008  0.3704559E+03  0.7957747E-01  0.3493798E+00
         13   -1    0    0    0    0  0.00000000000E+00  0.00000000000E+00  0.14999999963E+04  0.15000000000E+04  0.10566000000E+00 0. -1.
        994   -1    0    0    0    0 -0.00000000000E+00 -0.00000000000E+00  0.11368683772E-12  0.17120000000E+03  0.17120000000E+03 0.  0.
         13    1    1    2    0    0  0.67420082328E+01 -0.23695120740E+02  0.28680018546E+02  0.37808306624E+02  0.10566000000E+00 0. -1.
        994    1    1    2    0    0 -0.97305323103E+01  0.31981224565E+02  0.12898557876E+02  0.17490939020E+03  0.17120000000E+03 0.  0.
        998    1    1    2    0    0  0.29885240775E+01 -0.82861038248E+01  0.14584214199E+04  0.14584823032E+04  0.10000000000E+02 0. -1.
</event>
<event>
 5    1  0.1574792E-008  0.3019492E+03  0.7957747E-01  0.3882201E+00
         13   -1    0    0    0    0  0.00000000000E+00  0.00000000000E+00  0.14999999963E+04  0.15000000000E+04  0.10566000000E+00 0.  1.
        994   -1    0    0    0    0 -0.00000000000E+00 -0.00000000000E+00  0.11368683772E-12  0.17120000000E+03  0.17120000000E+03 0.  0.
         13    1    1    2    0    0 -0.22918553342E+01  0.22178125876E+03  0.56755182585E+03  0.60934987120E+03  0.10566000000E+00 0.  1.
        994    1    1    2    0    0  0.21732766161E+02 -0.21837164078E+03  0.23561980025E+03  0.36467055940E+03  0.17120000000E+03 0.  0.
        998    1    1    2    0    0 -0.19440910827E+02 -0.34096179841E+01  0.69682837018E+03  0.69717956940E+03  0.10000000000E+02 0. -1.
</event>
<event>
 5    1  0.2605368E-008  0.3847077E+03  0.7957747E-01  0.3430913E+00
         13   -1    0    0    0    0  0.00000000000E+00  0.00000000000E+00  0.14999999963E+04  0.15000000000E+04  0.10566000000E+00 0. -1.
        994   -1    0    0    0    0 -0.00000000000E+00 -0.00000000000E+00  0.11368683772E-12  0.17120000000E+03  0.17120000000E+03 0.  0.
         13    1    1    2    0    0  0.76761864152E+01  0.65283906698E+01  0.27863263828E+02  0.29629653353E+02  0.10566000000E+00 0. -1.
        994    1    1    2    0    0 -0.67877666010E+01 -0.75820184786E+01  0.21162901520E+01  0.17151524557E+03  0.17120000000E+03 0.  0.
        998    1    1    2    0    0 -0.88841981413E+00  0.10536278088E+01  0.14700204423E+04  0.14700551011E+04  0.10000000000E+02 0. -1.
</event>
<event>
 5    1  0.1574792E-008  0.3811968E+03  0.7957747E-01  0.3445964E+00
         13   -1    0    0    0    0  0.00000000000E+00  0.00000000000E+00  0.14999999963E+04  0.15000000000E+04  0.10566000000E+00 0.  1.
        994   -1    0    0    0    0 -0.00000000000E+00 -0.00000000000E+00  0.11368683772E-12  0.17120000000E+03  0.17120000000E+03 0.  0.
         13    1    1    2    0    0  0.24935411102E+02 -0.10134165775E+02  0.11474383038E+03  0.11785853307E+03  0.10566000000E+00 0.  1.
        994    1    1    2    0    0 -0.86376280051E+00 -0.12671483504E+02  0.40675309877E+01  0.17171865766E+03  0.17120000000E+03 0.  0.
        998    1    1    2    0    0 -0.24071648301E+02  0.22805649280E+02  0.13811886349E+04  0.13816228093E+04  0.10000000000E+02 0.  1.
</event>
<event>
 5    1  0.1574792E-008  0.3847784E+03  0.7957747E-01  0.3430613E+00
         13   -1    0    0    0    0  0.00000000000E+00  0.00000000000E+00  0.14999999963E+04  0.15000000000E+04  0.10566000000E+00 0. -1.
        994   -1    0    0    0    0 -0.00000000000E+00 -0.00000000000E+00  0.11368683772E-12  0.17120000000E+03  0.17120000000E+03 0.  0.
         13    1    1    2    0    0 -0.13396289853E+02 -0.41077916413E+01  0.54921432340E+02  0.56680767711E+02  0.10566000000E+00 0. -1.
        994    1    1    2    0    0  0.13355015960E+02  0.29505741444E+01  0.23560705882E+01  0.17176161797E+03  0.17120000000E+03 0.  0.
        998    1    1    2    0    0  0.41273893274E-01  0.11572174969E+01  0.14427224934E+04  0.14427576143E+04  0.10000000000E+02 0. -1.
</event>
<event>
 5    1  0.1574792E-008  0.3810123E+03  0.7957747E-01  0.3446762E+00
         13   -1    0    0    0    0  0.00000000000E+00  0.00000000000E+00  0.14999999963E+04  0.15000000000E+04  0.10566000000E+00 0.  1.
        994   -1    0    0    0    0 -0.00000000000E+00 -0.00000000000E+00  0.11368683772E-12  0.17120000000E+03  0.17120000000E+03 0.  0.
         13    1    1    2    0    0  0.92075264320E+01  0.53833780505E+01  0.14151434643E+02  0.17720992318E+02  0.10566000000E+00 0.  1.
        994    1    1    2    0    0 -0.75715984219E+01 -0.26695877431E+01  0.38377859022E+01  0.17143110687E+03  0.17120000000E+03 0.  0.
        998    1    1    2    0    0 -0.16359280101E+01 -0.27137903074E+01  0.14820107757E+04  0.14820479008E+04  0.10000000000E+02 0.  1.
</event>
<event>
 5    1  0.1574792E-008  0.3832032E+03  0.7957747E-01  0.3437329E+00
         13   -1    0    0    0    0  0.00000000000E+00  0.00000000000E+00  0.14999999963E+04  0.15000000000E+04  0.10566000000E+00 0.  1.
        994   -1    0    0    0    0 -0.00000000000E+00 -0.00000000000E+00  0.11368683772E-12  0.17120000000E+03  0.17120000000E+03 0.  0.
         13    1    1    2    0    0 -0.24267577016E+02  0.52215048429E+01  0.10621003534E+03  0.10907227960E+03  0.10566000000E+00 0.  1.
        994    1    1    2    0    0  0.32087243550E+02 -0.22377018962E+02  0.76035807654E+01  0.17577706510E+03  0.17120000000E+03 0.  0.
        998    1    1    2    0    0 -0.78196665340E+01  0.17155514120E+02  0.13861863802E+04  0.13863506553E+04  0.10000000000E+02 0.  1.
</event>
<event>
 5    1  0.1574792E-008  0.3776197E+03  0.7957747E-01  0.3461589E+00
         13   -1    0    0    0    0  0.00000000000E+00  0.00000000000E+00  0.14999999963E+04  0.15000000000E+04  0.10566000000E+00 0.  1.
        994   -1    0    0    0    0 -0.00000000000E+00 -0.00000000000E+00  0.11368683772E-12  0.17120000000E+03  0.17120000000E+03 0.  0.
         13    1    1    2    0    0  0.18423258592E+02  0.92661030682E+00  0.25251958189E+02  0.31272154071E+02  0.10566000000E+00 0.  1.
        994    1    1    2    0    0 -0.68758218111E+02 -0.25690368061E+02  0.23713598203E+02  0.18777503111E+03  0.17120000000E+03 0.  0.
        998    1    1    2    0    0  0.50334959519E+02  0.24763757754E+02  0.14510344399E+04  0.14521528148E+04  0.10000000000E+02 0.  1.
</event>
<event>
 5    1  0.1574792E-008  0.3798331E+03  0.7957747E-01  0.3451885E+00
         13   -1    0    0    0    0  0.00000000000E+00  0.00000000000E+00  0.14999999963E+04  0.15000000000E+04  0.10566000000E+00 0.  1.
        994   -1    0    0    0    0 -0.00000000000E+00 -0.00000000000E+00  0.11368683772E-12  0.17120000000E+03  0.17120000000E+03 0.  0.
         13    1    1    2    0    0  0.22429795617E+02  0.15209997315E+02  0.94179633405E+02  0.98001297247E+02  0.10566000000E+00 0.  1.
        994    1    1    2    0    0  0.21024541178E+01  0.11472666069E+01  0.42365978295E+01  0.17126916037E+03  0.17120000000E+03 0.  0.
        998    1    1    2    0    0 -0.24532249735E+02 -0.16357263922E+02  0.14015837650E+04  0.14019295424E+04  0.10000000000E+02 0.  1.
</event>
<event>
 5    1  0.1574792E-008  0.3764888E+03  0.7957747E-01  0.3466591E+00
         13   -1    0    0    0    0  0.00000000000E+00  0.00000000000E+00  0.14999999963E+04  0.15000000000E+04  0.10566000000E+00 0.  1.
        994   -1    0    0    0    0 -0.00000000000E+00 -0.00000000000E+00  0.11368683772E-12  0.17120000000E+03  0.17120000000E+03 0.  0.
         13    1    1    2    0    0 -0.30005193333E+02  0.58127255210E+02  0.31868167910E+03  0.32532616431E+03  0.10566000000E+00 0.  1.
        994    1    1    2    0    0  0.18517421224E+02 -0.49216728704E+02  0.15326492092E+02  0.17974849828E+03  0.17120000000E+03 0.  0.
        998    1    1    2    0    0  0.11487772109E+02 -0.89105265066E+01  0.11659918251E+04  0.11661253374E+04  0.10000000000E+02 0.  1.
</event>
<event>
 5    1  0.1574792E-008  0.3804668E+03  0.7957747E-01  0.3449129E+00
         13   -1    0    0    0    0  0.00000000000E+00  0.00000000000E+00  0.14999999963E+04  0.15000000000E+04  0.10566000000E+00 0.  1.
        994   -1    0    0    0    0 -0.00000000000E+00 -0.00000000000E+00  0.11368683772E-12  0.17120000000E+03  0.17120000000E+03 0.  0.
         13    1    1    2    0    0  0.45658939072E+02  0.20210723496E+02  0.26356970061E+03  0.26825773112E+03  0.10566000000E+00 0.  1.
        994    1    1    2    0    0 -0.43328868387E+02 -0.27024117312E+02  0.12651112498E+02  0.17910104522E+03  0.17120000000E+03 0.  0.
        998    1    1    2    0    0 -0.23300706845E+01  0.68133938160E+01  0.12237791832E+04  0.12238412237E+04  0.10000000000E+02 0.  1.
</event>
<event>
 5    1  0.1574792E-008  0.3807195E+03  0.7957747E-01  0.3448031E+00
         13   -1    0    0    0    0  0.00000000000E+00  0.00000000000E+00  0.14999999963E+04  0.15000000000E+04  0.10566000000E+00 0.  1.
        994   -1    0    0    0    0 -0.00000000000E+00 -0.00000000000E+00  0.11368683772E-12  0.17120000000E+03  0.17120000000E+03 0.  0.
         13    1    1    2    0    0  0.12571682945E+02 -0.14947268347E+02  0.50167484954E+02  0.53835450716E+02  0.10566000000E+00 0.  1.
        994    1    1    2    0    0 -0.10453111708E+01  0.93705884813E+01  0.40669138690E+01  0.17150766861E+03  0.17120000000E+03 0.  0.
        998    1    1    2    0    0 -0.11526371774E+02  0.55766798659E+01  0.14457655975E+04  0.14458568807E+04  0.10000000000E+02 0.  1.
</event>
<event>
 5    1  0.1574792E-008  0.3803785E+03  0.7957747E-01  0.3449512E+00
         13   -1    0    0    0    0  0.00000000000E+00  0.00000000000E+00  0.14999999963E+04  0.15000000000E+04  0.10566000000E+00 0. -1.
        994   -1    0    0    0    0 -0.00000000000E+00 -0.00000000000E+00  0.11368683772E-12  0.17120000000E+03  0.17120000000E+03 0.  0.
         13    1    1    2    0    0  0.30397054343E+02  0.13219155804E+02  0.15389400785E+03  0.15742332676E+03  0.10566000000E+00 0. -1.
        994    1    1    2    0    0 -0.79874698681E+00 -0.63154384301E+01  0.40774941427E+01  0.17136682502E+03  0.17120000000E+03 0.  0.
        998    1    1    2    0    0 -0.29598307356E+02 -0.69037173744E+01  0.13420284943E+04  0.13424098482E+04  0.10000000000E+02 0. -1.
</event>
<event>
 5    1  0.1574792E-008  0.3719359E+03  0.7957747E-01  0.3487041E+00
         13   -1    0    0    0    0  0.00000000000E+00  0.00000000000E+00  0.14999999963E+04  0.15000000000E+04  0.10566000000E+00 0. -1.
        994   -1    0    0    0    0 -0.00000000000E+00 -0.00000000000E+00  0.11368683772E-12  0.17120000000E+03  0.17120000000E+03 0.  0.
         13    1    1    2    0    0  0.42259992852E+01  0.19818296747E+02  0.21551893307E+02  0.29582414118E+02  0.10566000000E+00 0. -1.
        994    1    1    2    0    0 -0.80930791495E+01 -0.87351642209E+01  0.87478641089E+01  0.17183645175E+03  0.17120000000E+03 0.  0.
        998    1    1    2    0    0  0.38670798643E+01 -0.11083132526E+02  0.14697002389E+04  0.14697811341E+04  0.10000000000E+02 0. -1.
</event>
<event>
 5    1  0.1574792E-008  0.3120678E+03  0.7957747E-01  0.3813462E+00
         13   -1    0    0    0    0  0.00000000000E+00  0.00000000000E+00  0.14999999963E+04  0.15000000000E+04  0.10566000000E+00 0.  1.
        994   -1    0    0    0    0 -0.00000000000E+00 -0.00000000000E+00  0.11368683772E-12  0.17120000000E+03  0.17120000000E+03 0.  0.
         13    1    1    2    0    0 -0.16093839389E+03  0.12507714884E+03  0.69924281160E+03  0.72834468525E+03  0.10566000000E+00 0.  1.
        994    1    1    2    0    0  0.16253916550E+03 -0.11865212013E+03  0.17483580635E+03  0.31681904159E+03  0.17120000000E+03 0.  0.
        998    1    1    2    0    0 -0.16007716058E+01 -0.64250287042E+01  0.62592137833E+03  0.62603627316E+03  0.10000000000E+02 0.  0.
</event>
<event>
 5    1  0.1574792E-008  0.3850213E+03  0.7957747E-01  0.3429582E+00
         13   -1    0    0    0    0  0.00000000000E+00  0.00000000000E+00  0.14999999963E+04  0.15000000000E+04  0.10566000000E+00 0.  1.
        994   -1    0    0    0    0 -0.00000000000E+00 -0.00000000000E+00  0.11368683772E-12  0.17120000000E+03  0.17120000000E+03 0.  0.
         13    1    1    2    0    0 -0.14157284634E+02 -0.10133377972E+02  0.96564220392E+02  0.98121220342E+02  0.10566000000E+00 0.  1.
        994    1    1    2    0    0  0.45348138524E+01  0.61178127447E+01  0.18102969092E+01  0.17137884742E+03  0.17120000000E+03 0.  0.
        998    1    1    2    0    0  0.96224707818E+01  0.40155652269E+01  0.14016254790E+04  0.14016999322E+04  0.10000000000E+02 0.  1.
</event>
<event>
 5    1  0.1574792E-008  0.3830659E+03  0.7957747E-01  0.3437916E+00
         13   -1    0    0    0    0  0.00000000000E+00  0.00000000000E+00  0.14999999963E+04  0.15000000000E+04  0.10566000000E+00 0.  1.
        994   -1    0    0    0    0 -0.00000000000E+00 -0.00000000000E+00  0.11368683772E-12  0.17120000000E+03  0.17120000000E+03 0.  0.
         13    1    1    2    0    0 -0.15367568303E+02  0.18526033810E+02  0.88972325912E+02  0.92170830670E+02  0.10566000000E+00 0.  1.
        994    1    1    2    0    0  0.25313541184E+02 -0.48142756269E+02  0.12446636001E+02  0.18006348629E+03  0.17120000000E+03 0.  0.
        998    1    1    2    0    0 -0.99459728817E+01  0.29616722459E+02  0.13985810344E+04  0.13989656830E+04  0.10000000000E+02 0.  1.
</event>
<event>
 5    1  0.1574792E-008  0.3750927E+03  0.7957747E-01  0.3472808E+00
         13   -1    0    0    0    0  0.00000000000E+00  0.00000000000E+00  0.14999999963E+04  0.15000000000E+04  0.10566000000E+00 0. -1.
        994   -1    0    0    0    0 -0.00000000000E+00 -0.00000000000E+00  0.11368683772E-12  0.17120000000E+03  0.17120000000E+03 0.  0.
         13    1    1    2    0    0  0.34188697046E+02  0.30565160615E+02  0.19504351461E+03  0.20036237123E+03  0.10566000000E+00 0. -1.
        994    1    1    2    0    0  0.12633459942E+01  0.12588699485E+02  0.71752439734E+01  0.17181674984E+03  0.17120000000E+03 0.  0.
        998    1    1    2    0    0 -0.35452043040E+02 -0.43153860100E+02  0.12977812377E+04  0.12990208789E+04  0.10000000000E+02 0. -1.
</event>
<event>
 5    1  0.1574792E-008  0.3838732E+03  0.7957747E-01  0.3434465E+00
         13   -1    0    0    0    0  0.00000000000E+00  0.00000000000E+00  0.14999999963E+04  0.15000000000E+04  0.10566000000E+00 0.  1.
        994   -1    0    0    0    0 -0.00000000000E+00 -0.00000000000E+00  0.11368683772E-12  0.17120000000E+03  0.17120000000E+03 0.  0.
         13    1    1    2    0    0  0.29147644744E+02  0.11070019370E+02  0.18851606438E+03  0.19107707402E+03  0.10566000000E+00 0.  1.
        994    1    1    2    0    0 -0.31918446287E+02 -0.16392800314E+02  0.64519049975E+01  0.17503879054E+03  0.17120000000E+03 0.  0.
        998    1    1    2    0    0  0.27708015428E+01  0.53227809434E+01  0.13050320269E+04  0.13050841354E+04  0.10000000000E+02 0.  0.
</event>
<event>
 5    1  0.1574792E-008  0.3723061E+03  0.7957747E-01  0.3485359E+00
         13   -1    0    0    0    0  0.00000000000E+00  0.00000000000E+00  0.14999999963E+04  0.15000000000E+04  0.10566000000E+00 0. -1.
        994   -1    0    0    0    0 -0.00000000000E+00 -0.00000000000E+00  0.11368683772E-12  0.17120000000E+03  0.17120000000E+03 0.  0.
         13    1    1    2    0    0  0.15713181589E+02 -0.12974220658E+01  0.12687928458E+02  0.20238134110E+02  0.10566000000E+00 0. -1.
        994    1    1    2    0    0  0.19399041939E+02 -0.13195362835E+02  0.99591693581E+01  0.17308687265E+03  0.17120000000E+03 0.  0.
        998    1    1    2    0    0 -0.35112223528E+02  0.14492784901E+02  0.14773528985E+04  0.14778749932E+04  0.10000000000E+02 0. -1.
</event>
<event>
 5    1  0.1574792E-008  0.3819297E+03  0.7957747E-01  0.3442799E+00
         13   -1    0    0    0    0  0.00000000000E+00  0.00000000000E+00  0.14999999963E+04  0.15000000000E+04  0.10566000000E+00 0.  1.
        994   -1    0    0    0    0 -0.00000000000E+00 -0.00000000000E+00  0.11368683772E-12  0.17120000000E+03  0.17120000000E+03 0.  0.
         13    1    1    2    0    0  0.27758939863E+02 -0.37733276782E+02  0.24757622839E+03  0.25196896425E+03  0.10566000000E+00 0.  1.
        994    1    1    2    0    0 -0.31867307677E+02  0.56692950709E+02  0.17341484561E+02  0.18395592691E+03  0.17120000000E+03 0.  0.
        998    1    1    2    0    0  0.41083678136E+01 -0.18959673927E+02  0.12350822833E+04  0.12352751088E+04  0.10000000000E+02 0.  1.
</event>
<event>
 5    1  0.1574792E-008  0.3778393E+03  0.7957747E-01  0.3460621E+00
         13   -1    0    0    0    0  0.00000000000E+00  0.00000000000E+00  0.14999999963E+04  0.15000000000E+04  0.10566000000E+00 0.  1.
        994   -1    0    0    0    0 -0.00000000000E+00 -0.00000000000E+00  0.11368683772E-12  0.17120000000E+03  0.17120000000E+03 0.  0.
         13    1    1    2    0    0  0.51157042463E+02  0.24171284812E+02  0.25255669093E+03  0.25881689918E+03  0.10566000000E+00 0.  1.
        994    1    1    2    0    0 -0.56574713844E+02 -0.15462987289E+02  0.16898343001E+02  0.18175476945E+03  0.17120000000E+03 0.  0.
        998    1    1    2    0    0  0.54176713812E+01 -0.87082975227E+01  0.12305449623E+04  0.12306283314E+04  0.10000000000E+02 0.  1.
</event>
<event>
 5    1  0.1574792E-008  0.3833918E+03  0.7957747E-01  0.3436521E+00
         13   -1    0    0    0    0  0.00000000000E+00  0.00000000000E+00  0.14999999963E+04  0.15000000000E+04  0.10566000000E+00 0.  1.
        994   -1    0    0    0    0 -0.00000000000E+00 -0.00000000000E+00  0.11368683772E-12  0.17120000000E+03  0.17120000000E+03 0.  0.
         13    1    1    2    0    0  0.45190711843E+01  0.11569492450E+02  0.31011572786E+02  0.33406645606E+02  0.10566000000E+00 0.  1.
        994    1    1    2    0    0 -0.10385875139E+02 -0.46448397494E+01  0.28586989700E+01  0.17160143676E+03  0.17120000000E+03 0.  0.
        998    1    1    2    0    0  0.58668039549E+01 -0.69246527010E+01  0.14661297245E+04  0.14661919176E+04  0.10000000000E+02 0.  1.
</event>
<event>
 5    1  0.1574792E-008  0.3835058E+03  0.7957747E-01  0.3436034E+00
         13   -1    0    0    0    0  0.00000000000E+00  0.00000000000E+00  0.14999999963E+04  0.15000000000E+04  0.10566000000E+00 0. -1.
        994   -1    0    0    0    0 -0.00000000000E+00 -0.00000000000E+00  0.11368683772E-12  0.17120000000E+03  0.17120000000E+03 0.  0.
         13    1    1    2    0    0  0.37411737744E+01 -0.97025666789E+01  0.22596160366E+02  0.24874360468E+02  0.10566000000E+00 0. -1.
        994    1    1    2    0    0 -0.49789205578E+01 -0.32237963848E+01  0.24900764117E+01  0.17132081891E+03  0.17120000000E+03 0.  0.
        998    1    1    2    0    0  0.12377467834E+01  0.12926363064E+02  0.14749137595E+04  0.14750048206E+04  0.10000000000E+02 0. -1.
</event>
<event>
 5    1  0.1574792E-008  0.3844487E+03  0.7957747E-01  0.3432014E+00
         13   -1    0    0    0    0  0.00000000000E+00  0.00000000000E+00  0.14999999963E+04  0.15000000000E+04  0.10566000000E+00 0.  1.
        994   -1    0    0    0    0 -0.00000000000E+00 -0.00000000000E+00  0.11368683772E-12  0.17120000000E+03  0.17120000000E+03 0.  0.
         13    1    1    2    0    0 -0.13599225038E+02  0.14941391445E+02  0.97042012568E+02  0.99122890732E+02  0.10566000000E+00 0.  1.
        994    1    1    2    0    0  0.99521311026E+01 -0.26991257165E+02  0.46353294182E+01  0.17366202566E+03  0.17120000000E+03 0.  0.
        998    1    1    2    0    0  0.36470939352E+01  0.12049865720E+02  0.13983226543E+04  0.13984150836E+04  0.10000000000E+02 0.  1.
</event>
<event>
 5    1  0.1574792E-008  0.3853573E+03  0.7957747E-01  0.3428158E+00
         13   -1    0    0    0    0  0.00000000000E+00  0.00000000000E+00  0.14999999963E+04  0.15000000000E+04  0.10566000000E+00 0. -1.
        994   -1    0    0    0    0 -0.00000000000E+00 -0.00000000000E+00  0.11368683772E-12  0.17120000000E+03  0.17120000000E+03 0.  0.
         13    1    1    2    0    0 -0.11683841337E+02 -0.11351583643E+02  0.92907726636E+02  0.94325115597E+02  0.10566000000E+00 0. -1.
        994    1    1    2    0    0  0.16753400088E+02 -0.40674836713E+01  0.24297679296E+01  0.17208301662E+03  0.17120000000E+03 0.  0.
        998    1    1    2    0    0 -0.50695587510E+01  0.15419067314E+02  0.14046625017E+04  0.14047918678E+04  0.10000000000E+02 0. -1.
</event>
<event>
 5    1  0.1574792E-008  0.3855880E+03  0.7957747E-01  0.3427182E+00
         13   -1    0    0    0    0  0.00000000000E+00  0.00000000000E+00  0.14999999963E+04  0.15000000000E+04  0.10566000000E+00 0. -1.
        994   -1    0    0    0    0 -0.00000000000E+00 -0.00000000000E+00  0.11368683772E-12  0.17120000000E+03  0.17120000000E+03 0.  0.
         13    1    1    2    0    0  0.93098834711E+01  0.76601911980E+01  0.55111925662E+02  0.56415316836E+02  0.10566000000E+00 0. -1.
        994    1    1    2    0    0 -0.52389245681E+01 -0.40996070721E+01  0.14837796322E+01  0.17133562009E+03  0.17120000000E+03 0.  0.
        998    1    1    2    0    0 -0.40709589030E+01 -0.35605841259E+01  0.14434042910E+04  0.14434490631E+04  0.10000000000E+02 0. -1.
</event>
<event>
 5    1  0.1574792E-008  0.3790890E+03  0.7957747E-01  0.3455135E+00
         13   -1    0    0    0    0  0.00000000000E+00  0.00000000000E+00  0.14999999963E+04  0.15000000000E+04  0.10566000000E+00 0. -1.
        994   -1    0    0    0    0 -0.00000000000E+00 -0.00000000000E+00  0.11368683772E-12  0.17120000000E+03  0.17120000000E+03 0.  0.
         13    1    1    2    0    0  0.19691641884E+02 -0.21449346099E+01  0.40916137427E+02  0.45458805204E+02  0.10566000000E+00 0. -1.
        994    1    1    2    0    0 -0.12596381965E+02  0.63198119651E+01  0.52599451489E+01  0.17185958188E+03  0.17120000000E+03 0.  0.
        998    1    1    2    0    0 -0.70952599194E+01 -0.41748773552E+01  0.14538239137E+04  0.14538816129E+04  0.10000000000E+02 0. -1.
</event>
<event>
 5    1  0.1574792E-008  0.3831699E+03  0.7957747E-01  0.3437471E+00
         13   -1    0    0    0    0  0.00000000000E+00  0.00000000000E+00  0.14999999963E+04  0.15000000000E+04  0.10566000000E+00 0. -1.
        994   -1    0    0    0    0 -0.00000000000E+00 -0.00000000000E+00  0.11368683772E-12  0.17120000000E+03  0.17120000000E+03 0.  0.
         13    1    1    2    0    0 -0.88233325270E+00 -0.15953441532E+02  0.54578422767E+02  0.56869202601E+02  0.10566000000E+00 0. -1.
        994    1    1    2    0    0  0.36975826482E+02 -0.10790745670E+02  0.74653791402E+01  0.17563833244E+03  0.17120000000E+03 0.  0.
        998    1    1    2    0    0 -0.36093493230E+02  0.26744187202E+02  0.14379561944E+04  0.14386924650E+04  0.10000000000E+02 0. -1.
</event>
<event>
 5    1  0.1574792E-008  0.3840112E+03  0.7957747E-01  0.3433877E+00
         13   -1    0    0    0    0  0.00000000000E+00  0.00000000000E+00  0.14999999963E+04  0.15000000000E+04  0.10566000000E+00 0.  1.
        994   -1    0    0    0    0 -0.00000000000E+00 -0.00000000000E+00  0.11368683772E-12  0.17120000000E+03  0.17120000000E+03 0.  0.
         13    1    1    2    0    0  0.22964586115E+00 -0.11969446138E+02  0.32704467002E+02  0.34826910630E+02  0.10566000000E+00 0.  1.
        994    1    1    2    0    0 -0.45320385416E+01  0.11822163417E+02  0.26509064332E+01  0.17168800257E+03  0.17120000000E+03 0.  0.
        998    1    1    2    0    0  0.43023926804E+01  0.14728272112E+00  0.14646446228E+04  0.14646850868E+04  0.10000000000E+02 0.  1.
</event>
<event>
 5    1  0.1574792E-008  0.3786419E+03  0.7957747E-01  0.3457093E+00
         13   -1    0    0    0    0  0.00000000000E+00  0.00000000000E+00  0.14999999963E+04  0.15000000000E+04  0.10566000000E+00 0.  1.
        994   -1    0    0    0    0 -0.00000000000E+00 -0.00000000000E+00  0.11368683772E-12  0.17120000000E+03  0.17120000000E+03 0.  0.
         13    1    1    2    0    0 -0.70286106038E+01  0.16317847964E+02  0.30055289077E+02  0.34914253461E+02  0.10566000000E+00 0.  1.
        994    1    1    2    0    0  0.29404164917E+01 -0.20915888058E+02  0.63197846135E+01  0.17261373091E+03  0.17120000000E+03 0.  0.
        998    1    1    2    0    0  0.40881941120E+01  0.45980400940E+01  0.14636249226E+04  0.14636720156E+04  0.10000000000E+02 0.  1.
</event>
<event>
 5    1  0.1574792E-008  0.3858216E+03  0.7957747E-01  0.3426195E+00
         13   -1    0    0    0    0  0.00000000000E+00  0.00000000000E+00  0.14999999963E+04  0.15000000000E+04  0.10566000000E+00 0. -1.
        994   -1    0    0    0    0 -0.00000000000E+00 -0.00000000000E+00  0.11368683772E-12  0.17120000000E+03  0.17120000000E+03 0.  0.
         13    1    1    2    0    0 -0.12196424030E+02 -0.46568799499E+01  0.71828633321E+02  0.73005499921E+02  0.10566000000E+00 0. -1.
        994    1    1    2    0    0  0.94497581647E+01 -0.77782572628E+01  0.17142584764E+01  0.17164550066E+03  0.17120000000E+03 0.  0.
        998    1    1    2    0    0  0.27466658653E+01  0.12435137213E+02  0.14264571045E+04  0.14265489994E+04  0.10000000000E+02 0. -1.
</event>
<event>
 5    1  0.1574792E-008  0.3792656E+03  0.7957747E-01  0.3454363E+00
         13   -1    0    0    0    0  0.00000000000E+00  0.00000000000E+00  0.14999999963E+04  0.15000000000E+04  0.10566000000E+00 0.  1.
        994   -1    0    0    0    0 -0.00000000000E+00 -0.00000000000E+00  0.11368683772E-12  0.17120000000E+03  0.17120000000E+03 0.  0.
         13    1    1    2    0    0 -0.21813107291E+02 -0.13868497629E+02  0.69734079344E+02  0.74370692226E+02  0.10566000000E+00 0.  1.
        994    1    1    2    0    0  0.24695014364E+02  0.90375755002E+01  0.68251231867E+01  0.17334227359E+03  0.17120000000E+03 0.  0.
        998    1    1    2    0    0 -0.28819070728E+01  0.48309221284E+01  0.14234407937E+04  0.14234870342E+04  0.10000000000E+02 0.  1.
</event>
<event>
 5    1  0.1574792E-008  0.3849180E+03  0.7957747E-01  0.3430020E+00
         13   -1    0    0    0    0  0.00000000000E+00  0.00000000000E+00  0.14999999963E+04  0.15000000000E+04  0.10566000000E+00 0.  1.
        994   -1    0    0    0    0 -0.00000000000E+00 -0.00000000000E+00  0.11368683772E-12  0.17120000000E+03  0.17120000000E+03 0.  0.
         13    1    1    2    0    0 -0.58922091075E+01  0.89175714879E+01  0.33657308193E+02  0.35313832534E+02  0.10566000000E+00 0.  1.
        994    1    1    2    0    0  0.33816408653E+01 -0.88276059684E+01  0.19648659805E+01  0.17147204676E+03  0.17120000000E+03 0.  0.
        998    1    1    2    0    0  0.25105682423E+01 -0.89965519572E-01  0.14643778221E+04  0.14644141207E+04  0.10000000000E+02 0.  1.
</event>
<event>
 5    1  0.1574792E-008  0.3948522E+03  0.7957747E-01  0.3388933E+00
         13   -1    0    0    0    0  0.00000000000E+00  0.00000000000E+00  0.14999999963E+04  0.15000000000E+04  0.10566000000E+00 0. -1.
        994   -1    0    0    0    0 -0.00000000000E+00 -0.00000000000E+00  0.11368683772E-12  0.17120000000E+03  0.17120000000E+03 0.  0.
         13    1    1    2    0    0  0.56292154818E+02  0.74835389877E+02  0.17339484170E+03  0.19706578741E+03  0.10566000000E+00 0. -1.
        994    1    1    2    0    0 -0.10432021843E+02 -0.63027440008E+02  0.40560021350E+02  0.18717863288E+03  0.17120000000E+03 0.  0.
        998    1    1    2    0    0 -0.45860132974E+02 -0.11807949869E+02  0.12860451332E+04  0.12869555797E+04  0.10000000000E+02 0. -1.
</event>
<event>
 5    1  0.1574792E-008  0.3847627E+03  0.7957747E-01  0.3430679E+00
         13   -1    0    0    0    0  0.00000000000E+00  0.00000000000E+00  0.14999999963E+04  0.15000000000E+04  0.10566000000E+00 0. -1.
        994   -1    0    0    0    0 -0.00000000000E+00 -0.00000000000E+00  0.11368683772E-12  0.17120000000E+03  0.17120000000E+03 0.  0.
         13    1    1    2    0    0  0.35024722645E+02 -0.23689567135E+02  0.24181986263E+03  0.24548886719E+03  0.10566000000E+00 0. -1.
        994    1    1    2    0    0 -0.65055474566E+02  0.76890563095E+02  0.35880093077E+02  0.20184448108E+03  0.17120000000E+03 0.  0.
        998    1    1    2    0    0  0.30030751921E+02 -0.53200995960E+02  0.12223000406E+04  0.12238666517E+04  0.10000000000E+02 0. -1.
</event>
<event>
 5    1  0.1574792E-008  0.3789986E+03  0.7957747E-01  0.3455530E+00
         13   -1    0    0    0    0  0.00000000000E+00  0.00000000000E+00  0.14999999963E+04  0.15000000000E+04  0.10566000000E+00 0. -1.
        994   -1    0    0    0    0 -0.00000000000E+00 -0.00000000000E+00  0.11368683772E-12  0.17120000000E+03  0.17120000000E+03 0.  0.
         13    1    1    2    0    0 -0.30179806674E+02  0.14511315445E+02  0.11870700125E+03  0.12334002723E+03  0.10566000000E+00 0. -1.
        994    1    1    2    0    0  0.19495330974E+02 -0.77017933756E+01  0.61145730461E+01  0.17258682903E+03  0.17120000000E+03 0.  0.
        998    1    1    2    0    0  0.10684475700E+02 -0.68095220698E+01  0.13751784220E+04  0.13752731437E+04  0.10000000000E+02 0. -1.
</event>
<event>
 5    1  0.1574792E-008  0.3818222E+03  0.7957747E-01  0.3443262E+00
         13   -1    0    0    0    0  0.00000000000E+00  0.00000000000E+00  0.14999999963E+04  0.15000000000E+04  0.10566000000E+00 0.  1.
        994   -1    0    0    0    0 -0.00000000000E+00 -0.00000000000E+00  0.11368683772E-12  0.17120000000E+03  0.17120000000E+03 0.  0.
         13    1    1    2    0    0 -0.15026167626E+02  0.13110712294E+02  0.55648032469E+02  0.59113375577E+02  0.10566000000E+00 0.  1.
        994    1    1    2    0    0  0.39023720396E+02 -0.59918913761E+01  0.84130882513E+01  0.17589477983E+03  0.17120000000E+03 0.  0.
        998    1    1    2    0    0 -0.23997552771E+02 -0.71188209178E+01  0.14359388756E+04  0.14361918446E+04  0.10000000000E+02 0.  1.
</event>
<event>
 5    1  0.1574792E-008  0.3938170E+03  0.7957747E-01  0.3393118E+00
         13   -1    0    0    0    0  0.00000000000E+00  0.00000000000E+00  0.14999999963E+04  0.15000000000E+04  0.10566000000E+00 0. -1.
        994   -1    0    0    0    0 -0.00000000000E+00 -0.00000000000E+00  0.11368683772E-12  0.17120000000E+03  0.17120000000E+03 0.  0.
         13    1    1    2    0    0  0.32007959757E+02  0.10954780191E+03  0.26745120568E+03  0.29078409340E+03  0.10566000000E+00 0. -1.
        994    1    1    2    0    0 -0.18805958749E+02 -0.65282609589E+02  0.41981637133E+02  0.18891104006E+03  0.17120000000E+03 0.  0.
        998    1    1    2    0    0 -0.13202001007E+02 -0.44265192320E+02  0.11905671535E+04  0.11915048665E+04  0.10000000000E+02 0. -1.
</event>
<event>
 5    1  0.1574792E-008  0.3778384E+03  0.7957747E-01  0.3460625E+00
         13   -1    0    0    0    0  0.00000000000E+00  0.00000000000E+00  0.14999999963E+04  0.15000000000E+04  0.10566000000E+00 0.  1.
        994   -1    0    0    0    0 -0.00000000000E+00 -0.00000000000E+00  0.11368683772E-12  0.17120000000E+03  0.17120000000E+03 0.  0.
         13    1    1    2    0    0  0.28611523059E+02  0.19175679670E+02  0.11594307781E+03  0.12095095866E+03  0.10566000000E+00 0.  1.
        994    1    1    2    0    0 -0.67571766731E+01 -0.13647197757E+02  0.60095118899E+01  0.17198098638E+03  0.17120000000E+03 0.  0.
        998    1    1    2    0    0 -0.21854346386E+02 -0.55284819136E+01  0.13780474066E+04  0.13782680550E+04  0.10000000000E+02 0.  1.
</event>
<event>
 5    1  0.1574792E-008  0.3872584E+03  0.7957747E-01  0.3420150E+00
         13   -1    0    0    0    0  0.00000000000E+00  0.00000000000E+00  0.14999999963E+04  0.15000000000E+04  0.10566000000E+00 0. -1.
        994   -1    0    0    0    0 -0.00000000000E+00 -0.00000000000E+00  0.11368683772E-12  0.17120000000E+03  0.17120000000E+03 0.  0.
         13    1    1    2    0    0 -0.12703907400E+02  0.64848661123E+02  0.10735511271E+03  0.12606295849E+03  0.10566000000E+00 0. -1.
        994    1    1    2    0    0  0.45363881080E+01 -0.23674519338E+02  0.22538850055E+02  0.17435166029E+03  0.17120000000E+03 0.  0.
        998    1    1    2    0    0  0.81675192924E+01 -0.41174141785E+02  0.13701060335E+04  0.13707853812E+04  0.10000000000E+02 0. -1.
</event>
<event>
 5    1  0.1574792E-008  0.3792788E+03  0.7957747E-01  0.3454305E+00
         13   -1    0    0    0    0  0.00000000000E+00  0.00000000000E+00  0.14999999963E+04  0.15000000000E+04  0.10566000000E+00 0.  1.
        994   -1    0    0    0    0 -0.00000000000E+00 -0.00000000000E+00  0.11368683772E-12  0.17120000000E+03  0.17120000000E+03 0.  0.
         13    1    1    2    0    0  0.10294275870E+02  0.90033011992E+01  0.18864546193E+02  0.23300511051E+02  0.10566000000E+00 0.  1.
        994    1    1    2    0    0 -0.12868331289E+02 -0.66845970922E+00  0.50542369845E+01  0.17175862744E+03  0.17120000000E+03 0.  0.
        998    1    1    2    0    0  0.25740554194E+01 -0.83348414899E+01  0.14760812131E+04  0.14761408615E+04  0.10000000000E+02 0.  1.
</event>
<event>
 5    1  0.1574792E-008  0.4331009E+03  0.7957747E-01  0.3248208E+00
         13   -1    0    0    0    0  0.00000000000E+00  0.00000000000E+00  0.14999999963E+04  0.15000000000E+04  0.10566000000E+00 0. -1.
        994   -1    0    0    0    0 -0.00000000000E+00 -0.00000000000E+00  0.11368683772E-12  0.17120000000E+03  0.17120000000E+03 0.  0.
         13    1    1    2    0    0  0.15180870851E+02  0.26393222116E+02 -0.10479515416E+02  0.32200813978E+02  0.10566000000E+00 0. -1.
        994    1    1    2    0    0 -0.20805519400E+02 -0.20545213535E+02  0.53173886485E+02  0.18163666381E+03  0.17120000000E+03 0.  0.
        998    1    1    2    0    0  0.56246485491E+01 -0.58480085812E+01  0.14573056252E+04  0.14573625222E+04  0.10000000000E+02 0. -1.
</event>
<event>
 5    1  0.1574792E-008  0.3795236E+03  0.7957747E-01  0.3453236E+00
         13   -1    0    0    0    0  0.00000000000E+00  0.00000000000E+00  0.14999999963E+04  0.15000000000E+04  0.10566000000E+00 0.  1.
        994   -1    0    0    0    0 -0.00000000000E+00 -0.00000000000E+00  0.11368683772E-12  0.17120000000E+03  0.17120000000E+03 0.  0.
         13    1    1    2    0    0  0.10666950381E+02  0.10688809287E+02  0.28921519665E+02  0.32626675254E+02  0.10566000000E+00 0.  1.
        994    1    1    2    0    0  0.45946229907E+02  0.23214349422E+02  0.13298014361E+02  0.17926583402E+03  0.17120000000E+03 0.  0.
        998    1    1    2    0    0 -0.56613180288E+02 -0.33903158710E+02  0.14577804623E+04  0.14593074907E+04  0.10000000000E+02 0.  1.
</event>
<event>
 5    1  0.1574792E-008  0.2823142E+03  0.7957747E-01  0.4030973E+00
         13   -1    0    0    0    0  0.00000000000E+00  0.00000000000E+00  0.14999999963E+04  0.15000000000E+04  0.10566000000E+00 0. -1.
        994   -1    0    0    0    0 -0.00000000000E+00 -0.00000000000E+00  0.11368683772E-12  0.17120000000E+03  0.17120000000E+03 0.  0.
         13    1    1    2    0    0 -0.12815473907E+03 -0.23334178595E+00  0.72676589415E+03  0.73797856856E+03  0.10566000000E+00 0. -1.
        994    1    1    2    0    0  0.15172922518E+02  0.21434076111E+02  0.23651697945E+02  0.17480983957E+03  0.17120000000E+03 0.  0.
        998    1    1    2    0    0  0.11298181656E+03 -0.21200734325E+02  0.74958240419E+03  0.75841159187E+03  0.10000000000E+02 0. -1.
</event>
<event>
 5    1  0.1574792E-008  0.3814734E+03  0.7957747E-01  0.3444768E+00
         13   -1    0    0    0    0  0.00000000000E+00  0.00000000000E+00  0.14999999963E+04  0.15000000000E+04  0.10566000000E+00 0.  1.
        994   -1    0    0    0    0 -0.00000000000E+00 -0.00000000000E+00  0.11368683772E-12  0.17120000000E+03  0.17120000000E+03 0.  0.
         13    1    1    2    0    0 -0.41946348141E+01  0.92729481232E+01  0.12958219063E+02  0.16477534204E+02  0.10566000000E+00 0.  1.
        994    1    1    2    0    0  0.16725688895E+02 -0.28553530808E+02  0.70427285864E+01  0.17451101059E+03  0.17120000000E+03 0.  0.
        998    1    1    2    0    0 -0.12531054081E+02  0.19280582684E+02  0.14799990486E+04  0.14802114552E+04  0.10000000000E+02 0.  1.
</event>
<event>
 5    1  0.1574792E-008  0.3849874E+03  0.7957747E-01  0.3429726E+00
         13   -1    0    0    0    0  0.00000000000E+00  0.00000000000E+00  0.14999999963E+04  0.15000000000E+04  0.10566000000E+00 0. -1.
        994   -1    0    0    0    0 -0.00000000000E+00 -0.00000000000E+00  0.11368683772E-12  0.17120000000E+03  0.17120000000E+03 0.  0.
         13    1    1    2    0    0  0.86973025734E+01  0.12736657828E+02  0.81034765158E+02  0.82489452980E+02  0.10566000000E+00 0. -1.
        994    1    1    2    0    0  0.13058925505E+01  0.51469763005E+01  0.17291468384E+01  0.17129105835E+03  0.17120000000E+03 0.  0.
        998    1    1    2    0    0 -0.10003195124E+02 -0.17883634129E+02  0.14172360843E+04  0.14174194887E+04  0.10000000000E+02 0. -1.
</event>
<event>
 5    1  0.1574792E-008  0.3829036E+03  0.7957747E-01  0.3438612E+00
         13   -1    0    0    0    0  0.00000000000E+00  0.00000000000E+00  0.14999999963E+04  0.15000000000E+04  0.10566000000E+00 0.  1.
        994   -1    0    0    0    0 -0.00000000000E+00 -0.00000000000E+00  0.11368683772E-12  0.17120000000E+03  0.17120000000E+03 0.  0.
         13    1    1    2    0    0 -0.12640595738E+02 -0.59428411395E+01  0.36455262531E+02  0.39039715056E+02  0.10566000000E+00 0.  1.
        994    1    1    2    0    0  0.34801870799E+01  0.41836485293E+00  0.27152477550E+01  0.17125740656E+03  0.17120000000E+03 0.  0.
        998    1    1    2    0    0  0.91604086582E+01  0.55244762866E+01  0.14608294860E+04  0.14609028784E+04  0.10000000000E+02 0.  1.
</event>
<event>
 5    1  0.1574792E-008  0.3829857E+03  0.7957747E-01  0.3438260E+00
         13   -1    0    0    0    0  0.00000000000E+00  0.00000000000E+00  0.14999999963E+04  0.15000000000E+04  0.10566000000E+00 0. -1.
        994   -1    0    0    0    0 -0.00000000000E+00 -0.00000000000E+00  0.11368683772E-12  0.17120000000E+03  0.17120000000E+03 0.  0.
         13    1    1    2    0    0 -0.32326157436E+01 -0.10975281540E+02  0.24188742205E+02  0.26758419664E+02  0.10566000000E+00 0. -1.
        994    1    1    2    0    0  0.26338744302E+01  0.38969811930E+01  0.27067315144E+01  0.17128598936E+03  0.17120000000E+03 0.  0.
        998    1    1    2    0    0  0.59874131343E+00  0.70783003468E+01  0.14731045226E+04  0.14731555910E+04  0.10000000000E+02 0. -1.
</event>
<event>
 5    1  0.1574792E-008  0.3732200E+03  0.7957747E-01  0.3481222E+00
         13   -1    0    0    0    0  0.00000000000E+00  0.00000000000E+00  0.14999999963E+04  0.15000000000E+04  0.10566000000E+00 0.  1.
        994   -1    0    0    0    0 -0.00000000000E+00 -0.00000000000E+00  0.11368683772E-12  0.17120000000E+03  0.17120000000E+03 0.  0.
         13    1    1    2    0    0 -0.58881650613E+02 -0.33304831985E+01  0.11735611485E+03  0.13134157664E+03  0.10566000000E+00 0.  1.
        994    1    1    2    0    0  0.71993800845E+02  0.15729877767E+01  0.31221490915E+02  0.18833428563E+03  0.17120000000E+03 0.  0.
        998    1    1    2    0    0 -0.13112150232E+02  0.17574954218E+01  0.13514223905E+04  0.13515241377E+04  0.10000000000E+02 0.  1.
</event>
<event>
 5    1  0.1574792E-008  0.3794997E+03  0.7957747E-01  0.3453340E+00
         13   -1    0    0    0    0  0.00000000000E+00  0.00000000000E+00  0.14999999963E+04  0.15000000000E+04  0.10566000000E+00 0. -1.
        994   -1    0    0    0    0 -0.00000000000E+00 -0.00000000000E+00  0.11368683772E-12  0.17120000000E+03  0.17120000000E+03 0.  0.
         13    1    1    2    0    0  0.24645172686E+02  0.27137415681E+00  0.61642455008E+02  0.66387209643E+02  0.10566000000E+00 0. -1.
        994    1    1    2    0    0 -0.38845606040E+02 -0.85437055498E+01  0.97013444147E+01  0.17602707774E+03  0.17120000000E+03 0.  0.
        998    1    1    2    0    0  0.14200433354E+02  0.82723313930E+01  0.14286561969E+04  0.14287857126E+04  0.10000000000E+02 0. -1.
</event>
<event>
 5    1  0.1574792E-008  0.3853498E+03  0.7957747E-01  0.3428190E+00
         13   -1    0    0    0    0  0.00000000000E+00  0.00000000000E+00  0.14999999963E+04  0.15000000000E+04  0.10566000000E+00 0. -1.
        994   -1    0    0    0    0 -0.00000000000E+00 -0.00000000000E+00  0.11368683772E-12  0.17120000000E+03  0.17120000000E+03 0.  0.
         13    1    1    2    0    0  0.27745045391E+01 -0.14917813259E+02  0.74852404434E+02  0.76374947734E+02  0.10566000000E+00 0. -1.
        994    1    1    2    0    0 -0.50081137997E+01  0.17482279344E+02  0.25436942841E+01  0.17218194352E+03  0.17120000000E+03 0.  0.
        998    1    1    2    0    0  0.22336092606E+01 -0.25644660854E+01  0.14226038976E+04  0.14226431087E+04  0.10000000000E+02 0. -1.
</event>
<event>
 5    1  0.1574792E-008  0.3809883E+03  0.7957747E-01  0.3446866E+00
         13   -1    0    0    0    0  0.00000000000E+00  0.00000000000E+00  0.14999999963E+04  0.15000000000E+04  0.10566000000E+00 0. -1.
        994   -1    0    0    0    0 -0.00000000000E+00 -0.00000000000E+00  0.11368683772E-12  0.17120000000E+03  0.17120000000E+03 0.  0.
         13    1    1    2    0    0 -0.25420101265E+02 -0.18466897468E+02  0.12504924877E+03  0.12893616107E+03  0.10566000000E+00 0. -1.
        994    1    1    2    0    0  0.16701385835E+02  0.29996555086E+02  0.75726255761E+01  0.17477275035E+03  0.17120000000E+03 0.  0.
        998    1    1    2    0    0  0.87187154296E+01 -0.11529657619E+02  0.13673781219E+04  0.13674910886E+04  0.10000000000E+02 0. -1.
</event>
<event>
 5    1  0.1574792E-008  0.3852197E+03  0.7957747E-01  0.3428741E+00
         13   -1    0    0    0    0  0.00000000000E+00  0.00000000000E+00  0.14999999963E+04  0.15000000000E+04  0.10566000000E+00 0. -1.
        994   -1    0    0    0    0 -0.00000000000E+00 -0.00000000000E+00  0.11368683772E-12  0.17120000000E+03  0.17120000000E+03 0.  0.
         13    1    1    2    0    0 -0.10866815468E+02  0.81623373296E+01  0.62778021744E+02  0.64232410878E+02  0.10566000000E+00 0. -1.
        994    1    1    2    0    0  0.32955943139E+01 -0.25386054475E+01  0.15779948036E+01  0.17125780428E+03  0.17120000000E+03 0.  0.
        998    1    1    2    0    0  0.75712211543E+01 -0.56237318821E+01  0.14356439797E+04  0.14357097848E+04  0.10000000000E+02 0. -1.
</event>
<event>
 5    1  0.1574792E-008  0.3754883E+03  0.7957747E-01  0.3471042E+00
         13   -1    0    0    0    0  0.00000000000E+00  0.00000000000E+00  0.14999999963E+04  0.15000000000E+04  0.10566000000E+00 0.  1.
        994   -1    0    0    0    0 -0.00000000000E+00 -0.00000000000E+00  0.11368683772E-12  0.17120000000E+03  0.17120000000E+03 0.  0.
         13    1    1    2    0    0  0.23774958394E+02 -0.10430415988E+02  0.49375192437E+02  0.55784971243E+02  0.10566000000E+00 0.  1.
        994    1    1    2    0    0 -0.23496956204E+02 -0.24295670838E+01  0.83241705110E+01  0.17302237301E+03  0.17120000000E+03 0.  0.
        998    1    1    2    0    0 -0.27800219042E+00  0.12859983072E+02  0.14423006333E+04  0.14423926557E+04  0.10000000000E+02 0.  1.
</event>
<event>
 5    1  0.1574792E-008  0.3823774E+03  0.7957747E-01  0.3440871E+00
         13   -1    0    0    0    0  0.00000000000E+00  0.00000000000E+00  0.14999999963E+04  0.15000000000E+04  0.10566000000E+00 0. -1.
        994   -1    0    0    0    0 -0.00000000000E+00 -0.00000000000E+00  0.11368683772E-12  0.17120000000E+03  0.17120000000E+03 0.  0.
         13    1    1    2    0    0 -0.24383251419E+02  0.12397805783E+02  0.11451275455E+03  0.11773457715E+03  0.10566000000E+00 0. -1.
        994    1    1    2    0    0  0.29440454093E+02 -0.13256141381E+02  0.64032296474E+01  0.17433561590E+03  0.17120000000E+03 0.  0.
        998    1    1    2    0    0 -0.50572026736E+01  0.85833559854E+00  0.13790840121E+04  0.13791298069E+04  0.10000000000E+02 0. -1.
</event>
<event>
 5    1  0.1574792E-008  0.3701673E+03  0.7957747E-01  0.3495122E+00
         13   -1    0    0    0    0  0.00000000000E+00  0.00000000000E+00  0.14999999963E+04  0.15000000000E+04  0.10566000000E+00 0.  1.
        994   -1    0    0    0    0 -0.00000000000E+00 -0.00000000000E+00  0.11368683772E-12  0.17120000000E+03  0.17120000000E+03 0.  0.
         13    1    1    2    0    0 -0.79154514377E+02 -0.87657759309E+02  0.42233152597E+03  0.43853534511E+03  0.10566000000E+00 0.  1.
        994    1    1    2    0    0  0.88615784704E+02  0.85248477082E+02  0.65963979407E+02  0.22086363830E+03  0.17120000000E+03 0.  0.
        998    1    1    2    0    0 -0.94612703271E+01  0.24092822269E+01  0.10117044909E+04  0.10118010166E+04  0.10000000000E+02 0.  0.
</event>
<event>
 5    1  0.1574792E-008  0.3849475E+03  0.7957747E-01  0.3429895E+00
         13   -1    0    0    0    0  0.00000000000E+00  0.00000000000E+00  0.14999999963E+04  0.15000000000E+04  0.10566000000E+00 0. -1.
        994   -1    0    0    0    0 -0.00000000000E+00 -0.00000000000E+00  0.11368683772E-12  0.17120000000E+03  0.17120000000E+03 0.  0.
         13    1    1    2    0    0 -0.11829478313E+02  0.15974708349E+02  0.10445798585E+03  0.10633254363E+03  0.10566000000E+00 0. -1.
        994    1    1    2    0    0  0.11502636600E+02 -0.28485300520E+02  0.47664711210E+01  0.17399966161E+03  0.17120000000E+03 0.  0.
        998    1    1    2    0    0  0.32684171289E+00  0.12510592172E+02  0.13907755393E+04  0.13908677948E+04  0.10000000000E+02 0. -1.
</event>
<event>
 5    1  0.1574792E-008  0.3721359E+03  0.7957747E-01  0.3486132E+00
         13   -1    0    0    0    0  0.00000000000E+00  0.00000000000E+00  0.14999999963E+04  0.15000000000E+04  0.10566000000E+00 0.  1.
        994   -1    0    0    0    0 -0.00000000000E+00 -0.00000000000E+00  0.11368683772E-12  0.17120000000E+03  0.17120000000E+03 0.  0.
         13    1    1    2    0    0  0.20300450301E+02 -0.11587726288E+02  0.32065457082E+02  0.39681083464E+02  0.10566000000E+00 0.  1.
        994    1    1    2    0    0  0.58170393498E+01 -0.57212012537E+01  0.83854612296E+01  0.17159931833E+03  0.17120000000E+03 0.  0.
        998    1    1    2    0    0 -0.26117489651E+02  0.17308927542E+02  0.14595490780E+04  0.14599195982E+04  0.10000000000E+02 0.  1.
</event>
<event>
 5    1  0.1574792E-008  0.3828803E+03  0.7957747E-01  0.3438712E+00
         13   -1    0    0    0    0  0.00000000000E+00  0.00000000000E+00  0.14999999963E+04  0.15000000000E+04  0.10566000000E+00 0. -1.
        994   -1    0    0    0    0 -0.00000000000E+00 -0.00000000000E+00  0.11368683772E-12  0.17120000000E+03  0.17120000000E+03 0.  0.
         13    1    1    2    0    0 -0.14636138935E+02  0.17451527211E+02  0.91328387815E+02  0.94125756038E+02  0.10566000000E+00 0. -1.
        994    1    1    2    0    0  0.13422289784E+02 -0.17770954837E+02  0.43302448480E+01  0.17269671601E+03  0.17120000000E+03 0.  0.
        998    1    1    2    0    0  0.12138491504E+01  0.31942762609E+00  0.14043413636E+04  0.14043775280E+04  0.10000000000E+02 0. -1.
</event>
<event>
 5    1  0.1574792E-008  0.3833884E+03  0.7957747E-01  0.3436536E+00
         13   -1    0    0    0    0  0.00000000000E+00  0.00000000000E+00  0.14999999963E+04  0.15000000000E+04  0.10566000000E+00 0.  1.
        994   -1    0    0    0    0 -0.00000000000E+00 -0.00000000000E+00  0.11368683772E-12  0.17120000000E+03  0.17120000000E+03 0.  0.
         13    1    1    2    0    0  0.12318099146E+02  0.25832211432E+02  0.16366281657E+03  0.16614622296E+03  0.10566000000E+00 0.  1.
        994    1    1    2    0    0 -0.26636102380E+02 -0.10127232364E+02  0.51215531089E+01  0.17363096812E+03  0.17120000000E+03 0.  0.
        998    1    1    2    0    0  0.14318003234E+02 -0.15704979067E+02  0.13312156266E+04  0.13314228089E+04  0.10000000000E+02 0.  1.
</event>
<event>
 5    1  0.1574792E-008  0.3847390E+03  0.7957747E-01  0.3430780E+00
         13   -1    0    0    0    0  0.00000000000E+00  0.00000000000E+00  0.14999999963E+04  0.15000000000E+04  0.10566000000E+00 0.  1.
        994   -1    0    0    0    0 -0.00000000000E+00 -0.00000000000E+00  0.11368683772E-12  0.17120000000E+03  0.17120000000E+03 0.  0.
         13    1    1    2    0    0 -0.43407304714E+01  0.12079979661E+02  0.47973575398E+02  0.49661282204E+02  0.10566000000E+00 0.  1.
        994    1    1    2    0    0  0.72770692957E+01 -0.82573796975E+00  0.19363471459E+01  0.17136752032E+03  0.17120000000E+03 0.  0.
        998    1    1    2    0    0 -0.29363388243E+01 -0.11254241692E+02  0.14500900737E+04  0.14501711975E+04  0.10000000000E+02 0.  1.
</event>
<event>
 5    1  0.1574792E-008  0.3847974E+03  0.7957747E-01  0.3430532E+00
         13   -1    0    0    0    0  0.00000000000E+00  0.00000000000E+00  0.14999999963E+04  0.15000000000E+04  0.10566000000E+00 0. -1.
        994   -1    0    0    0    0 -0.00000000000E+00 -0.00000000000E+00  0.11368683772E-12  0.17120000000E+03  0.17120000000E+03 0.  0.
         13    1    1    2    0    0 -0.15910009815E+02  0.59984423205E+01  0.82541346387E+02  0.84274520171E+02  0.10566000000E+00 0. -1.
        994    1    1    2    0    0  0.13310964408E+02 -0.43574075315E+00  0.23146639021E+01  0.17173284285E+03  0.17120000000E+03 0.  0.
        998    1    1    2    0    0  0.25990454070E+01 -0.55627015673E+01  0.14151439860E+04  0.14151926370E+04  0.10000000000E+02 0. -1.
</event>
<event>
 5    1  0.1574792E-008  0.4006213E+03  0.7957747E-01  0.3366007E+00
         13   -1    0    0    0    0  0.00000000000E+00  0.00000000000E+00  0.14999999963E+04  0.15000000000E+04  0.10566000000E+00 0.  1.
        994   -1    0    0    0    0 -0.00000000000E+00 -0.00000000000E+00  0.11368683772E-12  0.17120000000E+03  0.17120000000E+03 0.  0.
         13    1    1    2    0    0 -0.43806200820E+02 -0.96133137703E+02  0.16362470791E+03  0.19476555034E+03  0.10566000000E+00 0.  1.
        994    1    1    2    0    0  0.45873048263E+02  0.10338672863E+03  0.80371582224E+02  0.22036829046E+03  0.17120000000E+03 0.  0.
        998    1    1    2    0    0 -0.20668474425E+01 -0.72535909241E+01  0.12560037061E+04  0.12560661592E+04  0.10000000000E+02 0.  1.
</event>
<event>
 5    1  0.1574792E-008  0.3836467E+03  0.7957747E-01  0.3435432E+00
         13   -1    0    0    0    0  0.00000000000E+00  0.00000000000E+00  0.14999999963E+04  0.15000000000E+04  0.10566000000E+00 0.  1.
        994   -1    0    0    0    0 -0.00000000000E+00 -0.00000000000E+00  0.11368683772E-12  0.17120000000E+03  0.17120000000E+03 0.  0.
         13    1    1    2    0    0 -0.71275365694E+01  0.19232813282E+02  0.91367341194E+02  0.93641364179E+02  0.10566000000E+00 0.  1.
        994    1    1    2    0    0  0.11355651505E+02 -0.85574536111E+01  0.29716502660E+01  0.17181516679E+03  0.17120000000E+03 0.  0.
        998    1    1    2    0    0 -0.42281149361E+01 -0.10675359671E+02  0.14056610048E+04  0.14057434690E+04  0.10000000000E+02 0.  1.
</event>
<event>
 5    1  0.1574792E-008  0.3766673E+03  0.7957747E-01  0.3465799E+00
         13   -1    0    0    0    0  0.00000000000E+00  0.00000000000E+00  0.14999999963E+04  0.15000000000E+04  0.10566000000E+00 0.  1.
        994   -1    0    0    0    0 -0.00000000000E+00 -0.00000000000E+00  0.11368683772E-12  0.17120000000E+03  0.17120000000E+03 0.  0.
         13    1    1    2    0    0 -0.42953689352E+02 -0.70808350225E+01  0.56689570500E+02  0.71476403247E+02  0.10566000000E+00 0.  1.
        994    1    1    2    0    0  0.49478685059E+02  0.10888649490E+02  0.23754377900E+02  0.18011222455E+03  0.17120000000E+03 0.  0.
        998    1    1    2    0    0 -0.65249957067E+01 -0.38078144670E+01  0.14195560479E+04  0.14196113722E+04  0.10000000000E+02 0.  1.
</event>
<event>
 5    1  0.1574792E-008  0.3845711E+03  0.7957747E-01  0.3431493E+00
         13   -1    0    0    0    0  0.00000000000E+00  0.00000000000E+00  0.14999999963E+04  0.15000000000E+04  0.10566000000E+00 0.  1.
        994   -1    0    0    0    0 -0.00000000000E+00 -0.00000000000E+00  0.11368683772E-12  0.17120000000E+03  0.17120000000E+03 0.  0.
         13    1    1    2    0    0  0.10949014560E+02 -0.14677013212E+02  0.91763003865E+02  0.93572195010E+02  0.10566000000E+00 0.  1.
        994    1    1    2    0    0 -0.50585885821E+01  0.89272354025E+01  0.21900390221E+01  0.17152119729E+03  0.17120000000E+03 0.  0.
        998    1    1    2    0    0 -0.58904259783E+01  0.57497778092E+01  0.14060469534E+04  0.14061066077E+04  0.10000000000E+02 0.  1.
</event>
<event>
 5    1  0.1574792E-008  0.3861865E+03  0.7957747E-01  0.3424656E+00
         13   -1    0    0    0    0  0.00000000000E+00  0.00000000000E+00  0.14999999963E+04  0.15000000000E+04  0.10566000000E+00 0. -1.
        994   -1    0    0    0    0 -0.00000000000E+00 -0.00000000000E+00  0.11368683772E-12  0.17120000000E+03  0.17120000000E+03 0.  0.
         13    1    1    2    0    0  0.81902541559E+01 -0.64252911102E+01  0.60419423373E+02  0.61309726094E+02  0.10566000000E+00 0. -1.
        994    1    1    2    0    0  0.78871959148E+01 -0.67339319082E+01  0.13946198740E+01  0.17151949937E+03  0.17120000000E+03 0.  0.
        998    1    1    2    0    0 -0.16077450071E+02  0.13159223018E+02  0.14381859530E+04  0.14383707745E+04  0.10000000000E+02 0. -1.
</event>
<event>
 5    1  0.1574792E-008  0.3814194E+03  0.7957747E-01  0.3445001E+00
         13   -1    0    0    0    0  0.00000000000E+00  0.00000000000E+00  0.14999999963E+04  0.15000000000E+04  0.10566000000E+00 0.  1.
        994   -1    0    0    0    0 -0.00000000000E+00 -0.00000000000E+00  0.11368683772E-12  0.17120000000E+03  0.17120000000E+03 0.  0.
         13    1    1    2    0    0  0.77688436046E+01  0.98344185972E+01  0.20843909763E+02  0.24321810343E+02  0.10566000000E+00 0.  1.
        994    1    1    2    0    0 -0.15288850100E+02 -0.14893824766E+02  0.49356632164E+01  0.17259598989E+03  0.17120000000E+03 0.  0.
        998    1    1    2    0    0  0.75200064954E+01  0.50594061684E+01  0.14742204233E+04  0.14742821998E+04  0.10000000000E+02 0.  1.
</event>
<event>
 5    1  0.1574792E-008  0.3939718E+03  0.7957747E-01  0.3392491E+00
         13   -1    0    0    0    0  0.00000000000E+00  0.00000000000E+00  0.14999999963E+04  0.15000000000E+04  0.10566000000E+00 0. -1.
        994   -1    0    0    0    0 -0.00000000000E+00 -0.00000000000E+00  0.11368683772E-12  0.17120000000E+03  0.17120000000E+03 0.  0.
         13    1    1    2    0    0  0.28252812194E+02 -0.23399579197E+02  0.17661863972E+02  0.40715037842E+02  0.10566000000E+00 0. -1.
        994    1    1    2    0    0 -0.30119758960E+02  0.23270615720E+02  0.29779087879E+02  0.17789029066E+03  0.17120000000E+03 0.  0.
        998    1    1    2    0    0  0.18669467662E+01  0.12896347689E+00  0.14525590444E+04  0.14525946715E+04  0.10000000000E+02 0.  0.
</event>
<event>
 5    1  0.1574792E-008  0.3819382E+03  0.7957747E-01  0.3442762E+00
         13   -1    0    0    0    0  0.00000000000E+00  0.00000000000E+00  0.14999999963E+04  0.15000000000E+04  0.10566000000E+00 0.  1.
        994   -1    0    0    0    0 -0.00000000000E+00 -0.00000000000E+00  0.11368683772E-12  0.17120000000E+03  0.17120000000E+03 0.  0.
         13    1    1    2    0    0  0.77511484047E+01  0.25507144751E+02  0.10611476343E+03  0.10941228869E+03  0.10566000000E+00 0.  1.
        994    1    1    2    0    0 -0.85625425138E+01 -0.23113418839E+02  0.51786103274E+01  0.17304278451E+03  0.17120000000E+03 0.  0.
        998    1    1    2    0    0  0.81139410913E+00 -0.23937259118E+01  0.13887066225E+04  0.13887449268E+04  0.10000000000E+02 0.  1.
</event>
<event>
 5    1  0.1574792E-008  0.3831580E+03  0.7957747E-01  0.3437522E+00
         13   -1    0    0    0    0  0.00000000000E+00  0.00000000000E+00  0.14999999963E+04  0.15000000000E+04  0.10566000000E+00 0.  1.
        994   -1    0    0    0    0 -0.00000000000E+00 -0.00000000000E+00  0.11368683772E-12  0.17120000000E+03  0.17120000000E+03 0.  0.
         13    1    1    2    0    0  0.55897014942E+01 -0.25865266529E+02  0.12554049986E+03  0.12829920126E+03  0.10566000000E+00 0.  1.
        994    1    1    2    0    0 -0.28920156123E+00  0.28714194374E+02  0.52802846111E+01  0.17367184574E+03  0.17120000000E+03 0.  0.
        998    1    1    2    0    0 -0.53004999330E+01 -0.28489278456E+01  0.13691792118E+04  0.13692289530E+04  0.10000000000E+02 0.  1.
</event>
<event>
 5    1  0.1574792E-008  0.3849660E+03  0.7957747E-01  0.3429816E+00
         13   -1    0    0    0    0  0.00000000000E+00  0.00000000000E+00  0.14999999963E+04  0.15000000000E+04  0.10566000000E+00 0. -1.
        994   -1    0    0    0    0 -0.00000000000E+00 -0.00000000000E+00  0.11368683772E-12  0.17120000000E+03  0.17120000000E+03 0.  0.
         13    1    1    2    0    0 -0.53241706297E+01 -0.12725153445E+02  0.57706786798E+02  0.59332627867E+02  0.10566000000E+00 0. -1.
        994    1    1    2    0    0  0.34872439349E+01  0.85435831815E+01  0.19271379133E+01  0.17145934662E+03  0.17120000000E+03 0.  0.
        998    1    1    2    0    0  0.18369266948E+01  0.41815702633E+01  0.14403660716E+04  0.14404080255E+04  0.10000000000E+02 0. -1.
</event>
<event>
 5    1  0.1574792E-008  0.3812299E+03  0.7957747E-01  0.3445820E+00
         13   -1    0    0    0    0  0.00000000000E+00  0.00000000000E+00  0.14999999963E+04  0.15000000000E+04  0.10566000000E+00 0. -1.
        994   -1    0    0    0    0 -0.00000000000E+00 -0.00000000000E+00  0.11368683772E-12  0.17120000000E+03  0.17120000000E+03 0.  0.
         13    1    1    2    0    0 -0.22893047381E+02 -0.15781146400E+02  0.10765038779E+03  0.11118342213E+03  0.10566000000E+00 0. -1.
        994    1    1    2    0    0  0.20024123458E+02  0.41950883313E+01  0.49083672568E+01  0.17248796003E+03  0.17120000000E+03 0.  0.
        998    1    1    2    0    0  0.28689239235E+01  0.11586058069E+02  0.13874412412E+04  0.13875286178E+04  0.10000000000E+02 0. -1.
</event>
<event>
 5    1  0.1574792E-008  0.3828477E+03  0.7957747E-01  0.3438852E+00
         13   -1    0    0    0    0  0.00000000000E+00  0.00000000000E+00  0.14999999963E+04  0.15000000000E+04  0.10566000000E+00 0.  1.
        994   -1    0    0    0    0 -0.00000000000E+00 -0.00000000000E+00  0.11368683772E-12  0.17120000000E+03  0.17120000000E+03 0.  0.
         13    1    1    2    0    0  0.13493246460E+02  0.64104579413E+01  0.41045403020E+02  0.43679491116E+02  0.10566000000E+00 0.  1.
        994    1    1    2    0    0 -0.56967071047E+01 -0.25505356025E+01  0.28315489264E+01  0.17133713950E+03  0.17120000000E+03 0.  0.
        998    1    1    2    0    0 -0.77965393555E+01 -0.38599223388E+01  0.14561230443E+04  0.14561833694E+04  0.10000000000E+02 0.  1.
</event>
<event>
 5    1  0.1574792E-008  0.3707550E+03  0.7957747E-01  0.3492428E+00
         13   -1    0    0    0    0  0.00000000000E+00  0.00000000000E+00  0.14999999963E+04  0.15000000000E+04  0.10566000000E+00 0.  1.
        994   -1    0    0    0    0 -0.00000000000E+00 -0.00000000000E+00  0.11368683772E-12  0.17120000000E+03  0.17120000000E+03 0.  0.
         13    1    1    2    0    0 -0.84615484053E+02  0.45821448882E+02  0.32605951331E+03  0.33996206068E+03  0.10566000000E+00 0.  1.
        994    1    1    2    0    0  0.13578774871E+03  0.40328269882E+02  0.85398920863E+02  0.23804851971E+03  0.17120000000E+03 0.  0.
        998    1    1    2    0    0 -0.51172264656E+02 -0.86149718763E+02  0.10885415621E+04  0.10931894196E+04  0.10000000000E+02 0.  1.
</event>
<event>
 5    1  0.1574792E-008  0.3810889E+03  0.7957747E-01  0.3446431E+00
         13   -1    0    0    0    0  0.00000000000E+00  0.00000000000E+00  0.14999999963E+04  0.15000000000E+04  0.10566000000E+00 0.  1.
        994   -1    0    0    0    0 -0.00000000000E+00 -0.00000000000E+00  0.11368683772E-12  0.17120000000E+03  0.17120000000E+03 0.  0.
         13    1    1    2    0    0 -0.21921356442E+02  0.30890414306E+02  0.18207437990E+03  0.18597272527E+03  0.10566000000E+00 0.  1.
        994    1    1    2    0    0  0.11176272012E+02 -0.33952285480E+02  0.78520231640E+01  0.17506787545E+03  0.17120000000E+03 0.  0.
        998    1    1    2    0    0  0.10745084430E+02  0.30618711741E+01  0.13100735932E+04  0.13101593993E+04  0.10000000000E+02 0.  1.
</event>
<event>
 5    1  0.1574792E-008  0.3750458E+03  0.7957747E-01  0.3473018E+00
         13   -1    0    0    0    0  0.00000000000E+00  0.00000000000E+00  0.14999999963E+04  0.15000000000E+04  0.10566000000E+00 0.  1.
        994   -1    0    0    0    0 -0.00000000000E+00 -0.00000000000E+00  0.11368683772E-12  0.17120000000E+03  0.17120000000E+03 0.  0.
         13    1    1    2    0    0 -0.18628286510E+02 -0.18498139670E+02  0.46745738858E+02  0.53613146662E+02  0.10566000000E+00 0.  1.
        994    1    1    2    0    0  0.29681631420E+02  0.17837811707E+02  0.10741739770E+02  0.17499717639E+03  0.17120000000E+03 0.  0.
        998    1    1    2    0    0 -0.11053344910E+02  0.66032796246E+00  0.14425125177E+04  0.14425896770E+04  0.10000000000E+02 0.  1.
</event>
<event>
 5    1  0.1574792E-008  0.3813926E+03  0.7957747E-01  0.3445117E+00
         13   -1    0    0    0    0  0.00000000000E+00  0.00000000000E+00  0.14999999963E+04  0.15000000000E+04  0.10566000000E+00 0. -1.
        994   -1    0    0    0    0 -0.00000000000E+00 -0.00000000000E+00  0.11368683772E-12  0.17120000000E+03  0.17120000000E+03 0.  0.
         13    1    1    2    0    0  0.16169842554E+02 -0.29790759410E+00  0.37046282678E+02  0.40422651836E+02  0.10566000000E+00 0. -1.
        994    1    1    2    0    0 -0.93890277545E+01 -0.50698584803E+01  0.38107900082E+01  0.17157453024E+03  0.17120000000E+03 0.  0.
        998    1    1    2    0    0 -0.67808147999E+01  0.53677660744E+01  0.14591429236E+04  0.14592028179E+04  0.10000000000E+02 0. -1.
</event>
<event>
 5    1  0.1574792E-008  0.3722524E+03  0.7957747E-01  0.3485603E+00
         13   -1    0    0    0    0  0.00000000000E+00  0.00000000000E+00  0.14999999963E+04  0.15000000000E+04  0.10566000000E+00 0.  1.
        994   -1    0    0    0    0 -0.00000000000E+00 -0.00000000000E+00  0.11368683772E-12  0.17120000000E+03  0.17120000000E+03 0.  0.
         13    1    1    2    0    0  0.31898888261E+02 -0.22182471610E+01  0.73556783869E+02  0.80206429355E+02  0.10566000000E+00 0.  1.
        994    1    1    2    0    0  0.38946505069E+02  0.14107531113E+02  0.14006599818E+02  0.17669600315E+03  0.17120000000E+03 0.  0.
        998    1    1    2    0    0 -0.70845393329E+02 -0.11889283952E+02  0.14124366126E+04  0.14142975675E+04  0.10000000000E+02 0.  1.
</event>
<event>
 5    1  0.1574792E-008  0.3846220E+03  0.7957747E-01  0.3431277E+00
         13   -1    0    0    0    0  0.00000000000E+00  0.00000000000E+00  0.14999999963E+04  0.15000000000E+04  0.10566000000E+00 0. -1.
        994   -1    0    0    0    0 -0.00000000000E+00 -0.00000000000E+00  0.11368683772E-12  0.17120000000E+03  0.17120000000E+03 0.  0.
         13    1    1    2    0    0 -0.39090427381E+01 -0.10556506042E+02  0.33745788755E+02  0.35574005364E+02  0.10566000000E+00 0. -1.
        994    1    1    2    0    0  0.49155427587E+01  0.11776443692E+02  0.23543109149E+01  0.17169108878E+03  0.17120000000E+03 0.  0.
        998    1    1    2    0    0 -0.10065000205E+01 -0.12199376497E+01  0.14638998966E+04  0.14639349059E+04  0.10000000000E+02 0. -1.
</event>
<event>
 5    1  0.1574792E-008  0.3839151E+03  0.7957747E-01  0.3434286E+00
         13   -1    0    0    0    0  0.00000000000E+00  0.00000000000E+00  0.14999999963E+04  0.15000000000E+04  0.10566000000E+00 0. -1.
        994   -1    0    0    0    0 -0.00000000000E+00 -0.00000000000E+00  0.11368683772E-12  0.17120000000E+03  0.17120000000E+03 0.  0.
         13    1    1    2    0    0  0.11946124617E+02  0.14438343349E+01  0.32567665933E+02  0.34719714563E+02  0.10566000000E+00 0. -1.
        994    1    1    2    0    0 -0.98747245145E+01  0.59584918515E+00  0.24927598419E+01  0.17150369988E+03  0.17120000000E+03 0.  0.
        998    1    1    2    0    0 -0.20714001025E+01 -0.20396835200E+01  0.14649395705E+04  0.14649765856E+04  0.10000000000E+02 0. -1.
</event>
<event>
 5    1  0.1574792E-008  0.3828376E+03  0.7957747E-01  0.3438895E+00
         13   -1    0    0    0    0  0.00000000000E+00  0.00000000000E+00  0.14999999963E+04  0.15000000000E+04  0.10566000000E+00 0.  1.
        994   -1    0    0    0    0 -0.00000000000E+00 -0.00000000000E+00  0.11368683772E-12  0.17120000000E+03  0.17120000000E+03 0.  0.
         13    1    1    2    0    0  0.14518065154E+02  0.15423140473E+02  0.90031117572E+02  0.92489246797E+02  0.10566000000E+00 0.  1.
        994    1    1    2    0    0 -0.14000566469E+01  0.43068615692E+01  0.27754731322E+01  0.17128237640E+03  0.17120000000E+03 0.  0.
        998    1    1    2    0    0 -0.13118008507E+02 -0.19730002043E+02  0.14071934056E+04  0.14074283768E+04  0.10000000000E+02 0.  1.
</event>
<event>
 5    1  0.1574792E-008  0.3806463E+03  0.7957747E-01  0.3448349E+00
         13   -1    0    0    0    0  0.00000000000E+00  0.00000000000E+00  0.14999999963E+04  0.15000000000E+04  0.10566000000E+00 0. -1.
        994   -1    0    0    0    0 -0.00000000000E+00 -0.00000000000E+00  0.11368683772E-12  0.17120000000E+03  0.17120000000E+03 0.  0.
         13    1    1    2    0    0 -0.34286419155E+02 -0.98752230721E+01  0.20862553091E+03  0.21165467602E+03  0.10566000000E+00 0. -1.
        994    1    1    2    0    0 -0.59149712340E+01 -0.54966061299E+01  0.40248024818E+01  0.17143756472E+03  0.17120000000E+03 0.  0.
        998    1    1    2    0    0  0.40201390389E+02  0.15371829202E+02  0.12873496629E+04  0.12881077593E+04  0.10000000000E+02 0. -1.
</event>
<event>
 5    1  0.1574792E-008  0.3815824E+03  0.7957747E-01  0.3444297E+00
         13   -1    0    0    0    0  0.00000000000E+00  0.00000000000E+00  0.14999999963E+04  0.15000000000E+04  0.10566000000E+00 0.  1.
        994   -1    0    0    0    0 -0.00000000000E+00 -0.00000000000E+00  0.11368683772E-12  0.17120000000E+03  0.17120000000E+03 0.  0.
         13    1    1    2    0    0  0.36038627504E+01  0.16775422669E+02  0.41526462605E+02  0.44931735922E+02  0.10566000000E+00 0.  1.
        994    1    1    2    0    0 -0.12462414176E+01 -0.20373434135E+02  0.47232100593E+01  0.17247718298E+03  0.17120000000E+03 0.  0.
        998    1    1    2    0    0 -0.23576213329E+01  0.35980114660E+01  0.14537503236E+04  0.14537910811E+04  0.10000000000E+02 0.  1.
</event>
<event>
 5    1  0.1574792E-008  0.3824398E+03  0.7957747E-01  0.3440603E+00
         13   -1    0    0    0    0  0.00000000000E+00  0.00000000000E+00  0.14999999963E+04  0.15000000000E+04  0.10566000000E+00 0. -1.
        994   -1    0    0    0    0 -0.00000000000E+00 -0.00000000000E+00  0.11368683772E-12  0.17120000000E+03  0.17120000000E+03 0.  0.
         13    1    1    2    0    0 -0.12725872869E+02  0.82041055518E+00  0.28736470000E+02  0.31439096454E+02  0.10566000000E+00 0. -1.
        994    1    1    2    0    0 -0.10800241859E+02 -0.70160655414E+01  0.34568324818E+01  0.17171854906E+03  0.17120000000E+03 0.  0.
        998    1    1    2    0    0  0.23526114728E+02  0.61956549862E+01  0.14678066938E+04  0.14680423545E+04  0.10000000000E+02 0. -1.
</event>
<event>
 5    1  0.1574792E-008  0.3818478E+03  0.7957747E-01  0.3443152E+00
         13   -1    0    0    0    0  0.00000000000E+00  0.00000000000E+00  0.14999999963E+04  0.15000000000E+04  0.10566000000E+00 0.  1.
        994   -1    0    0    0    0 -0.00000000000E+00 -0.00000000000E+00  0.11368683772E-12  0.17120000000E+03  0.17120000000E+03 0.  0.
         13    1    1    2    0    0 -0.12941813522E+01  0.14106715051E+02  0.30299732822E+02  0.33447859245E+02  0.10566000000E+00 0.  1.
        994    1    1    2    0    0 -0.40506162769E+01 -0.84169951809E+01  0.34932257862E+01  0.17149022108E+03  0.17120000000E+03 0.  0.
        998    1    1    2    0    0  0.53447976291E+01 -0.56897198698E+01  0.14662070377E+04  0.14662619197E+04  0.10000000000E+02 0.  1.
</event>
<event>
 5    1  0.1574792E-008  0.3834455E+03  0.7957747E-01  0.3436292E+00
         13   -1    0    0    0    0  0.00000000000E+00  0.00000000000E+00  0.14999999963E+04  0.15000000000E+04  0.10566000000E+00 0.  1.
        994   -1    0    0    0    0 -0.00000000000E+00 -0.00000000000E+00  0.11368683772E-12  0.17120000000E+03  0.17120000000E+03 0.  0.
         13    1    1    2    0    0  0.21990344339E+02 -0.18854877817E+01  0.93265153990E+02  0.95841172891E+02  0.10566000000E+00 0.  1.
        994    1    1    2    0    0 -0.26316229246E+02 -0.16249354953E+01  0.47050640180E+01  0.17328231867E+03  0.17120000000E+03 0.  0.
        998    1    1    2    0    0  0.43258849073E+01  0.35104232769E+01  0.14020297783E+04  0.14020765084E+04  0.10000000000E+02 0.  0.
</event>
<event>
 5    1  0.1574792E-008  0.3880821E+03  0.7957747E-01  0.3416705E+00
         13   -1    0    0    0    0  0.00000000000E+00  0.00000000000E+00  0.14999999963E+04  0.15000000000E+04  0.10566000000E+00 0.  1.
        994   -1    0    0    0    0 -0.00000000000E+00 -0.00000000000E+00  0.11368683772E-12  0.17120000000E+03  0.17120000000E+03 0.  0.
         13    1    1    2    0    0  0.63054797506E+01 -0.28003466081E+02  0.11070534596E+02  0.30765582843E+02  0.10566000000E+00 0.  1.
        994    1    1    2    0    0 -0.73179084148E+00  0.21530867143E+02  0.22574613058E+02  0.17402059336E+03  0.17120000000E+03 0.  0.
        998    1    1    2    0    0 -0.55736889091E+01  0.64725989373E+01  0.14663548486E+04  0.14664138238E+04  0.10000000000E+02 0.  1.
</event>
<event>
 5    1  0.1574792E-008  0.3803383E+03  0.7957747E-01  0.3449687E+00
         13   -1    0    0    0    0  0.00000000000E+00  0.00000000000E+00  0.14999999963E+04  0.15000000000E+04  0.10566000000E+00 0.  1.
        994   -1    0    0    0    0 -0.00000000000E+00 -0.00000000000E+00  0.11368683772E-12  0.17120000000E+03  0.17120000000E+03 0.  0.
         13    1    1    2    0    0  0.16201236228E+03  0.13352794859E+03  0.10741793920E+04  0.10945040411E+04  0.10566000000E+00 0.  1.
        994    1    1    2    0    0 -0.14823826992E+03 -0.16882523846E+03  0.19659457204E+03  0.34414446322E+03  0.17120000000E+03 0.  0.
        998    1    1    2    0    0 -0.13774092359E+02  0.35297289874E+02  0.22922603227E+03  0.23255149572E+03  0.10000000000E+02 0.  1.
</event>
<event>
 5    1  0.1574792E-008  0.3779766E+03  0.7957747E-01  0.3460017E+00
         13   -1    0    0    0    0  0.00000000000E+00  0.00000000000E+00  0.14999999963E+04  0.15000000000E+04  0.10566000000E+00 0.  1.
        994   -1    0    0    0    0 -0.00000000000E+00 -0.00000000000E+00  0.11368683772E-12  0.17120000000E+03  0.17120000000E+03 0.  0.
         13    1    1    2    0    0 -0.42402709279E+02 -0.99253776209E+01  0.58877940565E+02  0.73233366196E+02  0.10566000000E+00 0.  1.
        994    1    1    2    0    0  0.12892522186E+02  0.17094955209E+02  0.16870881155E+02  0.17335663025E+03  0.17120000000E+03 0.  0.
        998    1    1    2    0    0  0.29510187093E+02 -0.71695775882E+01  0.14242511746E+04  0.14246100036E+04  0.10000000000E+02 0.  1.
</event>
<event>
 5    1  0.1574792E-008  0.3756776E+03  0.7957747E-01  0.3470198E+00
         13   -1    0    0    0    0  0.00000000000E+00  0.00000000000E+00  0.14999999963E+04  0.15000000000E+04  0.10566000000E+00 0. -1.
        994   -1    0    0    0    0 -0.00000000000E+00 -0.00000000000E+00  0.11368683772E-12  0.17120000000E+03  0.17120000000E+03 0.  0.
         13    1    1    2    0    0  0.39111510322E+02 -0.16550656978E+02  0.16051449622E+03  0.16603779433E+03  0.10566000000E+00 0. -1.
        994    1    1    2    0    0 -0.17178818304E+01 -0.21965898485E+01  0.63575725462E+01  0.17134069818E+03  0.17120000000E+03 0.  0.
        998    1    1    2    0    0 -0.37393628492E+02  0.18747246827E+02  0.13331279275E+04  0.13338215075E+04  0.10000000000E+02 0. -1.
</event>
<event>
 5    1  0.1574792E-008  0.3809700E+03  0.7957747E-01  0.3446946E+00
         13   -1    0    0    0    0  0.00000000000E+00  0.00000000000E+00  0.14999999963E+04  0.15000000000E+04  0.10566000000E+00 0. -1.
        994   -1    0    0    0    0 -0.00000000000E+00 -0.00000000000E+00  0.11368683772E-12  0.17120000000E+03  0.17120000000E+03 0.  0.
         13    1    1    2    0    0  0.15088680656E+02 -0.41227105946E+02  0.22362348133E+03  0.22789211289E+03  0.10566000000E+00 0. -1.
        994    1    1    2    0    0 -0.10533184891E+02  0.44426950708E+02  0.10622421281E+02  0.17750205004E+03  0.17120000000E+03 0.  0.
        998    1    1    2    0    0 -0.45554957646E+01 -0.31998447617E+01  0.12657540937E+04  0.12658058371E+04  0.10000000000E+02 0. -1.
</event>
<event>
 5    1  0.1574792E-008  0.3818302E+03  0.7957747E-01  0.3443228E+00
         13   -1    0    0    0    0  0.00000000000E+00  0.00000000000E+00  0.14999999963E+04  0.15000000000E+04  0.10566000000E+00 0.  1.
        994   -1    0    0    0    0 -0.00000000000E+00 -0.00000000000E+00  0.11368683772E-12  0.17120000000E+03  0.17120000000E+03 0.  0.
         13    1    1    2    0    0 -0.10822390003E+03  0.73478167202E+02  0.39499213461E+03  0.41608923461E+03  0.10566000000E+00 0.  1.
        994    1    1    2    0    0  0.11658827907E+03 -0.29991990513E+02  0.72329124490E+02  0.22143461464E+03  0.17120000000E+03 0.  0.
        998    1    1    2    0    0 -0.83643790384E+01 -0.43486176689E+02  0.10326787372E+04  0.10336761507E+04  0.10000000000E+02 0. -1.
</event>
<event>
 5    1  0.1574792E-008  0.3845971E+03  0.7957747E-01  0.3431383E+00
         13   -1    0    0    0    0  0.00000000000E+00  0.00000000000E+00  0.14999999963E+04  0.15000000000E+04  0.10566000000E+00 0.  1.
        994   -1    0    0    0    0 -0.00000000000E+00 -0.00000000000E+00  0.11368683772E-12  0.17120000000E+03  0.17120000000E+03 0.  0.
         13    1    1    2    0    0  0.58327428973E+00 -0.11575743620E+02  0.38702367432E+02  0.40400772989E+02  0.10566000000E+00 0.  1.
        994    1    1    2    0    0  0.19998183902E+01 -0.51531976161E+01  0.19309233653E+01  0.17130009686E+03  0.17120000000E+03 0.  0.
        998    1    1    2    0    0 -0.25830926800E+01  0.16728941236E+02  0.14593667055E+04  0.14594991302E+04  0.10000000000E+02 0.  1.
</event>
<event>
 5    1  0.1574792E-008  0.3738881E+03  0.7957747E-01  0.3478210E+00
         13   -1    0    0    0    0  0.00000000000E+00  0.00000000000E+00  0.14999999963E+04  0.15000000000E+04  0.10566000000E+00 0.  1.
        994   -1    0    0    0    0 -0.00000000000E+00 -0.00000000000E+00  0.11368683772E-12  0.17120000000E+03  0.17120000000E+03 0.  0.
         13    1    1    2    0    0  0.42245148219E+02 -0.22779000292E+02  0.91760591185E+02  0.10355458783E+03  0.10566000000E+00 0.  1.
        994    1    1    2    0    0  0.69337262283E+01  0.21281262458E+02  0.14787195260E+02  0.17328897782E+03  0.17120000000E+03 0.  0.
        998    1    1    2    0    0 -0.49178874447E+02  0.14977378334E+01  0.13934522098E+04  0.13943564343E+04  0.10000000000E+02 0.  1.
</event>
<event>
 5    1  0.1574792E-008  0.3757764E+03  0.7957747E-01  0.3469758E+00
         13   -1    0    0    0    0  0.00000000000E+00  0.00000000000E+00  0.14999999963E+04  0.15000000000E+04  0.10566000000E+00 0. -1.
        994   -1    0    0    0    0 -0.00000000000E+00 -0.00000000000E+00  0.11368683772E-12  0.17120000000E+03  0.17120000000E+03 0.  0.
         13    1    1    2    0    0  0.37194396925E+02  0.15846719899E+02  0.11952093563E+03  0.12617371720E+03  0.10566000000E+00 0. -1.
        994    1    1    2    0    0 -0.38209566312E+02 -0.93847631451E+01  0.11547022607E+02  0.17604209289E+03  0.17120000000E+03 0.  0.
        998    1    1    2    0    0  0.10151693862E+01 -0.64619567538E+01  0.13689320380E+04  0.13689841899E+04  0.10000000000E+02 0. -1.
</event>
<event>
 5    1  0.1574792E-008  0.3801090E+03  0.7957747E-01  0.3450684E+00
         13   -1    0    0    0    0  0.00000000000E+00  0.00000000000E+00  0.14999999963E+04  0.15000000000E+04  0.10566000000E+00 0.  1.
        994   -1    0    0    0    0 -0.00000000000E+00 -0.00000000000E+00  0.11368683772E-12  0.17120000000E+03  0.17120000000E+03 0.  0.
         13    1    1    2    0    0  0.15203728136E+02 -0.19991933286E+02  0.83025774576E+02  0.86741692131E+02  0.10566000000E+00 0.  1.
        994    1    1    2    0    0  0.17234550293E+00 -0.37481451896E+01  0.41251805603E+01  0.17129079196E+03  0.17120000000E+03 0.  0.
        998    1    1    2    0    0 -0.15376073639E+02  0.23740078475E+02  0.14128490411E+04  0.14131675159E+04  0.10000000000E+02 0.  1.
</event>
<event>
 5    1  0.1574792E-008  0.3791772E+03  0.7957747E-01  0.3454749E+00
         13   -1    0    0    0    0  0.00000000000E+00  0.00000000000E+00  0.14999999963E+04  0.15000000000E+04  0.10566000000E+00 0. -1.
        994   -1    0    0    0    0 -0.00000000000E+00 -0.00000000000E+00  0.11368683772E-12  0.17120000000E+03  0.17120000000E+03 0.  0.
         13    1    1    2    0    0 -0.15415156335E+02  0.40919612840E+01  0.27201492602E+02  0.31532579276E+02  0.10566000000E+00 0. -1.
        994    1    1    2    0    0 -0.25358604530E+01  0.37010534208E+01  0.46165404098E+01  0.17132098771E+03  0.17120000000E+03 0.  0.
        998    1    1    2    0    0  0.17951016788E+02 -0.77930147049E+01  0.14681819633E+04  0.14683464330E+04  0.10000000000E+02 0. -1.
</event>
<event>
 5    1  0.1574792E-008  0.3783895E+03  0.7957747E-01  0.3458201E+00
         13   -1    0    0    0    0  0.00000000000E+00  0.00000000000E+00  0.14999999963E+04  0.15000000000E+04  0.10566000000E+00 0. -1.
        994   -1    0    0    0    0 -0.00000000000E+00 -0.00000000000E+00  0.11368683772E-12  0.17120000000E+03  0.17120000000E+03 0.  0.
         13    1    1    2    0    0  0.26299918085E+02 -0.71588679168E+02  0.33469949796E+03  0.34327888047E+03  0.10566000000E+00 0. -1.
        994    1    1    2    0    0 -0.12234193985E+02  0.11350769737E+03  0.50081561758E+02  0.21178119768E+03  0.17120000000E+03 0.  0.
        998    1    1    2    0    0 -0.14065724101E+02 -0.41919018200E+02  0.11152189366E+04  0.11161399219E+04  0.10000000000E+02 0. -1.
</event>
<event>
 5    1  0.1574792E-008  0.3833440E+03  0.7957747E-01  0.3436726E+00
         13   -1    0    0    0    0  0.00000000000E+00  0.00000000000E+00  0.14999999963E+04  0.15000000000E+04  0.10566000000E+00 0. -1.
        994   -1    0    0    0    0 -0.00000000000E+00 -0.00000000000E+00  0.11368683772E-12  0.17120000000E+03  0.17120000000E+03 0.  0.
         13    1    1    2    0    0 -0.90371016854E+01 -0.74663715326E+01  0.27023933203E+02  0.29457088120E+02  0.10566000000E+00 0. -1.
        994    1    1    2    0    0  0.11822873103E+02  0.87886421299E+00  0.29193939492E+01  0.17163483211E+03  0.17120000000E+03 0.  0.
        998    1    1    2    0    0 -0.27857714177E+01  0.65875073196E+01  0.14700566691E+04  0.14701080798E+04  0.10000000000E+02 0. -1.
</event>
<event>
 5    1  0.1574792E-008  0.3812358E+03  0.7957747E-01  0.3445795E+00
         13   -1    0    0    0    0  0.00000000000E+00  0.00000000000E+00  0.14999999963E+04  0.15000000000E+04  0.10566000000E+00 0. -1.
        994   -1    0    0    0    0 -0.00000000000E+00 -0.00000000000E+00  0.11368683772E-12  0.17120000000E+03  0.17120000000E+03 0.  0.
         13    1    1    2    0    0  0.17107031978E+02  0.10468709463E+02  0.57746059628E+02  0.61129886205E+02  0.10566000000E+00 0. -1.
        994    1    1    2    0    0 -0.86633875001E+01  0.25737727120E+01  0.37825916320E+01  0.17148010552E+03  0.17120000000E+03 0.  0.
        998    1    1    2    0    0 -0.84436444775E+01 -0.13042482175E+02  0.14384713450E+04  0.14385900083E+04  0.10000000000E+02 0. -1.
</event>
<event>
 5    1  0.1574792E-008  0.3834085E+03  0.7957747E-01  0.3436450E+00
         13   -1    0    0    0    0  0.00000000000E+00  0.00000000000E+00  0.14999999963E+04  0.15000000000E+04  0.10566000000E+00 0.  1.
        994   -1    0    0    0    0 -0.00000000000E+00 -0.00000000000E+00  0.11368683772E-12  0.17120000000E+03  0.17120000000E+03 0.  0.
         13    1    1    2    0    0 -0.20051743355E+02  0.15066328389E+02  0.12182302732E+03  0.12437816453E+03  0.10566000000E+00 0.  1.
        994    1    1    2    0    0  0.20838924755E+02 -0.11412278403E+02  0.42906551731E+01  0.17289404445E+03  0.17120000000E+03 0.  0.
        998    1    1    2    0    0 -0.78718139964E+00 -0.36540499856E+01  0.13738863138E+04  0.13739277910E+04  0.10000000000E+02 0.  1.
</event>
<event>
 5    1  0.1574792E-008  0.3850703E+03  0.7957747E-01  0.3429374E+00
         13   -1    0    0    0    0  0.00000000000E+00  0.00000000000E+00  0.14999999963E+04  0.15000000000E+04  0.10566000000E+00 0.  1.
        994   -1    0    0    0    0 -0.00000000000E+00 -0.00000000000E+00  0.11368683772E-12  0.17120000000E+03  0.17120000000E+03 0.  0.
         13    1    1    2    0    0  0.76545121514E+01  0.18663356898E+02  0.12161787037E+03  0.12327947925E+03  0.10566000000E+00 0.  1.
        994    1    1    2    0    0 -0.66072998864E+01 -0.16955303294E+02  0.26847348718E+01  0.17218532610E+03  0.17120000000E+03 0.  0.
        998    1    1    2    0    0 -0.10472122650E+01 -0.17080536035E+01  0.13756973910E+04  0.13757351947E+04  0.10000000000E+02 0.  1.
</event>
<event>
 5    1  0.1574792E-008  0.3833817E+03  0.7957747E-01  0.3436565E+00
         13   -1    0    0    0    0  0.00000000000E+00  0.00000000000E+00  0.14999999963E+04  0.15000000000E+04  0.10566000000E+00 0. -1.
        994   -1    0    0    0    0 -0.00000000000E+00 -0.00000000000E+00  0.11368683772E-12  0.17120000000E+03  0.17120000000E+03 0.  0.
         13    1    1    2    0    0  0.74280567038E+01 -0.86378372890E+01  0.25393301116E+02  0.27831980976E+02  0.10566000000E+00 0. -1.
        994    1    1    2    0    0 -0.16391760038E+00  0.16658861899E+02  0.33538256289E+01  0.17204136914E+03  0.17120000000E+03 0.  0.
        998    1    1    2    0    0 -0.72641391034E+01 -0.80210246095E+01  0.14712528695E+04  0.14713266499E+04  0.10000000000E+02 0. -1.
</event>
<event>
 5    1  0.1574792E-008  0.3847059E+03  0.7957747E-01  0.3430920E+00
         13   -1    0    0    0    0  0.00000000000E+00  0.00000000000E+00  0.14999999963E+04  0.15000000000E+04  0.10566000000E+00 0.  1.
        994   -1    0    0    0    0 -0.00000000000E+00 -0.00000000000E+00  0.11368683772E-12  0.17120000000E+03  0.17120000000E+03 0.  0.
         13    1    1    2    0    0 -0.23417425010E+02  0.16789657343E+01  0.14160941267E+03  0.14354243847E+03  0.10566000000E+00 0.  1.
        994    1    1    2    0    0  0.24446821422E+02 -0.21958695453E+01  0.37619274140E+01  0.17299150563E+03  0.17120000000E+03 0.  0.
        998    1    1    2    0    0 -0.10293964117E+01  0.51690381092E+00  0.13546286562E+04  0.13546660559E+04  0.10000000000E+02 0.  1.
</event>
<event>
 5    1  0.1574792E-008  0.3715332E+03  0.7957747E-01  0.3488874E+00
         13   -1    0    0    0    0  0.00000000000E+00  0.00000000000E+00  0.14999999963E+04  0.15000000000E+04  0.10566000000E+00 0.  1.
        994   -1    0    0    0    0 -0.00000000000E+00 -0.00000000000E+00  0.11368683772E-12  0.17120000000E+03  0.17120000000E+03 0.  0.
         13    1    1    2    0    0  0.98373347439E+01  0.81224474860E+02  0.41182249615E+03  0.41987137074E+03  0.10566000000E+00 0.  1.
        994    1    1    2    0    0  0.34748862541E+02 -0.48537849558E+02  0.20827478914E+02  0.18250104155E+03  0.17120000000E+03 0.  0.
        998    1    1    2    0    0 -0.44586197285E+02 -0.32686625302E+02  0.10673500212E+04  0.10688275877E+04  0.10000000000E+02 0.  1.
</event>
<event>
 5    1  0.1574792E-008  0.3823675E+03  0.7957747E-01  0.3440914E+00
         13   -1    0    0    0    0  0.00000000000E+00  0.00000000000E+00  0.14999999963E+04  0.15000000000E+04  0.10566000000E+00 0.  1.
        994   -1    0    0    0    0 -0.00000000000E+00 -0.00000000000E+00  0.11368683772E-12  0.17120000000E+03  0.17120000000E+03 0.  0.
         13    1    1    2    0    0  0.57979499034E+02 -0.14399714230E+02  0.10173742752E+03  0.11798088575E+03  0.10566000000E+00 0.  1.
        994    1    1    2    0    0 -0.17146749217E+02  0.11405612193E+02  0.19185505961E+02  0.17349819203E+03  0.17120000000E+03 0.  0.
        998    1    1    2    0    0 -0.40832749817E+02  0.29941020364E+01  0.13790770628E+04  0.13797209222E+04  0.10000000000E+02 0.  1.
</event>
<event>
 5    1  0.1574792E-008  0.3805091E+03  0.7957747E-01  0.3448945E+00
         13   -1    0    0    0    0  0.00000000000E+00  0.00000000000E+00  0.14999999963E+04  0.15000000000E+04  0.10566000000E+00 0.  1.
        994   -1    0    0    0    0 -0.00000000000E+00 -0.00000000000E+00  0.11368683772E-12  0.17120000000E+03  0.17120000000E+03 0.  0.
         13    1    1    2    0    0 -0.32018818569E+02  0.65550956379E+01  0.14007485457E+03  0.14383723464E+03  0.10566000000E+00 0.  1.
        994    1    1    2    0    0  0.19887938281E+02  0.18436969417E+02  0.63346958557E+01  0.17345033958E+03  0.17120000000E+03 0.  0.
        998    1    1    2    0    0  0.12130880288E+02 -0.24992065055E+02  0.13535904458E+04  0.13539124258E+04  0.10000000000E+02 0.  1.
</event>
<event>
 5    1  0.1574792E-008  0.3803667E+03  0.7957747E-01  0.3449563E+00
         13   -1    0    0    0    0  0.00000000000E+00  0.00000000000E+00  0.14999999963E+04  0.15000000000E+04  0.10566000000E+00 0.  1.
        994   -1    0    0    0    0 -0.00000000000E+00 -0.00000000000E+00  0.11368683772E-12  0.17120000000E+03  0.17120000000E+03 0.  0.
         13    1    1    2    0    0 -0.87965749861E-01 -0.15483707593E+02  0.28921666838E+02  0.32805897573E+02  0.10566000000E+00 0.  1.
        994    1    1    2    0    0  0.15852937415E+01  0.92073074180E+01  0.42396548079E+01  0.17150714953E+03  0.17120000000E+03 0.  0.
        998    1    1    2    0    0 -0.14973279916E+01  0.62764001755E+01  0.14668386746E+04  0.14668869529E+04  0.10000000000E+02 0.  1.
</event>
<event>
 5    1  0.1574792E-008  0.3690991E+03  0.7957747E-01  0.3500042E+00
         13   -1    0    0    0    0  0.00000000000E+00  0.00000000000E+00  0.14999999963E+04  0.15000000000E+04  0.10566000000E+00 0.  1.
        994   -1    0    0    0    0 -0.00000000000E+00 -0.00000000000E+00  0.11368683772E-12  0.17120000000E+03  0.17120000000E+03 0.  0.
         13    1    1    2    0    0  0.11955391224E+02 -0.47418944205E+02  0.12871495612E+03  0.13769182525E+03  0.10566000000E+00 0.  1.
        994    1    1    2    0    0  0.14665536151E+02  0.16161156298E+02  0.11394346526E+02  0.17296107093E+03  0.17120000000E+03 0.  0.
        998    1    1    2    0    0 -0.26620927375E+02  0.31257787907E+02  0.13598906936E+04  0.13605471038E+04  0.10000000000E+02 0.  1.
</event>
<event>
 5    1  0.1574792E-008  0.4235709E+03  0.7957747E-01  0.3280932E+00
         13   -1    0    0    0    0  0.00000000000E+00  0.00000000000E+00  0.14999999963E+04  0.15000000000E+04  0.10566000000E+00 0.  1.
        994   -1    0    0    0    0 -0.00000000000E+00 -0.00000000000E+00  0.11368683772E-12  0.17120000000E+03  0.17120000000E+03 0.  0.
         13    1    1    2    0    0  0.80543087737E+02  0.48016816818E+02  0.97019250772E+02  0.13492794323E+03  0.10566000000E+00 0.  1.
        994    1    1    2    0    0 -0.64005786809E+02  0.11470765527E+02  0.61279696850E+02  0.19311385360E+03  0.17120000000E+03 0.  0.
        998    1    1    2    0    0 -0.16537300928E+02 -0.59487582345E+02  0.13417010487E+04  0.13431582032E+04  0.10000000000E+02 0.  1.
</event>
<event>
 5    1  0.1574792E-008  0.3848979E+03  0.7957747E-01  0.3430105E+00
         13   -1    0    0    0    0  0.00000000000E+00  0.00000000000E+00  0.14999999963E+04  0.15000000000E+04  0.10566000000E+00 0.  1.
        994   -1    0    0    0    0 -0.00000000000E+00 -0.00000000000E+00  0.11368683772E-12  0.17120000000E+03  0.17120000000E+03 0.  0.
         13    1    1    2    0    0 -0.27195577405E+01 -0.27216965631E+02  0.14765644706E+03  0.15016856108E+03  0.10566000000E+00 0.  1.
        994    1    1    2    0    0 -0.18067489205E+01  0.63804117974E+02  0.15200821180E+02  0.18334321579E+03  0.17120000000E+03 0.  0.
        998    1    1    2    0    0  0.45263066609E+01 -0.36587152343E+02  0.13371427280E+04  0.13376882231E+04  0.10000000000E+02 0.  1.
</event>
<event>
 5    1  0.1772019E-008  0.3856149E+03  0.7957747E-01  0.3427068E+00
         13   -1    0    0    0    0  0.00000000000E+00  0.00000000000E+00  0.14999999963E+04  0.15000000000E+04  0.10566000000E+00 0. -1.
        994   -1    0    0    0    0 -0.00000000000E+00 -0.00000000000E+00  0.11368683772E-12  0.17120000000E+03  0.17120000000E+03 0.  0.
         13    1    1    2    0    0 -0.44355862184E+01 -0.97734201953E+01  0.43576781441E+02  0.44879184621E+02  0.10566000000E+00 0. -1.
        994    1    1    2    0    0  0.73202560725E+01  0.51541158452E+01  0.15882434622E+01  0.17144128317E+03  0.17120000000E+03 0.  0.
        998    1    1    2    0    0 -0.28846698541E+01  0.46193043501E+01  0.14548349714E+04  0.14548795322E+04  0.10000000000E+02 0. -1.
</event>
<event>
 5    1  0.1574792E-008  0.3778156E+03  0.7957747E-01  0.3460726E+00
         13   -1    0    0    0    0  0.00000000000E+00  0.00000000000E+00  0.14999999963E+04  0.15000000000E+04  0.10566000000E+00 0.  1.
        994   -1    0    0    0    0 -0.00000000000E+00 -0.00000000000E+00  0.11368683772E-12  0.17120000000E+03  0.17120000000E+03 0.  0.
         13    1    1    2    0    0 -0.40066485565E+02  0.25340482294E+02  0.73839075225E+02  0.87747840444E+02  0.10566000000E+00 0.  1.
        994    1    1    2    0    0  0.79943764387E+01 -0.26386540800E+01  0.15387451928E+02  0.17209615402E+03  0.17120000000E+03 0.  0.
        998    1    1    2    0    0  0.32072109126E+02 -0.22701828214E+02  0.14107734691E+04  0.14113560055E+04  0.10000000000E+02 0.  1.
</event>
<event>
 5    1  0.1574792E-008  0.3824367E+03  0.7957747E-01  0.3440617E+00
         13   -1    0    0    0    0  0.00000000000E+00  0.00000000000E+00  0.14999999963E+04  0.15000000000E+04  0.10566000000E+00 0. -1.
        994   -1    0    0    0    0 -0.00000000000E+00 -0.00000000000E+00  0.11368683772E-12  0.17120000000E+03  0.17120000000E+03 0.  0.
         13    1    1    2    0    0  0.79561254596E+01 -0.63477797201E+01  0.16659548760E+02  0.19522960037E+02  0.10566000000E+00 0. -1.
        994    1    1    2    0    0 -0.64528835122E+01  0.32490179745E+01  0.30812664587E+01  0.17138007476E+03  0.17120000000E+03 0.  0.
        998    1    1    2    0    0 -0.15032419474E+01  0.30987617456E+01  0.14802591811E+04  0.14802969652E+04  0.10000000000E+02 0. -1.
</event>
<event>
 5    1  0.1574792E-008  0.3738872E+03  0.7957747E-01  0.3478215E+00
         13   -1    0    0    0    0  0.00000000000E+00  0.00000000000E+00  0.14999999963E+04  0.15000000000E+04  0.10566000000E+00 0. -1.
        994   -1    0    0    0    0 -0.00000000000E+00 -0.00000000000E+00  0.11368683772E-12  0.17120000000E+03  0.17120000000E+03 0.  0.
         13    1    1    2    0    0  0.58949563143E+02  0.67714810814E+02  0.26331607151E+03  0.27820084701E+03  0.10566000000E+00 0. -1.
        994    1    1    2    0    0 -0.32731670708E+02 -0.79949414647E+02  0.39956976080E+02  0.19588075737E+03  0.17120000000E+03 0.  0.
        998    1    1    2    0    0 -0.26217892436E+02  0.12234603833E+02  0.11967269487E+04  0.11971183956E+04  0.10000000000E+02 0. -1.
</event>
<event>
 5    1  0.1574792E-008  0.3796033E+03  0.7957747E-01  0.3452888E+00
         13   -1    0    0    0    0  0.00000000000E+00  0.00000000000E+00  0.14999999963E+04  0.15000000000E+04  0.10566000000E+00 0. -1.
        994   -1    0    0    0    0 -0.00000000000E+00 -0.00000000000E+00  0.11368683772E-12  0.17120000000E+03  0.17120000000E+03 0.  0.
         13    1    1    2    0    0  0.22946574966E+02 -0.33780505280E+02  0.24387751327E+03  0.24727296755E+03  0.10566000000E+00 0. -1.
        994    1    1    2    0    0  0.11177657706E+02  0.12909014427E+01  0.47574197675E+01  0.17163530960E+03  0.17120000000E+03 0.  0.
        998    1    1    2    0    0 -0.34124232671E+02  0.32489603837E+02  0.12513650632E+04  0.12522917229E+04  0.10000000000E+02 0. -1.
</event>
<event>
 5    1  0.1574792E-008  0.3771485E+03  0.7957747E-01  0.3463669E+00
         13   -1    0    0    0    0  0.00000000000E+00  0.00000000000E+00  0.14999999963E+04  0.15000000000E+04  0.10566000000E+00 0.  1.
        994   -1    0    0    0    0 -0.00000000000E+00 -0.00000000000E+00  0.11368683772E-12  0.17120000000E+03  0.17120000000E+03 0.  0.
         13    1    1    2    0    0  0.15797548121E+02  0.16430215305E+02  0.44015821953E+02  0.49567310274E+02  0.10566000000E+00 0.  1.
        994    1    1    2    0    0 -0.19786647128E+02 -0.53326082626E+01  0.69980554454E+01  0.17256407765E+03  0.17120000000E+03 0.  0.
        998    1    1    2    0    0  0.39890990073E+01 -0.11097607042E+02  0.14489861189E+04  0.14490686121E+04  0.10000000000E+02 0.  1.
</event>
<event>
 5    1  0.1574792E-008  0.3817526E+03  0.7957747E-01  0.3443563E+00
         13   -1    0    0    0    0  0.00000000000E+00  0.00000000000E+00  0.14999999963E+04  0.15000000000E+04  0.10566000000E+00 0. -1.
        994   -1    0    0    0    0 -0.00000000000E+00 -0.00000000000E+00  0.11368683772E-12  0.17120000000E+03  0.17120000000E+03 0.  0.
         13    1    1    2    0    0 -0.20839539172E+01 -0.18596516665E+02  0.56390087964E+02  0.59414025958E+02  0.10566000000E+00 0. -1.
        994    1    1    2    0    0 -0.84300469541E+01 -0.21126003519E+01  0.35021336610E+01  0.17145621515E+03  0.17120000000E+03 0.  0.
        998    1    1    2    0    0  0.10514000871E+02  0.20709117017E+02  0.14401077747E+04  0.14403297589E+04  0.10000000000E+02 0. -1.
</event>
<event>
 5    1  0.1574792E-008  0.3806819E+03  0.7957747E-01  0.3448195E+00
         13   -1    0    0    0    0  0.00000000000E+00  0.00000000000E+00  0.14999999963E+04  0.15000000000E+04  0.10566000000E+00 0.  1.
        994   -1    0    0    0    0 -0.00000000000E+00 -0.00000000000E+00  0.11368683772E-12  0.17120000000E+03  0.17120000000E+03 0.  0.
         13    1    1    2    0    0 -0.15100385952E+02 -0.66531340606E+01  0.35666945221E+02  0.39299211114E+02  0.10566000000E+00 0.  1.
        994    1    1    2    0    0 -0.38404705197E+01  0.11445807665E+02  0.42756317980E+01  0.17167841086E+03  0.17120000000E+03 0.  0.
        998    1    1    2    0    0  0.18940856472E+02 -0.47926736042E+01  0.14600574193E+04  0.14602223780E+04  0.10000000000E+02 0.  1.
</event>
<event>
 5    1  0.1574792E-008  0.3841244E+03  0.7957747E-01  0.3433394E+00
         13   -1    0    0    0    0  0.00000000000E+00  0.00000000000E+00  0.14999999963E+04  0.15000000000E+04  0.10566000000E+00 0.  1.
        994   -1    0    0    0    0 -0.00000000000E+00 -0.00000000000E+00  0.11368683772E-12  0.17120000000E+03  0.17120000000E+03 0.  0.
         13    1    1    2    0    0 -0.16109814464E+02  0.39752393935E+01  0.64820267168E+02  0.66910439022E+02  0.10566000000E+00 0.  1.
        994    1    1    2    0    0  0.13768603742E+02 -0.56815963109E+01  0.27974923508E+01  0.17186948813E+03  0.17120000000E+03 0.  0.
        998    1    1    2    0    0  0.23412107223E+01  0.17063569174E+01  0.14323822368E+04  0.14324200729E+04  0.10000000000E+02 0.  1.
</event>
<event>
 5    1  0.1574792E-008  0.3861478E+03  0.7957747E-01  0.3424819E+00
         13   -1    0    0    0    0  0.00000000000E+00  0.00000000000E+00  0.14999999963E+04  0.15000000000E+04  0.10566000000E+00 0. -1.
        994   -1    0    0    0    0 -0.00000000000E+00 -0.00000000000E+00  0.11368683772E-12  0.17120000000E+03  0.17120000000E+03 0.  0.
         13    1    1    2    0    0  0.96184722343E+01 -0.48028405530E+01  0.55700247369E+02  0.56728396826E+02  0.10566000000E+00 0. -1.
        994    1    1    2    0    0 -0.42066933786E+01  0.51718909750E+01  0.12069933046E+01  0.17133400584E+03  0.17120000000E+03 0.  0.
        998    1    1    2    0    0 -0.54117788557E+01 -0.36905042201E+00  0.14430927556E+04  0.14431375973E+04  0.10000000000E+02 0. -1.
</event>
<event>
 5    1  0.1574792E-008  0.3786644E+03  0.7957747E-01  0.3456995E+00
         13   -1    0    0    0    0  0.00000000000E+00  0.00000000000E+00  0.14999999963E+04  0.15000000000E+04  0.10566000000E+00 0.  1.
        994   -1    0    0    0    0 -0.00000000000E+00 -0.00000000000E+00  0.11368683772E-12  0.17120000000E+03  0.17120000000E+03 0.  0.
         13    1    1    2    0    0  0.88031843162E+01 -0.44878849869E+02  0.26724022216E+03  0.27112534873E+03  0.10566000000E+00 0.  1.
        994    1    1    2    0    0  0.48854173441E+01  0.19891517952E+01  0.49023048688E+01  0.17135138348E+03  0.17120000000E+03 0.  0.
        998    1    1    2    0    0 -0.13688601660E+02  0.42889698074E+02  0.12278574693E+04  0.12287232678E+04  0.10000000000E+02 0.  1.
</event>
<event>
 5    1  0.1574792E-008  0.3731461E+03  0.7957747E-01  0.3481556E+00
         13   -1    0    0    0    0  0.00000000000E+00  0.00000000000E+00  0.14999999963E+04  0.15000000000E+04  0.10566000000E+00 0. -1.
        994   -1    0    0    0    0 -0.00000000000E+00 -0.00000000000E+00  0.11368683772E-12  0.17120000000E+03  0.17120000000E+03 0.  0.
         13    1    1    2    0    0 -0.42140496682E+01 -0.26948667711E+02  0.24036520487E+02  0.36355940191E+02  0.10566000000E+00 0. -1.
        994    1    1    2    0    0  0.71837114097E+01  0.23165860582E+02  0.14694326966E+02  0.17353278091E+03  0.17120000000E+03 0.  0.
        998    1    1    2    0    0 -0.29696617416E+01  0.37828071290E+01  0.14612691488E+04  0.14613112789E+04  0.10000000000E+02 0. -1.
</event>
<event>
 5    1  0.1574792E-008  0.3733512E+03  0.7957747E-01  0.3480630E+00
         13   -1    0    0    0    0  0.00000000000E+00  0.00000000000E+00  0.14999999963E+04  0.15000000000E+04  0.10566000000E+00 0.  1.
        994   -1    0    0    0    0 -0.00000000000E+00 -0.00000000000E+00  0.11368683772E-12  0.17120000000E+03  0.17120000000E+03 0.  0.
         13    1    1    2    0    0 -0.44646653307E+01 -0.45494537575E+02  0.74931387149E+02  0.87774769323E+02  0.10566000000E+00 0.  1.
        994    1    1    2    0    0 -0.22933412549E+01  0.42174055642E+02  0.19059196236E+02  0.17736009513E+03  0.17120000000E+03 0.  0.
        998    1    1    2    0    0  0.67580065856E+01  0.33204819333E+01  0.14060094129E+04  0.14060651355E+04  0.10000000000E+02 0.  1.
</event>
<event>
 5    1  0.1574792E-008  0.3827970E+03  0.7957747E-01  0.3439069E+00
         13   -1    0    0    0    0  0.00000000000E+00  0.00000000000E+00  0.14999999963E+04  0.15000000000E+04  0.10566000000E+00 0.  1.
        994   -1    0    0    0    0 -0.00000000000E+00 -0.00000000000E+00  0.11368683772E-12  0.17120000000E+03  0.17120000000E+03 0.  0.
         13    1    1    2    0    0 -0.13489233546E+01  0.14047895664E+02  0.35328540858E+02  0.38043132495E+02  0.10566000000E+00 0.  1.
        994    1    1    2    0    0  0.98107210708E-01 -0.11557830046E+02  0.31704663009E+01  0.17161901094E+03  0.17120000000E+03 0.  0.
        998    1    1    2    0    0  0.12508161439E+01 -0.24900656179E+01  0.14615009891E+04  0.14615378566E+04  0.10000000000E+02 0.  1.
</event>
<event>
 5    1  0.1574792E-008  0.3824627E+03  0.7957747E-01  0.3440505E+00
         13   -1    0    0    0    0  0.00000000000E+00  0.00000000000E+00  0.14999999963E+04  0.15000000000E+04  0.10566000000E+00 0.  1.
        994   -1    0    0    0    0 -0.00000000000E+00 -0.00000000000E+00  0.11368683772E-12  0.17120000000E+03  0.17120000000E+03 0.  0.
         13    1    1    2    0    0 -0.92619955184E+01  0.23429949187E+02  0.10063433173E+03  0.10374018973E+03  0.10566000000E+00 0.  1.
        994    1    1    2    0    0  0.13218694828E+02 -0.25343239083E+02  0.56089998728E+01  0.17366034245E+03  0.17120000000E+03 0.  0.
        998    1    1    2    0    0 -0.39566993092E+01  0.19132898957E+01  0.13937566647E+04  0.13937994678E+04  0.10000000000E+02 0.  1.
</event>
<event>
 5    1  0.1574792E-008  0.3726726E+03  0.7957747E-01  0.3483698E+00
         13   -1    0    0    0    0  0.00000000000E+00  0.00000000000E+00  0.14999999963E+04  0.15000000000E+04  0.10566000000E+00 0. -1.
        994   -1    0    0    0    0 -0.00000000000E+00 -0.00000000000E+00  0.11368683772E-12  0.17120000000E+03  0.17120000000E+03 0.  0.
         13    1    1    2    0    0  0.22371484754E+02 -0.98235736662E+02  0.29645734605E+03  0.31310974510E+03  0.10566000000E+00 0. -1.
        994    1    1    2    0    0 -0.22232330567E+02  0.11191418812E+03  0.59843512178E+02  0.21426560147E+03  0.17120000000E+03 0.  0.
        998    1    1    2    0    0 -0.13915418694E+00 -0.13678451461E+02  0.11436991380E+04  0.11438246534E+04  0.10000000000E+02 0. -1.
</event>
<event>
 5    1  0.1574792E-008  0.3685299E+03  0.7957747E-01  0.3502674E+00
         13   -1    0    0    0    0  0.00000000000E+00  0.00000000000E+00  0.14999999963E+04  0.15000000000E+04  0.10566000000E+00 0. -1.
        994   -1    0    0    0    0 -0.00000000000E+00 -0.00000000000E+00  0.11368683772E-12  0.17120000000E+03  0.17120000000E+03 0.  0.
         13    1    1    2    0    0 -0.24065397196E+02 -0.46250719905E+02  0.12890240448E+03  0.13904716279E+03  0.10566000000E+00 0. -1.
        994    1    1    2    0    0  0.10547654110E+02  0.37190994217E+02  0.15250940663E+02  0.17617166131E+03  0.17120000000E+03 0.  0.
        998    1    1    2    0    0  0.13517743086E+02  0.90597256882E+01  0.13558466511E+04  0.13559811759E+04  0.10000000000E+02 0. -1.
</event>
<event>
 5    1  0.1574792E-008  0.4148557E+03  0.7957747E-01  0.3312147E+00
         13   -1    0    0    0    0  0.00000000000E+00  0.00000000000E+00  0.14999999963E+04  0.15000000000E+04  0.10566000000E+00 0. -1.
        994   -1    0    0    0    0 -0.00000000000E+00 -0.00000000000E+00  0.11368683772E-12  0.17120000000E+03  0.17120000000E+03 0.  0.
         13    1    1    2    0    0  0.44327152950E+02 -0.91238605426E+01  0.13360879991E+02  0.47187557661E+02  0.10566000000E+00 0. -1.
        994    1    1    2    0    0 -0.42141555119E+02  0.12959211047E+02  0.45121518296E+02  0.18245340017E+03  0.17120000000E+03 0.  0.
        998    1    1    2    0    0 -0.21855978304E+01 -0.38353505045E+01  0.14415175980E+04  0.14415590422E+04  0.10000000000E+02 0. -1.
</event>
<event>
 5    1  0.1574792E-008  0.3731408E+03  0.7957747E-01  0.3481580E+00
         13   -1    0    0    0    0  0.00000000000E+00  0.00000000000E+00  0.14999999963E+04  0.15000000000E+04  0.10566000000E+00 0. -1.
        994   -1    0    0    0    0 -0.00000000000E+00 -0.00000000000E+00  0.11368683772E-12  0.17120000000E+03  0.17120000000E+03 0.  0.
         13    1    1    2    0    0  0.14514262071E+02 -0.59076700506E+01  0.12563518272E+02  0.20085256391E+02  0.10566000000E+00 0. -1.
        994    1    1    2    0    0 -0.14833742621E+02  0.58690084493E+01  0.85075557258E+01  0.17215197845E+03  0.17120000000E+03 0.  0.
        998    1    1    2    0    0  0.31948055025E+00  0.38661601260E-01  0.14789289223E+04  0.14789627652E+04  0.10000000000E+02 0. -1.
</event>
<event>
 5    1  0.1574792E-008  0.3705161E+03  0.7957747E-01  0.3493522E+00
         13   -1    0    0    0    0  0.00000000000E+00  0.00000000000E+00  0.14999999963E+04  0.15000000000E+04  0.10566000000E+00 0. -1.
        994   -1    0    0    0    0 -0.00000000000E+00 -0.00000000000E+00  0.11368683772E-12  0.17120000000E+03  0.17120000000E+03 0.  0.
         13    1    1    2    0    0  0.11137702262E+02  0.60688121006E+01  0.20083902266E+01  0.12842261768E+02  0.10566000000E+00 0. -1.
        994    1    1    2    0    0 -0.58260021985E+01 -0.75124206283E+01  0.11528581231E+02  0.17185088580E+03  0.17120000000E+03 0.  0.
        998    1    1    2    0    0 -0.53117000632E+01  0.14436085276E+01  0.14864630248E+04  0.14865068524E+04  0.10000000000E+02 0. -1.
</event>
<event>
 5    1  0.1574792E-008  0.3846802E+03  0.7957747E-01  0.3431029E+00
         13   -1    0    0    0    0  0.00000000000E+00  0.00000000000E+00  0.14999999963E+04  0.15000000000E+04  0.10566000000E+00 0. -1.
        994   -1    0    0    0    0 -0.00000000000E+00 -0.00000000000E+00  0.11368683772E-12  0.17120000000E+03  0.17120000000E+03 0.  0.
         13    1    1    2    0    0  0.30754847944E+01 -0.15661433469E+02  0.75128601135E+02  0.76805318680E+02  0.10566000000E+00 0. -1.
        994    1    1    2    0    0  0.36665727361E+01  0.27201971987E+01  0.18576002965E+01  0.17127093714E+03  0.17120000000E+03 0.  0.
        998    1    1    2    0    0 -0.67420575306E+01  0.12941236270E+02  0.14230137948E+04  0.14231237442E+04  0.10000000000E+02 0. -1.
</event>
<event>
 5    1  0.1574792E-008  0.3840135E+03  0.7957747E-01  0.3433867E+00
         13   -1    0    0    0    0  0.00000000000E+00  0.00000000000E+00  0.14999999963E+04  0.15000000000E+04  0.10566000000E+00 0.  1.
        994   -1    0    0    0    0 -0.00000000000E+00 -0.00000000000E+00  0.11368683772E-12  0.17120000000E+03  0.17120000000E+03 0.  0.
         13    1    1    2    0    0 -0.49452790175E+00  0.13075099469E+02  0.39456500491E+02  0.41569572755E+02  0.10566000000E+00 0.  1.
        994    1    1    2    0    0  0.30764027904E+01 -0.10936919403E+02  0.25466877495E+01  0.17159547220E+03  0.17120000000E+03 0.  0.
        998    1    1    2    0    0 -0.25818748886E+01 -0.21381800664E+01  0.14579968080E+04  0.14580349550E+04  0.10000000000E+02 0.  1.
</event>
<event>
 5    1  0.1574792E-008  0.3827100E+03  0.7957747E-01  0.3439443E+00
         13   -1    0    0    0    0  0.00000000000E+00  0.00000000000E+00  0.14999999963E+04  0.15000000000E+04  0.10566000000E+00 0.  1.
        994   -1    0    0    0    0 -0.00000000000E+00 -0.00000000000E+00  0.11368683772E-12  0.17120000000E+03  0.17120000000E+03 0.  0.
         13    1    1    2    0    0 -0.16175724334E+02  0.10465817863E+02  0.67888823204E+02  0.70569758971E+02  0.10566000000E+00 0.  1.
        994    1    1    2    0    0  0.53753791716E+01 -0.49914612088E+01  0.29496763644E+01  0.17138246695E+03  0.17120000000E+03 0.  0.
        998    1    1    2    0    0  0.10800345163E+02 -0.54743566542E+01  0.14291614967E+04  0.14292477741E+04  0.10000000000E+02 0.  1.
</event>
<event>
 5    1  0.1574792E-008  0.2896030E+03  0.7957747E-01  0.3973159E+00
         13   -1    0    0    0    0  0.00000000000E+00  0.00000000000E+00  0.14999999963E+04  0.15000000000E+04  0.10566000000E+00 0.  1.
        994   -1    0    0    0    0 -0.00000000000E+00 -0.00000000000E+00  0.11368683772E-12  0.17120000000E+03  0.17120000000E+03 0.  0.
         13    1    1    2    0    0 -0.14869792666E+03  0.30952530004E+02  0.70523154169E+03  0.72140187902E+03  0.10566000000E+00 0.  1.
        994    1    1    2    0    0  0.73471739990E+02 -0.83421180240E+02  0.65003597390E+02  0.21422440935E+03  0.17120000000E+03 0.  0.
        998    1    1    2    0    0  0.75226186672E+02  0.52468650236E+02  0.72976485720E+03  0.73557371162E+03  0.10000000000E+02 0. -1.
</event>
<event>
 5    1  0.1574792E-008  0.3858962E+03  0.7957747E-01  0.3425880E+00
         13   -1    0    0    0    0  0.00000000000E+00  0.00000000000E+00  0.14999999963E+04  0.15000000000E+04  0.10566000000E+00 0.  1.
        994   -1    0    0    0    0 -0.00000000000E+00 -0.00000000000E+00  0.11368683772E-12  0.17120000000E+03  0.17120000000E+03 0.  0.
         13    1    1    2    0    0  0.12217434742E+02  0.55158696234E+01  0.71982641332E+02  0.73220231812E+02  0.10566000000E+00 0.  1.
        994    1    1    2    0    0 -0.13357122106E+02 -0.11358507615E+02  0.21945932300E+01  0.17210951352E+03  0.17120000000E+03 0.  0.
        998    1    1    2    0    0  0.11396873635E+01  0.58426379921E+01  0.14258227617E+04  0.14258702547E+04  0.10000000000E+02 0.  1.
</event>
<event>
 5    1  0.1574792E-008  0.3774802E+03  0.7957747E-01  0.3462204E+00
         13   -1    0    0    0    0  0.00000000000E+00  0.00000000000E+00  0.14999999963E+04  0.15000000000E+04  0.10566000000E+00 0. -1.
        994   -1    0    0    0    0 -0.00000000000E+00 -0.00000000000E+00  0.11368683772E-12  0.17120000000E+03  0.17120000000E+03 0.  0.
         13    1    1    2    0    0  0.67413804250E+02 -0.65041465970E+02  0.42464822200E+03  0.43485760533E+03  0.10566000000E+00 0. -1.
        994    1    1    2    0    0 -0.95499083057E+02  0.77204344632E+02  0.58062286358E+02  0.21854348490E+03  0.17120000000E+03 0.  0.
        998    1    1    2    0    0  0.28085278807E+02 -0.12162878661E+02  0.10172894879E+04  0.10177989098E+04  0.10000000000E+02 0. -1.
</event>
<event>
 5    1  0.1574792E-008  0.3723194E+03  0.7957747E-01  0.3485299E+00
         13   -1    0    0    0    0  0.00000000000E+00  0.00000000000E+00  0.14999999963E+04  0.15000000000E+04  0.10566000000E+00 0.  1.
        994   -1    0    0    0    0 -0.00000000000E+00 -0.00000000000E+00  0.11368683772E-12  0.17120000000E+03  0.17120000000E+03 0.  0.
         13    1    1    2    0    0 -0.56757769044E+02  0.73998721656E+01  0.21041398685E+03  0.21806021985E+03  0.10566000000E+00 0.  1.
        994    1    1    2    0    0  0.32012786383E+02  0.39057110089E+02  0.16860955590E+02  0.17928750142E+03  0.17120000000E+03 0.  0.
        998    1    1    2    0    0  0.24744982661E+02 -0.46456982255E+02  0.12727250538E+04  0.12738522787E+04  0.10000000000E+02 0.  1.
</event>
<event>
 5    1  0.1574792E-008  0.3707636E+03  0.7957747E-01  0.3492389E+00
         13   -1    0    0    0    0  0.00000000000E+00  0.00000000000E+00  0.14999999963E+04  0.15000000000E+04  0.10566000000E+00 0. -1.
        994   -1    0    0    0    0 -0.00000000000E+00 -0.00000000000E+00  0.11368683772E-12  0.17120000000E+03  0.17120000000E+03 0.  0.
         13    1    1    2    0    0 -0.52459787207E+02  0.21288372620E+02  0.20149620583E+03  0.20929872482E+03  0.10566000000E+00 0. -1.
        994    1    1    2    0    0  0.10494977987E+02 -0.12105116766E+01  0.92554965441E+01  0.17177518481E+03  0.17120000000E+03 0.  0.
        998    1    1    2    0    0  0.41964809221E+02 -0.20077860943E+02  0.12892482939E+04  0.12901260904E+04  0.10000000000E+02 0. -1.
</event>
<event>
 5    1  0.1574792E-008  0.3851382E+03  0.7957747E-01  0.3429086E+00
         13   -1    0    0    0    0  0.00000000000E+00  0.00000000000E+00  0.14999999963E+04  0.15000000000E+04  0.10566000000E+00 0. -1.
        994   -1    0    0    0    0 -0.00000000000E+00 -0.00000000000E+00  0.11368683772E-12  0.17120000000E+03  0.17120000000E+03 0.  0.
         13    1    1    2    0    0  0.90059728719E+01  0.16808532233E+02  0.11281275101E+03  0.11441312100E+03  0.10566000000E+00 0. -1.
        994    1    1    2    0    0 -0.12088159762E+01 -0.17543348505E+02  0.25786997981E+01  0.17212007438E+03  0.17120000000E+03 0.  0.
        998    1    1    2    0    0 -0.77971568957E+01  0.73481627164E+00  0.13846085455E+04  0.13846668046E+04  0.10000000000E+02 0. -1.
</event>
<event>
 5    1  0.1574792E-008  0.3841758E+03  0.7957747E-01  0.3433175E+00
         13   -1    0    0    0    0  0.00000000000E+00  0.00000000000E+00  0.14999999963E+04  0.15000000000E+04  0.10566000000E+00 0.  1.
        994   -1    0    0    0    0 -0.00000000000E+00 -0.00000000000E+00  0.11368683772E-12  0.17120000000E+03  0.17120000000E+03 0.  0.
         13    1    1    2    0    0 -0.10776751752E+02  0.61398198791E+01  0.42372282685E+02  0.44150393774E+02  0.10566000000E+00 0.  1.
        994    1    1    2    0    0 -0.21102064848E+02  0.82041334776E+00  0.35118481289E+01  0.17253331069E+03  0.17120000000E+03 0.  0.
        998    1    1    2    0    0  0.31878816600E+02 -0.69602332269E+01  0.14541158655E+04  0.14545162955E+04  0.10000000000E+02 0.  1.
</event>
<event>
 5    1  0.1574792E-008  0.3824663E+03  0.7957747E-01  0.3440489E+00
         13   -1    0    0    0    0  0.00000000000E+00  0.00000000000E+00  0.14999999963E+04  0.15000000000E+04  0.10566000000E+00 0.  1.
        994   -1    0    0    0    0 -0.00000000000E+00 -0.00000000000E+00  0.11368683772E-12  0.17120000000E+03  0.17120000000E+03 0.  0.
         13    1    1    2    0    0  0.21520427424E+02  0.12525532624E+02  0.10521768812E+03  0.10812396044E+03  0.10566000000E+00 0.  1.
        994    1    1    2    0    0 -0.14868570836E+02 -0.79694913105E+01  0.38375248694E+01  0.17207194364E+03  0.17120000000E+03 0.  0.
        998    1    1    2    0    0 -0.66518565877E+01 -0.45560413132E+01  0.13909447833E+04  0.13910040959E+04  0.10000000000E+02 0.  1.
</event>
<event>
 5    1  0.1574792E-008  0.3790895E+03  0.7957747E-01  0.3455133E+00
         13   -1    0    0    0    0  0.00000000000E+00  0.00000000000E+00  0.14999999963E+04  0.15000000000E+04  0.10566000000E+00 0.  1.
        994   -1    0    0    0    0 -0.00000000000E+00 -0.00000000000E+00  0.11368683772E-12  0.17120000000E+03  0.17120000000E+03 0.  0.
         13    1    1    2    0    0 -0.86060281027E+01  0.22926631898E+02  0.64586085400E+02  0.69072916264E+02  0.10566000000E+00 0.  1.
        994    1    1    2    0    0  0.20472071946E+01 -0.11733995069E+02  0.50693279932E+01  0.17168871770E+03  0.17120000000E+03 0.  0.
        998    1    1    2    0    0  0.65588209081E+01 -0.11192636829E+02  0.14303445829E+04  0.14304383660E+04  0.10000000000E+02 0.  1.
</event>
<event>
 5    1  0.1574792E-008  0.3835529E+03  0.7957747E-01  0.3435833E+00
         13   -1    0    0    0    0  0.00000000000E+00  0.00000000000E+00  0.14999999963E+04  0.15000000000E+04  0.10566000000E+00 0.  1.
        994   -1    0    0    0    0 -0.00000000000E+00 -0.00000000000E+00  0.11368683772E-12  0.17120000000E+03  0.17120000000E+03 0.  0.
         13    1    1    2    0    0  0.23893177633E+02  0.98615222775E+01  0.15413229404E+03  0.15628470427E+03  0.10566000000E+00 0.  1.
        994    1    1    2    0    0 -0.41231207747E+01 -0.43548089651E+01  0.24691688128E+01  0.17132279848E+03  0.17120000000E+03 0.  0.
        998    1    1    2    0    0 -0.19770056859E+02 -0.55067133124E+01  0.13433985334E+04  0.13435924972E+04  0.10000000000E+02 0.  1.
</event>
<event>
 5    1  0.1574792E-008  0.3723282E+03  0.7957747E-01  0.3485259E+00
         13   -1    0    0    0    0  0.00000000000E+00  0.00000000000E+00  0.14999999963E+04  0.15000000000E+04  0.10566000000E+00 0.  1.
        994   -1    0    0    0    0 -0.00000000000E+00 -0.00000000000E+00  0.11368683772E-12  0.17120000000E+03  0.17120000000E+03 0.  0.
         13    1    1    2    0    0 -0.44053134912E+02  0.22794516898E+02  0.12918625817E+03  0.13838124569E+03  0.10566000000E+00 0.  1.
        994    1    1    2    0    0  0.57135084678E+02 -0.28119669388E+02  0.22097513487E+02  0.18399150472E+03  0.17120000000E+03 0.  0.
        998    1    1    2    0    0 -0.13081949767E+02  0.53251524894E+01  0.13487162246E+04  0.13488272496E+04  0.10000000000E+02 0.  1.
</event>
<event>
 5    1  0.1574792E-008  0.3812800E+03  0.7957747E-01  0.3445604E+00
         13   -1    0    0    0    0  0.00000000000E+00  0.00000000000E+00  0.14999999963E+04  0.15000000000E+04  0.10566000000E+00 0. -1.
        994   -1    0    0    0    0 -0.00000000000E+00 -0.00000000000E+00  0.11368683772E-12  0.17120000000E+03  0.17120000000E+03 0.  0.
         13    1    1    2    0    0  0.24219481861E+02  0.21686766589E+02  0.15456706360E+03  0.15794900273E+03  0.10566000000E+00 0. -1.
        994    1    1    2    0    0 -0.90669039525E+01 -0.12633144674E+02  0.42937373354E+01  0.17195837075E+03  0.17120000000E+03 0.  0.
        998    1    1    2    0    0 -0.15152577909E+02 -0.90536219146E+01  0.13411391953E+04  0.13412926265E+04  0.10000000000E+02 0. -1.
</event>
<event>
 5    1  0.1574792E-008  0.3843274E+03  0.7957747E-01  0.3432530E+00
         13   -1    0    0    0    0  0.00000000000E+00  0.00000000000E+00  0.14999999963E+04  0.15000000000E+04  0.10566000000E+00 0.  1.
        994   -1    0    0    0    0 -0.00000000000E+00 -0.00000000000E+00  0.11368683772E-12  0.17120000000E+03  0.17120000000E+03 0.  0.
         13    1    1    2    0    0  0.17148401508E+02  0.48677875702E+01  0.74932964202E+02  0.77024173597E+02  0.10566000000E+00 0.  1.
        994    1    1    2    0    0 -0.23935718364E+02 -0.12054404313E+01  0.38597444961E+01  0.17291243254E+03  0.17120000000E+03 0.  0.
        998    1    1    2    0    0  0.67873168561E+01 -0.36623471389E+01  0.14212072876E+04  0.14212633939E+04  0.10000000000E+02 0.  1.
</event>
<event>
 5    1  0.1574792E-008  0.3826190E+03  0.7957747E-01  0.3439833E+00
         13   -1    0    0    0    0  0.00000000000E+00  0.00000000000E+00  0.14999999963E+04  0.15000000000E+04  0.10566000000E+00 0.  1.
        994   -1    0    0    0    0 -0.00000000000E+00 -0.00000000000E+00  0.11368683772E-12  0.17120000000E+03  0.17120000000E+03 0.  0.
         13    1    1    2    0    0  0.20638881611E+02 -0.21381354982E+02  0.14075730914E+03  0.14386019955E+03  0.10566000000E+00 0.  1.
        994    1    1    2    0    0 -0.32368143322E+02  0.13585563963E+02  0.69116632166E+01  0.17489847152E+03  0.17120000000E+03 0.  0.
        998    1    1    2    0    0  0.11729261711E+02  0.77957910189E+01  0.13523310239E+04  0.13524413289E+04  0.10000000000E+02 0.  1.
</event>
<event>
 5    1  0.1574792E-008  0.3751572E+03  0.7957747E-01  0.3472520E+00
         13   -1    0    0    0    0  0.00000000000E+00  0.00000000000E+00  0.14999999963E+04  0.15000000000E+04  0.10566000000E+00 0.  1.
        994   -1    0    0    0    0 -0.00000000000E+00 -0.00000000000E+00  0.11368683772E-12  0.17120000000E+03  0.17120000000E+03 0.  0.
         13    1    1    2    0    0  0.35109096342E+02  0.13952476706E+02  0.10740029920E+03  0.11385146325E+03  0.10566000000E+00 0.  1.
        994    1    1    2    0    0 -0.20763166790E+02 -0.10706441621E+01  0.80679351047E+01  0.17264642177E+03  0.17120000000E+03 0.  0.
        998    1    1    2    0    0 -0.14345929552E+02 -0.12881832544E+02  0.13845317620E+04  0.13847021150E+04  0.10000000000E+02 0.  1.
</event>
<event>
 5    1  0.1574792E-008  0.3736388E+03  0.7957747E-01  0.3479333E+00
         13   -1    0    0    0    0  0.00000000000E+00  0.00000000000E+00  0.14999999963E+04  0.15000000000E+04  0.10566000000E+00 0. -1.
        994   -1    0    0    0    0 -0.00000000000E+00 -0.00000000000E+00  0.11368683772E-12  0.17120000000E+03  0.17120000000E+03 0.  0.
         13    1    1    2    0    0 -0.28733256970E+02 -0.40763484830E+02  0.18982473521E+03  0.19626691778E+03  0.10566000000E+00 0. -1.
        994    1    1    2    0    0 -0.28487903954E+02  0.28821189711E+02  0.13008165121E+02  0.17641109378E+03  0.17120000000E+03 0.  0.
        998    1    1    2    0    0  0.57221160924E+02  0.11942295120E+02  0.12971670959E+04  0.12985219884E+04  0.10000000000E+02 0. -1.
</event>
<event>
 5    1  0.1574792E-008  0.3836954E+03  0.7957747E-01  0.3435224E+00
         13   -1    0    0    0    0  0.00000000000E+00  0.00000000000E+00  0.14999999963E+04  0.15000000000E+04  0.10566000000E+00 0.  1.
        994   -1    0    0    0    0 -0.00000000000E+00 -0.00000000000E+00  0.11368683772E-12  0.17120000000E+03  0.17120000000E+03 0.  0.
         13    1    1    2    0    0  0.67037026941E+01  0.12020396401E+02  0.43981027737E+02  0.46084395670E+02  0.10566000000E+00 0.  1.
        994    1    1    2    0    0  0.99728808690E+01  0.17632421214E+01  0.26180630524E+01  0.17151927481E+03  0.17120000000E+03 0.  0.
        998    1    1    2    0    0 -0.16676583563E+02 -0.13783638522E+02  0.14534009055E+04  0.14535963295E+04  0.10000000000E+02 0.  1.
</event>
<event>
 5    1  0.1574792E-008  0.3701596E+03  0.7957747E-01  0.3495158E+00
         13   -1    0    0    0    0  0.00000000000E+00  0.00000000000E+00  0.14999999963E+04  0.15000000000E+04  0.10566000000E+00 0. -1.
        994   -1    0    0    0    0 -0.00000000000E+00 -0.00000000000E+00  0.11368683772E-12  0.17120000000E+03  0.17120000000E+03 0.  0.
         13    1    1    2    0    0 -0.13599685232E+03  0.28305585713E+02  0.53886989009E+03  0.55648640561E+03  0.10566000000E+00 0. -1.
        994    1    1    2    0    0  0.13362603712E+03 -0.28157583904E+02  0.79429872926E+02  0.23295345466E+03  0.17120000000E+03 0.  0.
        998    1    1    2    0    0  0.23708152035E+01 -0.14800180935E+00  0.88170023326E+03  0.88176013972E+03  0.10000000000E+02 0.  0.
</event>
<event>
 5    1  0.1574792E-008  0.3843834E+03  0.7957747E-01  0.3432292E+00
         13   -1    0    0    0    0  0.00000000000E+00  0.00000000000E+00  0.14999999963E+04  0.15000000000E+04  0.10566000000E+00 0.  1.
        994   -1    0    0    0    0 -0.00000000000E+00 -0.00000000000E+00  0.11368683772E-12  0.17120000000E+03  0.17120000000E+03 0.  0.
         13    1    1    2    0    0 -0.32626654443E+01 -0.12789502520E+02  0.46456237193E+02  0.48295025610E+02  0.10566000000E+00 0.  1.
        994    1    1    2    0    0  0.10363431156E+02 -0.16926878176E+01  0.23000205381E+01  0.17153715630E+03  0.17120000000E+03 0.  0.
        998    1    1    2    0    0 -0.71007657120E+01  0.14482190337E+02  0.14512437385E+04  0.14513678181E+04  0.10000000000E+02 0.  1.
</event>
<event>
 5    1  0.1574792E-008  0.3827111E+03  0.7957747E-01  0.3439438E+00
         13   -1    0    0    0    0  0.00000000000E+00  0.00000000000E+00  0.14999999963E+04  0.15000000000E+04  0.10566000000E+00 0.  1.
        994   -1    0    0    0    0 -0.00000000000E+00 -0.00000000000E+00  0.11368683772E-12  0.17120000000E+03  0.17120000000E+03 0.  0.
         13    1    1    2    0    0  0.23392282827E+02 -0.43898773543E+01  0.93918353425E+02  0.96887244739E+02  0.10566000000E+00 0.  1.
        994    1    1    2    0    0 -0.27556403464E+02  0.36036162790E+01  0.53339964359E+01  0.17352300407E+03  0.17120000000E+03 0.  0.
        998    1    1    2    0    0  0.41641206373E+01  0.78626107528E+00  0.14007476464E+04  0.14007897512E+04  0.10000000000E+02 0.  1.
</event>
<event>
 5    1  0.1574792E-008  0.3840573E+03  0.7957747E-01  0.3433680E+00
         13   -1    0    0    0    0  0.00000000000E+00  0.00000000000E+00  0.14999999963E+04  0.15000000000E+04  0.10566000000E+00 0.  1.
        994   -1    0    0    0    0 -0.00000000000E+00 -0.00000000000E+00  0.11368683772E-12  0.17120000000E+03  0.17120000000E+03 0.  0.
         13    1    1    2    0    0 -0.21574798344E+02 -0.10401336697E+02  0.13497471349E+03  0.13708334754E+03  0.10566000000E+00 0.  1.
        994    1    1    2    0    0  0.24223748403E+02 -0.12120212801E+02  0.45228915293E+01  0.17338854083E+03  0.17120000000E+03 0.  0.
        998    1    1    2    0    0 -0.26489500591E+01  0.22521549498E+02  0.13605023913E+04  0.13607281116E+04  0.10000000000E+02 0.  1.
</event>
<event>
 5    1  0.1574792E-008  0.3755486E+03  0.7957747E-01  0.3470773E+00
         13   -1    0    0    0    0  0.00000000000E+00  0.00000000000E+00  0.14999999963E+04  0.15000000000E+04  0.10566000000E+00 0.  1.
        994   -1    0    0    0    0 -0.00000000000E+00 -0.00000000000E+00  0.11368683772E-12  0.17120000000E+03  0.17120000000E+03 0.  0.
         13    1    1    2    0    0 -0.14041930522E+02 -0.48244383504E+02  0.23455569408E+03  0.23987722098E+03  0.10566000000E+00 0.  1.
        994    1    1    2    0    0  0.54520683085E+02 -0.94583082643E+01  0.16858021699E+02  0.18070859796E+03  0.17120000000E+03 0.  0.
        998    1    1    2    0    0 -0.40478752563E+02  0.57702691768E+02  0.12485862805E+04  0.12506141811E+04  0.10000000000E+02 0.  1.
</event>
<event>
 5    1  0.1574792E-008  0.3837203E+03  0.7957747E-01  0.3435118E+00
         13   -1    0    0    0    0  0.00000000000E+00  0.00000000000E+00  0.14999999963E+04  0.15000000000E+04  0.10566000000E+00 0. -1.
        994   -1    0    0    0    0 -0.00000000000E+00 -0.00000000000E+00  0.11368683772E-12  0.17120000000E+03  0.17120000000E+03 0.  0.
         13    1    1    2    0    0  0.12568229536E+02 -0.24529082285E+02  0.16082867805E+03  0.16317325491E+03  0.10566000000E+00 0. -1.
        994    1    1    2    0    0  0.57215664860E+01  0.26983827698E+02  0.47835106350E+01  0.17347387485E+03  0.17120000000E+03 0.  0.
        998    1    1    2    0    0 -0.18289796022E+02 -0.24547454139E+01  0.13343878076E+04  0.13345528702E+04  0.10000000000E+02 0. -1.
</event>
<event>
 5    1  0.1574792E-008  0.3833895E+03  0.7957747E-01  0.3436531E+00
         13   -1    0    0    0    0  0.00000000000E+00  0.00000000000E+00  0.14999999963E+04  0.15000000000E+04  0.10566000000E+00 0.  1.
        994   -1    0    0    0    0 -0.00000000000E+00 -0.00000000000E+00  0.11368683772E-12  0.17120000000E+03  0.17120000000E+03 0.  0.
         13    1    1    2    0    0 -0.32657132892E+01  0.10851669219E+02  0.26149117684E+02  0.28499318023E+02  0.10566000000E+00 0.  1.
        994    1    1    2    0    0 -0.53805335338E+01 -0.34237625746E+01  0.25662990131E+01  0.17133796480E+03  0.17120000000E+03 0.  0.
        998    1    1    2    0    0  0.86462468230E+01 -0.74279066444E+01  0.14712845796E+04  0.14713627172E+04  0.10000000000E+02 0.  1.
</event>
<event>
 5    1  0.1574792E-008  0.3830271E+03  0.7957747E-01  0.3438083E+00
         13   -1    0    0    0    0  0.00000000000E+00  0.00000000000E+00  0.14999999963E+04  0.15000000000E+04  0.10566000000E+00 0.  1.
        994   -1    0    0    0    0 -0.00000000000E+00 -0.00000000000E+00  0.11368683772E-12  0.17120000000E+03  0.17120000000E+03 0.  0.
         13    1    1    2    0    0  0.11018849623E+02 -0.87254842171E+01  0.36146432720E+02  0.38783048930E+02  0.10566000000E+00 0.  1.
        994    1    1    2    0    0 -0.99494201192E+01  0.11926560871E+02  0.34116941131E+01  0.17193694621E+03  0.17120000000E+03 0.  0.
        998    1    1    2    0    0 -0.10694295043E+01 -0.32010766541E+01  0.14604418694E+04  0.14604800049E+04  0.10000000000E+02 0.  1.
</event>
<event>
 5    1  0.1574792E-008  0.3819643E+03  0.7957747E-01  0.3442650E+00
         13   -1    0    0    0    0  0.00000000000E+00  0.00000000000E+00  0.14999999963E+04  0.15000000000E+04  0.10566000000E+00 0.  1.
        994   -1    0    0    0    0 -0.00000000000E+00 -0.00000000000E+00  0.11368683772E-12  0.17120000000E+03  0.17120000000E+03 0.  0.
         13    1    1    2    0    0 -0.18039833474E+02 -0.21639785366E+02  0.12877805314E+03  0.13182379920E+03  0.10566000000E+00 0.  1.
        994    1    1    2    0    0 -0.87089303567E+00  0.17424766340E+02  0.41564564119E+01  0.17213685563E+03  0.17120000000E+03 0.  0.
        998    1    1    2    0    0  0.18910726509E+02  0.42150190266E+01  0.13670654867E+04  0.13672393452E+04  0.10000000000E+02 0.  1.
</event>
<event>
 5    1  0.1574792E-008  0.3699497E+03  0.7957747E-01  0.3496122E+00
         13   -1    0    0    0    0  0.00000000000E+00  0.00000000000E+00  0.14999999963E+04  0.15000000000E+04  0.10566000000E+00 0.  1.
        994   -1    0    0    0    0 -0.00000000000E+00 -0.00000000000E+00  0.11368683772E-12  0.17120000000E+03  0.17120000000E+03 0.  0.
         13    1    1    2    0    0 -0.56186734586E+02 -0.29388678351E+02  0.17263620493E+03  0.18391278905E+03  0.10566000000E+00 0.  1.
        994    1    1    2    0    0  0.72035985468E+02  0.38495443506E+02  0.32733148177E+02  0.19248891231E+03  0.17120000000E+03 0.  0.
        998    1    1    2    0    0 -0.15849250882E+02 -0.91067651557E+01  0.12946306432E+04  0.12947982986E+04  0.10000000000E+02 0.  1.
</event>
<event>
 5    1  0.1574792E-008  0.3384377E+03  0.7957747E-01  0.3654838E+00
         13   -1    0    0    0    0  0.00000000000E+00  0.00000000000E+00  0.14999999963E+04  0.15000000000E+04  0.10566000000E+00 0.  1.
        994   -1    0    0    0    0 -0.00000000000E+00 -0.00000000000E+00  0.11368683772E-12  0.17120000000E+03  0.17120000000E+03 0.  0.
         13    1    1    2    0    0 -0.95617337187E+02  0.23875995771E+03  0.72510191117E+03  0.76936453345E+03  0.10566000000E+00 0.  1.
        994    1    1    2    0    0  0.14377676161E+03 -0.24372586109E+03  0.37964019885E+03  0.50349793755E+03  0.17120000000E+03 0.  0.
        998    1    1    2    0    0 -0.48159424423E+02  0.49659033735E+01  0.39525788626E+03  0.39833752900E+03  0.10000000000E+02 0. -1.
</event>
<event>
 5    1  0.1574792E-008  0.3859612E+03  0.7957747E-01  0.3425606E+00
         13   -1    0    0    0    0  0.00000000000E+00  0.00000000000E+00  0.14999999963E+04  0.15000000000E+04  0.10566000000E+00 0. -1.
        994   -1    0    0    0    0 -0.00000000000E+00 -0.00000000000E+00  0.11368683772E-12  0.17120000000E+03  0.17120000000E+03 0.  0.
         13    1    1    2    0    0  0.81719668339E+01  0.81616106735E+01  0.61706324478E+02  0.62777978427E+02  0.10566000000E+00 0. -1.
        994    1    1    2    0    0 -0.73428733615E+01  0.66016527836E+01  0.14733766927E+01  0.17149084654E+03  0.17120000000E+03 0.  0.
        998    1    1    2    0    0 -0.82909347235E+00 -0.14763263457E+02  0.14368202951E+04  0.14369311750E+04  0.10000000000E+02 0. -1.
</event>
<event>
 5    1  0.1574792E-008  0.3746065E+03  0.7957747E-01  0.3474985E+00
         13   -1    0    0    0    0  0.00000000000E+00  0.00000000000E+00  0.14999999963E+04  0.15000000000E+04  0.10566000000E+00 0. -1.
        994   -1    0    0    0    0 -0.00000000000E+00 -0.00000000000E+00  0.11368683772E-12  0.17120000000E+03  0.17120000000E+03 0.  0.
         13    1    1    2    0    0  0.30326340264E+02  0.54265050943E+01  0.64713124492E+02  0.71672404152E+02  0.10566000000E+00 0. -1.
        994    1    1    2    0    0 -0.25988361058E+02 -0.86086959627E+01  0.94362498266E+01  0.17363175795E+03  0.17120000000E+03 0.  0.
        998    1    1    2    0    0 -0.43379792067E+01  0.31821908684E+01  0.14258506220E+04  0.14258958379E+04  0.10000000000E+02 0. -1.
</event>
<event>
 5    1  0.1574792E-008  0.3719967E+03  0.7957747E-01  0.3486765E+00
         13   -1    0    0    0    0  0.00000000000E+00  0.00000000000E+00  0.14999999963E+04  0.15000000000E+04  0.10566000000E+00 0.  1.
        994   -1    0    0    0    0 -0.00000000000E+00 -0.00000000000E+00  0.11368683772E-12  0.17120000000E+03  0.17120000000E+03 0.  0.
         13    1    1    2    0    0  0.38030088072E+02 -0.28289137255E+02  0.14090343645E+03  0.14866187290E+03  0.10566000000E+00 0.  1.
        994    1    1    2    0    0 -0.70217069054E+00  0.28213189242E+02  0.10969140897E+02  0.17385695023E+03  0.17120000000E+03 0.  0.
        998    1    1    2    0    0 -0.37327917381E+02  0.75948013643E-01  0.13481274189E+04  0.13486811769E+04  0.10000000000E+02 0.  1.
</event>
<event>
 5    1  0.1574792E-008  0.3784714E+03  0.7957747E-01  0.3457842E+00
         13   -1    0    0    0    0  0.00000000000E+00  0.00000000000E+00  0.14999999963E+04  0.15000000000E+04  0.10566000000E+00 0.  1.
        994   -1    0    0    0    0 -0.00000000000E+00 -0.00000000000E+00  0.11368683772E-12  0.17120000000E+03  0.17120000000E+03 0.  0.
         13    1    1    2    0    0 -0.39199395575E+02 -0.29381014746E+02  0.28405386439E+03  0.28824719544E+03  0.10566000000E+00 0.  1.
        994    1    1    2    0    0  0.53484956941E+01  0.92180024961E+01  0.52884825376E+01  0.17161289586E+03  0.17120000000E+03 0.  0.
        998    1    1    2    0    0  0.33850899881E+02  0.20163012250E+02  0.12106576493E+04  0.12113399087E+04  0.10000000000E+02 0.  1.
</event>
<event>
 5    1  0.1574792E-008  0.3849191E+03  0.7957747E-01  0.3430016E+00
         13   -1    0    0    0    0  0.00000000000E+00  0.00000000000E+00  0.14999999963E+04  0.15000000000E+04  0.10566000000E+00 0.  1.
        994   -1    0    0    0    0 -0.00000000000E+00 -0.00000000000E+00  0.11368683772E-12  0.17120000000E+03  0.17120000000E+03 0.  0.
         13    1    1    2    0    0  0.15271543061E+02 -0.69698164485E+00  0.74687099830E+02  0.76235686237E+02  0.10566000000E+00 0.  1.
        994    1    1    2    0    0 -0.14419927881E+00  0.49108786525E+01  0.17497301043E+01  0.17127941814E+03  0.17120000000E+03 0.  0.
        998    1    1    2    0    0 -0.15127343782E+02 -0.42138970077E+01  0.14235631663E+04  0.14236848956E+04  0.10000000000E+02 0.  1.
</event>
<event>
 5    1  0.1574792E-008  0.3826759E+03  0.7957747E-01  0.3439589E+00
         13   -1    0    0    0    0  0.00000000000E+00  0.00000000000E+00  0.14999999963E+04  0.15000000000E+04  0.10566000000E+00 0. -1.
        994   -1    0    0    0    0 -0.00000000000E+00 -0.00000000000E+00  0.11368683772E-12  0.17120000000E+03  0.17120000000E+03 0.  0.
         13    1    1    2    0    0  0.17133542091E+02 -0.14232090768E+02  0.85340304384E+02  0.88199146190E+02  0.10566000000E+00 0. -1.
        994    1    1    2    0    0 -0.15051373552E+02  0.12616179694E+02  0.40675580814E+01  0.17237081210E+03  0.17120000000E+03 0.  0.
        998    1    1    2    0    0 -0.20821685392E+01  0.16159110735E+01  0.14105921338E+04  0.14106300417E+04  0.10000000000E+02 0.  0.
</event>
<event>
 5    1  0.1574792E-008  0.3832918E+03  0.7957747E-01  0.3436949E+00
         13   -1    0    0    0    0  0.00000000000E+00  0.00000000000E+00  0.14999999963E+04  0.15000000000E+04  0.10566000000E+00 0. -1.
        994   -1    0    0    0    0 -0.00000000000E+00 -0.00000000000E+00  0.11368683772E-12  0.17120000000E+03  0.17120000000E+03 0.  0.
         13    1    1    2    0    0  0.10833271636E+02  0.64818449008E+01  0.31898300848E+02  0.34305784479E+02  0.10566000000E+00 0. -1.
        994    1    1    2    0    0 -0.20504206457E+01 -0.41249085778E+01  0.25507627415E+01  0.17128095483E+03  0.17120000000E+03 0.  0.
        998    1    1    2    0    0 -0.87828509900E+01 -0.23569363230E+01  0.14655509327E+04  0.14656132607E+04  0.10000000000E+02 0. -1.
</event>
<event>
 5    1  0.1574792E-008  0.3853467E+03  0.7957747E-01  0.3428203E+00
         13   -1    0    0    0    0  0.00000000000E+00  0.00000000000E+00  0.14999999963E+04  0.15000000000E+04  0.10566000000E+00 0.  1.
        994   -1    0    0    0    0 -0.00000000000E+00 -0.00000000000E+00  0.11368683772E-12  0.17120000000E+03  0.17120000000E+03 0.  0.
         13    1    1    2    0    0  0.12610416721E+02 -0.11344474847E+02  0.96555388184E+02  0.98034044448E+02  0.10566000000E+00 0.  1.
        994    1    1    2    0    0 -0.14913626389E+02  0.44180259662E+01  0.22532488854E+01  0.17191990093E+03  0.17120000000E+03 0.  0.
        998    1    1    2    0    0  0.23032096681E+01  0.69264488809E+01  0.14011913592E+04  0.14012460546E+04  0.10000000000E+02 0.  1.
</event>
<event>
 5    1  0.1574792E-008  0.3813273E+03  0.7957747E-01  0.3445399E+00
         13   -1    0    0    0    0  0.00000000000E+00  0.00000000000E+00  0.14999999963E+04  0.15000000000E+04  0.10566000000E+00 0. -1.
        994   -1    0    0    0    0 -0.00000000000E+00 -0.00000000000E+00  0.11368683772E-12  0.17120000000E+03  0.17120000000E+03 0.  0.
         13    1    1    2    0    0 -0.11115424413E+02  0.28693382834E+02  0.16594618782E+03  0.16877503161E+03  0.10566000000E+00 0. -1.
        994    1    1    2    0    0 -0.17239537331E+01  0.88189353549E+01  0.37334284090E+01  0.17147630777E+03  0.17120000000E+03 0.  0.
        998    1    1    2    0    0  0.12839378146E+02 -0.37512318189E+02  0.13303203800E+04  0.13309486606E+04  0.10000000000E+02 0. -1.
</event>
<event>
 5    1  0.1574792E-008  0.3798597E+03  0.7957747E-01  0.3451769E+00
         13   -1    0    0    0    0  0.00000000000E+00  0.00000000000E+00  0.14999999963E+04  0.15000000000E+04  0.10566000000E+00 0. -1.
        994   -1    0    0    0    0 -0.00000000000E+00 -0.00000000000E+00  0.11368683772E-12  0.17120000000E+03  0.17120000000E+03 0.  0.
         13    1    1    2    0    0 -0.35628752971E+02 -0.66907294021E+00  0.17796230202E+03  0.18149503519E+03  0.10566000000E+00 0. -1.
        994    1    1    2    0    0 -0.34959237519E+01 -0.66456029588E+01  0.43925723931E+01  0.17142088617E+03  0.17120000000E+03 0.  0.
        998    1    1    2    0    0  0.39124676723E+02  0.73146758991E+01  0.13176451219E+04  0.13182840786E+04  0.10000000000E+02 0. -1.
</event>
<event>
 5    1  0.1574792E-008  0.3688681E+03  0.7957747E-01  0.3501109E+00
         13   -1    0    0    0    0  0.00000000000E+00  0.00000000000E+00  0.14999999963E+04  0.15000000000E+04  0.10566000000E+00 0.  1.
        994   -1    0    0    0    0 -0.00000000000E+00 -0.00000000000E+00  0.11368683772E-12  0.17120000000E+03  0.17120000000E+03 0.  0.
         13    1    1    2    0    0  0.52635023474E+02  0.10663849441E+02  0.13196465416E+03  0.14247401339E+03  0.10566000000E+00 0.  1.
        994    1    1    2    0    0 -0.50214703367E+02 -0.14278800042E+02  0.19382691007E+02  0.18002924561E+03  0.17120000000E+03 0.  0.
        998    1    1    2    0    0 -0.24203201070E+01  0.36149506015E+01  0.13486526511E+04  0.13486967410E+04  0.10000000000E+02 0.  1.
</event>
<event>
 5    1  0.1574792E-008  0.3829672E+03  0.7957747E-01  0.3438340E+00
         13   -1    0    0    0    0  0.00000000000E+00  0.00000000000E+00  0.14999999963E+04  0.15000000000E+04  0.10566000000E+00 0.  1.
        994   -1    0    0    0    0 -0.00000000000E+00 -0.00000000000E+00  0.11368683772E-12  0.17120000000E+03  0.17120000000E+03 0.  0.
         13    1    1    2    0    0 -0.13825098848E+01  0.14360179525E+02  0.38221252188E+02  0.40853413228E+02  0.10566000000E+00 0.  1.
        994    1    1    2    0    0  0.11790118501E+02 -0.10677576116E+02  0.34808259969E+01  0.17197259571E+03  0.17120000000E+03 0.  0.
        998    1    1    2    0    0 -0.10407608617E+02 -0.36826034091E+01  0.14582979181E+04  0.14583739911E+04  0.10000000000E+02 0.  1.
</event>
<event>
 5    1  0.1574792E-008  0.3782895E+03  0.7957747E-01  0.3458640E+00
         13   -1    0    0    0    0  0.00000000000E+00  0.00000000000E+00  0.14999999963E+04  0.15000000000E+04  0.10566000000E+00 0.  1.
        994   -1    0    0    0    0 -0.00000000000E+00 -0.00000000000E+00  0.11368683772E-12  0.17120000000E+03  0.17120000000E+03 0.  0.
         13    1    1    2    0    0  0.37645334614E+02  0.47322039417E+02  0.33412709963E+03  0.33955482106E+03  0.10566000000E+00 0.  1.
        994    1    1    2    0    0 -0.34886065371E+02 -0.28491007070E+02  0.11850178931E+02  0.17742221333E+03  0.17120000000E+03 0.  0.
        998    1    1    2    0    0 -0.27592692425E+01 -0.18831032347E+02  0.11540227177E+04  0.11542229656E+04  0.10000000000E+02 0.  1.
</event>
<event>
 5    1  0.2578632E-008  0.3860887E+03  0.7957747E-01  0.3425068E+00
         13   -1    0    0    0    0  0.00000000000E+00  0.00000000000E+00  0.14999999963E+04  0.15000000000E+04  0.10566000000E+00 0. -1.
        994   -1    0    0    0    0 -0.00000000000E+00 -0.00000000000E+00  0.11368683772E-12  0.17120000000E+03  0.17120000000E+03 0.  0.
         13    1    1    2    0    0  0.10516752329E+01 -0.10205086599E+02  0.49135105482E+02  0.50194816148E+02  0.10566000000E+00 0. -1.
        994    1    1    2    0    0 -0.16752821080E+01  0.60444077904E+01  0.12195035370E+01  0.17131920098E+03  0.17120000000E+03 0.  0.
        998    1    1    2    0    0  0.62360687505E+00  0.41606788086E+01  0.14496453873E+04  0.14496859829E+04  0.10000000000E+02 0. -1.
</event>
<event>
 5    1  0.1574792E-008  0.3853531E+03  0.7957747E-01  0.3428176E+00
         13   -1    0    0    0    0  0.00000000000E+00  0.00000000000E+00  0.14999999963E+04  0.15000000000E+04  0.10566000000E+00 0.  1.
        994   -1    0    0    0    0 -0.00000000000E+00 -0.00000000000E+00  0.11368683772E-12  0.17120000000E+03  0.17120000000E+03 0.  0.
         13    1    1    2    0    0  0.97028985525E+01 -0.37983364554E+01  0.37502033290E+02  0.38922837320E+02  0.10566000000E+00 0.  1.
        994    1    1    2    0    0 -0.48737761634E+01  0.43503562175E+01  0.15951387437E+01  0.17133202783E+03  0.17120000000E+03 0.  0.
        998    1    1    2    0    0 -0.48291223891E+01 -0.55201976208E+00  0.14609028242E+04  0.14609451348E+04  0.10000000000E+02 0.  1.
</event>
<event>
 5    1  0.1574792E-008  0.3751357E+03  0.7957747E-01  0.3472616E+00
         13   -1    0    0    0    0  0.00000000000E+00  0.00000000000E+00  0.14999999963E+04  0.15000000000E+04  0.10566000000E+00 0.  1.
        994   -1    0    0    0    0 -0.00000000000E+00 -0.00000000000E+00  0.11368683772E-12  0.17120000000E+03  0.17120000000E+03 0.  0.
         13    1    1    2    0    0  0.25438490288E+02 -0.15669776912E+02  0.65299119434E+02  0.71809782478E+02  0.10566000000E+00 0.  1.
        994    1    1    2    0    0 -0.10166622104E+02  0.17898699321E+02  0.80500598680E+01  0.17262087680E+03  0.17120000000E+03 0.  0.
        998    1    1    2    0    0 -0.15271868184E+02 -0.22289224091E+01  0.14266508170E+04  0.14267693407E+04  0.10000000000E+02 0.  1.
</event>
<event>
 5    1  0.1574792E-008  0.3736733E+03  0.7957747E-01  0.3479178E+00
         13   -1    0    0    0    0  0.00000000000E+00  0.00000000000E+00  0.14999999963E+04  0.15000000000E+04  0.10566000000E+00 0.  1.
        994   -1    0    0    0    0 -0.00000000000E+00 -0.00000000000E+00  0.11368683772E-12  0.17120000000E+03  0.17120000000E+03 0.  0.
         13    1    1    2    0    0 -0.10544769808E+03 -0.60339720601E+02  0.61613887604E+03  0.62800256739E+03  0.10566000000E+00 0.  1.
        994    1    1    2    0    0  0.93104025716E+02  0.69199345912E+02  0.54801369036E+02  0.21393816660E+03  0.17120000000E+03 0.  0.
        998    1    1    2    0    0  0.12343672362E+02 -0.88596253113E+01  0.82905975120E+03  0.82925926601E+03  0.10000000000E+02 0.  1.
</event>
<event>
 5    1  0.1574792E-008  0.3828219E+03  0.7957747E-01  0.3438962E+00
         13   -1    0    0    0    0  0.00000000000E+00  0.00000000000E+00  0.14999999963E+04  0.15000000000E+04  0.10566000000E+00 0.  1.
        994   -1    0    0    0    0 -0.00000000000E+00 -0.00000000000E+00  0.11368683772E-12  0.17120000000E+03  0.17120000000E+03 0.  0.
         13    1    1    2    0    0 -0.16501493566E+02  0.17579887686E+01  0.49780853574E+02  0.52474130398E+02  0.10566000000E+00 0.  1.
        994    1    1    2    0    0  0.10562334852E+02 -0.80370896673E+01  0.32990386789E+01  0.17174539698E+03  0.17120000000E+03 0.  0.
        998    1    1    2    0    0  0.59391587135E+01  0.62791008988E+01  0.14469201040E+04  0.14469804726E+04  0.10000000000E+02 0.  1.
</event>
<event>
 5    1  0.1574792E-008  0.3812465E+03  0.7957747E-01  0.3445749E+00
         13   -1    0    0    0    0  0.00000000000E+00  0.00000000000E+00  0.14999999963E+04  0.15000000000E+04  0.10566000000E+00 0. -1.
        994   -1    0    0    0    0 -0.00000000000E+00 -0.00000000000E+00  0.11368683772E-12  0.17120000000E+03  0.17120000000E+03 0.  0.
         13    1    1    2    0    0 -0.32456940583E+02  0.17256378967E+01  0.13471657753E+03  0.13858209929E+03  0.10566000000E+00 0. -1.
        994    1    1    2    0    0  0.35288636109E+02 -0.11393350344E+02  0.80967923498E+01  0.17535704810E+03  0.17120000000E+03 0.  0.
        998    1    1    2    0    0 -0.28316955253E+01  0.96677124469E+01  0.13571866264E+04  0.13572608526E+04  0.10000000000E+02 0. -1.
</event>
<event>
 5    1  0.1574792E-008  0.3801238E+03  0.7957747E-01  0.3450620E+00
         13   -1    0    0    0    0  0.00000000000E+00  0.00000000000E+00  0.14999999963E+04  0.15000000000E+04  0.10566000000E+00 0.  1.
        994   -1    0    0    0    0 -0.00000000000E+00 -0.00000000000E+00  0.11368683772E-12  0.17120000000E+03  0.17120000000E+03 0.  0.
         13    1    1    2    0    0 -0.58917200477E+02  0.59749033056E+01  0.33911750216E+03  0.34424936807E+03  0.10566000000E+00 0.  1.
        994    1    1    2    0    0  0.57167415228E+02 -0.10042518865E+02  0.15411522403E+02  0.18142745264E+03  0.17120000000E+03 0.  0.
        998    1    1    2    0    0  0.17497852488E+01  0.40676155595E+01  0.11454709717E+04  0.11455231793E+04  0.10000000000E+02 0.  1.
</event>
<event>
 5    1  0.1574792E-008  0.3857055E+03  0.7957747E-01  0.3426686E+00
         13   -1    0    0    0    0  0.00000000000E+00  0.00000000000E+00  0.14999999963E+04  0.15000000000E+04  0.10566000000E+00 0. -1.
        994   -1    0    0    0    0 -0.00000000000E+00 -0.00000000000E+00  0.11368683772E-12  0.17120000000E+03  0.17120000000E+03 0.  0.
         13    1    1    2    0    0  0.21968739557E+01 -0.11226089342E+02  0.50641513704E+02  0.51917486566E+02  0.10566000000E+00 0. -1.
        994    1    1    2    0    0 -0.19232262171E+01  0.10093799339E+02  0.16267751226E+01  0.17151580097E+03  0.17120000000E+03 0.  0.
        998    1    1    2    0    0 -0.27364773861E+00  0.11322900026E+01  0.14477317075E+04  0.14477667125E+04  0.10000000000E+02 0.  0.
</event>
<event>
 5    1  0.1574792E-008  0.3704085E+03  0.7957747E-01  0.3494015E+00
         13   -1    0    0    0    0  0.00000000000E+00  0.00000000000E+00  0.14999999963E+04  0.15000000000E+04  0.10566000000E+00 0. -1.
        994   -1    0    0    0    0 -0.00000000000E+00 -0.00000000000E+00  0.11368683772E-12  0.17120000000E+03  0.17120000000E+03 0.  0.
         13    1    1    2    0    0 -0.27043575581E+02  0.12713127966E+02  0.42097430890E+02  0.51625414812E+02  0.10566000000E+00 0. -1.
        994    1    1    2    0    0  0.48640452807E+02 -0.13705162075E+02  0.17925328391E+02  0.17940034146E+03  0.17120000000E+03 0.  0.
        998    1    1    2    0    0 -0.21596877225E+02  0.99203410922E+00  0.14399772370E+04  0.14401742437E+04  0.10000000000E+02 0. -1.
</event>
<event>
 5    1  0.1574792E-008  0.3834631E+03  0.7957747E-01  0.3436217E+00
         13   -1    0    0    0    0  0.00000000000E+00  0.00000000000E+00  0.14999999963E+04  0.15000000000E+04  0.10566000000E+00 0.  1.
        994   -1    0    0    0    0 -0.00000000000E+00 -0.00000000000E+00  0.11368683772E-12  0.17120000000E+03  0.17120000000E+03 0.  0.
         13    1    1    2    0    0  0.16505697818E+02 -0.38486086113E+01  0.67843691777E+02  0.69928731768E+02  0.10566000000E+00 0.  1.
        994    1    1    2    0    0  0.97365696958E+01 -0.15462695130E+02  0.34994697545E+01  0.17220796154E+03  0.17120000000E+03 0.  0.
        998    1    1    2    0    0 -0.26242267514E+02  0.19311303741E+02  0.14286568347E+04  0.14290633067E+04  0.10000000000E+02 0.  1.
</event>
<event>
 5    1  0.1574792E-008  0.3762423E+03  0.7957747E-01  0.3467686E+00
         13   -1    0    0    0    0  0.00000000000E+00  0.00000000000E+00  0.14999999963E+04  0.15000000000E+04  0.10566000000E+00 0. -1.
        994   -1    0    0    0    0 -0.00000000000E+00 -0.00000000000E+00  0.11368683772E-12  0.17120000000E+03  0.17120000000E+03 0.  0.
         13    1    1    2    0    0 -0.21683501608E+02 -0.14028585415E+02  0.52578547301E+02  0.58578923267E+02  0.10566000000E+00 0. -1.
        994    1    1    2    0    0  0.14080633786E+02  0.12227058979E+02  0.72202505102E+01  0.17236396734E+03  0.17120000000E+03 0.  0.
        998    1    1    2    0    0  0.76028678221E+01  0.18015264366E+01  0.14402011985E+04  0.14402571094E+04  0.10000000000E+02 0. -1.
</event>
<event>
 5    1  0.1574792E-008  0.3904295E+03  0.7957747E-01  0.3406966E+00
         13   -1    0    0    0    0  0.00000000000E+00  0.00000000000E+00  0.14999999963E+04  0.15000000000E+04  0.10566000000E+00 0.  1.
        994   -1    0    0    0    0 -0.00000000000E+00 -0.00000000000E+00  0.11368683772E-12  0.17120000000E+03  0.17120000000E+03 0.  0.
         13    1    1    2    0    0 -0.93717428081E+02  0.11462814532E+03  0.33637434199E+03  0.36751908404E+03  0.10566000000E+00 0.  1.
        994    1    1    2    0    0  0.10700997594E+03 -0.11745919939E+03  0.12500207230E+03  0.26492028339E+03  0.17120000000E+03 0.  0.
        998    1    1    2    0    0 -0.13292547864E+02  0.28310540701E+01  0.10386235820E+04  0.10387606326E+04  0.10000000000E+02 0.  1.
</event>
<event>
 5    1  0.1574792E-008  0.3841921E+03  0.7957747E-01  0.3433106E+00
         13   -1    0    0    0    0  0.00000000000E+00  0.00000000000E+00  0.14999999963E+04  0.15000000000E+04  0.10566000000E+00 0.  1.
        994   -1    0    0    0    0 -0.00000000000E+00 -0.00000000000E+00  0.11368683772E-12  0.17120000000E+03  0.17120000000E+03 0.  0.
         13    1    1    2    0    0 -0.13897911039E+02 -0.46721047772E+01  0.50716472022E+02  0.52793486272E+02  0.10566000000E+00 0.  1.
        994    1    1    2    0    0  0.16718953964E+02  0.23869235310E+01  0.29728093743E+01  0.17205667212E+03  0.17120000000E+03 0.  0.
        998    1    1    2    0    0 -0.28210429257E+01  0.22851812462E+01  0.14463107149E+04  0.14463498416E+04  0.10000000000E+02 0.  1.
</event>
<event>
 5    1  0.1574792E-008  0.3792192E+03  0.7957747E-01  0.3454565E+00
         13   -1    0    0    0    0  0.00000000000E+00  0.00000000000E+00  0.14999999963E+04  0.15000000000E+04  0.10566000000E+00 0. -1.
        994   -1    0    0    0    0 -0.00000000000E+00 -0.00000000000E+00  0.11368683772E-12  0.17120000000E+03  0.17120000000E+03 0.  0.
         13    1    1    2    0    0 -0.93709363274E+02 -0.45007769686E+01  0.22266677328E+03  0.24162409823E+03  0.10566000000E+00 0. -1.
        994    1    1    2    0    0  0.10091699944E+03 -0.16417070838E+01  0.53698672360E+02  0.20586384673E+03  0.17120000000E+03 0.  0.
        998    1    1    2    0    0 -0.72076361634E+01  0.61424840524E+01  0.12236345506E+04  0.12237120550E+04  0.10000000000E+02 0. -1.
</event>
<event>
 5    1  0.1574792E-008  0.3782484E+03  0.7957747E-01  0.3458821E+00
         13   -1    0    0    0    0  0.00000000000E+00  0.00000000000E+00  0.14999999963E+04  0.15000000000E+04  0.10566000000E+00 0. -1.
        994   -1    0    0    0    0 -0.00000000000E+00 -0.00000000000E+00  0.11368683772E-12  0.17120000000E+03  0.17120000000E+03 0.  0.
         13    1    1    2    0    0  0.41191316963E+02 -0.24123839833E+02  0.21813100072E+03  0.22329314562E+03  0.10566000000E+00 0. -1.
        994    1    1    2    0    0 -0.34752957487E+02  0.44172287765E+01  0.91576413692E+01  0.17498737772E+03  0.17120000000E+03 0.  0.
        998    1    1    2    0    0 -0.64383594759E+01  0.19706611056E+02  0.12727113542E+04  0.12729194767E+04  0.10000000000E+02 0. -1.
</event>
<event>
 5    1  0.1574792E-008  0.3771187E+03  0.7957747E-01  0.3463801E+00
         13   -1    0    0    0    0  0.00000000000E+00  0.00000000000E+00  0.14999999963E+04  0.15000000000E+04  0.10566000000E+00 0. -1.
        994   -1    0    0    0    0 -0.00000000000E+00 -0.00000000000E+00  0.11368683772E-12  0.17120000000E+03  0.17120000000E+03 0.  0.
         13    1    1    2    0    0 -0.57107398491E+02  0.55287855232E+02  0.36184848103E+03  0.37047582416E+03  0.10566000000E+00 0. -1.
        994    1    1    2    0    0  0.64819802507E+02 -0.72218733078E+02  0.38069265295E+02  0.20043917073E+03  0.17120000000E+03 0.  0.
        998    1    1    2    0    0 -0.77124040160E+01  0.16930877846E+02  0.11000822500E+04  0.11002850051E+04  0.10000000000E+02 0. -1.
</event>
<event>
 5    1  0.1574792E-008  0.3807445E+03  0.7957747E-01  0.3447923E+00
         13   -1    0    0    0    0  0.00000000000E+00  0.00000000000E+00  0.14999999963E+04  0.15000000000E+04  0.10566000000E+00 0.  1.
        994   -1    0    0    0    0 -0.00000000000E+00 -0.00000000000E+00  0.11368683772E-12  0.17120000000E+03  0.17120000000E+03 0.  0.
         13    1    1    2    0    0  0.81340752463E+02 -0.12560791366E+02  0.17645671600E+03  0.19470766620E+03  0.10566000000E+00 0.  1.
        994    1    1    2    0    0 -0.76687641273E+02  0.22398700129E+02  0.40312810695E+02  0.19317675532E+03  0.17120000000E+03 0.  0.
        998    1    1    2    0    0 -0.46531111899E+01 -0.98379087632E+01  0.12832304696E+04  0.12833155785E+04  0.10000000000E+02 0.  1.
</event>
<event>
 5    1  0.1574792E-008  0.3850944E+03  0.7957747E-01  0.3429272E+00
         13   -1    0    0    0    0  0.00000000000E+00  0.00000000000E+00  0.14999999963E+04  0.15000000000E+04  0.10566000000E+00 0. -1.
        994   -1    0    0    0    0 -0.00000000000E+00 -0.00000000000E+00  0.11368683772E-12  0.17120000000E+03  0.17120000000E+03 0.  0.
         13    1    1    2    0    0 -0.12644740054E+02 -0.99116962277E+01  0.85320245549E+02  0.86819851634E+02  0.10566000000E+00 0. -1.
        994    1    1    2    0    0 -0.18819883248E+00  0.75628913958E+01  0.17714436982E+01  0.17137622577E+03  0.17120000000E+03 0.  0.
        998    1    1    2    0    0  0.12832938887E+02  0.23488048318E+01  0.14129083070E+04  0.14130039226E+04  0.10000000000E+02 0. -1.
</event>
<event>
 5    1  0.1574792E-008  0.3832167E+03  0.7957747E-01  0.3437271E+00
         13   -1    0    0    0    0  0.00000000000E+00  0.00000000000E+00  0.14999999963E+04  0.15000000000E+04  0.10566000000E+00 0.  1.
        994   -1    0    0    0    0 -0.00000000000E+00 -0.00000000000E+00  0.11368683772E-12  0.17120000000E+03  0.17120000000E+03 0.  0.
         13    1    1    2    0    0 -0.61284458267E+01 -0.15043804011E+02  0.51094880918E+02  0.53615034341E+02  0.10566000000E+00 0.  1.
        994    1    1    2    0    0  0.56257458610E+01  0.11889279231E+02  0.30905980858E+01  0.17173233759E+03  0.17120000000E+03 0.  0.
        998    1    1    2    0    0  0.50269996576E+00  0.31545247805E+01  0.14458145173E+04  0.14458526281E+04  0.10000000000E+02 0.  1.
</event>
<event>
 5    1  0.1574792E-008  0.3823440E+03  0.7957747E-01  0.3441015E+00
         13   -1    0    0    0    0  0.00000000000E+00  0.00000000000E+00  0.14999999963E+04  0.15000000000E+04  0.10566000000E+00 0. -1.
        994   -1    0    0    0    0 -0.00000000000E+00 -0.00000000000E+00  0.11368683772E-12  0.17120000000E+03  0.17120000000E+03 0.  0.
         13    1    1    2    0    0  0.26336021967E+02 -0.22158891268E+02  0.19283181819E+03  0.19587936029E+03  0.10566000000E+00 0. -1.
        994    1    1    2    0    0 -0.11446223234E+02  0.24181848049E+02  0.53325600943E+01  0.17335989732E+03  0.17120000000E+03 0.  0.
        998    1    1    2    0    0 -0.14889798732E+02 -0.20229567812E+01  0.13018356180E+04  0.13019607424E+04  0.10000000000E+02 0. -1.
</event>
<event>
 5    1  0.1574792E-008  0.3800927E+03  0.7957747E-01  0.3450755E+00
         13   -1    0    0    0    0  0.00000000000E+00  0.00000000000E+00  0.14999999963E+04  0.15000000000E+04  0.10566000000E+00 0.  1.
        994   -1    0    0    0    0 -0.00000000000E+00 -0.00000000000E+00  0.11368683772E-12  0.17120000000E+03  0.17120000000E+03 0.  0.
         13    1    1    2    0    0  0.31267275301E+02  0.66152787479E+01  0.12052224480E+03  0.12468771821E+03  0.10566000000E+00 0.  1.
        994    1    1    2    0    0 -0.23990617170E+02 -0.45253118591E+00  0.60128601613E+01  0.17297788582E+03  0.17120000000E+03 0.  0.
        998    1    1    2    0    0 -0.72766581314E+01 -0.61627475620E+01  0.13734648913E+04  0.13735343960E+04  0.10000000000E+02 0.  1.
</event>
<event>
 5    1  0.1574792E-008  0.3787989E+03  0.7957747E-01  0.3456405E+00
         13   -1    0    0    0    0  0.00000000000E+00  0.00000000000E+00  0.14999999963E+04  0.15000000000E+04  0.10566000000E+00 0.  1.
        994   -1    0    0    0    0 -0.00000000000E+00 -0.00000000000E+00  0.11368683772E-12  0.17120000000E+03  0.17120000000E+03 0.  0.
         13    1    1    2    0    0  0.19038384137E+03 -0.20720417003E+02  0.10131265650E+04  0.10310677915E+04  0.10566000000E+00 0.  1.
        994    1    1    2    0    0 -0.18840781236E+03  0.16099366489E+02  0.13598266547E+03  0.28906300121E+03  0.17120000000E+03 0.  0.
        998    1    1    2    0    0 -0.19760290134E+01  0.46210505138E+01  0.35089076578E+03  0.35106920729E+03  0.10000000000E+02 0.  0.
</event>
<event>
 5    1  0.1574792E-008  0.3836220E+03  0.7957747E-01  0.3435538E+00
         13   -1    0    0    0    0  0.00000000000E+00  0.00000000000E+00  0.14999999963E+04  0.15000000000E+04  0.10566000000E+00 0.  1.
        994   -1    0    0    0    0 -0.00000000000E+00 -0.00000000000E+00  0.11368683772E-12  0.17120000000E+03  0.17120000000E+03 0.  0.
         13    1    1    2    0    0  0.13380400583E+02  0.39632256859E+01  0.39083518181E+02  0.41500299217E+02  0.10566000000E+00 0.  1.
        994    1    1    2    0    0 -0.23433181454E+02 -0.18205395119E+01  0.41428825012E+01  0.17285552300E+03  0.17120000000E+03 0.  0.
        998    1    1    2    0    0  0.10052780871E+02 -0.21426861740E+01  0.14567735956E+04  0.14568441778E+04  0.10000000000E+02 0.  1.
</event>
<event>
 5    1  0.1574792E-008  0.3824618E+03  0.7957747E-01  0.3440509E+00
         13   -1    0    0    0    0  0.00000000000E+00  0.00000000000E+00  0.14999999963E+04  0.15000000000E+04  0.10566000000E+00 0. -1.
        994   -1    0    0    0    0 -0.00000000000E+00 -0.00000000000E+00  0.11368683772E-12  0.17120000000E+03  0.17120000000E+03 0.  0.
         13    1    1    2    0    0  0.11495633208E+02 -0.59367779569E+01  0.27652070432E+02  0.30529380579E+02  0.10566000000E+00 0. -1.
        994    1    1    2    0    0 -0.10710660002E+02  0.33310136512E+01  0.33128987795E+01  0.17159903609E+03  0.17120000000E+03 0.  0.
        998    1    1    2    0    0 -0.78497320617E+00  0.26057643057E+01  0.14690350271E+04  0.14690715833E+04  0.10000000000E+02 0. -1.
</event>
<event>
 5    1  0.1574792E-008  0.3832562E+03  0.7957747E-01  0.3437102E+00
         13   -1    0    0    0    0  0.00000000000E+00  0.00000000000E+00  0.14999999963E+04  0.15000000000E+04  0.10566000000E+00 0. -1.
        994   -1    0    0    0    0 -0.00000000000E+00 -0.00000000000E+00  0.11368683772E-12  0.17120000000E+03  0.17120000000E+03 0.  0.
         13    1    1    2    0    0  0.20470715316E+02 -0.17254153687E+01  0.84718344520E+02  0.87173598675E+02  0.10566000000E+00 0. -1.
        994    1    1    2    0    0 -0.11106877550E+02  0.63875999034E+00  0.29078491912E+01  0.17158574046E+03  0.17120000000E+03 0.  0.
        998    1    1    2    0    0 -0.93638377657E+01  0.10866553784E+01  0.14123738026E+04  0.14124406609E+04  0.10000000000E+02 0.  0.
</event>
<event>
 5    1  0.1574792E-008  0.3708581E+03  0.7957747E-01  0.3491956E+00
         13   -1    0    0    0    0  0.00000000000E+00  0.00000000000E+00  0.14999999963E+04  0.15000000000E+04  0.10566000000E+00 0.  1.
        994   -1    0    0    0    0 -0.00000000000E+00 -0.00000000000E+00  0.11368683772E-12  0.17120000000E+03  0.17120000000E+03 0.  0.
         13    1    1    2    0    0  0.37835847681E+00  0.10639125528E+02  0.22735987924E+01  0.10886439392E+02  0.10566000000E+00 0.  1.
        994    1    1    2    0    0 -0.27675584909E+00 -0.12268970444E+02  0.93405794203E+01  0.17189325366E+03  0.17120000000E+03 0.  0.
        998    1    1    2    0    0 -0.10160262772E+00  0.16298449165E+01  0.14883858181E+04  0.14884203069E+04  0.10000000000E+02 0.  1.
</event>
<event>
 5    1  0.1574792E-008  0.3787504E+03  0.7957747E-01  0.3456618E+00
         13   -1    0    0    0    0  0.00000000000E+00  0.00000000000E+00  0.14999999963E+04  0.15000000000E+04  0.10566000000E+00 0. -1.
        994   -1    0    0    0    0 -0.00000000000E+00 -0.00000000000E+00  0.11368683772E-12  0.17120000000E+03  0.17120000000E+03 0.  0.
         13    1    1    2    0    0  0.14204323997E+02  0.10608779892E+02  0.31044763092E+02  0.35750489654E+02  0.10566000000E+00 0. -1.
        994    1    1    2    0    0 -0.10118789831E+02 -0.68588900836E+01  0.52670621171E+01  0.17171667428E+03  0.17120000000E+03 0.  0.
        998    1    1    2    0    0 -0.40855341665E+01 -0.37498898087E+01  0.14636881711E+04  0.14637328361E+04  0.10000000000E+02 0. -1.
</event>
<event>
 5    1  0.1574792E-008  0.3788682E+03  0.7957747E-01  0.3456102E+00
         13   -1    0    0    0    0  0.00000000000E+00  0.00000000000E+00  0.14999999963E+04  0.15000000000E+04  0.10566000000E+00 0. -1.
        994   -1    0    0    0    0 -0.00000000000E+00 -0.00000000000E+00  0.11368683772E-12  0.17120000000E+03  0.17120000000E+03 0.  0.
         13    1    1    2    0    0  0.10977901704E+02 -0.60222774865E+01  0.14658881237E+02  0.19278903369E+02  0.10566000000E+00 0. -1.
        994    1    1    2    0    0 -0.83996030715E+01  0.76424993444E+00  0.49443057032E+01  0.17147893039E+03  0.17120000000E+03 0.  0.
        998    1    1    2    0    0 -0.25782986327E+01  0.52580275521E+01  0.14803968093E+04  0.14804421662E+04  0.10000000000E+02 0. -1.
</event>
<event>
 5    1  0.1574792E-008  0.3123847E+03  0.7957747E-01  0.3811387E+00
         13   -1    0    0    0    0  0.00000000000E+00  0.00000000000E+00  0.14999999963E+04  0.15000000000E+04  0.10566000000E+00 0. -1.
        994   -1    0    0    0    0 -0.00000000000E+00 -0.00000000000E+00  0.11368683772E-12  0.17120000000E+03  0.17120000000E+03 0.  0.
         13    1    1    2    0    0  0.13098568205E+03 -0.83367069943E+02  0.85467040434E+03  0.86865921308E+03  0.10566000000E+00 0. -1.
        994    1    1    2    0    0 -0.11194215135E+03  0.17038785961E+02  0.61091613895E+02  0.21415646328E+03  0.17120000000E+03 0.  0.
        998    1    1    2    0    0 -0.19043530701E+02  0.66328283982E+02  0.58423797805E+03  0.58838432364E+03  0.10000000000E+02 0. -1.
</event>
<event>
 5    1  0.1574792E-008  0.3852584E+03  0.7957747E-01  0.3428577E+00
         13   -1    0    0    0    0  0.00000000000E+00  0.00000000000E+00  0.14999999963E+04  0.15000000000E+04  0.10566000000E+00 0.  1.
        994   -1    0    0    0    0 -0.00000000000E+00 -0.00000000000E+00  0.11368683772E-12  0.17120000000E+03  0.17120000000E+03 0.  0.
         13    1    1    2    0    0 -0.15392230708E+02 -0.63360067655E+01  0.90873332350E+02  0.92385277206E+02  0.10566000000E+00 0.  1.
        994    1    1    2    0    0  0.15472743010E+02 -0.31104569590E+01  0.23207784540E+01  0.17194157941E+03  0.17120000000E+03 0.  0.
        998    1    1    2    0    0 -0.80512301857E-01  0.94464637245E+01  0.14068058855E+04  0.14068731434E+04  0.10000000000E+02 0.  1.
</event>
<event>
 5    1  0.1574792E-008  0.3750934E+03  0.7957747E-01  0.3472805E+00
         13   -1    0    0    0    0  0.00000000000E+00  0.00000000000E+00  0.14999999963E+04  0.15000000000E+04  0.10566000000E+00 0.  1.
        994   -1    0    0    0    0 -0.00000000000E+00 -0.00000000000E+00  0.11368683772E-12  0.17120000000E+03  0.17120000000E+03 0.  0.
         13    1    1    2    0    0 -0.38426790641E+01 -0.38585752602E+02  0.10516537814E+03  0.11208654875E+03  0.10566000000E+00 0.  1.
        994    1    1    2    0    0  0.95056161010E+01  0.35438647943E+02  0.11219231231E+02  0.17544676017E+03  0.17120000000E+03 0.  0.
        998    1    1    2    0    0 -0.56629370369E+01  0.31471046590E+01  0.13836153869E+04  0.13836666911E+04  0.10000000000E+02 0.  1.
</event>
<event>
 5    1  0.1574792E-008  0.3783404E+03  0.7957747E-01  0.3458417E+00
         13   -1    0    0    0    0  0.00000000000E+00  0.00000000000E+00  0.14999999963E+04  0.15000000000E+04  0.10566000000E+00 0.  1.
        994   -1    0    0    0    0 -0.00000000000E+00 -0.00000000000E+00  0.11368683772E-12  0.17120000000E+03  0.17120000000E+03 0.  0.
         13    1    1    2    0    0  0.55885338321E+02 -0.10805590661E+02  0.27225065541E+03  0.27813730847E+03  0.10566000000E+00 0.  1.
        994    1    1    2    0    0 -0.49030646957E+02  0.42086017237E+02  0.19138454350E+02  0.18398629738E+03  0.17120000000E+03 0.  0.
        998    1    1    2    0    0 -0.68546913637E+01 -0.31280426575E+02  0.12086108865E+04  0.12090763941E+04  0.10000000000E+02 0.  1.
</event>
<event>
 5    1  0.1574792E-008  0.3846253E+03  0.7957747E-01  0.3431263E+00
         13   -1    0    0    0    0  0.00000000000E+00  0.00000000000E+00  0.14999999963E+04  0.15000000000E+04  0.10566000000E+00 0. -1.
        994   -1    0    0    0    0 -0.00000000000E+00 -0.00000000000E+00  0.11368683772E-12  0.17120000000E+03  0.17120000000E+03 0.  0.
         13    1    1    2    0    0  0.11734756767E+02 -0.12074366251E+02  0.78699712764E+02  0.80480747946E+02  0.10566000000E+00 0. -1.
        994    1    1    2    0    0 -0.98904832491E+01  0.34507486491E+01  0.21776584230E+01  0.17153399524E+03  0.17120000000E+03 0.  0.
        998    1    1    2    0    0 -0.18442735176E+01  0.86236176024E+01  0.14191226251E+04  0.14191852568E+04  0.10000000000E+02 0. -1.
</event>
<event>
 5    1  0.1574792E-008  0.3835787E+03  0.7957747E-01  0.3435723E+00
         13   -1    0    0    0    0  0.00000000000E+00  0.00000000000E+00  0.14999999963E+04  0.15000000000E+04  0.10566000000E+00 0.  1.
        994   -1    0    0    0    0 -0.00000000000E+00 -0.00000000000E+00  0.11368683772E-12  0.17120000000E+03  0.17120000000E+03 0.  0.
         13    1    1    2    0    0  0.17093457995E+02 -0.12195977863E+02  0.10495503351E+03  0.10703503354E+03  0.10566000000E+00 0.  1.
        994    1    1    2    0    0 -0.50482663259E-02 -0.53403401572E+01  0.24316651667E+01  0.17130053197E+03  0.17120000000E+03 0.  0.
        998    1    1    2    0    0 -0.17088409729E+02  0.17536318021E+02  0.13926132976E+04  0.13928644345E+04  0.10000000000E+02 0.  1.
</event>
<event>
 5    1  0.1574792E-008  0.3857511E+03  0.7957747E-01  0.3426493E+00
         13   -1    0    0    0    0  0.00000000000E+00  0.00000000000E+00  0.14999999963E+04  0.15000000000E+04  0.10566000000E+00 0.  1.
        994   -1    0    0    0    0 -0.00000000000E+00 -0.00000000000E+00  0.11368683772E-12  0.17120000000E+03  0.17120000000E+03 0.  0.
         13    1    1    2    0    0  0.41811191085E+01 -0.11004495801E+02  0.54668831262E+02  0.55922025718E+02  0.10566000000E+00 0.  1.
        994    1    1    2    0    0 -0.39630065655E+01  0.94906719574E+01  0.16047944954E+01  0.17151616146E+03  0.17120000000E+03 0.  0.
        998    1    1    2    0    0 -0.21811254300E+00  0.15138238433E+01  0.14437263705E+04  0.14437618128E+04  0.10000000000E+02 0.  0.
</event>
<event>
 5    1  0.1574792E-008  0.3830347E+03  0.7957747E-01  0.3438050E+00
         13   -1    0    0    0    0  0.00000000000E+00  0.00000000000E+00  0.14999999963E+04  0.15000000000E+04  0.10566000000E+00 0. -1.
        994   -1    0    0    0    0 -0.00000000000E+00 -0.00000000000E+00  0.11368683772E-12  0.17120000000E+03  0.17120000000E+03 0.  0.
         13    1    1    2    0    0  0.10050371067E+02 -0.41025249491E+01  0.23394406607E+02  0.25790503952E+02  0.10566000000E+00 0. -1.
        994    1    1    2    0    0  0.15486636451E+02 -0.48274806285E+01  0.34804371553E+01  0.17200201720E+03  0.17120000000E+03 0.  0.
        998    1    1    2    0    0 -0.25537007518E+02  0.89300055776E+01  0.14731251525E+04  0.14734074788E+04  0.10000000000E+02 0. -1.
</event>
<event>
 5    1  0.1574792E-008  0.3712178E+03  0.7957747E-01  0.3490313E+00
         13   -1    0    0    0    0  0.00000000000E+00  0.00000000000E+00  0.14999999963E+04  0.15000000000E+04  0.10566000000E+00 0. -1.
        994   -1    0    0    0    0 -0.00000000000E+00 -0.00000000000E+00  0.11368683772E-12  0.17120000000E+03  0.17120000000E+03 0.  0.
         13    1    1    2    0    0 -0.20717199410E+01  0.19404664166E+02  0.18297818057E+02  0.26751716293E+02  0.10566000000E+00 0. -1.
        994    1    1    2    0    0 -0.22734981837E+01 -0.15241689619E+02  0.94519996715E+01  0.17215184633E+03  0.17120000000E+03 0.  0.
        998    1    1    2    0    0  0.43452181247E+01 -0.41629745479E+01  0.14722501786E+04  0.14722964374E+04  0.10000000000E+02 0. -1.
</event>
<event>
 5    1  0.1574792E-008  0.3848084E+03  0.7957747E-01  0.3430485E+00
         13   -1    0    0    0    0  0.00000000000E+00  0.00000000000E+00  0.14999999963E+04  0.15000000000E+04  0.10566000000E+00 0. -1.
        994   -1    0    0    0    0 -0.00000000000E+00 -0.00000000000E+00  0.11368683772E-12  0.17120000000E+03  0.17120000000E+03 0.  0.
         13    1    1    2    0    0 -0.17344574233E+02  0.21796100428E+03  0.12208454835E+04  0.12402707524E+04  0.10566000000E+00 0. -1.
        994    1    1    2    0    0  0.10513181565E+02 -0.21997615304E+03  0.18214518691E+03  0.33314613011E+03  0.17120000000E+03 0.  0.
        998    1    1    2    0    0  0.68313926673E+01  0.20151487660E+01  0.97009325910E+02  0.97783117478E+02  0.10000000000E+02 0.  1.
</event>
<event>
 5    1  0.1574792E-008  0.3766648E+03  0.7957747E-01  0.3465810E+00
         13   -1    0    0    0    0  0.00000000000E+00  0.00000000000E+00  0.14999999963E+04  0.15000000000E+04  0.10566000000E+00 0. -1.
        994   -1    0    0    0    0 -0.00000000000E+00 -0.00000000000E+00  0.11368683772E-12  0.17120000000E+03  0.17120000000E+03 0.  0.
         13    1    1    2    0    0  0.18604363343E+02 -0.10908859622E+02  0.37671577582E+02  0.43408345687E+02  0.10566000000E+00 0. -1.
        994    1    1    2    0    0 -0.18785362180E+02 -0.50077652786E+01  0.71049421139E+01  0.17244676787E+03  0.17120000000E+03 0.  0.
        998    1    1    2    0    0  0.18099883672E+00  0.15916624901E+02  0.14552234766E+04  0.14553448864E+04  0.10000000000E+02 0. -1.
</event>
<event>
 5    1  0.1574792E-008  0.3790352E+03  0.7957747E-01  0.3455370E+00
         13   -1    0    0    0    0  0.00000000000E+00  0.00000000000E+00  0.14999999963E+04  0.15000000000E+04  0.10566000000E+00 0. -1.
        994   -1    0    0    0    0 -0.00000000000E+00 -0.00000000000E+00  0.11368683772E-12  0.17120000000E+03  0.17120000000E+03 0.  0.
         13    1    1    2    0    0 -0.20593031442E+02  0.14712090929E+02  0.76674881532E+02  0.80743836826E+02  0.10566000000E+00 0. -1.
        994    1    1    2    0    0 -0.15590472793E+02  0.21368421773E-02  0.54364923273E+01  0.17199435542E+03  0.17120000000E+03 0.  0.
        998    1    1    2    0    0  0.36183504236E+02 -0.14714227771E+02  0.14178886224E+04  0.14184618078E+04  0.10000000000E+02 0. -1.
</event>
<event>
 5    1  0.1574792E-008  0.3844753E+03  0.7957747E-01  0.3431901E+00
         13   -1    0    0    0    0  0.00000000000E+00  0.00000000000E+00  0.14999999963E+04  0.15000000000E+04  0.10566000000E+00 0.  1.
        994   -1    0    0    0    0 -0.00000000000E+00 -0.00000000000E+00  0.11368683772E-12  0.17120000000E+03  0.17120000000E+03 0.  0.
         13    1    1    2    0    0  0.12493922691E+02 -0.14605359645E+02  0.11214506015E+03  0.11378022814E+03  0.10566000000E+00 0.  1.
        994    1    1    2    0    0  0.71563556886E+01 -0.96680377575E+00  0.20626793044E+01  0.17136464858E+03  0.17120000000E+03 0.  0.
        998    1    1    2    0    0 -0.19650278380E+02  0.15572163421E+02  0.13857922568E+04  0.13860551233E+04  0.10000000000E+02 0.  1.
</event>
<event>
 5    1  0.1574792E-008  0.3808171E+03  0.7957747E-01  0.3447608E+00
         13   -1    0    0    0    0  0.00000000000E+00  0.00000000000E+00  0.14999999963E+04  0.15000000000E+04  0.10566000000E+00 0. -1.
        994   -1    0    0    0    0 -0.00000000000E+00 -0.00000000000E+00  0.11368683772E-12  0.17120000000E+03  0.17120000000E+03 0.  0.
         13    1    1    2    0    0  0.17388010120E+02  0.10064432596E+02  0.51933180999E+02  0.55683948784E+02  0.10566000000E+00 0. -1.
        994    1    1    2    0    0 -0.19024611456E+02 -0.24280389308E+01  0.49485255772E+01  0.17234198304E+03  0.17120000000E+03 0.  0.
        998    1    1    2    0    0  0.16366013354E+01 -0.76363936650E+01  0.14431182897E+04  0.14431740682E+04  0.10000000000E+02 0. -1.
</event>
<event>
 5    1  0.1574792E-008  0.3818941E+03  0.7957747E-01  0.3442952E+00
         13   -1    0    0    0    0  0.00000000000E+00  0.00000000000E+00  0.14999999963E+04  0.15000000000E+04  0.10566000000E+00 0.  1.
        994   -1    0    0    0    0 -0.00000000000E+00 -0.00000000000E+00  0.11368683772E-12  0.17120000000E+03  0.17120000000E+03 0.  0.
         13    1    1    2    0    0  0.15407036371E+02 -0.19329587351E+02  0.87395824045E+02  0.90824286077E+02  0.10566000000E+00 0.  1.
        994    1    1    2    0    0 -0.25751426612E+02  0.19171733225E+02  0.66117078421E+01  0.17430962684E+03  0.17120000000E+03 0.  0.
        998    1    1    2    0    0  0.10344390241E+02  0.15785412621E+00  0.14059924644E+04  0.14060660871E+04  0.10000000000E+02 0.  1.
</event>
<event>
 5    1  0.1574792E-008  0.3808678E+03  0.7957747E-01  0.3447388E+00
         13   -1    0    0    0    0  0.00000000000E+00  0.00000000000E+00  0.14999999963E+04  0.15000000000E+04  0.10566000000E+00 0.  1.
        994   -1    0    0    0    0 -0.00000000000E+00 -0.00000000000E+00  0.11368683772E-12  0.17120000000E+03  0.17120000000E+03 0.  0.
         13    1    1    2    0    0  0.91712214854E+01  0.32514182702E+02  0.11575720234E+03  0.12058617018E+03  0.10566000000E+00 0.  1.
        994    1    1    2    0    0  0.25333411603E+02 -0.81768616020E+02  0.28520998226E+02  0.19352202885E+03  0.17120000000E+03 0.  0.
        998    1    1    2    0    0 -0.34504633088E+02  0.49254433318E+02  0.13557217957E+04  0.13570918010E+04  0.10000000000E+02 0.  1.
</event>
<event>
 5    1  0.1574792E-008  0.3834348E+03  0.7957747E-01  0.3436337E+00
         13   -1    0    0    0    0  0.00000000000E+00  0.00000000000E+00  0.14999999963E+04  0.15000000000E+04  0.10566000000E+00 0.  1.
        994   -1    0    0    0    0 -0.00000000000E+00 -0.00000000000E+00  0.11368683772E-12  0.17120000000E+03  0.17120000000E+03 0.  0.
         13    1    1    2    0    0 -0.11997780892E+02 -0.23857118284E+01  0.30309389832E+02  0.32684991101E+02  0.10566000000E+00 0.  1.
        994    1    1    2    0    0  0.76851607899E+01  0.35168481769E+01  0.26453541652E+01  0.17142890018E+03  0.17120000000E+03 0.  0.
        998    1    1    2    0    0  0.43126201016E+01 -0.11311363485E+01  0.14670452523E+04  0.14670861087E+04  0.10000000000E+02 0.  1.
</event>
<event>
 5    1  0.1574792E-008  0.3725293E+03  0.7957747E-01  0.3484347E+00
         13   -1    0    0    0    0  0.00000000000E+00  0.00000000000E+00  0.14999999963E+04  0.15000000000E+04  0.10566000000E+00 0.  1.
        994   -1    0    0    0    0 -0.00000000000E+00 -0.00000000000E+00  0.11368683772E-12  0.17120000000E+03  0.17120000000E+03 0.  0.
         13    1    1    2    0    0 -0.57897598486E+02 -0.72213292430E+01  0.18878091030E+03  0.19759180845E+03  0.10566000000E+00 0.  1.
        994    1    1    2    0    0  0.56144640965E+02 -0.21799160373E+01  0.18852972864E+02  0.18116800857E+03  0.17120000000E+03 0.  0.
        998    1    1    2    0    0  0.17529575213E+01  0.94012452803E+01  0.12923661131E+04  0.12924401830E+04  0.10000000000E+02 0.  1.
</event>
<event>
 5    1  0.1574792E-008  0.3775453E+03  0.7957747E-01  0.3461917E+00
         13   -1    0    0    0    0  0.00000000000E+00  0.00000000000E+00  0.14999999963E+04  0.15000000000E+04  0.10566000000E+00 0.  1.
        994   -1    0    0    0    0 -0.00000000000E+00 -0.00000000000E+00  0.11368683772E-12  0.17120000000E+03  0.17120000000E+03 0.  0.
         13    1    1    2    0    0 -0.45466981125E+02 -0.88353194828E+02  0.44851674909E+03  0.45939179225E+03  0.10566000000E+00 0.  1.
        994    1    1    2    0    0  0.45159106127E+02 -0.43657045464E+01  0.22414418888E+02  0.17852240872E+03  0.17120000000E+03 0.  0.
        998    1    1    2    0    0  0.30787499777E+00  0.92718899375E+02  0.10290688283E+04  0.10332857990E+04  0.10000000000E+02 0.  1.
</event>
<event>
 5    1  0.1574792E-008  0.3847180E+03  0.7957747E-01  0.3430869E+00
         13   -1    0    0    0    0  0.00000000000E+00  0.00000000000E+00  0.14999999963E+04  0.15000000000E+04  0.10566000000E+00 0.  1.
        994   -1    0    0    0    0 -0.00000000000E+00 -0.00000000000E+00  0.11368683772E-12  0.17120000000E+03  0.17120000000E+03 0.  0.
         13    1    1    2    0    0 -0.21413871029E+02 -0.61472532944E+01  0.12722266151E+03  0.12915865964E+03  0.10566000000E+00 0.  1.
        994    1    1    2    0    0  0.24636714953E+02  0.55533687836E+01  0.38724958298E+01  0.17309605383E+03  0.17120000000E+03 0.  0.
        998    1    1    2    0    0 -0.32228439233E+01  0.59388451086E+00  0.13689048389E+04  0.13689452865E+04  0.10000000000E+02 0.  1.
</event>
<event>
 5    1  0.1574792E-008  0.3850858E+03  0.7957747E-01  0.3429308E+00
         13   -1    0    0    0    0  0.00000000000E+00  0.00000000000E+00  0.14999999963E+04  0.15000000000E+04  0.10566000000E+00 0. -1.
        994   -1    0    0    0    0 -0.00000000000E+00 -0.00000000000E+00  0.11368683772E-12  0.17120000000E+03  0.17120000000E+03 0.  0.
         13    1    1    2    0    0 -0.75606099437E+01 -0.13516518188E+02  0.78682250602E+02  0.80192062017E+02  0.10566000000E+00 0. -1.
        994    1    1    2    0    0  0.43738316960E+01  0.27788133603E+01  0.16758142223E+01  0.17128660356E+03  0.17120000000E+03 0.  0.
        998    1    1    2    0    0  0.31867782477E+01  0.10737704827E+02  0.14196419315E+04  0.14197213344E+04  0.10000000000E+02 0. -1.
</event>
<event>
 5    1  0.1574792E-008  0.3704287E+03  0.7957747E-01  0.3493923E+00
         13   -1    0    0    0    0  0.00000000000E+00  0.00000000000E+00  0.14999999963E+04  0.15000000000E+04  0.10566000000E+00 0. -1.
        994   -1    0    0    0    0 -0.00000000000E+00 -0.00000000000E+00  0.11368683772E-12  0.17120000000E+03  0.17120000000E+03 0.  0.
         13    1    1    2    0    0 -0.50073733091E+01  0.12728187461E+02  0.32419762103E+01  0.14057102023E+02  0.10566000000E+00 0. -1.
        994    1    1    2    0    0  0.29500566662E+01 -0.11300965470E+02  0.11643410355E+02  0.17199251048E+03  0.17120000000E+03 0.  0.
        998    1    1    2    0    0  0.20573166429E+01 -0.14272219911E+01  0.14851146097E+04  0.14851503875E+04  0.10000000000E+02 0. -1.
</event>
<event>
 5    1  0.1574792E-008  0.3927619E+03  0.7957747E-01  0.3397406E+00
         13   -1    0    0    0    0  0.00000000000E+00  0.00000000000E+00  0.14999999963E+04  0.15000000000E+04  0.10566000000E+00 0.  1.
        994   -1    0    0    0    0 -0.00000000000E+00 -0.00000000000E+00  0.11368683772E-12  0.17120000000E+03  0.17120000000E+03 0.  0.
         13    1    1    2    0    0  0.33329708203E+02 -0.51833045142E+02  0.68745152296E+02  0.92322484509E+02  0.10566000000E+00 0.  1.
        994    1    1    2    0    0 -0.32832450407E+02  0.57076396947E+02  0.40203571995E+02  0.18778032935E+03  0.17120000000E+03 0.  0.
        998    1    1    2    0    0 -0.49725779628E+00 -0.52433518053E+01  0.13910512720E+04  0.13910971861E+04  0.10000000000E+02 0.  1.
</event>
<event>
 5    1  0.1574792E-008  0.3758082E+03  0.7957747E-01  0.3469616E+00
         13   -1    0    0    0    0  0.00000000000E+00  0.00000000000E+00  0.14999999963E+04  0.15000000000E+04  0.10566000000E+00 0. -1.
        994   -1    0    0    0    0 -0.00000000000E+00 -0.00000000000E+00  0.11368683772E-12  0.17120000000E+03  0.17120000000E+03 0.  0.
         13    1    1    2    0    0 -0.39051047066E+02  0.72182036653E+02  0.34922399811E+03  0.35873756802E+03  0.10566000000E+00 0. -1.
        994    1    1    2    0    0  0.45162054623E+02 -0.89275162372E+02  0.40989834171E+02  0.20248277038E+03  0.17120000000E+03 0.  0.
        998    1    1    2    0    0 -0.61110075568E+01  0.17093125719E+02  0.11097861640E+04  0.11099796616E+04  0.10000000000E+02 0. -1.
</event>
<event>
 5    1  0.1574792E-008  0.3733416E+03  0.7957747E-01  0.3480673E+00
         13   -1    0    0    0    0  0.00000000000E+00  0.00000000000E+00  0.14999999963E+04  0.15000000000E+04  0.10566000000E+00 0. -1.
        994   -1    0    0    0    0 -0.00000000000E+00 -0.00000000000E+00  0.11368683772E-12  0.17120000000E+03  0.17120000000E+03 0.  0.
         13    1    1    2    0    0 -0.14000155953E+02 -0.12112688848E+00  0.92959765006E+01  0.16806111435E+02  0.10566000000E+00 0. -1.
        994    1    1    2    0    0  0.24841386693E+02 -0.59425896791E+01  0.97661899212E+01  0.17337020312E+03  0.17120000000E+03 0.  0.
        998    1    1    2    0    0 -0.10841230740E+02  0.60637165676E+01  0.14809378299E+04  0.14810236854E+04  0.10000000000E+02 0. -1.
</event>
<event>
 5    1  0.1574792E-008  0.3694748E+03  0.7957747E-01  0.3498308E+00
         13   -1    0    0    0    0  0.00000000000E+00  0.00000000000E+00  0.14999999963E+04  0.15000000000E+04  0.10566000000E+00 0.  1.
        994   -1    0    0    0    0 -0.00000000000E+00 -0.00000000000E+00  0.11368683772E-12  0.17120000000E+03  0.17120000000E+03 0.  0.
         13    1    1    2    0    0 -0.84419700530E+01  0.84991866528E+02  0.35055406475E+03  0.36080887976E+03  0.10566000000E+00 0.  1.
        994    1    1    2    0    0  0.36184123198E+02 -0.58169101285E+02  0.25980383732E+02  0.18621856904E+03  0.17120000000E+03 0.  0.
        998    1    1    2    0    0 -0.27742153145E+02 -0.26822765243E+02  0.11234655478E+04  0.11241725512E+04  0.10000000000E+02 0.  1.
</event>
<event>
 5    1  0.1574792E-008  0.3754486E+03  0.7957747E-01  0.3471219E+00
         13   -1    0    0    0    0  0.00000000000E+00  0.00000000000E+00  0.14999999963E+04  0.15000000000E+04  0.10566000000E+00 0.  1.
        994   -1    0    0    0    0 -0.00000000000E+00 -0.00000000000E+00  0.11368683772E-12  0.17120000000E+03  0.17120000000E+03 0.  0.
         13    1    1    2    0    0 -0.10074570143E+03  0.22296375271E+02  0.37842960640E+03  0.39224457023E+03  0.10566000000E+00 0.  1.
        994    1    1    2    0    0  0.62411353970E+02 -0.16500189908E+01  0.27875530756E+02  0.18434854185E+03  0.17120000000E+03 0.  0.
        998    1    1    2    0    0  0.38334347460E+02 -0.20646356280E+02  0.10936948591E+04  0.10946068879E+04  0.10000000000E+02 0.  1.
</event>
<event>
 5    1  0.1574792E-008  0.3836194E+03  0.7957747E-01  0.3435549E+00
         13   -1    0    0    0    0  0.00000000000E+00  0.00000000000E+00  0.14999999963E+04  0.15000000000E+04  0.10566000000E+00 0. -1.
        994   -1    0    0    0    0 -0.00000000000E+00 -0.00000000000E+00  0.11368683772E-12  0.17120000000E+03  0.17120000000E+03 0.  0.
         13    1    1    2    0    0 -0.44940341889E+01  0.11397885200E+02  0.31925398511E+02  0.34195765300E+02  0.10566000000E+00 0. -1.
        994    1    1    2    0    0  0.43118034276E+01 -0.52883972375E+01  0.24709639471E+01  0.17135374071E+03  0.17120000000E+03 0.  0.
        998    1    1    2    0    0  0.18223076129E+00 -0.61094879627E+01  0.14656036338E+04  0.14656504940E+04  0.10000000000E+02 0. -1.
</event>
<event>
 5    1  0.1574792E-008  0.3839072E+03  0.7957747E-01  0.3434320E+00
         13   -1    0    0    0    0  0.00000000000E+00  0.00000000000E+00  0.14999999963E+04  0.15000000000E+04  0.10566000000E+00 0. -1.
        994   -1    0    0    0    0 -0.00000000000E+00 -0.00000000000E+00  0.11368683772E-12  0.17120000000E+03  0.17120000000E+03 0.  0.
         13    1    1    2    0    0  0.10822351976E+02  0.10049255414E+01  0.28042504352E+02  0.30075345252E+02  0.10566000000E+00 0. -1.
        994    1    1    2    0    0  0.73661561139E+01 -0.22484366186E+01  0.23694623583E+01  0.17138952732E+03  0.17120000000E+03 0.  0.
        998    1    1    2    0    0 -0.18188508090E+02  0.12435110772E+01  0.14695880296E+04  0.14697351274E+04  0.10000000000E+02 0. -1.
</event>
<event>
 5    1  0.1574792E-008  0.3770068E+03  0.7957747E-01  0.3464296E+00
         13   -1    0    0    0    0  0.00000000000E+00  0.00000000000E+00  0.14999999963E+04  0.15000000000E+04  0.10566000000E+00 0.  1.
        994   -1    0    0    0    0 -0.00000000000E+00 -0.00000000000E+00  0.11368683772E-12  0.17120000000E+03  0.17120000000E+03 0.  0.
         13    1    1    2    0    0  0.31056006046E+02  0.40684346976E+02  0.25425956565E+03  0.25936003834E+03  0.10566000000E+00 0.  1.
        994    1    1    2    0    0 -0.14747093556E+02 -0.87264073969E+01  0.66437844754E+01  0.17218364274E+03  0.17120000000E+03 0.  0.
        998    1    1    2    0    0 -0.16308912490E+02 -0.31957939579E+02  0.12390966462E+04  0.12396563189E+04  0.10000000000E+02 0.  1.
</event>
<event>
 5    1  0.1574792E-008  0.3807020E+03  0.7957747E-01  0.3448107E+00
         13   -1    0    0    0    0  0.00000000000E+00  0.00000000000E+00  0.14999999963E+04  0.15000000000E+04  0.10566000000E+00 0.  1.
        994   -1    0    0    0    0 -0.00000000000E+00 -0.00000000000E+00  0.11368683772E-12  0.17120000000E+03  0.17120000000E+03 0.  0.
         13    1    1    2    0    0 -0.18361291237E+02  0.12482580487E+01  0.43097824156E+02  0.46862872032E+02  0.10566000000E+00 0.  1.
        994    1    1    2    0    0  0.14397629079E+02  0.33770520877E+01  0.45089167699E+01  0.17189667401E+03  0.17120000000E+03 0.  0.
        998    1    1    2    0    0  0.39636621581E+01 -0.46253101364E+01  0.14523932554E+04  0.14524404540E+04  0.10000000000E+02 0.  1.
</event>
<event>
 5    1  0.1574792E-008  0.3712299E+03  0.7957747E-01  0.3490257E+00
         13   -1    0    0    0    0  0.00000000000E+00  0.00000000000E+00  0.14999999963E+04  0.15000000000E+04  0.10566000000E+00 0. -1.
        994   -1    0    0    0    0 -0.00000000000E+00 -0.00000000000E+00  0.11368683772E-12  0.17120000000E+03  0.17120000000E+03 0.  0.
         13    1    1    2    0    0 -0.46744115471E+02 -0.22219895762E+02  0.15103653985E+03  0.15965833405E+03  0.10566000000E+00 0. -1.
        994    1    1    2    0    0  0.17927471425E+02  0.39865650180E+02  0.15234938316E+02  0.17734770267E+03  0.17120000000E+03 0.  0.
        998    1    1    2    0    0  0.28816644046E+02 -0.17645754417E+02  0.13337285181E+04  0.13341939633E+04  0.10000000000E+02 0. -1.
</event>
<event>
 5    1  0.1574792E-008  0.3684721E+03  0.7957747E-01  0.3502943E+00
         13   -1    0    0    0    0  0.00000000000E+00  0.00000000000E+00  0.14999999963E+04  0.15000000000E+04  0.10566000000E+00 0. -1.
        994   -1    0    0    0    0 -0.00000000000E+00 -0.00000000000E+00  0.11368683772E-12  0.17120000000E+03  0.17120000000E+03 0.  0.
         13    1    1    2    0    0 -0.30626001571E+02 -0.29965402830E+02  0.88370450775E+02  0.98210106777E+02  0.10566000000E+00 0. -1.
        994    1    1    2    0    0  0.34806713767E+02 -0.17295583724E+00  0.14292893786E+02  0.17528623463E+03  0.17120000000E+03 0.  0.
        998    1    1    2    0    0 -0.41807121959E+01  0.30138358667E+02  0.13973366517E+04  0.13977036586E+04  0.10000000000E+02 0. -1.
</event>
<event>
 5    1  0.1574792E-008  0.4210666E+03  0.7957747E-01  0.3289772E+00
         13   -1    0    0    0    0  0.00000000000E+00  0.00000000000E+00  0.14999999963E+04  0.15000000000E+04  0.10566000000E+00 0.  1.
        994   -1    0    0    0    0 -0.00000000000E+00 -0.00000000000E+00  0.11368683772E-12  0.17120000000E+03  0.17120000000E+03 0.  0.
         13    1    1    2    0    0  0.48373799196E+02  0.14560071396E+03  0.21788112743E+03  0.26648037303E+03  0.10566000000E+00 0.  1.
        994    1    1    2    0    0 -0.17536004980E+02 -0.16204442097E+03  0.16797849799E+03  0.28998641628E+03  0.17120000000E+03 0.  0.
        998    1    1    2    0    0 -0.30837794215E+02  0.16443707006E+02  0.11141403709E+04  0.11147332107E+04  0.10000000000E+02 0.  0.
</event>
<event>
 5    1  0.1574792E-008  0.3723446E+03  0.7957747E-01  0.3485185E+00
         13   -1    0    0    0    0  0.00000000000E+00  0.00000000000E+00  0.14999999963E+04  0.15000000000E+04  0.10566000000E+00 0.  1.
        994   -1    0    0    0    0 -0.00000000000E+00 -0.00000000000E+00  0.11368683772E-12  0.17120000000E+03  0.17120000000E+03 0.  0.
         13    1    1    2    0    0  0.21931989035E+01 -0.34720251168E+02  0.47120500699E+02  0.58571825247E+02  0.10566000000E+00 0.  1.
        994    1    1    2    0    0 -0.50314302524E+00  0.63785215611E+01  0.12328315724E+02  0.17176252810E+03  0.17120000000E+03 0.  0.
        998    1    1    2    0    0 -0.16900558782E+01  0.28341729607E+02  0.14405511799E+04  0.14408656467E+04  0.10000000000E+02 0.  1.
</event>
<event>
 5    1  0.1574792E-008  0.3761898E+03  0.7957747E-01  0.3467919E+00
         13   -1    0    0    0    0  0.00000000000E+00  0.00000000000E+00  0.14999999963E+04  0.15000000000E+04  0.10566000000E+00 0.  1.
        994   -1    0    0    0    0 -0.00000000000E+00 -0.00000000000E+00  0.11368683772E-12  0.17120000000E+03  0.17120000000E+03 0.  0.
         13    1    1    2    0    0  0.61010514394E+02 -0.13190146669E+03  0.75546810515E+03  0.76931940626E+03  0.10566000000E+00 0.  1.
        994    1    1    2    0    0 -0.43380972872E+02  0.14430416106E+03  0.87278523053E+02  0.24419783024E+03  0.17120000000E+03 0.  0.
        998    1    1    2    0    0 -0.17629541522E+02 -0.12402694369E+02  0.65725336807E+03  0.65768276350E+03  0.10000000000E+02 0. -1.
</event>
<event>
 5    1  0.1574792E-008  0.3703396E+03  0.7957747E-01  0.3494332E+00
         13   -1    0    0    0    0  0.00000000000E+00  0.00000000000E+00  0.14999999963E+04  0.15000000000E+04  0.10566000000E+00 0.  1.
        994   -1    0    0    0    0 -0.00000000000E+00 -0.00000000000E+00  0.11368683772E-12  0.17120000000E+03  0.17120000000E+03 0.  0.
         13    1    1    2    0    0  0.26844533355E+02  0.13236848581E+01  0.26838988481E+02  0.37983201279E+02  0.10566000000E+00 0.  1.
        994    1    1    2    0    0 -0.35695394825E+02  0.16151159400E+02  0.16510512201E+02  0.17640027827E+03  0.17120000000E+03 0.  0.
        998    1    1    2    0    0  0.88508614699E+01 -0.17474844258E+02  0.14566504956E+04  0.14568165204E+04  0.10000000000E+02 0.  1.
</event>
<event>
 5    1  0.1574792E-008  0.3787098E+03  0.7957747E-01  0.3456796E+00
         13   -1    0    0    0    0  0.00000000000E+00  0.00000000000E+00  0.14999999963E+04  0.15000000000E+04  0.10566000000E+00 0.  1.
        994   -1    0    0    0    0 -0.00000000000E+00 -0.00000000000E+00  0.11368683772E-12  0.17120000000E+03  0.17120000000E+03 0.  0.
         13    1    1    2    0    0 -0.17316015771E+02  0.22822619389E+02  0.86146945431E+02  0.90785592078E+02  0.10566000000E+00 0.  1.
        994    1    1    2    0    0  0.28670982743E+01 -0.13160552078E+02  0.53951496670E+01  0.17181375970E+03  0.17120000000E+03 0.  0.
        998    1    1    2    0    0  0.14448917496E+02 -0.96620673107E+01  0.14084579012E+04  0.14086006482E+04  0.10000000000E+02 0.  1.
</event>
<event>
 5    1  0.1574792E-008  0.3772830E+03  0.7957747E-01  0.3463075E+00
         13   -1    0    0    0    0  0.00000000000E+00  0.00000000000E+00  0.14999999963E+04  0.15000000000E+04  0.10566000000E+00 0.  1.
        994   -1    0    0    0    0 -0.00000000000E+00 -0.00000000000E+00  0.11368683772E-12  0.17120000000E+03  0.17120000000E+03 0.  0.
         13    1    1    2    0    0  0.56537964248E+01  0.31215394810E+02  0.28016907207E+02  0.42324042112E+02  0.10566000000E+00 0.  1.
        994    1    1    2    0    0 -0.21897534845E+02 -0.17808988432E+02  0.17706202072E+02  0.17441218906E+03  0.17120000000E+03 0.  0.
        998    1    1    2    0    0  0.16243738420E+02 -0.13406406378E+02  0.14542768870E+04  0.14544637688E+04  0.10000000000E+02 0.  1.
</event>
<event>
 5    1  0.1574792E-008  0.3836471E+03  0.7957747E-01  0.3435430E+00
         13   -1    0    0    0    0  0.00000000000E+00  0.00000000000E+00  0.14999999963E+04  0.15000000000E+04  0.10566000000E+00 0.  1.
        994   -1    0    0    0    0 -0.00000000000E+00 -0.00000000000E+00  0.11368683772E-12  0.17120000000E+03  0.17120000000E+03 0.  0.
         13    1    1    2    0    0 -0.77104616054E+01 -0.94413345042E+01  0.30849808631E+02  0.33170949217E+02  0.10566000000E+00 0.  1.
        994    1    1    2    0    0  0.10897024808E+02  0.95223612181E+01  0.29953494891E+01  0.17183664519E+03  0.17120000000E+03 0.  0.
        998    1    1    2    0    0 -0.31865632027E+01 -0.81026713971E-01  0.14661548382E+04  0.14661924056E+04  0.10000000000E+02 0.  1.
</event>
<event>
 5    1  0.1574792E-008  0.3847654E+03  0.7957747E-01  0.3430668E+00
         13   -1    0    0    0    0  0.00000000000E+00  0.00000000000E+00  0.14999999963E+04  0.15000000000E+04  0.10566000000E+00 0.  1.
        994   -1    0    0    0    0 -0.00000000000E+00 -0.00000000000E+00  0.11368683772E-12  0.17120000000E+03  0.17120000000E+03 0.  0.
         13    1    1    2    0    0 -0.15865452993E+02  0.17099376769E+01  0.73455669190E+02  0.75169029432E+02  0.10566000000E+00 0.  1.
        994    1    1    2    0    0  0.75283034659E+01 -0.17840651748E+02  0.29816998658E+01  0.17231742437E+03  0.17120000000E+03 0.  0.
        998    1    1    2    0    0  0.83371495274E+01  0.16130714071E+02  0.14235626272E+04  0.14237135462E+04  0.10000000000E+02 0.  1.
</event>
<event>
 5    1  0.1574792E-008  0.3762151E+03  0.7957747E-01  0.3467806E+00
         13   -1    0    0    0    0  0.00000000000E+00  0.00000000000E+00  0.14999999963E+04  0.15000000000E+04  0.10566000000E+00 0. -1.
        994   -1    0    0    0    0 -0.00000000000E+00 -0.00000000000E+00  0.11368683772E-12  0.17120000000E+03  0.17120000000E+03 0.  0.
         13    1    1    2    0    0 -0.97214835975E+01  0.26650398765E+02  0.22019063282E+02  0.35911019333E+02  0.10566000000E+00 0. -1.
        994    1    1    2    0    0  0.11064904016E+02 -0.24130787672E+02  0.16786266290E+02  0.17405730594E+03  0.17120000000E+03 0.  0.
        998    1    1    2    0    0 -0.13434204186E+01 -0.25196110928E+01  0.14611946667E+04  0.14612316747E+04  0.10000000000E+02 0. -1.
</event>
<event>
 5    1  0.1574792E-008  0.3793943E+03  0.7957747E-01  0.3453800E+00
         13   -1    0    0    0    0  0.00000000000E+00  0.00000000000E+00  0.14999999963E+04  0.15000000000E+04  0.10566000000E+00 0. -1.
        994   -1    0    0    0    0 -0.00000000000E+00 -0.00000000000E+00  0.11368683772E-12  0.17120000000E+03  0.17120000000E+03 0.  0.
         13    1    1    2    0    0 -0.70023401416E+01 -0.24283884526E+02  0.64399775682E+02  0.69181515501E+02  0.10566000000E+00 0. -1.
        994    1    1    2    0    0  0.18396035245E+02  0.33956650607E+02  0.94512871086E+01  0.17575618072E+03  0.17120000000E+03 0.  0.
        998    1    1    2    0    0 -0.11393695104E+02 -0.96727660819E+01  0.14261489335E+04  0.14262623038E+04  0.10000000000E+02 0. -1.
</event>
<event>
 5    1  0.1574792E-008  0.3825511E+03  0.7957747E-01  0.3440125E+00
         13   -1    0    0    0    0  0.00000000000E+00  0.00000000000E+00  0.14999999963E+04  0.15000000000E+04  0.10566000000E+00 0. -1.
        994   -1    0    0    0    0 -0.00000000000E+00 -0.00000000000E+00  0.11368683772E-12  0.17120000000E+03  0.17120000000E+03 0.  0.
         13    1    1    2    0    0  0.84272364237E+01  0.16313576868E+02  0.59849217065E+02  0.62602644124E+02  0.10566000000E+00 0. -1.
        994    1    1    2    0    0 -0.11085975252E+02 -0.12698353924E+01  0.32637258193E+01  0.17159429838E+03  0.17120000000E+03 0.  0.
        998    1    1    2    0    0  0.26587388286E+01 -0.15043741476E+02  0.14368870534E+04  0.14370030575E+04  0.10000000000E+02 0. -1.
</event>
<event>
 5    1  0.1574792E-008  0.3858382E+03  0.7957747E-01  0.3426125E+00
         13   -1    0    0    0    0  0.00000000000E+00  0.00000000000E+00  0.14999999963E+04  0.15000000000E+04  0.10566000000E+00 0.  1.
        994   -1    0    0    0    0 -0.00000000000E+00 -0.00000000000E+00  0.11368683772E-12  0.17120000000E+03  0.17120000000E+03 0.  0.
         13    1    1    2    0    0  0.84880287316E+01  0.62198728721E+01  0.45168758311E+02  0.46378457732E+02  0.10566000000E+00 0.  1.
        994    1    1    2    0    0 -0.80300188711E+01 -0.60397539496E+01  0.15457554049E+01  0.17150157198E+03  0.17120000000E+03 0.  0.
        998    1    1    2    0    0 -0.45800986052E+00 -0.18011892243E+00  0.14532854826E+04  0.14533199703E+04  0.10000000000E+02 0.  1.
</event>
<event>
 5    1  0.1574792E-008  0.3803220E+03  0.7957747E-01  0.3449758E+00
         13   -1    0    0    0    0  0.00000000000E+00  0.00000000000E+00  0.14999999963E+04  0.15000000000E+04  0.10566000000E+00 0.  1.
        994   -1    0    0    0    0 -0.00000000000E+00 -0.00000000000E+00  0.11368683772E-12  0.17120000000E+03  0.17120000000E+03 0.  0.
         13    1    1    2    0    0  0.73807233308E+01 -0.10706237558E+02  0.18995314730E+02  0.23020246421E+02  0.10566000000E+00 0.  1.
        994    1    1    2    0    0 -0.11047252956E+02  0.18542503409E+02  0.55279284319E+01  0.17264374945E+03  0.17120000000E+03 0.  0.
        998    1    1    2    0    0  0.36665296256E+01 -0.78362658515E+01  0.14754767531E+04  0.14755360041E+04  0.10000000000E+02 0.  1.
</event>
<event>
 5    1  0.1574792E-008  0.3824354E+03  0.7957747E-01  0.3440622E+00
         13   -1    0    0    0    0  0.00000000000E+00  0.00000000000E+00  0.14999999963E+04  0.15000000000E+04  0.10566000000E+00 0. -1.
        994   -1    0    0    0    0 -0.00000000000E+00 -0.00000000000E+00  0.11368683772E-12  0.17120000000E+03  0.17120000000E+03 0.  0.
         13    1    1    2    0    0  0.66045705637E+01 -0.13656129058E+02  0.37825861718E+02  0.40754351816E+02  0.10566000000E+00 0. -1.
        994    1    1    2    0    0 -0.39463314438E+01  0.14997320813E+02  0.37067068834E+01  0.17194089926E+03  0.17120000000E+03 0.  0.
        998    1    1    2    0    0 -0.26582391199E+01 -0.13411917552E+01  0.14584674277E+04  0.14585047489E+04  0.10000000000E+02 0. -1.
</event>
<event>
 5    1  0.1574792E-008  0.3840525E+03  0.7957747E-01  0.3433701E+00
         13   -1    0    0    0    0  0.00000000000E+00  0.00000000000E+00  0.14999999963E+04  0.15000000000E+04  0.10566000000E+00 0.  1.
        994   -1    0    0    0    0 -0.00000000000E+00 -0.00000000000E+00  0.11368683772E-12  0.17120000000E+03  0.17120000000E+03 0.  0.
         13    1    1    2    0    0 -0.18180863613E+02 -0.11438547194E+01  0.77693505249E+02  0.79800652424E+02  0.10566000000E+00 0.  1.
        994    1    1    2    0    0  0.13589787083E+02 -0.69491205370E+00  0.27123306583E+01  0.17176135175E+03  0.17120000000E+03 0.  0.
        998    1    1    2    0    0  0.45910765306E+01  0.18387667731E+01  0.14195941604E+04  0.14196379958E+04  0.10000000000E+02 0.  1.
</event>
<event>
 5    1  0.1574792E-008  0.3837209E+03  0.7957747E-01  0.3435115E+00
         13   -1    0    0    0    0  0.00000000000E+00  0.00000000000E+00  0.14999999963E+04  0.15000000000E+04  0.10566000000E+00 0. -1.
        994   -1    0    0    0    0 -0.00000000000E+00 -0.00000000000E+00  0.11368683772E-12  0.17120000000E+03  0.17120000000E+03 0.  0.
         13    1    1    2    0    0 -0.52584548878E+01  0.11506086736E+02  0.33446921951E+02  0.35759601952E+02  0.10566000000E+00 0. -1.
        994    1    1    2    0    0  0.94804336655E+01 -0.14869172853E+02  0.32941370598E+01  0.17213733547E+03  0.17120000000E+03 0.  0.
        998    1    1    2    0    0 -0.42219787776E+01  0.33630861170E+01  0.14632589373E+04  0.14633030626E+04  0.10000000000E+02 0. -1.
</event>
<event>
 5    1  0.1574792E-008  0.3842334E+03  0.7957747E-01  0.3432930E+00
         13   -1    0    0    0    0  0.00000000000E+00  0.00000000000E+00  0.14999999963E+04  0.15000000000E+04  0.10566000000E+00 0. -1.
        994   -1    0    0    0    0 -0.00000000000E+00 -0.00000000000E+00  0.11368683772E-12  0.17120000000E+03  0.17120000000E+03 0.  0.
         13    1    1    2    0    0  0.12887082349E+02 -0.25516119790E+02  0.16838633983E+03  0.17079554990E+03  0.10566000000E+00 0. -1.
        994    1    1    2    0    0 -0.20160115998E+02  0.31929938444E+02  0.67265465053E+01  0.17544411553E+03  0.17120000000E+03 0.  0.
        998    1    1    2    0    0  0.72730336493E+01 -0.64138186547E+01  0.13248871099E+04  0.13249603346E+04  0.10000000000E+02 0. -1.
</event>
<event>
 5    1  0.1574792E-008  0.3746214E+03  0.7957747E-01  0.3474918E+00
         13   -1    0    0    0    0  0.00000000000E+00  0.00000000000E+00  0.14999999963E+04  0.15000000000E+04  0.10566000000E+00 0.  1.
        994   -1    0    0    0    0 -0.00000000000E+00 -0.00000000000E+00  0.11368683772E-12  0.17120000000E+03  0.17120000000E+03 0.  0.
         13    1    1    2    0    0 -0.12978842278E+02  0.22526110191E+02  0.45332661189E+02  0.52258370829E+02  0.10566000000E+00 0.  1.
        994    1    1    2    0    0  0.15552526513E+02 -0.20337312287E+02  0.91074662299E+01  0.17334322396E+03  0.17120000000E+03 0.  0.
        998    1    1    2    0    0 -0.25736842349E+01 -0.21887979042E+01  0.14455598689E+04  0.14455984052E+04  0.10000000000E+02 0.  1.
</event>
<event>
 5    1  0.1574792E-008  0.3690643E+03  0.7957747E-01  0.3500202E+00
         13   -1    0    0    0    0  0.00000000000E+00  0.00000000000E+00  0.14999999963E+04  0.15000000000E+04  0.10566000000E+00 0. -1.
        994   -1    0    0    0    0 -0.00000000000E+00 -0.00000000000E+00  0.11368683772E-12  0.17120000000E+03  0.17120000000E+03 0.  0.
         13    1    1    2    0    0 -0.22656322298E+02 -0.23137103811E+01  0.22199323344E+02  0.31803825505E+02  0.10566000000E+00 0. -1.
        994    1    1    2    0    0  0.21284014874E+02 -0.74627059993E+00  0.11333907596E+02  0.17289147946E+03  0.17120000000E+03 0.  0.
        998    1    1    2    0    0  0.13723074243E+01  0.30599809810E+01  0.14664667653E+04  0.14665046950E+04  0.10000000000E+02 0. -1.
</event>
<event>
 5    1  0.1574792E-008  0.3719836E+03  0.7957747E-01  0.3486824E+00
         13   -1    0    0    0    0  0.00000000000E+00  0.00000000000E+00  0.14999999963E+04  0.15000000000E+04  0.10566000000E+00 0.  1.
        994   -1    0    0    0    0 -0.00000000000E+00 -0.00000000000E+00  0.11368683772E-12  0.17120000000E+03  0.17120000000E+03 0.  0.
         13    1    1    2    0    0  0.13155659764E+03  0.40427400795E+02  0.46319327160E+03  0.48320754458E+03  0.10566000000E+00 0.  1.
        994    1    1    2    0    0 -0.17295577195E+03 -0.72046310009E+02  0.14045265898E+03  0.29007026606E+03  0.17120000000E+03 0.  0.
        998    1    1    2    0    0  0.41399174311E+02  0.31618909214E+02  0.89635406570E+03  0.89792218936E+03  0.10000000000E+02 0. -1.
</event>
<event>
 5    1  0.1574792E-008  0.3841051E+03  0.7957747E-01  0.3433476E+00
         13   -1    0    0    0    0  0.00000000000E+00  0.00000000000E+00  0.14999999963E+04  0.15000000000E+04  0.10566000000E+00 0. -1.
        994   -1    0    0    0    0 -0.00000000000E+00 -0.00000000000E+00  0.11368683772E-12  0.17120000000E+03  0.17120000000E+03 0.  0.
         13    1    1    2    0    0 -0.17915818132E+02  0.32959302702E+00  0.74901743822E+02  0.77015372248E+02  0.10566000000E+00 0. -1.
        994    1    1    2    0    0  0.16004943686E+02 -0.82005020802E+01  0.31424717636E+01  0.17217061766E+03  0.17120000000E+03 0.  0.
        998    1    1    2    0    0  0.19108744459E+01  0.78709090532E+01  0.14219557807E+04  0.14220140101E+04  0.10000000000E+02 0. -1.
</event>
<event>
 5    1  0.1574792E-008  0.3806761E+03  0.7957747E-01  0.3448220E+00
         13   -1    0    0    0    0  0.00000000000E+00  0.00000000000E+00  0.14999999963E+04  0.15000000000E+04  0.10566000000E+00 0.  1.
        994   -1    0    0    0    0 -0.00000000000E+00 -0.00000000000E+00  0.11368683772E-12  0.17120000000E+03  0.17120000000E+03 0.  0.
         13    1    1    2    0    0 -0.14199718267E+02  0.54758980436E+00  0.25435037653E+02  0.29135616656E+02  0.10566000000E+00 0.  1.
        994    1    1    2    0    0  0.55299948855E+01  0.12309282770E+01  0.38992903712E+01  0.17133808827E+03  0.17120000000E+03 0.  0.
        998    1    1    2    0    0  0.86697233817E+01 -0.17785180814E+01  0.14706656683E+04  0.14707262951E+04  0.10000000000E+02 0.  1.
</event>
<event>
 5    1  0.1574792E-008  0.3793718E+03  0.7957747E-01  0.3453899E+00
         13   -1    0    0    0    0  0.00000000000E+00  0.00000000000E+00  0.14999999963E+04  0.15000000000E+04  0.10566000000E+00 0.  1.
        994   -1    0    0    0    0 -0.00000000000E+00 -0.00000000000E+00  0.11368683772E-12  0.17120000000E+03  0.17120000000E+03 0.  0.
         13    1    1    2    0    0 -0.20376351469E+02  0.20278845283E+02  0.95403160712E+02  0.99640360814E+02  0.10566000000E+00 0.  1.
        994    1    1    2    0    0  0.22738898602E+02  0.10136772886E+02  0.65296709808E+01  0.17312391018E+03  0.17120000000E+03 0.  0.
        998    1    1    2    0    0 -0.23625471333E+01 -0.30415618169E+02  0.13980671646E+04  0.13984357290E+04  0.10000000000E+02 0.  1.
</event>
<event>
 5    1  0.1574792E-008  0.3815049E+03  0.7957747E-01  0.3444632E+00
         13   -1    0    0    0    0  0.00000000000E+00  0.00000000000E+00  0.14999999963E+04  0.15000000000E+04  0.10566000000E+00 0. -1.
        994   -1    0    0    0    0 -0.00000000000E+00 -0.00000000000E+00  0.11368683772E-12  0.17120000000E+03  0.17120000000E+03 0.  0.
         13    1    1    2    0    0  0.35382136504E+02 -0.19762886989E+02  0.20892271227E+03  0.21281724120E+03  0.10566000000E+00 0. -1.
        994    1    1    2    0    0 -0.38753586613E+02  0.16003855649E+02  0.92452573550E+01  0.17650178088E+03  0.17120000000E+03 0.  0.
        998    1    1    2    0    0  0.33714501092E+01  0.37590313403E+01  0.12818320267E+04  0.12818809779E+04  0.10000000000E+02 0. -1.
</event>
<event>
 5    1  0.1574792E-008  0.3758045E+03  0.7957747E-01  0.3469632E+00
         13   -1    0    0    0    0  0.00000000000E+00  0.00000000000E+00  0.14999999963E+04  0.15000000000E+04  0.10566000000E+00 0.  1.
        994   -1    0    0    0    0 -0.00000000000E+00 -0.00000000000E+00  0.11368683772E-12  0.17120000000E+03  0.17120000000E+03 0.  0.
         13    1    1    2    0    0 -0.44472617985E+00  0.21238746799E+02  0.33962447532E+02  0.40059220578E+02  0.10566000000E+00 0.  1.
        994    1    1    2    0    0 -0.16644210914E+02 -0.94461144872E+01  0.75087526693E+01  0.17242992838E+03  0.17120000000E+03 0.  0.
        998    1    1    2    0    0  0.17088937094E+02 -0.11792632311E+02  0.14585287961E+04  0.14587108510E+04  0.10000000000E+02 0.  1.
</event>
<event>
 5    1  0.1574792E-008  0.3827588E+03  0.7957747E-01  0.3439233E+00
         13   -1    0    0    0    0  0.00000000000E+00  0.00000000000E+00  0.14999999963E+04  0.15000000000E+04  0.10566000000E+00 0. -1.
        994   -1    0    0    0    0 -0.00000000000E+00 -0.00000000000E+00  0.11368683772E-12  0.17120000000E+03  0.17120000000E+03 0.  0.
         13    1    1    2    0    0  0.16278612553E+02 -0.11981027489E+02  0.64669302620E+02  0.67754469312E+02  0.10566000000E+00 0. -1.
        994    1    1    2    0    0 -0.48786403689E+02  0.55772502120E+00  0.10673001396E+02  0.17833613543E+03  0.17120000000E+03 0.  0.
        998    1    1    2    0    0  0.32507791136E+02  0.11423302468E+02  0.14246576923E+04  0.14251093953E+04  0.10000000000E+02 0. -1.
</event>
<event>
 5    1  0.1574792E-008  0.3830338E+03  0.7957747E-01  0.3438054E+00
         13   -1    0    0    0    0  0.00000000000E+00  0.00000000000E+00  0.14999999963E+04  0.15000000000E+04  0.10566000000E+00 0.  1.
        994   -1    0    0    0    0 -0.00000000000E+00 -0.00000000000E+00  0.11368683772E-12  0.17120000000E+03  0.17120000000E+03 0.  0.
         13    1    1    2    0    0  0.96480068932E+01  0.22724689354E+02  0.12552433887E+03  0.12792914584E+03  0.10566000000E+00 0.  1.
        994    1    1    2    0    0 -0.10654824431E+01 -0.40286081011E+01  0.26669617612E+01  0.17127147346E+03  0.17120000000E+03 0.  0.
        998    1    1    2    0    0 -0.85825244501E+01 -0.18696081253E+02  0.13718086957E+04  0.13719993807E+04  0.10000000000E+02 0.  1.
</event>
<event>
 5    1  0.1574792E-008  0.3699901E+03  0.7957747E-01  0.3495936E+00
         13   -1    0    0    0    0  0.00000000000E+00  0.00000000000E+00  0.14999999963E+04  0.15000000000E+04  0.10566000000E+00 0. -1.
        994   -1    0    0    0    0 -0.00000000000E+00 -0.00000000000E+00  0.11368683772E-12  0.17120000000E+03  0.17120000000E+03 0.  0.
         13    1    1    2    0    0 -0.36332992404E+01 -0.80408664209E+02  0.43188193007E+03  0.43931852548E+03  0.10566000000E+00 0. -1.
        994    1    1    2    0    0 -0.24684608874E+02  0.22955026949E+02  0.13213309987E+02  0.17498655588E+03  0.17120000000E+03 0.  0.
        998    1    1    2    0    0  0.28317908114E+02  0.57453637261E+02  0.10549047562E+04  0.10568949186E+04  0.10000000000E+02 0. -1.
</event>
<event>
 5    1  0.1574792E-008  0.3754783E+03  0.7957747E-01  0.3471086E+00
         13   -1    0    0    0    0  0.00000000000E+00  0.00000000000E+00  0.14999999963E+04  0.15000000000E+04  0.10566000000E+00 0. -1.
        994   -1    0    0    0    0 -0.00000000000E+00 -0.00000000000E+00  0.11368683772E-12  0.17120000000E+03  0.17120000000E+03 0.  0.
         13    1    1    2    0    0  0.26522614364E+02 -0.13469997853E+02  0.63590603129E+02  0.70204457731E+02  0.10566000000E+00 0. -1.
        994    1    1    2    0    0 -0.24006833630E+02  0.21428676850E+02  0.99556150694E+01  0.17448229287E+03  0.17120000000E+03 0.  0.
        998    1    1    2    0    0 -0.25157807340E+01 -0.79586789972E+01  0.14264537781E+04  0.14265132494E+04  0.10000000000E+02 0. -1.
</event>
<event>
 5    1  0.1574792E-008  0.3794999E+03  0.7957747E-01  0.3453339E+00
         13   -1    0    0    0    0  0.00000000000E+00  0.00000000000E+00  0.14999999963E+04  0.15000000000E+04  0.10566000000E+00 0.  1.
        994   -1    0    0    0    0 -0.00000000000E+00 -0.00000000000E+00  0.11368683772E-12  0.17120000000E+03  0.17120000000E+03 0.  0.
         13    1    1    2    0    0 -0.71810899023E+01 -0.77776188102E+01  0.11087721468E+02  0.15329975144E+02  0.10566000000E+00 0.  1.
        994    1    1    2    0    0  0.85462972668E+00 -0.38568709636E+01  0.44380738907E+01  0.17130307162E+03  0.17120000000E+03 0.  0.
        998    1    1    2    0    0  0.63264601756E+01  0.11634489774E+02  0.14844742009E+04  0.14845669532E+04  0.10000000000E+02 0.  1.
</event>
<event>
 5    1  0.1574792E-008  0.3791399E+03  0.7957747E-01  0.3454912E+00
         13   -1    0    0    0    0  0.00000000000E+00  0.00000000000E+00  0.14999999963E+04  0.15000000000E+04  0.10566000000E+00 0. -1.
        994   -1    0    0    0    0 -0.00000000000E+00 -0.00000000000E+00  0.11368683772E-12  0.17120000000E+03  0.17120000000E+03 0.  0.
         13    1    1    2    0    0  0.19806054411E+02 -0.24986128621E+01  0.41709595111E+02  0.46240937987E+02  0.10566000000E+00 0. -1.
        994    1    1    2    0    0 -0.16345153933E+02 -0.15518873343E+02  0.62728455194E+01  0.17279116898E+03  0.17120000000E+03 0.  0.
        998    1    1    2    0    0 -0.34609004782E+01  0.18017486205E+02  0.14520175556E+04  0.14521678930E+04  0.10000000000E+02 0. -1.
</event>
<event>
 5    1  0.1574792E-008  0.3758680E+03  0.7957747E-01  0.3469350E+00
         13   -1    0    0    0    0  0.00000000000E+00  0.00000000000E+00  0.14999999963E+04  0.15000000000E+04  0.10566000000E+00 0. -1.
        994   -1    0    0    0    0 -0.00000000000E+00 -0.00000000000E+00  0.11368683772E-12  0.17120000000E+03  0.17120000000E+03 0.  0.
         13    1    1    2    0    0  0.32682617895E+02  0.25202505482E+02  0.60297326512E+02  0.73069135369E+02  0.10566000000E+00 0. -1.
        994    1    1    2    0    0 -0.11963856766E+02  0.21290681177E+02  0.16207633102E+02  0.17369097370E+03  0.17120000000E+03 0.  0.
        998    1    1    2    0    0 -0.20718761129E+02 -0.46493186659E+02  0.14234950367E+04  0.14244398909E+04  0.10000000000E+02 0. -1.
</event>
<event>
 5    1  0.1574792E-008  0.3779633E+03  0.7957747E-01  0.3460075E+00
         13   -1    0    0    0    0  0.00000000000E+00  0.00000000000E+00  0.14999999963E+04  0.15000000000E+04  0.10566000000E+00 0.  1.
        994   -1    0    0    0    0 -0.00000000000E+00 -0.00000000000E+00  0.11368683772E-12  0.17120000000E+03  0.17120000000E+03 0.  0.
         13    1    1    2    0    0 -0.35302454794E+02  0.30402857540E+02  0.21479810429E+03  0.21979270650E+03  0.10566000000E+00 0.  1.
        994    1    1    2    0    0  0.27504158487E+01 -0.32305430416E+02  0.87108293179E+01  0.17446066654E+03  0.17120000000E+03 0.  0.
        998    1    1    2    0    0  0.32552038945E+02  0.19025728754E+01  0.12764910627E+04  0.12769466270E+04  0.10000000000E+02 0.  1.
</event>
<event>
 5    1  0.1574792E-008  0.3808026E+03  0.7957747E-01  0.3447671E+00
         13   -1    0    0    0    0  0.00000000000E+00  0.00000000000E+00  0.14999999963E+04  0.15000000000E+04  0.10566000000E+00 0. -1.
        994   -1    0    0    0    0 -0.00000000000E+00 -0.00000000000E+00  0.11368683772E-12  0.17120000000E+03  0.17120000000E+03 0.  0.
         13    1    1    2    0    0 -0.20512152359E+02 -0.14317663730E+02  0.79501229210E+02  0.83343868994E+02  0.10566000000E+00 0. -1.
        994    1    1    2    0    0  0.29873983506E+02 -0.11720711283E+01  0.67143768643E+01  0.17392053213E+03  0.17120000000E+03 0.  0.
        998    1    1    2    0    0 -0.93618311472E+01  0.15489734858E+02  0.14137843902E+04  0.14139355989E+04  0.10000000000E+02 0. -1.
</event>
<event>
 5    1  0.1574792E-008  0.3828687E+03  0.7957747E-01  0.3438762E+00
         13   -1    0    0    0    0  0.00000000000E+00  0.00000000000E+00  0.14999999963E+04  0.15000000000E+04  0.10566000000E+00 0.  1.
        994   -1    0    0    0    0 -0.00000000000E+00 -0.00000000000E+00  0.11368683772E-12  0.17120000000E+03  0.17120000000E+03 0.  0.
         13    1    1    2    0    0  0.88137689267E+01  0.65688629568E+01  0.21266956473E+02  0.23940072784E+02  0.10566000000E+00 0.  1.
        994    1    1    2    0    0 -0.79625665693E+01 -0.66214886298E+01  0.30472431285E+01  0.17154000195E+03  0.17120000000E+03 0.  0.
        998    1    1    2    0    0 -0.85120235743E+00  0.52625672943E-01  0.14756857967E+04  0.14757199253E+04  0.10000000000E+02 0.  1.
</event>
<event>
 5    1  0.1574792E-008  0.3754109E+03  0.7957747E-01  0.3471387E+00
         13   -1    0    0    0    0  0.00000000000E+00  0.00000000000E+00  0.14999999963E+04  0.15000000000E+04  0.10566000000E+00 0. -1.
        994   -1    0    0    0    0 -0.00000000000E+00 -0.00000000000E+00  0.11368683772E-12  0.17120000000E+03  0.17120000000E+03 0.  0.
         13    1    1    2    0    0  0.14735990670E+02 -0.88218113886E+00  0.13891453398E+02  0.20270947341E+02  0.10566000000E+00 0. -1.
        994    1    1    2    0    0 -0.13931864124E+02  0.81778415056E+00  0.71292880481E+01  0.17191577111E+03  0.17120000000E+03 0.  0.
        998    1    1    2    0    0 -0.80412654619E+00  0.64396988301E-01  0.14789792548E+04  0.14790132815E+04  0.10000000000E+02 0. -1.
</event>
<event>
 5    1  0.1574792E-008  0.3856750E+03  0.7957747E-01  0.3426815E+00
         13   -1    0    0    0    0  0.00000000000E+00  0.00000000000E+00  0.14999999963E+04  0.15000000000E+04  0.10566000000E+00 0. -1.
        994   -1    0    0    0    0 -0.00000000000E+00 -0.00000000000E+00  0.11368683772E-12  0.17120000000E+03  0.17120000000E+03 0.  0.
         13    1    1    2    0    0 -0.48643579544E+01 -0.12110322267E+02  0.67268805628E+02  0.68523173148E+02  0.10566000000E+00 0. -1.
        994    1    1    2    0    0  0.14704234504E+01  0.63672574702E+01  0.14355308175E+01  0.17133068862E+03  0.17120000000E+03 0.  0.
        998    1    1    2    0    0  0.33939345041E+01  0.57430647963E+01  0.14312956598E+04  0.14313461382E+04  0.10000000000E+02 0. -1.
</event>
<event>
 5    1  0.1574792E-008  0.3766601E+03  0.7957747E-01  0.3465831E+00
         13   -1    0    0    0    0  0.00000000000E+00  0.00000000000E+00  0.14999999963E+04  0.15000000000E+04  0.10566000000E+00 0.  1.
        994   -1    0    0    0    0 -0.00000000000E+00 -0.00000000000E+00  0.11368683772E-12  0.17120000000E+03  0.17120000000E+03 0.  0.
         13    1    1    2    0    0 -0.35035228776E+01 -0.28138866295E+02  0.64710995343E+02  0.70651217621E+02  0.10566000000E+00 0.  1.
        994    1    1    2    0    0  0.53599384507E+01  0.26211829202E+02  0.82520423193E+01  0.17347427801E+03  0.17120000000E+03 0.  0.
        998    1    1    2    0    0 -0.18564155731E+01  0.19270370932E+01  0.14270369586E+04  0.14270745044E+04  0.10000000000E+02 0.  1.
</event>
<event>
 5    1  0.1574792E-008  0.3842220E+03  0.7957747E-01  0.3432978E+00
         13   -1    0    0    0    0  0.00000000000E+00  0.00000000000E+00  0.14999999963E+04  0.15000000000E+04  0.10566000000E+00 0. -1.
        994   -1    0    0    0    0 -0.00000000000E+00 -0.00000000000E+00  0.11368683772E-12  0.17120000000E+03  0.17120000000E+03 0.  0.
         13    1    1    2    0    0  0.21381203185E+02 -0.93718704310E+01  0.14045689318E+03  0.14238376948E+03  0.10566000000E+00 0. -1.
        994    1    1    2    0    0 -0.93487159206E+01  0.21761217348E+01  0.23206960306E+01  0.17148457547E+03  0.17120000000E+03 0.  0.
        998    1    1    2    0    0 -0.12032487265E+02  0.71957486963E+01  0.13572224071E+04  0.13573316550E+04  0.10000000000E+02 0. -1.
</event>
<event>
 5    1  0.1574792E-008  0.3823345E+03  0.7957747E-01  0.3441056E+00
         13   -1    0    0    0    0  0.00000000000E+00  0.00000000000E+00  0.14999999963E+04  0.15000000000E+04  0.10566000000E+00 0.  1.
        994   -1    0    0    0    0 -0.00000000000E+00 -0.00000000000E+00  0.11368683772E-12  0.17120000000E+03  0.17120000000E+03 0.  0.
         13    1    1    2    0    0 -0.10716478870E+02  0.12535974915E+02  0.44058406088E+02  0.47044105874E+02  0.10566000000E+00 0.  1.
        994    1    1    2    0    0  0.27018047671E+02  0.18802611320E+01  0.53963988415E+01  0.17341300817E+03  0.17120000000E+03 0.  0.
        998    1    1    2    0    0 -0.16301568800E+02 -0.14416236048E+02  0.14505451913E+04  0.14507428860E+04  0.10000000000E+02 0.  1.
</event>
<event>
 5    1  0.1574792E-008  0.3839046E+03  0.7957747E-01  0.3434331E+00
         13   -1    0    0    0    0  0.00000000000E+00  0.00000000000E+00  0.14999999963E+04  0.15000000000E+04  0.10566000000E+00 0. -1.
        994   -1    0    0    0    0 -0.00000000000E+00 -0.00000000000E+00  0.11368683772E-12  0.17120000000E+03  0.17120000000E+03 0.  0.
         13    1    1    2    0    0 -0.18202721676E+01  0.11444768776E+02  0.31786893586E+02  0.33833620719E+02  0.10566000000E+00 0. -1.
        994    1    1    2    0    0  0.19731829794E+01  0.47261068001E+01  0.22615419172E+01  0.17129151791E+03  0.17120000000E+03 0.  0.
        998    1    1    2    0    0 -0.15291081182E+00 -0.16170875576E+02  0.14659515608E+04  0.14660748614E+04  0.10000000000E+02 0. -1.
</event>
<event>
 5    1  0.1574792E-008  0.3864487E+03  0.7957747E-01  0.3423551E+00
         13   -1    0    0    0    0  0.00000000000E+00  0.00000000000E+00  0.14999999963E+04  0.15000000000E+04  0.10566000000E+00 0.  1.
        994   -1    0    0    0    0 -0.00000000000E+00 -0.00000000000E+00  0.11368683772E-12  0.17120000000E+03  0.17120000000E+03 0.  0.
         13    1    1    2    0    0 -0.12774582787E+03  0.23808328128E+01  0.34125057299E+03  0.36438527637E+03  0.10566000000E+00 0.  1.
        994    1    1    2    0    0  0.11302157678E+03 -0.11898658139E+03  0.12829442765E+03  0.26963045736E+03  0.17120000000E+03 0.  0.
        998    1    1    2    0    0  0.14724251088E+02  0.11660574857E+03  0.10304549956E+04  0.10371842663E+04  0.10000000000E+02 0.  1.
</event>
<event>
 5    1  0.1574792E-008  0.3856168E+03  0.7957747E-01  0.3427061E+00
         13   -1    0    0    0    0  0.00000000000E+00  0.00000000000E+00  0.14999999963E+04  0.15000000000E+04  0.10566000000E+00 0.  1.
        994   -1    0    0    0    0 -0.00000000000E+00 -0.00000000000E+00  0.11368683772E-12  0.17120000000E+03  0.17120000000E+03 0.  0.
         13    1    1    2    0    0 -0.13555118071E+02  0.27977009787E+01  0.70719439043E+02  0.72061214112E+02  0.10566000000E+00 0.  1.
        994    1    1    2    0    0  0.11611889432E+02 -0.89312300549E+01  0.20289006266E+01  0.17183759567E+03  0.17120000000E+03 0.  0.
        998    1    1    2    0    0  0.19432286390E+01  0.61335290761E+01  0.14272516566E+04  0.14273011902E+04  0.10000000000E+02 0.  1.
</event>
<event>
 5    1  0.1574792E-008  0.3714085E+03  0.7957747E-01  0.3489442E+00
         13   -1    0    0    0    0  0.00000000000E+00  0.00000000000E+00  0.14999999963E+04  0.15000000000E+04  0.10566000000E+00 0. -1.
        994   -1    0    0    0    0 -0.00000000000E+00 -0.00000000000E+00  0.11368683772E-12  0.17120000000E+03  0.17120000000E+03 0.  0.
         13    1    1    2    0    0 -0.39302487778E+02 -0.93607996427E+01  0.93343574347E+02  0.10171206493E+03  0.10566000000E+00 0. -1.
        994    1    1    2    0    0  0.21063204255E+02  0.11455114548E+02  0.10515331570E+02  0.17319033004E+03  0.17120000000E+03 0.  0.
        998    1    1    2    0    0  0.18239283523E+02 -0.20943149053E+01  0.13961410904E+04  0.13962976050E+04  0.10000000000E+02 0. -1.
</event>
<event>
 5    1  0.1574792E-008  0.3737044E+03  0.7957747E-01  0.3479037E+00
         13   -1    0    0    0    0  0.00000000000E+00  0.00000000000E+00  0.14999999963E+04  0.15000000000E+04  0.10566000000E+00 0.  1.
        994   -1    0    0    0    0 -0.00000000000E+00 -0.00000000000E+00  0.11368683772E-12  0.17120000000E+03  0.17120000000E+03 0.  0.
         13    1    1    2    0    0 -0.11718161727E+02  0.61837649907E+02  0.21190326783E+03  0.22105251942E+03  0.10566000000E+00 0.  1.
        994    1    1    2    0    0  0.13983309033E+02 -0.75194307748E+02  0.27588123285E+02  0.18952641345E+03  0.17120000000E+03 0.  0.
        998    1    1    2    0    0 -0.22651473054E+01  0.13356657841E+02  0.12605086052E+04  0.12606210671E+04  0.10000000000E+02 0.  1.
</event>
<event>
 5    1  0.1574792E-008  0.3856185E+03  0.7957747E-01  0.3427053E+00
         13   -1    0    0    0    0  0.00000000000E+00  0.00000000000E+00  0.14999999963E+04  0.15000000000E+04  0.10566000000E+00 0.  1.
        994   -1    0    0    0    0 -0.00000000000E+00 -0.00000000000E+00  0.11368683772E-12  0.17120000000E+03  0.17120000000E+03 0.  0.
         13    1    1    2    0    0  0.61000785214E+01 -0.10593599908E+02  0.58358250852E+02  0.59624927032E+02  0.10566000000E+00 0.  1.
        994    1    1    2    0    0 -0.49487229156E+01  0.19504940660E+01  0.14162530390E+01  0.17128847030E+03  0.17120000000E+03 0.  0.
        998    1    1    2    0    0 -0.11513556058E+01  0.86431058421E+01  0.14402254924E+04  0.14402866027E+04  0.10000000000E+02 0.  1.
</event>
<event>
 5    1  0.1574792E-008  0.3706648E+03  0.7957747E-01  0.3492841E+00
         13   -1    0    0    0    0  0.00000000000E+00  0.00000000000E+00  0.14999999963E+04  0.15000000000E+04  0.10566000000E+00 0. -1.
        994   -1    0    0    0    0 -0.00000000000E+00 -0.00000000000E+00  0.11368683772E-12  0.17120000000E+03  0.17120000000E+03 0.  0.
         13    1    1    2    0    0  0.84149810063E+01  0.28367788083E+02  0.46237393458E+02  0.54894908907E+02  0.10566000000E+00 0. -1.
        994    1    1    2    0    0 -0.79645434615E+00 -0.15234505332E+02  0.97252098464E+01  0.17215325788E+03  0.17120000000E+03 0.  0.
        998    1    1    2    0    0 -0.76185266602E+01 -0.13133282751E+02  0.14440373930E+04  0.14441518332E+04  0.10000000000E+02 0. -1.
</event>
<event>
 5    1  0.1574792E-008  0.3754183E+03  0.7957747E-01  0.3471354E+00
         13   -1    0    0    0    0  0.00000000000E+00  0.00000000000E+00  0.14999999963E+04  0.15000000000E+04  0.10566000000E+00 0. -1.
        994   -1    0    0    0    0 -0.00000000000E+00 -0.00000000000E+00  0.11368683772E-12  0.17120000000E+03  0.17120000000E+03 0.  0.
         13    1    1    2    0    0  0.50778956569E+02  0.33170645686E+02  0.24084084524E+03  0.24836086259E+03  0.10566000000E+00 0. -1.
        994    1    1    2    0    0 -0.50110548133E+02 -0.31145878947E+02  0.18373572991E+02  0.18201143094E+03  0.17120000000E+03 0.  0.
        998    1    1    2    0    0 -0.66840843654E+00 -0.20247667392E+01  0.12407855780E+04  0.12408277065E+04  0.10000000000E+02 0.  0.
</event>
<event>
 5    1  0.1574792E-008  0.3763350E+03  0.7957747E-01  0.3467274E+00
         13   -1    0    0    0    0  0.00000000000E+00  0.00000000000E+00  0.14999999963E+04  0.15000000000E+04  0.10566000000E+00 0.  1.
        994   -1    0    0    0    0 -0.00000000000E+00 -0.00000000000E+00  0.11368683772E-12  0.17120000000E+03  0.17120000000E+03 0.  0.
         13    1    1    2    0    0  0.11888123289E+02  0.19784137507E+02  0.41263107661E+02  0.47279961824E+02  0.10566000000E+00 0.  1.
        994    1    1    2    0    0 -0.95105124351E+01 -0.19505908617E+02  0.75900119963E+01  0.17273673205E+03  0.17120000000E+03 0.  0.
        998    1    1    2    0    0 -0.23776108541E+01 -0.27822889040E+00  0.14511468766E+04  0.14511833061E+04  0.10000000000E+02 0.  1.
</event>
<event>
 5    1  0.1574792E-008  0.3851128E+03  0.7957747E-01  0.3429194E+00
         13   -1    0    0    0    0  0.00000000000E+00  0.00000000000E+00  0.14999999963E+04  0.15000000000E+04  0.10566000000E+00 0.  1.
        994   -1    0    0    0    0 -0.00000000000E+00 -0.00000000000E+00  0.11368683772E-12  0.17120000000E+03  0.17120000000E+03 0.  0.
         13    1    1    2    0    0 -0.10357463621E+02 -0.49495576681E+01  0.42442814380E+02  0.43967929566E+02  0.10566000000E+00 0.  1.
        994    1    1    2    0    0  0.41034161551E+01  0.25754713139E+01  0.16513172693E+01  0.17127649554E+03  0.17120000000E+03 0.  0.
        998    1    1    2    0    0  0.62540474662E+01  0.23740863542E+01  0.14559058646E+04  0.14559555749E+04  0.10000000000E+02 0.  1.
</event>
<event>
 5    1  0.1574792E-008  0.3820263E+03  0.7957747E-01  0.3442383E+00
         13   -1    0    0    0    0  0.00000000000E+00  0.00000000000E+00  0.14999999963E+04  0.15000000000E+04  0.10566000000E+00 0.  1.
        994   -1    0    0    0    0 -0.00000000000E+00 -0.00000000000E+00  0.11368683772E-12  0.17120000000E+03  0.17120000000E+03 0.  0.
         13    1    1    2    0    0 -0.68605982850E+01 -0.80433796526E+01  0.17206905637E+02  0.20195359138E+02  0.10566000000E+00 0.  1.
        994    1    1    2    0    0 -0.75932502472E+00 -0.40439269582E+01  0.31700065206E+01  0.17127877528E+03  0.17120000000E+03 0.  0.
        998    1    1    2    0    0  0.76199233097E+01  0.12087306611E+02  0.14796230841E+04  0.14797258656E+04  0.10000000000E+02 0.  1.
</event>
<event>
 5    1  0.1574792E-008  0.3790174E+03  0.7957747E-01  0.3455448E+00
         13   -1    0    0    0    0  0.00000000000E+00  0.00000000000E+00  0.14999999963E+04  0.15000000000E+04  0.10566000000E+00 0.  1.
        994   -1    0    0    0    0 -0.00000000000E+00 -0.00000000000E+00  0.11368683772E-12  0.17120000000E+03  0.17120000000E+03 0.  0.
         13    1    1    2    0    0  0.45820685816E+02 -0.54644987971E+02  0.39100831334E+03  0.39745832766E+03  0.10566000000E+00 0.  1.
        994    1    1    2    0    0 -0.41384653208E+02  0.62810469684E+02  0.23845539324E+02  0.18850966651E+03  0.17120000000E+03 0.  0.
        998    1    1    2    0    0 -0.44360326081E+01 -0.81654817129E+01  0.10851461436E+04  0.10852320058E+04  0.10000000000E+02 0.  1.
</event>
<event>
 5    1  0.1574792E-008  0.3813932E+03  0.7957747E-01  0.3445114E+00
         13   -1    0    0    0    0  0.00000000000E+00  0.00000000000E+00  0.14999999963E+04  0.15000000000E+04  0.10566000000E+00 0. -1.
        994   -1    0    0    0    0 -0.00000000000E+00 -0.00000000000E+00  0.11368683772E-12  0.17120000000E+03  0.17120000000E+03 0.  0.
         13    1    1    2    0    0  0.11366534180E+02  0.70016842817E+01  0.25118951388E+02  0.28446345370E+02  0.10566000000E+00 0. -1.
        994    1    1    2    0    0 -0.46812403588E+01  0.23921406643E+01  0.35234774867E+01  0.17131693215E+03  0.17120000000E+03 0.  0.
        998    1    1    2    0    0 -0.66852938213E+01 -0.93938249461E+01  0.14713575674E+04  0.14714367225E+04  0.10000000000E+02 0. -1.
</event>
<event>
 5    1  0.1574792E-008  0.3708529E+03  0.7957747E-01  0.3491980E+00
         13   -1    0    0    0    0  0.00000000000E+00  0.00000000000E+00  0.14999999963E+04  0.15000000000E+04  0.10566000000E+00 0.  1.
        994   -1    0    0    0    0 -0.00000000000E+00 -0.00000000000E+00  0.11368683772E-12  0.17120000000E+03  0.17120000000E+03 0.  0.
         13    1    1    2    0    0 -0.55058203449E+02 -0.11831975530E+03  0.77260136281E+03  0.78354568931E+03  0.10566000000E+00 0.  1.
        994    1    1    2    0    0  0.57721232392E+02  0.59472264121E+02  0.35881191084E+02  0.19356030260E+03  0.17120000000E+03 0.  0.
        998    1    1    2    0    0 -0.26630289436E+01  0.58847491179E+02  0.69151744239E+03  0.69409400809E+03  0.10000000000E+02 0.  1.
</event>
<event>
 5    1  0.1978370E-008  0.3852885E+03  0.7957747E-01  0.3428450E+00
         13   -1    0    0    0    0  0.00000000000E+00  0.00000000000E+00  0.14999999963E+04  0.15000000000E+04  0.10566000000E+00 0. -1.
        994   -1    0    0    0    0 -0.00000000000E+00 -0.00000000000E+00  0.11368683772E-12  0.17120000000E+03  0.17120000000E+03 0.  0.
         13    1    1    2    0    0  0.91424933272E+01  0.12394325990E+02  0.76077838364E+02  0.77621215883E+02  0.10566000000E+00 0. -1.
        994    1    1    2    0    0 -0.11540073000E+02 -0.12808906919E+02  0.24641968075E+01  0.17208356588E+03  0.17120000000E+03 0.  0.
        998    1    1    2    0    0  0.23975796725E+01  0.41458092918E+00  0.14214579611E+04  0.14214952182E+04  0.10000000000E+02 0. -1.
</event>
<event>
 5    1  0.1574792E-008  0.3781230E+03  0.7957747E-01  0.3459372E+00
         13   -1    0    0    0    0  0.00000000000E+00  0.00000000000E+00  0.14999999963E+04  0.15000000000E+04  0.10566000000E+00 0. -1.
        994   -1    0    0    0    0 -0.00000000000E+00 -0.00000000000E+00  0.11368683772E-12  0.17120000000E+03  0.17120000000E+03 0.  0.
         13    1    1    2    0    0  0.31561455813E+02 -0.38382641056E+02  0.23065971792E+03  0.23595183674E+03  0.10566000000E+00 0. -1.
        994    1    1    2    0    0 -0.17597639723E+02  0.30397838253E+02  0.92447732664E+01  0.17501031777E+03  0.17120000000E+03 0.  0.
        998    1    1    2    0    0 -0.13963816090E+02  0.79848028032E+01  0.12600955051E+04  0.12602378455E+04  0.10000000000E+02 0. -1.
</event>
<event>
 5    1  0.1574792E-008  0.3843325E+03  0.7957747E-01  0.3432508E+00
         13   -1    0    0    0    0  0.00000000000E+00  0.00000000000E+00  0.14999999963E+04  0.15000000000E+04  0.10566000000E+00 0.  1.
        994   -1    0    0    0    0 -0.00000000000E+00 -0.00000000000E+00  0.11368683772E-12  0.17120000000E+03  0.17120000000E+03 0.  0.
         13    1    1    2    0    0 -0.25409304066E+02 -0.31313461013E+01  0.14382878254E+03  0.14608958865E+03  0.10566000000E+00 0.  1.
        994    1    1    2    0    0  0.32816953630E+02  0.30036194161E+01  0.55492401044E+01  0.17443109884E+03  0.17120000000E+03 0.  0.
        998    1    1    2    0    0 -0.74076495642E+01  0.12772668517E+00  0.13506219736E+04  0.13506793125E+04  0.10000000000E+02 0.  1.
</event>
<event>
 5    1  0.1574792E-008  0.3840194E+03  0.7957747E-01  0.3433842E+00
         13   -1    0    0    0    0  0.00000000000E+00  0.00000000000E+00  0.14999999963E+04  0.15000000000E+04  0.10566000000E+00 0. -1.
        994   -1    0    0    0    0 -0.00000000000E+00 -0.00000000000E+00  0.11368683772E-12  0.17120000000E+03  0.17120000000E+03 0.  0.
         13    1    1    2    0    0  0.19179018769E+02 -0.22841833312E+02  0.17966845161E+03  0.18212728455E+03  0.10566000000E+00 0. -1.
        994    1    1    2    0    0 -0.21637103828E+02  0.26700814537E+02  0.60241178451E+01  0.17471928272E+03  0.17120000000E+03 0.  0.
        998    1    1    2    0    0  0.24580850592E+01 -0.38589812249E+01  0.13143074268E+04  0.13143534327E+04  0.10000000000E+02 0. -1.
</event>
<event>
 5    1  0.1574792E-008  0.3851844E+03  0.7957747E-01  0.3428891E+00
         13   -1    0    0    0    0  0.00000000000E+00  0.00000000000E+00  0.14999999963E+04  0.15000000000E+04  0.10566000000E+00 0. -1.
        994   -1    0    0    0    0 -0.00000000000E+00 -0.00000000000E+00  0.11368683772E-12  0.17120000000E+03  0.17120000000E+03 0.  0.
         13    1    1    2    0    0  0.16410766019E+02  0.86689566321E+00  0.91605915084E+02  0.93068359779E+02  0.10566000000E+00 0. -1.
        994    1    1    2    0    0 -0.62245222123E+01  0.11543776937E+02  0.21041478733E+01  0.17171450405E+03  0.17120000000E+03 0.  0.
        998    1    1    2    0    0 -0.10186243807E+02 -0.12410672600E+02  0.14062899333E+04  0.14064171362E+04  0.10000000000E+02 0. -1.
</event>
<event>
 5    1  0.1574792E-008  0.3848042E+03  0.7957747E-01  0.3430503E+00
         13   -1    0    0    0    0  0.00000000000E+00  0.00000000000E+00  0.14999999963E+04  0.15000000000E+04  0.10566000000E+00 0.  1.
        994   -1    0    0    0    0 -0.00000000000E+00 -0.00000000000E+00  0.11368683772E-12  0.17120000000E+03  0.17120000000E+03 0.  0.
         13    1    1    2    0    0 -0.13290376103E+02 -0.17560642877E+01  0.62630609540E+02  0.64049373721E+02  0.10566000000E+00 0.  1.
        994    1    1    2    0    0 -0.21672582564E+02  0.30931863539E+01  0.33060992025E+01  0.17262571920E+03  0.17120000000E+03 0.  0.
        998    1    1    2    0    0  0.34962958667E+02 -0.13371220662E+01  0.14340632875E+04  0.14345249071E+04  0.10000000000E+02 0.  1.
</event>
<event>
 5    1  0.1574792E-008  0.3748890E+03  0.7957747E-01  0.3473719E+00
         13   -1    0    0    0    0  0.00000000000E+00  0.00000000000E+00  0.14999999963E+04  0.15000000000E+04  0.10566000000E+00 0.  1.
        994   -1    0    0    0    0 -0.00000000000E+00 -0.00000000000E+00  0.11368683772E-12  0.17120000000E+03  0.17120000000E+03 0.  0.
         13    1    1    2    0    0  0.55657501435E+02  0.57053635344E+02  0.38573189590E+03  0.39388066905E+03  0.10566000000E+00 0.  1.
        994    1    1    2    0    0 -0.46088902126E+02 -0.50671006526E+02  0.22861006491E+02  0.18580582181E+03  0.17120000000E+03 0.  0.
        998    1    1    2    0    0 -0.95685993095E+01 -0.63826288172E+01  0.10914070939E+04  0.10915135091E+04  0.10000000000E+02 0.  1.
</event>
<event>
 5    1  0.1574792E-008  0.3804212E+03  0.7957747E-01  0.3449326E+00
         13   -1    0    0    0    0  0.00000000000E+00  0.00000000000E+00  0.14999999963E+04  0.15000000000E+04  0.10566000000E+00 0.  1.
        994   -1    0    0    0    0 -0.00000000000E+00 -0.00000000000E+00  0.11368683772E-12  0.17120000000E+03  0.17120000000E+03 0.  0.
         13    1    1    2    0    0  0.84304842443E+01 -0.17478532951E+02  0.45042124036E+02  0.49044635593E+02  0.10566000000E+00 0.  1.
        994    1    1    2    0    0 -0.17397896290E+02  0.15869519862E+02  0.57740265166E+01  0.17290837990E+03  0.17120000000E+03 0.  0.
        998    1    1    2    0    0  0.89674120461E+01  0.16090130888E+01  0.14491838457E+04  0.14492469845E+04  0.10000000000E+02 0.  1.
</event>
<event>
 5    1  0.1574792E-008  0.3806351E+03  0.7957747E-01  0.3448398E+00
         13   -1    0    0    0    0  0.00000000000E+00  0.00000000000E+00  0.14999999963E+04  0.15000000000E+04  0.10566000000E+00 0. -1.
        994   -1    0    0    0    0 -0.00000000000E+00 -0.00000000000E+00  0.11368683772E-12  0.17120000000E+03  0.17120000000E+03 0.  0.
         13    1    1    2    0    0 -0.25400554563E+00  0.10754798451E+02  0.13506124574E+02  0.17267216729E+02  0.10566000000E+00 0. -1.
        994    1    1    2    0    0 -0.31577874412E+01 -0.87584595260E+01  0.41021275182E+01  0.17150203989E+03  0.17120000000E+03 0.  0.
        998    1    1    2    0    0  0.34117929869E+01 -0.19963389248E+01  0.14823917442E+04  0.14824307434E+04  0.10000000000E+02 0. -1.
</event>
<event>
 5    1  0.1574792E-008  0.3740741E+03  0.7957747E-01  0.3477374E+00
         13   -1    0    0    0    0  0.00000000000E+00  0.00000000000E+00  0.14999999963E+04  0.15000000000E+04  0.10566000000E+00 0.  1.
        994   -1    0    0    0    0 -0.00000000000E+00 -0.00000000000E+00  0.11368683772E-12  0.17120000000E+03  0.17120000000E+03 0.  0.
         13    1    1    2    0    0  0.19008129437E+02 -0.14227892029E+03  0.73826269455E+03  0.75208803838E+03  0.10566000000E+00 0.  1.
        994    1    1    2    0    0 -0.16205012602E+02  0.13662331075E+03  0.74721106848E+02  0.23199399838E+03  0.17120000000E+03 0.  0.
        998    1    1    2    0    0 -0.28031168349E+01  0.56556095365E+01  0.68701619488E+03  0.68711796324E+03  0.10000000000E+02 0.  1.
</event>
<event>
 5    1  0.1574792E-008  0.3772292E+03  0.7957747E-01  0.3463313E+00
         13   -1    0    0    0    0  0.00000000000E+00  0.00000000000E+00  0.14999999963E+04  0.15000000000E+04  0.10566000000E+00 0. -1.
        994   -1    0    0    0    0 -0.00000000000E+00 -0.00000000000E+00  0.11368683772E-12  0.17120000000E+03  0.17120000000E+03 0.  0.
         13    1    1    2    0    0 -0.34854071870E+02 -0.28692476952E+02  0.21482261625E+03  0.21951499306E+03  0.10566000000E+00 0. -1.
        994    1    1    2    0    0  0.19083786465E+01  0.12032826088E+01  0.55555791819E+01  0.17130497441E+03  0.17120000000E+03 0.  0.
        998    1    1    2    0    0  0.32945693223E+02  0.27489194343E+02  0.12796218008E+04  0.12803800325E+04  0.10000000000E+02 0. -1.
</event>
<event>
 5    1  0.1574792E-008  0.3845743E+03  0.7957747E-01  0.3431480E+00
         13   -1    0    0    0    0  0.00000000000E+00  0.00000000000E+00  0.14999999963E+04  0.15000000000E+04  0.10566000000E+00 0. -1.
        994   -1    0    0    0    0 -0.00000000000E+00 -0.00000000000E+00  0.11368683772E-12  0.17120000000E+03  0.17120000000E+03 0.  0.
         13    1    1    2    0    0 -0.98861150560E+00  0.10703440817E+02  0.33969227621E+02  0.35629490415E+02  0.10566000000E+00 0. -1.
        994    1    1    2    0    0  0.41833268103E+01  0.13649159063E+02  0.25130597692E+01  0.17181255843E+03  0.17120000000E+03 0.  0.
        998    1    1    2    0    0 -0.31947153047E+01 -0.24352599880E+02  0.14635177089E+04  0.14637579512E+04  0.10000000000E+02 0. -1.
</event>
<event>
 5    1  0.1574792E-008  0.3859040E+03  0.7957747E-01  0.3425847E+00
         13   -1    0    0    0    0  0.00000000000E+00  0.00000000000E+00  0.14999999963E+04  0.15000000000E+04  0.10566000000E+00 0. -1.
        994   -1    0    0    0    0 -0.00000000000E+00 -0.00000000000E+00  0.11368683772E-12  0.17120000000E+03  0.17120000000E+03 0.  0.
         13    1    1    2    0    0  0.10034027940E+02  0.31558847023E+00  0.43588609881E+02  0.44729848962E+02  0.10566000000E+00 0. -1.
        994    1    1    2    0    0 -0.46289950341E+01 -0.28238803008E+01  0.12784152064E+01  0.17129061924E+03  0.17120000000E+03 0.  0.
        998    1    1    2    0    0 -0.54050329059E+01  0.25082918305E+01  0.14551329712E+04  0.14551795318E+04  0.10000000000E+02 0. -1.
</event>
<event>
 5    1  0.1574792E-008  0.3830994E+03  0.7957747E-01  0.3437773E+00
         13   -1    0    0    0    0  0.00000000000E+00  0.00000000000E+00  0.14999999963E+04  0.15000000000E+04  0.10566000000E+00 0.  1.
        994   -1    0    0    0    0 -0.00000000000E+00 -0.00000000000E+00  0.11368683772E-12  0.17120000000E+03  0.17120000000E+03 0.  0.
         13    1    1    2    0    0  0.84601820962E+01 -0.12172020721E+02  0.41687935100E+02  0.44245088614E+02  0.10566000000E+00 0.  1.
        994    1    1    2    0    0 -0.76114423575E+01  0.78869511217E+01  0.29743559680E+01  0.17157629453E+03  0.17120000000E+03 0.  0.
        998    1    1    2    0    0 -0.84873973861E+00  0.42850695989E+01  0.14553377052E+04  0.14553786169E+04  0.10000000000E+02 0.  1.
</event>
<event>
 5    1  0.1574792E-008  0.3797803E+03  0.7957747E-01  0.3452116E+00
         13   -1    0    0    0    0  0.00000000000E+00  0.00000000000E+00  0.14999999963E+04  0.15000000000E+04  0.10566000000E+00 0.  1.
        994   -1    0    0    0    0 -0.00000000000E+00 -0.00000000000E+00  0.11368683772E-12  0.17120000000E+03  0.17120000000E+03 0.  0.
         13    1    1    2    0    0 -0.64604576706E+01 -0.31822398687E+02  0.13943764747E+03  0.14316868117E+03  0.10566000000E+00 0.  1.
        994    1    1    2    0    0  0.17225806276E+02 -0.46214462849E+01  0.53088973896E+01  0.17220833476E+03  0.17120000000E+03 0.  0.
        998    1    1    2    0    0 -0.10765348606E+02  0.36443844972E+02  0.13552534514E+04  0.13558229841E+04  0.10000000000E+02 0.  1.
</event>
<event>
 5    1  0.1574792E-008  0.3807946E+03  0.7957747E-01  0.3447706E+00
         13   -1    0    0    0    0  0.00000000000E+00  0.00000000000E+00  0.14999999963E+04  0.15000000000E+04  0.10566000000E+00 0.  1.
        994   -1    0    0    0    0 -0.00000000000E+00 -0.00000000000E+00  0.11368683772E-12  0.17120000000E+03  0.17120000000E+03 0.  0.
         13    1    1    2    0    0  0.12943720629E+02  0.20201603817E+02  0.76196311265E+02  0.79884502345E+02  0.10566000000E+00 0.  1.
        994    1    1    2    0    0  0.21123881657E+00 -0.16807250439E+02  0.46751266972E+01  0.17208667903E+03  0.17120000000E+03 0.  0.
        998    1    1    2    0    0 -0.13154959445E+02 -0.33943533774E+01  0.14191285583E+04  0.14192288186E+04  0.10000000000E+02 0.  1.
</event>
<event>
 5    1  0.1574792E-008  0.3819395E+03  0.7957747E-01  0.3442757E+00
         13   -1    0    0    0    0  0.00000000000E+00  0.00000000000E+00  0.14999999963E+04  0.15000000000E+04  0.10566000000E+00 0. -1.
        994   -1    0    0    0    0 -0.00000000000E+00 -0.00000000000E+00  0.11368683772E-12  0.17120000000E+03  0.17120000000E+03 0.  0.
         13    1    1    2    0    0 -0.14992319502E+02 -0.10684885688E+02  0.53698610182E+02  0.56766965091E+02  0.10566000000E+00 0. -1.
        994    1    1    2    0    0  0.99298268482E+01 -0.13850951795E+01  0.34912271503E+01  0.17152885651E+03  0.17120000000E+03 0.  0.
        998    1    1    2    0    0  0.50624926534E+01  0.12069980867E+02  0.14428101589E+04  0.14429041784E+04  0.10000000000E+02 0. -1.
</event>
<event>
 5    1  0.1574792E-008  0.3772605E+03  0.7957747E-01  0.3463174E+00
         13   -1    0    0    0    0  0.00000000000E+00  0.00000000000E+00  0.14999999963E+04  0.15000000000E+04  0.10566000000E+00 0. -1.
        994   -1    0    0    0    0 -0.00000000000E+00 -0.00000000000E+00  0.11368683772E-12  0.17120000000E+03  0.17120000000E+03 0.  0.
         13    1    1    2    0    0 -0.36914372428E+02  0.27881486762E+02  0.19129433775E+03  0.19680849325E+03  0.10566000000E+00 0. -1.
        994    1    1    2    0    0  0.25127653799E+02 -0.12055475538E+02  0.81471803597E+01  0.17364489634E+03  0.17120000000E+03 0.  0.
        998    1    1    2    0    0  0.11786718630E+02 -0.15826011224E+02  0.13005584782E+04  0.13007466104E+04  0.10000000000E+02 0. -1.
</event>
<event>
 5    1  0.1574792E-008  0.3725956E+03  0.7957747E-01  0.3484047E+00
         13   -1    0    0    0    0  0.00000000000E+00  0.00000000000E+00  0.14999999963E+04  0.15000000000E+04  0.10566000000E+00 0. -1.
        994   -1    0    0    0    0 -0.00000000000E+00 -0.00000000000E+00  0.11368683772E-12  0.17120000000E+03  0.17120000000E+03 0.  0.
         13    1    1    2    0    0 -0.26832845210E+02 -0.62832824882E+02  0.17895619429E+03  0.19155494278E+03  0.10566000000E+00 0. -1.
        994    1    1    2    0    0 -0.27240448786E+02  0.66711511978E+02  0.30870676364E+02  0.18829473317E+03  0.17120000000E+03 0.  0.
        998    1    1    2    0    0  0.54073293996E+02 -0.38786870959E+01  0.12901731256E+04  0.12913503241E+04  0.10000000000E+02 0. -1.
</event>
<event>
 5    1  0.1574792E-008  0.3773642E+03  0.7957747E-01  0.3462716E+00
         13   -1    0    0    0    0  0.00000000000E+00  0.00000000000E+00  0.14999999963E+04  0.15000000000E+04  0.10566000000E+00 0.  1.
        994   -1    0    0    0    0 -0.00000000000E+00 -0.00000000000E+00  0.11368683772E-12  0.17120000000E+03  0.17120000000E+03 0.  0.
         13    1    1    2    0    0  0.29955744872E+01  0.25068372686E+02  0.16091436723E+02  0.29938975859E+02  0.10566000000E+00 0.  1.
        994    1    1    2    0    0 -0.51764132915E+01  0.91433281309E+01  0.15283285780E+02  0.17220166819E+03  0.17120000000E+03 0.  0.
        998    1    1    2    0    0  0.21808388043E+01 -0.34211700816E+02  0.14686252738E+04  0.14690593559E+04  0.10000000000E+02 0.  1.
</event>
<event>
 5    1  0.1574792E-008  0.3823975E+03  0.7957747E-01  0.3440785E+00
         13   -1    0    0    0    0  0.00000000000E+00  0.00000000000E+00  0.14999999963E+04  0.15000000000E+04  0.10566000000E+00 0. -1.
        994   -1    0    0    0    0 -0.00000000000E+00 -0.00000000000E+00  0.11368683772E-12  0.17120000000E+03  0.17120000000E+03 0.  0.
         13    1    1    2    0    0  0.41985512488E+01  0.12757176571E+02  0.29749505342E+02  0.32640735573E+02  0.10566000000E+00 0. -1.
        994    1    1    2    0    0 -0.37092345685E+01 -0.84533868492E+01  0.32104630325E+01  0.17147876033E+03  0.17120000000E+03 0.  0.
        998    1    1    2    0    0 -0.48931668034E+00 -0.43037897214E+01  0.14670400279E+04  0.14670805041E+04  0.10000000000E+02 0. -1.
</event>
<event>
 5    1  0.1574792E-008  0.3722429E+03  0.7957747E-01  0.3485646E+00
         13   -1    0    0    0    0  0.00000000000E+00  0.00000000000E+00  0.14999999963E+04  0.15000000000E+04  0.10566000000E+00 0.  1.
        994   -1    0    0    0    0 -0.00000000000E+00 -0.00000000000E+00  0.11368683772E-12  0.17120000000E+03  0.17120000000E+03 0.  0.
         13    1    1    2    0    0 -0.12529664194E+02 -0.49743561963E+01  0.15295248156E+01  0.13567878043E+02  0.10566000000E+00 0.  1.
        994    1    1    2    0    0  0.43732878739E+02  0.44179084694E+01  0.18968911836E+02  0.17776766358E+03  0.17120000000E+03 0.  0.
        998    1    1    2    0    0 -0.31203214545E+02  0.55644772688E+00  0.14795015596E+04  0.14798644584E+04  0.10000000000E+02 0.  1.
</event>
<event>
 5    1  0.1574792E-008  0.3790058E+03  0.7957747E-01  0.3455499E+00
         13   -1    0    0    0    0  0.00000000000E+00  0.00000000000E+00  0.14999999963E+04  0.15000000000E+04  0.10566000000E+00 0. -1.
        994   -1    0    0    0    0 -0.00000000000E+00 -0.00000000000E+00  0.11368683772E-12  0.17120000000E+03  0.17120000000E+03 0.  0.
         13    1    1    2    0    0 -0.21161633767E+02  0.91238129999E+01  0.55568576067E+02  0.60157597338E+02  0.10566000000E+00 0. -1.
        994    1    1    2    0    0  0.18085588876E+02  0.46485708184E+01  0.58062130990E+01  0.17231323178E+03  0.17120000000E+03 0.  0.
        998    1    1    2    0    0  0.30760448913E+01 -0.13772383818E+02  0.14386252071E+04  0.14387291709E+04  0.10000000000E+02 0. -1.
</event>
<event>
 5    1  0.1574792E-008  0.3848536E+03  0.7957747E-01  0.3430293E+00
         13   -1    0    0    0    0  0.00000000000E+00  0.00000000000E+00  0.14999999963E+04  0.15000000000E+04  0.10566000000E+00 0. -1.
        994   -1    0    0    0    0 -0.00000000000E+00 -0.00000000000E+00  0.11368683772E-12  0.17120000000E+03  0.17120000000E+03 0.  0.
         13    1    1    2    0    0  0.11081494158E+02 -0.75740733084E+00  0.36527882665E+02  0.38179451996E+02  0.10566000000E+00 0. -1.
        994    1    1    2    0    0 -0.47256400105E+01 -0.39493542689E+01  0.18276572983E+01  0.17132048740E+03  0.17120000000E+03 0.  0.
        998    1    1    2    0    0 -0.63558541479E+01  0.47067615997E+01  0.14616444563E+04  0.14617000606E+04  0.10000000000E+02 0. -1.
</event>
<event>
 5    1  0.1574792E-008  0.3767139E+03  0.7957747E-01  0.3465593E+00
         13   -1    0    0    0    0  0.00000000000E+00  0.00000000000E+00  0.14999999963E+04  0.15000000000E+04  0.10566000000E+00 0.  1.
        994   -1    0    0    0    0 -0.00000000000E+00 -0.00000000000E+00  0.11368683772E-12  0.17120000000E+03  0.17120000000E+03 0.  0.
         13    1    1    2    0    0  0.19451262702E+02 -0.56829228780E+02  0.15095038554E+03  0.16246212766E+03  0.10566000000E+00 0.  1.
        994    1    1    2    0    0  0.51073749364E+01 -0.22023410624E+02  0.16365879113E+02  0.17346007579E+03  0.17120000000E+03 0.  0.
        998    1    1    2    0    0 -0.24558637638E+02  0.78852639404E+02  0.13326837316E+04  0.13352777965E+04  0.10000000000E+02 0.  1.
</event>
<event>
 5    1  0.1574792E-008  0.3838189E+03  0.7957747E-01  0.3434697E+00
         13   -1    0    0    0    0  0.00000000000E+00  0.00000000000E+00  0.14999999963E+04  0.15000000000E+04  0.10566000000E+00 0.  1.
        994   -1    0    0    0    0 -0.00000000000E+00 -0.00000000000E+00  0.11368683772E-12  0.17120000000E+03  0.17120000000E+03 0.  0.
         13    1    1    2    0    0 -0.10866063621E+02 -0.94953828559E+01  0.47037458763E+02  0.49201293937E+02  0.10566000000E+00 0.  1.
        994    1    1    2    0    0  0.11077163343E+02 -0.23505581557E+01  0.26411148490E+01  0.17159441762E+03  0.17120000000E+03 0.  0.
        998    1    1    2    0    0 -0.21109972263E+00  0.11845941012E+02  0.14503214227E+04  0.14504042884E+04  0.10000000000E+02 0.  1.
</event>
<event>
 5    1  0.1574792E-008  0.3754553E+03  0.7957747E-01  0.3471189E+00
         13   -1    0    0    0    0  0.00000000000E+00  0.00000000000E+00  0.14999999963E+04  0.15000000000E+04  0.10566000000E+00 0.  1.
        994   -1    0    0    0    0 -0.00000000000E+00 -0.00000000000E+00  0.11368683772E-12  0.17120000000E+03  0.17120000000E+03 0.  0.
         13    1    1    2    0    0 -0.11461675515E+02 -0.10664803059E+01 -0.16794866573E+01  0.11633538813E+02  0.10566000000E+00 0.  1.
        994    1    1    2    0    0  0.12180160443E+02 -0.66890594494E+00  0.14383503804E+02  0.17223567843E+03  0.17120000000E+03 0.  0.
        998    1    1    2    0    0 -0.71848492860E+00  0.17353862508E+01  0.14872959791E+04  0.14873307828E+04  0.10000000000E+02 0.  1.
</event>
<event>
 5    1  0.1574792E-008  0.3848307E+03  0.7957747E-01  0.3430391E+00
         13   -1    0    0    0    0  0.00000000000E+00  0.00000000000E+00  0.14999999963E+04  0.15000000000E+04  0.10566000000E+00 0. -1.
        994   -1    0    0    0    0 -0.00000000000E+00 -0.00000000000E+00  0.11368683772E-12  0.17120000000E+03  0.17120000000E+03 0.  0.
         13    1    1    2    0    0 -0.82339709539E+01 -0.13621051878E+02  0.75575942583E+02  0.77233837100E+02  0.10566000000E+00 0. -1.
        994    1    1    2    0    0  0.36729306599E+01  0.58319683112E+01  0.18705611544E+01  0.17134888757E+03  0.17120000000E+03 0.  0.
        998    1    1    2    0    0  0.45610402940E+01  0.77890835668E+01  0.14225534925E+04  0.14226172753E+04  0.10000000000E+02 0. -1.
</event>
<event>
 5    1  0.1574792E-008  0.3838802E+03  0.7957747E-01  0.3434435E+00
         13   -1    0    0    0    0  0.00000000000E+00  0.00000000000E+00  0.14999999963E+04  0.15000000000E+04  0.10566000000E+00 0. -1.
        994   -1    0    0    0    0 -0.00000000000E+00 -0.00000000000E+00  0.11368683772E-12  0.17120000000E+03  0.17120000000E+03 0.  0.
         13    1    1    2    0    0 -0.31822080454E+01 -0.28729347882E+02  0.16632296777E+03  0.16881600235E+03  0.10566000000E+00 0. -1.
        994    1    1    2    0    0 -0.31747915089E+02  0.38935591267E+02  0.10562565335E+02  0.17873141348E+03  0.17120000000E+03 0.  0.
        998    1    1    2    0    0  0.34930123135E+02 -0.10206243385E+02  0.13231144632E+04  0.13236525842E+04  0.10000000000E+02 0. -1.
</event>
<event>
 5    1  0.1574792E-008  0.3843693E+03  0.7957747E-01  0.3432351E+00
         13   -1    0    0    0    0  0.00000000000E+00  0.00000000000E+00  0.14999999963E+04  0.15000000000E+04  0.10566000000E+00 0. -1.
        994   -1    0    0    0    0 -0.00000000000E+00 -0.00000000000E+00  0.11368683772E-12  0.17120000000E+03  0.17120000000E+03 0.  0.
         13    1    1    2    0    0 -0.10300508655E+02  0.14387864401E+02  0.81689300935E+02  0.83583875071E+02  0.10566000000E+00 0. -1.
        994    1    1    2    0    0  0.46388888102E+01 -0.74132879295E+01  0.21956380919E+01  0.17143726828E+03  0.17120000000E+03 0.  0.
        998    1    1    2    0    0  0.56616198452E+01 -0.69745764713E+01  0.14161150573E+04  0.14161788567E+04  0.10000000000E+02 0. -1.
</event>
<event>
 5    1  0.1574792E-008  0.3776695E+03  0.7957747E-01  0.3461369E+00
         13   -1    0    0    0    0  0.00000000000E+00  0.00000000000E+00  0.14999999963E+04  0.15000000000E+04  0.10566000000E+00 0. -1.
        994   -1    0    0    0    0 -0.00000000000E+00 -0.00000000000E+00  0.11368683772E-12  0.17120000000E+03  0.17120000000E+03 0.  0.
         13    1    1    2    0    0  0.27295262903E+02 -0.29786254231E+02  0.14614619876E+03  0.15162775107E+03  0.10566000000E+00 0. -1.
        994    1    1    2    0    0 -0.22469652861E+02  0.20866814943E+02  0.84885030894E+01  0.17413157080E+03  0.17120000000E+03 0.  0.
        998    1    1    2    0    0 -0.48256100422E+01  0.89194392875E+01  0.13453652944E+04  0.13454406781E+04  0.10000000000E+02 0. -1.
</event>
<event>
 5    1  0.1574792E-008  0.3838121E+03  0.7957747E-01  0.3434726E+00
         13   -1    0    0    0    0  0.00000000000E+00  0.00000000000E+00  0.14999999963E+04  0.15000000000E+04  0.10566000000E+00 0. -1.
        994   -1    0    0    0    0 -0.00000000000E+00 -0.00000000000E+00  0.11368683772E-12  0.17120000000E+03  0.17120000000E+03 0.  0.
         13    1    1    2    0    0  0.17464321887E+02  0.75338959521E+01  0.87608794267E+02  0.89649730196E+02  0.10566000000E+00 0. -1.
        994    1    1    2    0    0 -0.31361464464E+01  0.74454388172E+01  0.24365925818E+01  0.17140783809E+03  0.17120000000E+03 0.  0.
        998    1    1    2    0    0 -0.14328175441E+02 -0.14979334769E+02  0.14099546094E+04  0.14101424317E+04  0.10000000000E+02 0. -1.
</event>
<event>
 5    1  0.1574792E-008  0.3803428E+03  0.7957747E-01  0.3449667E+00
         13   -1    0    0    0    0  0.00000000000E+00  0.00000000000E+00  0.14999999963E+04  0.15000000000E+04  0.10566000000E+00 0. -1.
        994   -1    0    0    0    0 -0.00000000000E+00 -0.00000000000E+00  0.11368683772E-12  0.17120000000E+03  0.17120000000E+03 0.  0.
         13    1    1    2    0    0 -0.12398733569E+02  0.24013663017E+02  0.95349357904E+02  0.99105478266E+02  0.10566000000E+00 0. -1.
        994    1    1    2    0    0  0.16952407706E+01 -0.72290045977E+01  0.41443370777E+01  0.17141104946E+03  0.17120000000E+03 0.  0.
        998    1    1    2    0    0  0.10703492798E+02 -0.16784658419E+02  0.14005063013E+04  0.14006834723E+04  0.10000000000E+02 0. -1.
</event>
<event>
 5    1  0.1574792E-008  0.3765345E+03  0.7957747E-01  0.3466388E+00
         13   -1    0    0    0    0  0.00000000000E+00  0.00000000000E+00  0.14999999963E+04  0.15000000000E+04  0.10566000000E+00 0.  1.
        994   -1    0    0    0    0 -0.00000000000E+00 -0.00000000000E+00  0.11368683772E-12  0.17120000000E+03  0.17120000000E+03 0.  0.
         13    1    1    2    0    0 -0.24541754441E+02 -0.51228117418E+01  0.51303010072E+02  0.57101233942E+02  0.10566000000E+00 0.  1.
        994    1    1    2    0    0  0.16001827429E+02 -0.36344715002E+01  0.68039259714E+01  0.17211914848E+03  0.17120000000E+03 0.  0.
        998    1    1    2    0    0  0.85399270118E+01  0.87572832420E+01  0.14418930602E+04  0.14419796176E+04  0.10000000000E+02 0.  1.
</event>
<event>
 5    1  0.4426351E-008  0.3861663E+03  0.7957747E-01  0.3424741E+00
         13   -1    0    0    0    0  0.00000000000E+00  0.00000000000E+00  0.14999999963E+04  0.15000000000E+04  0.10566000000E+00 0. -1.
        994   -1    0    0    0    0 -0.00000000000E+00 -0.00000000000E+00  0.11368683772E-12  0.17120000000E+03  0.17120000000E+03 0.  0.
         13    1    1    2    0    0 -0.10534611258E+02  0.73054231015E+00  0.53512472562E+02  0.54544547025E+02  0.10566000000E+00 0. -1.
        994    1    1    2    0    0  0.77020850050E+01 -0.15161498017E+01  0.12541174830E+01  0.17138446147E+03  0.17120000000E+03 0.  0.
        998    1    1    2    0    0  0.28325262534E+01  0.78560749155E+00  0.14452334062E+04  0.14452709915E+04  0.10000000000E+02 0. -1.
</event>
<event>
 5    1  0.1574792E-008  0.3796017E+03  0.7957747E-01  0.3452895E+00
         13   -1    0    0    0    0  0.00000000000E+00  0.00000000000E+00  0.14999999963E+04  0.15000000000E+04  0.10566000000E+00 0.  1.
        994   -1    0    0    0    0 -0.00000000000E+00 -0.00000000000E+00  0.11368683772E-12  0.17120000000E+03  0.17120000000E+03 0.  0.
         13    1    1    2    0    0 -0.17942843876E+02  0.11497444755E+02  0.51116622448E+02  0.55381017838E+02  0.10566000000E+00 0.  1.
        994    1    1    2    0    0  0.14857873311E+02  0.89485865769E+00  0.50763107714E+01  0.17192081346E+03  0.17120000000E+03 0.  0.
        998    1    1    2    0    0  0.30849705647E+01 -0.12392303413E+02  0.14438070631E+04  0.14438981687E+04  0.10000000000E+02 0.  1.
</event>
<event>
 5    1  0.1574792E-008  0.3853547E+03  0.7957747E-01  0.3428169E+00
         13   -1    0    0    0    0  0.00000000000E+00  0.00000000000E+00  0.14999999963E+04  0.15000000000E+04  0.10566000000E+00 0. -1.
        994   -1    0    0    0    0 -0.00000000000E+00 -0.00000000000E+00  0.11368683772E-12  0.17120000000E+03  0.17120000000E+03 0.  0.
         13    1    1    2    0    0 -0.62130297814E+00  0.10792941750E+02  0.39994201217E+02  0.41429710402E+02  0.10566000000E+00 0. -1.
        994    1    1    2    0    0 -0.39220682590E+01 -0.86674836350E+01  0.17514945994E+01  0.17147307551E+03  0.17120000000E+03 0.  0.
        998    1    1    2    0    0  0.45433712371E+01 -0.21254581155E+01  0.14582543005E+04  0.14582972141E+04  0.10000000000E+02 0. -1.
</event>
<event>
 5    1  0.1574792E-008  0.3852748E+03  0.7957747E-01  0.3428507E+00
         13   -1    0    0    0    0  0.00000000000E+00  0.00000000000E+00  0.14999999963E+04  0.15000000000E+04  0.10566000000E+00 0.  1.
        994   -1    0    0    0    0 -0.00000000000E+00 -0.00000000000E+00  0.11368683772E-12  0.17120000000E+03  0.17120000000E+03 0.  0.
         13    1    1    2    0    0 -0.27404109026E+01 -0.10848289903E+02  0.41243562285E+02  0.42734504089E+02  0.10566000000E+00 0.  1.
        994    1    1    2    0    0 -0.74807849156E+01  0.12962770279E+02  0.22300794626E+01  0.17186741637E+03  0.17120000000E+03 0.  0.
        998    1    1    2    0    0  0.10221195818E+02 -0.21144803764E+01  0.14565263545E+04  0.14565980795E+04  0.10000000000E+02 0.  1.
</event>
<event>
 5    1  0.1574792E-008  0.3792877E+03  0.7957747E-01  0.3454266E+00
         13   -1    0    0    0    0  0.00000000000E+00  0.00000000000E+00  0.14999999963E+04  0.15000000000E+04  0.10566000000E+00 0.  1.
        994   -1    0    0    0    0 -0.00000000000E+00 -0.00000000000E+00  0.11368683772E-12  0.17120000000E+03  0.17120000000E+03 0.  0.
         13    1    1    2    0    0  0.26310192429E+02 -0.14131578658E+02  0.10937616224E+03  0.11338026182E+03  0.10566000000E+00 0.  1.
        994    1    1    2    0    0 -0.26917234262E+01 -0.11843856267E+02  0.49876210306E+01  0.17170276256E+03  0.17120000000E+03 0.  0.
        998    1    1    2    0    0 -0.23618469002E+02  0.25975434925E+02  0.13856362130E+04  0.13861169756E+04  0.10000000000E+02 0.  1.
</event>
<event>
 5    1  0.1574792E-008  0.3905960E+03  0.7957747E-01  0.3406280E+00
         13   -1    0    0    0    0  0.00000000000E+00  0.00000000000E+00  0.14999999963E+04  0.15000000000E+04  0.10566000000E+00 0.  1.
        994   -1    0    0    0    0 -0.00000000000E+00 -0.00000000000E+00  0.11368683772E-12  0.17120000000E+03  0.17120000000E+03 0.  0.
         13    1    1    2    0    0  0.63221034480E+02  0.11269872328E+03  0.48767296948E+03  0.50450256467E+03  0.10566000000E+00 0.  1.
        994    1    1    2    0    0  0.31255204828E+02 -0.62617077573E+02  0.40987961802E+02  0.18943927588E+03  0.17120000000E+03 0.  0.
        998    1    1    2    0    0 -0.94476239308E+02 -0.50081645712E+02  0.97133906499E+03  0.97725815945E+03  0.10000000000E+02 0.  1.
</event>
<event>
 5    1  0.1574792E-008  0.3835922E+03  0.7957747E-01  0.3435665E+00
         13   -1    0    0    0    0  0.00000000000E+00  0.00000000000E+00  0.14999999963E+04  0.15000000000E+04  0.10566000000E+00 0.  1.
        994   -1    0    0    0    0 -0.00000000000E+00 -0.00000000000E+00  0.11368683772E-12  0.17120000000E+03  0.17120000000E+03 0.  0.
         13    1    1    2    0    0 -0.15387332896E+02  0.12836226257E+02  0.90070739931E+02  0.92272899998E+02  0.10566000000E+00 0.  1.
        994    1    1    2    0    0  0.94391648973E+01  0.39419069853E+01  0.26764771173E+01  0.17152620789E+03  0.17120000000E+03 0.  0.
        998    1    1    2    0    0  0.59481679983E+01 -0.16778133242E+02  0.14072527792E+04  0.14074008921E+04  0.10000000000E+02 0.  1.
</event>
<event>
 5    1  0.1574792E-008  0.3748445E+03  0.7957747E-01  0.3473919E+00
         13   -1    0    0    0    0  0.00000000000E+00  0.00000000000E+00  0.14999999963E+04  0.15000000000E+04  0.10566000000E+00 0. -1.
        994   -1    0    0    0    0 -0.00000000000E+00 -0.00000000000E+00  0.11368683772E-12  0.17120000000E+03  0.17120000000E+03 0.  0.
         13    1    1    2    0    0 -0.27529095074E+00  0.32243872006E+02  0.74560143245E+02  0.81234039612E+02  0.10566000000E+00 0. -1.
        994    1    1    2    0    0 -0.51042434049E+01 -0.19929894521E+02  0.81994213736E+01  0.17262654636E+03  0.17120000000E+03 0.  0.
        998    1    1    2    0    0  0.53795343557E+01 -0.12313977484E+02  0.14172404317E+04  0.14173394140E+04  0.10000000000E+02 0. -1.
</event>
<event>
 5    1  0.1574792E-008  0.3822965E+03  0.7957747E-01  0.3441219E+00
         13   -1    0    0    0    0  0.00000000000E+00  0.00000000000E+00  0.14999999963E+04  0.15000000000E+04  0.10566000000E+00 0.  1.
        994   -1    0    0    0    0 -0.00000000000E+00 -0.00000000000E+00  0.11368683772E-12  0.17120000000E+03  0.17120000000E+03 0.  0.
         13    1    1    2    0    0  0.15181170005E+02  0.17351449008E+02  0.92286116901E+02  0.95122443419E+02  0.10566000000E+00 0.  1.
        994    1    1    2    0    0 -0.24178295054E+02  0.11410206298E+02  0.53534052256E+01  0.17335766988E+03  0.17120000000E+03 0.  0.
        998    1    1    2    0    0  0.89971250491E+01 -0.28761655306E+02  0.14023604742E+04  0.14027198867E+04  0.10000000000E+02 0.  1.
</event>
<event>
 5    1  0.1574792E-008  0.3731967E+03  0.7957747E-01  0.3481327E+00
         13   -1    0    0    0    0  0.00000000000E+00  0.00000000000E+00  0.14999999963E+04  0.15000000000E+04  0.10566000000E+00 0. -1.
        994   -1    0    0    0    0 -0.00000000000E+00 -0.00000000000E+00  0.11368683772E-12  0.17120000000E+03  0.17120000000E+03 0.  0.
         13    1    1    2    0    0 -0.41868292202E+01  0.21680896626E+02  0.29386711413E+02  0.36758411134E+02  0.10566000000E+00 0. -1.
        994    1    1    2    0    0  0.98900004825E+01 -0.70328784982E+01  0.81115118474E+01  0.17182115735E+03  0.17120000000E+03 0.  0.
        998    1    1    2    0    0 -0.57031712623E+01 -0.14648018128E+02  0.14625017730E+04  0.14626204315E+04  0.10000000000E+02 0. -1.
</event>
<event>
 5    1  0.1574792E-008  0.3695801E+03  0.7957747E-01  0.3497823E+00
         13   -1    0    0    0    0  0.00000000000E+00  0.00000000000E+00  0.14999999963E+04  0.15000000000E+04  0.10566000000E+00 0. -1.
        994   -1    0    0    0    0 -0.00000000000E+00 -0.00000000000E+00  0.11368683772E-12  0.17120000000E+03  0.17120000000E+03 0.  0.
         13    1    1    2    0    0  0.34897663735E+02 -0.50091489392E+02  0.17527795347E+03  0.18560543198E+03  0.10566000000E+00 0. -1.
        994    1    1    2    0    0  0.66452004405E+01  0.42529677436E+02  0.17213261706E+02  0.17736591705E+03  0.17120000000E+03 0.  0.
        998    1    1    2    0    0 -0.41542864176E+02  0.75618119559E+01  0.13075087811E+04  0.13082286510E+04  0.10000000000E+02 0. -1.
</event>
<event>
 5    1  0.1574792E-008  0.3787472E+03  0.7957747E-01  0.3456632E+00
         13   -1    0    0    0    0  0.00000000000E+00  0.00000000000E+00  0.14999999963E+04  0.15000000000E+04  0.10566000000E+00 0.  1.
        994   -1    0    0    0    0 -0.00000000000E+00 -0.00000000000E+00  0.11368683772E-12  0.17120000000E+03  0.17120000000E+03 0.  0.
         13    1    1    2    0    0 -0.21745033839E+02 -0.60620290890E+01  0.51096844515E+02  0.55861376431E+02  0.10566000000E+00 0.  1.
        994    1    1    2    0    0  0.16681093813E+02  0.58496821332E+01  0.58165242444E+01  0.17220844818E+03  0.17120000000E+03 0.  0.
        998    1    1    2    0    0  0.50639400261E+01  0.21234695582E+00  0.14430866275E+04  0.14431301754E+04  0.10000000000E+02 0.  1.
</event>
<event>
 5    1  0.1574792E-008  0.3788586E+03  0.7957747E-01  0.3456143E+00
         13   -1    0    0    0    0  0.00000000000E+00  0.00000000000E+00  0.14999999963E+04  0.15000000000E+04  0.10566000000E+00 0. -1.
        994   -1    0    0    0    0 -0.00000000000E+00 -0.00000000000E+00  0.11368683772E-12  0.17120000000E+03  0.17120000000E+03 0.  0.
         13    1    1    2    0    0 -0.24777688810E+02  0.10781081041E+02  0.71671025276E+02  0.76595774031E+02  0.10566000000E+00 0. -1.
        994    1    1    2    0    0  0.18611299983E+02 -0.33946515406E+02  0.97560562557E+01  0.17579353523E+03  0.17120000000E+03 0.  0.
        998    1    1    2    0    0  0.61663888273E+01  0.23165434365E+02  0.14185729147E+04  0.14188106907E+04  0.10000000000E+02 0. -1.
</event>
<event>
 5    1  0.1574792E-008  0.3795352E+03  0.7957747E-01  0.3453185E+00
         13   -1    0    0    0    0  0.00000000000E+00  0.00000000000E+00  0.14999999963E+04  0.15000000000E+04  0.10566000000E+00 0.  1.
        994   -1    0    0    0    0 -0.00000000000E+00 -0.00000000000E+00  0.11368683772E-12  0.17120000000E+03  0.17120000000E+03 0.  0.
         13    1    1    2    0    0  0.39289101692E+02 -0.37559887597E+00  0.17271357028E+03  0.17712640433E+03  0.10566000000E+00 0.  1.
        994    1    1    2    0    0 -0.25181508989E+02  0.15474371966E+02  0.72982293537E+01  0.17388579222E+03  0.17120000000E+03 0.  0.
        998    1    1    2    0    0 -0.14107592703E+02 -0.15098773090E+02  0.13199881966E+04  0.13201878035E+04  0.10000000000E+02 0.  1.
</event>
