<event>
 5    1  0.1338054E-008  0.3853135E+03  0.7957747E-01  0.3428344E+00
         13   -1    0    0    0    0  0.00000000000E+00  0.00000000000E+00  0.14999999963E+04  0.15000000000E+04  0.10566000000E+00 0. -1.
        994   -1    0    0    0    0 -0.00000000000E+00 -0.00000000000E+00  0.11368683772E-12  0.17120000000E+03  0.17120000000E+03 0.  0.
         13    1    1    2    0    0 -0.10806091812E+02  0.18274263171E+01  0.40356918582E+02  0.41818693770E+02  0.10566000000E+00 0. -1.
        994    1    1    2    0    0  0.99201298250E+01  0.30228789613E+01  0.18279566817E+01  0.17152354998E+03  0.17120000000E+03 0.  0.
        998    1    1    2    0    0  0.88596198729E+00 -0.48503052784E+01  0.14578151210E+04  0.14578577562E+04  0.10000000000E+02 0. -1.
</event>
<event>
 5    1  0.1338054E-008  0.3735669E+03  0.7957747E-01  0.3479657E+00
         13   -1    0    0    0    0  0.00000000000E+00  0.00000000000E+00  0.14999999963E+04  0.15000000000E+04  0.10566000000E+00 0.  1.
        994   -1    0    0    0    0 -0.00000000000E+00 -0.00000000000E+00  0.11368683772E-12  0.17120000000E+03  0.17120000000E+03 0.  0.
         13    1    1    2    0    0  0.30248842355E+01 -0.75820100469E+02  0.17060164937E+03  0.18671575052E+03  0.10566000000E+00 0.  1.
        994    1    1    2    0    0  0.22977859168E+02  0.10641322950E+03  0.56075232896E+02  0.21048902387E+03  0.17120000000E+03 0.  0.
        998    1    1    2    0    0 -0.26002743404E+02 -0.30593129031E+02  0.12733231140E+04  0.12739952256E+04  0.10000000000E+02 0.  1.
</event>
<event>
 5    1  0.1338054E-008  0.3822104E+03  0.7957747E-01  0.3441590E+00
         13   -1    0    0    0    0  0.00000000000E+00  0.00000000000E+00  0.14999999963E+04  0.15000000000E+04  0.10566000000E+00 0.  1.
        994   -1    0    0    0    0 -0.00000000000E+00 -0.00000000000E+00  0.11368683772E-12  0.17120000000E+03  0.17120000000E+03 0.  0.
         13    1    1    2    0    0  0.24101049963E+01 -0.10870875056E+02  0.19051270967E+02  0.22066867020E+02  0.10566000000E+00 0.  1.
        994    1    1    2    0    0 -0.82130591349E+00  0.12900710790E+02  0.35762680119E+01  0.17172458349E+03  0.17120000000E+03 0.  0.
        998    1    1    2    0    0 -0.15887990828E+01 -0.20298357342E+01  0.14773724573E+04  0.14774085495E+04  0.10000000000E+02 0.  1.
</event>
<event>
 5    1  0.1338054E-008  0.3854857E+03  0.7957747E-01  0.3427615E+00
         13   -1    0    0    0    0  0.00000000000E+00  0.00000000000E+00  0.14999999963E+04  0.15000000000E+04  0.10566000000E+00 0.  1.
        994   -1    0    0    0    0 -0.00000000000E+00 -0.00000000000E+00  0.11368683772E-12  0.17120000000E+03  0.17120000000E+03 0.  0.
         13    1    1    2    0    0 -0.84739882595E+01  0.13013203737E+02  0.84606378467E+02  0.86019779062E+02  0.10566000000E+00 0.  1.
        994    1    1    2    0    0  0.66588711665E+01 -0.12382742656E+02  0.20385203254E+01  0.17178844096E+03  0.17120000000E+03 0.  0.
        998    1    1    2    0    0  0.18151170930E+01 -0.63046108040E+00  0.14133550975E+04  0.14133917800E+04  0.10000000000E+02 0.  1.
</event>
<event>
 5    1  0.1338054E-008  0.3978307E+03  0.7957747E-01  0.3377014E+00
         13   -1    0    0    0    0  0.00000000000E+00  0.00000000000E+00  0.14999999963E+04  0.15000000000E+04  0.10566000000E+00 0. -1.
        994   -1    0    0    0    0 -0.00000000000E+00 -0.00000000000E+00  0.11368683772E-12  0.17120000000E+03  0.17120000000E+03 0.  0.
         13    1    1    2    0    0 -0.30859810989E+02  0.57326733962E+01  0.75102234869E+01  0.32273922901E+02  0.10566000000E+00 0. -1.
        994    1    1    2    0    0  0.26741759173E+02 -0.15950052921E+02  0.30259287621E+02  0.17661990363E+03  0.17120000000E+03 0.  0.
        998    1    1    2    0    0  0.41180518163E+01  0.10217379525E+02  0.14622304852E+04  0.14623061735E+04  0.10000000000E+02 0. -1.
</event>
<event>
 5    1  0.1338054E-008  0.3810342E+03  0.7957747E-01  0.3446668E+00
         13   -1    0    0    0    0  0.00000000000E+00  0.00000000000E+00  0.14999999963E+04  0.15000000000E+04  0.10566000000E+00 0.  1.
        994   -1    0    0    0    0 -0.00000000000E+00 -0.00000000000E+00  0.11368683772E-12  0.17120000000E+03  0.17120000000E+03 0.  0.
         13    1    1    2    0    0 -0.78464020043E-01 -0.45774419867E+02  0.22172315696E+03  0.22639892483E+03  0.10566000000E+00 0.  1.
        994    1    1    2    0    0 -0.11270628111E+02  0.59679514565E+02  0.16000077902E+02  0.18235710573E+03  0.17120000000E+03 0.  0.
        998    1    1    2    0    0  0.11349092131E+02 -0.13905094698E+02  0.12622767614E+04  0.12624439694E+04  0.10000000000E+02 0.  1.
</event>
<event>
 5    1  0.1338054E-008  0.3820894E+03  0.7957747E-01  0.3442111E+00
         13   -1    0    0    0    0  0.00000000000E+00  0.00000000000E+00  0.14999999963E+04  0.15000000000E+04  0.10566000000E+00 0.  1.
        994   -1    0    0    0    0 -0.00000000000E+00 -0.00000000000E+00  0.11368683772E-12  0.17120000000E+03  0.17120000000E+03 0.  0.
         13    1    1    2    0    0  0.11577519444E+02  0.27805752275E+02  0.13937135561E+03  0.14258886613E+03  0.10566000000E+00 0.  1.
        994    1    1    2    0    0  0.31842311944E+01 -0.28522636468E+02  0.58215472784E+01  0.17368652951E+03  0.17120000000E+03 0.  0.
        998    1    1    2    0    0 -0.14761750638E+02  0.71688419285E+00  0.13548070934E+04  0.13549246044E+04  0.10000000000E+02 0.  1.
</event>
<event>
 5    1  0.1338054E-008  0.3756999E+03  0.7957747E-01  0.3470098E+00
         13   -1    0    0    0    0  0.00000000000E+00  0.00000000000E+00  0.14999999963E+04  0.15000000000E+04  0.10566000000E+00 0. -1.
        994   -1    0    0    0    0 -0.00000000000E+00 -0.00000000000E+00  0.11368683772E-12  0.17120000000E+03  0.17120000000E+03 0.  0.
         13    1    1    2    0    0 -0.18144621712E+01  0.31430153100E+02  0.73808081876E+02  0.80242076937E+02  0.10566000000E+00 0. -1.
        994    1    1    2    0    0 -0.18450604347E+02 -0.29079824921E+02  0.10352475188E+02  0.17493620197E+03  0.17120000000E+03 0.  0.
        998    1    1    2    0    0  0.20265066518E+02 -0.23503281794E+01  0.14158394392E+04  0.14160217211E+04  0.10000000000E+02 0. -1.
</event>
<event>
 5    1  0.1338054E-008  0.3852528E+03  0.7957747E-01  0.3428601E+00
         13   -1    0    0    0    0  0.00000000000E+00  0.00000000000E+00  0.14999999963E+04  0.15000000000E+04  0.10566000000E+00 0. -1.
        994   -1    0    0    0    0 -0.00000000000E+00 -0.00000000000E+00  0.11368683772E-12  0.17120000000E+03  0.17120000000E+03 0.  0.
         13    1    1    2    0    0 -0.69633515864E+01  0.13910837608E+02  0.75818976776E+02  0.77398501740E+02  0.10566000000E+00 0. -1.
        994    1    1    2    0    0  0.19688901340E+01 -0.20259897272E+02  0.28673554529E+01  0.17242970073E+03  0.17120000000E+03 0.  0.
        998    1    1    2    0    0  0.49944614525E+01  0.63490596640E+01  0.14213136640E+04  0.14213717975E+04  0.10000000000E+02 0. -1.
</event>
<event>
 5    1  0.1338054E-008  0.3778232E+03  0.7957747E-01  0.3460692E+00
         13   -1    0    0    0    0  0.00000000000E+00  0.00000000000E+00  0.14999999963E+04  0.15000000000E+04  0.10566000000E+00 0.  1.
        994   -1    0    0    0    0 -0.00000000000E+00 -0.00000000000E+00  0.11368683772E-12  0.17120000000E+03  0.17120000000E+03 0.  0.
         13    1    1    2    0    0 -0.12618034816E+02 -0.16962046811E+02  0.37425039243E+02  0.42983375403E+02  0.10566000000E+00 0.  1.
        994    1    1    2    0    0  0.27068885789E+02  0.30172536450E+02  0.10788627425E+02  0.17626383922E+03  0.17120000000E+03 0.  0.
        998    1    1    2    0    0 -0.14450850973E+02 -0.13210489639E+02  0.14517863296E+04  0.14519527854E+04  0.10000000000E+02 0.  1.
</event>
<event>
 5    1  0.1338054E-008  0.3856009E+03  0.7957747E-01  0.3427128E+00
         13   -1    0    0    0    0  0.00000000000E+00  0.00000000000E+00  0.14999999963E+04  0.15000000000E+04  0.10566000000E+00 0. -1.
        994   -1    0    0    0    0 -0.00000000000E+00 -0.00000000000E+00  0.11368683772E-12  0.17120000000E+03  0.17120000000E+03 0.  0.
         13    1    1    2    0    0 -0.15377489042E+02 -0.38943275393E+00  0.87924149239E+02  0.89259654999E+02  0.10566000000E+00 0. -1.
        994    1    1    2    0    0  0.11924571298E+02  0.21976515303E+01  0.18147952365E+01  0.17163845302E+03  0.17120000000E+03 0.  0.
        998    1    1    2    0    0  0.34529177441E+01 -0.18082187764E+01  0.14102610518E+04  0.14103018920E+04  0.10000000000E+02 0. -1.
</event>
<event>
 5    1  0.1338054E-008  0.3707967E+03  0.7957747E-01  0.3492237E+00
         13   -1    0    0    0    0  0.00000000000E+00  0.00000000000E+00  0.14999999963E+04  0.15000000000E+04  0.10566000000E+00 0.  1.
        994   -1    0    0    0    0 -0.00000000000E+00 -0.00000000000E+00  0.11368683772E-12  0.17120000000E+03  0.17120000000E+03 0.  0.
         13    1    1    2    0    0  0.34380767578E+02  0.33074024601E+02  0.91791811660E+02  0.10344890591E+03  0.10566000000E+00 0.  1.
        994    1    1    2    0    0 -0.36751404169E+02 -0.25897323641E+02  0.18480799923E+02  0.17796717969E+03  0.17120000000E+03 0.  0.
        998    1    1    2    0    0  0.23706365914E+01 -0.71767009595E+01  0.13897273847E+04  0.13897839144E+04  0.10000000000E+02 0.  1.
</event>
<event>
 5    1  0.1338054E-008  0.3827740E+03  0.7957747E-01  0.3439168E+00
         13   -1    0    0    0    0  0.00000000000E+00  0.00000000000E+00  0.14999999963E+04  0.15000000000E+04  0.10566000000E+00 0.  1.
        994   -1    0    0    0    0 -0.00000000000E+00 -0.00000000000E+00  0.11368683772E-12  0.17120000000E+03  0.17120000000E+03 0.  0.
         13    1    1    2    0    0 -0.11507562493E+02  0.74393492348E+00  0.22282963152E+02  0.25090218105E+02  0.10566000000E+00 0.  1.
        994    1    1    2    0    0  0.22452283104E+02  0.13354733148E+02  0.50032864635E+01  0.17325393730E+03  0.17120000000E+03 0.  0.
        998    1    1    2    0    0 -0.10944720611E+02 -0.14098668071E+02  0.14727137467E+04  0.14728558446E+04  0.10000000000E+02 0.  1.
</event>
<event>
 5    1  0.1338054E-008  0.3815938E+03  0.7957747E-01  0.3444248E+00
         13   -1    0    0    0    0  0.00000000000E+00  0.00000000000E+00  0.14999999963E+04  0.15000000000E+04  0.10566000000E+00 0.  1.
        994   -1    0    0    0    0 -0.00000000000E+00 -0.00000000000E+00  0.11368683772E-12  0.17120000000E+03  0.17120000000E+03 0.  0.
         13    1    1    2    0    0  0.14715483734E+02 -0.25280760345E+02  0.13908839239E+03  0.14213111682E+03  0.10566000000E+00 0.  1.
        994    1    1    2    0    0 -0.10511466515E+02 -0.77975954273E+00  0.37003144630E+01  0.17156407340E+03  0.17120000000E+03 0.  0.
        998    1    1    2    0    0 -0.42040172192E+01  0.26060519887E+02  0.13572112894E+04  0.13575048098E+04  0.10000000000E+02 0.  1.
</event>
<event>
 5    1  0.1338054E-008  0.3843542E+03  0.7957747E-01  0.3432416E+00
         13   -1    0    0    0    0  0.00000000000E+00  0.00000000000E+00  0.14999999963E+04  0.15000000000E+04  0.10566000000E+00 0.  1.
        994   -1    0    0    0    0 -0.00000000000E+00 -0.00000000000E+00  0.11368683772E-12  0.17120000000E+03  0.17120000000E+03 0.  0.
         13    1    1    2    0    0 -0.23284063798E+02 -0.96432244085E+01  0.14792669424E+03  0.15005818017E+03  0.10566000000E+00 0.  1.
        994    1    1    2    0    0  0.16115203782E+02  0.31771735915E+02  0.61448727682E+01  0.17497526242E+03  0.17120000000E+03 0.  0.
        998    1    1    2    0    0  0.71688600163E+01 -0.22128511507E+02  0.13459284293E+04  0.13461665574E+04  0.10000000000E+02 0.  1.
</event>
<event>
 5    1  0.1338054E-008  0.3773090E+03  0.7957747E-01  0.3462960E+00
         13   -1    0    0    0    0  0.00000000000E+00  0.00000000000E+00  0.14999999963E+04  0.15000000000E+04  0.10566000000E+00 0. -1.
        994   -1    0    0    0    0 -0.00000000000E+00 -0.00000000000E+00  0.11368683772E-12  0.17120000000E+03  0.17120000000E+03 0.  0.
         13    1    1    2    0    0 -0.79840042385E+02 -0.68657531012E+01  0.41228845288E+03  0.42000398865E+03  0.10566000000E+00 0. -1.
        994    1    1    2    0    0  0.81375165659E+02  0.10200336991E+02  0.28531155455E+02  0.19196205691E+03  0.17120000000E+03 0.  0.
        998    1    1    2    0    0 -0.15351232737E+01 -0.33345838895E+01  0.10591803879E+04  0.10592339544E+04  0.10000000000E+02 0.  0.
</event>
<event>
 5    1  0.1338054E-008  0.3833513E+03  0.7957747E-01  0.3436695E+00
         13   -1    0    0    0    0  0.00000000000E+00  0.00000000000E+00  0.14999999963E+04  0.15000000000E+04  0.10566000000E+00 0.  1.
        994   -1    0    0    0    0 -0.00000000000E+00 -0.00000000000E+00  0.11368683772E-12  0.17120000000E+03  0.17120000000E+03 0.  0.
         13    1    1    2    0    0  0.12162039119E+02  0.16456265029E+02  0.81728034489E+02  0.84250855424E+02  0.10566000000E+00 0.  1.
        994    1    1    2    0    0 -0.15759062916E+02 -0.12302592424E+02  0.37735393676E+01  0.17240470250E+03  0.17120000000E+03 0.  0.
        998    1    1    2    0    0  0.35970237978E+01 -0.41536726055E+01  0.14144984224E+04  0.14145444421E+04  0.10000000000E+02 0.  1.
</event>
<event>
 5    1  0.1338054E-008  0.3801308E+03  0.7957747E-01  0.3450589E+00
         13   -1    0    0    0    0  0.00000000000E+00  0.00000000000E+00  0.14999999963E+04  0.15000000000E+04  0.10566000000E+00 0.  1.
        994   -1    0    0    0    0 -0.00000000000E+00 -0.00000000000E+00  0.11368683772E-12  0.17120000000E+03  0.17120000000E+03 0.  0.
         13    1    1    2    0    0  0.14933967413E+02 -0.98522533594E+01  0.39236686235E+02  0.43123299847E+02  0.10566000000E+00 0.  1.
        994    1    1    2    0    0  0.31171608285E+00  0.22423678505E+01  0.40842625963E+01  0.17126367560E+03  0.17120000000E+03 0.  0.
        998    1    1    2    0    0 -0.15245683496E+02  0.76098855088E+01  0.14566790474E+04  0.14568130245E+04  0.10000000000E+02 0.  1.
</event>
<event>
 5    1  0.1338054E-008  0.3714568E+03  0.7957747E-01  0.3489222E+00
         13   -1    0    0    0    0  0.00000000000E+00  0.00000000000E+00  0.14999999963E+04  0.15000000000E+04  0.10566000000E+00 0. -1.
        994   -1    0    0    0    0 -0.00000000000E+00 -0.00000000000E+00  0.11368683772E-12  0.17120000000E+03  0.17120000000E+03 0.  0.
         13    1    1    2    0    0 -0.27969171102E+01  0.83666383594E+02  0.36661677012E+03  0.37605286036E+03  0.10566000000E+00 0. -1.
        994    1    1    2    0    0  0.34643646504E+02 -0.62843404291E+02  0.26439582094E+02  0.18750457916E+03  0.17120000000E+03 0.  0.
        998    1    1    2    0    0 -0.31846729394E+02 -0.20822979304E+02  0.11069436441E+04  0.11076425605E+04  0.10000000000E+02 0. -1.
</event>
<event>
 5    1  0.1338054E-008  0.3907537E+03  0.7957747E-01  0.3405631E+00
         13   -1    0    0    0    0  0.00000000000E+00  0.00000000000E+00  0.14999999963E+04  0.15000000000E+04  0.10566000000E+00 0.  1.
        994   -1    0    0    0    0 -0.00000000000E+00 -0.00000000000E+00  0.11368683772E-12  0.17120000000E+03  0.17120000000E+03 0.  0.
         13    1    1    2    0    0  0.21612459025E+02 -0.12793652273E+03  0.60013157375E+03  0.61399736906E+03  0.10566000000E+00 0.  1.
        994    1    1    2    0    0 -0.39301057446E+02  0.13541923618E+02  0.28912123567E+02  0.17853097126E+03  0.17120000000E+03 0.  0.
        998    1    1    2    0    0  0.17688598421E+02  0.11439459911E+03  0.87095629896E+03  0.87867165968E+03  0.10000000000E+02 0. -1.
</event>
<event>
 5    1  0.1338054E-008  0.3804217E+03  0.7957747E-01  0.3449325E+00
         13   -1    0    0    0    0  0.00000000000E+00  0.00000000000E+00  0.14999999963E+04  0.15000000000E+04  0.10566000000E+00 0. -1.
        994   -1    0    0    0    0 -0.00000000000E+00 -0.00000000000E+00  0.11368683772E-12  0.17120000000E+03  0.17120000000E+03 0.  0.
         13    1    1    2    0    0 -0.14277522274E+02 -0.19704929237E+02  0.75869991041E+02  0.79676838435E+02  0.10566000000E+00 0. -1.
        994    1    1    2    0    0  0.12488949844E+02  0.36853096057E+01  0.44866642450E+01  0.17175309468E+03  0.17120000000E+03 0.  0.
        998    1    1    2    0    0  0.17885724300E+01  0.16019619631E+02  0.14196433410E+04  0.14197700669E+04  0.10000000000E+02 0. -1.
</event>
<event>
 5    1  0.1338054E-008  0.3732325E+03  0.7957747E-01  0.3481165E+00
         13   -1    0    0    0    0  0.00000000000E+00  0.00000000000E+00  0.14999999963E+04  0.15000000000E+04  0.10566000000E+00 0.  1.
        994   -1    0    0    0    0 -0.00000000000E+00 -0.00000000000E+00  0.11368683772E-12  0.17120000000E+03  0.17120000000E+03 0.  0.
         13    1    1    2    0    0  0.17788521706E+01 -0.12488490814E+02  0.70816996539E+01  0.14466801715E+02  0.10566000000E+00 0.  1.
        994    1    1    2    0    0 -0.17621656590E+01  0.57882244559E+01  0.77143720591E+01  0.17148049541E+03  0.17120000000E+03 0.  0.
        998    1    1    2    0    0 -0.16686511659E-01  0.67002663579E+01  0.14852039246E+04  0.14852527029E+04  0.10000000000E+02 0.  1.
</event>
<event>
 5    1  0.1338054E-008  0.3840885E+03  0.7957747E-01  0.3433547E+00
         13   -1    0    0    0    0  0.00000000000E+00  0.00000000000E+00  0.14999999963E+04  0.15000000000E+04  0.10566000000E+00 0.  1.
        994   -1    0    0    0    0 -0.00000000000E+00 -0.00000000000E+00  0.11368683772E-12  0.17120000000E+03  0.17120000000E+03 0.  0.
         13    1    1    2    0    0 -0.13304620533E+02 -0.32674982245E+01  0.44875857215E+02  0.46920605250E+02  0.10566000000E+00 0.  1.
        994    1    1    2    0    0  0.67182135467E+01  0.53289940835E+01  0.23259541714E+01  0.17143040172E+03  0.17120000000E+03 0.  0.
        998    1    1    2    0    0  0.65864069864E+01 -0.20614958590E+01  0.14527981849E+04  0.14528489930E+04  0.10000000000E+02 0.  1.
</event>
<event>
 5    1  0.1338054E-008  0.3830921E+03  0.7957747E-01  0.3437805E+00
         13   -1    0    0    0    0  0.00000000000E+00  0.00000000000E+00  0.14999999963E+04  0.15000000000E+04  0.10566000000E+00 0. -1.
        994   -1    0    0    0    0 -0.00000000000E+00 -0.00000000000E+00  0.11368683772E-12  0.17120000000E+03  0.17120000000E+03 0.  0.
         13    1    1    2    0    0 -0.66050113431E+01 -0.21634174607E+02  0.10403974327E+03  0.10647038570E+03  0.10566000000E+00 0. -1.
        994    1    1    2    0    0  0.67116790340E+01  0.37724170823E+01  0.27765528601E+01  0.17139552798E+03  0.17120000000E+03 0.  0.
        998    1    1    2    0    0 -0.10666769082E+00  0.17861757525E+02  0.13931837001E+04  0.13933340863E+04  0.10000000000E+02 0. -1.
</event>
<event>
 5    1  0.1338054E-008  0.3826531E+03  0.7957747E-01  0.3439687E+00
         13   -1    0    0    0    0  0.00000000000E+00  0.00000000000E+00  0.14999999963E+04  0.15000000000E+04  0.10566000000E+00 0. -1.
        994   -1    0    0    0    0 -0.00000000000E+00 -0.00000000000E+00  0.11368683772E-12  0.17120000000E+03  0.17120000000E+03 0.  0.
         13    1    1    2    0    0 -0.84161087899E+01 -0.64500190826E+01  0.18936159832E+02  0.21703063069E+02  0.10566000000E+00 0. -1.
        994    1    1    2    0    0  0.69785603358E+01  0.50414706976E+01  0.30454758398E+01  0.17144337740E+03  0.17120000000E+03 0.  0.
        998    1    1    2    0    0  0.14375484541E+01  0.14085483850E+01  0.14780183606E+04  0.14780535595E+04  0.10000000000E+02 0. -1.
</event>
<event>
 5    1  0.1338054E-008  0.3813586E+03  0.7957747E-01  0.3445264E+00
         13   -1    0    0    0    0  0.00000000000E+00  0.00000000000E+00  0.14999999963E+04  0.15000000000E+04  0.10566000000E+00 0.  1.
        994   -1    0    0    0    0 -0.00000000000E+00 -0.00000000000E+00  0.11368683772E-12  0.17120000000E+03  0.17120000000E+03 0.  0.
         13    1    1    2    0    0  0.42057208605E+01 -0.11205507816E+02  0.19778850463E+02  0.23118511696E+02  0.10566000000E+00 0.  1.
        994    1    1    2    0    0  0.37490727152E+01  0.24347391607E+01  0.35154164052E+01  0.17129442972E+03  0.17120000000E+03 0.  0.
        998    1    1    2    0    0 -0.79547935757E+01  0.87707686554E+01  0.14767057294E+04  0.14767870586E+04  0.10000000000E+02 0.  1.
</event>
<event>
 5    1  0.1338054E-008  0.3840133E+03  0.7957747E-01  0.3433868E+00
         13   -1    0    0    0    0  0.00000000000E+00  0.00000000000E+00  0.14999999963E+04  0.15000000000E+04  0.10566000000E+00 0. -1.
        994   -1    0    0    0    0 -0.00000000000E+00 -0.00000000000E+00  0.11368683772E-12  0.17120000000E+03  0.17120000000E+03 0.  0.
         13    1    1    2    0    0 -0.95654969451E+01 -0.17624136350E+02  0.95178307161E+02  0.97267827322E+02  0.10566000000E+00 0. -1.
        994    1    1    2    0    0  0.16915659144E+02  0.40650330022E+01  0.31199942561E+01  0.17210996015E+03  0.17120000000E+03 0.  0.
        998    1    1    2    0    0 -0.73501621984E+01  0.13559103348E+02  0.14017016949E+04  0.14018222125E+04  0.10000000000E+02 0. -1.
</event>
<event>
 5    1  0.1338054E-008  0.3750516E+03  0.7957747E-01  0.3472992E+00
         13   -1    0    0    0    0  0.00000000000E+00  0.00000000000E+00  0.14999999963E+04  0.15000000000E+04  0.10566000000E+00 0. -1.
        994   -1    0    0    0    0 -0.00000000000E+00 -0.00000000000E+00  0.11368683772E-12  0.17120000000E+03  0.17120000000E+03 0.  0.
         13    1    1    2    0    0  0.10414570858E+02 -0.77757049292E+02  0.38502732013E+03  0.39293850716E+03  0.10566000000E+00 0. -1.
        994    1    1    2    0    0 -0.20073035345E+02  0.63667621734E+02  0.21952078917E+02  0.18506168316E+03  0.17120000000E+03 0.  0.
        998    1    1    2    0    0  0.96584644870E+01  0.14089427558E+02  0.10930205972E+04  0.10931998097E+04  0.10000000000E+02 0.  0.
</event>
<event>
 5    1  0.1338054E-008  0.3811769E+03  0.7957747E-01  0.3446050E+00
         13   -1    0    0    0    0  0.00000000000E+00  0.00000000000E+00  0.14999999963E+04  0.15000000000E+04  0.10566000000E+00 0. -1.
        994   -1    0    0    0    0 -0.00000000000E+00 -0.00000000000E+00  0.11368683772E-12  0.17120000000E+03  0.17120000000E+03 0.  0.
         13    1    1    2    0    0 -0.35340373384E+02 -0.54555634816E+01  0.16510661683E+03  0.16893463603E+03  0.10566000000E+00 0. -1.
        994    1    1    2    0    0  0.32589079483E+02  0.32410353705E+01  0.71200390877E+01  0.17444967002E+03  0.17120000000E+03 0.  0.
        998    1    1    2    0    0  0.27512939015E+01  0.22145281111E+01  0.13277733404E+04  0.13278156940E+04  0.10000000000E+02 0. -1.
</event>
<event>
 5    1  0.1338054E-008  0.3840311E+03  0.7957747E-01  0.3433792E+00
         13   -1    0    0    0    0  0.00000000000E+00  0.00000000000E+00  0.14999999963E+04  0.15000000000E+04  0.10566000000E+00 0.  1.
        994   -1    0    0    0    0 -0.00000000000E+00 -0.00000000000E+00  0.11368683772E-12  0.17120000000E+03  0.17120000000E+03 0.  0.
         13    1    1    2    0    0 -0.54991202572E+01  0.12223681100E+02  0.41028307795E+02  0.43162389968E+02  0.10566000000E+00 0.  1.
        994    1    1    2    0    0  0.63724190760E+01 -0.12889619025E+02  0.27943163073E+01  0.17182548765E+03  0.17120000000E+03 0.  0.
        998    1    1    2    0    0 -0.87329881881E+00  0.66593792468E+00  0.14561773722E+04  0.14562121224E+04  0.10000000000E+02 0.  1.
</event>
<event>
 5    1  0.1338054E-008  0.3851124E+03  0.7957747E-01  0.3429196E+00
         13   -1    0    0    0    0  0.00000000000E+00  0.00000000000E+00  0.14999999963E+04  0.15000000000E+04  0.10566000000E+00 0.  1.
        994   -1    0    0    0    0 -0.00000000000E+00 -0.00000000000E+00  0.11368683772E-12  0.17120000000E+03  0.17120000000E+03 0.  0.
         13    1    1    2    0    0 -0.10495507439E+01  0.13603268092E+02  0.62186332894E+02  0.63665545018E+02  0.10566000000E+00 0.  1.
        994    1    1    2    0    0  0.13830359568E+02 -0.40369115275E+00  0.22039487542E+01  0.17177234702E+03  0.17120000000E+03 0.  0.
        998    1    1    2    0    0 -0.12780808824E+02 -0.13199576939E+02  0.14356097146E+04  0.14357621080E+04  0.10000000000E+02 0.  1.
</event>
<event>
 5    1  0.1338054E-008  0.3852745E+03  0.7957747E-01  0.3428509E+00
         13   -1    0    0    0    0  0.00000000000E+00  0.00000000000E+00  0.14999999963E+04  0.15000000000E+04  0.10566000000E+00 0. -1.
        994   -1    0    0    0    0 -0.00000000000E+00 -0.00000000000E+00  0.11368683772E-12  0.17120000000E+03  0.17120000000E+03 0.  0.
         13    1    1    2    0    0  0.20181796972E+02  0.19381508369E+01  0.11579629524E+03  0.11755787729E+03  0.10566000000E+00 0. -1.
        994    1    1    2    0    0 -0.33098366974E+02 -0.19817081915E+01  0.51147018978E+01  0.17445638205E+03  0.17120000000E+03 0.  0.
        998    1    1    2    0    0  0.12916570002E+02  0.43557354523E-01  0.13790889991E+04  0.13791857407E+04  0.10000000000E+02 0. -1.
</event>
<event>
 5    1  0.1338054E-008  0.4129669E+03  0.7957747E-01  0.3319082E+00
         13   -1    0    0    0    0  0.00000000000E+00  0.00000000000E+00  0.14999999963E+04  0.15000000000E+04  0.10566000000E+00 0.  1.
        994   -1    0    0    0    0 -0.00000000000E+00 -0.00000000000E+00  0.11368683772E-12  0.17120000000E+03  0.17120000000E+03 0.  0.
         13    1    1    2    0    0 -0.10761076535E+00 -0.23728358098E+02 -0.66886336990E+01  0.24653509748E+02  0.10566000000E+00 0.  1.
        994    1    1    2    0    0 -0.48139718967E+02 -0.64865482733E+02  0.63300752204E+02  0.19960307769E+03  0.17120000000E+03 0.  0.
        998    1    1    2    0    0  0.48247329732E+02  0.88593840832E+02  0.14433878778E+04  0.14469434126E+04  0.10000000000E+02 0.  1.
</event>
<event>
 5    1  0.1338054E-008  0.3818577E+03  0.7957747E-01  0.3443110E+00
         13   -1    0    0    0    0  0.00000000000E+00  0.00000000000E+00  0.14999999963E+04  0.15000000000E+04  0.10566000000E+00 0. -1.
        994   -1    0    0    0    0 -0.00000000000E+00 -0.00000000000E+00  0.11368683772E-12  0.17120000000E+03  0.17120000000E+03 0.  0.
         13    1    1    2    0    0  0.34734699113E+01 -0.34160640953E+02  0.18717911609E+03  0.19030251456E+03  0.10566000000E+00 0. -1.
        994    1    1    2    0    0 -0.26001698892E+01  0.17210826400E+02  0.42056185179E+01  0.17213396137E+03  0.17120000000E+03 0.  0.
        998    1    1    2    0    0 -0.87330002212E+00  0.16949814553E+02  0.13086152617E+04  0.13087635241E+04  0.10000000000E+02 0. -1.
</event>
<event>
 5    1  0.1338054E-008  0.3816301E+03  0.7957747E-01  0.3444091E+00
         13   -1    0    0    0    0  0.00000000000E+00  0.00000000000E+00  0.14999999963E+04  0.15000000000E+04  0.10566000000E+00 0. -1.
        994   -1    0    0    0    0 -0.00000000000E+00 -0.00000000000E+00  0.11368683772E-12  0.17120000000E+03  0.17120000000E+03 0.  0.
         13    1    1    2    0    0 -0.16948790617E+02 -0.69537801759E+01  0.49631877939E+02  0.52905113495E+02  0.10566000000E+00 0. -1.
        994    1    1    2    0    0  0.11593511747E+02  0.16937237875E+01  0.37691198458E+01  0.17164184944E+03  0.17120000000E+03 0.  0.
        998    1    1    2    0    0  0.53552788700E+01  0.52600563884E+01  0.14465989985E+04  0.14466530371E+04  0.10000000000E+02 0. -1.
</event>
<event>
 5    1  0.1338054E-008  0.3688405E+03  0.7957747E-01  0.3501237E+00
         13   -1    0    0    0    0  0.00000000000E+00  0.00000000000E+00  0.14999999963E+04  0.15000000000E+04  0.10566000000E+00 0.  1.
        994   -1    0    0    0    0 -0.00000000000E+00 -0.00000000000E+00  0.11368683772E-12  0.17120000000E+03  0.17120000000E+03 0.  0.
         13    1    1    2    0    0  0.66287171493E+01  0.18077274100E+02  0.13539153574E+02  0.23538215171E+02  0.10566000000E+00 0.  1.
        994    1    1    2    0    0 -0.52860772792E+01 -0.95391959855E+01  0.10741210189E+02  0.17188296154E+03  0.17120000000E+03 0.  0.
        998    1    1    2    0    0 -0.13426398702E+01 -0.85380781143E+01  0.14757196325E+04  0.14757788233E+04  0.10000000000E+02 0.  1.
</event>
<event>
 5    1  0.1338054E-008  0.3811376E+03  0.7957747E-01  0.3446220E+00
         13   -1    0    0    0    0  0.00000000000E+00  0.00000000000E+00  0.14999999963E+04  0.15000000000E+04  0.10566000000E+00 0. -1.
        994   -1    0    0    0    0 -0.00000000000E+00 -0.00000000000E+00  0.11368683772E-12  0.17120000000E+03  0.17120000000E+03 0.  0.
         13    1    1    2    0    0  0.33343153837E+02 -0.11031738159E+02  0.16133559250E+03  0.16511405067E+03  0.10566000000E+00 0. -1.
        994    1    1    2    0    0 -0.28791828640E+02  0.78702101308E+01  0.65327359471E+01  0.17390522201E+03  0.17120000000E+03 0.  0.
        998    1    1    2    0    0 -0.45513251968E+01  0.31615280281E+01  0.13321316678E+04  0.13321807273E+04  0.10000000000E+02 0. -1.
</event>
<event>
 5    1  0.1338054E-008  0.3783620E+03  0.7957747E-01  0.3458322E+00
         13   -1    0    0    0    0  0.00000000000E+00  0.00000000000E+00  0.14999999963E+04  0.15000000000E+04  0.10566000000E+00 0. -1.
        994   -1    0    0    0    0 -0.00000000000E+00 -0.00000000000E+00  0.11368683772E-12  0.17120000000E+03  0.17120000000E+03 0.  0.
         13    1    1    2    0    0 -0.29521461879E+02  0.10069040706E+02  0.93245193087E+02  0.98323850058E+02  0.10566000000E+00 0. -1.
        994    1    1    2    0    0  0.19622199442E+02 -0.23519272549E+02  0.81221011849E+01  0.17410799930E+03  0.17120000000E+03 0.  0.
        998    1    1    2    0    0  0.98992624367E+01  0.13450231842E+02  0.13986327020E+04  0.13987681506E+04  0.10000000000E+02 0. -1.
</event>
<event>
 5    1  0.1338054E-008  0.3833754E+03  0.7957747E-01  0.3436592E+00
         13   -1    0    0    0    0  0.00000000000E+00  0.00000000000E+00  0.14999999963E+04  0.15000000000E+04  0.10566000000E+00 0. -1.
        994   -1    0    0    0    0 -0.00000000000E+00 -0.00000000000E+00  0.11368683772E-12  0.17120000000E+03  0.17120000000E+03 0.  0.
         13    1    1    2    0    0 -0.15928979210E+02  0.11514939402E+02  0.75293281669E+02  0.77816551174E+02  0.10566000000E+00 0. -1.
        994    1    1    2    0    0  0.15701268449E+02 -0.12597778891E+02  0.37797663263E+01  0.17242088185E+03  0.17120000000E+03 0.  0.
        998    1    1    2    0    0  0.22771076103E+00  0.10828394891E+01  0.14209269483E+04  0.14209625670E+04  0.10000000000E+02 0. -1.
</event>
<event>
 5    1  0.1338054E-008  0.3785825E+03  0.7957747E-01  0.3457354E+00
         13   -1    0    0    0    0  0.00000000000E+00  0.00000000000E+00  0.14999999963E+04  0.15000000000E+04  0.10566000000E+00 0.  1.
        994   -1    0    0    0    0 -0.00000000000E+00 -0.00000000000E+00  0.11368683772E-12  0.17120000000E+03  0.17120000000E+03 0.  0.
         13    1    1    2    0    0  0.24087753332E+02  0.56755485055E+01  0.57833083167E+02  0.62905551298E+02  0.10566000000E+00 0.  1.
        994    1    1    2    0    0 -0.29408747484E+02 -0.12405720931E+02  0.82796946672E+01  0.17434669393E+03  0.17120000000E+03 0.  0.
        998    1    1    2    0    0  0.53209941521E+01  0.67301724256E+01  0.14338872184E+04  0.14339477548E+04  0.10000000000E+02 0.  1.
</event>
<event>
 5    1  0.1338054E-008  0.3819849E+03  0.7957747E-01  0.3442561E+00
         13   -1    0    0    0    0  0.00000000000E+00  0.00000000000E+00  0.14999999963E+04  0.15000000000E+04  0.10566000000E+00 0. -1.
        994   -1    0    0    0    0 -0.00000000000E+00 -0.00000000000E+00  0.11368683772E-12  0.17120000000E+03  0.17120000000E+03 0.  0.
         13    1    1    2    0    0 -0.14757116386E+01  0.12735936105E+02  0.24753047378E+02  0.27876626622E+02  0.10566000000E+00 0. -1.
        994    1    1    2    0    0  0.57585413528E+00 -0.12353516220E+02  0.36426154972E+01  0.17168473904E+03  0.17120000000E+03 0.  0.
        998    1    1    2    0    0  0.89985750329E+00 -0.38241988433E+00  0.14716043334E+04  0.14716386343E+04  0.10000000000E+02 0. -1.
</event>
<event>
 5    1  0.1338054E-008  0.3714533E+03  0.7957747E-01  0.3489238E+00
         13   -1    0    0    0    0  0.00000000000E+00  0.00000000000E+00  0.14999999963E+04  0.15000000000E+04  0.10566000000E+00 0. -1.
        994   -1    0    0    0    0 -0.00000000000E+00 -0.00000000000E+00  0.11368683772E-12  0.17120000000E+03  0.17120000000E+03 0.  0.
         13    1    1    2    0    0  0.45122157314E+02 -0.83373392325E+01  0.12504591201E+03  0.13319914257E+03  0.10566000000E+00 0. -1.
        994    1    1    2    0    0 -0.23163503529E+02 -0.15393692073E+02  0.11177233241E+02  0.17380415471E+03  0.17120000000E+03 0.  0.
        998    1    1    2    0    0 -0.21958653785E+02  0.23731031305E+02  0.13637768510E+04  0.13641967027E+04  0.10000000000E+02 0. -1.
</event>
<event>
 5    1  0.1338054E-008  0.3812911E+03  0.7957747E-01  0.3445556E+00
         13   -1    0    0    0    0  0.00000000000E+00  0.00000000000E+00  0.14999999963E+04  0.15000000000E+04  0.10566000000E+00 0. -1.
        994   -1    0    0    0    0 -0.00000000000E+00 -0.00000000000E+00  0.11368683772E-12  0.17120000000E+03  0.17120000000E+03 0.  0.
         13    1    1    2    0    0 -0.82997925752E+01 -0.76430794623E+01  0.16896214585E+02  0.20317392840E+02  0.10566000000E+00 0. -1.
        994    1    1    2    0    0  0.47210526723E+01  0.46437722171E+01  0.36287909167E+01  0.17136645262E+03  0.17120000000E+03 0.  0.
        998    1    1    2    0    0  0.35787399029E+01  0.29993072452E+01  0.14794749908E+04  0.14795161545E+04  0.10000000000E+02 0. -1.
</event>
<event>
 5    1  0.1338054E-008  0.3833081E+03  0.7957747E-01  0.3436880E+00
         13   -1    0    0    0    0  0.00000000000E+00  0.00000000000E+00  0.14999999963E+04  0.15000000000E+04  0.10566000000E+00 0. -1.
        994   -1    0    0    0    0 -0.00000000000E+00 -0.00000000000E+00  0.11368683772E-12  0.17120000000E+03  0.17120000000E+03 0.  0.
         13    1    1    2    0    0  0.70260037760E+01  0.31778468474E+02  0.16933258913E+03  0.17243193641E+03  0.10566000000E+00 0. -1.
        994    1    1    2    0    0 -0.41767124854E+02 -0.41199132468E+02  0.13938396025E+02  0.18150917365E+03  0.17120000000E+03 0.  0.
        998    1    1    2    0    0  0.34741121078E+02  0.94206639941E+01  0.13167290111E+04  0.13172588899E+04  0.10000000000E+02 0. -1.
</event>
<event>
 5    1  0.1338054E-008  0.4517769E+03  0.7957747E-01  0.3187976E+00
         13   -1    0    0    0    0  0.00000000000E+00  0.00000000000E+00  0.14999999963E+04  0.15000000000E+04  0.10566000000E+00 0. -1.
        994   -1    0    0    0    0 -0.00000000000E+00 -0.00000000000E+00  0.11368683772E-12  0.17120000000E+03  0.17120000000E+03 0.  0.
         13    1    1    2    0    0 -0.98378308796E+02  0.58144223327E+01  0.57558444348E+02  0.11412749374E+03  0.10566000000E+00 0. -1.
        994    1    1    2    0    0  0.92423355020E+02 -0.10661633613E+02  0.10839786741E+03  0.22296924596E+03  0.17120000000E+03 0.  0.
        998    1    1    2    0    0  0.59549537753E+01  0.48472112799E+01  0.13340436845E+04  0.13341032603E+04  0.10000000000E+02 0. -1.
</event>
<event>
 5    1  0.1338054E-008  0.3694649E+03  0.7957747E-01  0.3498354E+00
         13   -1    0    0    0    0  0.00000000000E+00  0.00000000000E+00  0.14999999963E+04  0.15000000000E+04  0.10566000000E+00 0. -1.
        994   -1    0    0    0    0 -0.00000000000E+00 -0.00000000000E+00  0.11368683772E-12  0.17120000000E+03  0.17120000000E+03 0.  0.
         13    1    1    2    0    0  0.34287463930E+01 -0.14584664390E+02  0.56063109356E+01  0.15997206742E+02  0.10566000000E+00 0. -1.
        994    1    1    2    0    0 -0.38542396793E+01  0.16345671750E+02  0.11640875879E+02  0.17241515635E+03  0.17120000000E+03 0.  0.
        998    1    1    2    0    0  0.42549328624E+00 -0.17610073600E+01  0.14827528095E+04  0.14827876369E+04  0.10000000000E+02 0. -1.
</event>
<event>
 5    1  0.1338054E-008  0.3816140E+03  0.7957747E-01  0.3444161E+00
         13   -1    0    0    0    0  0.00000000000E+00  0.00000000000E+00  0.14999999963E+04  0.15000000000E+04  0.10566000000E+00 0. -1.
        994   -1    0    0    0    0 -0.00000000000E+00 -0.00000000000E+00  0.11368683772E-12  0.17120000000E+03  0.17120000000E+03 0.  0.
         13    1    1    2    0    0  0.11900868358E+01  0.28662549202E+02  0.10978877873E+03  0.11347486564E+03  0.10566000000E+00 0. -1.
        994    1    1    2    0    0  0.74078302572E+01 -0.36959868707E+02  0.80598249545E+01  0.17548592144E+03  0.17120000000E+03 0.  0.
        998    1    1    2    0    0 -0.85979170931E+01  0.82973195051E+01  0.13821513926E+04  0.13822392129E+04  0.10000000000E+02 0. -1.
</event>
<event>
 5    1  0.1338054E-008  0.3832643E+03  0.7957747E-01  0.3437067E+00
         13   -1    0    0    0    0  0.00000000000E+00  0.00000000000E+00  0.14999999963E+04  0.15000000000E+04  0.10566000000E+00 0. -1.
        994   -1    0    0    0    0 -0.00000000000E+00 -0.00000000000E+00  0.11368683772E-12  0.17120000000E+03  0.17120000000E+03 0.  0.
         13    1    1    2    0    0  0.87271168642E+01  0.17445327269E+02  0.80715845683E+02  0.83039514212E+02  0.10566000000E+00 0. -1.
        994    1    1    2    0    0 -0.38859983882E+01  0.53989302593E+00  0.25452418810E+01  0.17126386287E+03  0.17120000000E+03 0.  0.
        998    1    1    2    0    0 -0.48411184759E+01 -0.17985220295E+02  0.14167389087E+04  0.14168966229E+04  0.10000000000E+02 0. -1.
</event>
<event>
 5    1  0.1338054E-008  0.3842700E+03  0.7957747E-01  0.3432774E+00
         13   -1    0    0    0    0  0.00000000000E+00  0.00000000000E+00  0.14999999963E+04  0.15000000000E+04  0.10566000000E+00 0.  1.
        994   -1    0    0    0    0 -0.00000000000E+00 -0.00000000000E+00  0.11368683772E-12  0.17120000000E+03  0.17120000000E+03 0.  0.
         13    1    1    2    0    0 -0.14745230437E+02 -0.98493050923E+01  0.76362162415E+02  0.78394015359E+02  0.10566000000E+00 0.  1.
        994    1    1    2    0    0  0.11811740743E+02  0.11165871654E+02  0.28643961632E+01  0.17199371696E+03  0.17120000000E+03 0.  0.
        998    1    1    2    0    0  0.29334896943E+01 -0.13165665616E+01  0.14207734377E+04  0.14208122677E+04  0.10000000000E+02 0.  0.
</event>
<event>
 5    1  0.1338054E-008  0.3826738E+03  0.7957747E-01  0.3439598E+00
         13   -1    0    0    0    0  0.00000000000E+00  0.00000000000E+00  0.14999999963E+04  0.15000000000E+04  0.10566000000E+00 0.  1.
        994   -1    0    0    0    0 -0.00000000000E+00 -0.00000000000E+00  0.11368683772E-12  0.17120000000E+03  0.17120000000E+03 0.  0.
         13    1    1    2    0    0  0.36801893455E+00 -0.11868356233E+02  0.23852639726E+02  0.26644941425E+02  0.10566000000E+00 0.  1.
        994    1    1    2    0    0 -0.14076697898E+01  0.13279058266E+02  0.33805519841E+01  0.17175326214E+03  0.17120000000E+03 0.  0.
        998    1    1    2    0    0  0.10396508552E+01 -0.14107020334E+01  0.14727668046E+04  0.14728017964E+04  0.10000000000E+02 0.  1.
</event>
<event>
 5    1  0.1338054E-008  0.3814253E+03  0.7957747E-01  0.3444976E+00
         13   -1    0    0    0    0  0.00000000000E+00  0.00000000000E+00  0.14999999963E+04  0.15000000000E+04  0.10566000000E+00 0.  1.
        994   -1    0    0    0    0 -0.00000000000E+00 -0.00000000000E+00  0.11368683772E-12  0.17120000000E+03  0.17120000000E+03 0.  0.
         13    1    1    2    0    0 -0.40522006582E+01  0.21265168234E+02  0.67505850126E+02  0.70892021239E+02  0.10566000000E+00 0.  1.
        994    1    1    2    0    0  0.42111132756E+01 -0.13006967012E+02  0.40375293735E+01  0.17179248036E+03  0.17120000000E+03 0.  0.
        998    1    1    2    0    0 -0.15891261732E+00 -0.82582012215E+01  0.14284566168E+04  0.14285154984E+04  0.10000000000E+02 0.  1.
</event>
<event>
 5    1  0.1338054E-008  0.3845291E+03  0.7957747E-01  0.3431672E+00
         13   -1    0    0    0    0  0.00000000000E+00  0.00000000000E+00  0.14999999963E+04  0.15000000000E+04  0.10566000000E+00 0. -1.
        994   -1    0    0    0    0 -0.00000000000E+00 -0.00000000000E+00  0.11368683772E-12  0.17120000000E+03  0.17120000000E+03 0.  0.
         13    1    1    2    0    0  0.11188595792E+02  0.37912154474E+01  0.36302285868E+02  0.38176237552E+02  0.10566000000E+00 0. -1.
        994    1    1    2    0    0 -0.10170737385E+02 -0.96337125907E+01  0.25107602115E+01  0.17179055921E+03  0.17120000000E+03 0.  0.
        998    1    1    2    0    0 -0.10178584067E+01  0.58424971433E+01  0.14611869502E+04  0.14612332032E+04  0.10000000000E+02 0. -1.
</event>
<event>
 5    1  0.1338054E-008  0.3695027E+03  0.7957747E-01  0.3498179E+00
         13   -1    0    0    0    0  0.00000000000E+00  0.00000000000E+00  0.14999999963E+04  0.15000000000E+04  0.10566000000E+00 0. -1.
        994   -1    0    0    0    0 -0.00000000000E+00 -0.00000000000E+00  0.11368683772E-12  0.17120000000E+03  0.17120000000E+03 0.  0.
         13    1    1    2    0    0  0.28385180789E+02 -0.80031858335E+00  0.33015385696E+02  0.43547512615E+02  0.10566000000E+00 0. -1.
        994    1    1    2    0    0 -0.25144840833E+02  0.71805126363E+00  0.12887579302E+02  0.17351745825E+03  0.17120000000E+03 0.  0.
        998    1    1    2    0    0 -0.32403399552E+01  0.82267319724E-01  0.14540970313E+04  0.14541350291E+04  0.10000000000E+02 0. -1.
</event>
<event>
 5    1  0.1338054E-008  0.3767880E+03  0.7957747E-01  0.3465265E+00
         13   -1    0    0    0    0  0.00000000000E+00  0.00000000000E+00  0.14999999963E+04  0.15000000000E+04  0.10566000000E+00 0. -1.
        994   -1    0    0    0    0 -0.00000000000E+00 -0.00000000000E+00  0.11368683772E-12  0.17120000000E+03  0.17120000000E+03 0.  0.
         13    1    1    2    0    0 -0.34242310200E+02  0.22860467457E+02  0.16866880677E+03  0.17362118051E+03  0.10566000000E+00 0. -1.
        994    1    1    2    0    0 -0.19682178933E+01 -0.80270778813E+00  0.57786965556E+01  0.17131068722E+03  0.17120000000E+03 0.  0.
        998    1    1    2    0    0  0.36210528093E+02 -0.22057759669E+02  0.13255524930E+04  0.13262681323E+04  0.10000000000E+02 0. -1.
</event>
<event>
 5    1  0.1338054E-008  0.3754813E+03  0.7957747E-01  0.3471073E+00
         13   -1    0    0    0    0  0.00000000000E+00  0.00000000000E+00  0.14999999963E+04  0.15000000000E+04  0.10566000000E+00 0. -1.
        994   -1    0    0    0    0 -0.00000000000E+00 -0.00000000000E+00  0.11368683772E-12  0.17120000000E+03  0.17120000000E+03 0.  0.
         13    1    1    2    0    0 -0.16827868106E+02 -0.45783775291E+02  0.22748625332E+03  0.23265712505E+03  0.10566000000E+00 0. -1.
        994    1    1    2    0    0 -0.63870824389E+02  0.25631922133E+02  0.22679375214E+02  0.18590393137E+03  0.17120000000E+03 0.  0.
        998    1    1    2    0    0  0.80698692495E+02  0.20151853158E+02  0.12498343677E+04  0.12526389436E+04  0.10000000000E+02 0. -1.
</event>
<event>
 5    1  0.1338054E-008  0.3770118E+03  0.7957747E-01  0.3464274E+00
         13   -1    0    0    0    0  0.00000000000E+00  0.00000000000E+00  0.14999999963E+04  0.15000000000E+04  0.10566000000E+00 0.  1.
        994   -1    0    0    0    0 -0.00000000000E+00 -0.00000000000E+00  0.11368683772E-12  0.17120000000E+03  0.17120000000E+03 0.  0.
         13    1    1    2    0    0  0.21617403647E+02  0.55677378128E+02  0.32387222160E+03  0.32933343235E+03  0.10566000000E+00 0.  1.
        994    1    1    2    0    0 -0.26846493100E+02 -0.22635671397E+02  0.98238795584E+01  0.17504015660E+03  0.17120000000E+03 0.  0.
        998    1    1    2    0    0  0.52290894531E+01 -0.33041706731E+02  0.11663038951E+04  0.11668264111E+04  0.10000000000E+02 0.  1.
</event>
<event>
 5    1  0.1338054E-008  0.3697070E+03  0.7957747E-01  0.3497239E+00
         13   -1    0    0    0    0  0.00000000000E+00  0.00000000000E+00  0.14999999963E+04  0.15000000000E+04  0.10566000000E+00 0. -1.
        994   -1    0    0    0    0 -0.00000000000E+00 -0.00000000000E+00  0.11368683772E-12  0.17120000000E+03  0.17120000000E+03 0.  0.
         13    1    1    2    0    0 -0.30745644368E+02 -0.55251370690E+01  0.47291996111E+02  0.56677736788E+02  0.10566000000E+00 0. -1.
        994    1    1    2    0    0  0.27800800013E+02 -0.96859250751E+00  0.12105281418E+02  0.17386719211E+03  0.17120000000E+03 0.  0.
        998    1    1    2    0    0  0.29448443551E+01  0.64937295765E+01  0.14406027187E+04  0.14406550711E+04  0.10000000000E+02 0. -1.
</event>
<event>
 5    1  0.1338054E-008  0.3722285E+03  0.7957747E-01  0.3485711E+00
         13   -1    0    0    0    0  0.00000000000E+00  0.00000000000E+00  0.14999999963E+04  0.15000000000E+04  0.10566000000E+00 0. -1.
        994   -1    0    0    0    0 -0.00000000000E+00 -0.00000000000E+00  0.11368683772E-12  0.17120000000E+03  0.17120000000E+03 0.  0.
         13    1    1    2    0    0  0.35520751327E+02  0.50704914213E+01  0.49631634906E+02  0.61243318048E+02  0.10566000000E+00 0. -1.
        994    1    1    2    0    0 -0.15531895192E+02 -0.38496239239E+01  0.13024777200E+02  0.17243881290E+03  0.17120000000E+03 0.  0.
        998    1    1    2    0    0 -0.19988856135E+02 -0.12208674974E+01  0.14373435842E+04  0.14375178691E+04  0.10000000000E+02 0. -1.
</event>
<event>
 5    1  0.1338054E-008  0.3844811E+03  0.7957747E-01  0.3431876E+00
         13   -1    0    0    0    0  0.00000000000E+00  0.00000000000E+00  0.14999999963E+04  0.15000000000E+04  0.10566000000E+00 0.  1.
        994   -1    0    0    0    0 -0.00000000000E+00 -0.00000000000E+00  0.11368683772E-12  0.17120000000E+03  0.17120000000E+03 0.  0.
         13    1    1    2    0    0 -0.77131847267E+01 -0.11136589122E+02  0.49557390015E+02  0.51375703450E+02  0.10566000000E+00 0.  1.
        994    1    1    2    0    0  0.15002191023E+01  0.40030344914E+01  0.19481624920E+01  0.17126444546E+03  0.17120000000E+03 0.  0.
        998    1    1    2    0    0  0.62129656245E+01  0.71335546307E+01  0.14484944438E+04  0.14485598511E+04  0.10000000000E+02 0.  1.
</event>
<event>
 5    1  0.1338054E-008  0.3733370E+03  0.7957747E-01  0.3480694E+00
         13   -1    0    0    0    0  0.00000000000E+00  0.00000000000E+00  0.14999999963E+04  0.15000000000E+04  0.10566000000E+00 0. -1.
        994   -1    0    0    0    0 -0.00000000000E+00 -0.00000000000E+00  0.11368683772E-12  0.17120000000E+03  0.17120000000E+03 0.  0.
         13    1    1    2    0    0 -0.85463103797E+02 -0.37422284477E+02  0.43225216617E+03  0.44220619151E+03  0.10566000000E+00 0. -1.
        994    1    1    2    0    0  0.71560074145E+02  0.53661848501E+02  0.35398178777E+02  0.19637441090E+03  0.17120000000E+03 0.  0.
        998    1    1    2    0    0  0.13903029652E+02 -0.16239564024E+02  0.10323496513E+04  0.10326193976E+04  0.10000000000E+02 0. -1.
</event>
<event>
 5    1  0.1338054E-008  0.3845368E+03  0.7957747E-01  0.3431639E+00
         13   -1    0    0    0    0  0.00000000000E+00  0.00000000000E+00  0.14999999963E+04  0.15000000000E+04  0.10566000000E+00 0. -1.
        994   -1    0    0    0    0 -0.00000000000E+00 -0.00000000000E+00  0.11368683772E-12  0.17120000000E+03  0.17120000000E+03 0.  0.
         13    1    1    2    0    0  0.12543767121E+02 -0.11739457368E+02  0.81312589197E+02  0.83107817194E+02  0.10566000000E+00 0. -1.
        994    1    1    2    0    0 -0.65714402988E+01  0.32776917061E+01  0.20379202803E+01  0.17136954283E+03  0.17120000000E+03 0.  0.
        998    1    1    2    0    0 -0.59723268224E+01  0.84617656622E+01  0.14166494868E+04  0.14167226400E+04  0.10000000000E+02 0. -1.
</event>
<event>
 5    1  0.1338054E-008  0.3824504E+03  0.7957747E-01  0.3440558E+00
         13   -1    0    0    0    0  0.00000000000E+00  0.00000000000E+00  0.14999999963E+04  0.15000000000E+04  0.10566000000E+00 0.  1.
        994   -1    0    0    0    0 -0.00000000000E+00 -0.00000000000E+00  0.11368683772E-12  0.17120000000E+03  0.17120000000E+03 0.  0.
         13    1    1    2    0    0 -0.33064594461E+01 -0.25141272405E+02  0.11332328830E+03  0.11612577270E+03  0.10566000000E+00 0.  1.
        994    1    1    2    0    0 -0.68190021319E+01  0.11811291053E+02  0.35183333347E+01  0.17177841557E+03  0.17120000000E+03 0.  0.
        998    1    1    2    0    0  0.10125461578E+02  0.13329981352E+02  0.13831583746E+04  0.13832958117E+04  0.10000000000E+02 0.  1.
</event>
<event>
 5    1  0.1338054E-008  0.3812331E+03  0.7957747E-01  0.3445807E+00
         13   -1    0    0    0    0  0.00000000000E+00  0.00000000000E+00  0.14999999963E+04  0.15000000000E+04  0.10566000000E+00 0.  1.
        994   -1    0    0    0    0 -0.00000000000E+00 -0.00000000000E+00  0.11368683772E-12  0.17120000000E+03  0.17120000000E+03 0.  0.
         13    1    1    2    0    0 -0.20487146918E+02 -0.11531549901E+02  0.74046960624E+02  0.77689531944E+02  0.10566000000E+00 0.  1.
        994    1    1    2    0    0  0.24771101176E+02  0.56498235895E+01  0.56641035647E+01  0.17316769338E+03  0.17120000000E+03 0.  0.
        998    1    1    2    0    0 -0.42839542582E+01  0.58817263117E+01  0.14202889321E+04  0.14203427747E+04  0.10000000000E+02 0.  1.
</event>
<event>
 5    1  0.1338054E-008  0.3782449E+03  0.7957747E-01  0.3458836E+00
         13   -1    0    0    0    0  0.00000000000E+00  0.00000000000E+00  0.14999999963E+04  0.15000000000E+04  0.10566000000E+00 0. -1.
        994   -1    0    0    0    0 -0.00000000000E+00 -0.00000000000E+00  0.11368683772E-12  0.17120000000E+03  0.17120000000E+03 0.  0.
         13    1    1    2    0    0  0.34429116249E+02  0.15415672383E+02  0.21631816499E+03  0.21958271032E+03  0.10566000000E+00 0. -1.
        994    1    1    2    0    0  0.58638830763E+02 -0.91600970204E+02  0.45887085501E+02  0.20795267450E+03  0.17120000000E+03 0.  0.
        998    1    1    2    0    0 -0.93067947012E+02  0.76185297821E+02  0.12377947458E+04  0.12436646152E+04  0.10000000000E+02 0. -1.
</event>
<event>
 5    1  0.1338054E-008  0.3853534E+03  0.7957747E-01  0.3428175E+00
         13   -1    0    0    0    0  0.00000000000E+00  0.00000000000E+00  0.14999999963E+04  0.15000000000E+04  0.10566000000E+00 0. -1.
        994   -1    0    0    0    0 -0.00000000000E+00 -0.00000000000E+00  0.11368683772E-12  0.17120000000E+03  0.17120000000E+03 0.  0.
         13    1    1    2    0    0  0.94504214024E+01 -0.66954510682E+01  0.45529487120E+02  0.46979622084E+02  0.10566000000E+00 0. -1.
        994    1    1    2    0    0 -0.56465357748E+01  0.10068401520E+02  0.18926275260E+01  0.17159917865E+03  0.17120000000E+03 0.  0.
        998    1    1    2    0    0 -0.38038856276E+01 -0.33729504514E+01  0.14525778816E+04  0.14526211993E+04  0.10000000000E+02 0. -1.
</event>
<event>
 5    1  0.1338054E-008  0.3800391E+03  0.7957747E-01  0.3450988E+00
         13   -1    0    0    0    0  0.00000000000E+00  0.00000000000E+00  0.14999999963E+04  0.15000000000E+04  0.10566000000E+00 0. -1.
        994   -1    0    0    0    0 -0.00000000000E+00 -0.00000000000E+00  0.11368683772E-12  0.17120000000E+03  0.17120000000E+03 0.  0.
         13    1    1    2    0    0  0.10215231030E+02  0.34071020274E+01  0.12519012035E+02  0.16513513120E+02  0.10566000000E+00 0. -1.
        994    1    1    2    0    0 -0.32055536197E+01  0.83697225507E+01  0.43819660538E+01  0.17149043547E+03  0.17120000000E+03 0.  0.
        998    1    1    2    0    0 -0.70096774100E+01 -0.11776824578E+02  0.14830990182E+04  0.14831960514E+04  0.10000000000E+02 0. -1.
</event>
<event>
 5    1  0.1338054E-008  0.3857236E+03  0.7957747E-01  0.3426609E+00
         13   -1    0    0    0    0  0.00000000000E+00  0.00000000000E+00  0.14999999963E+04  0.15000000000E+04  0.10566000000E+00 0. -1.
        994   -1    0    0    0    0 -0.00000000000E+00 -0.00000000000E+00  0.11368683772E-12  0.17120000000E+03  0.17120000000E+03 0.  0.
         13    1    1    2    0    0 -0.51784771605E+01  0.11247368013E+02  0.61018361749E+02  0.62262119683E+02  0.10566000000E+00 0. -1.
        994    1    1    2    0    0  0.32591318258E+01 -0.69289165357E+01  0.14637066381E+01  0.17137740301E+03  0.17120000000E+03 0.  0.
        998    1    1    2    0    0  0.19193453347E+01 -0.43184514776E+01  0.14375179279E+04  0.14375604773E+04  0.10000000000E+02 0. -1.
</event>
<event>
 5    1  0.1338054E-008  0.3815639E+03  0.7957747E-01  0.3444377E+00
         13   -1    0    0    0    0  0.00000000000E+00  0.00000000000E+00  0.14999999963E+04  0.15000000000E+04  0.10566000000E+00 0. -1.
        994   -1    0    0    0    0 -0.00000000000E+00 -0.00000000000E+00  0.11368683772E-12  0.17120000000E+03  0.17120000000E+03 0.  0.
         13    1    1    2    0    0  0.52661653097E+01  0.22219899273E+02  0.78803624603E+02  0.82045589982E+02  0.10566000000E+00 0. -1.
        994    1    1    2    0    0  0.75054172892E+01 -0.11367738909E+02  0.39631263490E+01  0.17178679561E+03  0.17120000000E+03 0.  0.
        998    1    1    2    0    0 -0.12771582599E+02 -0.10852160364E+02  0.14172332453E+04  0.14173676144E+04  0.10000000000E+02 0. -1.
</event>
<event>
 5    1  0.1338054E-008  0.3842069E+03  0.7957747E-01  0.3433043E+00
         13   -1    0    0    0    0  0.00000000000E+00  0.00000000000E+00  0.14999999963E+04  0.15000000000E+04  0.10566000000E+00 0. -1.
        994   -1    0    0    0    0 -0.00000000000E+00 -0.00000000000E+00  0.11368683772E-12  0.17120000000E+03  0.17120000000E+03 0.  0.
         13    1    1    2    0    0 -0.70789422473E+01 -0.99511734703E+01  0.37948143697E+02  0.39864897477E+02  0.10566000000E+00 0. -1.
        994    1    1    2    0    0  0.18260564933E+01 -0.28147038629E+01  0.20615374040E+01  0.17124528308E+03  0.17120000000E+03 0.  0.
        998    1    1    2    0    0  0.52528857540E+01  0.12765877333E+02  0.14599903152E+04  0.14600898194E+04  0.10000000000E+02 0. -1.
</event>
<event>
 5    1  0.1338054E-008  0.2994500E+03  0.7957747E-01  0.3899953E+00
         13   -1    0    0    0    0  0.00000000000E+00  0.00000000000E+00  0.14999999963E+04  0.15000000000E+04  0.10566000000E+00 0.  1.
        994   -1    0    0    0    0 -0.00000000000E+00 -0.00000000000E+00  0.11368683772E-12  0.17120000000E+03  0.17120000000E+03 0.  0.
         13    1    1    2    0    0  0.16745835902E+03 -0.26104723196E+02  0.85652898285E+03  0.87313553828E+03  0.10566000000E+00 0.  1.
        994    1    1    2    0    0 -0.49619549199E+02  0.84449072658E+01  0.40016706843E+02  0.18287753538E+03  0.17120000000E+03 0.  0.
        998    1    1    2    0    0 -0.11783880982E+03  0.17659815930E+02  0.60345430659E+03  0.61518692634E+03  0.10000000000E+02 0.  1.
</event>
<event>
 5    1  0.1338054E-008  0.3829829E+03  0.7957747E-01  0.3438272E+00
         13   -1    0    0    0    0  0.00000000000E+00  0.00000000000E+00  0.14999999963E+04  0.15000000000E+04  0.10566000000E+00 0. -1.
        994   -1    0    0    0    0 -0.00000000000E+00 -0.00000000000E+00  0.11368683772E-12  0.17120000000E+03  0.17120000000E+03 0.  0.
         13    1    1    2    0    0  0.20986175000E+02 -0.74448629441E+01  0.91373789298E+02  0.94047998704E+02  0.10566000000E+00 0. -1.
        994    1    1    2    0    0 -0.10706696732E+02  0.23094458818E+02  0.47828887602E+01  0.17314821226E+03  0.17120000000E+03 0.  0.
        998    1    1    2    0    0 -0.10279478268E+02 -0.15649595874E+02  0.14038433182E+04  0.14040037890E+04  0.10000000000E+02 0. -1.
</event>
<event>
 5    1  0.1338054E-008  0.3852987E+03  0.7957747E-01  0.3428406E+00
         13   -1    0    0    0    0  0.00000000000E+00  0.00000000000E+00  0.14999999963E+04  0.15000000000E+04  0.10566000000E+00 0. -1.
        994   -1    0    0    0    0 -0.00000000000E+00 -0.00000000000E+00  0.11368683772E-12  0.17120000000E+03  0.17120000000E+03 0.  0.
         13    1    1    2    0    0 -0.45513930961E+01 -0.12327802195E+02  0.64358911616E+02  0.65686913114E+02  0.10566000000E+00 0. -1.
        994    1    1    2    0    0 -0.24870990935E+01 -0.51351854728E+01  0.15888783557E+01  0.17130242359E+03  0.17120000000E+03 0.  0.
        998    1    1    2    0    0  0.70384921896E+01  0.17462987668E+02  0.14340522063E+04  0.14342106633E+04  0.10000000000E+02 0. -1.
</event>
<event>
 5    1  0.1338054E-008  0.3850650E+03  0.7957747E-01  0.3429396E+00
         13   -1    0    0    0    0  0.00000000000E+00  0.00000000000E+00  0.14999999963E+04  0.15000000000E+04  0.10566000000E+00 0. -1.
        994   -1    0    0    0    0 -0.00000000000E+00 -0.00000000000E+00  0.11368683772E-12  0.17120000000E+03  0.17120000000E+03 0.  0.
         13    1    1    2    0    0 -0.13693422823E+02  0.29908128514E+01  0.67884021262E+02  0.69315988754E+02  0.10566000000E+00 0. -1.
        994    1    1    2    0    0 -0.84093656840E+01 -0.13930063219E+02  0.24688680910E+01  0.17198924211E+03  0.17120000000E+03 0.  0.
        998    1    1    2    0    0  0.22102788507E+02  0.10939250368E+02  0.14296471069E+04  0.14298947691E+04  0.10000000000E+02 0. -1.
</event>
<event>
 5    1  0.1338054E-008  0.3843533E+03  0.7957747E-01  0.3432420E+00
         13   -1    0    0    0    0  0.00000000000E+00  0.00000000000E+00  0.14999999963E+04  0.15000000000E+04  0.10566000000E+00 0. -1.
        994   -1    0    0    0    0 -0.00000000000E+00 -0.00000000000E+00  0.11368683772E-12  0.17120000000E+03  0.17120000000E+03 0.  0.
         13    1    1    2    0    0 -0.30540179327E+01 -0.15468509985E+02  0.72378027620E+02  0.74075582163E+02  0.10566000000E+00 0. -1.
        994    1    1    2    0    0  0.14094482936E+02 -0.13427330729E+02  0.32014058609E+01  0.17233292390E+03  0.17120000000E+03 0.  0.
        998    1    1    2    0    0 -0.11040465003E+02  0.28895840714E+02  0.14244205628E+04  0.14247914939E+04  0.10000000000E+02 0. -1.
</event>
<event>
 5    1  0.1338054E-008  0.3794861E+03  0.7957747E-01  0.3453399E+00
         13   -1    0    0    0    0  0.00000000000E+00  0.00000000000E+00  0.14999999963E+04  0.15000000000E+04  0.10566000000E+00 0.  1.
        994   -1    0    0    0    0 -0.00000000000E+00 -0.00000000000E+00  0.11368683772E-12  0.17120000000E+03  0.17120000000E+03 0.  0.
         13    1    1    2    0    0 -0.34086358858E+02 -0.40750478175E+02  0.31781246043E+03  0.32222236499E+03  0.10566000000E+00 0.  1.
        994    1    1    2    0    0  0.19365215193E+02  0.24026000784E+02  0.75880768452E+01  0.17412432106E+03  0.17120000000E+03 0.  0.
        998    1    1    2    0    0  0.14721143664E+02  0.16724477391E+02  0.11745994590E+04  0.11748533140E+04  0.10000000000E+02 0.  1.
</event>
<event>
 5    1  0.1338054E-008  0.2977980E+03  0.7957747E-01  0.3911865E+00
         13   -1    0    0    0    0  0.00000000000E+00  0.00000000000E+00  0.14999999963E+04  0.15000000000E+04  0.10566000000E+00 0. -1.
        994   -1    0    0    0    0 -0.00000000000E+00 -0.00000000000E+00  0.11368683772E-12  0.17120000000E+03  0.17120000000E+03 0.  0.
         13    1    1    2    0    0  0.19038692352E+03  0.40192687249E+02  0.99578544835E+03  0.10146187969E+04  0.10566000000E+00 0. -1.
        994    1    1    2    0    0 -0.30364979596E+02 -0.57851995570E+01  0.61577411496E+02  0.18454462367E+03  0.17120000000E+03 0.  0.
        998    1    1    2    0    0 -0.16002194393E+03 -0.34407487692E+02  0.44263713643E+03  0.47203657940E+03  0.10000000000E+02 0. -1.
</event>
<event>
 5    1  0.1338054E-008  0.3745926E+03  0.7957747E-01  0.3475047E+00
         13   -1    0    0    0    0  0.00000000000E+00  0.00000000000E+00  0.14999999963E+04  0.15000000000E+04  0.10566000000E+00 0.  1.
        994   -1    0    0    0    0 -0.00000000000E+00 -0.00000000000E+00  0.11368683772E-12  0.17120000000E+03  0.17120000000E+03 0.  0.
         13    1    1    2    0    0  0.96795425131E+00 -0.14716304401E+03  0.67582210442E+03  0.69165990664E+03  0.10566000000E+00 0.  1.
        994    1    1    2    0    0  0.16093480584E+02  0.15870823549E+03  0.99133560597E+02  0.25413423021E+03  0.17120000000E+03 0.  0.
        998    1    1    2    0    0 -0.17061434835E+02 -0.11545191470E+02  0.72504433126E+03  0.72540586315E+03  0.10000000000E+02 0. -1.
</event>
<event>
 5    1  0.1338054E-008  0.3699757E+03  0.7957747E-01  0.3496003E+00
         13   -1    0    0    0    0  0.00000000000E+00  0.00000000000E+00  0.14999999963E+04  0.15000000000E+04  0.10566000000E+00 0.  1.
        994   -1    0    0    0    0 -0.00000000000E+00 -0.00000000000E+00  0.11368683772E-12  0.17120000000E+03  0.17120000000E+03 0.  0.
         13    1    1    2    0    0  0.45766042996E+02  0.42052272328E+02  0.22807496201E+03  0.23639188598E+03  0.10566000000E+00 0.  1.
        994    1    1    2    0    0 -0.20014952600E+02 -0.44586002568E+01  0.10737105779E+02  0.17275764204E+03  0.17120000000E+03 0.  0.
        998    1    1    2    0    0 -0.25751090396E+02 -0.37593672071E+02  0.12611879285E+04  0.12620504720E+04  0.10000000000E+02 0.  1.
</event>
<event>
 5    1  0.1338054E-008  0.3853906E+03  0.7957747E-01  0.3428017E+00
         13   -1    0    0    0    0  0.00000000000E+00  0.00000000000E+00  0.14999999963E+04  0.15000000000E+04  0.10566000000E+00 0. -1.
        994   -1    0    0    0    0 -0.00000000000E+00 -0.00000000000E+00  0.11368683772E-12  0.17120000000E+03  0.17120000000E+03 0.  0.
         13    1    1    2    0    0  0.58008937488E+01  0.90689325468E+01  0.40310874444E+02  0.41723778212E+02  0.10566000000E+00 0. -1.
        994    1    1    2    0    0 -0.67073900894E+01 -0.48871064205E+01  0.16625637933E+01  0.17140909255E+03  0.17120000000E+03 0.  0.
        998    1    1    2    0    0  0.90649634068E+00 -0.41818261262E+01  0.14580265580E+04  0.14580671292E+04  0.10000000000E+02 0. -1.
</event>
<event>
 5    1  0.1338054E-008  0.3782021E+03  0.7957747E-01  0.3459024E+00
         13   -1    0    0    0    0  0.00000000000E+00  0.00000000000E+00  0.14999999963E+04  0.15000000000E+04  0.10566000000E+00 0. -1.
        994   -1    0    0    0    0 -0.00000000000E+00 -0.00000000000E+00  0.11368683772E-12  0.17120000000E+03  0.17120000000E+03 0.  0.
         13    1    1    2    0    0  0.13243813417E+02  0.37350729285E+02  0.17026125441E+03  0.17481241801E+03  0.10566000000E+00 0. -1.
        994    1    1    2    0    0 -0.43652541892E+00 -0.74455885546E+01  0.52305554918E+01  0.17144219450E+03  0.17120000000E+03 0.  0.
        998    1    1    2    0    0 -0.12807287998E+02 -0.29905140730E+02  0.13245081864E+04  0.13249453875E+04  0.10000000000E+02 0. -1.
</event>
<event>
 5    1  0.1338054E-008  0.3709726E+03  0.7957747E-01  0.3491433E+00
         13   -1    0    0    0    0  0.00000000000E+00  0.00000000000E+00  0.14999999963E+04  0.15000000000E+04  0.10566000000E+00 0. -1.
        994   -1    0    0    0    0 -0.00000000000E+00 -0.00000000000E+00  0.11368683772E-12  0.17120000000E+03  0.17120000000E+03 0.  0.
         13    1    1    2    0    0 -0.15770033147E+02  0.73611246753E+01  0.13372131273E+02  0.21947782593E+02  0.10566000000E+00 0. -1.
        994    1    1    2    0    0  0.15701068050E+02 -0.64488397542E+00  0.96130085240E+01  0.17218823812E+03  0.17120000000E+03 0.  0.
        998    1    1    2    0    0  0.68965096925E-01 -0.67162406999E+01  0.14770148565E+04  0.14770639793E+04  0.10000000000E+02 0. -1.
</event>
<event>
 5    1  0.2285254E-008  0.3859545E+03  0.7957747E-01  0.3425634E+00
         13   -1    0    0    0    0  0.00000000000E+00  0.00000000000E+00  0.14999999963E+04  0.15000000000E+04  0.10566000000E+00 0.  1.
        994   -1    0    0    0    0 -0.00000000000E+00 -0.00000000000E+00  0.11368683772E-12  0.17120000000E+03  0.17120000000E+03 0.  0.
         13    1    1    2    0    0  0.89606056327E+01  0.46995642253E+01  0.47625719795E+02  0.48688794473E+02  0.10566000000E+00 0.  1.
        994    1    1    2    0    0  0.34942825708E+01 -0.43620784635E+00  0.11976330833E+01  0.17124040006E+03  0.17120000000E+03 0.  0.
        998    1    1    2    0    0 -0.12454888204E+02 -0.42633563789E+01  0.14511766434E+04  0.14512708055E+04  0.10000000000E+02 0.  1.
</event>
<event>
 5    1  0.1482593E-008  0.3855900E+03  0.7957747E-01  0.3427174E+00
         13   -1    0    0    0    0  0.00000000000E+00  0.00000000000E+00  0.14999999963E+04  0.15000000000E+04  0.10566000000E+00 0.  1.
        994   -1    0    0    0    0 -0.00000000000E+00 -0.00000000000E+00  0.11368683772E-12  0.17120000000E+03  0.17120000000E+03 0.  0.
         13    1    1    2    0    0 -0.10213695200E+02  0.45623567239E+01  0.45911100557E+02  0.47254364739E+02  0.10566000000E+00 0.  1.
        994    1    1    2    0    0  0.11100224672E+02 -0.36681968139E+01  0.17862210814E+01  0.17160798711E+03  0.17120000000E+03 0.  0.
        998    1    1    2    0    0 -0.88652947180E+00 -0.89415990994E+00  0.14523026746E+04  0.14523376481E+04  0.10000000000E+02 0.  1.
</event>
<event>
 5    1  0.1338054E-008  0.3805706E+03  0.7957747E-01  0.3448678E+00
         13   -1    0    0    0    0  0.00000000000E+00  0.00000000000E+00  0.14999999963E+04  0.15000000000E+04  0.10566000000E+00 0. -1.
        994   -1    0    0    0    0 -0.00000000000E+00 -0.00000000000E+00  0.11368683772E-12  0.17120000000E+03  0.17120000000E+03 0.  0.
         13    1    1    2    0    0 -0.11053558653E+02  0.15074257878E+02  0.42967936279E+02  0.46857967536E+02  0.10566000000E+00 0. -1.
        994    1    1    2    0    0  0.96518469383E+01 -0.16365771940E+02  0.50508355176E+01  0.17232512173E+03  0.17120000000E+03 0.  0.
        998    1    1    2    0    0  0.14017117147E+01  0.12915140624E+01  0.14519812245E+04  0.14520169107E+04  0.10000000000E+02 0. -1.
</event>
<event>
 5    1  0.1338054E-008  0.3850721E+03  0.7957747E-01  0.3429367E+00
         13   -1    0    0    0    0  0.00000000000E+00  0.00000000000E+00  0.14999999963E+04  0.15000000000E+04  0.10566000000E+00 0.  1.
        994   -1    0    0    0    0 -0.00000000000E+00 -0.00000000000E+00  0.11368683772E-12  0.17120000000E+03  0.17120000000E+03 0.  0.
         13    1    1    2    0    0  0.12887427063E+02 -0.10854398902E+01  0.51926550579E+02  0.53513005664E+02  0.10566000000E+00 0.  1.
        994    1    1    2    0    0 -0.10630001884E+02 -0.23389180821E+01  0.19839578396E+01  0.17155711459E+03  0.17120000000E+03 0.  0.
        998    1    1    2    0    0 -0.22574251788E+01  0.34243579723E+01  0.14460894879E+04  0.14461298797E+04  0.10000000000E+02 0.  1.
</event>
<event>
 5    1  0.1338054E-008  0.3840691E+03  0.7957747E-01  0.3433630E+00
         13   -1    0    0    0    0  0.00000000000E+00  0.00000000000E+00  0.14999999963E+04  0.15000000000E+04  0.10566000000E+00 0. -1.
        994   -1    0    0    0    0 -0.00000000000E+00 -0.00000000000E+00  0.11368683772E-12  0.17120000000E+03  0.17120000000E+03 0.  0.
         13    1    1    2    0    0 -0.20203627844E+02  0.50695470220E+01  0.10676992166E+03  0.10878287651E+03  0.10566000000E+00 0. -1.
        994    1    1    2    0    0  0.11802242484E+02  0.11263210309E+02  0.29714582101E+01  0.17200122790E+03  0.17120000000E+03 0.  0.
        998    1    1    2    0    0  0.84013853609E+01 -0.16332757331E+02  0.13902586164E+04  0.13904158956E+04  0.10000000000E+02 0. -1.
</event>
<event>
 5    1  0.1338054E-008  0.3784226E+03  0.7957747E-01  0.3458056E+00
         13   -1    0    0    0    0  0.00000000000E+00  0.00000000000E+00  0.14999999963E+04  0.15000000000E+04  0.10566000000E+00 0.  1.
        994   -1    0    0    0    0 -0.00000000000E+00 -0.00000000000E+00  0.11368683772E-12  0.17120000000E+03  0.17120000000E+03 0.  0.
         13    1    1    2    0    0  0.36579940153E+02  0.39555293449E+01  0.16069614331E+03  0.16485448090E+03  0.10566000000E+00 0.  1.
        994    1    1    2    0    0  0.52962793786E+01  0.37437902852E+01  0.50728973338E+01  0.17139790205E+03  0.17120000000E+03 0.  0.
        998    1    1    2    0    0 -0.41876219531E+02 -0.76993196301E+01  0.13342309556E+04  0.13349476170E+04  0.10000000000E+02 0.  1.
</event>
<event>
 5    1  0.1338054E-008  0.3878479E+03  0.7957747E-01  0.3417683E+00
         13   -1    0    0    0    0  0.00000000000E+00  0.00000000000E+00  0.14999999963E+04  0.15000000000E+04  0.10566000000E+00 0. -1.
        994   -1    0    0    0    0 -0.00000000000E+00 -0.00000000000E+00  0.11368683772E-12  0.17120000000E+03  0.17120000000E+03 0.  0.
         13    1    1    2    0    0  0.87518381358E+01 -0.43129437619E+02  0.38230977291E+02  0.58295470225E+02  0.10566000000E+00 0. -1.
        994    1    1    2    0    0 -0.80174818804E+01  0.40144207645E+02  0.26985454593E+02  0.17808282394E+03  0.17120000000E+03 0.  0.
        998    1    1    2    0    0 -0.73435625544E+00  0.29852299742E+01  0.14347835644E+04  0.14348217058E+04  0.10000000000E+02 0. -1.
</event>
<event>
 5    1  0.1338054E-008  0.3763373E+03  0.7957747E-01  0.3467264E+00
         13   -1    0    0    0    0  0.00000000000E+00  0.00000000000E+00  0.14999999963E+04  0.15000000000E+04  0.10566000000E+00 0.  1.
        994   -1    0    0    0    0 -0.00000000000E+00 -0.00000000000E+00  0.11368683772E-12  0.17120000000E+03  0.17120000000E+03 0.  0.
         13    1    1    2    0    0  0.47592691940E+02  0.84769578722E+01  0.16014119029E+03  0.16727861528E+03  0.10566000000E+00 0.  1.
        994    1    1    2    0    0 -0.55339898881E+02 -0.53320277945E+02  0.26246693090E+02  0.18948320597E+03  0.17120000000E+03 0.  0.
        998    1    1    2    0    0  0.77472069409E+01  0.44843320072E+02  0.13136121129E+04  0.13144381787E+04  0.10000000000E+02 0.  1.
</event>
<event>
 5    1  0.1338054E-008  0.3778663E+03  0.7957747E-01  0.3460502E+00
         13   -1    0    0    0    0  0.00000000000E+00  0.00000000000E+00  0.14999999963E+04  0.15000000000E+04  0.10566000000E+00 0. -1.
        994   -1    0    0    0    0 -0.00000000000E+00 -0.00000000000E+00  0.11368683772E-12  0.17120000000E+03  0.17120000000E+03 0.  0.
         13    1    1    2    0    0 -0.92163581300E+01 -0.21640138258E+02  0.53435308494E+02  0.58383047187E+02  0.10566000000E+00 0. -1.
        994    1    1    2    0    0  0.11840054320E+02 -0.23823270226E+01  0.57053369479E+01  0.17172027614E+03  0.17120000000E+03 0.  0.
        998    1    1    2    0    0 -0.26236961905E+01  0.24022465280E+02  0.14408593508E+04  0.14410966767E+04  0.10000000000E+02 0. -1.
</event>
<event>
 5    1  0.1338054E-008  0.3841528E+03  0.7957747E-01  0.3433273E+00
         13   -1    0    0    0    0  0.00000000000E+00  0.00000000000E+00  0.14999999963E+04  0.15000000000E+04  0.10566000000E+00 0.  1.
        994   -1    0    0    0    0 -0.00000000000E+00 -0.00000000000E+00  0.11368683772E-12  0.17120000000E+03  0.17120000000E+03 0.  0.
         13    1    1    2    0    0  0.13501341593E+02  0.15222867316E+01  0.46563261704E+02  0.48505175871E+02  0.10566000000E+00 0.  1.
        994    1    1    2    0    0  0.39421904090E+00 -0.44878532286E+01  0.21182750236E+01  0.17127236591E+03  0.17120000000E+03 0.  0.
        998    1    1    2    0    0 -0.13895560634E+02  0.29655664969E+01  0.14513184596E+04  0.14514224582E+04  0.10000000000E+02 0.  1.
</event>
<event>
 5    1  0.1338054E-008  0.4285195E+03  0.7957747E-01  0.3263762E+00
         13   -1    0    0    0    0  0.00000000000E+00  0.00000000000E+00  0.14999999963E+04  0.15000000000E+04  0.10566000000E+00 0. -1.
        994   -1    0    0    0    0 -0.00000000000E+00 -0.00000000000E+00  0.11368683772E-12  0.17120000000E+03  0.17120000000E+03 0.  0.
         13    1    1    2    0    0  0.54345815700E+02  0.77586391706E+02  0.11105765470E+03  0.14596893400E+03  0.10566000000E+00 0. -1.
        994    1    1    2    0    0  0.66665447379E+02 -0.11769869127E+02  0.66721376569E+02  0.19581622452E+03  0.17120000000E+03 0.  0.
        998    1    1    2    0    0 -0.12101126308E+03 -0.65816522578E+02  0.13222209650E+04  0.13294148415E+04  0.10000000000E+02 0. -1.
</event>
<event>
 5    1  0.1338054E-008  0.3806127E+03  0.7957747E-01  0.3448495E+00
         13   -1    0    0    0    0  0.00000000000E+00  0.00000000000E+00  0.14999999963E+04  0.15000000000E+04  0.10566000000E+00 0. -1.
        994   -1    0    0    0    0 -0.00000000000E+00 -0.00000000000E+00  0.11368683772E-12  0.17120000000E+03  0.17120000000E+03 0.  0.
         13    1    1    2    0    0 -0.25909433554E+02 -0.33641723927E+02  0.18674264857E+03  0.19150950967E+03  0.10566000000E+00 0. -1.
        994    1    1    2    0    0  0.25149058063E+02  0.52241646182E+02  0.15121782808E+02  0.18138294582E+03  0.17120000000E+03 0.  0.
        998    1    1    2    0    0  0.76037549067E+00 -0.18599922255E+02  0.12981355649E+04  0.12983075445E+04  0.10000000000E+02 0. -1.
</event>
<event>
 5    1  0.1338054E-008  0.3708168E+03  0.7957747E-01  0.3492145E+00
         13   -1    0    0    0    0  0.00000000000E+00  0.00000000000E+00  0.14999999963E+04  0.15000000000E+04  0.10566000000E+00 0.  1.
        994   -1    0    0    0    0 -0.00000000000E+00 -0.00000000000E+00  0.11368683772E-12  0.17120000000E+03  0.17120000000E+03 0.  0.
         13    1    1    2    0    0  0.43249211912E+02 -0.24643756558E+02  0.12773254096E+03  0.13708910333E+03  0.10566000000E+00 0.  1.
        994    1    1    2    0    0 -0.42463348821E+02  0.20279484974E+02  0.16516809700E+02  0.17831611959E+03  0.17120000000E+03 0.  0.
        998    1    1    2    0    0 -0.78586309065E+00  0.43642715832E+01  0.13557506456E+04  0.13557947771E+04  0.10000000000E+02 0.  0.
</event>
<event>
 5    1  0.1338054E-008  0.3829923E+03  0.7957747E-01  0.3438232E+00
         13   -1    0    0    0    0  0.00000000000E+00  0.00000000000E+00  0.14999999963E+04  0.15000000000E+04  0.10566000000E+00 0. -1.
        994   -1    0    0    0    0 -0.00000000000E+00 -0.00000000000E+00  0.11368683772E-12  0.17120000000E+03  0.17120000000E+03 0.  0.
         13    1    1    2    0    0  0.21342526432E+01  0.17549125228E+02  0.58996084030E+02  0.61587952763E+02  0.10566000000E+00 0. -1.
        994    1    1    2    0    0  0.44660935811E+00 -0.10395493143E+02  0.29886858666E+01  0.17154194234E+03  0.17120000000E+03 0.  0.
        998    1    1    2    0    0 -0.25808620013E+01 -0.71536320848E+01  0.14380152264E+04  0.14380701049E+04  0.10000000000E+02 0. -1.
</event>
<event>
 5    1  0.1338054E-008  0.3866675E+03  0.7957747E-01  0.3422631E+00
         13   -1    0    0    0    0  0.00000000000E+00  0.00000000000E+00  0.14999999963E+04  0.15000000000E+04  0.10566000000E+00 0. -1.
        994   -1    0    0    0    0 -0.00000000000E+00 -0.00000000000E+00  0.11368683772E-12  0.17120000000E+03  0.17120000000E+03 0.  0.
         13    1    1    2    0    0  0.23942173378E+02  0.33797034626E+02  0.34171903395E+02  0.53695412851E+02  0.10566000000E+00 0. -1.
        994    1    1    2    0    0 -0.26972121312E+02 -0.32874324722E+02  0.26785764035E+02  0.17842402784E+03  0.17120000000E+03 0.  0.
        998    1    1    2    0    0  0.30299479340E+01 -0.92270990333E+00  0.14390423288E+04  0.14390805593E+04  0.10000000000E+02 0. -1.
</event>
<event>
 5    1  0.1338054E-008  0.3803865E+03  0.7957747E-01  0.3449477E+00
         13   -1    0    0    0    0  0.00000000000E+00  0.00000000000E+00  0.14999999963E+04  0.15000000000E+04  0.10566000000E+00 0.  1.
        994   -1    0    0    0    0 -0.00000000000E+00 -0.00000000000E+00  0.11368683772E-12  0.17120000000E+03  0.17120000000E+03 0.  0.
         13    1    1    2    0    0 -0.19227222727E+02  0.88635945865E+01  0.57533142683E+02  0.61305163517E+02  0.10566000000E+00 0.  1.
        994    1    1    2    0    0  0.16189978455E+01 -0.78609316475E+01  0.41532460179E+01  0.17143834126E+03  0.17120000000E+03 0.  0.
        998    1    1    2    0    0  0.17608224881E+02 -0.10026629390E+01  0.14383136076E+04  0.14384564952E+04  0.10000000000E+02 0.  1.
</event>
<event>
 5    1  0.1338054E-008  0.3718307E+03  0.7957747E-01  0.3487519E+00
         13   -1    0    0    0    0  0.00000000000E+00  0.00000000000E+00  0.14999999963E+04  0.15000000000E+04  0.10566000000E+00 0. -1.
        994   -1    0    0    0    0 -0.00000000000E+00 -0.00000000000E+00  0.11368683772E-12  0.17120000000E+03  0.17120000000E+03 0.  0.
         13    1    1    2    0    0  0.18943407883E+02  0.38839652203E+01  0.19306393149E+02  0.27325553398E+02  0.10566000000E+00 0. -1.
        994    1    1    2    0    0 -0.54380627380E+01  0.14146351414E+01  0.84237868744E+01  0.17149919505E+03  0.17120000000E+03 0.  0.
        998    1    1    2    0    0 -0.13505345145E+02 -0.52986003617E+01  0.14722698163E+04  0.14723752515E+04  0.10000000000E+02 0. -1.
</event>
<event>
 5    1  0.1338054E-008  0.3790416E+03  0.7957747E-01  0.3455342E+00
         13   -1    0    0    0    0  0.00000000000E+00  0.00000000000E+00  0.14999999963E+04  0.15000000000E+04  0.10566000000E+00 0. -1.
        994   -1    0    0    0    0 -0.00000000000E+00 -0.00000000000E+00  0.11368683772E-12  0.17120000000E+03  0.17120000000E+03 0.  0.
         13    1    1    2    0    0 -0.33046617025E+02 -0.45754724696E+02  0.32677089530E+03  0.33160941318E+03  0.10566000000E+00 0. -1.
        994    1    1    2    0    0  0.24207816633E+02  0.28663591575E+02  0.93527094105E+01  0.17551220197E+03  0.17120000000E+03 0.  0.
        998    1    1    2    0    0  0.88388003914E+01  0.17091133121E+02  0.11638763916E+04  0.11640783848E+04  0.10000000000E+02 0. -1.
</event>
<event>
 5    1  0.1338054E-008  0.3742685E+03  0.7957747E-01  0.3476501E+00
         13   -1    0    0    0    0  0.00000000000E+00  0.00000000000E+00  0.14999999963E+04  0.15000000000E+04  0.10566000000E+00 0.  1.
        994   -1    0    0    0    0 -0.00000000000E+00 -0.00000000000E+00  0.11368683772E-12  0.17120000000E+03  0.17120000000E+03 0.  0.
         13    1    1    2    0    0 -0.11607073735E+01 -0.35711650322E+02  0.79316667777E+02  0.86993184569E+02  0.10566000000E+00 0.  1.
        994    1    1    2    0    0  0.98672064098E+01  0.49608828630E+02  0.15823373029E+02  0.17921555952E+03  0.17120000000E+03 0.  0.
        998    1    1    2    0    0 -0.87064990363E+01 -0.13897178309E+02  0.14048599555E+04  0.14049912559E+04  0.10000000000E+02 0.  1.
</event>
<event>
 5    1  0.1338054E-008  0.3857685E+03  0.7957747E-01  0.3426419E+00
         13   -1    0    0    0    0  0.00000000000E+00  0.00000000000E+00  0.14999999963E+04  0.15000000000E+04  0.10566000000E+00 0.  1.
        994   -1    0    0    0    0 -0.00000000000E+00 -0.00000000000E+00  0.11368683772E-12  0.17120000000E+03  0.17120000000E+03 0.  0.
         13    1    1    2    0    0 -0.27114492024E+00 -0.30810787720E+02  0.18395525213E+02  0.35885716816E+02  0.10566000000E+00 0.  1.
        994    1    1    2    0    0 -0.33150574870E+02 -0.30292510022E+02  0.27035505640E+02  0.17904456245E+03  0.17120000000E+03 0.  0.
        998    1    1    2    0    0  0.33421719790E+02  0.61103297742E+02  0.14545689654E+04  0.14562697207E+04  0.10000000000E+02 0.  1.
</event>
<event>
 5    1  0.1338054E-008  0.3745017E+03  0.7957747E-01  0.3475454E+00
         13   -1    0    0    0    0  0.00000000000E+00  0.00000000000E+00  0.14999999963E+04  0.15000000000E+04  0.10566000000E+00 0.  1.
        994   -1    0    0    0    0 -0.00000000000E+00 -0.00000000000E+00  0.11368683772E-12  0.17120000000E+03  0.17120000000E+03 0.  0.
         13    1    1    2    0    0  0.41430692738E+02  0.63987314914E+02  0.40473832585E+03  0.41185434603E+03  0.10566000000E+00 0.  1.
        994    1    1    2    0    0 -0.24369618443E+02 -0.39991026536E+02  0.14439314571E+02  0.17807609135E+03  0.17120000000E+03 0.  0.
        998    1    1    2    0    0 -0.17061074295E+02 -0.23996288378E+02  0.10808223559E+04  0.10812695626E+04  0.10000000000E+02 0.  1.
</event>
<event>
 5    1  0.1338054E-008  0.3829545E+03  0.7957747E-01  0.3438394E+00
         13   -1    0    0    0    0  0.00000000000E+00  0.00000000000E+00  0.14999999963E+04  0.15000000000E+04  0.10566000000E+00 0.  1.
        994   -1    0    0    0    0 -0.00000000000E+00 -0.00000000000E+00  0.11368683772E-12  0.17120000000E+03  0.17120000000E+03 0.  0.
         13    1    1    2    0    0 -0.12989634268E+02  0.14007887753E+02  0.86228651282E+02  0.88319550404E+02  0.10566000000E+00 0.  1.
        994    1    1    2    0    0 -0.30997829723E+02  0.71715976504E+01  0.60076634303E+01  0.17423498294E+03  0.17120000000E+03 0.  0.
        998    1    1    2    0    0  0.43987463991E+02 -0.21179485403E+02  0.14077636816E+04  0.14086454667E+04  0.10000000000E+02 0.  1.
</event>
<event>
 5    1  0.1338054E-008  0.3827021E+03  0.7957747E-01  0.3439477E+00
         13   -1    0    0    0    0  0.00000000000E+00  0.00000000000E+00  0.14999999963E+04  0.15000000000E+04  0.10566000000E+00 0. -1.
        994   -1    0    0    0    0 -0.00000000000E+00 -0.00000000000E+00  0.11368683772E-12  0.17120000000E+03  0.17120000000E+03 0.  0.
         13    1    1    2    0    0 -0.11920655435E+02  0.42053773070E+01  0.28289116521E+02  0.30985036741E+02  0.10566000000E+00 0. -1.
        994    1    1    2    0    0  0.58693929307E+01  0.55967482723E+01  0.29932560979E+01  0.17141812316E+03  0.17120000000E+03 0.  0.
        998    1    1    2    0    0  0.60512625043E+01 -0.98021255792E+01  0.14687176237E+04  0.14687968401E+04  0.10000000000E+02 0. -1.
</event>
<event>
 5    1  0.1338054E-008  0.3753943E+03  0.7957747E-01  0.3471461E+00
         13   -1    0    0    0    0  0.00000000000E+00  0.00000000000E+00  0.14999999963E+04  0.15000000000E+04  0.10566000000E+00 0.  1.
        994   -1    0    0    0    0 -0.00000000000E+00 -0.00000000000E+00  0.11368683772E-12  0.17120000000E+03  0.17120000000E+03 0.  0.
         13    1    1    2    0    0  0.83987276972E+02  0.26068324205E+02  0.39832109925E+03  0.40791313964E+03  0.10566000000E+00 0.  1.
        994    1    1    2    0    0 -0.89189737969E+02 -0.39522432555E+02  0.39501283083E+02  0.20096423413E+03  0.17120000000E+03 0.  0.
        998    1    1    2    0    0  0.52024609972E+01  0.13454108350E+02  0.10621776139E+04  0.10623226262E+04  0.10000000000E+02 0.  1.
</event>
<event>
 5    1  0.1338054E-008  0.3835016E+03  0.7957747E-01  0.3436052E+00
         13   -1    0    0    0    0  0.00000000000E+00  0.00000000000E+00  0.14999999963E+04  0.15000000000E+04  0.10566000000E+00 0. -1.
        994   -1    0    0    0    0 -0.00000000000E+00 -0.00000000000E+00  0.11368683772E-12  0.17120000000E+03  0.17120000000E+03 0.  0.
         13    1    1    2    0    0 -0.14771098729E+02 -0.12606475011E+02  0.83473604237E+02  0.85702755721E+02  0.10566000000E+00 0. -1.
        994    1    1    2    0    0  0.83010070324E+00  0.33553976808E+01  0.24154033745E+01  0.17125192534E+03  0.17120000000E+03 0.  0.
        998    1    1    2    0    0  0.13940998026E+02  0.92510773303E+01  0.14141109887E+04  0.14142453189E+04  0.10000000000E+02 0. -1.
</event>
<event>
 5    1  0.1338054E-008  0.3788488E+03  0.7957747E-01  0.3456187E+00
         13   -1    0    0    0    0  0.00000000000E+00  0.00000000000E+00  0.14999999963E+04  0.15000000000E+04  0.10566000000E+00 0.  1.
        994   -1    0    0    0    0 -0.00000000000E+00 -0.00000000000E+00  0.11368683772E-12  0.17120000000E+03  0.17120000000E+03 0.  0.
         13    1    1    2    0    0  0.30441659899E+02  0.16392880698E+02  0.19569068459E+03  0.19872160525E+03  0.10566000000E+00 0.  1.
        994    1    1    2    0    0  0.41887671253E+02  0.48484366131E+01  0.10705355149E+02  0.17664124368E+03  0.17120000000E+03 0.  0.
        998    1    1    2    0    0 -0.72329331152E+02 -0.21241317311E+02  0.12936039565E+04  0.12958371511E+04  0.10000000000E+02 0.  1.
</event>
<event>
 5    1  0.1338054E-008  0.3684916E+03  0.7957747E-01  0.3502852E+00
         13   -1    0    0    0    0  0.00000000000E+00  0.00000000000E+00  0.14999999963E+04  0.15000000000E+04  0.10566000000E+00 0.  1.
        994   -1    0    0    0    0 -0.00000000000E+00 -0.00000000000E+00  0.11368683772E-12  0.17120000000E+03  0.17120000000E+03 0.  0.
         13    1    1    2    0    0  0.80853022966E+02 -0.11337503326E+03  0.65415533051E+03  0.66881261732E+03  0.10566000000E+00 0.  1.
        994    1    1    2    0    0 -0.65348608702E+02  0.98702393326E+02  0.60590209194E+02  0.21677918848E+03  0.17120000000E+03 0.  0.
        998    1    1    2    0    0 -0.15504414264E+02  0.14672639930E+02  0.78525445658E+03  0.78560819420E+03  0.10000000000E+02 0. -1.
</event>
<event>
 5    1  0.1338054E-008  0.3816145E+03  0.7957747E-01  0.3444159E+00
         13   -1    0    0    0    0  0.00000000000E+00  0.00000000000E+00  0.14999999963E+04  0.15000000000E+04  0.10566000000E+00 0.  1.
        994   -1    0    0    0    0 -0.00000000000E+00 -0.00000000000E+00  0.11368683772E-12  0.17120000000E+03  0.17120000000E+03 0.  0.
         13    1    1    2    0    0  0.12298908480E+02 -0.27242721665E+02  0.14911851817E+03  0.15208475486E+03  0.10566000000E+00 0.  1.
        994    1    1    2    0    0 -0.12532067796E+01  0.17461564443E+01  0.33357594013E+01  0.17124598355E+03  0.17120000000E+03 0.  0.
        998    1    1    2    0    0 -0.11045701701E+02  0.25496565221E+02  0.13475457187E+04  0.13478692616E+04  0.10000000000E+02 0.  1.
</event>
<event>
 5    1  0.1338054E-008  0.3823518E+03  0.7957747E-01  0.3440982E+00
         13   -1    0    0    0    0  0.00000000000E+00  0.00000000000E+00  0.14999999963E+04  0.15000000000E+04  0.10566000000E+00 0. -1.
        994   -1    0    0    0    0 -0.00000000000E+00 -0.00000000000E+00  0.11368683772E-12  0.17120000000E+03  0.17120000000E+03 0.  0.
         13    1    1    2    0    0 -0.16188212622E+02  0.77334232938E+01  0.61476733843E+02  0.64041112043E+02  0.10566000000E+00 0. -1.
        994    1    1    2    0    0 -0.38619767265E+02 -0.47615847037E+02  0.15520706750E+02  0.18250777422E+03  0.17120000000E+03 0.  0.
        998    1    1    2    0    0  0.54807979887E+02  0.39882423743E+02  0.14230025557E+04  0.14246511137E+04  0.10000000000E+02 0. -1.
</event>
<event>
 5    1  0.1338054E-008  0.3784634E+03  0.7957747E-01  0.3457876E+00
         13   -1    0    0    0    0  0.00000000000E+00  0.00000000000E+00  0.14999999963E+04  0.15000000000E+04  0.10566000000E+00 0. -1.
        994   -1    0    0    0    0 -0.00000000000E+00 -0.00000000000E+00  0.11368683772E-12  0.17120000000E+03  0.17120000000E+03 0.  0.
         13    1    1    2    0    0 -0.54099879068E-01  0.11459055290E+02  0.11095431612E+02  0.15950944851E+02  0.10566000000E+00 0. -1.
        994    1    1    2    0    0 -0.32363305743E+00 -0.11917051916E+02  0.53884770864E+01  0.17169914546E+03  0.17120000000E+03 0.  0.
        998    1    1    2    0    0  0.37773293650E+00  0.45799662539E+00  0.14835160876E+04  0.14835499097E+04  0.10000000000E+02 0. -1.
</event>
<event>
 5    1  0.1338054E-008  0.3850631E+03  0.7957747E-01  0.3429405E+00
         13   -1    0    0    0    0  0.00000000000E+00  0.00000000000E+00  0.14999999963E+04  0.15000000000E+04  0.10566000000E+00 0.  1.
        994   -1    0    0    0    0 -0.00000000000E+00 -0.00000000000E+00  0.11368683772E-12  0.17120000000E+03  0.17120000000E+03 0.  0.
         13    1    1    2    0    0 -0.15514248551E+02  0.45844052994E+01  0.84424771439E+02  0.85960815938E+02  0.10566000000E+00 0.  1.
        994    1    1    2    0    0  0.26165118361E+01 -0.14702557347E+02  0.23324007170E+01  0.17186591116E+03  0.17120000000E+03 0.  0.
        998    1    1    2    0    0  0.12897736715E+02  0.10118152048E+02  0.14132428241E+04  0.14133732729E+04  0.10000000000E+02 0.  1.
</event>
<event>
 5    1  0.1338054E-008  0.3714237E+03  0.7957747E-01  0.3489373E+00
         13   -1    0    0    0    0  0.00000000000E+00  0.00000000000E+00  0.14999999963E+04  0.15000000000E+04  0.10566000000E+00 0. -1.
        994   -1    0    0    0    0 -0.00000000000E+00 -0.00000000000E+00  0.11368683772E-12  0.17120000000E+03  0.17120000000E+03 0.  0.
         13    1    1    2    0    0 -0.75027609595E+02  0.50752736987E+02  0.51696243672E+03  0.52483821761E+03  0.10566000000E+00 0. -1.
        994    1    1    2    0    0  0.45964079914E+02  0.39825810765E+02  0.24805109399E+02  0.18336718708E+03  0.17120000000E+03 0.  0.
        998    1    1    2    0    0  0.29063529682E+02 -0.90578547752E+02  0.95823245016E+03  0.96299459531E+03  0.10000000000E+02 0. -1.
</event>
<event>
 5    1  0.1338054E-008  0.3745631E+03  0.7957747E-01  0.3475179E+00
         13   -1    0    0    0    0  0.00000000000E+00  0.00000000000E+00  0.14999999963E+04  0.15000000000E+04  0.10566000000E+00 0.  1.
        994   -1    0    0    0    0 -0.00000000000E+00 -0.00000000000E+00  0.11368683772E-12  0.17120000000E+03  0.17120000000E+03 0.  0.
         13    1    1    2    0    0 -0.15265196734E+02 -0.72123771474E+01  0.17514537335E+02  0.24327243937E+02  0.10566000000E+00 0.  1.
        994    1    1    2    0    0  0.10628291208E+02  0.13530111350E+02  0.79116162984E+01  0.17224418179E+03  0.17120000000E+03 0.  0.
        998    1    1    2    0    0  0.46369055265E+01 -0.63177342025E+01  0.14745738426E+04  0.14746285743E+04  0.10000000000E+02 0.  1.
</event>
<event>
 5    1  0.1338054E-008  0.3809917E+03  0.7957747E-01  0.3446852E+00
         13   -1    0    0    0    0  0.00000000000E+00  0.00000000000E+00  0.14999999963E+04  0.15000000000E+04  0.10566000000E+00 0.  1.
        994   -1    0    0    0    0 -0.00000000000E+00 -0.00000000000E+00  0.11368683772E-12  0.17120000000E+03  0.17120000000E+03 0.  0.
         13    1    1    2    0    0  0.14757373363E+02 -0.30684418388E+01  0.29091748485E+02  0.32764865296E+02  0.10566000000E+00 0.  1.
        994    1    1    2    0    0 -0.18444331041E+02  0.19117101844E+01  0.47799365576E+01  0.17226762835E+03  0.17120000000E+03 0.  0.
        998    1    1    2    0    0  0.36869576773E+01  0.11567316544E+01  0.14661283112E+04  0.14661675064E+04  0.10000000000E+02 0.  1.
</event>
<event>
 5    1  0.1338054E-008  0.3698234E+03  0.7957747E-01  0.3496703E+00
         13   -1    0    0    0    0  0.00000000000E+00  0.00000000000E+00  0.14999999963E+04  0.15000000000E+04  0.10566000000E+00 0.  1.
        994   -1    0    0    0    0 -0.00000000000E+00 -0.00000000000E+00  0.11368683772E-12  0.17120000000E+03  0.17120000000E+03 0.  0.
         13    1    1    2    0    0  0.14955571094E+01  0.22238670489E+02  0.19249277950E+02  0.29450654013E+02  0.10566000000E+00 0.  1.
        994    1    1    2    0    0  0.18845646923E+02  0.56455529052E+01  0.12198826625E+02  0.17275787116E+03  0.17120000000E+03 0.  0.
        998    1    1    2    0    0 -0.20341204032E+02 -0.27884223394E+02  0.14685518917E+04  0.14689914748E+04  0.10000000000E+02 0.  1.
</event>
<event>
 5    1  0.1338054E-008  0.3824710E+03  0.7957747E-01  0.3440469E+00
         13   -1    0    0    0    0  0.00000000000E+00  0.00000000000E+00  0.14999999963E+04  0.15000000000E+04  0.10566000000E+00 0.  1.
        994   -1    0    0    0    0 -0.00000000000E+00 -0.00000000000E+00  0.11368683772E-12  0.17120000000E+03  0.17120000000E+03 0.  0.
         13    1    1    2    0    0  0.11914936778E+02  0.48423664297E+01  0.28890837133E+02  0.31624450435E+02  0.10566000000E+00 0.  1.
        994    1    1    2    0    0  0.41717189063E+01  0.26404168461E+01  0.29718156834E+01  0.17129695481E+03  0.17120000000E+03 0.  0.
        998    1    1    2    0    0 -0.16086655685E+02 -0.74827832758E+01  0.14681373435E+04  0.14682785948E+04  0.10000000000E+02 0.  1.
</event>
<event>
 5    1  0.1338054E-008  0.3847984E+03  0.7957747E-01  0.3430528E+00
         13   -1    0    0    0    0  0.00000000000E+00  0.00000000000E+00  0.14999999963E+04  0.15000000000E+04  0.10566000000E+00 0. -1.
        994   -1    0    0    0    0 -0.00000000000E+00 -0.00000000000E+00  0.11368683772E-12  0.17120000000E+03  0.17120000000E+03 0.  0.
         13    1    1    2    0    0  0.15359102593E+02  0.95366107649E+00  0.73515969759E+02  0.75109390063E+02  0.10566000000E+00 0. -1.
        994    1    1    2    0    0  0.54165154657E+00  0.54769671471E+01  0.18299722693E+01  0.17129821760E+03  0.17120000000E+03 0.  0.
        998    1    1    2    0    0 -0.15900754140E+02 -0.64306282236E+01  0.14246540543E+04  0.14247923923E+04  0.10000000000E+02 0. -1.
</event>
<event>
 5    1  0.1338054E-008  0.3762968E+03  0.7957747E-01  0.3467443E+00
         13   -1    0    0    0    0  0.00000000000E+00  0.00000000000E+00  0.14999999963E+04  0.15000000000E+04  0.10566000000E+00 0.  1.
        994   -1    0    0    0    0 -0.00000000000E+00 -0.00000000000E+00  0.11368683772E-12  0.17120000000E+03  0.17120000000E+03 0.  0.
         13    1    1    2    0    0  0.18051184477E+02  0.50833940253E+01  0.26467896332E+02  0.32438354707E+02  0.10566000000E+00 0.  1.
        994    1    1    2    0    0 -0.24831726035E+02  0.28444156176E+02  0.10854621327E+02  0.17565007100E+03  0.17120000000E+03 0.  0.
        998    1    1    2    0    0  0.67805415584E+01 -0.33527550201E+02  0.14626774786E+04  0.14631115743E+04  0.10000000000E+02 0.  1.
</event>
<event>
 5    1  0.1338054E-008  0.3825919E+03  0.7957747E-01  0.3439950E+00
         13   -1    0    0    0    0  0.00000000000E+00  0.00000000000E+00  0.14999999963E+04  0.15000000000E+04  0.10566000000E+00 0.  1.
        994   -1    0    0    0    0 -0.00000000000E+00 -0.00000000000E+00  0.11368683772E-12  0.17120000000E+03  0.17120000000E+03 0.  0.
         13    1    1    2    0    0  0.49010275631E+01  0.10471179586E+02  0.22585666839E+02  0.25373001078E+02  0.10566000000E+00 0.  1.
        994    1    1    2    0    0 -0.30053686019E+01 -0.69701944268E+01  0.30214393126E+01  0.17139482182E+03  0.17120000000E+03 0.  0.
        998    1    1    2    0    0 -0.18956589612E+01 -0.35009851595E+01  0.14743928901E+04  0.14744321771E+04  0.10000000000E+02 0.  1.
</event>
<event>
 5    1  0.1338054E-008  0.3862722E+03  0.7957747E-01  0.3424294E+00
         13   -1    0    0    0    0  0.00000000000E+00  0.00000000000E+00  0.14999999963E+04  0.15000000000E+04  0.10566000000E+00 0. -1.
        994   -1    0    0    0    0 -0.00000000000E+00 -0.00000000000E+00  0.11368683772E-12  0.17120000000E+03  0.17120000000E+03 0.  0.
         13    1    1    2    0    0 -0.92230512700E+01 -0.59630390394E+01  0.64568723031E+02  0.65496211091E+02  0.10566000000E+00 0. -1.
        994    1    1    2    0    0 -0.27210963483E+01  0.61533527887E+01  0.11480920728E+01  0.17133600390E+03  0.17120000000E+03 0.  0.
        998    1    1    2    0    0  0.11944147618E+02 -0.19031374935E+00  0.14342831812E+04  0.14343677850E+04  0.10000000000E+02 0. -1.
</event>
<event>
 5    1  0.1338054E-008  0.3840442E+03  0.7957747E-01  0.3433736E+00
         13   -1    0    0    0    0  0.00000000000E+00  0.00000000000E+00  0.14999999963E+04  0.15000000000E+04  0.10566000000E+00 0.  1.
        994   -1    0    0    0    0 -0.00000000000E+00 -0.00000000000E+00  0.11368683772E-12  0.17120000000E+03  0.17120000000E+03 0.  0.
         13    1    1    2    0    0 -0.13569149978E+02 -0.11688361986E+02  0.76689567088E+02  0.78753034870E+02  0.10566000000E+00 0.  1.
        994    1    1    2    0    0  0.17652292640E+01  0.12699346387E+02  0.26479109043E+01  0.17169985692E+03  0.17120000000E+03 0.  0.
        998    1    1    2    0    0  0.11803920714E+02 -0.10109844015E+01  0.14206625183E+04  0.14207471082E+04  0.10000000000E+02 0.  1.
</event>
<event>
 5    1  0.1338054E-008  0.3766316E+03  0.7957747E-01  0.3465958E+00
         13   -1    0    0    0    0  0.00000000000E+00  0.00000000000E+00  0.14999999963E+04  0.15000000000E+04  0.10566000000E+00 0.  1.
        994   -1    0    0    0    0 -0.00000000000E+00 -0.00000000000E+00  0.11368683772E-12  0.17120000000E+03  0.17120000000E+03 0.  0.
         13    1    1    2    0    0  0.20942216800E+03 -0.11779155299E+03  0.94552424401E+03  0.97557603577E+03  0.10566000000E+00 0.  1.
        994    1    1    2    0    0 -0.21296949620E+03  0.11942359556E+03  0.24494927000E+03  0.38591137112E+03  0.17120000000E+03 0.  0.
        998    1    1    2    0    0  0.35473282024E+01 -0.16320425680E+01  0.30952648227E+03  0.30971259311E+03  0.10000000000E+02 0.  1.
</event>
<event>
 5    1  0.1338054E-008  0.3848479E+03  0.7957747E-01  0.3430318E+00
         13   -1    0    0    0    0  0.00000000000E+00  0.00000000000E+00  0.14999999963E+04  0.15000000000E+04  0.10566000000E+00 0. -1.
        994   -1    0    0    0    0 -0.00000000000E+00 -0.00000000000E+00  0.11368683772E-12  0.17120000000E+03  0.17120000000E+03 0.  0.
         13    1    1    2    0    0 -0.61323476260E+01 -0.80209964610E+01  0.29273632451E+02  0.30966091012E+02  0.10566000000E+00 0. -1.
        994    1    1    2    0    0  0.78850103884E+01  0.57491420586E+01  0.20190750699E+01  0.17148977429E+03  0.17120000000E+03 0.  0.
        998    1    1    2    0    0 -0.17526627624E+01  0.22718544024E+01  0.14687072888E+04  0.14687441347E+04  0.10000000000E+02 0. -1.
</event>
<event>
 5    1  0.1338054E-008  0.4048535E+03  0.7957747E-01  0.3349601E+00
         13   -1    0    0    0    0  0.00000000000E+00  0.00000000000E+00  0.14999999963E+04  0.15000000000E+04  0.10566000000E+00 0. -1.
        994   -1    0    0    0    0 -0.00000000000E+00 -0.00000000000E+00  0.11368683772E-12  0.17120000000E+03  0.17120000000E+03 0.  0.
         13    1    1    2    0    0  0.14845945097E+02 -0.32877888431E+02  0.82380655094E+01  0.37003169065E+02  0.10566000000E+00 0. -1.
        994    1    1    2    0    0 -0.82154340382E+01  0.45774953751E+02  0.39398401858E+02  0.18172648078E+03  0.17120000000E+03 0.  0.
        998    1    1    2    0    0 -0.66305110585E+01 -0.12897065320E+02  0.14523635289E+04  0.14524703502E+04  0.10000000000E+02 0. -1.
</event>
<event>
 5    1  0.1566417E-008  0.3860553E+03  0.7957747E-01  0.3425209E+00
         13   -1    0    0    0    0  0.00000000000E+00  0.00000000000E+00  0.14999999963E+04  0.15000000000E+04  0.10566000000E+00 0. -1.
        994   -1    0    0    0    0 -0.00000000000E+00 -0.00000000000E+00  0.11368683772E-12  0.17120000000E+03  0.17120000000E+03 0.  0.
         13    1    1    2    0    0  0.10012072982E+02 -0.18398773420E+01  0.47232131359E+02  0.48316789533E+02  0.10566000000E+00 0. -1.
        994    1    1    2    0    0 -0.70155342108E+01  0.26649313782E+01  0.12917032996E+01  0.17136927402E+03  0.17120000000E+03 0.  0.
        998    1    1    2    0    0 -0.29965387710E+01 -0.82505403614E+00  0.14514761616E+04  0.14515139365E+04  0.10000000000E+02 0. -1.
</event>
<event>
 5    1  0.1338054E-008  0.3813740E+03  0.7957747E-01  0.3445198E+00
         13   -1    0    0    0    0  0.00000000000E+00  0.00000000000E+00  0.14999999963E+04  0.15000000000E+04  0.10566000000E+00 0.  1.
        994   -1    0    0    0    0 -0.00000000000E+00 -0.00000000000E+00  0.11368683772E-12  0.17120000000E+03  0.17120000000E+03 0.  0.
         13    1    1    2    0    0  0.30499744836E+02 -0.42708251157E+02  0.29350865824E+03  0.29816366777E+03  0.10566000000E+00 0.  1.
        994    1    1    2    0    0 -0.46677621652E+02  0.43517517120E+02  0.17114624536E+02  0.18350728877E+03  0.17120000000E+03 0.  0.
        998    1    1    2    0    0  0.16177876817E+02 -0.80926596276E+00  0.11893767135E+04  0.11895290435E+04  0.10000000000E+02 0.  1.
</event>
<event>
 5    1  0.1338054E-008  0.3854037E+03  0.7957747E-01  0.3427962E+00
         13   -1    0    0    0    0  0.00000000000E+00  0.00000000000E+00  0.14999999963E+04  0.15000000000E+04  0.10566000000E+00 0.  1.
        994   -1    0    0    0    0 -0.00000000000E+00 -0.00000000000E+00  0.11368683772E-12  0.17120000000E+03  0.17120000000E+03 0.  0.
         13    1    1    2    0    0  0.87882940544E+01 -0.10837463868E+02  0.72650540476E+02  0.73978354476E+02  0.10566000000E+00 0.  1.
        994    1    1    2    0    0  0.32942841733E+01  0.36763084752E+01  0.15098577590E+01  0.17127780715E+03  0.17120000000E+03 0.  0.
        998    1    1    2    0    0 -0.12082578228E+02  0.71611553925E+01  0.14258395980E+04  0.14259438384E+04  0.10000000000E+02 0.  1.
</event>
<event>
 5    1  0.1338054E-008  0.3789016E+03  0.7957747E-01  0.3455955E+00
         13   -1    0    0    0    0  0.00000000000E+00  0.00000000000E+00  0.14999999963E+04  0.15000000000E+04  0.10566000000E+00 0.  1.
        994   -1    0    0    0    0 -0.00000000000E+00 -0.00000000000E+00  0.11368683772E-12  0.17120000000E+03  0.17120000000E+03 0.  0.
         13    1    1    2    0    0 -0.58928444938E+02  0.11377245766E+00  0.30855803330E+03  0.31413475715E+03  0.10566000000E+00 0.  1.
        994    1    1    2    0    0  0.53917233453E+02 -0.20997645324E+01  0.14519687398E+02  0.18008814063E+03  0.17120000000E+03 0.  0.
        998    1    1    2    0    0  0.50112114854E+01  0.19859920747E+01  0.11769222756E+04  0.11769771022E+04  0.10000000000E+02 0.  1.
</event>
<event>
 5    1  0.1338054E-008  0.3824415E+03  0.7957747E-01  0.3440596E+00
         13   -1    0    0    0    0  0.00000000000E+00  0.00000000000E+00  0.14999999963E+04  0.15000000000E+04  0.10566000000E+00 0.  1.
        994   -1    0    0    0    0 -0.00000000000E+00 -0.00000000000E+00  0.11368683772E-12  0.17120000000E+03  0.17120000000E+03 0.  0.
         13    1    1    2    0    0  0.16028549753E+02 -0.53304919371E+01  0.47587388920E+02  0.50496527600E+02  0.10566000000E+00 0.  1.
        994    1    1    2    0    0 -0.11904044892E+02  0.82787999915E+01  0.36032306923E+01  0.17185071453E+03  0.17120000000E+03 0.  0.
        998    1    1    2    0    0 -0.41245048609E+01 -0.29483080544E+01  0.14488093767E+04  0.14488527579E+04  0.10000000000E+02 0.  1.
</event>
<event>
 5    1  0.1338054E-008  0.3709526E+03  0.7957747E-01  0.3491524E+00
         13   -1    0    0    0    0  0.00000000000E+00  0.00000000000E+00  0.14999999963E+04  0.15000000000E+04  0.10566000000E+00 0. -1.
        994   -1    0    0    0    0 -0.00000000000E+00 -0.00000000000E+00  0.11368683772E-12  0.17120000000E+03  0.17120000000E+03 0.  0.
         13    1    1    2    0    0 -0.26617485481E+02  0.19285735417E+02  0.53825360079E+02  0.63068301670E+02  0.10566000000E+00 0. -1.
        994    1    1    2    0    0  0.34746275966E+02 -0.33313534245E+02  0.16800150035E+02  0.17863028942E+03  0.17120000000E+03 0.  0.
        998    1    1    2    0    0 -0.81287904852E+01  0.14027798828E+02  0.14293744862E+04  0.14295014089E+04  0.10000000000E+02 0. -1.
</event>
<event>
 5    1  0.1338054E-008  0.2947847E+03  0.7957747E-01  0.3933970E+00
         13   -1    0    0    0    0  0.00000000000E+00  0.00000000000E+00  0.14999999963E+04  0.15000000000E+04  0.10566000000E+00 0.  1.
        994   -1    0    0    0    0 -0.00000000000E+00 -0.00000000000E+00  0.11368683772E-12  0.17120000000E+03  0.17120000000E+03 0.  0.
         13    1    1    2    0    0 -0.18855951325E+03 -0.37187914958E+02  0.59876648533E+03  0.62885526647E+03  0.10566000000E+00 0.  1.
        994    1    1    2    0    0  0.17930252191E+03  0.34838390374E+02  0.15177699238E+03  0.29276065860E+03  0.17120000000E+03 0.  0.
        998    1    1    2    0    0  0.92569913351E+01  0.23495245842E+01  0.74945651857E+03  0.74958407493E+03  0.10000000000E+02 0.  1.
</event>
<event>
 5    1  0.1338054E-008  0.3857009E+03  0.7957747E-01  0.3426705E+00
         13   -1    0    0    0    0  0.00000000000E+00  0.00000000000E+00  0.14999999963E+04  0.15000000000E+04  0.10566000000E+00 0.  1.
        994   -1    0    0    0    0 -0.00000000000E+00 -0.00000000000E+00  0.11368683772E-12  0.17120000000E+03  0.17120000000E+03 0.  0.
         13    1    1    2    0    0 -0.60910960285E+01  0.13383239828E+02  0.82901068946E+02  0.84195076790E+02  0.10566000000E+00 0.  1.
        994    1    1    2    0    0  0.13991304516E+02 -0.76223834913E+01  0.21159467033E+01  0.17195282656E+03  0.17120000000E+03 0.  0.
        998    1    1    2    0    0 -0.79002084875E+01 -0.57608563364E+01  0.14149829806E+04  0.14150520966E+04  0.10000000000E+02 0.  1.
</event>
<event>
 5    1  0.1338054E-008  0.3706105E+03  0.7957747E-01  0.3493090E+00
         13   -1    0    0    0    0  0.00000000000E+00  0.00000000000E+00  0.14999999963E+04  0.15000000000E+04  0.10566000000E+00 0. -1.
        994   -1    0    0    0    0 -0.00000000000E+00 -0.00000000000E+00  0.11368683772E-12  0.17120000000E+03  0.17120000000E+03 0.  0.
         13    1    1    2    0    0  0.86220262733E+01  0.62665778646E+01 -0.18093988949E+00  0.10660827288E+02  0.10566000000E+00 0. -1.
        994    1    1    2    0    0 -0.97177731932E+00 -0.36940679427E+01  0.11313122325E+02  0.17161590027E+03  0.17120000000E+03 0.  0.
        998    1    1    2    0    0 -0.76502489540E+01 -0.25725099219E+01  0.14888678138E+04  0.14889232724E+04  0.10000000000E+02 0. -1.
</event>
<event>
 5    1  0.1338054E-008  0.3527470E+03  0.7957747E-01  0.3579145E+00
         13   -1    0    0    0    0  0.00000000000E+00  0.00000000000E+00  0.14999999963E+04  0.15000000000E+04  0.10566000000E+00 0. -1.
        994   -1    0    0    0    0 -0.00000000000E+00 -0.00000000000E+00  0.11368683772E-12  0.17120000000E+03  0.17120000000E+03 0.  0.
         13    1    1    2    0    0 -0.22422511700E+03  0.38466926933E+02  0.10997729789E+04  0.11230570884E+04  0.10566000000E+00 0. -1.
        994    1    1    2    0    0  0.17688672550E+03 -0.18605119478E+02  0.14225554319E+03  0.28492304873E+03  0.17120000000E+03 0.  0.
        998    1    1    2    0    0  0.47338391504E+02 -0.19861807454E+02  0.25797147418E+03  0.26321986285E+03  0.10000000000E+02 0. -1.
</event>
<event>
 5    1  0.1338054E-008  0.3807247E+03  0.7957747E-01  0.3448009E+00
         13   -1    0    0    0    0  0.00000000000E+00  0.00000000000E+00  0.14999999963E+04  0.15000000000E+04  0.10566000000E+00 0.  1.
        994   -1    0    0    0    0 -0.00000000000E+00 -0.00000000000E+00  0.11368683772E-12  0.17120000000E+03  0.17120000000E+03 0.  0.
         13    1    1    2    0    0 -0.92525919991E+01  0.41919844501E+01  0.12238341242E+02  0.15905073176E+02  0.10566000000E+00 0.  1.
        994    1    1    2    0    0 -0.33139140445E+00 -0.38538513593E+01  0.38176494143E+01  0.17128624124E+03  0.17120000000E+03 0.  0.
        998    1    1    2    0    0  0.95839834035E+01 -0.33813309087E+00  0.14839440056E+04  0.14840086856E+04  0.10000000000E+02 0.  1.
</event>
<event>
 5    1  0.1338054E-008  0.3857559E+03  0.7957747E-01  0.3426473E+00
         13   -1    0    0    0    0  0.00000000000E+00  0.00000000000E+00  0.14999999963E+04  0.15000000000E+04  0.10566000000E+00 0.  1.
        994   -1    0    0    0    0 -0.00000000000E+00 -0.00000000000E+00  0.11368683772E-12  0.17120000000E+03  0.17120000000E+03 0.  0.
         13    1    1    2    0    0 -0.48500819185E+01 -0.12469168529E+02  0.80819428342E+02  0.81919439817E+02  0.10566000000E+00 0.  1.
        994    1    1    2    0    0 -0.33256212410E+00 -0.57554925773E+01  0.13643408356E+01  0.17130247435E+03  0.17120000000E+03 0.  0.
        998    1    1    2    0    0  0.51826440426E+01  0.18224661106E+02  0.14178162271E+04  0.14179780858E+04  0.10000000000E+02 0.  1.
</event>
<event>
 5    1  0.1338054E-008  0.3784524E+03  0.7957747E-01  0.3457925E+00
         13   -1    0    0    0    0  0.00000000000E+00  0.00000000000E+00  0.14999999963E+04  0.15000000000E+04  0.10566000000E+00 0. -1.
        994   -1    0    0    0    0 -0.00000000000E+00 -0.00000000000E+00  0.11368683772E-12  0.17120000000E+03  0.17120000000E+03 0.  0.
         13    1    1    2    0    0 -0.29846425458E+02 -0.25369527400E+02  0.19495821720E+03  0.19885456910E+03  0.10566000000E+00 0. -1.
        994    1    1    2    0    0 -0.10961039804E+02 -0.32831901046E+01  0.53564443473E+01  0.17166553302E+03  0.17120000000E+03 0.  0.
        998    1    1    2    0    0  0.40807465261E+02  0.28652717504E+02  0.12996853347E+04  0.13006798979E+04  0.10000000000E+02 0. -1.
</event>
<event>
 5    1  0.1338054E-008  0.3849295E+03  0.7957747E-01  0.3429971E+00
         13   -1    0    0    0    0  0.00000000000E+00  0.00000000000E+00  0.14999999963E+04  0.15000000000E+04  0.10566000000E+00 0. -1.
        994   -1    0    0    0    0 -0.00000000000E+00 -0.00000000000E+00  0.11368683772E-12  0.17120000000E+03  0.17120000000E+03 0.  0.
         13    1    1    2    0    0  0.44849013439E+01  0.15143138794E+02  0.77223157766E+02  0.78821673745E+02  0.10566000000E+00 0. -1.
        994    1    1    2    0    0 -0.44530053171E+01 -0.47853352184E+01  0.18057100541E+01  0.17133426183E+03  0.17120000000E+03 0.  0.
        998    1    1    2    0    0 -0.31896026786E-01 -0.10357803575E+02  0.14209711285E+04  0.14210440644E+04  0.10000000000E+02 0. -1.
</event>
<event>
 5    1  0.1338054E-008  0.3845511E+03  0.7957747E-01  0.3431578E+00
         13   -1    0    0    0    0  0.00000000000E+00  0.00000000000E+00  0.14999999963E+04  0.15000000000E+04  0.10566000000E+00 0.  1.
        994   -1    0    0    0    0 -0.00000000000E+00 -0.00000000000E+00  0.11368683772E-12  0.17120000000E+03  0.17120000000E+03 0.  0.
         13    1    1    2    0    0 -0.26045997652E+01 -0.13223655061E+02  0.48945177270E+02  0.50767022122E+02  0.10566000000E+00 0.  1.
        994    1    1    2    0    0  0.60718350942E+01  0.71915878812E+01  0.21449964319E+01  0.17147194268E+03  0.17120000000E+03 0.  0.
        998    1    1    2    0    0 -0.34672353290E+01  0.60320671794E+01  0.14489098226E+04  0.14489610352E+04  0.10000000000E+02 0.  1.
</event>
<event>
 5    1  0.1338054E-008  0.3863076E+03  0.7957747E-01  0.3424145E+00
         13   -1    0    0    0    0  0.00000000000E+00  0.00000000000E+00  0.14999999963E+04  0.15000000000E+04  0.10566000000E+00 0. -1.
        994   -1    0    0    0    0 -0.00000000000E+00 -0.00000000000E+00  0.11368683772E-12  0.17120000000E+03  0.17120000000E+03 0.  0.
         13    1    1    2    0    0  0.97383055205E+01  0.48258495094E+01  0.60877074761E+02  0.61839734908E+02  0.10566000000E+00 0. -1.
        994    1    1    2    0    0 -0.10809751011E+02  0.37529103124E+01  0.14112073177E+01  0.17158778091E+03  0.17120000000E+03 0.  0.
        998    1    1    2    0    0  0.10714454902E+01 -0.85787598218E+01  0.14377117142E+04  0.14377724842E+04  0.10000000000E+02 0. -1.
</event>
<event>
 5    1  0.1338054E-008  0.3784479E+03  0.7957747E-01  0.3457945E+00
         13   -1    0    0    0    0  0.00000000000E+00  0.00000000000E+00  0.14999999963E+04  0.15000000000E+04  0.10566000000E+00 0. -1.
        994   -1    0    0    0    0 -0.00000000000E+00 -0.00000000000E+00  0.11368683772E-12  0.17120000000E+03  0.17120000000E+03 0.  0.
         13    1    1    2    0    0  0.33522585924E+02 -0.44015263856E+02  0.27398361772E+03  0.27951411621E+03  0.10566000000E+00 0. -1.
        994    1    1    2    0    0 -0.10818597220E+02  0.51513924919E+02  0.14285816573E+02  0.17967818750E+03  0.17120000000E+03 0.  0.
        998    1    1    2    0    0 -0.22703988704E+02 -0.74986610633E+01  0.12117305620E+04  0.12120076963E+04  0.10000000000E+02 0. -1.
</event>
<event>
 5    1  0.1338054E-008  0.3853543E+03  0.7957747E-01  0.3428171E+00
         13   -1    0    0    0    0  0.00000000000E+00  0.00000000000E+00  0.14999999963E+04  0.15000000000E+04  0.10566000000E+00 0. -1.
        994   -1    0    0    0    0 -0.00000000000E+00 -0.00000000000E+00  0.11368683772E-12  0.17120000000E+03  0.17120000000E+03 0.  0.
         13    1    1    2    0    0 -0.69006866235E+01  0.14077187998E+02  0.79661001652E+02  0.81189119012E+02  0.10566000000E+00 0. -1.
        994    1    1    2    0    0  0.56471217684E+01 -0.18145680838E+02  0.26415751896E+01  0.17227180163E+03  0.17120000000E+03 0.  0.
        998    1    1    2    0    0  0.12535648551E+01  0.40684928405E+01  0.14176974194E+04  0.14177390794E+04  0.10000000000E+02 0. -1.
</event>
<event>
 5    1  0.1338054E-008  0.3853138E+03  0.7957747E-01  0.3428342E+00
         13   -1    0    0    0    0  0.00000000000E+00  0.00000000000E+00  0.14999999963E+04  0.15000000000E+04  0.10566000000E+00 0. -1.
        994   -1    0    0    0    0 -0.00000000000E+00 -0.00000000000E+00  0.11368683772E-12  0.17120000000E+03  0.17120000000E+03 0.  0.
         13    1    1    2    0    0  0.11586783928E+00  0.18192988163E+02  0.10301408334E+03  0.10460836857E+03  0.10566000000E+00 0. -1.
        994    1    1    2    0    0 -0.15736892759E+02 -0.22683573997E+02  0.39824648616E+01  0.17345747130E+03  0.17120000000E+03 0.  0.
        998    1    1    2    0    0  0.15621024920E+02  0.44905858333E+01  0.13930034481E+04  0.13931341601E+04  0.10000000000E+02 0. -1.
</event>
<event>
 5    1  0.1338054E-008  0.3805840E+03  0.7957747E-01  0.3448620E+00
         13   -1    0    0    0    0  0.00000000000E+00  0.00000000000E+00  0.14999999963E+04  0.15000000000E+04  0.10566000000E+00 0. -1.
        994   -1    0    0    0    0 -0.00000000000E+00 -0.00000000000E+00  0.11368683772E-12  0.17120000000E+03  0.17120000000E+03 0.  0.
         13    1    1    2    0    0 -0.16333687984E+02 -0.47479911572E+02  0.24907293160E+03  0.25408358426E+03  0.10566000000E+00 0. -1.
        994    1    1    2    0    0  0.14921089261E+02  0.60073903530E+02  0.16729903099E+02  0.18281368233E+03  0.17120000000E+03 0.  0.
        998    1    1    2    0    0  0.14125987230E+01 -0.12593991958E+02  0.12341971616E+04  0.12343027334E+04  0.10000000000E+02 0. -1.
</event>
<event>
 5    1  0.1338054E-008  0.3847742E+03  0.7957747E-01  0.3430630E+00
         13   -1    0    0    0    0  0.00000000000E+00  0.00000000000E+00  0.14999999963E+04  0.15000000000E+04  0.10566000000E+00 0. -1.
        994   -1    0    0    0    0 -0.00000000000E+00 -0.00000000000E+00  0.11368683772E-12  0.17120000000E+03  0.17120000000E+03 0.  0.
         13    1    1    2    0    0 -0.22546746606E+02 -0.12537417759E+01  0.13620437529E+03  0.13806364714E+03  0.10566000000E+00 0. -1.
        994    1    1    2    0    0  0.22326702740E+02 -0.47374058729E+01  0.34585497752E+01  0.17274931617E+03  0.17120000000E+03 0.  0.
        998    1    1    2    0    0  0.22004386615E+00  0.59911476488E+01  0.13603370712E+04  0.13603870367E+04  0.10000000000E+02 0. -1.
</event>
<event>
 5    1  0.1338054E-008  0.3860798E+03  0.7957747E-01  0.3425106E+00
         13   -1    0    0    0    0  0.00000000000E+00  0.00000000000E+00  0.14999999963E+04  0.15000000000E+04  0.10566000000E+00 0. -1.
        994   -1    0    0    0    0 -0.00000000000E+00 -0.00000000000E+00  0.11368683772E-12  0.17120000000E+03  0.17120000000E+03 0.  0.
         13    1    1    2    0    0 -0.11984105687E+02  0.57654225836E+01  0.79627116295E+02  0.80730091665E+02  0.10566000000E+00 0. -1.
        994    1    1    2    0    0  0.13361161613E+02  0.20929233412E+00  0.16804020251E+01  0.17172893814E+03  0.17120000000E+03 0.  0.
        998    1    1    2    0    0 -0.13770559265E+01 -0.59747149177E+01  0.14186924780E+04  0.14187409702E+04  0.10000000000E+02 0. -1.
</event>
<event>
 5    1  0.1338054E-008  0.3715477E+03  0.7957747E-01  0.3488808E+00
         13   -1    0    0    0    0  0.00000000000E+00  0.00000000000E+00  0.14999999963E+04  0.15000000000E+04  0.10566000000E+00 0.  1.
        994   -1    0    0    0    0 -0.00000000000E+00 -0.00000000000E+00  0.11368683772E-12  0.17120000000E+03  0.17120000000E+03 0.  0.
         13    1    1    2    0    0 -0.20727225823E+02  0.53847859267E+01  0.22997590405E+02  0.31424737681E+02  0.10566000000E+00 0.  1.
        994    1    1    2    0    0  0.21378176982E+02 -0.14729308891E+02  0.10783846215E+02  0.17349268091E+03  0.17120000000E+03 0.  0.
        998    1    1    2    0    0 -0.65095115823E+00  0.93445229643E+01  0.14662185597E+04  0.14662825814E+04  0.10000000000E+02 0.  1.
</event>
<event>
 5    1  0.1338054E-008  0.3820946E+03  0.7957747E-01  0.3442089E+00
         13   -1    0    0    0    0  0.00000000000E+00  0.00000000000E+00  0.14999999963E+04  0.15000000000E+04  0.10566000000E+00 0. -1.
        994   -1    0    0    0    0 -0.00000000000E+00 -0.00000000000E+00  0.11368683772E-12  0.17120000000E+03  0.17120000000E+03 0.  0.
         13    1    1    2    0    0 -0.21702181827E+01 -0.15053682601E+02  0.35858385506E+02  0.38950714781E+02  0.10566000000E+00 0. -1.
        994    1    1    2    0    0 -0.55163629069E+00  0.15059346655E+02  0.38338021876E+01  0.17190470111E+03  0.17120000000E+03 0.  0.
        998    1    1    2    0    0  0.27218544734E+01 -0.56640541945E-02  0.14603078086E+04  0.14603445841E+04  0.10000000000E+02 0. -1.
</event>
<event>
 5    1  0.1338054E-008  0.3730670E+03  0.7957747E-01  0.3481913E+00
         13   -1    0    0    0    0  0.00000000000E+00  0.00000000000E+00  0.14999999963E+04  0.15000000000E+04  0.10566000000E+00 0.  1.
        994   -1    0    0    0    0 -0.00000000000E+00 -0.00000000000E+00  0.11368683772E-12  0.17120000000E+03  0.17120000000E+03 0.  0.
         13    1    1    2    0    0  0.51352028692E+02 -0.14221728783E+02  0.17883390935E+03  0.18660350135E+03  0.10566000000E+00 0.  1.
        994    1    1    2    0    0 -0.32026161008E+02  0.15828746749E+02  0.12053888316E+02  0.17530248269E+03  0.17120000000E+03 0.  0.
        998    1    1    2    0    0 -0.19325867685E+02 -0.16070179664E+01  0.13091121986E+04  0.13092940160E+04  0.10000000000E+02 0.  1.
</event>
<event>
 5    1  0.1338054E-008  0.3781632E+03  0.7957747E-01  0.3459196E+00
         13   -1    0    0    0    0  0.00000000000E+00  0.00000000000E+00  0.14999999963E+04  0.15000000000E+04  0.10566000000E+00 0.  1.
        994   -1    0    0    0    0 -0.00000000000E+00 -0.00000000000E+00  0.11368683772E-12  0.17120000000E+03  0.17120000000E+03 0.  0.
         13    1    1    2    0    0  0.38215620591E+02  0.16349856028E+02  0.14627206010E+03  0.15206340184E+03  0.10566000000E+00 0.  1.
        994    1    1    2    0    0 -0.37422261917E+02 -0.40862358988E+02  0.15459595466E+02  0.18060619358E+03  0.17120000000E+03 0.  0.
        998    1    1    2    0    0 -0.79335867384E+00  0.24512502961E+02  0.13382683407E+04  0.13385304046E+04  0.10000000000E+02 0.  1.
</event>
<event>
 5    1  0.1338054E-008  0.3850229E+03  0.7957747E-01  0.3429575E+00
         13   -1    0    0    0    0  0.00000000000E+00  0.00000000000E+00  0.14999999963E+04  0.15000000000E+04  0.10566000000E+00 0. -1.
        994   -1    0    0    0    0 -0.00000000000E+00 -0.00000000000E+00  0.11368683772E-12  0.17120000000E+03  0.17120000000E+03 0.  0.
         13    1    1    2    0    0 -0.55872779195E+01  0.10552822393E+02  0.43314393770E+02  0.44930252689E+02  0.10566000000E+00 0. -1.
        994    1    1    2    0    0  0.41565150362E+00 -0.12060242439E+02  0.20977950941E+01  0.17163759191E+03  0.17120000000E+03 0.  0.
        998    1    1    2    0    0  0.51716264159E+01  0.15074200464E+01  0.14545878074E+04  0.14546321554E+04  0.10000000000E+02 0. -1.
</event>
<event>
 5    1  0.1338054E-008  0.3756013E+03  0.7957747E-01  0.3470538E+00
         13   -1    0    0    0    0  0.00000000000E+00  0.00000000000E+00  0.14999999963E+04  0.15000000000E+04  0.10566000000E+00 0. -1.
        994   -1    0    0    0    0 -0.00000000000E+00 -0.00000000000E+00  0.11368683772E-12  0.17120000000E+03  0.17120000000E+03 0.  0.
         13    1    1    2    0    0 -0.68922224619E+01  0.13912747907E+02  0.16708913268E+02  0.22809345265E+02  0.10566000000E+00 0. -1.
        994    1    1    2    0    0  0.36891303777E+01  0.56822296354E+01  0.65259854519E+01  0.17145823370E+03  0.17120000000E+03 0.  0.
        998    1    1    2    0    0  0.32030920842E+01 -0.19594977542E+02  0.14767650976E+04  0.14769324210E+04  0.10000000000E+02 0. -1.
</event>
<event>
 5    1  0.1338054E-008  0.3847416E+03  0.7957747E-01  0.3430769E+00
         13   -1    0    0    0    0  0.00000000000E+00  0.00000000000E+00  0.14999999963E+04  0.15000000000E+04  0.10566000000E+00 0. -1.
        994   -1    0    0    0    0 -0.00000000000E+00 -0.00000000000E+00  0.11368683772E-12  0.17120000000E+03  0.17120000000E+03 0.  0.
         13    1    1    2    0    0  0.18959265320E+02 -0.34046364113E+01  0.99800105873E+02  0.10164210538E+03  0.10566000000E+00 0. -1.
        994    1    1    2    0    0 -0.18435351561E+02  0.78471966815E+01  0.30809211535E+01  0.17239597663E+03  0.17120000000E+03 0.  0.
        998    1    1    2    0    0 -0.52391375971E+00 -0.44425602702E+01  0.13971189693E+04  0.13971619180E+04  0.10000000000E+02 0. -1.
</event>
<event>
 5    1  0.1338054E-008  0.3797346E+03  0.7957747E-01  0.3452315E+00
         13   -1    0    0    0    0  0.00000000000E+00  0.00000000000E+00  0.14999999963E+04  0.15000000000E+04  0.10566000000E+00 0. -1.
        994   -1    0    0    0    0 -0.00000000000E+00 -0.00000000000E+00  0.11368683772E-12  0.17120000000E+03  0.17120000000E+03 0.  0.
         13    1    1    2    0    0  0.30745755495E+02 -0.70646278550E+01  0.12553688772E+03  0.12944007027E+03  0.10566000000E+00 0. -1.
        994    1    1    2    0    0 -0.58794531027E+01 -0.79335442168E+01  0.45934860790E+01  0.17154605564E+03  0.17120000000E+03 0.  0.
        998    1    1    2    0    0 -0.24866302392E+02  0.14998172072E+02  0.13698696225E+04  0.13702138741E+04  0.10000000000E+02 0. -1.
</event>
<event>
 5    1  0.1338054E-008  0.3684202E+03  0.7957747E-01  0.3503183E+00
         13   -1    0    0    0    0  0.00000000000E+00  0.00000000000E+00  0.14999999963E+04  0.15000000000E+04  0.10566000000E+00 0. -1.
        994   -1    0    0    0    0 -0.00000000000E+00 -0.00000000000E+00  0.11368683772E-12  0.17120000000E+03  0.17120000000E+03 0.  0.
         13    1    1    2    0    0 -0.16917242579E+01 -0.71158046534E+02  0.31392391187E+03  0.32189216070E+03  0.10566000000E+00 0. -1.
        994    1    1    2    0    0  0.12418439461E+02  0.58103638276E+01  0.10759688475E+02  0.17208483043E+03  0.17120000000E+03 0.  0.
        998    1    1    2    0    0 -0.10726715203E+02  0.65347682706E+02  0.11753163959E+04  0.11772230089E+04  0.10000000000E+02 0. -1.
</event>
<event>
 5    1  0.1338054E-008  0.3859165E+03  0.7957747E-01  0.3425795E+00
         13   -1    0    0    0    0  0.00000000000E+00  0.00000000000E+00  0.14999999963E+04  0.15000000000E+04  0.10566000000E+00 0. -1.
        994   -1    0    0    0    0 -0.00000000000E+00 -0.00000000000E+00  0.11368683772E-12  0.17120000000E+03  0.17120000000E+03 0.  0.
         13    1    1    2    0    0  0.74622305790E+01  0.10912067884E+02  0.73160294617E+02  0.74345127501E+02  0.10566000000E+00 0. -1.
        994    1    1    2    0    0 -0.52391581411E+01 -0.11001124824E+02  0.16627811734E+01  0.17164113250E+03  0.17120000000E+03 0.  0.
        998    1    1    2    0    0 -0.22230724379E+01  0.89056940831E-01  0.14251769205E+04  0.14252137400E+04  0.10000000000E+02 0. -1.
</event>
<event>
 5    1  0.1338054E-008  0.3833119E+03  0.7957747E-01  0.3436863E+00
         13   -1    0    0    0    0  0.00000000000E+00  0.00000000000E+00  0.14999999963E+04  0.15000000000E+04  0.10566000000E+00 0. -1.
        994   -1    0    0    0    0 -0.00000000000E+00 -0.00000000000E+00  0.11368683772E-12  0.17120000000E+03  0.17120000000E+03 0.  0.
         13    1    1    2    0    0 -0.81491652857E+01  0.88180077214E+01  0.27015417141E+02  0.29563661518E+02  0.10566000000E+00 0. -1.
        994    1    1    2    0    0  0.12172551622E+02 -0.18608922957E+02  0.41073424978E+01  0.17268692275E+03  0.17120000000E+03 0.  0.
        998    1    1    2    0    0 -0.40233863366E+01  0.97909152356E+01  0.14688772366E+04  0.14689494157E+04  0.10000000000E+02 0. -1.
</event>
<event>
 5    1  0.1338054E-008  0.3766816E+03  0.7957747E-01  0.3465736E+00
         13   -1    0    0    0    0  0.00000000000E+00  0.00000000000E+00  0.14999999963E+04  0.15000000000E+04  0.10566000000E+00 0.  1.
        994   -1    0    0    0    0 -0.00000000000E+00 -0.00000000000E+00  0.11368683772E-12  0.17120000000E+03  0.17120000000E+03 0.  0.
         13    1    1    2    0    0  0.16682127741E+02 -0.17195546930E+01  0.21574222268E+02  0.27325967226E+02  0.10566000000E+00 0.  1.
        994    1    1    2    0    0 -0.12898698215E+02  0.12025200544E+02  0.68695555937E+01  0.17224288856E+03  0.17120000000E+03 0.  0.
        998    1    1    2    0    0 -0.37834295258E+01 -0.10305645851E+02  0.14715562184E+04  0.14716311442E+04  0.10000000000E+02 0.  1.
</event>
<event>
 5    1  0.2037116E-008  0.3863872E+03  0.7957747E-01  0.3423810E+00
         13   -1    0    0    0    0  0.00000000000E+00  0.00000000000E+00  0.14999999963E+04  0.15000000000E+04  0.10566000000E+00 0. -1.
        994   -1    0    0    0    0 -0.00000000000E+00 -0.00000000000E+00  0.11368683772E-12  0.17120000000E+03  0.17120000000E+03 0.  0.
         13    1    1    2    0    0 -0.27942113215E+01 -0.10505715618E+02  0.64719861892E+02  0.65626590380E+02  0.10566000000E+00 0. -1.
        994    1    1    2    0    0  0.39912583094E+01  0.47958949814E+01  0.10704580766E+01  0.17131700625E+03  0.17120000000E+03 0.  0.
        998    1    1    2    0    0 -0.11970469879E+01  0.57098206361E+01  0.14342096763E+04  0.14342564034E+04  0.10000000000E+02 0. -1.
</event>
<event>
 5    1  0.1338054E-008  0.3746267E+03  0.7957747E-01  0.3474894E+00
         13   -1    0    0    0    0  0.00000000000E+00  0.00000000000E+00  0.14999999963E+04  0.15000000000E+04  0.10566000000E+00 0. -1.
        994   -1    0    0    0    0 -0.00000000000E+00 -0.00000000000E+00  0.11368683772E-12  0.17120000000E+03  0.17120000000E+03 0.  0.
         13    1    1    2    0    0  0.15604693498E+02 -0.49046367299E+02  0.96594263524E+02  0.10945097311E+03  0.10566000000E+00 0. -1.
        994    1    1    2    0    0 -0.82122834507E+01  0.24603028532E+02  0.15800797381E+02  0.17387310261E+03  0.17120000000E+03 0.  0.
        998    1    1    2    0    0 -0.73924100477E+01  0.24443338767E+02  0.13876049354E+04  0.13878759243E+04  0.10000000000E+02 0. -1.
</event>
<event>
 5    1  0.1338054E-008  0.3759482E+03  0.7957747E-01  0.3468993E+00
         13   -1    0    0    0    0  0.00000000000E+00  0.00000000000E+00  0.14999999963E+04  0.15000000000E+04  0.10566000000E+00 0.  1.
        994   -1    0    0    0    0 -0.00000000000E+00 -0.00000000000E+00  0.11368683772E-12  0.17120000000E+03  0.17120000000E+03 0.  0.
         13    1    1    2    0    0  0.61876272175E+01 -0.14914265565E+02  0.17824169101E+02  0.24050659369E+02  0.10566000000E+00 0.  1.
        994    1    1    2    0    0 -0.88267984259E+01  0.22365269166E+02  0.81539697890E+01  0.17307236885E+03  0.17120000000E+03 0.  0.
        998    1    1    2    0    0  0.26391712084E+01 -0.74510036009E+01  0.14740218574E+04  0.14740769718E+04  0.10000000000E+02 0.  1.
</event>
<event>
 5    1  0.1338054E-008  0.3839166E+03  0.7957747E-01  0.3434280E+00
         13   -1    0    0    0    0  0.00000000000E+00  0.00000000000E+00  0.14999999963E+04  0.15000000000E+04  0.10566000000E+00 0.  1.
        994   -1    0    0    0    0 -0.00000000000E+00 -0.00000000000E+00  0.11368683772E-12  0.17120000000E+03  0.17120000000E+03 0.  0.
         13    1    1    2    0    0  0.13183347494E+03  0.16867790810E+03  0.10493754483E+04  0.10709907303E+04  0.10566000000E+00 0.  1.
        994    1    1    2    0    0 -0.13539449259E+03 -0.18352982092E+03  0.19857649204E+03  0.34750097407E+03  0.17120000000E+03 0.  0.
        998    1    1    2    0    0  0.35610176454E+01  0.14851912815E+02  0.25204805597E+03  0.25270829562E+03  0.10000000000E+02 0. -1.
</event>
<event>
 5    1  0.1338054E-008  0.4077136E+03  0.7957747E-01  0.3338706E+00
         13   -1    0    0    0    0  0.00000000000E+00  0.00000000000E+00  0.14999999963E+04  0.15000000000E+04  0.10566000000E+00 0. -1.
        994   -1    0    0    0    0 -0.00000000000E+00 -0.00000000000E+00  0.11368683772E-12  0.17120000000E+03  0.17120000000E+03 0.  0.
         13    1    1    2    0    0 -0.22358710957E+02  0.58255001475E+02  0.59976367425E+02  0.86549020596E+02  0.10566000000E+00 0. -1.
        994    1    1    2    0    0 -0.41222226876E+01  0.34596264143E+02  0.37393794339E+02  0.17866625330E+03  0.17120000000E+03 0.  0.
        998    1    1    2    0    0  0.26480933645E+02 -0.92851265617E+02  0.14026298345E+04  0.14059847261E+04  0.10000000000E+02 0. -1.
</event>
<event>
 5    1  0.1338054E-008  0.3779216E+03  0.7957747E-01  0.3460259E+00
         13   -1    0    0    0    0  0.00000000000E+00  0.00000000000E+00  0.14999999963E+04  0.15000000000E+04  0.10566000000E+00 0. -1.
        994   -1    0    0    0    0 -0.00000000000E+00 -0.00000000000E+00  0.11368683772E-12  0.17120000000E+03  0.17120000000E+03 0.  0.
         13    1    1    2    0    0  0.91512082128E+02  0.56674643701E+01  0.53366079765E+03  0.54147986060E+03  0.10566000000E+00 0. -1.
        994    1    1    2    0    0 -0.10705262993E+03  0.63677544204E+02  0.59326947834E+02  0.21987319516E+03  0.17120000000E+03 0.  0.
        998    1    1    2    0    0  0.15540547805E+02 -0.69345008574E+02  0.90701225079E+03  0.90984694423E+03  0.10000000000E+02 0. -1.
</event>
<event>
 5    1  0.1338054E-008  0.3825590E+03  0.7957747E-01  0.3440091E+00
         13   -1    0    0    0    0  0.00000000000E+00  0.00000000000E+00  0.14999999963E+04  0.15000000000E+04  0.10566000000E+00 0.  1.
        994   -1    0    0    0    0 -0.00000000000E+00 -0.00000000000E+00  0.11368683772E-12  0.17120000000E+03  0.17120000000E+03 0.  0.
         13    1    1    2    0    0  0.32225648157E+02 -0.42332600740E+01  0.18027631411E+03  0.18318289626E+03  0.10566000000E+00 0.  1.
        994    1    1    2    0    0 -0.20203472556E+02  0.17656317924E+02  0.52370685131E+01  0.17336894979E+03  0.17120000000E+03 0.  0.
        998    1    1    2    0    0 -0.12022175600E+02 -0.13423057850E+02  0.13144866137E+04  0.13146481539E+04  0.10000000000E+02 0.  1.
</event>
<event>
 5    1  0.1338054E-008  0.3812566E+03  0.7957747E-01  0.3445705E+00
         13   -1    0    0    0    0  0.00000000000E+00  0.00000000000E+00  0.14999999963E+04  0.15000000000E+04  0.10566000000E+00 0. -1.
        994   -1    0    0    0    0 -0.00000000000E+00 -0.00000000000E+00  0.11368683772E-12  0.17120000000E+03  0.17120000000E+03 0.  0.
         13    1    1    2    0    0  0.18064371098E+02  0.39896936724E+01  0.47084771875E+02  0.50588793871E+02  0.10566000000E+00 0. -1.
        994    1    1    2    0    0 -0.14863475360E+02 -0.28419197974E+01  0.42628877727E+01  0.17192036418E+03  0.17120000000E+03 0.  0.
        998    1    1    2    0    0 -0.32008957373E+01 -0.11477738750E+01  0.14486523366E+04  0.14486908419E+04  0.10000000000E+02 0. -1.
</event>
<event>
 5    1  0.1338054E-008  0.3832784E+03  0.7957747E-01  0.3437007E+00
         13   -1    0    0    0    0  0.00000000000E+00  0.00000000000E+00  0.14999999963E+04  0.15000000000E+04  0.10566000000E+00 0. -1.
        994   -1    0    0    0    0 -0.00000000000E+00 -0.00000000000E+00  0.11368683772E-12  0.17120000000E+03  0.17120000000E+03 0.  0.
         13    1    1    2    0    0 -0.17030493905E+02  0.14711399034E+02  0.10175870466E+03  0.10421759987E+03  0.10566000000E+00 0. -1.
        994    1    1    2    0    0  0.10886270124E+02 -0.73455823971E+01  0.30578933106E+01  0.17173019295E+03  0.17120000000E+03 0.  0.
        998    1    1    2    0    0  0.61442237809E+01 -0.73658166373E+01  0.13951833983E+04  0.13952522072E+04  0.10000000000E+02 0. -1.
</event>
<event>
 5    1  0.1338054E-008  0.3843329E+03  0.7957747E-01  0.3432506E+00
         13   -1    0    0    0    0  0.00000000000E+00  0.00000000000E+00  0.14999999963E+04  0.15000000000E+04  0.10566000000E+00 0.  1.
        994   -1    0    0    0    0 -0.00000000000E+00 -0.00000000000E+00  0.11368683772E-12  0.17120000000E+03  0.17120000000E+03 0.  0.
         13    1    1    2    0    0  0.15650442385E+02 -0.14897041086E+02  0.11276599690E+03  0.11481741767E+03  0.10566000000E+00 0.  1.
        994    1    1    2    0    0 -0.13063420753E+02  0.15576412723E+02  0.33249678261E+01  0.17243483699E+03  0.17120000000E+03 0.  0.
        998    1    1    2    0    0 -0.25870216320E+01 -0.67937163701E+00  0.13839090316E+04  0.13839477453E+04  0.10000000000E+02 0.  1.
</event>
<event>
 5    1  0.1338054E-008  0.3820898E+03  0.7957747E-01  0.3442109E+00
         13   -1    0    0    0    0  0.00000000000E+00  0.00000000000E+00  0.14999999963E+04  0.15000000000E+04  0.10566000000E+00 0.  1.
        994   -1    0    0    0    0 -0.00000000000E+00 -0.00000000000E+00  0.11368683772E-12  0.17120000000E+03  0.17120000000E+03 0.  0.
         13    1    1    2    0    0 -0.60775658178E+02 -0.99038110357E+02  0.63505203184E+03  0.64559532389E+03  0.10566000000E+00 0.  1.
        994    1    1    2    0    0  0.84548141053E+02  0.12799700660E+03  0.85599942855E+02  0.24529250309E+03  0.17120000000E+03 0.  0.
        998    1    1    2    0    0 -0.23772482875E+02 -0.28958896238E+02  0.77934802159E+03  0.78031217302E+03  0.10000000000E+02 0.  1.
</event>
<event>
 5    1  0.1338054E-008  0.3724245E+03  0.7957747E-01  0.3484822E+00
         13   -1    0    0    0    0  0.00000000000E+00  0.00000000000E+00  0.14999999963E+04  0.15000000000E+04  0.10566000000E+00 0.  1.
        994   -1    0    0    0    0 -0.00000000000E+00 -0.00000000000E+00  0.11368683772E-12  0.17120000000E+03  0.17120000000E+03 0.  0.
         13    1    1    2    0    0  0.15313427870E+02 -0.58567353752E+02  0.18149795898E+03  0.19132735371E+03  0.10566000000E+00 0.  1.
        994    1    1    2    0    0 -0.69909092525E+02  0.64036159564E+02  0.39485675181E+02  0.19964085127E+03  0.17120000000E+03 0.  0.
        998    1    1    2    0    0  0.54595664655E+02 -0.54688058126E+01  0.12790163621E+04  0.12802317950E+04  0.10000000000E+02 0.  1.
</event>
<event>
 5    1  0.1338054E-008  0.3764585E+03  0.7957747E-01  0.3466725E+00
         13   -1    0    0    0    0  0.00000000000E+00  0.00000000000E+00  0.14999999963E+04  0.15000000000E+04  0.10566000000E+00 0.  1.
        994   -1    0    0    0    0 -0.00000000000E+00 -0.00000000000E+00  0.11368683772E-12  0.17120000000E+03  0.17120000000E+03 0.  0.
         13    1    1    2    0    0 -0.21189553790E+02  0.13890323526E+02  0.50021441376E+02  0.56072221633E+02  0.10566000000E+00 0.  1.
        994    1    1    2    0    0  0.22780565607E+02 -0.14962420663E+02  0.84483793758E+01  0.17356164126E+03  0.17120000000E+03 0.  0.
        998    1    1    2    0    0 -0.15910118170E+01  0.10720971373E+01  0.14415301755E+04  0.14415661371E+04  0.10000000000E+02 0.  1.
</event>
<event>
 5    1  0.1338054E-008  0.3695359E+03  0.7957747E-01  0.3498026E+00
         13   -1    0    0    0    0  0.00000000000E+00  0.00000000000E+00  0.14999999963E+04  0.15000000000E+04  0.10566000000E+00 0. -1.
        994   -1    0    0    0    0 -0.00000000000E+00 -0.00000000000E+00  0.11368683772E-12  0.17120000000E+03  0.17120000000E+03 0.  0.
         13    1    1    2    0    0 -0.13373228993E+03 -0.66262080799E+02  0.67362582032E+03  0.68996140884E+03  0.10566000000E+00 0. -1.
        994    1    1    2    0    0  0.12079747020E+03  0.70304109314E+02  0.80556390421E+02  0.23523067111E+03  0.17120000000E+03 0.  0.
        998    1    1    2    0    0  0.12934819736E+02 -0.40420285147E+01  0.74581778554E+03  0.74600792006E+03  0.10000000000E+02 0.  1.
</event>
<event>
 5    1  0.1338054E-008  0.3839547E+03  0.7957747E-01  0.3434118E+00
         13   -1    0    0    0    0  0.00000000000E+00  0.00000000000E+00  0.14999999963E+04  0.15000000000E+04  0.10566000000E+00 0. -1.
        994   -1    0    0    0    0 -0.00000000000E+00 -0.00000000000E+00  0.11368683772E-12  0.17120000000E+03  0.17120000000E+03 0.  0.
         13    1    1    2    0    0 -0.46686805762E+01 -0.12768331939E+02  0.42247682380E+02  0.44381355425E+02  0.10566000000E+00 0. -1.
        994    1    1    2    0    0  0.29239775194E+01  0.98244999981E+01  0.24968140314E+01  0.17152476359E+03  0.17120000000E+03 0.  0.
        998    1    1    2    0    0  0.17447030568E+01  0.29438319410E+01  0.14552554999E+04  0.14552938810E+04  0.10000000000E+02 0. -1.
</event>
<event>
 5    1  0.1338054E-008  0.3727337E+03  0.7957747E-01  0.3483421E+00
         13   -1    0    0    0    0  0.00000000000E+00  0.00000000000E+00  0.14999999963E+04  0.15000000000E+04  0.10566000000E+00 0.  1.
        994   -1    0    0    0    0 -0.00000000000E+00 -0.00000000000E+00  0.11368683772E-12  0.17120000000E+03  0.17120000000E+03 0.  0.
         13    1    1    2    0    0 -0.15907469384E+02  0.12193560323E+02  0.22388739700E+02  0.30049913893E+02  0.10566000000E+00 0.  1.
        994    1    1    2    0    0  0.10429471241E+02 -0.60256684765E+01  0.83442865983E+01  0.17182592840E+03  0.17120000000E+03 0.  0.
        998    1    1    2    0    0  0.54779981437E+01 -0.61678918465E+01  0.14692669700E+04  0.14693241577E+04  0.10000000000E+02 0.  1.
</event>
<event>
 5    1  0.1338054E-008  0.3835018E+03  0.7957747E-01  0.3436051E+00
         13   -1    0    0    0    0  0.00000000000E+00  0.00000000000E+00  0.14999999963E+04  0.15000000000E+04  0.10566000000E+00 0.  1.
        994   -1    0    0    0    0 -0.00000000000E+00 -0.00000000000E+00  0.11368683772E-12  0.17120000000E+03  0.17120000000E+03 0.  0.
         13    1    1    2    0    0  0.21019247572E+02  0.43030408195E+01  0.10158817407E+03  0.10382915392E+03  0.10566000000E+00 0.  1.
        994    1    1    2    0    0 -0.49298449611E+01 -0.28472742227E+01  0.24828943637E+01  0.17131262390E+03  0.17120000000E+03 0.  0.
        998    1    1    2    0    0 -0.16089402611E+02 -0.14557665968E+01  0.13959289278E+04  0.13960582222E+04  0.10000000000E+02 0.  1.
</event>
<event>
 5    1  0.1338054E-008  0.3806374E+03  0.7957747E-01  0.3448388E+00
         13   -1    0    0    0    0  0.00000000000E+00  0.00000000000E+00  0.14999999963E+04  0.15000000000E+04  0.10566000000E+00 0. -1.
        994   -1    0    0    0    0 -0.00000000000E+00 -0.00000000000E+00  0.11368683772E-12  0.17120000000E+03  0.17120000000E+03 0.  0.
         13    1    1    2    0    0 -0.53522223755E+01  0.20813830697E+02  0.59352030312E+02  0.63123185113E+02  0.10566000000E+00 0. -1.
        994    1    1    2    0    0  0.20675488548E+02 -0.85225652511E+01  0.54818437315E+01  0.17274142687E+03  0.17120000000E+03 0.  0.
        998    1    1    2    0    0 -0.15323266173E+02 -0.12291265446E+02  0.14351661222E+04  0.14353353880E+04  0.10000000000E+02 0. -1.
</event>
<event>
 5    1  0.1338054E-008  0.4018549E+03  0.7957747E-01  0.3361190E+00
         13   -1    0    0    0    0  0.00000000000E+00  0.00000000000E+00  0.14999999963E+04  0.15000000000E+04  0.10566000000E+00 0.  1.
        994   -1    0    0    0    0 -0.00000000000E+00 -0.00000000000E+00  0.11368683772E-12  0.17120000000E+03  0.17120000000E+03 0.  0.
         13    1    1    2    0    0 -0.43064136690E+02  0.38763632446E+02  0.29716237643E+02  0.65116856596E+02  0.10566000000E+00 0.  1.
        994    1    1    2    0    0  0.56330663733E+02 -0.18600889532E+03  0.20012496995E+03  0.32731009213E+03  0.17120000000E+03 0.  0.
        998    1    1    2    0    0 -0.13266527043E+02  0.14724526287E+03  0.12701587887E+04  0.12787730513E+04  0.10000000000E+02 0.  1.
</event>
<event>
 5    1  0.1338054E-008  0.3696807E+03  0.7957747E-01  0.3497360E+00
         13   -1    0    0    0    0  0.00000000000E+00  0.00000000000E+00  0.14999999963E+04  0.15000000000E+04  0.10566000000E+00 0.  1.
        994   -1    0    0    0    0 -0.00000000000E+00 -0.00000000000E+00  0.11368683772E-12  0.17120000000E+03  0.17120000000E+03 0.  0.
         13    1    1    2    0    0  0.31791898388E+02 -0.16761821151E+02  0.62717207888E+02  0.72285149102E+02  0.10566000000E+00 0.  1.
        994    1    1    2    0    0 -0.29995657512E+02  0.17442699755E+02  0.13615076866E+02  0.17521072331E+03  0.17120000000E+03 0.  0.
        998    1    1    2    0    0 -0.17962408759E+01 -0.68087860450E+00  0.14236677115E+04  0.14237041276E+04  0.10000000000E+02 0.  1.
</event>
<event>
 5    1  0.1338054E-008  0.3709344E+03  0.7957747E-01  0.3491607E+00
         13   -1    0    0    0    0  0.00000000000E+00  0.00000000000E+00  0.14999999963E+04  0.15000000000E+04  0.10566000000E+00 0. -1.
        994   -1    0    0    0    0 -0.00000000000E+00 -0.00000000000E+00  0.11368683772E-12  0.17120000000E+03  0.17120000000E+03 0.  0.
         13    1    1    2    0    0 -0.10702940587E+03 -0.14978161846E+03  0.88668288540E+03  0.90559172775E+03  0.10566000000E+00 0. -1.
        994    1    1    2    0    0  0.10354477573E+03  0.13268268349E+03  0.11378952450E+03  0.26567595104E+03  0.17120000000E+03 0.  0.
        998    1    1    2    0    0  0.34846301331E+01  0.17098934976E+02  0.49952758639E+03  0.49993232121E+03  0.10000000000E+02 0.  0.
</event>
<event>
 5    1  0.1338054E-008  0.3783606E+03  0.7957747E-01  0.3458328E+00
         13   -1    0    0    0    0  0.00000000000E+00  0.00000000000E+00  0.14999999963E+04  0.15000000000E+04  0.10566000000E+00 0. -1.
        994   -1    0    0    0    0 -0.00000000000E+00 -0.00000000000E+00  0.11368683772E-12  0.17120000000E+03  0.17120000000E+03 0.  0.
         13    1    1    2    0    0 -0.30803578210E+02  0.29511085365E+02  0.22917769935E+03  0.23311412148E+03  0.10566000000E+00 0. -1.
        994    1    1    2    0    0 -0.12248664894E+02 -0.47386534935E+01  0.55429377997E+01  0.17179245847E+03  0.17120000000E+03 0.  0.
        998    1    1    2    0    0  0.43052243105E+02 -0.24772431872E+02  0.12652793591E+04  0.12662934201E+04  0.10000000000E+02 0. -1.
</event>
<event>
 5    1  0.1338054E-008  0.3819339E+03  0.7957747E-01  0.3442781E+00
         13   -1    0    0    0    0  0.00000000000E+00  0.00000000000E+00  0.14999999963E+04  0.15000000000E+04  0.10566000000E+00 0.  1.
        994   -1    0    0    0    0 -0.00000000000E+00 -0.00000000000E+00  0.11368683772E-12  0.17120000000E+03  0.17120000000E+03 0.  0.
         13    1    1    2    0    0  0.14407962815E+02 -0.24159002325E+02  0.14137529559E+03  0.14414656483E+03  0.10566000000E+00 0.  1.
        994    1    1    2    0    0  0.13521563320E+02  0.67041204895E+01  0.39170432009E+01  0.17190858365E+03  0.17120000000E+03 0.  0.
        998    1    1    2    0    0 -0.27929526135E+02  0.17454881836E+02  0.13547076575E+04  0.13551448515E+04  0.10000000000E+02 0.  1.
</event>
<event>
 5    1  0.1338054E-008  0.3840453E+03  0.7957747E-01  0.3433731E+00
         13   -1    0    0    0    0  0.00000000000E+00  0.00000000000E+00  0.14999999963E+04  0.15000000000E+04  0.10566000000E+00 0. -1.
        994   -1    0    0    0    0 -0.00000000000E+00 -0.00000000000E+00  0.11368683772E-12  0.17120000000E+03  0.17120000000E+03 0.  0.
         13    1    1    2    0    0 -0.15248688077E+02 -0.18597451324E+01  0.53404732870E+02  0.55570295995E+02  0.10566000000E+00 0. -1.
        994    1    1    2    0    0  0.18250566077E+02 -0.49509182285E-01  0.32044506054E+01  0.17219986677E+03  0.17120000000E+03 0.  0.
        998    1    1    2    0    0 -0.30018780001E+01  0.19092543146E+01  0.14433908128E+04  0.14434298372E+04  0.10000000000E+02 0. -1.
</event>
<event>
 5    1  0.1499723E-008  0.3854194E+03  0.7957747E-01  0.3427895E+00
         13   -1    0    0    0    0  0.00000000000E+00  0.00000000000E+00  0.14999999963E+04  0.15000000000E+04  0.10566000000E+00 0.  1.
        994   -1    0    0    0    0 -0.00000000000E+00 -0.00000000000E+00  0.11368683772E-12  0.17120000000E+03  0.17120000000E+03 0.  0.
         13    1    1    2    0    0  0.11160273308E+02  0.16987707244E+00  0.44734084980E+02  0.46105640453E+02  0.10566000000E+00 0.  1.
        994    1    1    2    0    0 -0.42656478205E+01 -0.36871555583E+00  0.14822515218E+01  0.17125994503E+03  0.17120000000E+03 0.  0.
        998    1    1    2    0    0 -0.68946254875E+01  0.19883848339E+00  0.14537836598E+04  0.14538344145E+04  0.10000000000E+02 0.  1.
</event>
<event>
 5    1  0.1338054E-008  0.3845567E+03  0.7957747E-01  0.3431555E+00
         13   -1    0    0    0    0  0.00000000000E+00  0.00000000000E+00  0.14999999963E+04  0.15000000000E+04  0.10566000000E+00 0. -1.
        994   -1    0    0    0    0 -0.00000000000E+00 -0.00000000000E+00  0.11368683772E-12  0.17120000000E+03  0.17120000000E+03 0.  0.
         13    1    1    2    0    0  0.13594118627E+02 -0.47912630643E+01  0.56809144348E+02  0.58609268112E+02  0.10566000000E+00 0. -1.
        994    1    1    2    0    0 -0.53465679304E+01  0.49823976616E+01  0.20263222087E+01  0.17136789681E+03  0.17120000000E+03 0.  0.
        998    1    1    2    0    0 -0.82475506970E+01 -0.19113459732E+00  0.14411645297E+04  0.14412228351E+04  0.10000000000E+02 0. -1.
</event>
<event>
 5    1  0.1338054E-008  0.3849145E+03  0.7957747E-01  0.3430035E+00
         13   -1    0    0    0    0  0.00000000000E+00  0.00000000000E+00  0.14999999963E+04  0.15000000000E+04  0.10566000000E+00 0.  1.
        994   -1    0    0    0    0 -0.00000000000E+00 -0.00000000000E+00  0.11368683772E-12  0.17120000000E+03  0.17120000000E+03 0.  0.
         13    1    1    2    0    0 -0.92714908479E+01  0.12781630916E+02  0.78566059882E+02  0.80137179641E+02  0.10566000000E+00 0.  1.
        994    1    1    2    0    0 -0.10481361646E+01 -0.40936752920E+01  0.17313156184E+01  0.17126089519E+03  0.17120000000E+03 0.  0.
        998    1    1    2    0    0  0.10319627013E+02 -0.86879556235E+01  0.14197026208E+04  0.14198019252E+04  0.10000000000E+02 0.  1.
</event>
<event>
 5    1  0.1338054E-008  0.3792850E+03  0.7957747E-01  0.3454278E+00
         13   -1    0    0    0    0  0.00000000000E+00  0.00000000000E+00  0.14999999963E+04  0.15000000000E+04  0.10566000000E+00 0.  1.
        994   -1    0    0    0    0 -0.00000000000E+00 -0.00000000000E+00  0.11368683772E-12  0.17120000000E+03  0.17120000000E+03 0.  0.
         13    1    1    2    0    0  0.18825859197E+02  0.46966151224E+02  0.25332144612E+03  0.25832537344E+03  0.10566000000E+00 0.  1.
        994    1    1    2    0    0 -0.16326217342E+02 -0.39630916392E+02  0.10675215654E+02  0.17680654721E+03  0.17120000000E+03 0.  0.
        998    1    1    2    0    0 -0.24996418549E+01 -0.73352348321E+01  0.12360033345E+04  0.12360680793E+04  0.10000000000E+02 0.  1.
</event>
<event>
 5    1  0.1338054E-008  0.3843009E+03  0.7957747E-01  0.3432643E+00
         13   -1    0    0    0    0  0.00000000000E+00  0.00000000000E+00  0.14999999963E+04  0.15000000000E+04  0.10566000000E+00 0. -1.
        994   -1    0    0    0    0 -0.00000000000E+00 -0.00000000000E+00  0.11368683772E-12  0.17120000000E+03  0.17120000000E+03 0.  0.
         13    1    1    2    0    0  0.13402618443E+02 -0.16518609425E+02  0.11513180640E+03  0.11708047936E+03  0.10566000000E+00 0. -1.
        994    1    1    2    0    0  0.14589880881E+02  0.29237536043E+02  0.55048384934E+01  0.17437729607E+03  0.17120000000E+03 0.  0.
        998    1    1    2    0    0 -0.27992499324E+02 -0.12718926618E+02  0.13793633514E+04  0.13797422246E+04  0.10000000000E+02 0. -1.
</event>
<event>
 5    1  0.1338054E-008  0.3796200E+03  0.7957747E-01  0.3452815E+00
         13   -1    0    0    0    0  0.00000000000E+00  0.00000000000E+00  0.14999999963E+04  0.15000000000E+04  0.10566000000E+00 0. -1.
        994   -1    0    0    0    0 -0.00000000000E+00 -0.00000000000E+00  0.11368683772E-12  0.17120000000E+03  0.17120000000E+03 0.  0.
         13    1    1    2    0    0 -0.46913180400E+02 -0.40894190108E+01  0.28196095035E+03  0.28586632983E+03  0.10566000000E+00 0. -1.
        994    1    1    2    0    0  0.19628908316E+02 -0.26992460093E+02  0.80623801547E+01  0.17460907456E+03  0.17120000000E+03 0.  0.
        998    1    1    2    0    0  0.27284272083E+02  0.31081879104E+02  0.12099766658E+04  0.12107245956E+04  0.10000000000E+02 0.  1.
</event>
<event>
 5    1  0.1338054E-008  0.3806206E+03  0.7957747E-01  0.3448461E+00
         13   -1    0    0    0    0  0.00000000000E+00  0.00000000000E+00  0.14999999963E+04  0.15000000000E+04  0.10566000000E+00 0.  1.
        994   -1    0    0    0    0 -0.00000000000E+00 -0.00000000000E+00  0.11368683772E-12  0.17120000000E+03  0.17120000000E+03 0.  0.
         13    1    1    2    0    0  0.10039039798E+02 -0.89702810064E+01  0.22003536389E+02  0.25795639923E+02  0.10566000000E+00 0.  1.
        994    1    1    2    0    0 -0.50056380888E+01  0.12379374123E+02  0.44152856192E+01  0.17177671572E+03  0.17120000000E+03 0.  0.
        998    1    1    2    0    0 -0.50334017090E+01 -0.34090931165E+01  0.14735811743E+04  0.14736276444E+04  0.10000000000E+02 0.  1.
</event>
<event>
 5    1  0.1338054E-008  0.3742866E+03  0.7957747E-01  0.3476420E+00
         13   -1    0    0    0    0  0.00000000000E+00  0.00000000000E+00  0.14999999963E+04  0.15000000000E+04  0.10566000000E+00 0. -1.
        994   -1    0    0    0    0 -0.00000000000E+00 -0.00000000000E+00  0.11368683772E-12  0.17120000000E+03  0.17120000000E+03 0.  0.
         13    1    1    2    0    0 -0.30093791395E+02  0.39807687622E+02  0.17895029063E+03  0.18577810946E+03  0.10566000000E+00 0. -1.
        994    1    1    2    0    0 -0.49814795981E+01 -0.35222906971E+02  0.11369677427E+02  0.17522607648E+03  0.17120000000E+03 0.  0.
        998    1    1    2    0    0  0.35075270993E+02 -0.45847806509E+01  0.13096800282E+04  0.13101958141E+04  0.10000000000E+02 0. -1.
</event>
<event>
 5    1  0.1338054E-008  0.3824043E+03  0.7957747E-01  0.3440756E+00
         13   -1    0    0    0    0  0.00000000000E+00  0.00000000000E+00  0.14999999963E+04  0.15000000000E+04  0.10566000000E+00 0. -1.
        994   -1    0    0    0    0 -0.00000000000E+00 -0.00000000000E+00  0.11368683772E-12  0.17120000000E+03  0.17120000000E+03 0.  0.
         13    1    1    2    0    0 -0.17252896945E+02 -0.16201080105E+02  0.98596854139E+02  0.10139767384E+03  0.10566000000E+00 0. -1.
        994    1    1    2    0    0  0.10902344779E+02  0.43651130208E+00  0.33193305114E+01  0.17157945570E+03  0.17120000000E+03 0.  0.
        998    1    1    2    0    0  0.63505521656E+01  0.15764568803E+02  0.13980838116E+04  0.13982228705E+04  0.10000000000E+02 0. -1.
</event>
<event>
 5    1  0.1424837E-008  0.3858568E+03  0.7957747E-01  0.3426046E+00
         13   -1    0    0    0    0  0.00000000000E+00  0.00000000000E+00  0.14999999963E+04  0.15000000000E+04  0.10566000000E+00 0. -1.
        994   -1    0    0    0    0 -0.00000000000E+00 -0.00000000000E+00  0.11368683772E-12  0.17120000000E+03  0.17120000000E+03 0.  0.
         13    1    1    2    0    0  0.11107971157E+02  0.66027695447E+01  0.72334095313E+02  0.73479358310E+02  0.10566000000E+00 0. -1.
        994    1    1    2    0    0 -0.44791885471E+01 -0.68381284685E+00  0.12726741936E+01  0.17126467946E+03  0.17120000000E+03 0.  0.
        998    1    1    2    0    0 -0.66287826100E+01 -0.59189566979E+01  0.14263932268E+04  0.14264559622E+04  0.10000000000E+02 0. -1.
</event>
<event>
 5    1  0.1338054E-008  0.3823673E+03  0.7957747E-01  0.3440915E+00
         13   -1    0    0    0    0  0.00000000000E+00  0.00000000000E+00  0.14999999963E+04  0.15000000000E+04  0.10566000000E+00 0.  1.
        994   -1    0    0    0    0 -0.00000000000E+00 -0.00000000000E+00  0.11368683772E-12  0.17120000000E+03  0.17120000000E+03 0.  0.
         13    1    1    2    0    0 -0.11715470596E+02 -0.20290676587E+02  0.10424788877E+03  0.10684847816E+03  0.10566000000E+00 0.  1.
        994    1    1    2    0    0 -0.35565873316E+01 -0.36838495872E+01  0.30298902397E+01  0.17130335752E+03  0.17120000000E+03 0.  0.
        998    1    1    2    0    0  0.15272057928E+02  0.23974526175E+02  0.13927222173E+04  0.13930481643E+04  0.10000000000E+02 0.  1.
</event>
<event>
 5    1  0.1338054E-008  0.3796681E+03  0.7957747E-01  0.3452605E+00
         13   -1    0    0    0    0  0.00000000000E+00  0.00000000000E+00  0.14999999963E+04  0.15000000000E+04  0.10566000000E+00 0.  1.
        994   -1    0    0    0    0 -0.00000000000E+00 -0.00000000000E+00  0.11368683772E-12  0.17120000000E+03  0.17120000000E+03 0.  0.
         13    1    1    2    0    0  0.19275757983E+00  0.39318818036E+02  0.21421388760E+03  0.21779257887E+03  0.10566000000E+00 0.  1.
        994    1    1    2    0    0  0.50366770878E+01  0.78262294806E+00  0.43877423748E+01  0.17133205450E+03  0.17120000000E+03 0.  0.
        998    1    1    2    0    0 -0.52294346676E+01 -0.40101440984E+02  0.12813983663E+04  0.12820753666E+04  0.10000000000E+02 0.  1.
</event>
<event>
 5    1  0.1338054E-008  0.3588427E+03  0.7957747E-01  0.3548793E+00
         13   -1    0    0    0    0  0.00000000000E+00  0.00000000000E+00  0.14999999963E+04  0.15000000000E+04  0.10566000000E+00 0. -1.
        994   -1    0    0    0    0 -0.00000000000E+00 -0.00000000000E+00  0.11368683772E-12  0.17120000000E+03  0.17120000000E+03 0.  0.
         13    1    1    2    0    0 -0.11570731123E+03 -0.27989613549E+03  0.95150292676E+03  0.99854286805E+03  0.10566000000E+00 0. -1.
        994    1    1    2    0    0  0.62521797057E+02  0.26100663841E+03  0.38595249035E+03  0.50030211394E+03  0.17120000000E+03 0.  0.
        998    1    1    2    0    0  0.53185514169E+02  0.18889497079E+02  0.16254457917E+03  0.17235501801E+03  0.10000000000E+02 0. -1.
</event>
<event>
 5    1  0.1338054E-008  0.2842247E+03  0.7957747E-01  0.4015502E+00
         13   -1    0    0    0    0  0.00000000000E+00  0.00000000000E+00  0.14999999963E+04  0.15000000000E+04  0.10566000000E+00 0.  1.
        994   -1    0    0    0    0 -0.00000000000E+00 -0.00000000000E+00  0.11368683772E-12  0.17120000000E+03  0.17120000000E+03 0.  0.
         13    1    1    2    0    0 -0.12580090484E+03 -0.11665356758E+03  0.76629544502E+03  0.78526596940E+03  0.10566000000E+00 0.  1.
        994    1    1    2    0    0 -0.13404079719E+02  0.77688097156E+02  0.61455261334E+02  0.19824555213E+03  0.17120000000E+03 0.  0.
        998    1    1    2    0    0  0.13920498455E+03  0.38965470424E+02  0.67224928993E+03  0.68768847847E+03  0.10000000000E+02 0.  1.
</event>
<event>
 5    1  0.1338054E-008  0.3827021E+03  0.7957747E-01  0.3439477E+00
         13   -1    0    0    0    0  0.00000000000E+00  0.00000000000E+00  0.14999999963E+04  0.15000000000E+04  0.10566000000E+00 0. -1.
        994   -1    0    0    0    0 -0.00000000000E+00 -0.00000000000E+00  0.11368683772E-12  0.17120000000E+03  0.17120000000E+03 0.  0.
         13    1    1    2    0    0  0.13008786664E+02  0.21912296586E+02  0.13036387124E+03  0.13283119875E+03  0.10566000000E+00 0. -1.
        994    1    1    2    0    0 -0.24401621085E+01  0.21423035430E+01  0.28102515300E+01  0.17125385067E+03  0.17120000000E+03 0.  0.
        998    1    1    2    0    0 -0.10568624556E+02 -0.24054600129E+02  0.13668258735E+04  0.13671149506E+04  0.10000000000E+02 0. -1.
</event>
<event>
 5    1  0.1338054E-008  0.3754140E+03  0.7957747E-01  0.3471373E+00
         13   -1    0    0    0    0  0.00000000000E+00  0.00000000000E+00  0.14999999963E+04  0.15000000000E+04  0.10566000000E+00 0.  1.
        994   -1    0    0    0    0 -0.00000000000E+00 -0.00000000000E+00  0.11368683772E-12  0.17120000000E+03  0.17120000000E+03 0.  0.
         13    1    1    2    0    0 -0.59812050216E+02  0.73965938909E+02  0.49014398729E+03  0.49928907550E+03  0.10566000000E+00 0.  1.
        994    1    1    2    0    0  0.53451664640E+02 -0.72492800481E+02  0.34521230328E+02  0.19650303285E+03  0.17120000000E+03 0.  0.
        998    1    1    2    0    0  0.63603855767E+01 -0.14731384284E+01  0.97533477866E+03  0.97540789165E+03  0.10000000000E+02 0.  0.
</event>
<event>
 5    1  0.1338054E-008  0.3812885E+03  0.7957747E-01  0.3445567E+00
         13   -1    0    0    0    0  0.00000000000E+00  0.00000000000E+00  0.14999999963E+04  0.15000000000E+04  0.10566000000E+00 0. -1.
        994   -1    0    0    0    0 -0.00000000000E+00 -0.00000000000E+00  0.11368683772E-12  0.17120000000E+03  0.17120000000E+03 0.  0.
         13    1    1    2    0    0 -0.10020767303E+02 -0.16852102350E+02  0.52134188599E+02  0.55699137478E+02  0.10566000000E+00 0. -1.
        994    1    1    2    0    0  0.11012201186E+02  0.17974798446E+02  0.49647112537E+01  0.17256433673E+03  0.17120000000E+03 0.  0.
        998    1    1    2    0    0 -0.99143388288E+00 -0.11226960961E+01  0.14429010964E+04  0.14429365258E+04  0.10000000000E+02 0. -1.
</event>
<event>
 5    1  0.1338054E-008  0.3859649E+03  0.7957747E-01  0.3425590E+00
         13   -1    0    0    0    0  0.00000000000E+00  0.00000000000E+00  0.14999999963E+04  0.15000000000E+04  0.10566000000E+00 0.  1.
        994   -1    0    0    0    0 -0.00000000000E+00 -0.00000000000E+00  0.11368683772E-12  0.17120000000E+03  0.17120000000E+03 0.  0.
         13    1    1    2    0    0 -0.13838582120E+02  0.62851751425E+01  0.79345622779E+02  0.80788296182E+02  0.10566000000E+00 0.  1.
        994    1    1    2    0    0  0.25595303685E+02 -0.46695167783E+02  0.10503660385E+02  0.17959767578E+03  0.17120000000E+03 0.  0.
        998    1    1    2    0    0 -0.11756721566E+02  0.40409992640E+02  0.14101507131E+04  0.14108140280E+04  0.10000000000E+02 0.  1.
</event>
<event>
 5    1  0.1338054E-008  0.3839873E+03  0.7957747E-01  0.3433979E+00
         13   -1    0    0    0    0  0.00000000000E+00  0.00000000000E+00  0.14999999963E+04  0.15000000000E+04  0.10566000000E+00 0.  1.
        994   -1    0    0    0    0 -0.00000000000E+00 -0.00000000000E+00  0.11368683772E-12  0.17120000000E+03  0.17120000000E+03 0.  0.
         13    1    1    2    0    0 -0.14628536596E+01 -0.21879374931E+02  0.12960540518E+03  0.13144740091E+03  0.10566000000E+00 0.  1.
        994    1    1    2    0    0 -0.31744731127E+01 -0.38865925135E+01  0.22168609100E+01  0.17128787859E+03  0.17120000000E+03 0.  0.
        998    1    1    2    0    0  0.46373267723E+01  0.25765967444E+02  0.13681777302E+04  0.13684647205E+04  0.10000000000E+02 0.  1.
</event>
<event>
 5    1  0.1338054E-008  0.3757588E+03  0.7957747E-01  0.3469836E+00
         13   -1    0    0    0    0  0.00000000000E+00  0.00000000000E+00  0.14999999963E+04  0.15000000000E+04  0.10566000000E+00 0.  1.
        994   -1    0    0    0    0 -0.00000000000E+00 -0.00000000000E+00  0.11368683772E-12  0.17120000000E+03  0.17120000000E+03 0.  0.
         13    1    1    2    0    0 -0.59586600869E+02  0.17224989066E+02  0.36140448271E+03  0.36668852523E+03  0.10566000000E+00 0.  1.
        994    1    1    2    0    0  0.95710840645E+01 -0.28804546818E+02  0.94196211108E+01  0.17412488860E+03  0.17120000000E+03 0.  0.
        998    1    1    2    0    0  0.50015516805E+02  0.11579557752E+02  0.11291758925E+04  0.11303865862E+04  0.10000000000E+02 0.  1.
</event>
<event>
 5    1  0.1338054E-008  0.3815974E+03  0.7957747E-01  0.3444232E+00
         13   -1    0    0    0    0  0.00000000000E+00  0.00000000000E+00  0.14999999963E+04  0.15000000000E+04  0.10566000000E+00 0.  1.
        994   -1    0    0    0    0 -0.00000000000E+00 -0.00000000000E+00  0.11368683772E-12  0.17120000000E+03  0.17120000000E+03 0.  0.
         13    1    1    2    0    0 -0.34411868213E+02 -0.53403744597E+01  0.20867722769E+03  0.21156297596E+03  0.10566000000E+00 0.  1.
        994    1    1    2    0    0  0.42725766188E+01 -0.33861995300E+01  0.34277992203E+01  0.17132107595E+03  0.17120000000E+03 0.  0.
        998    1    1    2    0    0  0.30139291594E+02  0.87265739896E+01  0.12878949694E+04  0.12883159481E+04  0.10000000000E+02 0.  1.
</event>
<event>
 5    1  0.1338054E-008  0.3855158E+03  0.7957747E-01  0.3427488E+00
         13   -1    0    0    0    0  0.00000000000E+00  0.00000000000E+00  0.14999999963E+04  0.15000000000E+04  0.10566000000E+00 0.  1.
        994   -1    0    0    0    0 -0.00000000000E+00 -0.00000000000E+00  0.11368683772E-12  0.17120000000E+03  0.17120000000E+03 0.  0.
         13    1    1    2    0    0  0.13366585738E+01 -0.15901738566E+02  0.85898474300E+02  0.87368249362E+02  0.10566000000E+00 0.  1.
        994    1    1    2    0    0  0.32395853978E+01  0.21101245201E+02  0.28720351409E+01  0.17254983642E+03  0.17120000000E+03 0.  0.
        998    1    1    2    0    0 -0.45762439716E+01 -0.51995066347E+01  0.14112294868E+04  0.14112819142E+04  0.10000000000E+02 0.  1.
</event>
<event>
 5    1  0.1338054E-008  0.3849470E+03  0.7957747E-01  0.3429897E+00
         13   -1    0    0    0    0  0.00000000000E+00  0.00000000000E+00  0.14999999963E+04  0.15000000000E+04  0.10566000000E+00 0.  1.
        994   -1    0    0    0    0 -0.00000000000E+00 -0.00000000000E+00  0.11368683772E-12  0.17120000000E+03  0.17120000000E+03 0.  0.
         13    1    1    2    0    0 -0.11619154142E+02  0.34645964799E+01  0.42068137694E+02  0.43780675472E+02  0.10566000000E+00 0.  1.
        994    1    1    2    0    0  0.17424875264E+02 -0.50142012088E+01  0.27385908450E+01  0.17217929136E+03  0.17120000000E+03 0.  0.
        998    1    1    2    0    0 -0.58057211221E+01  0.15496047289E+01  0.14551932677E+04  0.14552400332E+04  0.10000000000E+02 0.  1.
</event>
<event>
 5    1  0.1338054E-008  0.3841171E+03  0.7957747E-01  0.3433425E+00
         13   -1    0    0    0    0  0.00000000000E+00  0.00000000000E+00  0.14999999963E+04  0.15000000000E+04  0.10566000000E+00 0. -1.
        994   -1    0    0    0    0 -0.00000000000E+00 -0.00000000000E+00  0.11368683772E-12  0.17120000000E+03  0.17120000000E+03 0.  0.
         13    1    1    2    0    0 -0.13972588786E+02  0.24709378593E+01  0.49418004378E+02  0.51414872285E+02  0.10566000000E+00 0. -1.
        994    1    1    2    0    0  0.52523498742E+01  0.35645208457E+01  0.22019981577E+01  0.17133178860E+03  0.17120000000E+03 0.  0.
        998    1    1    2    0    0  0.87202389115E+01 -0.60354587050E+01  0.14483799937E+04  0.14484533391E+04  0.10000000000E+02 0. -1.
</event>
<event>
 5    1  0.1338054E-008  0.3899795E+03  0.7957747E-01  0.3408824E+00
         13   -1    0    0    0    0  0.00000000000E+00  0.00000000000E+00  0.14999999963E+04  0.15000000000E+04  0.10566000000E+00 0.  1.
        994   -1    0    0    0    0 -0.00000000000E+00 -0.00000000000E+00  0.11368683772E-12  0.17120000000E+03  0.17120000000E+03 0.  0.
         13    1    1    2    0    0 -0.43506930661E+02 -0.93604066985E+02  0.19615445980E+03  0.22165549313E+03  0.10566000000E+00 0.  1.
        994    1    1    2    0    0  0.10291456750E+03  0.75723608641E+02  0.86329274546E+02  0.23040758832E+03  0.17120000000E+03 0.  0.
        998    1    1    2    0    0 -0.59407636843E+02  0.17880458345E+02  0.12175162619E+04  0.12191369186E+04  0.10000000000E+02 0.  1.
</event>
<event>
 5    1  0.1338054E-008  0.3821327E+03  0.7957747E-01  0.3441924E+00
         13   -1    0    0    0    0  0.00000000000E+00  0.00000000000E+00  0.14999999963E+04  0.15000000000E+04  0.10566000000E+00 0. -1.
        994   -1    0    0    0    0 -0.00000000000E+00 -0.00000000000E+00  0.11368683772E-12  0.17120000000E+03  0.17120000000E+03 0.  0.
         13    1    1    2    0    0  0.10573560960E+02 -0.11554933640E+02  0.38835183469E+02  0.41874805336E+02  0.10566000000E+00 0. -1.
        994    1    1    2    0    0 -0.10534923171E+02  0.61837005235E+01  0.35559093637E+01  0.17167209223E+03  0.17120000000E+03 0.  0.
        998    1    1    2    0    0 -0.38637789388E-01  0.53712331166E+01  0.14576089034E+04  0.14576531024E+04  0.10000000000E+02 0. -1.
</event>
<event>
 5    1  0.1338054E-008  0.3758808E+03  0.7957747E-01  0.3469293E+00
         13   -1    0    0    0    0  0.00000000000E+00  0.00000000000E+00  0.14999999963E+04  0.15000000000E+04  0.10566000000E+00 0. -1.
        994   -1    0    0    0    0 -0.00000000000E+00 -0.00000000000E+00  0.11368683772E-12  0.17120000000E+03  0.17120000000E+03 0.  0.
         13    1    1    2    0    0  0.13552818552E+02 -0.24213307194E+02  0.21334493249E+02  0.35001927121E+02  0.10566000000E+00 0. -1.
        994    1    1    2    0    0 -0.98825171420E+01  0.21448985077E+02  0.16076125208E+02  0.17356729216E+03  0.17120000000E+03 0.  0.
        998    1    1    2    0    0 -0.36703014103E+01  0.27643221167E+01  0.14625893778E+04  0.14626307807E+04  0.10000000000E+02 0. -1.
</event>
<event>
 5    1  0.1338054E-008  0.3690076E+03  0.7957747E-01  0.3500464E+00
         13   -1    0    0    0    0  0.00000000000E+00  0.00000000000E+00  0.14999999963E+04  0.15000000000E+04  0.10566000000E+00 0.  1.
        994   -1    0    0    0    0 -0.00000000000E+00 -0.00000000000E+00  0.11368683772E-12  0.17120000000E+03  0.17120000000E+03 0.  0.
         13    1    1    2    0    0  0.11989903284E+03 -0.13188249876E+03  0.78002311062E+03  0.80012801215E+03  0.10566000000E+00 0.  1.
        994    1    1    2    0    0 -0.13476869122E+03  0.10215258939E+03  0.11785371591E+03  0.26794904368E+03  0.17120000000E+03 0.  0.
        998    1    1    2    0    0  0.14869658376E+02  0.29729909367E+02  0.60212316974E+03  0.60312294417E+03  0.10000000000E+02 0.  1.
</event>
<event>
 5    1  0.1338054E-008  0.3856889E+03  0.7957747E-01  0.3426756E+00
         13   -1    0    0    0    0  0.00000000000E+00  0.00000000000E+00  0.14999999963E+04  0.15000000000E+04  0.10566000000E+00 0. -1.
        994   -1    0    0    0    0 -0.00000000000E+00 -0.00000000000E+00  0.11368683772E-12  0.17120000000E+03  0.17120000000E+03 0.  0.
         13    1    1    2    0    0 -0.89140541701E+01  0.86317045854E+01  0.57007696908E+02  0.58342568992E+02  0.10566000000E+00 0. -1.
        994    1    1    2    0    0  0.13735130513E+02 -0.95773075296E+01  0.22090448972E+01  0.17203109751E+03  0.17120000000E+03 0.  0.
        998    1    1    2    0    0 -0.48210763432E+01  0.94560294420E+00  0.14407832545E+04  0.14408263335E+04  0.10000000000E+02 0. -1.
</event>
<event>
 5    1  0.1338054E-008  0.3857839E+03  0.7957747E-01  0.3426355E+00
         13   -1    0    0    0    0  0.00000000000E+00  0.00000000000E+00  0.14999999963E+04  0.15000000000E+04  0.10566000000E+00 0. -1.
        994   -1    0    0    0    0 -0.00000000000E+00 -0.00000000000E+00  0.11368683772E-12  0.17120000000E+03  0.17120000000E+03 0.  0.
         13    1    1    2    0    0 -0.84905370780E+01  0.75786557986E+01  0.50735176585E+02  0.51996101303E+02  0.10566000000E+00 0. -1.
        994    1    1    2    0    0  0.14449490000E+02 -0.39274663087E+01  0.19772946145E+01  0.17186495410E+03  0.17120000000E+03 0.  0.
        998    1    1    2    0    0 -0.59589529218E+01 -0.36511894899E+01  0.14472875251E+04  0.14473389446E+04  0.10000000000E+02 0. -1.
</event>
<event>
 5    1  0.1338054E-008  0.3841958E+03  0.7957747E-01  0.3433090E+00
         13   -1    0    0    0    0  0.00000000000E+00  0.00000000000E+00  0.14999999963E+04  0.15000000000E+04  0.10566000000E+00 0.  1.
        994   -1    0    0    0    0 -0.00000000000E+00 -0.00000000000E+00  0.11368683772E-12  0.17120000000E+03  0.17120000000E+03 0.  0.
         13    1    1    2    0    0 -0.17634120221E+02  0.23109413825E+00  0.76225557510E+02  0.78239135873E+02  0.10566000000E+00 0.  1.
        994    1    1    2    0    0  0.11515637450E+02  0.36554515433E+01  0.25114025291E+01  0.17164416499E+03  0.17120000000E+03 0.  0.
        998    1    1    2    0    0  0.61184827707E+01 -0.38865456815E+01  0.14212630362E+04  0.14213166991E+04  0.10000000000E+02 0.  1.
</event>
<event>
 5    1  0.1338054E-008  0.3195652E+03  0.7957747E-01  0.3765539E+00
         13   -1    0    0    0    0  0.00000000000E+00  0.00000000000E+00  0.14999999963E+04  0.15000000000E+04  0.10566000000E+00 0.  1.
        994   -1    0    0    0    0 -0.00000000000E+00 -0.00000000000E+00  0.11368683772E-12  0.17120000000E+03  0.17120000000E+03 0.  0.
         13    1    1    2    0    0 -0.17737391179E+03  0.12262206670E+03  0.83787147778E+03  0.86517414448E+03  0.10566000000E+00 0.  1.
        994    1    1    2    0    0  0.10627232116E+03 -0.13218314559E+03  0.13960444057E+03  0.27850499107E+03  0.17120000000E+03 0.  0.
        998    1    1    2    0    0  0.71101590633E+02  0.95610788850E+01  0.52252407793E+03  0.52752086446E+03  0.10000000000E+02 0.  1.
</event>
<event>
 5    1  0.1338054E-008  0.3780630E+03  0.7957747E-01  0.3459636E+00
         13   -1    0    0    0    0  0.00000000000E+00  0.00000000000E+00  0.14999999963E+04  0.15000000000E+04  0.10566000000E+00 0.  1.
        994   -1    0    0    0    0 -0.00000000000E+00 -0.00000000000E+00  0.11368683772E-12  0.17120000000E+03  0.17120000000E+03 0.  0.
         13    1    1    2    0    0  0.78174685359E+02  0.40977779354E+02  0.42033308436E+03  0.42950014296E+03  0.10566000000E+00 0.  1.
        994    1    1    2    0    0 -0.10428321667E+03 -0.42828812664E+02  0.49140512166E+02  0.21079261469E+03  0.17120000000E+03 0.  0.
        998    1    1    2    0    0  0.26108531313E+02  0.18510333097E+01  0.10305263998E+04  0.10309072423E+04  0.10000000000E+02 0.  1.
</event>
<event>
 5    1  0.1338054E-008  0.3845672E+03  0.7957747E-01  0.3431510E+00
         13   -1    0    0    0    0  0.00000000000E+00  0.00000000000E+00  0.14999999963E+04  0.15000000000E+04  0.10566000000E+00 0. -1.
        994   -1    0    0    0    0 -0.00000000000E+00 -0.00000000000E+00  0.11368683772E-12  0.17120000000E+03  0.17120000000E+03 0.  0.
         13    1    1    2    0    0  0.11079410788E+02 -0.12932333919E+02  0.87971823376E+02  0.89604974617E+02  0.10566000000E+00 0. -1.
        994    1    1    2    0    0 -0.59456976285E+01 -0.11721856553E+02  0.24143117059E+01  0.17172076794E+03  0.17120000000E+03 0.  0.
        998    1    1    2    0    0 -0.51337131591E+01  0.24654190472E+02  0.14096138612E+04  0.14098742574E+04  0.10000000000E+02 0. -1.
</event>
<event>
 5    1  0.1338054E-008  0.3847280E+03  0.7957747E-01  0.3430827E+00
         13   -1    0    0    0    0  0.00000000000E+00  0.00000000000E+00  0.14999999963E+04  0.15000000000E+04  0.10566000000E+00 0. -1.
        994   -1    0    0    0    0 -0.00000000000E+00 -0.00000000000E+00  0.11368683772E-12  0.17120000000E+03  0.17120000000E+03 0.  0.
         13    1    1    2    0    0 -0.85362308376E+01  0.56077728622E+01  0.30800332377E+02  0.32449745638E+02  0.10566000000E+00 0. -1.
        994    1    1    2    0    0 -0.38738386279E+01  0.37851540996E+01  0.18617916471E+01  0.17129576844E+03  0.17120000000E+03 0.  0.
        998    1    1    2    0    0  0.12410069466E+02 -0.93929269618E+01  0.14673378723E+04  0.14674544859E+04  0.10000000000E+02 0. -1.
</event>
<event>
 5    1  0.1338054E-008  0.3846449E+03  0.7957747E-01  0.3431180E+00
         13   -1    0    0    0    0  0.00000000000E+00  0.00000000000E+00  0.14999999963E+04  0.15000000000E+04  0.10566000000E+00 0.  1.
        994   -1    0    0    0    0 -0.00000000000E+00 -0.00000000000E+00  0.11368683772E-12  0.17120000000E+03  0.17120000000E+03 0.  0.
         13    1    1    2    0    0  0.10858861538E+02  0.10215800238E+02  0.61552755076E+02  0.63332695110E+02  0.10566000000E+00 0.  1.
        994    1    1    2    0    0 -0.53333495687E+01 -0.78376937601E+01  0.21025149597E+01  0.17147517205E+03  0.17120000000E+03 0.  0.
        998    1    1    2    0    0 -0.55255119697E+01 -0.23781064780E+01  0.14363447262E+04  0.14363921328E+04  0.10000000000E+02 0.  1.
</event>
<event>
 5    1  0.1338054E-008  0.3723432E+03  0.7957747E-01  0.3485191E+00
         13   -1    0    0    0    0  0.00000000000E+00  0.00000000000E+00  0.14999999963E+04  0.15000000000E+04  0.10566000000E+00 0. -1.
        994   -1    0    0    0    0 -0.00000000000E+00 -0.00000000000E+00  0.11368683772E-12  0.17120000000E+03  0.17120000000E+03 0.  0.
         13    1    1    2    0    0 -0.62859833991E+00 -0.63916616609E+02  0.20950764647E+03  0.21904153512E+03  0.10566000000E+00 0. -1.
        994    1    1    2    0    0  0.16806794643E+02  0.69742345677E+02  0.25913389050E+02  0.18742306917E+03  0.17120000000E+03 0.  0.
        998    1    1    2    0    0 -0.16178196303E+02 -0.58257290677E+01  0.12645789608E+04  0.12647353957E+04  0.10000000000E+02 0. -1.
</event>
<event>
 5    1  0.1338054E-008  0.3878761E+03  0.7957747E-01  0.3417565E+00
         13   -1    0    0    0    0  0.00000000000E+00  0.00000000000E+00  0.14999999963E+04  0.15000000000E+04  0.10566000000E+00 0. -1.
        994   -1    0    0    0    0 -0.00000000000E+00 -0.00000000000E+00  0.11368683772E-12  0.17120000000E+03  0.17120000000E+03 0.  0.
         13    1    1    2    0    0  0.17687748248E+02  0.33937768880E+01 -0.15751609992E+01  0.18079448439E+02  0.10566000000E+00 0. -1.
        994    1    1    2    0    0 -0.24155676442E+02 -0.38888779228E+01  0.22959520031E+02  0.17445687042E+03  0.17120000000E+03 0.  0.
        998    1    1    2    0    0  0.64679281940E+01  0.49510103476E+00  0.14786156372E+04  0.14786636811E+04  0.10000000000E+02 0. -1.
</event>
<event>
 5    1  0.1338054E-008  0.3853222E+03  0.7957747E-01  0.3428307E+00
         13   -1    0    0    0    0  0.00000000000E+00  0.00000000000E+00  0.14999999963E+04  0.15000000000E+04  0.10566000000E+00 0.  1.
        994   -1    0    0    0    0 -0.00000000000E+00 -0.00000000000E+00  0.11368683772E-12  0.17120000000E+03  0.17120000000E+03 0.  0.
         13    1    1    2    0    0 -0.97471497681E+01 -0.87760385345E+01  0.56218952109E+02  0.57728740860E+02  0.10566000000E+00 0.  1.
        994    1    1    2    0    0  0.91631766317E+01  0.13288475251E+02  0.23266531406E+01  0.17197500020E+03  0.17120000000E+03 0.  0.
        998    1    1    2    0    0  0.58397313639E+00 -0.45124367163E+01  0.14414543910E+04  0.14414962589E+04  0.10000000000E+02 0.  1.
</event>
<event>
 5    1  0.1338054E-008  0.3851141E+03  0.7957747E-01  0.3429188E+00
         13   -1    0    0    0    0  0.00000000000E+00  0.00000000000E+00  0.14999999963E+04  0.15000000000E+04  0.10566000000E+00 0.  1.
        994   -1    0    0    0    0 -0.00000000000E+00 -0.00000000000E+00  0.11368683772E-12  0.17120000000E+03  0.17120000000E+03 0.  0.
         13    1    1    2    0    0  0.10065509989E+02 -0.39724879850E+01  0.38845005852E+02  0.40324196159E+02  0.10566000000E+00 0.  1.
        994    1    1    2    0    0  0.45584314450E+01  0.70299019963E+01  0.18043128034E+01  0.17141439369E+03  0.17120000000E+03 0.  0.
        998    1    1    2    0    0 -0.14623941434E+02 -0.30574140113E+01  0.14593506776E+04  0.14594614102E+04  0.10000000000E+02 0.  1.
</event>
<event>
 5    1  0.1338054E-008  0.3768502E+03  0.7957747E-01  0.3464989E+00
         13   -1    0    0    0    0  0.00000000000E+00  0.00000000000E+00  0.14999999963E+04  0.15000000000E+04  0.10566000000E+00 0. -1.
        994   -1    0    0    0    0 -0.00000000000E+00 -0.00000000000E+00  0.11368683772E-12  0.17120000000E+03  0.17120000000E+03 0.  0.
         13    1    1    2    0    0 -0.54833704968E+01  0.12108233458E+02  0.13064311666E+02  0.18637705674E+02  0.10566000000E+00 0. -1.
        994    1    1    2    0    0 -0.34389326248E-01 -0.37943819197E+01  0.57803344418E+01  0.17133957740E+03  0.17120000000E+03 0.  0.
        998    1    1    2    0    0  0.55177598230E+01 -0.83138515380E+01  0.14811553502E+04  0.14812227169E+04  0.10000000000E+02 0. -1.
</event>
<event>
 5    1  0.1338054E-008  0.3686414E+03  0.7957747E-01  0.3502158E+00
         13   -1    0    0    0    0  0.00000000000E+00  0.00000000000E+00  0.14999999963E+04  0.15000000000E+04  0.10566000000E+00 0.  1.
        994   -1    0    0    0    0 -0.00000000000E+00 -0.00000000000E+00  0.11368683772E-12  0.17120000000E+03  0.17120000000E+03 0.  0.
         13    1    1    2    0    0 -0.21201734766E+02  0.49976064426E+01  0.18624374112E+02  0.28659520274E+02  0.10566000000E+00 0.  1.
        994    1    1    2    0    0  0.20517873185E+02 -0.29814804901E+01  0.11719355060E+02  0.17284864949E+03  0.17120000000E+03 0.  0.
        998    1    1    2    0    0  0.68386158107E+00 -0.20161259526E+01  0.14696562671E+04  0.14696918302E+04  0.10000000000E+02 0.  1.
</event>
<event>
 5    1  0.1338054E-008  0.3847798E+03  0.7957747E-01  0.3430607E+00
         13   -1    0    0    0    0  0.00000000000E+00  0.00000000000E+00  0.14999999963E+04  0.15000000000E+04  0.10566000000E+00 0.  1.
        994   -1    0    0    0    0 -0.00000000000E+00 -0.00000000000E+00  0.11368683772E-12  0.17120000000E+03  0.17120000000E+03 0.  0.
         13    1    1    2    0    0  0.23043757390E+02 -0.34311206112E+01  0.13920445978E+03  0.14114063954E+03  0.10566000000E+00 0.  1.
        994    1    1    2    0    0 -0.26068115333E+02  0.91659065523E+01  0.42564425400E+01  0.17346791572E+03  0.17120000000E+03 0.  0.
        998    1    1    2    0    0  0.30243579434E+01 -0.57347859411E+01  0.13565390940E+04  0.13565914447E+04  0.10000000000E+02 0.  1.
</event>
<event>
 5    1  0.1338054E-008  0.3709665E+03  0.7957747E-01  0.3491461E+00
         13   -1    0    0    0    0  0.00000000000E+00  0.00000000000E+00  0.14999999963E+04  0.15000000000E+04  0.10566000000E+00 0. -1.
        994   -1    0    0    0    0 -0.00000000000E+00 -0.00000000000E+00  0.11368683772E-12  0.17120000000E+03  0.17120000000E+03 0.  0.
         13    1    1    2    0    0  0.46739172997E+01 -0.65884873315E+02  0.19401428333E+03  0.20494929943E+03  0.10566000000E+00 0. -1.
        994    1    1    2    0    0 -0.15101242539E+02  0.30808563510E+02  0.15591536642E+02  0.17529903344E+03  0.17120000000E+03 0.  0.
        998    1    1    2    0    0  0.10427325239E+02  0.35076309806E+02  0.12903941763E+04  0.12909516671E+04  0.10000000000E+02 0. -1.
</event>
<event>
 5    1  0.1338054E-008  0.3757727E+03  0.7957747E-01  0.3469774E+00
         13   -1    0    0    0    0  0.00000000000E+00  0.00000000000E+00  0.14999999963E+04  0.15000000000E+04  0.10566000000E+00 0.  1.
        994   -1    0    0    0    0 -0.00000000000E+00 -0.00000000000E+00  0.11368683772E-12  0.17120000000E+03  0.17120000000E+03 0.  0.
         13    1    1    2    0    0 -0.10453868336E+02  0.55347514108E+01  0.82106243716E+01  0.14399387243E+02  0.10566000000E+00 0.  1.
        994    1    1    2    0    0  0.10977811129E+02 -0.62492767603E+01  0.68236484337E+01  0.17180095452E+03  0.17120000000E+03 0.  0.
        998    1    1    2    0    0 -0.52394279273E+00  0.71452534944E+00  0.14849657235E+04  0.14849996582E+04  0.10000000000E+02 0.  1.
</event>
<event>
 5    1  0.1338054E-008  0.3819487E+03  0.7957747E-01  0.3442717E+00
         13   -1    0    0    0    0  0.00000000000E+00  0.00000000000E+00  0.14999999963E+04  0.15000000000E+04  0.10566000000E+00 0.  1.
        994   -1    0    0    0    0 -0.00000000000E+00 -0.00000000000E+00  0.11368683772E-12  0.17120000000E+03  0.17120000000E+03 0.  0.
         13    1    1    2    0    0  0.21478128114E+01  0.15315766981E+02  0.37542099316E+02  0.40603031945E+02  0.10566000000E+00 0.  1.
        994    1    1    2    0    0 -0.78078662357E+01 -0.40212190374E+01  0.34089036371E+01  0.17145901435E+03  0.17120000000E+03 0.  0.
        998    1    1    2    0    0  0.56600534243E+01 -0.11294547943E+02  0.14590489933E+04  0.14591379537E+04  0.10000000000E+02 0.  1.
</event>
<event>
 5    1  0.1338054E-008  0.3717854E+03  0.7957747E-01  0.3487726E+00
         13   -1    0    0    0    0  0.00000000000E+00  0.00000000000E+00  0.14999999963E+04  0.15000000000E+04  0.10566000000E+00 0.  1.
        994   -1    0    0    0    0 -0.00000000000E+00 -0.00000000000E+00  0.11368683772E-12  0.17120000000E+03  0.17120000000E+03 0.  0.
         13    1    1    2    0    0  0.14173155452E+03  0.22233019600E+01  0.65195611569E+03  0.66718780307E+03  0.10566000000E+00 0.  1.
        994    1    1    2    0    0 -0.13959442012E+03  0.66027522723E+01  0.78763370926E+02  0.23461310080E+03  0.17120000000E+03 0.  0.
        998    1    1    2    0    0 -0.21371343944E+01 -0.88260542323E+01  0.76928050967E+03  0.76939909613E+03  0.10000000000E+02 0.  0.
</event>
<event>
 5    1  0.1338054E-008  0.3763994E+03  0.7957747E-01  0.3466988E+00
         13   -1    0    0    0    0  0.00000000000E+00  0.00000000000E+00  0.14999999963E+04  0.15000000000E+04  0.10566000000E+00 0. -1.
        994   -1    0    0    0    0 -0.00000000000E+00 -0.00000000000E+00  0.11368683772E-12  0.17120000000E+03  0.17120000000E+03 0.  0.
         13    1    1    2    0    0 -0.84181418970E+01 -0.18802134793E+02  0.33799622455E+02  0.39582963859E+02  0.10566000000E+00 0. -1.
        994    1    1    2    0    0  0.16406788182E+02  0.70844326296E+00  0.68748002295E+01  0.17212317528E+03  0.17120000000E+03 0.  0.
        998    1    1    2    0    0 -0.79886462855E+01  0.18093691530E+02  0.14593255736E+04  0.14594938609E+04  0.10000000000E+02 0. -1.
</event>
<event>
 5    1  0.1338054E-008  0.3771343E+03  0.7957747E-01  0.3463732E+00
         13   -1    0    0    0    0  0.00000000000E+00  0.00000000000E+00  0.14999999963E+04  0.15000000000E+04  0.10566000000E+00 0. -1.
        994   -1    0    0    0    0 -0.00000000000E+00 -0.00000000000E+00  0.11368683772E-12  0.17120000000E+03  0.17120000000E+03 0.  0.
         13    1    1    2    0    0 -0.73544467381E+01 -0.19677333080E+02  0.38619907748E+02  0.43963550385E+02  0.10566000000E+00 0. -1.
        994    1    1    2    0    0 -0.50826055626E+00  0.26947155332E+01  0.56121796198E+01  0.17131391181E+03  0.17120000000E+03 0.  0.
        998    1    1    2    0    0  0.78627072944E+01  0.16982617547E+02  0.14557679089E+04  0.14559225378E+04  0.10000000000E+02 0. -1.
</event>
<event>
 5    1  0.1338054E-008  0.3846250E+03  0.7957747E-01  0.3431264E+00
         13   -1    0    0    0    0  0.00000000000E+00  0.00000000000E+00  0.14999999963E+04  0.15000000000E+04  0.10566000000E+00 0.  1.
        994   -1    0    0    0    0 -0.00000000000E+00 -0.00000000000E+00  0.11368683772E-12  0.17120000000E+03  0.17120000000E+03 0.  0.
         13    1    1    2    0    0 -0.10984405191E+02  0.30014100340E+01  0.33642835685E+02  0.35517843073E+02  0.10566000000E+00 0.  1.
        994    1    1    2    0    0  0.18926998161E+02 -0.29855920535E+01  0.30262375780E+01  0.17229551107E+03  0.17120000000E+03 0.  0.
        998    1    1    2    0    0 -0.79425929703E+01 -0.15817980488E-01  0.14633309230E+04  0.14633866459E+04  0.10000000000E+02 0.  1.
</event>
<event>
 5    1  0.1338054E-008  0.3800931E+03  0.7957747E-01  0.3450753E+00
         13   -1    0    0    0    0  0.00000000000E+00  0.00000000000E+00  0.14999999963E+04  0.15000000000E+04  0.10566000000E+00 0. -1.
        994   -1    0    0    0    0 -0.00000000000E+00 -0.00000000000E+00  0.11368683772E-12  0.17120000000E+03  0.17120000000E+03 0.  0.
         13    1    1    2    0    0  0.14125596514E+02  0.25243572499E+02  0.11508371486E+03  0.11866357074E+03  0.10566000000E+00 0. -1.
        994    1    1    2    0    0  0.15648106235E+02 -0.25645176906E+01  0.49268769220E+01  0.17200335490E+03  0.17120000000E+03 0.  0.
        998    1    1    2    0    0 -0.29773702750E+02 -0.22679054808E+02  0.13799894045E+04  0.13805330744E+04  0.10000000000E+02 0. -1.
</event>
<event>
 5    1  0.1338054E-008  0.3848758E+03  0.7957747E-01  0.3430199E+00
         13   -1    0    0    0    0  0.00000000000E+00  0.00000000000E+00  0.14999999963E+04  0.15000000000E+04  0.10566000000E+00 0. -1.
        994   -1    0    0    0    0 -0.00000000000E+00 -0.00000000000E+00  0.11368683772E-12  0.17120000000E+03  0.17120000000E+03 0.  0.
         13    1    1    2    0    0  0.46242028927E+01  0.14011112344E+02  0.67624559120E+02  0.69215508968E+02  0.10566000000E+00 0. -1.
        994    1    1    2    0    0  0.15944042260E+02 -0.75550783036E+01  0.27166227406E+01  0.17212818401E+03  0.17120000000E+03 0.  0.
        998    1    1    2    0    0 -0.20568245153E+02 -0.64560340406E+01  0.14296588144E+04  0.14298563070E+04  0.10000000000E+02 0. -1.
</event>
<event>
 5    1  0.1338054E-008  0.3759688E+03  0.7957747E-01  0.3468901E+00
         13   -1    0    0    0    0  0.00000000000E+00  0.00000000000E+00  0.14999999963E+04  0.15000000000E+04  0.10566000000E+00 0. -1.
        994   -1    0    0    0    0 -0.00000000000E+00 -0.00000000000E+00  0.11368683772E-12  0.17120000000E+03  0.17120000000E+03 0.  0.
         13    1    1    2    0    0  0.19096262509E+02 -0.37850137853E+02  0.13393974195E+03  0.14048902383E+03  0.10566000000E+00 0. -1.
        994    1    1    2    0    0 -0.18308450033E+02  0.34078755028E+02  0.11269465302E+02  0.17587780342E+03  0.17120000000E+03 0.  0.
        998    1    1    2    0    0 -0.78781247576E+00  0.37713828248E+01  0.13547907890E+04  0.13548331728E+04  0.10000000000E+02 0. -1.
</event>
<event>
 5    1  0.1338054E-008  0.3687794E+03  0.7957747E-01  0.3501519E+00
         13   -1    0    0    0    0  0.00000000000E+00  0.00000000000E+00  0.14999999963E+04  0.15000000000E+04  0.10566000000E+00 0.  1.
        994   -1    0    0    0    0 -0.00000000000E+00 -0.00000000000E+00  0.11368683772E-12  0.17120000000E+03  0.17120000000E+03 0.  0.
         13    1    1    2    0    0  0.27143856817E+02 -0.58830697624E+02  0.21496578428E+03  0.22451757062E+03  0.10566000000E+00 0.  1.
        994    1    1    2    0    0  0.75831416422E+01  0.31459776030E+02  0.13949066327E+02  0.17478912437E+03  0.17120000000E+03 0.  0.
        998    1    1    2    0    0 -0.34726998460E+02  0.27370921595E+02  0.12710851457E+04  0.12718933050E+04  0.10000000000E+02 0.  1.
</event>
<event>
 5    1  0.1338054E-008  0.3757631E+03  0.7957747E-01  0.3469817E+00
         13   -1    0    0    0    0  0.00000000000E+00  0.00000000000E+00  0.14999999963E+04  0.15000000000E+04  0.10566000000E+00 0. -1.
        994   -1    0    0    0    0 -0.00000000000E+00 -0.00000000000E+00  0.11368683772E-12  0.17120000000E+03  0.17120000000E+03 0.  0.
         13    1    1    2    0    0 -0.42782784381E+02 -0.85552111103E+02  0.54754564395E+03  0.55583790239E+03  0.10566000000E+00 0. -1.
        994    1    1    2    0    0 -0.17167107462E+02  0.66407834583E+01  0.15228954299E+02  0.17285881705E+03  0.17120000000E+03 0.  0.
        998    1    1    2    0    0  0.59949891843E+02  0.78911327644E+02  0.93722539802E+03  0.94250328056E+03  0.10000000000E+02 0. -1.
</event>
<event>
 5    1  0.1338054E-008  0.3818664E+03  0.7957747E-01  0.3443072E+00
         13   -1    0    0    0    0  0.00000000000E+00  0.00000000000E+00  0.14999999963E+04  0.15000000000E+04  0.10566000000E+00 0. -1.
        994   -1    0    0    0    0 -0.00000000000E+00 -0.00000000000E+00  0.11368683772E-12  0.17120000000E+03  0.17120000000E+03 0.  0.
         13    1    1    2    0    0 -0.29565895723E+01  0.12025303431E+02  0.23020652353E+02  0.26140216971E+02  0.10566000000E+00 0. -1.
        994    1    1    2    0    0 -0.92231434736E+00 -0.52902096960E+01  0.32897727039E+01  0.17131578908E+03  0.17120000000E+03 0.  0.
        998    1    1    2    0    0  0.38789039197E+01 -0.67350937351E+01  0.14736895712E+04  0.14737439940E+04  0.10000000000E+02 0. -1.
</event>
<event>
 5    1  0.1338054E-008  0.3830318E+03  0.7957747E-01  0.3438063E+00
         13   -1    0    0    0    0  0.00000000000E+00  0.00000000000E+00  0.14999999963E+04  0.15000000000E+04  0.10566000000E+00 0.  1.
        994   -1    0    0    0    0 -0.00000000000E+00 -0.00000000000E+00  0.11368683772E-12  0.17120000000E+03  0.17120000000E+03 0.  0.
         13    1    1    2    0    0 -0.65391068686E+00  0.32581604306E+02  0.18359814983E+03  0.18646790695E+03  0.10566000000E+00 0.  1.
        994    1    1    2    0    0 -0.20446352381E+00 -0.30644607802E+02  0.57249840943E+01  0.17401537069E+03  0.17120000000E+03 0.  0.
        998    1    1    2    0    0  0.85837421067E+00 -0.19369965038E+01  0.13106768624E+04  0.13107167224E+04  0.10000000000E+02 0.  0.
</event>
<event>
 5    1  0.1338054E-008  0.3754845E+03  0.7957747E-01  0.3471059E+00
         13   -1    0    0    0    0  0.00000000000E+00  0.00000000000E+00  0.14999999963E+04  0.15000000000E+04  0.10566000000E+00 0. -1.
        994   -1    0    0    0    0 -0.00000000000E+00 -0.00000000000E+00  0.11368683772E-12  0.17120000000E+03  0.17120000000E+03 0.  0.
         13    1    1    2    0    0  0.39239904271E+02  0.41833886857E+02  0.25911252209E+03  0.26538491751E+03  0.10566000000E+00 0. -1.
        994    1    1    2    0    0 -0.32312950251E+02 -0.11098742209E+02  0.10401820146E+02  0.17488552454E+03  0.17120000000E+03 0.  0.
        998    1    1    2    0    0 -0.69269540205E+01 -0.30735144648E+02  0.12304856540E+04  0.12309295579E+04  0.10000000000E+02 0. -1.
</event>
<event>
 5    1  0.1338054E-008  0.3714638E+03  0.7957747E-01  0.3489190E+00
         13   -1    0    0    0    0  0.00000000000E+00  0.00000000000E+00  0.14999999963E+04  0.15000000000E+04  0.10566000000E+00 0. -1.
        994   -1    0    0    0    0 -0.00000000000E+00 -0.00000000000E+00  0.11368683772E-12  0.17120000000E+03  0.17120000000E+03 0.  0.
         13    1    1    2    0    0 -0.12189583171E+03 -0.69603430597E+02  0.50374872536E+03  0.52293978698E+03  0.10566000000E+00 0. -1.
        994    1    1    2    0    0  0.12500550566E+03  0.72595036143E+02  0.89240416651E+02  0.24118397062E+03  0.17120000000E+03 0.  0.
        998    1    1    2    0    0 -0.31096739530E+01 -0.29916055452E+01  0.90701085427E+03  0.90707624241E+03  0.10000000000E+02 0. -1.
</event>
<event>
 5    1  0.1338054E-008  0.3836382E+03  0.7957747E-01  0.3435468E+00
         13   -1    0    0    0    0  0.00000000000E+00  0.00000000000E+00  0.14999999963E+04  0.15000000000E+04  0.10566000000E+00 0. -1.
        994   -1    0    0    0    0 -0.00000000000E+00 -0.00000000000E+00  0.11368683772E-12  0.17120000000E+03  0.17120000000E+03 0.  0.
         13    1    1    2    0    0 -0.35164486465E+01 -0.19438407243E+02  0.82782972095E+02  0.85107277715E+02  0.10566000000E+00 0. -1.
        994    1    1    2    0    0  0.11956783864E+02  0.13126402255E+02  0.33498352916E+01  0.17215088880E+03  0.17120000000E+03 0.  0.
        998    1    1    2    0    0 -0.84403352173E+01  0.63120049875E+01  0.14138671889E+04  0.14139418335E+04  0.10000000000E+02 0. -1.
</event>
<event>
 5    1  0.1338054E-008  0.3829385E+03  0.7957747E-01  0.3438463E+00
         13   -1    0    0    0    0  0.00000000000E+00  0.00000000000E+00  0.14999999963E+04  0.15000000000E+04  0.10566000000E+00 0. -1.
        994   -1    0    0    0    0 -0.00000000000E+00 -0.00000000000E+00  0.11368683772E-12  0.17120000000E+03  0.17120000000E+03 0.  0.
         13    1    1    2    0    0  0.47745189977E+01 -0.20481903006E+02  0.78214671717E+02  0.80992903505E+02  0.10566000000E+00 0. -1.
        994    1    1    2    0    0 -0.53524253158E+01  0.22278601954E+02  0.43971657577E+01  0.17278240544E+03  0.17120000000E+03 0.  0.
        998    1    1    2    0    0  0.57790631809E+00 -0.17966989476E+01  0.14173881588E+04  0.14174246911E+04  0.10000000000E+02 0. -1.
</event>
<event>
 5    1  0.1338054E-008  0.3822531E+03  0.7957747E-01  0.3441406E+00
         13   -1    0    0    0    0  0.00000000000E+00  0.00000000000E+00  0.14999999963E+04  0.15000000000E+04  0.10566000000E+00 0.  1.
        994   -1    0    0    0    0 -0.00000000000E+00 -0.00000000000E+00  0.11368683772E-12  0.17120000000E+03  0.17120000000E+03 0.  0.
         13    1    1    2    0    0  0.25188987652E+02 -0.12001273904E+02  0.12698101402E+03  0.13001040251E+03  0.10566000000E+00 0.  1.
        994    1    1    2    0    0 -0.19387953802E+02  0.33560086902E+01  0.42857964666E+01  0.17238028773E+03  0.17120000000E+03 0.  0.
        998    1    1    2    0    0 -0.58010338500E+01  0.86452652140E+01  0.13687331858E+04  0.13688093098E+04  0.10000000000E+02 0.  1.
</event>
<event>
 5    1  0.1338054E-008  0.3804677E+03  0.7957747E-01  0.3449125E+00
         13   -1    0    0    0    0  0.00000000000E+00  0.00000000000E+00  0.14999999963E+04  0.15000000000E+04  0.10566000000E+00 0.  1.
        994   -1    0    0    0    0 -0.00000000000E+00 -0.00000000000E+00  0.11368683772E-12  0.17120000000E+03  0.17120000000E+03 0.  0.
         13    1    1    2    0    0 -0.22180849858E+02  0.96504053100E+02  0.26101978594E+03  0.27917084766E+03  0.10566000000E+00 0.  1.
        994    1    1    2    0    0  0.12742422437E+02 -0.81045231143E+02  0.41443096470E+02  0.19431332704E+03  0.17120000000E+03 0.  0.
        998    1    1    2    0    0  0.94384274206E+01 -0.15458821957E+02  0.11975371139E+04  0.11977158253E+04  0.10000000000E+02 0.  1.
</event>
<event>
 5    1  0.1338054E-008  0.3851803E+03  0.7957747E-01  0.3428908E+00
         13   -1    0    0    0    0  0.00000000000E+00  0.00000000000E+00  0.14999999963E+04  0.15000000000E+04  0.10566000000E+00 0.  1.
        994   -1    0    0    0    0 -0.00000000000E+00 -0.00000000000E+00  0.11368683772E-12  0.17120000000E+03  0.17120000000E+03 0.  0.
         13    1    1    2    0    0  0.17596096290E+02 -0.64627318503E+01  0.98962217662E+02  0.10072199956E+03  0.10566000000E+00 0.  1.
        994    1    1    2    0    0 -0.19765121122E+02  0.38110489887E+02  0.76219193703E+01  0.17666522891E+03  0.17120000000E+03 0.  0.
        998    1    1    2    0    0  0.21690248318E+01 -0.31647758037E+02  0.13934158592E+04  0.13938127715E+04  0.10000000000E+02 0.  1.
</event>
<event>
 5    1  0.1338054E-008  0.3779537E+03  0.7957747E-01  0.3460117E+00
         13   -1    0    0    0    0  0.00000000000E+00  0.00000000000E+00  0.14999999963E+04  0.15000000000E+04  0.10566000000E+00 0.  1.
        994   -1    0    0    0    0 -0.00000000000E+00 -0.00000000000E+00  0.11368683772E-12  0.17120000000E+03  0.17120000000E+03 0.  0.
         13    1    1    2    0    0 -0.25264142800E+02 -0.21553255722E+02  0.11992949714E+03  0.12444241717E+03  0.10566000000E+00 0.  1.
        994    1    1    2    0    0  0.15230597538E+01 -0.10659498846E+02  0.55600254019E+01  0.17162837326E+03  0.17120000000E+03 0.  0.
        998    1    1    2    0    0  0.23741083046E+02  0.32212754568E+02  0.13745104737E+04  0.13751292096E+04  0.10000000000E+02 0.  1.
</event>
<event>
 5    1  0.1338054E-008  0.3801925E+03  0.7957747E-01  0.3450321E+00
         13   -1    0    0    0    0  0.00000000000E+00  0.00000000000E+00  0.14999999963E+04  0.15000000000E+04  0.10566000000E+00 0.  1.
        994   -1    0    0    0    0 -0.00000000000E+00 -0.00000000000E+00  0.11368683772E-12  0.17120000000E+03  0.17120000000E+03 0.  0.
         13    1    1    2    0    0 -0.12006966593E+03  0.46911344136E+02  0.71002855742E+03  0.72163561609E+03  0.10566000000E+00 0.  1.
        994    1    1    2    0    0  0.13915655927E+03 -0.52345527217E+02  0.81809110800E+02  0.24105346465E+03  0.17120000000E+03 0.  0.
        998    1    1    2    0    0 -0.19086893345E+02  0.54341830812E+01  0.70816232806E+03  0.70851091927E+03  0.10000000000E+02 0.  1.
</event>
<event>
 5    1  0.1338054E-008  0.3701908E+03  0.7957747E-01  0.3495014E+00
         13   -1    0    0    0    0  0.00000000000E+00  0.00000000000E+00  0.14999999963E+04  0.15000000000E+04  0.10566000000E+00 0. -1.
        994   -1    0    0    0    0 -0.00000000000E+00 -0.00000000000E+00  0.11368683772E-12  0.17120000000E+03  0.17120000000E+03 0.  0.
         13    1    1    2    0    0 -0.92342874201E+00 -0.48286313556E+02  0.12656137158E+03  0.13546295707E+03  0.10566000000E+00 0. -1.
        994    1    1    2    0    0  0.14310824780E+02  0.24568376556E+02  0.11967784146E+02  0.17395710014E+03  0.17120000000E+03 0.  0.
        998    1    1    2    0    0 -0.13387396038E+02  0.23717937001E+02  0.13614708406E+04  0.13617799428E+04  0.10000000000E+02 0. -1.
</event>
<event>
 5    1  0.1338054E-008  0.3800245E+03  0.7957747E-01  0.3451052E+00
         13   -1    0    0    0    0  0.00000000000E+00  0.00000000000E+00  0.14999999963E+04  0.15000000000E+04  0.10566000000E+00 0. -1.
        994   -1    0    0    0    0 -0.00000000000E+00 -0.00000000000E+00  0.11368683772E-12  0.17120000000E+03  0.17120000000E+03 0.  0.
         13    1    1    2    0    0 -0.10367660552E+02  0.12806644009E+02  0.30608393931E+02  0.34761810356E+02  0.10566000000E+00 0. -1.
        994    1    1    2    0    0  0.75006854740E+01 -0.17780559740E+02  0.53665930936E+01  0.17236777224E+03  0.17120000000E+03 0.  0.
        998    1    1    2    0    0  0.28669750782E+01  0.49739157302E+01  0.14640250093E+04  0.14640704174E+04  0.10000000000E+02 0. -1.
</event>
<event>
 5    1  0.1338054E-008  0.3725729E+03  0.7957747E-01  0.3484149E+00
         13   -1    0    0    0    0  0.00000000000E+00  0.00000000000E+00  0.14999999963E+04  0.15000000000E+04  0.10566000000E+00 0. -1.
        994   -1    0    0    0    0 -0.00000000000E+00 -0.00000000000E+00  0.11368683772E-12  0.17120000000E+03  0.17120000000E+03 0.  0.
         13    1    1    2    0    0  0.46022182885E+02 -0.51938443194E+02  0.14636274470E+03  0.16198057723E+03  0.10566000000E+00 0. -1.
        994    1    1    2    0    0 -0.72555412111E+02  0.80638706310E+02  0.55064468028E+02  0.21002005719E+03  0.17120000000E+03 0.  0.
        998    1    1    2    0    0  0.26533229226E+02 -0.28700263115E+02  0.12985727835E+04  0.12991993656E+04  0.10000000000E+02 0. -1.
</event>
<event>
 5    1  0.1338054E-008  0.3818452E+03  0.7957747E-01  0.3443163E+00
         13   -1    0    0    0    0  0.00000000000E+00  0.00000000000E+00  0.14999999963E+04  0.15000000000E+04  0.10566000000E+00 0. -1.
        994   -1    0    0    0    0 -0.00000000000E+00 -0.00000000000E+00  0.11368683772E-12  0.17120000000E+03  0.17120000000E+03 0.  0.
         13    1    1    2    0    0  0.11190030096E+02 -0.79754736346E+01  0.28475350746E+02  0.31617743712E+02  0.10566000000E+00 0. -1.
        994    1    1    2    0    0 -0.10845192563E+02 -0.30375430224E+01  0.36261771061E+01  0.17160837401E+03  0.17120000000E+03 0.  0.
        998    1    1    2    0    0 -0.34483753318E+00  0.11013016657E+02  0.14678984684E+04  0.14679738823E+04  0.10000000000E+02 0. -1.
</event>
<event>
 5    1  0.1338054E-008  0.4086692E+03  0.7957747E-01  0.3335099E+00
         13   -1    0    0    0    0  0.00000000000E+00  0.00000000000E+00  0.14999999963E+04  0.15000000000E+04  0.10566000000E+00 0. -1.
        994   -1    0    0    0    0 -0.00000000000E+00 -0.00000000000E+00  0.11368683772E-12  0.17120000000E+03  0.17120000000E+03 0.  0.
         13    1    1    2    0    0 -0.49008701078E+02 -0.84388988709E+02  0.13124298062E+03  0.16354841889E+03  0.10566000000E+00 0. -1.
        994    1    1    2    0    0  0.43725912813E+02  0.64902665402E+02  0.58383967438E+02  0.19708485249E+03  0.17120000000E+03 0.  0.
        998    1    1    2    0    0  0.52827882653E+01  0.19486323307E+02  0.13103730482E+04  0.13105667286E+04  0.10000000000E+02 0. -1.
</event>
<event>
 5    1  0.1338054E-008  0.3855700E+03  0.7957747E-01  0.3427258E+00
         13   -1    0    0    0    0  0.00000000000E+00  0.00000000000E+00  0.14999999963E+04  0.15000000000E+04  0.10566000000E+00 0. -1.
        994   -1    0    0    0    0 -0.00000000000E+00 -0.00000000000E+00  0.11368683772E-12  0.17120000000E+03  0.17120000000E+03 0.  0.
         13    1    1    2    0    0  0.67155005366E+01 -0.97628684545E+01  0.54824136035E+02  0.56090182776E+02  0.10566000000E+00 0. -1.
        994    1    1    2    0    0  0.36360481637E+01  0.36045562559E+01  0.14334568327E+01  0.17128253989E+03  0.17120000000E+03 0.  0.
        998    1    1    2    0    0 -0.10351548700E+02  0.61583121986E+01  0.14437424034E+04  0.14438272773E+04  0.10000000000E+02 0. -1.
</event>
<event>
 5    1  0.1338054E-008  0.3830003E+03  0.7957747E-01  0.3438198E+00
         13   -1    0    0    0    0  0.00000000000E+00  0.00000000000E+00  0.14999999963E+04  0.15000000000E+04  0.10566000000E+00 0. -1.
        994   -1    0    0    0    0 -0.00000000000E+00 -0.00000000000E+00  0.11368683772E-12  0.17120000000E+03  0.17120000000E+03 0.  0.
         13    1    1    2    0    0 -0.93152009010E+01  0.40847253851E+01  0.20844315695E+02  0.23193848540E+02  0.10566000000E+00 0. -1.
        994    1    1    2    0    0 -0.36768838312E+02 -0.16050186386E+02  0.79723528832E+01  0.17601861937E+03  0.17120000000E+03 0.  0.
        998    1    1    2    0    0  0.46084039214E+02  0.11965461001E+02  0.14711833277E+04  0.14719875321E+04  0.10000000000E+02 0. -1.
</event>
<event>
 5    1  0.1338054E-008  0.3767661E+03  0.7957747E-01  0.3465362E+00
         13   -1    0    0    0    0  0.00000000000E+00  0.00000000000E+00  0.14999999963E+04  0.15000000000E+04  0.10566000000E+00 0.  1.
        994   -1    0    0    0    0 -0.00000000000E+00 -0.00000000000E+00  0.11368683772E-12  0.17120000000E+03  0.17120000000E+03 0.  0.
         13    1    1    2    0    0 -0.22731379329E+02  0.13289235988E+02  0.56028385680E+02  0.61907273929E+02  0.10566000000E+00 0.  1.
        994    1    1    2    0    0  0.22073158400E+02 -0.13994219616E+02  0.80861386421E+01  0.17337210889E+03  0.17120000000E+03 0.  0.
        998    1    1    2    0    0  0.65822092911E+00  0.70498362765E+00  0.14358854720E+04  0.14359206172E+04  0.10000000000E+02 0.  1.
</event>
<event>
 5    1  0.1338054E-008  0.3691648E+03  0.7957747E-01  0.3499738E+00
         13   -1    0    0    0    0  0.00000000000E+00  0.00000000000E+00  0.14999999963E+04  0.15000000000E+04  0.10566000000E+00 0. -1.
        994   -1    0    0    0    0 -0.00000000000E+00 -0.00000000000E+00  0.11368683772E-12  0.17120000000E+03  0.17120000000E+03 0.  0.
         13    1    1    2    0    0  0.42338917521E+02  0.77768589321E+01  0.10505815156E+03  0.11353541230E+03  0.10566000000E+00 0. -1.
        994    1    1    2    0    0  0.93049005426E+01 -0.63994480974E+01  0.10148632668E+02  0.17187195482E+03  0.17120000000E+03 0.  0.
        998    1    1    2    0    0 -0.51643818064E+02 -0.13774108347E+01  0.13847932120E+04  0.13857926329E+04  0.10000000000E+02 0. -1.
</event>
<event>
 5    1  0.1338054E-008  0.3861995E+03  0.7957747E-01  0.3424601E+00
         13   -1    0    0    0    0  0.00000000000E+00  0.00000000000E+00  0.14999999963E+04  0.15000000000E+04  0.10566000000E+00 0.  1.
        994   -1    0    0    0    0 -0.00000000000E+00 -0.00000000000E+00  0.11368683772E-12  0.17120000000E+03  0.17120000000E+03 0.  0.
         13    1    1    2    0    0  0.10084715703E+02 -0.14574898451E+01  0.51778321821E+02  0.52771503125E+02  0.10566000000E+00 0.  1.
        994    1    1    2    0    0 -0.51600416983E+01 -0.45035806099E+01  0.11894608062E+01  0.17134107238E+03  0.17120000000E+03 0.  0.
        998    1    1    2    0    0 -0.49246740043E+01  0.59610704551E+01  0.14470322137E+04  0.14470874245E+04  0.10000000000E+02 0.  1.
</event>
<event>
 5    1  0.1338054E-008  0.3828309E+03  0.7957747E-01  0.3438924E+00
         13   -1    0    0    0    0  0.00000000000E+00  0.00000000000E+00  0.14999999963E+04  0.15000000000E+04  0.10566000000E+00 0.  1.
        994   -1    0    0    0    0 -0.00000000000E+00 -0.00000000000E+00  0.11368683772E-12  0.17120000000E+03  0.17120000000E+03 0.  0.
         13    1    1    2    0    0  0.14325487027E+02 -0.21968153901E+02  0.13136565797E+03  0.13395807786E+03  0.10566000000E+00 0.  1.
        994    1    1    2    0    0  0.12776785356E+01  0.13017175516E+02  0.32777274632E+01  0.17173020357E+03  0.17120000000E+03 0.  0.
        998    1    1    2    0    0 -0.15603165563E+02  0.89509783845E+01  0.13653566108E+04  0.13655117186E+04  0.10000000000E+02 0.  1.
</event>
<event>
 5    1  0.1338054E-008  0.3884818E+03  0.7957747E-01  0.3415038E+00
         13   -1    0    0    0    0  0.00000000000E+00  0.00000000000E+00  0.14999999963E+04  0.15000000000E+04  0.10566000000E+00 0. -1.
        994   -1    0    0    0    0 -0.00000000000E+00 -0.00000000000E+00  0.11368683772E-12  0.17120000000E+03  0.17120000000E+03 0.  0.
         13    1    1    2    0    0  0.44026335566E+02 -0.14050112175E+02  0.44974903719E+02  0.64486254380E+02  0.10566000000E+00 0. -1.
        994    1    1    2    0    0 -0.18660749092E+02 -0.72882672022E+01  0.22569139901E+02  0.17383943302E+03  0.17120000000E+03 0.  0.
        998    1    1    2    0    0 -0.25365586473E+02  0.21338379378E+02  0.14324559527E+04  0.14328743126E+04  0.10000000000E+02 0. -1.
</event>
<event>
 5    1  0.1338054E-008  0.3802841E+03  0.7957747E-01  0.3449922E+00
         13   -1    0    0    0    0  0.00000000000E+00  0.00000000000E+00  0.14999999963E+04  0.15000000000E+04  0.10566000000E+00 0. -1.
        994   -1    0    0    0    0 -0.00000000000E+00 -0.00000000000E+00  0.11368683772E-12  0.17120000000E+03  0.17120000000E+03 0.  0.
         13    1    1    2    0    0 -0.22830302393E+01  0.13975663738E+02  0.24024804598E+02  0.27887879160E+02  0.10566000000E+00 0. -1.
        994    1    1    2    0    0 -0.37167949704E+01 -0.29030337654E+01  0.40640737721E+01  0.17131316022E+03  0.17120000000E+03 0.  0.
        998    1    1    2    0    0  0.59998252097E+01 -0.11072629973E+02  0.14719111179E+04  0.14719989606E+04  0.10000000000E+02 0. -1.
</event>
<event>
 5    1  0.1338054E-008  0.3816790E+03  0.7957747E-01  0.3443880E+00
         13   -1    0    0    0    0  0.00000000000E+00  0.00000000000E+00  0.14999999963E+04  0.15000000000E+04  0.10566000000E+00 0.  1.
        994   -1    0    0    0    0 -0.00000000000E+00 -0.00000000000E+00  0.11368683772E-12  0.17120000000E+03  0.17120000000E+03 0.  0.
         13    1    1    2    0    0 -0.19243053322E+02  0.14921836640E+02  0.88036763836E+02  0.91342428589E+02  0.10566000000E+00 0.  1.
        994    1    1    2    0    0  0.22322143707E+02  0.24491397415E+00  0.49464410866E+01  0.17272013595E+03  0.17120000000E+03 0.  0.
        998    1    1    2    0    0 -0.30790903853E+01 -0.15166750614E+02  0.14070167914E+04  0.14071374355E+04  0.10000000000E+02 0.  1.
</event>
<event>
 5    1  0.1338054E-008  0.3797371E+03  0.7957747E-01  0.3452304E+00
         13   -1    0    0    0    0  0.00000000000E+00  0.00000000000E+00  0.14999999963E+04  0.15000000000E+04  0.10566000000E+00 0.  1.
        994   -1    0    0    0    0 -0.00000000000E+00 -0.00000000000E+00  0.11368683772E-12  0.17120000000E+03  0.17120000000E+03 0.  0.
         13    1    1    2    0    0  0.37673606427E+02  0.36767972552E+02  0.28238641852E+03  0.28725125753E+03  0.10566000000E+00 0.  1.
        994    1    1    2    0    0 -0.31935897233E+02 -0.32495255709E+02  0.11242797033E+02  0.17751530543E+03  0.17120000000E+03 0.  0.
        998    1    1    2    0    0 -0.57377091938E+01 -0.42727168435E+01  0.12063707807E+04  0.12064334370E+04  0.10000000000E+02 0.  1.
</event>
<event>
 5    1  0.1338054E-008  0.3851724E+03  0.7957747E-01  0.3428942E+00
         13   -1    0    0    0    0  0.00000000000E+00  0.00000000000E+00  0.14999999963E+04  0.15000000000E+04  0.10566000000E+00 0.  1.
        994   -1    0    0    0    0 -0.00000000000E+00 -0.00000000000E+00  0.11368683772E-12  0.17120000000E+03  0.17120000000E+03 0.  0.
         13    1    1    2    0    0 -0.79154079249E+01 -0.11208340380E+02  0.59373033103E+02  0.60938073489E+02  0.10566000000E+00 0.  1.
        994    1    1    2    0    0  0.91259708458E+01  0.10191978045E+02  0.21599876793E+01  0.17175932379E+03  0.17120000000E+03 0.  0.
        998    1    1    2    0    0 -0.12105629209E+01  0.10163623346E+01  0.14384669755E+04  0.14385026027E+04  0.10000000000E+02 0.  1.
</event>
<event>
 5    1  0.1338054E-008  0.3776024E+03  0.7957747E-01  0.3461665E+00
         13   -1    0    0    0    0  0.00000000000E+00  0.00000000000E+00  0.14999999963E+04  0.15000000000E+04  0.10566000000E+00 0.  1.
        994   -1    0    0    0    0 -0.00000000000E+00 -0.00000000000E+00  0.11368683772E-12  0.17120000000E+03  0.17120000000E+03 0.  0.
         13    1    1    2    0    0  0.20583940764E+02 -0.93871286660E+01  0.44949062603E+02  0.50321428784E+02  0.10566000000E+00 0.  1.
        994    1    1    2    0    0 -0.17272749355E+02  0.11283688609E+02  0.67840208998E+01  0.17257210794E+03  0.17120000000E+03 0.  0.
        998    1    1    2    0    0 -0.33111914095E+01 -0.18965599431E+01  0.14482669128E+04  0.14483064633E+04  0.10000000000E+02 0.  1.
</event>
<event>
 5    1  0.1338054E-008  0.3854956E+03  0.7957747E-01  0.3427573E+00
         13   -1    0    0    0    0  0.00000000000E+00  0.00000000000E+00  0.14999999963E+04  0.15000000000E+04  0.10566000000E+00 0. -1.
        994   -1    0    0    0    0 -0.00000000000E+00 -0.00000000000E+00  0.11368683772E-12  0.17120000000E+03  0.17120000000E+03 0.  0.
         13    1    1    2    0    0  0.75426968908E+01 -0.14637385862E+02  0.91484479949E+02  0.92954647957E+02  0.10566000000E+00 0. -1.
        994    1    1    2    0    0  0.23154259455E+01  0.23691340148E+02  0.32469672518E+01  0.17287748145E+03  0.17120000000E+03 0.  0.
        998    1    1    2    0    0 -0.98581228363E+01 -0.90539542854E+01  0.14052685491E+04  0.14053678706E+04  0.10000000000E+02 0. -1.
</event>
<event>
 5    1  0.1338054E-008  0.3736015E+03  0.7957747E-01  0.3479501E+00
         13   -1    0    0    0    0  0.00000000000E+00  0.00000000000E+00  0.14999999963E+04  0.15000000000E+04  0.10566000000E+00 0.  1.
        994   -1    0    0    0    0 -0.00000000000E+00 -0.00000000000E+00  0.11368683772E-12  0.17120000000E+03  0.17120000000E+03 0.  0.
         13    1    1    2    0    0 -0.41237614871E+02  0.40622041087E+02  0.21230634394E+03  0.22005609727E+03  0.10566000000E+00 0.  1.
        994    1    1    2    0    0 -0.70540334420E+02  0.24043878456E+02  0.32791450366E+02  0.18957522541E+03  0.17120000000E+03 0.  0.
        998    1    1    2    0    0  0.11177794929E+03 -0.64665919543E+02  0.12549022020E+04  0.12615686773E+04  0.10000000000E+02 0.  1.
</event>
<event>
 5    1  0.1338054E-008  0.3733407E+03  0.7957747E-01  0.3480677E+00
         13   -1    0    0    0    0  0.00000000000E+00  0.00000000000E+00  0.14999999963E+04  0.15000000000E+04  0.10566000000E+00 0. -1.
        994   -1    0    0    0    0 -0.00000000000E+00 -0.00000000000E+00  0.11368683772E-12  0.17120000000E+03  0.17120000000E+03 0.  0.
         13    1    1    2    0    0 -0.10322181208E+02  0.79635071093E+01  0.79387631560E+01  0.15264337354E+02  0.10566000000E+00 0. -1.
        994    1    1    2    0    0  0.79771726195E+01  0.13953123176E+01  0.77575118426E+01  0.17156689998E+03  0.17120000000E+03 0.  0.
        998    1    1    2    0    0  0.23450085889E+01 -0.93588194268E+01  0.14843037213E+04  0.14843687627E+04  0.10000000000E+02 0. -1.
</event>
<event>
 5    1  0.1338054E-008  0.3794827E+03  0.7957747E-01  0.3453414E+00
         13   -1    0    0    0    0  0.00000000000E+00  0.00000000000E+00  0.14999999963E+04  0.15000000000E+04  0.10566000000E+00 0.  1.
        994   -1    0    0    0    0 -0.00000000000E+00 -0.00000000000E+00  0.11368683772E-12  0.17120000000E+03  0.17120000000E+03 0.  0.
         13    1    1    2    0    0 -0.32825838575E+02  0.20220998943E+01  0.12855683536E+03  0.13269700693E+03  0.10566000000E+00 0.  1.
        994    1    1    2    0    0  0.99727496769E+01  0.19332883972E+01  0.47401345739E+01  0.17156661160E+03  0.17120000000E+03 0.  0.
        998    1    1    2    0    0  0.22853088898E+02 -0.39553882915E+01  0.13667030263E+04  0.13669363815E+04  0.10000000000E+02 0.  1.
</event>
<event>
 5    1  0.1338054E-008  0.3821131E+03  0.7957747E-01  0.3442009E+00
         13   -1    0    0    0    0  0.00000000000E+00  0.00000000000E+00  0.14999999963E+04  0.15000000000E+04  0.10566000000E+00 0. -1.
        994   -1    0    0    0    0 -0.00000000000E+00 -0.00000000000E+00  0.11368683772E-12  0.17120000000E+03  0.17120000000E+03 0.  0.
         13    1    1    2    0    0  0.15566554711E+02  0.21517888644E+00  0.39744630063E+02  0.42685017400E+02  0.10566000000E+00 0. -1.
        994    1    1    2    0    0 -0.13351876759E+01 -0.69857483256E+01  0.32381923557E+01  0.17137826378E+03  0.17120000000E+03 0.  0.
        998    1    1    2    0    0 -0.14231367035E+02  0.67705694391E+01  0.14570171739E+04  0.14571367188E+04  0.10000000000E+02 0. -1.
</event>
<event>
 5    1  0.1338054E-008  0.3800873E+03  0.7957747E-01  0.3450779E+00
         13   -1    0    0    0    0  0.00000000000E+00  0.00000000000E+00  0.14999999963E+04  0.15000000000E+04  0.10566000000E+00 0. -1.
        994   -1    0    0    0    0 -0.00000000000E+00 -0.00000000000E+00  0.11368683772E-12  0.17120000000E+03  0.17120000000E+03 0.  0.
         13    1    1    2    0    0  0.13364390427E+02  0.11046814856E+01  0.20287670940E+02  0.24319292935E+02  0.10566000000E+00 0. -1.
        994    1    1    2    0    0 -0.78997632823E+01 -0.17762093341E+02  0.53530240901E+01  0.17238327380E+03  0.17120000000E+03 0.  0.
        998    1    1    2    0    0 -0.54646271450E+01  0.16657411856E+02  0.14743593012E+04  0.14744974333E+04  0.10000000000E+02 0. -1.
</event>
<event>
 5    1  0.1338054E-008  0.3842868E+03  0.7957747E-01  0.3432703E+00
         13   -1    0    0    0    0  0.00000000000E+00  0.00000000000E+00  0.14999999963E+04  0.15000000000E+04  0.10566000000E+00 0. -1.
        994   -1    0    0    0    0 -0.00000000000E+00 -0.00000000000E+00  0.11368683772E-12  0.17120000000E+03  0.17120000000E+03 0.  0.
         13    1    1    2    0    0  0.16646629182E+02 -0.29520274980E+01  0.73848279195E+02  0.75758855809E+02  0.10566000000E+00 0. -1.
        994    1    1    2    0    0 -0.57727419511E+01  0.28718541978E+01  0.21217095250E+01  0.17133450834E+03  0.17120000000E+03 0.  0.
        998    1    1    2    0    0 -0.10873887230E+02  0.80173300197E-01  0.14240300076E+04  0.14241066359E+04  0.10000000000E+02 0. -1.
</event>
<event>
 5    1  0.1338054E-008  0.3795681E+03  0.7957747E-01  0.3453041E+00
         13   -1    0    0    0    0  0.00000000000E+00  0.00000000000E+00  0.14999999963E+04  0.15000000000E+04  0.10566000000E+00 0. -1.
        994   -1    0    0    0    0 -0.00000000000E+00 -0.00000000000E+00  0.11368683772E-12  0.17120000000E+03  0.17120000000E+03 0.  0.
         13    1    1    2    0    0  0.76249386209E+02 -0.10926333042E+03  0.78270594870E+03  0.79396540073E+03  0.10566000000E+00 0. -1.
        994    1    1    2    0    0 -0.79011448103E+02  0.11611783489E+03  0.73498130668E+02  0.23331861418E+03  0.17120000000E+03 0.  0.
        998    1    1    2    0    0  0.27620618946E+01 -0.68545044659E+01  0.64379591691E+03  0.64391598509E+03  0.10000000000E+02 0. -1.
</event>
<event>
 5    1  0.1338054E-008  0.3837982E+03  0.7957747E-01  0.3434785E+00
         13   -1    0    0    0    0  0.00000000000E+00  0.00000000000E+00  0.14999999963E+04  0.15000000000E+04  0.10566000000E+00 0.  1.
        994   -1    0    0    0    0 -0.00000000000E+00 -0.00000000000E+00  0.11368683772E-12  0.17120000000E+03  0.17120000000E+03 0.  0.
         13    1    1    2    0    0 -0.22854907160E+02 -0.36282247068E+01  0.12330416537E+03  0.12545692152E+03  0.10566000000E+00 0.  1.
        994    1    1    2    0    0  0.13724776522E+02 -0.17174282838E+02  0.38253121287E+01  0.17264819285E+03  0.17120000000E+03 0.  0.
        998    1    1    2    0    0  0.91301306384E+01  0.20802507545E+02  0.13728705188E+04  0.13730948856E+04  0.10000000000E+02 0.  1.
</event>
<event>
 5    1  0.1338054E-008  0.3814308E+03  0.7957747E-01  0.3444952E+00
         13   -1    0    0    0    0  0.00000000000E+00  0.00000000000E+00  0.14999999963E+04  0.15000000000E+04  0.10566000000E+00 0.  1.
        994   -1    0    0    0    0 -0.00000000000E+00 -0.00000000000E+00  0.11368683772E-12  0.17120000000E+03  0.17120000000E+03 0.  0.
         13    1    1    2    0    0 -0.10542665936E+01  0.20267216864E+02  0.59454137735E+02  0.62822585232E+02  0.10566000000E+00 0.  1.
        994    1    1    2    0    0  0.55777816138E+01 -0.11701505075E+02  0.39719036844E+01  0.17173599765E+03  0.17120000000E+03 0.  0.
        998    1    1    2    0    0 -0.45235150202E+01 -0.85657117890E+01  0.14365739549E+04  0.14366414171E+04  0.10000000000E+02 0.  1.
</event>
<event>
 5    1  0.1338054E-008  0.3813720E+03  0.7957747E-01  0.3445206E+00
         13   -1    0    0    0    0  0.00000000000E+00  0.00000000000E+00  0.14999999963E+04  0.15000000000E+04  0.10566000000E+00 0.  1.
        994   -1    0    0    0    0 -0.00000000000E+00 -0.00000000000E+00  0.11368683772E-12  0.17120000000E+03  0.17120000000E+03 0.  0.
         13    1    1    2    0    0 -0.20526711545E+02 -0.20569125539E+02  0.13205412774E+03  0.13521367767E+03  0.10566000000E+00 0.  1.
        994    1    1    2    0    0  0.31595801778E+01  0.33876447067E+01  0.35135731408E+01  0.17129869900E+03  0.17120000000E+03 0.  0.
        998    1    1    2    0    0  0.17367131367E+02  0.17181480833E+02  0.13644322954E+04  0.13646876233E+04  0.10000000000E+02 0.  1.
</event>
<event>
 5    1  0.1338054E-008  0.3702559E+03  0.7957747E-01  0.3494716E+00
         13   -1    0    0    0    0  0.00000000000E+00  0.00000000000E+00  0.14999999963E+04  0.15000000000E+04  0.10566000000E+00 0.  1.
        994   -1    0    0    0    0 -0.00000000000E+00 -0.00000000000E+00  0.11368683772E-12  0.17120000000E+03  0.17120000000E+03 0.  0.
         13    1    1    2    0    0  0.12247374055E+02  0.11599991444E+02  0.11294330973E+02  0.20301011032E+02  0.10566000000E+00 0.  1.
        994    1    1    2    0    0 -0.15855884703E+02 -0.13581233187E+02  0.10642540494E+02  0.17279630390E+03  0.17120000000E+03 0.  0.
        998    1    1    2    0    0  0.36085106481E+01  0.19812417434E+01  0.14780631248E+04  0.14781026851E+04  0.10000000000E+02 0.  1.
</event>
<event>
 5    1  0.1338054E-008  0.3854427E+03  0.7957747E-01  0.3427797E+00
         13   -1    0    0    0    0  0.00000000000E+00  0.00000000000E+00  0.14999999963E+04  0.15000000000E+04  0.10566000000E+00 0. -1.
        994   -1    0    0    0    0 -0.00000000000E+00 -0.00000000000E+00  0.11368683772E-12  0.17120000000E+03  0.17120000000E+03 0.  0.
         13    1    1    2    0    0  0.47482636816E+01  0.13077577412E+02  0.67793685036E+02  0.69206675500E+02  0.10566000000E+00 0. -1.
        994    1    1    2    0    0 -0.31602826746E+01 -0.11175077960E+02  0.18535432718E+01  0.17160345386E+03  0.17120000000E+03 0.  0.
        998    1    1    2    0    0 -0.15879810071E+01 -0.19024994527E+01  0.14303527680E+04  0.14303898706E+04  0.10000000000E+02 0. -1.
</event>
<event>
 5    1  0.1338054E-008  0.3856560E+03  0.7957747E-01  0.3426895E+00
         13   -1    0    0    0    0  0.00000000000E+00  0.00000000000E+00  0.14999999963E+04  0.15000000000E+04  0.10566000000E+00 0.  1.
        994   -1    0    0    0    0 -0.00000000000E+00 -0.00000000000E+00  0.11368683772E-12  0.17120000000E+03  0.17120000000E+03 0.  0.
         13    1    1    2    0    0  0.14507083311E+02 -0.21513193359E+01  0.81666328347E+02  0.82972790666E+02  0.10566000000E+00 0.  1.
        994    1    1    2    0    0 -0.11685630778E+02  0.29869036933E+00  0.17533435677E+01  0.17160756800E+03  0.17120000000E+03 0.  0.
        998    1    1    2    0    0 -0.28214525330E+01  0.18526289666E+01  0.14165803244E+04  0.14166196413E+04  0.10000000000E+02 0.  1.
</event>
<event>
 5    1  0.1338054E-008  0.3695693E+03  0.7957747E-01  0.3497873E+00
         13   -1    0    0    0    0  0.00000000000E+00  0.00000000000E+00  0.14999999963E+04  0.15000000000E+04  0.10566000000E+00 0.  1.
        994   -1    0    0    0    0 -0.00000000000E+00 -0.00000000000E+00  0.11368683772E-12  0.17120000000E+03  0.17120000000E+03 0.  0.
         13    1    1    2    0    0  0.72057292917E+02  0.29686650648E+02  0.23795689244E+03  0.25039377890E+03  0.10566000000E+00 0.  1.
        994    1    1    2    0    0 -0.79556979534E+02 -0.77287181951E+01  0.33359458278E+02  0.19186281436E+03  0.17120000000E+03 0.  0.
        998    1    1    2    0    0  0.74996866162E+01 -0.21957932453E+02  0.12286836456E+04  0.12289434067E+04  0.10000000000E+02 0.  1.
</event>
<event>
 5    1  0.1880855E-008  0.3856676E+03  0.7957747E-01  0.3426846E+00
         13   -1    0    0    0    0  0.00000000000E+00  0.00000000000E+00  0.14999999963E+04  0.15000000000E+04  0.10566000000E+00 0. -1.
        994   -1    0    0    0    0 -0.00000000000E+00 -0.00000000000E+00  0.11368683772E-12  0.17120000000E+03  0.17120000000E+03 0.  0.
         13    1    1    2    0    0 -0.99425045421E+01  0.52025742097E+01  0.52142852919E+02  0.53336745772E+02  0.10566000000E+00 0. -1.
        994    1    1    2    0    0 -0.37573047331E+01 -0.10654522353E+01  0.13490969369E+01  0.17124985428E+03  0.17120000000E+03 0.  0.
        998    1    1    2    0    0  0.13699809275E+02 -0.41371219743E+01  0.14465080464E+04  0.14466134000E+04  0.10000000000E+02 0. -1.
</event>
<event>
 5    1  0.1338054E-008  0.3751719E+03  0.7957747E-01  0.3472454E+00
         13   -1    0    0    0    0  0.00000000000E+00  0.00000000000E+00  0.14999999963E+04  0.15000000000E+04  0.10566000000E+00 0. -1.
        994   -1    0    0    0    0 -0.00000000000E+00 -0.00000000000E+00  0.11368683772E-12  0.17120000000E+03  0.17120000000E+03 0.  0.
         13    1    1    2    0    0  0.19220354024E+01  0.10654704880E+03  0.56855286564E+03  0.57845340350E+03  0.10566000000E+00 0. -1.
        994    1    1    2    0    0 -0.43381364839E+02 -0.29481734164E+02  0.23561188676E+02  0.18059813143E+03  0.17120000000E+03 0.  0.
        998    1    1    2    0    0  0.41459329437E+02 -0.77065314632E+02  0.90788594196E+03  0.91214846507E+03  0.10000000000E+02 0.  1.
</event>
<event>
 5    1  0.1338054E-008  0.3786685E+03  0.7957747E-01  0.3456977E+00
         13   -1    0    0    0    0  0.00000000000E+00  0.00000000000E+00  0.14999999963E+04  0.15000000000E+04  0.10566000000E+00 0.  1.
        994   -1    0    0    0    0 -0.00000000000E+00 -0.00000000000E+00  0.11368683772E-12  0.17120000000E+03  0.17120000000E+03 0.  0.
         13    1    1    2    0    0 -0.93177211528E+01 -0.78869865995E+01  0.13379248723E+02  0.18111873054E+02  0.10566000000E+00 0.  1.
        994    1    1    2    0    0  0.66798418781E+01  0.65262712167E+01  0.50996877151E+01  0.17153034518E+03  0.17120000000E+03 0.  0.
        998    1    1    2    0    0  0.26378792747E+01  0.13607153829E+01  0.14815210598E+04  0.14815577818E+04  0.10000000000E+02 0.  1.
</event>
<event>
 5    1  0.1338054E-008  0.3831760E+03  0.7957747E-01  0.3437445E+00
         13   -1    0    0    0    0  0.00000000000E+00  0.00000000000E+00  0.14999999963E+04  0.15000000000E+04  0.10566000000E+00 0.  1.
        994   -1    0    0    0    0 -0.00000000000E+00 -0.00000000000E+00  0.11368683772E-12  0.17120000000E+03  0.17120000000E+03 0.  0.
         13    1    1    2    0    0  0.13864606331E+02 -0.20922283587E+02  0.11292603344E+03  0.11568175937E+03  0.10566000000E+00 0.  1.
        994    1    1    2    0    0 -0.12678732103E+02  0.25859612836E+02  0.52873493852E+01  0.17368611311E+03  0.17120000000E+03 0.  0.
        998    1    1    2    0    0 -0.11858742280E+01 -0.49373292485E+01  0.13817866135E+04  0.13818321275E+04  0.10000000000E+02 0.  1.
</event>
<event>
 5    1  0.1338054E-008  0.3842670E+03  0.7957747E-01  0.3432787E+00
         13   -1    0    0    0    0  0.00000000000E+00  0.00000000000E+00  0.14999999963E+04  0.15000000000E+04  0.10566000000E+00 0. -1.
        994   -1    0    0    0    0 -0.00000000000E+00 -0.00000000000E+00  0.11368683772E-12  0.17120000000E+03  0.17120000000E+03 0.  0.
         13    1    1    2    0    0 -0.10427421791E+01  0.21929985544E+02  0.13127077404E+03  0.13309409776E+03  0.10566000000E+00 0. -1.
        994    1    1    2    0    0 -0.31230782419E+01 -0.35127934508E+01  0.20673294333E+01  0.17127698966E+03  0.17120000000E+03 0.  0.
        998    1    1    2    0    0  0.41658204211E+01 -0.18417192094E+02  0.13666618928E+04  0.13668289126E+04  0.10000000000E+02 0. -1.
</event>
<event>
 5    1  0.1338054E-008  0.3781579E+03  0.7957747E-01  0.3459219E+00
         13   -1    0    0    0    0  0.00000000000E+00  0.00000000000E+00  0.14999999963E+04  0.15000000000E+04  0.10566000000E+00 0. -1.
        994   -1    0    0    0    0 -0.00000000000E+00 -0.00000000000E+00  0.11368683772E-12  0.17120000000E+03  0.17120000000E+03 0.  0.
         13    1    1    2    0    0 -0.60398756487E+01  0.27494414375E+02  0.75940706184E+02  0.80990276820E+02  0.10566000000E+00 0. -1.
        994    1    1    2    0    0  0.28846745387E+01 -0.18761491420E+02  0.62787421937E+01  0.17236350400E+03  0.17120000000E+03 0.  0.
        998    1    1    2    0    0  0.31552011100E+01 -0.87329229549E+01  0.14177805479E+04  0.14178462192E+04  0.10000000000E+02 0. -1.
</event>
<event>
 5    1  0.1338054E-008  0.3703816E+03  0.7957747E-01  0.3494139E+00
         13   -1    0    0    0    0  0.00000000000E+00  0.00000000000E+00  0.14999999963E+04  0.15000000000E+04  0.10566000000E+00 0.  1.
        994   -1    0    0    0    0 -0.00000000000E+00 -0.00000000000E+00  0.11368683772E-12  0.17120000000E+03  0.17120000000E+03 0.  0.
         13    1    1    2    0    0  0.35374971622E+02  0.11848834572E+02  0.73230809670E+02  0.82186045938E+02  0.10566000000E+00 0.  1.
        994    1    1    2    0    0 -0.25596341976E+02 -0.14482118545E+01  0.11342707304E+02  0.17348016327E+03  0.17120000000E+03 0.  0.
        998    1    1    2    0    0 -0.97786296461E+01 -0.10400622718E+02  0.14154264793E+04  0.14155337908E+04  0.10000000000E+02 0.  1.
</event>
<event>
 5    1  0.1338054E-008  0.3844731E+03  0.7957747E-01  0.3431910E+00
         13   -1    0    0    0    0  0.00000000000E+00  0.00000000000E+00  0.14999999963E+04  0.15000000000E+04  0.10566000000E+00 0. -1.
        994   -1    0    0    0    0 -0.00000000000E+00 -0.00000000000E+00  0.11368683772E-12  0.17120000000E+03  0.17120000000E+03 0.  0.
         13    1    1    2    0    0 -0.17289461710E+02  0.13020389326E+01  0.79823013139E+02  0.81684425579E+02  0.10566000000E+00 0. -1.
        994    1    1    2    0    0  0.10021299464E+02 -0.52025435433E+00  0.22237700380E+01  0.17150825712E+03  0.17120000000E+03 0.  0.
        998    1    1    2    0    0  0.72681622459E+01 -0.78178457823E+00  0.14179532131E+04  0.14180073173E+04  0.10000000000E+02 0. -1.
</event>
<event>
 5    1  0.1338054E-008  0.3703053E+03  0.7957747E-01  0.3494489E+00
         13   -1    0    0    0    0  0.00000000000E+00  0.00000000000E+00  0.14999999963E+04  0.15000000000E+04  0.10566000000E+00 0.  1.
        994   -1    0    0    0    0 -0.00000000000E+00 -0.00000000000E+00  0.11368683772E-12  0.17120000000E+03  0.17120000000E+03 0.  0.
         13    1    1    2    0    0 -0.11170380248E+02 -0.13376955173E+02  0.12716671845E+02  0.21574179740E+02  0.10566000000E+00 0.  1.
        994    1    1    2    0    0 -0.99727681147E-01  0.13751773731E+02  0.97630888054E+01  0.17202871600E+03  0.17120000000E+03 0.  0.
        998    1    1    2    0    0  0.11270107929E+02 -0.37481855797E+00  0.14775202356E+04  0.14775971043E+04  0.10000000000E+02 0.  1.
</event>
<event>
 5    1  0.1338054E-008  0.3005987E+03  0.7957747E-01  0.3891754E+00
         13   -1    0    0    0    0  0.00000000000E+00  0.00000000000E+00  0.14999999963E+04  0.15000000000E+04  0.10566000000E+00 0.  1.
        994   -1    0    0    0    0 -0.00000000000E+00 -0.00000000000E+00  0.11368683772E-12  0.17120000000E+03  0.17120000000E+03 0.  0.
         13    1    1    2    0    0 -0.14922389562E+03 -0.47068114416E+01  0.82434517566E+03  0.83775587428E+03  0.10566000000E+00 0.  1.
        994    1    1    2    0    0  0.62976963905E+02 -0.45601659490E+02  0.43003774777E+02  0.19288435389E+03  0.17120000000E+03 0.  0.
        998    1    1    2    0    0  0.86246931715E+02  0.50308470931E+02  0.63265104584E+03  0.64055977183E+03  0.10000000000E+02 0.  1.
</event>
<event>
 5    1  0.1338054E-008  0.3848983E+03  0.7957747E-01  0.3430104E+00
         13   -1    0    0    0    0  0.00000000000E+00  0.00000000000E+00  0.14999999963E+04  0.15000000000E+04  0.10566000000E+00 0.  1.
        994   -1    0    0    0    0 -0.00000000000E+00 -0.00000000000E+00  0.11368683772E-12  0.17120000000E+03  0.17120000000E+03 0.  0.
         13    1    1    2    0    0  0.13059672245E+01 -0.16683884349E+02  0.90075258205E+02  0.91616706185E+02  0.10566000000E+00 0.  1.
        994    1    1    2    0    0 -0.54483581261E+01 -0.42813665608E-01  0.17782919398E+01  0.17129590994E+03  0.17120000000E+03 0.  0.
        998    1    1    2    0    0  0.41423909017E+01  0.16726698015E+02  0.14081464461E+04  0.14082873839E+04  0.10000000000E+02 0.  1.
</event>
<event>
 5    1  0.1338054E-008  0.3883253E+03  0.7957747E-01  0.3415690E+00
         13   -1    0    0    0    0  0.00000000000E+00  0.00000000000E+00  0.14999999963E+04  0.15000000000E+04  0.10566000000E+00 0.  1.
        994   -1    0    0    0    0 -0.00000000000E+00 -0.00000000000E+00  0.11368683772E-12  0.17120000000E+03  0.17120000000E+03 0.  0.
         13    1    1    2    0    0  0.70196663547E+02  0.88843921648E+02  0.25736343477E+03  0.28117034464E+03  0.10566000000E+00 0.  1.
        994    1    1    2    0    0 -0.68025551948E+02 -0.77686476910E+02  0.62038281115E+02  0.20933430855E+03  0.17120000000E+03 0.  0.
        998    1    1    2    0    0 -0.21711115985E+01 -0.11157444738E+02  0.11805982804E+04  0.11806953468E+04  0.10000000000E+02 0.  1.
</event>
<event>
 5    1  0.1338054E-008  0.3710856E+03  0.7957747E-01  0.3490917E+00
         13   -1    0    0    0    0  0.00000000000E+00  0.00000000000E+00  0.14999999963E+04  0.15000000000E+04  0.10566000000E+00 0.  1.
        994   -1    0    0    0    0 -0.00000000000E+00 -0.00000000000E+00  0.11368683772E-12  0.17120000000E+03  0.17120000000E+03 0.  0.
         13    1    1    2    0    0 -0.47514710789E+02  0.14075415646E+02  0.13686409499E+03  0.14555946114E+03  0.10566000000E+00 0.  1.
        994    1    1    2    0    0  0.33014867836E+02 -0.15628842308E+01  0.12475178844E+02  0.17480701986E+03  0.17120000000E+03 0.  0.
        998    1    1    2    0    0  0.14499842953E+02 -0.12512531415E+02  0.13506607224E+04  0.13508335190E+04  0.10000000000E+02 0.  1.
</event>
<event>
 5    1  0.1338054E-008  0.3744999E+03  0.7957747E-01  0.3475462E+00
         13   -1    0    0    0    0  0.00000000000E+00  0.00000000000E+00  0.14999999963E+04  0.15000000000E+04  0.10566000000E+00 0. -1.
        994   -1    0    0    0    0 -0.00000000000E+00 -0.00000000000E+00  0.11368683772E-12  0.17120000000E+03  0.17120000000E+03 0.  0.
         13    1    1    2    0    0  0.64512929354E+02  0.98738889734E+02  0.59353962839E+03  0.60514509668E+03  0.10566000000E+00 0. -1.
        994    1    1    2    0    0 -0.55545463991E+02 -0.10290264659E+03  0.55024150226E+02  0.21450256491E+03  0.17120000000E+03 0.  0.
        998    1    1    2    0    0 -0.89674653626E+01  0.41637568574E+01  0.85143621766E+03  0.85155233841E+03  0.10000000000E+02 0. -1.
</event>
<event>
 5    1  0.1338054E-008  0.3844044E+03  0.7957747E-01  0.3432202E+00
         13   -1    0    0    0    0  0.00000000000E+00  0.00000000000E+00  0.14999999963E+04  0.15000000000E+04  0.10566000000E+00 0. -1.
        994   -1    0    0    0    0 -0.00000000000E+00 -0.00000000000E+00  0.11368683772E-12  0.17120000000E+03  0.17120000000E+03 0.  0.
         13    1    1    2    0    0 -0.23397232005E+01  0.15102130630E+02  0.57371501799E+02  0.59372123399E+02  0.10566000000E+00 0. -1.
        994    1    1    2    0    0  0.98678095559E+00 -0.19365498207E+02  0.31660084787E+01  0.17232370663E+03  0.17120000000E+03 0.  0.
        998    1    1    2    0    0  0.13529422450E+01  0.42633675773E+01  0.14394624860E+04  0.14395041700E+04  0.10000000000E+02 0. -1.
</event>
<event>
 5    1  0.1338054E-008  0.3849182E+03  0.7957747E-01  0.3430019E+00
         13   -1    0    0    0    0  0.00000000000E+00  0.00000000000E+00  0.14999999963E+04  0.15000000000E+04  0.10566000000E+00 0.  1.
        994   -1    0    0    0    0 -0.00000000000E+00 -0.00000000000E+00  0.11368683772E-12  0.17120000000E+03  0.17120000000E+03 0.  0.
         13    1    1    2    0    0 -0.12713520873E+02 -0.80612967828E+01  0.66929400327E+02  0.68601559100E+02  0.10566000000E+00 0.  1.
        994    1    1    2    0    0  0.18794072416E+02 -0.68100494274E+01  0.29863181281E+01  0.17238895564E+03  0.17120000000E+03 0.  0.
        998    1    1    2    0    0 -0.60805515433E+01  0.14871346210E+02  0.14300842778E+04  0.14302094853E+04  0.10000000000E+02 0.  1.
</event>
<event>
 5    1  0.1338054E-008  0.3856426E+03  0.7957747E-01  0.3426951E+00
         13   -1    0    0    0    0  0.00000000000E+00  0.00000000000E+00  0.14999999963E+04  0.15000000000E+04  0.10566000000E+00 0. -1.
        994   -1    0    0    0    0 -0.00000000000E+00 -0.00000000000E+00  0.11368683772E-12  0.17120000000E+03  0.17120000000E+03 0.  0.
         13    1    1    2    0    0  0.94041437473E+01  0.41102799259E+01  0.42295823240E+02  0.43523328782E+02  0.10566000000E+00 0. -1.
        994    1    1    2    0    0  0.61837101150E+01 -0.11613443930E+02  0.18797508336E+01  0.17171512401E+03  0.17120000000E+03 0.  0.
        998    1    1    2    0    0 -0.15587853862E+02  0.75031640044E+01  0.14558244222E+04  0.14559615472E+04  0.10000000000E+02 0. -1.
</event>
<event>
 5    1  0.1338054E-008  0.3738697E+03  0.7957747E-01  0.3478293E+00
         13   -1    0    0    0    0  0.00000000000E+00  0.00000000000E+00  0.14999999963E+04  0.15000000000E+04  0.10566000000E+00 0. -1.
        994   -1    0    0    0    0 -0.00000000000E+00 -0.00000000000E+00  0.11368683772E-12  0.17120000000E+03  0.17120000000E+03 0.  0.
         13    1    1    2    0    0  0.14479212560E+02 -0.29802429427E+02  0.71693530722E+02  0.78979781638E+02  0.10566000000E+00 0. -1.
        994    1    1    2    0    0 -0.27367828822E+02  0.15463689009E+02  0.10639422326E+02  0.17438681441E+03  0.17120000000E+03 0.  0.
        998    1    1    2    0    0  0.12888616262E+02  0.14338740418E+02  0.14176670432E+04  0.14178334040E+04  0.10000000000E+02 0. -1.
</event>
<event>
 5    1  0.1338054E-008  0.3821099E+03  0.7957747E-01  0.3442023E+00
         13   -1    0    0    0    0  0.00000000000E+00  0.00000000000E+00  0.14999999963E+04  0.15000000000E+04  0.10566000000E+00 0. -1.
        994   -1    0    0    0    0 -0.00000000000E+00 -0.00000000000E+00  0.11368683772E-12  0.17120000000E+03  0.17120000000E+03 0.  0.
         13    1    1    2    0    0 -0.36290832731E+02 -0.10865183195E+02  0.21381069741E+03  0.21714074293E+03  0.10566000000E+00 0. -1.
        994    1    1    2    0    0  0.27226998750E+02  0.20066706295E+02  0.68789368297E+01  0.17464461610E+03  0.17120000000E+03 0.  0.
        998    1    1    2    0    0  0.90638339815E+01 -0.92015231005E+01  0.12793103620E+04  0.12794146410E+04  0.10000000000E+02 0. -1.
</event>
<event>
 5    1  0.1338054E-008  0.3785153E+03  0.7957747E-01  0.3457649E+00
         13   -1    0    0    0    0  0.00000000000E+00  0.00000000000E+00  0.14999999963E+04  0.15000000000E+04  0.10566000000E+00 0. -1.
        994   -1    0    0    0    0 -0.00000000000E+00 -0.00000000000E+00  0.11368683772E-12  0.17120000000E+03  0.17120000000E+03 0.  0.
         13    1    1    2    0    0  0.35364106394E+02  0.27913421609E+02  0.18536797137E+03  0.19076444926E+03  0.10566000000E+00 0. -1.
        994    1    1    2    0    0 -0.36794137960E+02 -0.21959499795E+02  0.11077305521E+02  0.17682809425E+03  0.17120000000E+03 0.  0.
        998    1    1    2    0    0  0.14300315660E+01 -0.59539218141E+01  0.13035547194E+04  0.13036074565E+04  0.10000000000E+02 0.  0.
</event>
<event>
 5    1  0.1338054E-008  0.3818895E+03  0.7957747E-01  0.3442972E+00
         13   -1    0    0    0    0  0.00000000000E+00  0.00000000000E+00  0.14999999963E+04  0.15000000000E+04  0.10566000000E+00 0.  1.
        994   -1    0    0    0    0 -0.00000000000E+00 -0.00000000000E+00  0.11368683772E-12  0.17120000000E+03  0.17120000000E+03 0.  0.
         13    1    1    2    0    0 -0.11972457993E+02  0.97941875532E+01  0.35648742019E+02  0.38860131649E+02  0.10566000000E+00 0.  1.
        994    1    1    2    0    0  0.87618516604E+01 -0.15432345692E+02  0.42293051151E+01  0.17216926079E+03  0.17120000000E+03 0.  0.
        998    1    1    2    0    0  0.32106063327E+01  0.56381581392E+01  0.14601219491E+04  0.14601706076E+04  0.10000000000E+02 0.  1.
</event>
<event>
 5    1  0.1338054E-008  0.3794557E+03  0.7957747E-01  0.3453532E+00
         13   -1    0    0    0    0  0.00000000000E+00  0.00000000000E+00  0.14999999963E+04  0.15000000000E+04  0.10566000000E+00 0. -1.
        994   -1    0    0    0    0 -0.00000000000E+00 -0.00000000000E+00  0.11368683772E-12  0.17120000000E+03  0.17120000000E+03 0.  0.
         13    1    1    2    0    0  0.27517693995E+02  0.90902804143E+01  0.95923593013E+02  0.10020580593E+03  0.10566000000E+00 0. -1.
        994    1    1    2    0    0 -0.15120726698E+02  0.41930408473E+01  0.52331670649E+01  0.17199722092E+03  0.17120000000E+03 0.  0.
        998    1    1    2    0    0 -0.12396967298E+02 -0.13283321262E+02  0.13988432362E+04  0.13989969732E+04  0.10000000000E+02 0. -1.
</event>
<event>
 5    1  0.1338054E-008  0.3851345E+03  0.7957747E-01  0.3429102E+00
         13   -1    0    0    0    0  0.00000000000E+00  0.00000000000E+00  0.14999999963E+04  0.15000000000E+04  0.10566000000E+00 0.  1.
        994   -1    0    0    0    0 -0.00000000000E+00 -0.00000000000E+00  0.11368683772E-12  0.17120000000E+03  0.17120000000E+03 0.  0.
         13    1    1    2    0    0 -0.61667108437E+01  0.13630454679E+02  0.72451528118E+02  0.73980083185E+02  0.10566000000E+00 0.  1.
        994    1    1    2    0    0  0.36666826699E+01 -0.74229873131E+01  0.17887315110E+01  0.17140940716E+03  0.17120000000E+03 0.  0.
        998    1    1    2    0    0  0.25000281738E+01 -0.62074673659E+01  0.14257597366E+04  0.14258105097E+04  0.10000000000E+02 0.  1.
</event>
<event>
 5    1  0.1338054E-008  0.3822596E+03  0.7957747E-01  0.3441378E+00
         13   -1    0    0    0    0  0.00000000000E+00  0.00000000000E+00  0.14999999963E+04  0.15000000000E+04  0.10566000000E+00 0. -1.
        994   -1    0    0    0    0 -0.00000000000E+00 -0.00000000000E+00  0.11368683772E-12  0.17120000000E+03  0.17120000000E+03 0.  0.
         13    1    1    2    0    0 -0.23460142673E+02 -0.19902432520E+02  0.14960715775E+03  0.15273767685E+03  0.10566000000E+00 0. -1.
        994    1    1    2    0    0  0.20307073989E+02  0.14477960697E+02  0.50634095560E+01  0.17308109867E+03  0.17120000000E+03 0.  0.
        998    1    1    2    0    0  0.31530686841E+01  0.54244718224E+01  0.13453294290E+04  0.13453812245E+04  0.10000000000E+02 0.  0.
</event>
<event>
 5    1  0.1338054E-008  0.3748241E+03  0.7957747E-01  0.3474010E+00
         13   -1    0    0    0    0  0.00000000000E+00  0.00000000000E+00  0.14999999963E+04  0.15000000000E+04  0.10566000000E+00 0. -1.
        994   -1    0    0    0    0 -0.00000000000E+00 -0.00000000000E+00  0.11368683772E-12  0.17120000000E+03  0.17120000000E+03 0.  0.
         13    1    1    2    0    0  0.19251367659E+02 -0.42087117751E+02  0.17112025477E+03  0.17726842188E+03  0.10566000000E+00 0. -1.
        994    1    1    2    0    0 -0.11388042852E+02  0.62832346613E+01  0.73446630721E+01  0.17185037281E+03  0.17120000000E+03 0.  0.
        998    1    1    2    0    0 -0.78633248070E+01  0.35803883090E+02  0.13215350784E+04  0.13220812053E+04  0.10000000000E+02 0. -1.
</event>
<event>
 5    1  0.1338054E-008  0.3835511E+03  0.7957747E-01  0.3435840E+00
         13   -1    0    0    0    0  0.00000000000E+00  0.00000000000E+00  0.14999999963E+04  0.15000000000E+04  0.10566000000E+00 0.  1.
        994   -1    0    0    0    0 -0.00000000000E+00 -0.00000000000E+00  0.11368683772E-12  0.17120000000E+03  0.17120000000E+03 0.  0.
         13    1    1    2    0    0 -0.85343175466E+01  0.17959878121E+02  0.80551605212E+02  0.82969657492E+02  0.10566000000E+00 0.  1.
        994    1    1    2    0    0  0.98363592398E+01 -0.16064350252E+02  0.35244330045E+01  0.17226920485E+03  0.17120000000E+03 0.  0.
        998    1    1    2    0    0 -0.13020416931E+01 -0.18955278688E+01  0.14159239581E+04  0.14159611377E+04  0.10000000000E+02 0.  1.
</event>
<event>
 5    1  0.1338054E-008  0.3955155E+03  0.7957747E-01  0.3386263E+00
         13   -1    0    0    0    0  0.00000000000E+00  0.00000000000E+00  0.14999999963E+04  0.15000000000E+04  0.10566000000E+00 0. -1.
        994   -1    0    0    0    0 -0.00000000000E+00 -0.00000000000E+00  0.11368683772E-12  0.17120000000E+03  0.17120000000E+03 0.  0.
         13    1    1    2    0    0  0.13380988387E+03 -0.14020864304E+01  0.29291076974E+03  0.32203071447E+03  0.10566000000E+00 0. -1.
        994    1    1    2    0    0 -0.12024807273E+03  0.63373444847E+01  0.83348352535E+02  0.22529125327E+03  0.17120000000E+03 0.  0.
        998    1    1    2    0    0 -0.13561811146E+02 -0.49352580543E+01  0.11237408740E+04  0.11238780323E+04  0.10000000000E+02 0. -1.
</event>
<event>
 5    1  0.1338054E-008  0.3713679E+03  0.7957747E-01  0.3489628E+00
         13   -1    0    0    0    0  0.00000000000E+00  0.00000000000E+00  0.14999999963E+04  0.15000000000E+04  0.10566000000E+00 0.  1.
        994   -1    0    0    0    0 -0.00000000000E+00 -0.00000000000E+00  0.11368683772E-12  0.17120000000E+03  0.17120000000E+03 0.  0.
         13    1    1    2    0    0  0.62954415156E+02 -0.18282146458E+02  0.21342944195E+03  0.22327031402E+03  0.10566000000E+00 0.  1.
        994    1    1    2    0    0 -0.63484048748E+02  0.17072381986E+02  0.23578639692E+02  0.18489749301E+03  0.17120000000E+03 0.  0.
        998    1    1    2    0    0  0.52963359215E+00  0.12097644721E+01  0.12629919146E+04  0.12630321930E+04  0.10000000000E+02 0.  1.
</event>
<event>
 5    1  0.1338054E-008  0.3684713E+03  0.7957747E-01  0.3502946E+00
         13   -1    0    0    0    0  0.00000000000E+00  0.00000000000E+00  0.14999999963E+04  0.15000000000E+04  0.10566000000E+00 0. -1.
        994   -1    0    0    0    0 -0.00000000000E+00 -0.00000000000E+00  0.11368683772E-12  0.17120000000E+03  0.17120000000E+03 0.  0.
         13    1    1    2    0    0 -0.30719907454E+02  0.60856119886E+02  0.27656505203E+03  0.28484279736E+03  0.10566000000E+00 0. -1.
        994    1    1    2    0    0  0.72920324574E+01 -0.43780678765E+01  0.10384343278E+02  0.17172540814E+03  0.17120000000E+03 0.  0.
        998    1    1    2    0    0  0.23427874997E+02 -0.56478052009E+02  0.12130506010E+04  0.12146317945E+04  0.10000000000E+02 0. -1.
</event>
<event>
 5    1  0.1338054E-008  0.3708649E+03  0.7957747E-01  0.3491925E+00
         13   -1    0    0    0    0  0.00000000000E+00  0.00000000000E+00  0.14999999963E+04  0.15000000000E+04  0.10566000000E+00 0.  1.
        994   -1    0    0    0    0 -0.00000000000E+00 -0.00000000000E+00  0.11368683772E-12  0.17120000000E+03  0.17120000000E+03 0.  0.
         13    1    1    2    0    0  0.74592211691E+02  0.61423625316E+01  0.26476642035E+03  0.27514177286E+03  0.10566000000E+00 0.  1.
        994    1    1    2    0    0 -0.73058029608E+02  0.11609619125E+02  0.27925960902E+02  0.18857772466E+03  0.17120000000E+03 0.  0.
        998    1    1    2    0    0 -0.15341820837E+01 -0.17751981656E+02  0.12073076150E+04  0.12074805025E+04  0.10000000000E+02 0.  1.
</event>
<event>
 5    1  0.1338054E-008  0.3850455E+03  0.7957747E-01  0.3429479E+00
         13   -1    0    0    0    0  0.00000000000E+00  0.00000000000E+00  0.14999999963E+04  0.15000000000E+04  0.10566000000E+00 0.  1.
        994   -1    0    0    0    0 -0.00000000000E+00 -0.00000000000E+00  0.11368683772E-12  0.17120000000E+03  0.17120000000E+03 0.  0.
         13    1    1    2    0    0 -0.90994121977E+01  0.10867148082E+02  0.60521416469E+02  0.62159047814E+02  0.10566000000E+00 0.  1.
        994    1    1    2    0    0  0.58024201544E+01 -0.14302742758E+02  0.23913170208E+01  0.17191100874E+03  0.17120000000E+03 0.  0.
        998    1    1    2    0    0  0.32969920434E+01  0.34355946756E+01  0.14370872628E+04  0.14371299434E+04  0.10000000000E+02 0.  1.
</event>
<event>
 5    1  0.1338054E-008  0.3701241E+03  0.7957747E-01  0.3495321E+00
         13   -1    0    0    0    0  0.00000000000E+00  0.00000000000E+00  0.14999999963E+04  0.15000000000E+04  0.10566000000E+00 0.  1.
        994   -1    0    0    0    0 -0.00000000000E+00 -0.00000000000E+00  0.11368683772E-12  0.17120000000E+03  0.17120000000E+03 0.  0.
         13    1    1    2    0    0 -0.90846200260E+02 -0.58223972377E+01  0.46233680100E+03  0.47121360458E+03  0.10566000000E+00 0.  1.
        994    1    1    2    0    0  0.28609674123E+02 -0.14741296612E+02  0.14635860468E+02  0.17481266456E+03  0.17120000000E+03 0.  0.
        998    1    1    2    0    0  0.62236526137E+02  0.20563693850E+02  0.10230273348E+04  0.10251737309E+04  0.10000000000E+02 0.  1.
</event>
<event>
 5    1  0.1338054E-008  0.3835347E+03  0.7957747E-01  0.3435911E+00
         13   -1    0    0    0    0  0.00000000000E+00  0.00000000000E+00  0.14999999963E+04  0.15000000000E+04  0.10566000000E+00 0. -1.
        994   -1    0    0    0    0 -0.00000000000E+00 -0.00000000000E+00  0.11368683772E-12  0.17120000000E+03  0.17120000000E+03 0.  0.
         13    1    1    2    0    0  0.21921461954E+02  0.57674082041E+01  0.12438419081E+03  0.12643279471E+03  0.10566000000E+00 0. -1.
        994    1    1    2    0    0  0.41164107049E+01  0.11628978535E+01  0.24198508069E+01  0.17127052533E+03  0.17120000000E+03 0.  0.
        998    1    1    2    0    0 -0.26037872659E+02 -0.69303060576E+01  0.13731959547E+04  0.13734966800E+04  0.10000000000E+02 0. -1.
</event>
<event>
 5    1  0.1338054E-008  0.3842710E+03  0.7957747E-01  0.3432770E+00
         13   -1    0    0    0    0  0.00000000000E+00  0.00000000000E+00  0.14999999963E+04  0.15000000000E+04  0.10566000000E+00 0.  1.
        994   -1    0    0    0    0 -0.00000000000E+00 -0.00000000000E+00  0.11368683772E-12  0.17120000000E+03  0.17120000000E+03 0.  0.
         13    1    1    2    0    0  0.32424882291E+00 -0.16743694913E+02  0.73116069322E+02  0.75009514155E+02  0.10566000000E+00 0.  1.
        994    1    1    2    0    0  0.12562748016E+01  0.39627004036E+01  0.20494567711E+01  0.17126272652E+03  0.17120000000E+03 0.  0.
        998    1    1    2    0    0 -0.15805236245E+01  0.12780994509E+02  0.14248344702E+04  0.14249277593E+04  0.10000000000E+02 0.  1.
</event>
<event>
 5    1  0.1338054E-008  0.3859103E+03  0.7957747E-01  0.3425820E+00
         13   -1    0    0    0    0  0.00000000000E+00  0.00000000000E+00  0.14999999963E+04  0.15000000000E+04  0.10566000000E+00 0.  1.
        994   -1    0    0    0    0 -0.00000000000E+00 -0.00000000000E+00  0.11368683772E-12  0.17120000000E+03  0.17120000000E+03 0.  0.
         13    1    1    2    0    0 -0.12179430426E+02  0.33952172201E+01  0.70597611374E+02  0.71720986617E+02  0.10566000000E+00 0.  1.
        994    1    1    2    0    0  0.35584985143E+01 -0.40531981101E+01  0.12742344210E+01  0.17128968153E+03  0.17120000000E+03 0.  0.
        998    1    1    2    0    0  0.86209319114E+01  0.65798089003E+00  0.14281281505E+04  0.14281893318E+04  0.10000000000E+02 0.  1.
</event>
<event>
 5    1  0.1338054E-008  0.3786378E+03  0.7957747E-01  0.3457112E+00
         13   -1    0    0    0    0  0.00000000000E+00  0.00000000000E+00  0.14999999963E+04  0.15000000000E+04  0.10566000000E+00 0.  1.
        994   -1    0    0    0    0 -0.00000000000E+00 -0.00000000000E+00  0.11368683772E-12  0.17120000000E+03  0.17120000000E+03 0.  0.
         13    1    1    2    0    0  0.17191237194E+01 -0.18848873150E+02  0.35560153964E+02  0.40283633394E+02  0.10566000000E+00 0.  1.
        994    1    1    2    0    0  0.30623488544E+01  0.10022119970E+02  0.51912476844E+01  0.17159897996E+03  0.17120000000E+03 0.  0.
        998    1    1    2    0    0 -0.47814725738E+01  0.88267531802E+01  0.14592485946E+04  0.14593173867E+04  0.10000000000E+02 0.  1.
</event>
<event>
 5    1  0.1338054E-008  0.3857558E+03  0.7957747E-01  0.3426473E+00
         13   -1    0    0    0    0  0.00000000000E+00  0.00000000000E+00  0.14999999963E+04  0.15000000000E+04  0.10566000000E+00 0.  1.
        994   -1    0    0    0    0 -0.00000000000E+00 -0.00000000000E+00  0.11368683772E-12  0.17120000000E+03  0.17120000000E+03 0.  0.
         13    1    1    2    0    0  0.70753053526E+01 -0.98124779262E+01  0.55504847793E+02  0.56807956850E+02  0.10566000000E+00 0.  1.
        994    1    1    2    0    0 -0.11712714878E+02  0.12242702794E+02  0.21976775326E+01  0.17205040322E+03  0.17120000000E+03 0.  0.
        998    1    1    2    0    0  0.46374095255E+01 -0.24302248676E+01  0.14422974710E+04  0.14423416399E+04  0.10000000000E+02 0.  1.
</event>
<event>
 5    1  0.1338054E-008  0.3205898E+03  0.7957747E-01  0.3759175E+00
         13   -1    0    0    0    0  0.00000000000E+00  0.00000000000E+00  0.14999999963E+04  0.15000000000E+04  0.10566000000E+00 0.  1.
        994   -1    0    0    0    0 -0.00000000000E+00 -0.00000000000E+00  0.11368683772E-12  0.17120000000E+03  0.17120000000E+03 0.  0.
         13    1    1    2    0    0  0.14050275155E+03 -0.80381688302E+02  0.88696545031E+03  0.90161519520E+03  0.10566000000E+00 0.  1.
        994    1    1    2    0    0 -0.12869008119E+03  0.29684951260E+02  0.74871557686E+02  0.22881766426E+03  0.17120000000E+03 0.  0.
        998    1    1    2    0    0 -0.11812670360E+02  0.50696737042E+02  0.53816298828E+03  0.54076714054E+03  0.10000000000E+02 0.  1.
</event>
<event>
 5    1  0.1338054E-008  0.3699360E+03  0.7957747E-01  0.3496185E+00
         13   -1    0    0    0    0  0.00000000000E+00  0.00000000000E+00  0.14999999963E+04  0.15000000000E+04  0.10566000000E+00 0. -1.
        994   -1    0    0    0    0 -0.00000000000E+00 -0.00000000000E+00  0.11368683772E-12  0.17120000000E+03  0.17120000000E+03 0.  0.
         13    1    1    2    0    0 -0.13896627425E+02 -0.92869806329E+01  0.10989258131E+02  0.20003480232E+02  0.10566000000E+00 0. -1.
        994    1    1    2    0    0  0.14554467557E+01  0.12155822898E+02  0.98210524484E+01  0.17191793224E+03  0.17120000000E+03 0.  0.
        998    1    1    2    0    0  0.12441180669E+02 -0.28688422649E+01  0.14791896857E+04  0.14792785875E+04  0.10000000000E+02 0. -1.
</event>
<event>
 5    1  0.1338054E-008  0.3847778E+03  0.7957747E-01  0.3430615E+00
         13   -1    0    0    0    0  0.00000000000E+00  0.00000000000E+00  0.14999999963E+04  0.15000000000E+04  0.10566000000E+00 0. -1.
        994   -1    0    0    0    0 -0.00000000000E+00 -0.00000000000E+00  0.11368683772E-12  0.17120000000E+03  0.17120000000E+03 0.  0.
         13    1    1    2    0    0  0.20270729679E+01 -0.15028210811E+02  0.64102013418E+02  0.65871355181E+02  0.10566000000E+00 0. -1.
        994    1    1    2    0    0 -0.14555919724E+01  0.14611704820E+02  0.24504442691E+01  0.17184605129E+03  0.17120000000E+03 0.  0.
        998    1    1    2    0    0 -0.57148099553E+00  0.41650599194E+00  0.14334475386E+04  0.14334825935E+04  0.10000000000E+02 0.  0.
</event>
<event>
 5    1  0.1338054E-008  0.3840725E+03  0.7957747E-01  0.3433615E+00
         13   -1    0    0    0    0  0.00000000000E+00  0.00000000000E+00  0.14999999963E+04  0.15000000000E+04  0.10566000000E+00 0. -1.
        994   -1    0    0    0    0 -0.00000000000E+00 -0.00000000000E+00  0.11368683772E-12  0.17120000000E+03  0.17120000000E+03 0.  0.
         13    1    1    2    0    0 -0.46996085195E+01  0.14028026688E+02  0.55064246597E+02  0.57017140146E+02  0.10566000000E+00 0. -1.
        994    1    1    2    0    0  0.56463081433E+01  0.34102863073E+01  0.22348459751E+01  0.17134160436E+03  0.17120000000E+03 0.  0.
        998    1    1    2    0    0 -0.94669962382E+00 -0.17438312996E+02  0.14427009037E+04  0.14428412555E+04  0.10000000000E+02 0. -1.
</event>
<event>
 5    1  0.1503215E-008  0.3847692E+03  0.7957747E-01  0.3430652E+00
         13   -1    0    0    0    0  0.00000000000E+00  0.00000000000E+00  0.14999999963E+04  0.15000000000E+04  0.10566000000E+00 0. -1.
        994   -1    0    0    0    0 -0.00000000000E+00 -0.00000000000E+00  0.11368683772E-12  0.17120000000E+03  0.17120000000E+03 0.  0.
         13    1    1    2    0    0 -0.67262519894E+01  0.10671465753E+02  0.44091424323E+02  0.45860522348E+02  0.10566000000E+00 0. -1.
        994    1    1    2    0    0  0.68861036447E+01 -0.12508151667E+02  0.24160407914E+01  0.17181137778E+03  0.17120000000E+03 0.  0.
        998    1    1    2    0    0 -0.15985165521E+00  0.18366859141E+01  0.14534925312E+04  0.14535280999E+04  0.10000000000E+02 0. -1.
</event>
<event>
 5    1  0.1338054E-008  0.3838494E+03  0.7957747E-01  0.3434567E+00
         13   -1    0    0    0    0  0.00000000000E+00  0.00000000000E+00  0.14999999963E+04  0.15000000000E+04  0.10566000000E+00 0. -1.
        994   -1    0    0    0    0 -0.00000000000E+00 -0.00000000000E+00  0.11368683772E-12  0.17120000000E+03  0.17120000000E+03 0.  0.
         13    1    1    2    0    0 -0.48825037125E+00 -0.17433709807E+02  0.75242292668E+02  0.77237208624E+02  0.10566000000E+00 0. -1.
        994    1    1    2    0    0 -0.43916280297E+01 -0.40271200164E+01  0.23196779894E+01  0.17131936551E+03  0.17120000000E+03 0.  0.
        998    1    1    2    0    0  0.48798784010E+01  0.21460829823E+02  0.14224380256E+04  0.14226434259E+04  0.10000000000E+02 0. -1.
</event>
<event>
 5    1  0.1338054E-008  0.3847132E+03  0.7957747E-01  0.3430889E+00
         13   -1    0    0    0    0  0.00000000000E+00  0.00000000000E+00  0.14999999963E+04  0.15000000000E+04  0.10566000000E+00 0. -1.
        994   -1    0    0    0    0 -0.00000000000E+00 -0.00000000000E+00  0.11368683772E-12  0.17120000000E+03  0.17120000000E+03 0.  0.
         13    1    1    2    0    0 -0.18808442734E+02  0.94895729300E+01  0.11874132000E+03  0.12059569541E+03  0.10566000000E+00 0. -1.
        994    1    1    2    0    0  0.18092108311E+02 -0.74106008390E+01  0.30318169057E+01  0.17233941308E+03  0.17120000000E+03 0.  0.
        998    1    1    2    0    0  0.71633442309E+00 -0.20789720910E+01  0.13782268594E+04  0.13782648915E+04  0.10000000000E+02 0. -1.
</event>
<event>
 5    1  0.1338054E-008  0.3980676E+03  0.7957747E-01  0.3376074E+00
         13   -1    0    0    0    0  0.00000000000E+00  0.00000000000E+00  0.14999999963E+04  0.15000000000E+04  0.10566000000E+00 0.  1.
        994   -1    0    0    0    0 -0.00000000000E+00 -0.00000000000E+00  0.11368683772E-12  0.17120000000E+03  0.17120000000E+03 0.  0.
         13    1    1    2    0    0  0.34455876422E+02 -0.93766902657E+02  0.21317260701E+03  0.23541879916E+03  0.10566000000E+00 0.  1.
        994    1    1    2    0    0 -0.11060201810E+01  0.22090111156E+02  0.28531659022E+02  0.17496483035E+03  0.17120000000E+03 0.  0.
        998    1    1    2    0    0 -0.33349856241E+02  0.71676791501E+02  0.12582957302E+04  0.12608163705E+04  0.10000000000E+02 0. -1.
</event>
<event>
 5    1  0.1338054E-008  0.3817428E+03  0.7957747E-01  0.3443605E+00
         13   -1    0    0    0    0  0.00000000000E+00  0.00000000000E+00  0.14999999963E+04  0.15000000000E+04  0.10566000000E+00 0.  1.
        994   -1    0    0    0    0 -0.00000000000E+00 -0.00000000000E+00  0.11368683772E-12  0.17120000000E+03  0.17120000000E+03 0.  0.
         13    1    1    2    0    0  0.18604944323E+02  0.15701122943E+02  0.97125473933E+02  0.10013010569E+03  0.10566000000E+00 0.  1.
        994    1    1    2    0    0 -0.82874197565E+01  0.72220454515E+01  0.36576950464E+01  0.17159154408E+03  0.17120000000E+03 0.  0.
        998    1    1    2    0    0 -0.10317524566E+02 -0.22923168394E+02  0.13992168273E+04  0.13994783502E+04  0.10000000000E+02 0.  1.
</event>
<event>
 5    1  0.1338054E-008  0.3689368E+03  0.7957747E-01  0.3500791E+00
         13   -1    0    0    0    0  0.00000000000E+00  0.00000000000E+00  0.14999999963E+04  0.15000000000E+04  0.10566000000E+00 0.  1.
        994   -1    0    0    0    0 -0.00000000000E+00 -0.00000000000E+00  0.11368683772E-12  0.17120000000E+03  0.17120000000E+03 0.  0.
         13    1    1    2    0    0  0.77194841288E+02 -0.19543680276E+03  0.85018589457E+03  0.87576860750E+03  0.10566000000E+00 0.  1.
        994    1    1    2    0    0 -0.74199215681E+02  0.18771137112E+03  0.16809787013E+03  0.31354013523E+03  0.17120000000E+03 0.  0.
        998    1    1    2    0    0 -0.29956256068E+01  0.77254316398E+01  0.48171623158E+03  0.48189125727E+03  0.10000000000E+02 0.  0.
</event>
<event>
 5    1  0.1338054E-008  0.3848220E+03  0.7957747E-01  0.3430428E+00
         13   -1    0    0    0    0  0.00000000000E+00  0.00000000000E+00  0.14999999963E+04  0.15000000000E+04  0.10566000000E+00 0.  1.
        994   -1    0    0    0    0 -0.00000000000E+00 -0.00000000000E+00  0.11368683772E-12  0.17120000000E+03  0.17120000000E+03 0.  0.
         13    1    1    2    0    0  0.12298623553E+02 -0.56868789549E+01  0.54483679871E+02  0.56143381354E+02  0.10566000000E+00 0.  1.
        994    1    1    2    0    0 -0.40954885941E+01  0.33933576872E+01  0.18116336054E+01  0.17129217705E+03  0.17120000000E+03 0.  0.
        998    1    1    2    0    0 -0.82031349594E+01  0.22935212677E+01  0.14437046828E+04  0.14437644416E+04  0.10000000000E+02 0.  1.
</event>
<event>
 5    1  0.1338054E-008  0.3856010E+03  0.7957747E-01  0.3427127E+00
         13   -1    0    0    0    0  0.00000000000E+00  0.00000000000E+00  0.14999999963E+04  0.15000000000E+04  0.10566000000E+00 0. -1.
        994   -1    0    0    0    0 -0.00000000000E+00 -0.00000000000E+00  0.11368683772E-12  0.17120000000E+03  0.17120000000E+03 0.  0.
         13    1    1    2    0    0  0.15064451657E+02  0.48419597348E+01  0.91870373834E+02  0.93223167883E+02  0.10566000000E+00 0. -1.
        994    1    1    2    0    0 -0.13169514972E+02 -0.37918181601E+01  0.19487174572E+01  0.17175870141E+03  0.17120000000E+03 0.  0.
        998    1    1    2    0    0 -0.18949366854E+01 -0.10501415746E+01  0.14061809050E+04  0.14062181307E+04  0.10000000000E+02 0.  0.
</event>
<event>
 5    1  0.1338054E-008  0.3849340E+03  0.7957747E-01  0.3429952E+00
         13   -1    0    0    0    0  0.00000000000E+00  0.00000000000E+00  0.14999999963E+04  0.15000000000E+04  0.10566000000E+00 0. -1.
        994   -1    0    0    0    0 -0.00000000000E+00 -0.00000000000E+00  0.11368683772E-12  0.17120000000E+03  0.17120000000E+03 0.  0.
         13    1    1    2    0    0  0.43635278091E+01 -0.12910029166E+02  0.55996338395E+02  0.57630810386E+02  0.10566000000E+00 0. -1.
        994    1    1    2    0    0 -0.43084456908E+01  0.74128586613E+01  0.19047655297E+01  0.17142514783E+03  0.17120000000E+03 0.  0.
        998    1    1    2    0    0 -0.55082118307E-01  0.54971705047E+01  0.14420988924E+04  0.14421440418E+04  0.10000000000E+02 0. -1.
</event>
<event>
 5    1  0.1338054E-008  0.3773046E+03  0.7957747E-01  0.3462980E+00
         13   -1    0    0    0    0  0.00000000000E+00  0.00000000000E+00  0.14999999963E+04  0.15000000000E+04  0.10566000000E+00 0. -1.
        994   -1    0    0    0    0 -0.00000000000E+00 -0.00000000000E+00  0.11368683772E-12  0.17120000000E+03  0.17120000000E+03 0.  0.
         13    1    1    2    0    0 -0.51083541528E+01 -0.49382629046E+02  0.72659200985E+02  0.88000624915E+02  0.10566000000E+00 0. -1.
        994    1    1    2    0    0 -0.10370826491E+00  0.56792325848E+02  0.26519623275E+02  0.18231321798E+03  0.17120000000E+03 0.  0.
        998    1    1    2    0    0  0.52120624177E+01 -0.74096968022E+01  0.14008211720E+04  0.14008861571E+04  0.10000000000E+02 0. -1.
</event>
<event>
 5    1  0.1338054E-008  0.3782218E+03  0.7957747E-01  0.3458938E+00
         13   -1    0    0    0    0  0.00000000000E+00  0.00000000000E+00  0.14999999963E+04  0.15000000000E+04  0.10566000000E+00 0. -1.
        994   -1    0    0    0    0 -0.00000000000E+00 -0.00000000000E+00  0.11368683772E-12  0.17120000000E+03  0.17120000000E+03 0.  0.
         13    1    1    2    0    0 -0.52170034083E+02 -0.43524120357E+01  0.30147407071E+03  0.30598575526E+03  0.10566000000E+00 0. -1.
        994    1    1    2    0    0  0.16628820961E+02  0.14001792628E+02  0.66241635689E+01  0.17270172966E+03  0.17120000000E+03 0.  0.
        998    1    1    2    0    0  0.35541213122E+02 -0.96493805923E+01  0.11919017620E+04  0.11925125151E+04  0.10000000000E+02 0. -1.
</event>
<event>
 5    1  0.1338054E-008  0.3828169E+03  0.7957747E-01  0.3438984E+00
         13   -1    0    0    0    0  0.00000000000E+00  0.00000000000E+00  0.14999999963E+04  0.15000000000E+04  0.10566000000E+00 0.  1.
        994   -1    0    0    0    0 -0.00000000000E+00 -0.00000000000E+00  0.11368683772E-12  0.17120000000E+03  0.17120000000E+03 0.  0.
         13    1    1    2    0    0  0.16288287822E+02 -0.22546483103E+02  0.16680152217E+03  0.16910473436E+03  0.10566000000E+00 0.  1.
        994    1    1    2    0    0  0.28372235309E+01 -0.17516516521E+01  0.27547034813E+01  0.17125462479E+03  0.17120000000E+03 0.  0.
        998    1    1    2    0    0 -0.19125511353E+02  0.24298134755E+02  0.13304437706E+04  0.13308406408E+04  0.10000000000E+02 0.  1.
</event>
<event>
 5    1  0.1338054E-008  0.3832387E+03  0.7957747E-01  0.3437177E+00
         13   -1    0    0    0    0  0.00000000000E+00  0.00000000000E+00  0.14999999963E+04  0.15000000000E+04  0.10566000000E+00 0. -1.
        994   -1    0    0    0    0 -0.00000000000E+00 -0.00000000000E+00  0.11368683772E-12  0.17120000000E+03  0.17120000000E+03 0.  0.
         13    1    1    2    0    0 -0.15749528185E+02 -0.24675607140E+02  0.16074443868E+03  0.16338824608E+03  0.10566000000E+00 0. -1.
        994    1    1    2    0    0  0.11233552392E+02  0.21751977831E+02  0.44919861258E+01  0.17299988202E+03  0.17120000000E+03 0.  0.
        998    1    1    2    0    0  0.45159757925E+01  0.29236293094E+01  0.13347635715E+04  0.13348118719E+04  0.10000000000E+02 0. -1.
</event>
<event>
 5    1  0.1338054E-008  0.3816958E+03  0.7957747E-01  0.3443808E+00
         13   -1    0    0    0    0  0.00000000000E+00  0.00000000000E+00  0.14999999963E+04  0.15000000000E+04  0.10566000000E+00 0. -1.
        994   -1    0    0    0    0 -0.00000000000E+00 -0.00000000000E+00  0.11368683772E-12  0.17120000000E+03  0.17120000000E+03 0.  0.
         13    1    1    2    0    0 -0.36583445550E+01 -0.20385844121E+02  0.63046853242E+02  0.66361758515E+02  0.10566000000E+00 0. -1.
        994    1    1    2    0    0  0.56589553818E+01  0.16830305781E+02  0.43283664341E+01  0.17217275547E+03  0.17120000000E+03 0.  0.
        998    1    1    2    0    0 -0.20006108269E+01  0.35555383396E+01  0.14326247766E+04  0.14326654860E+04  0.10000000000E+02 0. -1.
</event>
<event>
 5    1  0.1338054E-008  0.3834274E+03  0.7957747E-01  0.3436369E+00
         13   -1    0    0    0    0  0.00000000000E+00  0.00000000000E+00  0.14999999963E+04  0.15000000000E+04  0.10566000000E+00 0.  1.
        994   -1    0    0    0    0 -0.00000000000E+00 -0.00000000000E+00  0.11368683772E-12  0.17120000000E+03  0.17120000000E+03 0.  0.
         13    1    1    2    0    0  0.56504811273E+01 -0.12223392681E+02  0.35750163706E+02  0.38202416607E+02  0.10566000000E+00 0.  1.
        994    1    1    2    0    0 -0.93546084920E+01  0.14035289721E+02  0.33538714314E+01  0.17206157767E+03  0.17120000000E+03 0.  0.
        998    1    1    2    0    0  0.37041273648E+01 -0.18118970395E+01  0.14608959611E+04  0.14609360057E+04  0.10000000000E+02 0.  1.
</event>
<event>
 5    1  0.1338054E-008  0.3734218E+03  0.7957747E-01  0.3480311E+00
         13   -1    0    0    0    0  0.00000000000E+00  0.00000000000E+00  0.14999999963E+04  0.15000000000E+04  0.10566000000E+00 0.  1.
        994   -1    0    0    0    0 -0.00000000000E+00 -0.00000000000E+00  0.11368683772E-12  0.17120000000E+03  0.17120000000E+03 0.  0.
         13    1    1    2    0    0 -0.46574632480E+02 -0.22417405632E+02  0.18615362375E+03  0.19319658192E+03  0.10566000000E+00 0.  1.
        994    1    1    2    0    0  0.13173487017E+02  0.18896484592E+02  0.93068264775E+01  0.17299327995E+03  0.17120000000E+03 0.  0.
        998    1    1    2    0    0  0.33401145463E+02  0.35209210395E+01  0.13045395461E+04  0.13050101381E+04  0.10000000000E+02 0.  1.
</event>
<event>
 5    1  0.1338054E-008  0.3709495E+03  0.7957747E-01  0.3491538E+00
         13   -1    0    0    0    0  0.00000000000E+00  0.00000000000E+00  0.14999999963E+04  0.15000000000E+04  0.10566000000E+00 0.  1.
        994   -1    0    0    0    0 -0.00000000000E+00 -0.00000000000E+00  0.11368683772E-12  0.17120000000E+03  0.17120000000E+03 0.  0.
         13    1    1    2    0    0 -0.21793641343E+02 -0.32113825590E+02  0.91450192102E+02  0.99344901211E+02  0.10566000000E+00 0.  1.
        994    1    1    2    0    0  0.21697668480E+02 -0.18044079684E+02  0.11523097091E+02  0.17389249379E+03  0.17120000000E+03 0.  0.
        998    1    1    2    0    0  0.95972863367E-01  0.50157905275E+02  0.13970267071E+04  0.13979626050E+04  0.10000000000E+02 0.  1.
</event>
<event>
 5    1  0.1338054E-008  0.3842667E+03  0.7957747E-01  0.3432788E+00
         13   -1    0    0    0    0  0.00000000000E+00  0.00000000000E+00  0.14999999963E+04  0.15000000000E+04  0.10566000000E+00 0.  1.
        994   -1    0    0    0    0 -0.00000000000E+00 -0.00000000000E+00  0.11368683772E-12  0.17120000000E+03  0.17120000000E+03 0.  0.
         13    1    1    2    0    0 -0.41534561309E+01  0.15401422089E+02  0.63175429214E+02  0.65158276686E+02  0.10566000000E+00 0.  1.
        994    1    1    2    0    0 -0.46322328790E+01 -0.12930054704E+02  0.26167389059E+01  0.17176999511E+03  0.17120000000E+03 0.  0.
        998    1    1    2    0    0  0.87856890099E+01 -0.24713673848E+01  0.14342078282E+04  0.14342717282E+04  0.10000000000E+02 0.  1.
</event>
<event>
 5    1  0.1338054E-008  0.3811176E+03  0.7957747E-01  0.3446307E+00
         13   -1    0    0    0    0  0.00000000000E+00  0.00000000000E+00  0.14999999963E+04  0.15000000000E+04  0.10566000000E+00 0. -1.
        994   -1    0    0    0    0 -0.00000000000E+00 -0.00000000000E+00  0.11368683772E-12  0.17120000000E+03  0.17120000000E+03 0.  0.
         13    1    1    2    0    0  0.16565657092E+02 -0.28953923653E+02  0.16869544122E+03  0.17196195434E+03  0.10566000000E+00 0. -1.
        994    1    1    2    0    0 -0.10165269176E+01  0.82608276720E+01  0.38008256384E+01  0.17144433755E+03  0.17120000000E+03 0.  0.
        998    1    1    2    0    0 -0.15549130174E+02  0.20693095981E+02  0.13275037294E+04  0.13277937081E+04  0.10000000000E+02 0. -1.
</event>
<event>
 5    1  0.1338054E-008  0.3826795E+03  0.7957747E-01  0.3439574E+00
         13   -1    0    0    0    0  0.00000000000E+00  0.00000000000E+00  0.14999999963E+04  0.15000000000E+04  0.10566000000E+00 0. -1.
        994   -1    0    0    0    0 -0.00000000000E+00 -0.00000000000E+00  0.11368683772E-12  0.17120000000E+03  0.17120000000E+03 0.  0.
         13    1    1    2    0    0  0.11332315015E+02  0.82369440391E+00  0.22218451142E+02  0.24955371591E+02  0.10566000000E+00 0. -1.
        994    1    1    2    0    0 -0.67683148564E+01  0.25047017315E+01  0.29592328955E+01  0.17137759677E+03  0.17120000000E+03 0.  0.
        998    1    1    2    0    0 -0.45640001587E+01 -0.33283961354E+01  0.14748223122E+04  0.14748670316E+04  0.10000000000E+02 0. -1.
</event>
<event>
 5    1  0.1338054E-008  0.3816526E+03  0.7957747E-01  0.3443994E+00
         13   -1    0    0    0    0  0.00000000000E+00  0.00000000000E+00  0.14999999963E+04  0.15000000000E+04  0.10566000000E+00 0.  1.
        994   -1    0    0    0    0 -0.00000000000E+00 -0.00000000000E+00  0.11368683772E-12  0.17120000000E+03  0.17120000000E+03 0.  0.
         13    1    1    2    0    0  0.12036132318E+02  0.10390014556E+02  0.36040335339E+02  0.39392103511E+02  0.10566000000E+00 0.  1.
        994    1    1    2    0    0 -0.82114803037E+01 -0.19138391226E+02  0.47445291168E+01  0.17252726447E+03  0.17120000000E+03 0.  0.
        998    1    1    2    0    0 -0.38246520140E+01  0.87483766707E+01  0.14592151318E+04  0.14592806320E+04  0.10000000000E+02 0.  1.
</event>
<event>
 5    1  0.1338054E-008  0.3827021E+03  0.7957747E-01  0.3439477E+00
         13   -1    0    0    0    0  0.00000000000E+00  0.00000000000E+00  0.14999999963E+04  0.15000000000E+04  0.10566000000E+00 0. -1.
        994   -1    0    0    0    0 -0.00000000000E+00 -0.00000000000E+00  0.11368683772E-12  0.17120000000E+03  0.17120000000E+03 0.  0.
         13    1    1    2    0    0 -0.16935001195E+02  0.20862108912E+02  0.11911207512E+03  0.12210536211E+03  0.10566000000E+00 0. -1.
        994    1    1    2    0    0  0.20134286220E+02 -0.20490477652E+02  0.55144316626E+01  0.17368102404E+03  0.17120000000E+03 0.  0.
        998    1    1    2    0    0 -0.31992850244E+01 -0.37163125991E+00  0.13753734895E+04  0.13754136138E+04  0.10000000000E+02 0. -1.
</event>
<event>
 5    1  0.1338054E-008  0.3788221E+03  0.7957747E-01  0.3456303E+00
         13   -1    0    0    0    0  0.00000000000E+00  0.00000000000E+00  0.14999999963E+04  0.15000000000E+04  0.10566000000E+00 0. -1.
        994   -1    0    0    0    0 -0.00000000000E+00 -0.00000000000E+00  0.11368683772E-12  0.17120000000E+03  0.17120000000E+03 0.  0.
         13    1    1    2    0    0  0.17682520733E+02 -0.41574989965E+02  0.19687007714E+03  0.20198759805E+03  0.10566000000E+00 0. -1.
        994    1    1    2    0    0 -0.23121432391E+02  0.32060287374E+02  0.99904381176E+01  0.17598781639E+03  0.17120000000E+03 0.  0.
        998    1    1    2    0    0  0.54389116579E+01  0.95147025913E+01  0.12931394810E+04  0.12932245856E+04  0.10000000000E+02 0. -1.
</event>
<event>
 5    1  0.1338054E-008  0.3853906E+03  0.7957747E-01  0.3428018E+00
         13   -1    0    0    0    0  0.00000000000E+00  0.00000000000E+00  0.14999999963E+04  0.15000000000E+04  0.10566000000E+00 0. -1.
        994   -1    0    0    0    0 -0.00000000000E+00 -0.00000000000E+00  0.11368683772E-12  0.17120000000E+03  0.17120000000E+03 0.  0.
         13    1    1    2    0    0 -0.58618872324E+01 -0.15877652141E+02  0.88939892205E+02  0.90536054414E+02  0.10566000000E+00 0. -1.
        994    1    1    2    0    0  0.16537137418E+02  0.21990020882E+02  0.39267963113E+01  0.17344133781E+03  0.17120000000E+03 0.  0.
        998    1    1    2    0    0 -0.10675250185E+02 -0.61123687404E+01  0.14071333078E+04  0.14072226078E+04  0.10000000000E+02 0. -1.
</event>
<event>
 5    1  0.1338054E-008  0.3792781E+03  0.7957747E-01  0.3454308E+00
         13   -1    0    0    0    0  0.00000000000E+00  0.00000000000E+00  0.14999999963E+04  0.15000000000E+04  0.10566000000E+00 0.  1.
        994   -1    0    0    0    0 -0.00000000000E+00 -0.00000000000E+00  0.11368683772E-12  0.17120000000E+03  0.17120000000E+03 0.  0.
         13    1    1    2    0    0 -0.11749725517E+02  0.17197670140E+02  0.44785869737E+02  0.49392319242E+02  0.10566000000E+00 0.  1.
        994    1    1    2    0    0  0.15403167830E+02 -0.19178483507E+02  0.65281994281E+01  0.17308127916E+03  0.17120000000E+03 0.  0.
        998    1    1    2    0    0 -0.36534423130E+01  0.19808133665E+01  0.14486859271E+04  0.14487264016E+04  0.10000000000E+02 0.  1.
</event>
<event>
 5    1  0.1338054E-008  0.3790763E+03  0.7957747E-01  0.3455190E+00
         13   -1    0    0    0    0  0.00000000000E+00  0.00000000000E+00  0.14999999963E+04  0.15000000000E+04  0.10566000000E+00 0.  1.
        994   -1    0    0    0    0 -0.00000000000E+00 -0.00000000000E+00  0.11368683772E-12  0.17120000000E+03  0.17120000000E+03 0.  0.
         13    1    1    2    0    0 -0.47841800032E+02  0.10744425136E+01  0.23095831190E+03  0.23586382778E+03  0.10566000000E+00 0.  1.
        994    1    1    2    0    0  0.36829614786E+02  0.90172564410E+01  0.94361936250E+01  0.17560242934E+03  0.17120000000E+03 0.  0.
        998    1    1    2    0    0  0.11012185246E+02 -0.10091698955E+02  0.12596054908E+04  0.12597337429E+04  0.10000000000E+02 0.  0.
</event>
<event>
 5    1  0.1338054E-008  0.3812679E+03  0.7957747E-01  0.3445656E+00
         13   -1    0    0    0    0  0.00000000000E+00  0.00000000000E+00  0.14999999963E+04  0.15000000000E+04  0.10566000000E+00 0. -1.
        994   -1    0    0    0    0 -0.00000000000E+00 -0.00000000000E+00  0.11368683772E-12  0.17120000000E+03  0.17120000000E+03 0.  0.
         13    1    1    2    0    0  0.36572066699E+02  0.21209756304E+01  0.19767493906E+03  0.20104081003E+03  0.10566000000E+00 0. -1.
        994    1    1    2    0    0 -0.16552381103E+02 -0.59614507535E+01  0.45255617804E+01  0.17216109004E+03  0.17120000000E+03 0.  0.
        998    1    1    2    0    0 -0.20019685597E+02  0.38404751231E+01  0.12977994954E+04  0.12979980999E+04  0.10000000000E+02 0. -1.
</event>
<event>
 5    1  0.1338054E-008  0.2930485E+03  0.7957747E-01  0.3946931E+00
         13   -1    0    0    0    0  0.00000000000E+00  0.00000000000E+00  0.14999999963E+04  0.15000000000E+04  0.10566000000E+00 0. -1.
        994   -1    0    0    0    0 -0.00000000000E+00 -0.00000000000E+00  0.11368683772E-12  0.17120000000E+03  0.17120000000E+03 0.  0.
         13    1    1    2    0    0 -0.16577942075E+03  0.90614237549E+02  0.61409529647E+03  0.64250042857E+03  0.10566000000E+00 0. -1.
        994    1    1    2    0    0  0.14271855919E+03 -0.83085901721E+02  0.12758201156E+03  0.26992307029E+03  0.17120000000E+03 0.  0.
        998    1    1    2    0    0  0.23060861560E+02 -0.75283358283E+01  0.75832268825E+03  0.75877650114E+03  0.10000000000E+02 0. -1.
</event>
<event>
 5    1  0.1338054E-008  0.3857171E+03  0.7957747E-01  0.3426636E+00
         13   -1    0    0    0    0  0.00000000000E+00  0.00000000000E+00  0.14999999963E+04  0.15000000000E+04  0.10566000000E+00 0. -1.
        994   -1    0    0    0    0 -0.00000000000E+00 -0.00000000000E+00  0.11368683772E-12  0.17120000000E+03  0.17120000000E+03 0.  0.
         13    1    1    2    0    0 -0.83010296523E+01 -0.83044423836E+01  0.54421639225E+02  0.55674022996E+02  0.10566000000E+00 0. -1.
        994    1    1    2    0    0  0.30363192568E+01  0.84043214158E+01  0.15365443453E+01  0.17143993940E+03  0.17120000000E+03 0.  0.
        998    1    1    2    0    0  0.52647103955E+01 -0.99879032181E-01  0.14440418127E+04  0.14440860376E+04  0.10000000000E+02 0. -1.
</event>
<event>
 5    1  0.1338054E-008  0.3831008E+03  0.7957747E-01  0.3437767E+00
         13   -1    0    0    0    0  0.00000000000E+00  0.00000000000E+00  0.14999999963E+04  0.15000000000E+04  0.10566000000E+00 0. -1.
        994   -1    0    0    0    0 -0.00000000000E+00 -0.00000000000E+00  0.11368683772E-12  0.17120000000E+03  0.17120000000E+03 0.  0.
         13    1    1    2    0    0  0.22707286703E+02  0.67433773836E+01  0.12273509427E+03  0.12500003415E+03  0.10566000000E+00 0. -1.
        994    1    1    2    0    0  0.11071870938E+01  0.64951608215E+01  0.27196542493E+01  0.17134832797E+03  0.17120000000E+03 0.  0.
        998    1    1    2    0    0 -0.23814473797E+02 -0.13238538205E+02  0.13745452478E+04  0.13748516379E+04  0.10000000000E+02 0. -1.
</event>
<event>
 5    1  0.1338054E-008  0.3776176E+03  0.7957747E-01  0.3461598E+00
         13   -1    0    0    0    0  0.00000000000E+00  0.00000000000E+00  0.14999999963E+04  0.15000000000E+04  0.10566000000E+00 0.  1.
        994   -1    0    0    0    0 -0.00000000000E+00 -0.00000000000E+00  0.11368683772E-12  0.17120000000E+03  0.17120000000E+03 0.  0.
         13    1    1    2    0    0  0.13858802363E+02  0.46607138650E+01  0.18630470868E+02  0.23683206402E+02  0.10566000000E+00 0.  1.
        994    1    1    2    0    0  0.68550662649E+01  0.11082619902E+02  0.59130205228E+01  0.17179703201E+03  0.17120000000E+03 0.  0.
        998    1    1    2    0    0 -0.20713868628E+02 -0.15743333767E+02  0.14754565049E+04  0.14757197616E+04  0.10000000000E+02 0.  1.
</event>
<event>
 5    1  0.1338054E-008  0.3688510E+03  0.7957747E-01  0.3501188E+00
         13   -1    0    0    0    0  0.00000000000E+00  0.00000000000E+00  0.14999999963E+04  0.15000000000E+04  0.10566000000E+00 0.  1.
        994   -1    0    0    0    0 -0.00000000000E+00 -0.00000000000E+00  0.11368683772E-12  0.17120000000E+03  0.17120000000E+03 0.  0.
         13    1    1    2    0    0 -0.49209391579E+02 -0.11479848376E+02  0.13967618297E+03  0.14853551223E+03  0.10566000000E+00 0.  1.
        994    1    1    2    0    0  0.99064647697E+01 -0.12010165958E+02  0.10712738691E+02  0.17223990508E+03  0.17120000000E+03 0.  0.
        998    1    1    2    0    0  0.39302926809E+02  0.23490014335E+02  0.13496110746E+04  0.13504245827E+04  0.10000000000E+02 0.  1.
</event>
<event>
 5    1  0.1338054E-008  0.3862395E+03  0.7957747E-01  0.3424432E+00
         13   -1    0    0    0    0  0.00000000000E+00  0.00000000000E+00  0.14999999963E+04  0.15000000000E+04  0.10566000000E+00 0. -1.
        994   -1    0    0    0    0 -0.00000000000E+00 -0.00000000000E+00  0.11368683772E-12  0.17120000000E+03  0.17120000000E+03 0.  0.
         13    1    1    2    0    0  0.28489898094E+02  0.95325826598E+02  0.22630192616E+03  0.24720691830E+03  0.10566000000E+00 0. -1.
        994    1    1    2    0    0 -0.55424608775E+02 -0.66740944613E+02  0.48280856864E+02  0.19790584146E+03  0.17120000000E+03 0.  0.
        998    1    1    2    0    0  0.26934710681E+02 -0.28584881986E+02  0.12254172133E+04  0.12260872402E+04  0.10000000000E+02 0. -1.
</event>
<event>
 5    1  0.1338054E-008  0.3778700E+03  0.7957747E-01  0.3460486E+00
         13   -1    0    0    0    0  0.00000000000E+00  0.00000000000E+00  0.14999999963E+04  0.15000000000E+04  0.10566000000E+00 0.  1.
        994   -1    0    0    0    0 -0.00000000000E+00 -0.00000000000E+00  0.11368683772E-12  0.17120000000E+03  0.17120000000E+03 0.  0.
         13    1    1    2    0    0  0.12961167956E+02 -0.25352005384E+02  0.78515294769E+02  0.83518732799E+02  0.10566000000E+00 0.  1.
        994    1    1    2    0    0 -0.58973767200E+01  0.77565287073E+01  0.55319533916E+01  0.17156627086E+03  0.17120000000E+03 0.  0.
        998    1    1    2    0    0 -0.70637912360E+01  0.17595476677E+02  0.14159527481E+04  0.14161149963E+04  0.10000000000E+02 0.  1.
</event>
<event>
 5    1  0.1338054E-008  0.3850577E+03  0.7957747E-01  0.3429427E+00
         13   -1    0    0    0    0  0.00000000000E+00  0.00000000000E+00  0.14999999963E+04  0.15000000000E+04  0.10566000000E+00 0. -1.
        994   -1    0    0    0    0 -0.00000000000E+00 -0.00000000000E+00  0.11368683772E-12  0.17120000000E+03  0.17120000000E+03 0.  0.
         13    1    1    2    0    0 -0.25244956257E+01 -0.10444845593E+02  0.36311904379E+02  0.37868634004E+02  0.10566000000E+00 0. -1.
        994    1    1    2    0    0 -0.27207277900E+01  0.57865845182E+01  0.17359223520E+01  0.17132816565E+03  0.17120000000E+03 0.  0.
        998    1    1    2    0    0  0.52452234158E+01  0.46582610752E+01  0.14619521695E+04  0.14620032003E+04  0.10000000000E+02 0. -1.
</event>
<event>
 5    1  0.1338054E-008  0.3822633E+03  0.7957747E-01  0.3441363E+00
         13   -1    0    0    0    0  0.00000000000E+00  0.00000000000E+00  0.14999999963E+04  0.15000000000E+04  0.10566000000E+00 0.  1.
        994   -1    0    0    0    0 -0.00000000000E+00 -0.00000000000E+00  0.11368683772E-12  0.17120000000E+03  0.17120000000E+03 0.  0.
         13    1    1    2    0    0  0.13692557135E+02  0.55717641967E+01  0.37270594135E+02  0.40095374152E+02  0.10566000000E+00 0.  1.
        994    1    1    2    0    0  0.44774765298E+01 -0.18669276087E+01  0.30731012186E+01  0.17129628474E+03  0.17120000000E+03 0.  0.
        998    1    1    2    0    0 -0.18170033665E+02 -0.37048365880E+01  0.14596563009E+04  0.14598083411E+04  0.10000000000E+02 0.  1.
</event>
<event>
 5    1  0.1338054E-008  0.3789626E+03  0.7957747E-01  0.3455688E+00
         13   -1    0    0    0    0  0.00000000000E+00  0.00000000000E+00  0.14999999963E+04  0.15000000000E+04  0.10566000000E+00 0. -1.
        994   -1    0    0    0    0 -0.00000000000E+00 -0.00000000000E+00  0.11368683772E-12  0.17120000000E+03  0.17120000000E+03 0.  0.
         13    1    1    2    0    0 -0.17087228897E+02 -0.31707490482E+02  0.14052641654E+03  0.14506902927E+03  0.10566000000E+00 0. -1.
        994    1    1    2    0    0  0.10551606523E+02  0.14486263225E+02  0.57358807160E+01  0.17223103248E+03  0.17120000000E+03 0.  0.
        998    1    1    2    0    0  0.65356223739E+01  0.17221227257E+02  0.13537376990E+04  0.13538999382E+04  0.10000000000E+02 0. -1.
</event>
<event>
 5    1  0.1338054E-008  0.3805227E+03  0.7957747E-01  0.3448886E+00
         13   -1    0    0    0    0  0.00000000000E+00  0.00000000000E+00  0.14999999963E+04  0.15000000000E+04  0.10566000000E+00 0. -1.
        994   -1    0    0    0    0 -0.00000000000E+00 -0.00000000000E+00  0.11368683772E-12  0.17120000000E+03  0.17120000000E+03 0.  0.
         13    1    1    2    0    0 -0.10248414045E+02 -0.13750846003E+01  0.12147216910E+02  0.15952645260E+02  0.10566000000E+00 0. -1.
        994    1    1    2    0    0  0.79098279490E+01 -0.62438621491E+01  0.42084902643E+01  0.17154796001E+03  0.17120000000E+03 0.  0.
        998    1    1    2    0    0  0.23385860964E+01  0.76189467494E+01  0.14836442891E+04  0.14836993947E+04  0.10000000000E+02 0. -1.
</event>
<event>
 5    1  0.1338054E-008  0.3838021E+03  0.7957747E-01  0.3434769E+00
         13   -1    0    0    0    0  0.00000000000E+00  0.00000000000E+00  0.14999999963E+04  0.15000000000E+04  0.10566000000E+00 0. -1.
        994   -1    0    0    0    0 -0.00000000000E+00 -0.00000000000E+00  0.11368683772E-12  0.17120000000E+03  0.17120000000E+03 0.  0.
         13    1    1    2    0    0 -0.16534232625E+02 -0.12762564355E+01  0.59391922696E+02  0.61663776437E+02  0.10566000000E+00 0. -1.
        994    1    1    2    0    0  0.17100776345E+02 -0.35061498405E+01  0.32327443088E+01  0.17211804169E+03  0.17120000000E+03 0.  0.
        998    1    1    2    0    0 -0.56654372038E+00  0.47824062760E+01  0.14373753293E+04  0.14374181819E+04  0.10000000000E+02 0. -1.
</event>
<event>
 5    1  0.1338054E-008  0.3706802E+03  0.7957747E-01  0.3492770E+00
         13   -1    0    0    0    0  0.00000000000E+00  0.00000000000E+00  0.14999999963E+04  0.15000000000E+04  0.10566000000E+00 0.  1.
        994   -1    0    0    0    0 -0.00000000000E+00 -0.00000000000E+00  0.11368683772E-12  0.17120000000E+03  0.17120000000E+03 0.  0.
         13    1    1    2    0    0  0.54468415226E+02  0.39030300747E+02  0.21455679585E+03  0.22477722848E+03  0.10566000000E+00 0.  1.
        994    1    1    2    0    0 -0.56239810601E+02 -0.35674038390E+02  0.24373849355E+02  0.18530806200E+03  0.17120000000E+03 0.  0.
        998    1    1    2    0    0  0.17713953746E+01 -0.33562623569E+01  0.12610693511E+04  0.12611147095E+04  0.10000000000E+02 0.  1.
</event>
<event>
 5    1  0.1338054E-008  0.3841973E+03  0.7957747E-01  0.3433084E+00
         13   -1    0    0    0    0  0.00000000000E+00  0.00000000000E+00  0.14999999963E+04  0.15000000000E+04  0.10566000000E+00 0. -1.
        994   -1    0    0    0    0 -0.00000000000E+00 -0.00000000000E+00  0.11368683772E-12  0.17120000000E+03  0.17120000000E+03 0.  0.
         13    1    1    2    0    0 -0.16136703678E+02 -0.15413891990E+02  0.10847093733E+03  0.11074265972E+03  0.10566000000E+00 0. -1.
        994    1    1    2    0    0  0.22240949771E+02  0.20869247039E+02  0.51022316325E+01  0.17397027932E+03  0.17120000000E+03 0.  0.
        998    1    1    2    0    0 -0.61042460928E+01 -0.54553550486E+01  0.13864268273E+04  0.13864870610E+04  0.10000000000E+02 0. -1.
</event>
<event>
 5    1  0.1338054E-008  0.3752612E+03  0.7957747E-01  0.3472055E+00
         13   -1    0    0    0    0  0.00000000000E+00  0.00000000000E+00  0.14999999963E+04  0.15000000000E+04  0.10566000000E+00 0.  1.
        994   -1    0    0    0    0 -0.00000000000E+00 -0.00000000000E+00  0.11368683772E-12  0.17120000000E+03  0.17120000000E+03 0.  0.
         13    1    1    2    0    0 -0.80841348304E+01 -0.68974255268E+01  0.55678130884E+01  0.11997475629E+02  0.10566000000E+00 0.  1.
        994    1    1    2    0    0  0.88869744872E+01  0.68615629377E+01  0.69728975024E+01  0.17170940761E+03  0.17120000000E+03 0.  0.
        998    1    1    2    0    0 -0.80283965682E+00  0.35862589037E-01  0.14874592857E+04  0.14874931168E+04  0.10000000000E+02 0.  1.
</event>
<event>
 5    1  0.1338054E-008  0.3796006E+03  0.7957747E-01  0.3452900E+00
         13   -1    0    0    0    0  0.00000000000E+00  0.00000000000E+00  0.14999999963E+04  0.15000000000E+04  0.10566000000E+00 0.  1.
        994   -1    0    0    0    0 -0.00000000000E+00 -0.00000000000E+00  0.11368683772E-12  0.17120000000E+03  0.17120000000E+03 0.  0.
         13    1    1    2    0    0  0.36021820329E+02 -0.96988681471E+01  0.16400911514E+03  0.16819821817E+03  0.10566000000E+00 0.  1.
        994    1    1    2    0    0 -0.85838084777E+01  0.40140618669E+02  0.99957270640E+01  0.17633577514E+03  0.17120000000E+03 0.  0.
        998    1    1    2    0    0 -0.27438011852E+02 -0.30441750522E+02  0.13259951541E+04  0.13266660067E+04  0.10000000000E+02 0.  1.
</event>
<event>
 5    1  0.1338054E-008  0.3698610E+03  0.7957747E-01  0.3496530E+00
         13   -1    0    0    0    0  0.00000000000E+00  0.00000000000E+00  0.14999999963E+04  0.15000000000E+04  0.10566000000E+00 0.  1.
        994   -1    0    0    0    0 -0.00000000000E+00 -0.00000000000E+00  0.11368683772E-12  0.17120000000E+03  0.17120000000E+03 0.  0.
         13    1    1    2    0    0 -0.14669809383E+03  0.43232827805E+02  0.64848360936E+03  0.66627352560E+03  0.10566000000E+00 0.  1.
        994    1    1    2    0    0  0.14632715300E+03 -0.43717722084E+02  0.94943569583E+02  0.24828732617E+03  0.17120000000E+03 0.  0.
        998    1    1    2    0    0  0.37094083141E+00  0.48489427910E+00  0.75657281733E+03  0.75663914824E+03  0.10000000000E+02 0.  0.
</event>
<event>
 5    1  0.1338054E-008  0.3840092E+03  0.7957747E-01  0.3433885E+00
         13   -1    0    0    0    0  0.00000000000E+00  0.00000000000E+00  0.14999999963E+04  0.15000000000E+04  0.10566000000E+00 0.  1.
        994   -1    0    0    0    0 -0.00000000000E+00 -0.00000000000E+00  0.11368683772E-12  0.17120000000E+03  0.17120000000E+03 0.  0.
         13    1    1    2    0    0  0.15964045195E+02 -0.10104358150E+02  0.86240707471E+02  0.88286010113E+02  0.10566000000E+00 0.  1.
        994    1    1    2    0    0 -0.95660635556E+01 -0.12843132569E+01  0.24302573242E+01  0.17148908182E+03  0.17120000000E+03 0.  0.
        998    1    1    2    0    0 -0.63979816391E+01  0.11388671407E+02  0.14113290315E+04  0.14114249081E+04  0.10000000000E+02 0.  1.
</event>
<event>
 5    1  0.1338054E-008  0.3785422E+03  0.7957747E-01  0.3457531E+00
         13   -1    0    0    0    0  0.00000000000E+00  0.00000000000E+00  0.14999999963E+04  0.15000000000E+04  0.10566000000E+00 0. -1.
        994   -1    0    0    0    0 -0.00000000000E+00 -0.00000000000E+00  0.11368683772E-12  0.17120000000E+03  0.17120000000E+03 0.  0.
         13    1    1    2    0    0  0.39823359334E+02 -0.18312918984E+01  0.15481479888E+03  0.15986521415E+03  0.10566000000E+00 0. -1.
        994    1    1    2    0    0 -0.30415586200E+02  0.11926955477E+01  0.79894291528E+01  0.17406838135E+03  0.17120000000E+03 0.  0.
        998    1    1    2    0    0 -0.94077731339E+01  0.63859635068E+00  0.13371957682E+04  0.13372664045E+04  0.10000000000E+02 0. -1.
</event>
<event>
 5    1  0.1338054E-008  0.3811368E+03  0.7957747E-01  0.3446223E+00
         13   -1    0    0    0    0  0.00000000000E+00  0.00000000000E+00  0.14999999963E+04  0.15000000000E+04  0.10566000000E+00 0.  1.
        994   -1    0    0    0    0 -0.00000000000E+00 -0.00000000000E+00  0.11368683772E-12  0.17120000000E+03  0.17120000000E+03 0.  0.
         13    1    1    2    0    0 -0.12453700879E+02  0.10011204800E+02  0.34279038934E+02  0.37820398747E+02  0.10566000000E+00 0.  1.
        994    1    1    2    0    0  0.10850327642E+02 -0.68946317684E+01  0.41109682385E+01  0.17173120164E+03  0.17120000000E+03 0.  0.
        998    1    1    2    0    0  0.16033732371E+01 -0.31165730316E+01  0.14616099891E+04  0.14616483996E+04  0.10000000000E+02 0.  1.
</event>
<event>
 5    1  0.1338054E-008  0.3832363E+03  0.7957747E-01  0.3437187E+00
         13   -1    0    0    0    0  0.00000000000E+00  0.00000000000E+00  0.14999999963E+04  0.15000000000E+04  0.10566000000E+00 0.  1.
        994   -1    0    0    0    0 -0.00000000000E+00 -0.00000000000E+00  0.11368683772E-12  0.17120000000E+03  0.17120000000E+03 0.  0.
         13    1    1    2    0    0  0.25080187857E+02 -0.10551467724E+03  0.65033285285E+03  0.65931418429E+03  0.10566000000E+00 0.  1.
        994    1    1    2    0    0 -0.15095720396E+02  0.14621876727E+03  0.77602457108E+02  0.23861976034E+03  0.17120000000E+03 0.  0.
        998    1    1    2    0    0 -0.99844674602E+01 -0.40704090033E+02  0.77206468632E+03  0.77326605537E+03  0.10000000000E+02 0.  1.
</event>
<event>
 5    1  0.1338054E-008  0.3827095E+03  0.7957747E-01  0.3439445E+00
         13   -1    0    0    0    0  0.00000000000E+00  0.00000000000E+00  0.14999999963E+04  0.15000000000E+04  0.10566000000E+00 0. -1.
        994   -1    0    0    0    0 -0.00000000000E+00 -0.00000000000E+00  0.11368683772E-12  0.17120000000E+03  0.17120000000E+03 0.  0.
         13    1    1    2    0    0 -0.90177658781E+01 -0.23958414865E+02  0.11644334384E+03  0.11922411347E+03  0.10566000000E+00 0. -1.
        994    1    1    2    0    0 -0.17338449699E+01  0.18695789678E+02  0.39405442607E+01  0.17227160723E+03  0.17120000000E+03 0.  0.
        998    1    1    2    0    0  0.10751610848E+02  0.52626251867E+01  0.13796161082E+04  0.13797042793E+04  0.10000000000E+02 0. -1.
</event>
<event>
 5    1  0.2018654E-008  0.3852931E+03  0.7957747E-01  0.3428430E+00
         13   -1    0    0    0    0  0.00000000000E+00  0.00000000000E+00  0.14999999963E+04  0.15000000000E+04  0.10566000000E+00 0.  1.
        994   -1    0    0    0    0 -0.00000000000E+00 -0.00000000000E+00  0.11368683772E-12  0.17120000000E+03  0.17120000000E+03 0.  0.
         13    1    1    2    0    0 -0.11275848024E+02  0.69191714390E+01  0.57419045809E+02  0.58923489949E+02  0.10566000000E+00 0.  1.
        994    1    1    2    0    0  0.12211352155E+02 -0.58240701538E+01  0.20862807064E+01  0.17174641039E+03  0.17120000000E+03 0.  0.
        998    1    1    2    0    0 -0.93550413145E+00 -0.10951012852E+01  0.14404946698E+04  0.14405300997E+04  0.10000000000E+02 0.  1.
</event>
<event>
 5    1  0.1338054E-008  0.3804334E+03  0.7957747E-01  0.3449274E+00
         13   -1    0    0    0    0  0.00000000000E+00  0.00000000000E+00  0.14999999963E+04  0.15000000000E+04  0.10566000000E+00 0. -1.
        994   -1    0    0    0    0 -0.00000000000E+00 -0.00000000000E+00  0.11368683772E-12  0.17120000000E+03  0.17120000000E+03 0.  0.
         13    1    1    2    0    0 -0.10200101605E+02  0.26532091041E+01  0.12465483685E+02  0.16324246961E+02  0.10566000000E+00 0. -1.
        994    1    1    2    0    0  0.81023637829E+01 -0.22690800191E+01  0.41508941587E+01  0.17145689530E+03  0.17120000000E+03 0.  0.
        998    1    1    2    0    0  0.20977378226E+01 -0.38412908504E+00  0.14833836184E+04  0.14834188577E+04  0.10000000000E+02 0. -1.
</event>
<event>
 5    1  0.1338054E-008  0.3845893E+03  0.7957747E-01  0.3431416E+00
         13   -1    0    0    0    0  0.00000000000E+00  0.00000000000E+00  0.14999999963E+04  0.15000000000E+04  0.10566000000E+00 0.  1.
        994   -1    0    0    0    0 -0.00000000000E+00 -0.00000000000E+00  0.11368683772E-12  0.17120000000E+03  0.17120000000E+03 0.  0.
         13    1    1    2    0    0  0.20516890323E+01  0.10349245625E+02  0.29626584773E+02  0.31449356150E+02  0.10566000000E+00 0.  1.
        994    1    1    2    0    0 -0.30549478583E+01 -0.94240297546E+01  0.21574259469E+01  0.17149996948E+03  0.17120000000E+03 0.  0.
        998    1    1    2    0    0  0.10032588260E+01 -0.92521587032E+00  0.14682159856E+04  0.14682506744E+04  0.10000000000E+02 0.  1.
</event>
<event>
 5    1  0.1338054E-008  0.3802718E+03  0.7957747E-01  0.3449976E+00
         13   -1    0    0    0    0  0.00000000000E+00  0.00000000000E+00  0.14999999963E+04  0.15000000000E+04  0.10566000000E+00 0. -1.
        994   -1    0    0    0    0 -0.00000000000E+00 -0.00000000000E+00  0.11368683772E-12  0.17120000000E+03  0.17120000000E+03 0.  0.
         13    1    1    2    0    0 -0.17659530202E+02  0.23621481663E+01  0.36876151944E+02  0.40954859262E+02  0.10566000000E+00 0. -1.
        994    1    1    2    0    0  0.21571353323E+02 -0.70457630940E+01  0.57178574625E+01  0.17279207145E+03  0.17120000000E+03 0.  0.
        998    1    1    2    0    0 -0.39118231214E+01  0.46836149277E+01  0.14574059869E+04  0.14574530693E+04  0.10000000000E+02 0. -1.
</event>
<event>
 5    1  0.1338054E-008  0.3860021E+03  0.7957747E-01  0.3425433E+00
         13   -1    0    0    0    0  0.00000000000E+00  0.00000000000E+00  0.14999999963E+04  0.15000000000E+04  0.10566000000E+00 0.  1.
        994   -1    0    0    0    0 -0.00000000000E+00 -0.00000000000E+00  0.11368683772E-12  0.17120000000E+03  0.17120000000E+03 0.  0.
         13    1    1    2    0    0  0.58658146975E+00 -0.14353329742E+02  0.85640890910E+02  0.86837408485E+02  0.10566000000E+00 0.  1.
        994    1    1    2    0    0 -0.18433581705E+01  0.17738323565E+02  0.21766644692E+01  0.17214012885E+03  0.17120000000E+03 0.  0.
        998    1    1    2    0    0  0.12567767007E+01 -0.33849938231E+01  0.14121824409E+04  0.14122224627E+04  0.10000000000E+02 0.  1.
</event>
<event>
 5    1  0.1338054E-008  0.3814648E+03  0.7957747E-01  0.3444805E+00
         13   -1    0    0    0    0  0.00000000000E+00  0.00000000000E+00  0.14999999963E+04  0.15000000000E+04  0.10566000000E+00 0. -1.
        994   -1    0    0    0    0 -0.00000000000E+00 -0.00000000000E+00  0.11368683772E-12  0.17120000000E+03  0.17120000000E+03 0.  0.
         13    1    1    2    0    0 -0.61945563044E+02 -0.28196755834E+02  0.28658418559E+03  0.29455528584E+03  0.10566000000E+00 0. -1.
        994    1    1    2    0    0  0.12173117215E+03  0.66642522251E+02  0.70368438004E+02  0.23134576096E+03  0.17120000000E+03 0.  0.
        998    1    1    2    0    0 -0.59785609109E+02 -0.38445766417E+02  0.11430473727E+04  0.11452989532E+04  0.10000000000E+02 0.  1.
</event>
<event>
 5    1  0.4138926E-008  0.3862586E+03  0.7957747E-01  0.3424352E+00
         13   -1    0    0    0    0  0.00000000000E+00  0.00000000000E+00  0.14999999963E+04  0.15000000000E+04  0.10566000000E+00 0. -1.
        994   -1    0    0    0    0 -0.00000000000E+00 -0.00000000000E+00  0.11368683772E-12  0.17120000000E+03  0.17120000000E+03 0.  0.
         13    1    1    2    0    0  0.10146887543E+02 -0.10462015532E+01  0.53684734038E+02  0.54645362999E+02  0.10566000000E+00 0. -1.
        994    1    1    2    0    0 -0.38990230434E+01  0.57846969247E+00  0.10574363731E+01  0.17124863556E+03  0.17120000000E+03 0.  0.
        998    1    1    2    0    0 -0.62478644999E+01  0.46773186073E+00  0.14452578259E+04  0.14453060014E+04  0.10000000000E+02 0. -1.
</event>
<event>
 5    1  0.1338054E-008  0.3709979E+03  0.7957747E-01  0.3491317E+00
         13   -1    0    0    0    0  0.00000000000E+00  0.00000000000E+00  0.14999999963E+04  0.15000000000E+04  0.10566000000E+00 0. -1.
        994   -1    0    0    0    0 -0.00000000000E+00 -0.00000000000E+00  0.11368683772E-12  0.17120000000E+03  0.17120000000E+03 0.  0.
         13    1    1    2    0    0 -0.67192700257E+02 -0.36152987212E+02  0.30180021328E+03  0.31129612486E+03  0.10566000000E+00 0. -1.
        994    1    1    2    0    0  0.52084188985E+02  0.24112682894E+02  0.20186359772E+02  0.18168960713E+03  0.17120000000E+03 0.  0.
        998    1    1    2    0    0  0.15108511272E+02  0.12040304318E+02  0.11780134232E+04  0.11782142680E+04  0.10000000000E+02 0. -1.
</event>
<event>
 5    1  0.1719563E-008  0.3862842E+03  0.7957747E-01  0.3424244E+00
         13   -1    0    0    0    0  0.00000000000E+00  0.00000000000E+00  0.14999999963E+04  0.15000000000E+04  0.10566000000E+00 0. -1.
        994   -1    0    0    0    0 -0.00000000000E+00 -0.00000000000E+00  0.11368683772E-12  0.17120000000E+03  0.17120000000E+03 0.  0.
         13    1    1    2    0    0 -0.41384099334E+01  0.10401837913E+02  0.64807883282E+02  0.65767754776E+02  0.10566000000E+00 0. -1.
        994    1    1    2    0    0  0.62037768731E+01 -0.41695005228E+01  0.11769045246E+01  0.17136714004E+03  0.17120000000E+03 0.  0.
        998    1    1    2    0    0 -0.20653669397E+01 -0.62323373902E+01  0.14340152085E+04  0.14340651052E+04  0.10000000000E+02 0. -1.
</event>
<event>
 5    1  0.1338054E-008  0.3856182E+03  0.7957747E-01  0.3427055E+00
         13   -1    0    0    0    0  0.00000000000E+00  0.00000000000E+00  0.14999999963E+04  0.15000000000E+04  0.10566000000E+00 0. -1.
        994   -1    0    0    0    0 -0.00000000000E+00 -0.00000000000E+00  0.11368683772E-12  0.17120000000E+03  0.17120000000E+03 0.  0.
         13    1    1    2    0    0 -0.80114400045E+01 -0.92147410280E+01  0.54909988914E+02  0.56251334826E+02  0.10566000000E+00 0. -1.
        994    1    1    2    0    0  0.82214634729E+01  0.10232669052E+02  0.18892296246E+01  0.17171286838E+03  0.17120000000E+03 0.  0.
        998    1    1    2    0    0 -0.21002346841E+00 -0.10179280237E+01  0.14432007777E+04  0.14432357968E+04  0.10000000000E+02 0. -1.
</event>
<event>
 5    1  0.1338054E-008  0.3844597E+03  0.7957747E-01  0.3431967E+00
         13   -1    0    0    0    0  0.00000000000E+00  0.00000000000E+00  0.14999999963E+04  0.15000000000E+04  0.10566000000E+00 0.  1.
        994   -1    0    0    0    0 -0.00000000000E+00 -0.00000000000E+00  0.11368683772E-12  0.17120000000E+03  0.17120000000E+03 0.  0.
         13    1    1    2    0    0 -0.99430988111E+01 -0.77349720248E+01  0.41748232220E+02  0.43607580347E+02  0.10566000000E+00 0.  1.
        994    1    1    2    0    0  0.56484075315E+01  0.41017418985E+01  0.20591747308E+01  0.17135462934E+03  0.17120000000E+03 0.  0.
        998    1    1    2    0    0  0.42946912795E+01  0.36332301263E+01  0.14561925893E+04  0.14562377903E+04  0.10000000000E+02 0.  1.
</event>
<event>
 5    1  0.1338054E-008  0.3789992E+03  0.7957747E-01  0.3455528E+00
         13   -1    0    0    0    0  0.00000000000E+00  0.00000000000E+00  0.14999999963E+04  0.15000000000E+04  0.10566000000E+00 0. -1.
        994   -1    0    0    0    0 -0.00000000000E+00 -0.00000000000E+00  0.11368683772E-12  0.17120000000E+03  0.17120000000E+03 0.  0.
         13    1    1    2    0    0 -0.27106610308E+02  0.19747728695E+02  0.12541949480E+03  0.12982604497E+03  0.10566000000E+00 0. -1.
        994    1    1    2    0    0  0.85104226873E+01 -0.77475077998E+01  0.50835565338E+01  0.17166168390E+03  0.17120000000E+03 0.  0.
        998    1    1    2    0    0  0.18596187621E+02 -0.12000220896E+02  0.13694969449E+04  0.13697122711E+04  0.10000000000E+02 0. -1.
</event>
<event>
 5    1  0.1338054E-008  0.3791875E+03  0.7957747E-01  0.3454704E+00
         13   -1    0    0    0    0  0.00000000000E+00  0.00000000000E+00  0.14999999963E+04  0.15000000000E+04  0.10566000000E+00 0.  1.
        994   -1    0    0    0    0 -0.00000000000E+00 -0.00000000000E+00  0.11368683772E-12  0.17120000000E+03  0.17120000000E+03 0.  0.
         13    1    1    2    0    0  0.12663606767E+02  0.21957091505E+02  0.68553955964E+02  0.73089923013E+02  0.10566000000E+00 0.  1.
        994    1    1    2    0    0 -0.22722919380E+01 -0.19169411858E+02  0.57938743752E+01  0.17238224573E+03  0.17120000000E+03 0.  0.
        998    1    1    2    0    0 -0.10391314829E+02 -0.27876796470E+01  0.14256521659E+04  0.14257278313E+04  0.10000000000E+02 0.  1.
</event>
<event>
 5    1  0.1338054E-008  0.3829933E+03  0.7957747E-01  0.3438228E+00
         13   -1    0    0    0    0  0.00000000000E+00  0.00000000000E+00  0.14999999963E+04  0.15000000000E+04  0.10566000000E+00 0. -1.
        994   -1    0    0    0    0 -0.00000000000E+00 -0.00000000000E+00  0.11368683772E-12  0.17120000000E+03  0.17120000000E+03 0.  0.
         13    1    1    2    0    0 -0.26849505702E+02  0.57415318332E+01  0.14576445999E+03  0.14832784670E+03  0.10566000000E+00 0. -1.
        994    1    1    2    0    0  0.12160862374E+02 -0.81945824714E+01  0.33418521163E+01  0.17185937778E+03  0.17120000000E+03 0.  0.
        998    1    1    2    0    0  0.14688643328E+02  0.24530506381E+01  0.13508936842E+04  0.13510127755E+04  0.10000000000E+02 0. -1.
</event>
<event>
 5    1  0.1338054E-008  0.3848918E+03  0.7957747E-01  0.3430131E+00
         13   -1    0    0    0    0  0.00000000000E+00  0.00000000000E+00  0.14999999963E+04  0.15000000000E+04  0.10566000000E+00 0. -1.
        994   -1    0    0    0    0 -0.00000000000E+00 -0.00000000000E+00  0.11368683772E-12  0.17120000000E+03  0.17120000000E+03 0.  0.
         13    1    1    2    0    0  0.23121016754E+02 -0.42873570710E+01  0.13931041769E+03  0.14128116112E+03  0.10566000000E+00 0. -1.
        994    1    1    2    0    0 -0.30641882440E+02  0.15919394717E+02  0.56163344636E+01  0.17473790459E+03  0.17120000000E+03 0.  0.
        998    1    1    2    0    0  0.75208656862E+01 -0.11632037646E+02  0.13550732441E+04  0.13551809343E+04  0.10000000000E+02 0. -1.
</event>
<event>
 5    1  0.1338054E-008  0.3705582E+03  0.7957747E-01  0.3493330E+00
         13   -1    0    0    0    0  0.00000000000E+00  0.00000000000E+00  0.14999999963E+04  0.15000000000E+04  0.10566000000E+00 0. -1.
        994   -1    0    0    0    0 -0.00000000000E+00 -0.00000000000E+00  0.11368683772E-12  0.17120000000E+03  0.17120000000E+03 0.  0.
         13    1    1    2    0    0  0.16567393784E+01 -0.19437622961E+02  0.17283406941E+02  0.26063255577E+02  0.10566000000E+00 0. -1.
        994    1    1    2    0    0 -0.12010003409E+01  0.14857596984E+02  0.97447458742E+01  0.17212376554E+03  0.17120000000E+03 0.  0.
        998    1    1    2    0    0 -0.45573903749E+00  0.45800259765E+01  0.14729718435E+04  0.14730129789E+04  0.10000000000E+02 0. -1.
</event>
<event>
 5    1  0.1338054E-008  0.3816671E+03  0.7957747E-01  0.3443932E+00
         13   -1    0    0    0    0  0.00000000000E+00  0.00000000000E+00  0.14999999963E+04  0.15000000000E+04  0.10566000000E+00 0. -1.
        994   -1    0    0    0    0 -0.00000000000E+00 -0.00000000000E+00  0.11368683772E-12  0.17120000000E+03  0.17120000000E+03 0.  0.
         13    1    1    2    0    0 -0.16713440933E+02  0.24813545864E+02  0.15339714082E+03  0.15628737998E+03  0.10566000000E+00 0. -1.
        994    1    1    2    0    0 -0.41999960465E+01 -0.27796744088E+01  0.33783139602E+01  0.17130738327E+03  0.17120000000E+03 0.  0.
        998    1    1    2    0    0  0.20913436979E+02 -0.22033871455E+02  0.13432245415E+04  0.13436052368E+04  0.10000000000E+02 0. -1.
</event>
<event>
 5    1  0.1338054E-008  0.3731180E+03  0.7957747E-01  0.3481683E+00
         13   -1    0    0    0    0  0.00000000000E+00  0.00000000000E+00  0.14999999963E+04  0.15000000000E+04  0.10566000000E+00 0. -1.
        994   -1    0    0    0    0 -0.00000000000E+00 -0.00000000000E+00  0.11368683772E-12  0.17120000000E+03  0.17120000000E+03 0.  0.
         13    1    1    2    0    0 -0.69068412813E+01 -0.47109744802E+02  0.13064440905E+03  0.13905036962E+03  0.10566000000E+00 0. -1.
        994    1    1    2    0    0 -0.22219072439E+01  0.53496614169E+02  0.17519840290E+02  0.18023098902E+03  0.17120000000E+03 0.  0.
        998    1    1    2    0    0  0.91287485252E+01 -0.63868693667E+01  0.13518357469E+04  0.13519186414E+04  0.10000000000E+02 0. -1.
</event>
<event>
 5    1  0.1338054E-008  0.3765727E+03  0.7957747E-01  0.3466219E+00
         13   -1    0    0    0    0  0.00000000000E+00  0.00000000000E+00  0.14999999963E+04  0.15000000000E+04  0.10566000000E+00 0. -1.
        994   -1    0    0    0    0 -0.00000000000E+00 -0.00000000000E+00  0.11368683772E-12  0.17120000000E+03  0.17120000000E+03 0.  0.
         13    1    1    2    0    0  0.96535180679E+02 -0.26102060931E+02  0.41780015166E+03  0.42960136939E+03  0.10566000000E+00 0. -1.
        994    1    1    2    0    0 -0.19649483621E+02  0.49696450175E+02  0.24748628472E+02  0.18104633103E+03  0.17120000000E+03 0.  0.
        998    1    1    2    0    0 -0.76885697058E+02 -0.23594389243E+02  0.10574512162E+04  0.10605522996E+04  0.10000000000E+02 0. -1.
</event>
<event>
 5    1  0.1338054E-008  0.2779768E+03  0.7957747E-01  0.4066978E+00
         13   -1    0    0    0    0  0.00000000000E+00  0.00000000000E+00  0.14999999963E+04  0.15000000000E+04  0.10566000000E+00 0.  1.
        994   -1    0    0    0    0 -0.00000000000E+00 -0.00000000000E+00  0.11368683772E-12  0.17120000000E+03  0.17120000000E+03 0.  0.
         13    1    1    2    0    0  0.67518534437E+02 -0.12227779835E+03  0.73064679920E+03  0.74387859817E+03  0.10566000000E+00 0.  1.
        994    1    1    2    0    0  0.19174378212E+02  0.14698120006E+02  0.30464448385E+02  0.17555971670E+03  0.17120000000E+03 0.  0.
        998    1    1    2    0    0 -0.86692912649E+02  0.10757967834E+03  0.73888874869E+03  0.75176168514E+03  0.10000000000E+02 0.  1.
</event>
<event>
 5    1  0.1338054E-008  0.3815686E+03  0.7957747E-01  0.3444357E+00
         13   -1    0    0    0    0  0.00000000000E+00  0.00000000000E+00  0.14999999963E+04  0.15000000000E+04  0.10566000000E+00 0. -1.
        994   -1    0    0    0    0 -0.00000000000E+00 -0.00000000000E+00  0.11368683772E-12  0.17120000000E+03  0.17120000000E+03 0.  0.
         13    1    1    2    0    0  0.24149097056E+01  0.24729575317E+02  0.10106401409E+02  0.26824134612E+02  0.10566000000E+00 0. -1.
        994    1    1    2    0    0 -0.40353905483E+02 -0.28541772984E+02  0.26149211861E+02  0.18010078227E+03  0.17120000000E+03 0.  0.
        998    1    1    2    0    0  0.37938995777E+02  0.38121976672E+01  0.14637443830E+04  0.14642750831E+04  0.10000000000E+02 0. -1.
</event>
<event>
 5    1  0.1338054E-008  0.4091441E+03  0.7957747E-01  0.3333313E+00
         13   -1    0    0    0    0  0.00000000000E+00  0.00000000000E+00  0.14999999963E+04  0.15000000000E+04  0.10566000000E+00 0.  1.
        994   -1    0    0    0    0 -0.00000000000E+00 -0.00000000000E+00  0.11368683772E-12  0.17120000000E+03  0.17120000000E+03 0.  0.
         13    1    1    2    0    0  0.43460268837E+02 -0.53528270561E+02  0.72900455808E+02  0.10034220616E+03  0.10566000000E+00 0.  1.
        994    1    1    2    0    0  0.51369305107E+02  0.12891077561E+02  0.44856395720E+02  0.18473365049E+03  0.17120000000E+03 0.  0.
        998    1    1    2    0    0 -0.94829573944E+02  0.40637193000E+02  0.13822431448E+04  0.13861241433E+04  0.10000000000E+02 0.  1.
</event>
<event>
 5    1  0.1338054E-008  0.3786755E+03  0.7957747E-01  0.3456946E+00
         13   -1    0    0    0    0  0.00000000000E+00  0.00000000000E+00  0.14999999963E+04  0.15000000000E+04  0.10566000000E+00 0.  1.
        994   -1    0    0    0    0 -0.00000000000E+00 -0.00000000000E+00  0.11368683772E-12  0.17120000000E+03  0.17120000000E+03 0.  0.
         13    1    1    2    0    0 -0.22994389063E+02 -0.14047215168E+02  0.75032560937E+02  0.79724290823E+02  0.10566000000E+00 0.  1.
        994    1    1    2    0    0  0.18153260870E+01  0.22389230568E+02  0.64992204937E+01  0.17278962041E+03  0.17120000000E+03 0.  0.
        998    1    1    2    0    0  0.21179062976E+02 -0.83420154003E+01  0.14184682148E+04  0.14186860888E+04  0.10000000000E+02 0.  1.
</event>
<event>
 5    1  0.1338054E-008  0.3818688E+03  0.7957747E-01  0.3443062E+00
         13   -1    0    0    0    0  0.00000000000E+00  0.00000000000E+00  0.14999999963E+04  0.15000000000E+04  0.10566000000E+00 0. -1.
        994   -1    0    0    0    0 -0.00000000000E+00 -0.00000000000E+00  0.11368683772E-12  0.17120000000E+03  0.17120000000E+03 0.  0.
         13    1    1    2    0    0 -0.12079610089E+02  0.11023650296E+01  0.21689726094E+02  0.24851309234E+02  0.10566000000E+00 0. -1.
        994    1    1    2    0    0  0.99993437629E+01 -0.43408677159E+00  0.35256569409E+01  0.17152855612E+03  0.17120000000E+03 0.  0.
        998    1    1    2    0    0  0.20802663260E+01 -0.66827825801E+00  0.14747846132E+04  0.14748201346E+04  0.10000000000E+02 0. -1.
</event>
<event>
 5    1  0.1338054E-008  0.3817701E+03  0.7957747E-01  0.3443487E+00
         13   -1    0    0    0    0  0.00000000000E+00  0.00000000000E+00  0.14999999963E+04  0.15000000000E+04  0.10566000000E+00 0.  1.
        994   -1    0    0    0    0 -0.00000000000E+00 -0.00000000000E+00  0.11368683772E-12  0.17120000000E+03  0.17120000000E+03 0.  0.
         13    1    1    2    0    0  0.39153600055E+02  0.29018585510E+02  0.27513357780E+03  0.27941649826E+03  0.10566000000E+00 0.  1.
        994    1    1    2    0    0 -0.75537690951E+02 -0.19254456994E+01  0.22456344199E+02  0.18847646402E+03  0.17120000000E+03 0.  0.
        998    1    1    2    0    0  0.36384090896E+02 -0.27093139811E+02  0.12024100743E+04  0.12033070377E+04  0.10000000000E+02 0.  1.
</event>
<event>
 5    1  0.1338054E-008  0.3816282E+03  0.7957747E-01  0.3444099E+00
         13   -1    0    0    0    0  0.00000000000E+00  0.00000000000E+00  0.14999999963E+04  0.15000000000E+04  0.10566000000E+00 0.  1.
        994   -1    0    0    0    0 -0.00000000000E+00 -0.00000000000E+00  0.11368683772E-12  0.17120000000E+03  0.17120000000E+03 0.  0.
         13    1    1    2    0    0 -0.17744126946E+01  0.12429952327E+02  0.23329805522E+02  0.26494211538E+02  0.10566000000E+00 0.  1.
        994    1    1    2    0    0  0.11913583747E+01  0.36794179803E+01  0.33632232744E+01  0.17127670222E+03  0.17120000000E+03 0.  0.
        998    1    1    2    0    0  0.58305431984E+00 -0.16109370307E+02  0.14733069675E+04  0.14734290862E+04  0.10000000000E+02 0.  1.
</event>
<event>
 5    1  0.1338054E-008  0.3840483E+03  0.7957747E-01  0.3433719E+00
         13   -1    0    0    0    0  0.00000000000E+00  0.00000000000E+00  0.14999999963E+04  0.15000000000E+04  0.10566000000E+00 0. -1.
        994   -1    0    0    0    0 -0.00000000000E+00 -0.00000000000E+00  0.11368683772E-12  0.17120000000E+03  0.17120000000E+03 0.  0.
         13    1    1    2    0    0 -0.95077141216E+01  0.18014500534E+02  0.10422928367E+03  0.10620109978E+03  0.10566000000E+00 0. -1.
        994    1    1    2    0    0  0.87985230259E+01 -0.59583460740E+00  0.23599638670E+01  0.17144322225E+03  0.17120000000E+03 0.  0.
        998    1    1    2    0    0  0.70919109572E+00 -0.17418665927E+02  0.13934107487E+04  0.13935556780E+04  0.10000000000E+02 0. -1.
</event>
<event>
 5    1  0.1338054E-008  0.3843733E+03  0.7957747E-01  0.3432334E+00
         13   -1    0    0    0    0  0.00000000000E+00  0.00000000000E+00  0.14999999963E+04  0.15000000000E+04  0.10566000000E+00 0.  1.
        994   -1    0    0    0    0 -0.00000000000E+00 -0.00000000000E+00  0.11368683772E-12  0.17120000000E+03  0.17120000000E+03 0.  0.
         13    1    1    2    0    0  0.64112567828E+01 -0.17052798173E+02  0.83003791059E+02  0.84979660115E+02  0.10566000000E+00 0.  1.
        994    1    1    2    0    0 -0.82887808492E+01  0.13635940839E+02  0.27811767944E+01  0.17196458273E+03  0.17120000000E+03 0.  0.
        998    1    1    2    0    0  0.18775240664E+01  0.34168573338E+01  0.14142150284E+04  0.14142557572E+04  0.10000000000E+02 0.  1.
</event>
<event>
 5    1  0.1338054E-008  0.3842527E+03  0.7957747E-01  0.3432848E+00
         13   -1    0    0    0    0  0.00000000000E+00  0.00000000000E+00  0.14999999963E+04  0.15000000000E+04  0.10566000000E+00 0. -1.
        994   -1    0    0    0    0 -0.00000000000E+00 -0.00000000000E+00  0.11368683772E-12  0.17120000000E+03  0.17120000000E+03 0.  0.
         13    1    1    2    0    0 -0.13960440931E+02  0.64251665804E+01  0.57181417295E+02  0.59210660565E+02  0.10566000000E+00 0. -1.
        994    1    1    2    0    0  0.15985616961E+02 -0.77443249499E+00  0.28464766285E+01  0.17197000356E+03  0.17120000000E+03 0.  0.
        998    1    1    2    0    0 -0.20251760301E+01 -0.56507340854E+01  0.14399721024E+04  0.14400193359E+04  0.10000000000E+02 0. -1.
</event>
<event>
 5    1  0.1338054E-008  0.3856276E+03  0.7957747E-01  0.3427015E+00
         13   -1    0    0    0    0  0.00000000000E+00  0.00000000000E+00  0.14999999963E+04  0.15000000000E+04  0.10566000000E+00 0. -1.
        994   -1    0    0    0    0 -0.00000000000E+00 -0.00000000000E+00  0.11368683772E-12  0.17120000000E+03  0.17120000000E+03 0.  0.
         13    1    1    2    0    0  0.12221021121E+02  0.43428700329E+01  0.65312427707E+02  0.66587823620E+02  0.10566000000E+00 0. -1.
        994    1    1    2    0    0 -0.62313990340E+01 -0.83257106390E+00  0.14486079360E+01  0.17132151638E+03  0.17120000000E+03 0.  0.
        998    1    1    2    0    0 -0.59896220871E+01 -0.35102989690E+01  0.14332389606E+04  0.14332906600E+04  0.10000000000E+02 0. -1.
</event>
<event>
 5    1  0.1338054E-008  0.3837116E+03  0.7957747E-01  0.3435155E+00
         13   -1    0    0    0    0  0.00000000000E+00  0.00000000000E+00  0.14999999963E+04  0.15000000000E+04  0.10566000000E+00 0.  1.
        994   -1    0    0    0    0 -0.00000000000E+00 -0.00000000000E+00  0.11368683772E-12  0.17120000000E+03  0.17120000000E+03 0.  0.
         13    1    1    2    0    0 -0.10069545417E+02 -0.32613919626E+01  0.24150215982E+02  0.26368096603E+02  0.10566000000E+00 0.  1.
        994    1    1    2    0    0  0.43650683063E+01  0.17694153221E+01  0.23444312677E+01  0.17128082499E+03  0.17120000000E+03 0.  0.
        998    1    1    2    0    0  0.57044771103E+01  0.14919766405E+01  0.14735053490E+04  0.14735510784E+04  0.10000000000E+02 0.  1.
</event>
<event>
 5    1  0.1338054E-008  0.3797109E+03  0.7957747E-01  0.3452418E+00
         13   -1    0    0    0    0  0.00000000000E+00  0.00000000000E+00  0.14999999963E+04  0.15000000000E+04  0.10566000000E+00 0. -1.
        994   -1    0    0    0    0 -0.00000000000E+00 -0.00000000000E+00  0.11368683772E-12  0.17120000000E+03  0.17120000000E+03 0.  0.
         13    1    1    2    0    0  0.12312723055E+02 -0.35247590654E+01  0.16848177216E+02  0.21163631896E+02  0.10566000000E+00 0. -1.
        994    1    1    2    0    0 -0.19143554575E+02  0.73864019628E+01  0.56892352389E+01  0.17251910623E+03  0.17120000000E+03 0.  0.
        998    1    1    2    0    0  0.68308315196E+01 -0.38616428974E+01  0.14774625838E+04  0.14775172619E+04  0.10000000000E+02 0. -1.
</event>
<event>
 5    1  0.1338054E-008  0.3787435E+03  0.7957747E-01  0.3456648E+00
         13   -1    0    0    0    0  0.00000000000E+00  0.00000000000E+00  0.14999999963E+04  0.15000000000E+04  0.10566000000E+00 0.  1.
        994   -1    0    0    0    0 -0.00000000000E+00 -0.00000000000E+00  0.11368683772E-12  0.17120000000E+03  0.17120000000E+03 0.  0.
         13    1    1    2    0    0 -0.85695258579E+01 -0.57845141929E+02  0.29140896821E+03  0.29721826178E+03  0.10566000000E+00 0.  1.
        994    1    1    2    0    0  0.19315190648E+02  0.55572741832E+02  0.16477373458E+02  0.18177554858E+03  0.17120000000E+03 0.  0.
        998    1    1    2    0    0 -0.10745664790E+02  0.22724000978E+01  0.11921136546E+04  0.11922061896E+04  0.10000000000E+02 0.  1.
</event>
<event>
 5    1  0.1338054E-008  0.3781009E+03  0.7957747E-01  0.3459470E+00
         13   -1    0    0    0    0  0.00000000000E+00  0.00000000000E+00  0.14999999963E+04  0.15000000000E+04  0.10566000000E+00 0. -1.
        994   -1    0    0    0    0 -0.00000000000E+00 -0.00000000000E+00  0.11368683772E-12  0.17120000000E+03  0.17120000000E+03 0.  0.
         13    1    1    2    0    0 -0.68876765503E+02  0.82762435875E+02  0.49100037910E+03  0.50266789539E+03  0.10566000000E+00 0. -1.
        994    1    1    2    0    0  0.71860211035E+02 -0.12787537179E+03  0.81267643411E+02  0.23964530145E+03  0.17120000000E+03 0.  0.
        998    1    1    2    0    0 -0.29834455314E+01  0.45112935914E+02  0.92773197377E+03  0.92888680316E+03  0.10000000000E+02 0. -1.
</event>
<event>
 5    1  0.1338054E-008  0.3846101E+03  0.7957747E-01  0.3431327E+00
         13   -1    0    0    0    0  0.00000000000E+00  0.00000000000E+00  0.14999999963E+04  0.15000000000E+04  0.10566000000E+00 0.  1.
        994   -1    0    0    0    0 -0.00000000000E+00 -0.00000000000E+00  0.11368683772E-12  0.17120000000E+03  0.17120000000E+03 0.  0.
         13    1    1    2    0    0 -0.41596865370E+01  0.13377132828E+02  0.56351341015E+02  0.58066646821E+02  0.10566000000E+00 0.  1.
        994    1    1    2    0    0  0.39171208350E+01  0.77965006267E+00  0.18763620470E+01  0.17125686096E+03  0.17120000000E+03 0.  0.
        998    1    1    2    0    0  0.24256570201E+00 -0.14156782890E+02  0.14417722932E+04  0.14418764922E+04  0.10000000000E+02 0.  1.
</event>
<event>
 5    1  0.1338054E-008  0.3790105E+03  0.7957747E-01  0.3455478E+00
         13   -1    0    0    0    0  0.00000000000E+00  0.00000000000E+00  0.14999999963E+04  0.15000000000E+04  0.10566000000E+00 0.  1.
        994   -1    0    0    0    0 -0.00000000000E+00 -0.00000000000E+00  0.11368683772E-12  0.17120000000E+03  0.17120000000E+03 0.  0.
         13    1    1    2    0    0  0.24006724928E+02  0.80979550402E+01  0.72505624567E+02  0.76804794612E+02  0.10566000000E+00 0.  1.
        994    1    1    2    0    0 -0.47309473933E+01  0.15555526506E+02  0.55205827732E+01  0.17205892334E+03  0.17120000000E+03 0.  0.
        998    1    1    2    0    0 -0.19275777535E+02 -0.23653481547E+02  0.14219737889E+04  0.14223362820E+04  0.10000000000E+02 0.  1.
</event>
<event>
 5    1  0.1338054E-008  0.3811874E+03  0.7957747E-01  0.3446004E+00
         13   -1    0    0    0    0  0.00000000000E+00  0.00000000000E+00  0.14999999963E+04  0.15000000000E+04  0.10566000000E+00 0.  1.
        994   -1    0    0    0    0 -0.00000000000E+00 -0.00000000000E+00  0.11368683772E-12  0.17120000000E+03  0.17120000000E+03 0.  0.
         13    1    1    2    0    0 -0.11026550273E+02 -0.99645587550E+01  0.30896669994E+02  0.34285457892E+02  0.10566000000E+00 0.  1.
        994    1    1    2    0    0 -0.72968596351E+01  0.80494155850E+01  0.39280856458E+01  0.17158935605E+03  0.17120000000E+03 0.  0.
        998    1    1    2    0    0  0.18323409908E+02  0.19151431700E+01  0.14651752406E+04  0.14653251861E+04  0.10000000000E+02 0.  1.
</event>
<event>
 5    1  0.1338054E-008  0.3796754E+03  0.7957747E-01  0.3452573E+00
         13   -1    0    0    0    0  0.00000000000E+00  0.00000000000E+00  0.14999999963E+04  0.15000000000E+04  0.10566000000E+00 0. -1.
        994   -1    0    0    0    0 -0.00000000000E+00 -0.00000000000E+00  0.11368683772E-12  0.17120000000E+03  0.17120000000E+03 0.  0.
         13    1    1    2    0    0  0.38125513185E+02 -0.74443385939E+01  0.13035566001E+03  0.13602052122E+03  0.10566000000E+00 0. -1.
        994    1    1    2    0    0 -0.71585827437E+02  0.23406376979E+02  0.23519692448E+02  0.18850730783E+03  0.17120000000E+03 0.  0.
        998    1    1    2    0    0  0.33460314252E+02 -0.15962038385E+02  0.13461246438E+04  0.13466721710E+04  0.10000000000E+02 0. -1.
</event>
<event>
 5    1  0.1338054E-008  0.3750135E+03  0.7957747E-01  0.3473163E+00
         13   -1    0    0    0    0  0.00000000000E+00  0.00000000000E+00  0.14999999963E+04  0.15000000000E+04  0.10566000000E+00 0. -1.
        994   -1    0    0    0    0 -0.00000000000E+00 -0.00000000000E+00  0.11368683772E-12  0.17120000000E+03  0.17120000000E+03 0.  0.
         13    1    1    2    0    0  0.54619048722E+02  0.42862733229E+02  0.31135694921E+03  0.31900409930E+03  0.10566000000E+00 0. -1.
        994    1    1    2    0    0 -0.51853330399E+02 -0.28829718089E+02  0.18731745859E+02  0.18215443673E+03  0.17120000000E+03 0.  0.
        998    1    1    2    0    0 -0.27657183231E+01 -0.14033015141E+02  0.11699113012E+04  0.11700414640E+04  0.10000000000E+02 0. -1.
</event>
<event>
 5    1  0.1338054E-008  0.3817892E+03  0.7957747E-01  0.3443405E+00
         13   -1    0    0    0    0  0.00000000000E+00  0.00000000000E+00  0.14999999963E+04  0.15000000000E+04  0.10566000000E+00 0. -1.
        994   -1    0    0    0    0 -0.00000000000E+00 -0.00000000000E+00  0.11368683772E-12  0.17120000000E+03  0.17120000000E+03 0.  0.
         13    1    1    2    0    0  0.22469188733E+02 -0.29457857058E+01  0.74457738685E+02  0.77829994924E+02  0.10566000000E+00 0. -1.
        994    1    1    2    0    0 -0.24045521103E+02  0.60432937119E+01  0.52781929737E+01  0.17306648377E+03  0.17120000000E+03 0.  0.
        998    1    1    2    0    0  0.15763323700E+01 -0.30975080061E+01  0.14202640646E+04  0.14203035213E+04  0.10000000000E+02 0. -1.
</event>
<event>
 5    1  0.1338054E-008  0.3854225E+03  0.7957747E-01  0.3427882E+00
         13   -1    0    0    0    0  0.00000000000E+00  0.00000000000E+00  0.14999999963E+04  0.15000000000E+04  0.10566000000E+00 0. -1.
        994   -1    0    0    0    0 -0.00000000000E+00 -0.00000000000E+00  0.11368683772E-12  0.17120000000E+03  0.17120000000E+03 0.  0.
         13    1    1    2    0    0 -0.12049255371E+02  0.73409154618E+01  0.67524108876E+02  0.68982534299E+02  0.10566000000E+00 0. -1.
        994    1    1    2    0    0  0.20607228303E+02  0.38116644280E+01  0.28641905663E+01  0.17250168182E+03  0.17120000000E+03 0.  0.
        998    1    1    2    0    0 -0.85579729311E+01 -0.11152579890E+02  0.14296116968E+04  0.14297157839E+04  0.10000000000E+02 0. -1.
</event>
<event>
 5    1  0.1338054E-008  0.3834324E+03  0.7957747E-01  0.3436348E+00
         13   -1    0    0    0    0  0.00000000000E+00  0.00000000000E+00  0.14999999963E+04  0.15000000000E+04  0.10566000000E+00 0. -1.
        994   -1    0    0    0    0 -0.00000000000E+00 -0.00000000000E+00  0.11368683772E-12  0.17120000000E+03  0.17120000000E+03 0.  0.
         13    1    1    2    0    0  0.24904519794E+01 -0.21965117534E+02  0.90153412404E+02  0.92824122250E+02  0.10566000000E+00 0. -1.
        994    1    1    2    0    0  0.13356469131E+01  0.32399966078E+02  0.58939957767E+01  0.17434368627E+03  0.17120000000E+03 0.  0.
        998    1    1    2    0    0 -0.38260988925E+01 -0.10434848544E+02  0.14039525881E+04  0.14040321915E+04  0.10000000000E+02 0. -1.
</event>
<event>
 5    1  0.1338054E-008  0.3782072E+03  0.7957747E-01  0.3459002E+00
         13   -1    0    0    0    0  0.00000000000E+00  0.00000000000E+00  0.14999999963E+04  0.15000000000E+04  0.10566000000E+00 0. -1.
        994   -1    0    0    0    0 -0.00000000000E+00 -0.00000000000E+00  0.11368683772E-12  0.17120000000E+03  0.17120000000E+03 0.  0.
         13    1    1    2    0    0 -0.66338040138E+02 -0.28202254359E+02  0.39245645005E+03  0.39902152708E+03  0.10566000000E+00 0. -1.
        994    1    1    2    0    0  0.61366613944E+02  0.31719477590E+02  0.21259833346E+02  0.18583166329E+03  0.17120000000E+03 0.  0.
        998    1    1    2    0    0  0.49714261943E+01 -0.35172232310E+01  0.10862837129E+04  0.10863468096E+04  0.10000000000E+02 0. -1.
</event>
<event>
 5    1  0.1338054E-008  0.3851645E+03  0.7957747E-01  0.3428975E+00
         13   -1    0    0    0    0  0.00000000000E+00  0.00000000000E+00  0.14999999963E+04  0.15000000000E+04  0.10566000000E+00 0. -1.
        994   -1    0    0    0    0 -0.00000000000E+00 -0.00000000000E+00  0.11368683772E-12  0.17120000000E+03  0.17120000000E+03 0.  0.
         13    1    1    2    0    0 -0.64264642737E+01 -0.95417574758E+01  0.41082061532E+02  0.42662530663E+02  0.10566000000E+00 0. -1.
        994    1    1    2    0    0  0.64000228924E+01  0.14049539990E+02  0.23322946679E+01  0.17191052750E+03  0.17120000000E+03 0.  0.
        998    1    1    2    0    0  0.26441381304E-01 -0.45077825145E+01  0.14565856401E+04  0.14566269418E+04  0.10000000000E+02 0. -1.
</event>
<event>
 5    1  0.1338054E-008  0.3802630E+03  0.7957747E-01  0.3450014E+00
         13   -1    0    0    0    0  0.00000000000E+00  0.00000000000E+00  0.14999999963E+04  0.15000000000E+04  0.10566000000E+00 0. -1.
        994   -1    0    0    0    0 -0.00000000000E+00 -0.00000000000E+00  0.11368683772E-12  0.17120000000E+03  0.17120000000E+03 0.  0.
         13    1    1    2    0    0  0.23460289181E+00 -0.35422201523E+02  0.14417019502E+03  0.14845822205E+03  0.10566000000E+00 0. -1.
        994    1    1    2    0    0 -0.59960067320E+01  0.33001724730E+02  0.77673069482E+01  0.17462770968E+03  0.17120000000E+03 0.  0.
        998    1    1    2    0    0  0.57614038402E+01  0.24204767932E+01  0.13480624943E+04  0.13481140683E+04  0.10000000000E+02 0. -1.
</event>
<event>
 5    1  0.1338054E-008  0.3769483E+03  0.7957747E-01  0.3464555E+00
         13   -1    0    0    0    0  0.00000000000E+00  0.00000000000E+00  0.14999999963E+04  0.15000000000E+04  0.10566000000E+00 0.  1.
        994   -1    0    0    0    0 -0.00000000000E+00 -0.00000000000E+00  0.11368683772E-12  0.17120000000E+03  0.17120000000E+03 0.  0.
         13    1    1    2    0    0 -0.27479366907E+02  0.22851683740E+02  0.12430926243E+03  0.12934496103E+03  0.10566000000E+00 0.  1.
        994    1    1    2    0    0 -0.17230147068E+02 -0.18553963802E+02  0.78497279978E+01  0.17324025447E+03  0.17120000000E+03 0.  0.
        998    1    1    2    0    0  0.44709513975E+02 -0.42977199377E+01  0.13678410059E+04  0.13686147845E+04  0.10000000000E+02 0.  1.
</event>
<event>
 5    1  0.1338054E-008  0.3814048E+03  0.7957747E-01  0.3445064E+00
         13   -1    0    0    0    0  0.00000000000E+00  0.00000000000E+00  0.14999999963E+04  0.15000000000E+04  0.10566000000E+00 0.  1.
        994   -1    0    0    0    0 -0.00000000000E+00 -0.00000000000E+00  0.11368683772E-12  0.17120000000E+03  0.17120000000E+03 0.  0.
         13    1    1    2    0    0 -0.10067810459E+02  0.20199664084E+02  0.70709336004E+02  0.74224043266E+02  0.10566000000E+00 0.  1.
        994    1    1    2    0    0  0.12863349826E+02 -0.17697664486E+02  0.50200741824E+01  0.17266532438E+03  0.17120000000E+03 0.  0.
        998    1    1    2    0    0 -0.27955393672E+01 -0.25019995975E+01  0.14242705861E+04  0.14243106324E+04  0.10000000000E+02 0.  1.
</event>
<event>
 5    1  0.1338054E-008  0.3803920E+03  0.7957747E-01  0.3449453E+00
         13   -1    0    0    0    0  0.00000000000E+00  0.00000000000E+00  0.14999999963E+04  0.15000000000E+04  0.10566000000E+00 0.  1.
        994   -1    0    0    0    0 -0.00000000000E+00 -0.00000000000E+00  0.11368683772E-12  0.17120000000E+03  0.17120000000E+03 0.  0.
         13    1    1    2    0    0  0.52582988050E+01 -0.96491114104E+01  0.13212169218E+02  0.17185099267E+02  0.10566000000E+00 0.  1.
        994    1    1    2    0    0 -0.10692049795E+02  0.17995968147E+02  0.53996278411E+01  0.17255947027E+03  0.17120000000E+03 0.  0.
        998    1    1    2    0    0  0.54337509895E+01 -0.83468567370E+01  0.14813881992E+04  0.14814554305E+04  0.10000000000E+02 0.  1.
</event>
<event>
 5    1  0.1338054E-008  0.3821019E+03  0.7957747E-01  0.3442057E+00
         13   -1    0    0    0    0  0.00000000000E+00  0.00000000000E+00  0.14999999963E+04  0.15000000000E+04  0.10566000000E+00 0.  1.
        994   -1    0    0    0    0 -0.00000000000E+00 -0.00000000000E+00  0.11368683772E-12  0.17120000000E+03  0.17120000000E+03 0.  0.
         13    1    1    2    0    0  0.19072676154E+02 -0.25608946539E+02  0.14290333298E+03  0.14642731596E+03  0.10566000000E+00 0.  1.
        994    1    1    2    0    0 -0.21964155069E+02  0.32996671545E+02  0.83096324029E+01  0.17592525240E+03  0.17120000000E+03 0.  0.
        998    1    1    2    0    0  0.28914789150E+01 -0.73877250057E+01  0.13487870309E+04  0.13488474316E+04  0.10000000000E+02 0.  1.
</event>
<event>
 5    1  0.1338054E-008  0.3848207E+03  0.7957747E-01  0.3430433E+00
         13   -1    0    0    0    0  0.00000000000E+00  0.00000000000E+00  0.14999999963E+04  0.15000000000E+04  0.10566000000E+00 0. -1.
        994   -1    0    0    0    0 -0.00000000000E+00 -0.00000000000E+00  0.11368683772E-12  0.17120000000E+03  0.17120000000E+03 0.  0.
         13    1    1    2    0    0 -0.93875526308E+01  0.74145807024E+01  0.44622023728E+02  0.46197817232E+02  0.10566000000E+00 0. -1.
        994    1    1    2    0    0 -0.38642581542E+01  0.50780469920E+01  0.18531790415E+01  0.17132890394E+03  0.17120000000E+03 0.  0.
        998    1    1    2    0    0  0.13251810785E+02 -0.12492627694E+02  0.14535247935E+04  0.14536732788E+04  0.10000000000E+02 0. -1.
</event>
<event>
 5    1  0.1338054E-008  0.2736438E+03  0.7957747E-01  0.4104222E+00
         13   -1    0    0    0    0  0.00000000000E+00  0.00000000000E+00  0.14999999963E+04  0.15000000000E+04  0.10566000000E+00 0. -1.
        994   -1    0    0    0    0 -0.00000000000E+00 -0.00000000000E+00  0.11368683772E-12  0.17120000000E+03  0.17120000000E+03 0.  0.
         13    1    1    2    0    0 -0.69427834539E+02  0.15126389519E+03  0.64911400090E+03  0.67011192165E+03  0.10566000000E+00 0. -1.
        994    1    1    2    0    0 -0.58875425333E+01 -0.58031663160E+02  0.45135061144E+02  0.18641070471E+03  0.17120000000E+03 0.  0.
        998    1    1    2    0    0  0.75315377072E+02 -0.93232232034E+02  0.80575093423E+03  0.81467737364E+03  0.10000000000E+02 0.  1.
</event>
<event>
 5    1  0.1338054E-008  0.3897756E+03  0.7957747E-01  0.3409667E+00
         13   -1    0    0    0    0  0.00000000000E+00  0.00000000000E+00  0.14999999963E+04  0.15000000000E+04  0.10566000000E+00 0.  1.
        994   -1    0    0    0    0 -0.00000000000E+00 -0.00000000000E+00  0.11368683772E-12  0.17120000000E+03  0.17120000000E+03 0.  0.
         13    1    1    2    0    0  0.38203206558E+02 -0.78908582686E+02  0.15254215941E+03  0.17594081669E+03  0.10566000000E+00 0.  1.
        994    1    1    2    0    0 -0.35474449949E+02  0.80107653762E+02  0.51273537329E+02  0.19903288276E+03  0.17120000000E+03 0.  0.
        998    1    1    2    0    0 -0.27287566092E+01 -0.11990710767E+01  0.12961842995E+04  0.12962263006E+04  0.10000000000E+02 0.  1.
</event>
<event>
 5    1  0.1338054E-008  0.3829891E+03  0.7957747E-01  0.3438245E+00
         13   -1    0    0    0    0  0.00000000000E+00  0.00000000000E+00  0.14999999963E+04  0.15000000000E+04  0.10566000000E+00 0.  1.
        994   -1    0    0    0    0 -0.00000000000E+00 -0.00000000000E+00  0.11368683772E-12  0.17120000000E+03  0.17120000000E+03 0.  0.
         13    1    1    2    0    0 -0.10181437976E+02  0.23872488664E+02  0.13096580830E+03  0.13351258930E+03  0.10566000000E+00 0.  1.
        994    1    1    2    0    0  0.55525328786E+01 -0.10337791205E+02  0.30877451899E+01  0.17162946926E+03  0.17120000000E+03 0.  0.
        998    1    1    2    0    0  0.46289050974E+01 -0.13534697460E+02  0.13659464428E+04  0.13660579414E+04  0.10000000000E+02 0.  1.
</event>
<event>
 5    1  0.1338054E-008  0.3795239E+03  0.7957747E-01  0.3453234E+00
         13   -1    0    0    0    0  0.00000000000E+00  0.00000000000E+00  0.14999999963E+04  0.15000000000E+04  0.10566000000E+00 0. -1.
        994   -1    0    0    0    0 -0.00000000000E+00 -0.00000000000E+00  0.11368683772E-12  0.17120000000E+03  0.17120000000E+03 0.  0.
         13    1    1    2    0    0  0.15142774899E+02 -0.76674798530E+01  0.31141380341E+02  0.35466753623E+02  0.10566000000E+00 0. -1.
        994    1    1    2    0    0 -0.11544813788E+02  0.39029014697E+01  0.48710926704E+01  0.17170230898E+03  0.17120000000E+03 0.  0.
        998    1    1    2    0    0 -0.35979611111E+01  0.37645783833E+01  0.14639875233E+04  0.14640309374E+04  0.10000000000E+02 0. -1.
</event>
<event>
 5    1  0.1338054E-008  0.3849384E+03  0.7957747E-01  0.3429933E+00
         13   -1    0    0    0    0  0.00000000000E+00  0.00000000000E+00  0.14999999963E+04  0.15000000000E+04  0.10566000000E+00 0.  1.
        994   -1    0    0    0    0 -0.00000000000E+00 -0.00000000000E+00  0.11368683772E-12  0.17120000000E+03  0.17120000000E+03 0.  0.
         13    1    1    2    0    0 -0.10894920554E+02 -0.67516642361E+01  0.50591436706E+02  0.52189930982E+02  0.10566000000E+00 0.  1.
        994    1    1    2    0    0  0.51729351564E+01 -0.34178882632E+00  0.17491208841E+01  0.17128740614E+03  0.17120000000E+03 0.  0.
        998    1    1    2    0    0  0.57219853973E+01  0.70934530624E+01  0.14476594387E+04  0.14477226629E+04  0.10000000000E+02 0.  1.
</event>
<event>
 5    1  0.1338054E-008  0.3854017E+03  0.7957747E-01  0.3427970E+00
         13   -1    0    0    0    0  0.00000000000E+00  0.00000000000E+00  0.14999999963E+04  0.15000000000E+04  0.10566000000E+00 0.  1.
        994   -1    0    0    0    0 -0.00000000000E+00 -0.00000000000E+00  0.11368683772E-12  0.17120000000E+03  0.17120000000E+03 0.  0.
         13    1    1    2    0    0  0.11319032424E+02  0.94544580058E+01  0.74671489523E+02  0.76114057721E+02  0.10566000000E+00 0.  1.
        994    1    1    2    0    0 -0.96380155950E+01 -0.82756799551E+01  0.19610410377E+01  0.17168186831E+03  0.17120000000E+03 0.  0.
        998    1    1    2    0    0 -0.16810168294E+01 -0.11787780507E+01  0.14233674657E+04  0.14234040740E+04  0.10000000000E+02 0.  1.
</event>
<event>
 5    1  0.1338054E-008  0.3846149E+03  0.7957747E-01  0.3431307E+00
         13   -1    0    0    0    0  0.00000000000E+00  0.00000000000E+00  0.14999999963E+04  0.15000000000E+04  0.10566000000E+00 0. -1.
        994   -1    0    0    0    0 -0.00000000000E+00 -0.00000000000E+00  0.11368683772E-12  0.17120000000E+03  0.17120000000E+03 0.  0.
         13    1    1    2    0    0 -0.61614867552E+00 -0.14640972983E+02  0.61110862699E+02  0.62843348359E+02  0.10566000000E+00 0. -1.
        994    1    1    2    0    0  0.70451534402E+01  0.27317362043E+01  0.20094663041E+01  0.17137845408E+03  0.17120000000E+03 0.  0.
        998    1    1    2    0    0 -0.64290047647E+01  0.11909236778E+02  0.14368796673E+04  0.14369781976E+04  0.10000000000E+02 0. -1.
</event>
<event>
 5    1  0.1338054E-008  0.3719356E+03  0.7957747E-01  0.3487042E+00
         13   -1    0    0    0    0  0.00000000000E+00  0.00000000000E+00  0.14999999963E+04  0.15000000000E+04  0.10566000000E+00 0.  1.
        994   -1    0    0    0    0 -0.00000000000E+00 -0.00000000000E+00  0.11368683772E-12  0.17120000000E+03  0.17120000000E+03 0.  0.
         13    1    1    2    0    0  0.10372346247E+03 -0.90381829162E+02  0.48562655082E+03  0.50473813977E+03  0.10566000000E+00 0.  1.
        994    1    1    2    0    0 -0.10748451271E+03  0.92325580081E+02  0.86416151854E+02  0.23844102942E+03  0.17120000000E+03 0.  0.
        998    1    1    2    0    0  0.37610502401E+01 -0.19437509190E+01  0.92795729361E+03  0.92802083081E+03  0.10000000000E+02 0.  0.
</event>
<event>
 5    1  0.1338054E-008  0.3780918E+03  0.7957747E-01  0.3459509E+00
         13   -1    0    0    0    0  0.00000000000E+00  0.00000000000E+00  0.14999999963E+04  0.15000000000E+04  0.10566000000E+00 0. -1.
        994   -1    0    0    0    0 -0.00000000000E+00 -0.00000000000E+00  0.11368683772E-12  0.17120000000E+03  0.17120000000E+03 0.  0.
         13    1    1    2    0    0 -0.27618432652E+02 -0.30467807524E+02  0.16845312753E+03  0.17339992057E+03  0.10566000000E+00 0. -1.
        994    1    1    2    0    0  0.59592735177E+01  0.21344112737E+02  0.67533077032E+01  0.17276032894E+03  0.17120000000E+03 0.  0.
        998    1    1    2    0    0  0.21659159134E+02  0.91236947872E+01  0.13247935610E+04  0.13250397505E+04  0.10000000000E+02 0. -1.
</event>
<event>
 5    1  0.1338054E-008  0.3812879E+03  0.7957747E-01  0.3445570E+00
         13   -1    0    0    0    0  0.00000000000E+00  0.00000000000E+00  0.14999999963E+04  0.15000000000E+04  0.10566000000E+00 0. -1.
        994   -1    0    0    0    0 -0.00000000000E+00 -0.00000000000E+00  0.11368683772E-12  0.17120000000E+03  0.17120000000E+03 0.  0.
         13    1    1    2    0    0  0.20950605218E+02  0.19746779496E+02  0.13494584066E+03  0.13798280413E+03  0.10566000000E+00 0. -1.
        994    1    1    2    0    0 -0.57712916199E+01  0.10740885061E+02  0.39795090819E+01  0.17167979180E+03  0.17120000000E+03 0.  0.
        998    1    1    2    0    0 -0.15179313598E+02 -0.30487664557E+02  0.13610746465E+04  0.13615374041E+04  0.10000000000E+02 0. -1.
</event>
<event>
 5    1  0.1338054E-008  0.3829345E+03  0.7957747E-01  0.3438480E+00
         13   -1    0    0    0    0  0.00000000000E+00  0.00000000000E+00  0.14999999963E+04  0.15000000000E+04  0.10566000000E+00 0.  1.
        994   -1    0    0    0    0 -0.00000000000E+00 -0.00000000000E+00  0.11368683772E-12  0.17120000000E+03  0.17120000000E+03 0.  0.
         13    1    1    2    0    0 -0.76737349931E+01 -0.81088898537E+01  0.23330959099E+02  0.25864746663E+02  0.10566000000E+00 0.  1.
        994    1    1    2    0    0  0.36542785904E+01 -0.86315492379E+01  0.29500447417E+01  0.17148177792E+03  0.17120000000E+03 0.  0.
        998    1    1    2    0    0  0.40194564027E+01  0.16740439092E+02  0.14737189924E+04  0.14738534754E+04  0.10000000000E+02 0.  1.
</event>
<event>
 5    1  0.1338054E-008  0.3836196E+03  0.7957747E-01  0.3435548E+00
         13   -1    0    0    0    0  0.00000000000E+00  0.00000000000E+00  0.14999999963E+04  0.15000000000E+04  0.10566000000E+00 0.  1.
        994   -1    0    0    0    0 -0.00000000000E+00 -0.00000000000E+00  0.11368683772E-12  0.17120000000E+03  0.17120000000E+03 0.  0.
         13    1    1    2    0    0  0.15052855404E+02 -0.92572783814E+01  0.65056715894E+02  0.67414190686E+02  0.10566000000E+00 0.  1.
        994    1    1    2    0    0 -0.15187657942E+02  0.67063411465E+01  0.32281013667E+01  0.17203342874E+03  0.17120000000E+03 0.  0.
        998    1    1    2    0    0  0.13480253791E+00  0.25509372349E+01  0.14317151790E+04  0.14317523806E+04  0.10000000000E+02 0.  1.
</event>
<event>
 5    1  0.1338054E-008  0.3793090E+03  0.7957747E-01  0.3454173E+00
         13   -1    0    0    0    0  0.00000000000E+00  0.00000000000E+00  0.14999999963E+04  0.15000000000E+04  0.10566000000E+00 0. -1.
        994   -1    0    0    0    0 -0.00000000000E+00 -0.00000000000E+00  0.11368683772E-12  0.17120000000E+03  0.17120000000E+03 0.  0.
         13    1    1    2    0    0 -0.53997275778E+02  0.49528901982E+02  0.41329739040E+03  0.41974225663E+03  0.10566000000E+00 0. -1.
        994    1    1    2    0    0  0.50960083337E+02 -0.59008779321E+02  0.25127446708E+02  0.18978881608E+03  0.17120000000E+03 0.  0.
        998    1    1    2    0    0  0.30371924412E+01  0.94798773389E+01  0.10615751592E+04  0.10616689273E+04  0.10000000000E+02 0. -1.
</event>
<event>
 5    1  0.1338054E-008  0.3837206E+03  0.7957747E-01  0.3435117E+00
         13   -1    0    0    0    0  0.00000000000E+00  0.00000000000E+00  0.14999999963E+04  0.15000000000E+04  0.10566000000E+00 0.  1.
        994   -1    0    0    0    0 -0.00000000000E+00 -0.00000000000E+00  0.11368683772E-12  0.17120000000E+03  0.17120000000E+03 0.  0.
         13    1    1    2    0    0  0.24578509064E+02  0.42401786477E+01  0.13284759119E+03  0.13516869413E+03  0.10566000000E+00 0.  1.
        994    1    1    2    0    0 -0.19952793480E+02  0.44141806951E+01  0.36469548081E+01  0.17245387568E+03  0.17120000000E+03 0.  0.
        998    1    1    2    0    0 -0.46257155841E+01 -0.86543593428E+01  0.13635054503E+04  0.13635774302E+04  0.10000000000E+02 0.  1.
</event>
<event>
 5    1  0.1338054E-008  0.3802612E+03  0.7957747E-01  0.3450022E+00
         13   -1    0    0    0    0  0.00000000000E+00  0.00000000000E+00  0.14999999963E+04  0.15000000000E+04  0.10566000000E+00 0. -1.
        994   -1    0    0    0    0 -0.00000000000E+00 -0.00000000000E+00  0.11368683772E-12  0.17120000000E+03  0.17120000000E+03 0.  0.
         13    1    1    2    0    0 -0.54267409958E+01 -0.15705889241E+02  0.31078406978E+02  0.35242063205E+02  0.10566000000E+00 0. -1.
        994    1    1    2    0    0 -0.89695107894E+01  0.34418706545E+02  0.82384126935E+01  0.17504973844E+03  0.17120000000E+03 0.  0.
        998    1    1    2    0    0  0.14396251785E+02 -0.18712817304E+02  0.14606831766E+04  0.14609081984E+04  0.10000000000E+02 0. -1.
</event>
<event>
 5    1  0.1338054E-008  0.3716177E+03  0.7957747E-01  0.3488489E+00
         13   -1    0    0    0    0  0.00000000000E+00  0.00000000000E+00  0.14999999963E+04  0.15000000000E+04  0.10566000000E+00 0. -1.
        994   -1    0    0    0    0 -0.00000000000E+00 -0.00000000000E+00  0.11368683772E-12  0.17120000000E+03  0.17120000000E+03 0.  0.
         13    1    1    2    0    0  0.22152251283E+02  0.93102584636E+01  0.20773985988E+02  0.31764332316E+02  0.10566000000E+00 0. -1.
        994    1    1    2    0    0  0.99834001862E+01  0.33229045748E+01  0.12186094867E+02  0.17195537468E+03  0.17120000000E+03 0.  0.
        998    1    1    2    0    0 -0.32135651470E+02 -0.12633163038E+02  0.14670399154E+04  0.14674802930E+04  0.10000000000E+02 0. -1.
</event>
<event>
 5    1  0.1338054E-008  0.3850020E+03  0.7957747E-01  0.3429664E+00
         13   -1    0    0    0    0  0.00000000000E+00  0.00000000000E+00  0.14999999963E+04  0.15000000000E+04  0.10566000000E+00 0.  1.
        994   -1    0    0    0    0 -0.00000000000E+00 -0.00000000000E+00  0.11368683772E-12  0.17120000000E+03  0.17120000000E+03 0.  0.
         13    1    1    2    0    0 -0.12297542815E+02 -0.55017135446E+00  0.47250511215E+02  0.48827801732E+02  0.10566000000E+00 0.  1.
        994    1    1    2    0    0  0.52239818759E+01 -0.36875493393E+01  0.17636268602E+01  0.17132845177E+03  0.17120000000E+03 0.  0.
        998    1    1    2    0    0  0.70735609396E+01  0.42377206937E+01  0.14509858582E+04  0.14510437465E+04  0.10000000000E+02 0.  1.
</event>
<event>
 5    1  0.1338054E-008  0.3777814E+03  0.7957747E-01  0.3460876E+00
         13   -1    0    0    0    0  0.00000000000E+00  0.00000000000E+00  0.14999999963E+04  0.15000000000E+04  0.10566000000E+00 0. -1.
        994   -1    0    0    0    0 -0.00000000000E+00 -0.00000000000E+00  0.11368683772E-12  0.17120000000E+03  0.17120000000E+03 0.  0.
         13    1    1    2    0    0  0.21891690546E+01  0.30466256210E+02  0.88673339945E+02  0.93786766709E+02  0.10566000000E+00 0. -1.
        994    1    1    2    0    0 -0.17245491771E+01 -0.14011339931E+02  0.59287382024E+01  0.17188333733E+03  0.17120000000E+03 0.  0.
        998    1    1    2    0    0 -0.46461987755E+00 -0.16454916279E+02  0.14053979181E+04  0.14055298960E+04  0.10000000000E+02 0. -1.
</event>
<event>
 5    1  0.1338054E-008  0.3857741E+03  0.7957747E-01  0.3426396E+00
         13   -1    0    0    0    0  0.00000000000E+00  0.00000000000E+00  0.14999999963E+04  0.15000000000E+04  0.10566000000E+00 0. -1.
        994   -1    0    0    0    0 -0.00000000000E+00 -0.00000000000E+00  0.11368683772E-12  0.17120000000E+03  0.17120000000E+03 0.  0.
         13    1    1    2    0    0 -0.82949115158E+01 -0.79456814937E+01  0.52886075447E+02  0.54119197626E+02  0.10566000000E+00 0. -1.
        994    1    1    2    0    0  0.87177095509E+01  0.40833826611E+01  0.15503788728E+01  0.17147745085E+03  0.17120000000E+03 0.  0.
        998    1    1    2    0    0 -0.42279803510E+00  0.38622988326E+01  0.14455635420E+04  0.14456033515E+04  0.10000000000E+02 0. -1.
</event>
<event>
 5    1  0.1338054E-008  0.3822494E+03  0.7957747E-01  0.3441422E+00
         13   -1    0    0    0    0  0.00000000000E+00  0.00000000000E+00  0.14999999963E+04  0.15000000000E+04  0.10566000000E+00 0.  1.
        994   -1    0    0    0    0 -0.00000000000E+00 -0.00000000000E+00  0.11368683772E-12  0.17120000000E+03  0.17120000000E+03 0.  0.
         13    1    1    2    0    0 -0.14974036931E+02 -0.19072269007E+02  0.93420797259E+02  0.96516473991E+02  0.10566000000E+00 0.  1.
        994    1    1    2    0    0  0.17056336216E+02  0.14055980103E+02  0.46245599363E+01  0.17268270248E+03  0.17120000000E+03 0.  0.
        998    1    1    2    0    0 -0.20822992845E+01  0.50162889036E+01  0.14019546391E+04  0.14020008235E+04  0.10000000000E+02 0.  1.
</event>
<event>
 5    1  0.1338054E-008  0.3822709E+03  0.7957747E-01  0.3441330E+00
         13   -1    0    0    0    0  0.00000000000E+00  0.00000000000E+00  0.14999999963E+04  0.15000000000E+04  0.10566000000E+00 0.  1.
        994   -1    0    0    0    0 -0.00000000000E+00 -0.00000000000E+00  0.11368683772E-12  0.17120000000E+03  0.17120000000E+03 0.  0.
         13    1    1    2    0    0 -0.36579322245E+01  0.26319715514E+02  0.97336534463E+02  0.10089856291E+03  0.10566000000E+00 0.  1.
        994    1    1    2    0    0 -0.38848443431E+02 -0.56508964234E+02  0.18754121269E+02  0.18537427454E+03  0.17120000000E+03 0.  0.
        998    1    1    2    0    0  0.42506375655E+02  0.30189248720E+02  0.13839093405E+04  0.13849271625E+04  0.10000000000E+02 0.  1.
</event>
<event>
 5    1  0.1338054E-008  0.3770431E+03  0.7957747E-01  0.3464136E+00
         13   -1    0    0    0    0  0.00000000000E+00  0.00000000000E+00  0.14999999963E+04  0.15000000000E+04  0.10566000000E+00 0.  1.
        994   -1    0    0    0    0 -0.00000000000E+00 -0.00000000000E+00  0.11368683772E-12  0.17120000000E+03  0.17120000000E+03 0.  0.
         13    1    1    2    0    0  0.10438632141E+03 -0.32289233377E+03  0.59070637947E+03  0.68124151461E+03  0.10566000000E+00 0.  1.
        994    1    1    2    0    0 -0.93617288304E+02  0.31364641358E+03  0.82538199214E+03  0.90426939701E+03  0.17120000000E+03 0.  0.
        998    1    1    2    0    0 -0.10769033102E+02  0.92459201917E+01  0.83911624669E+02  0.85689088388E+02  0.10000000000E+02 0.  1.
</event>
<event>
 5    1  0.1338054E-008  0.3748450E+03  0.7957747E-01  0.3473916E+00
         13   -1    0    0    0    0  0.00000000000E+00  0.00000000000E+00  0.14999999963E+04  0.15000000000E+04  0.10566000000E+00 0.  1.
        994   -1    0    0    0    0 -0.00000000000E+00 -0.00000000000E+00  0.11368683772E-12  0.17120000000E+03  0.17120000000E+03 0.  0.
         13    1    1    2    0    0 -0.20976969314E+02  0.55933865145E+02  0.23929821105E+03  0.24664199863E+03  0.10566000000E+00 0.  1.
        994    1    1    2    0    0 -0.24568929448E+02 -0.63177578363E+02  0.22550117506E+02  0.18550737587E+03  0.17120000000E+03 0.  0.
        998    1    1    2    0    0  0.45545898762E+02  0.72437132188E+01  0.12381516677E+04  0.12390506255E+04  0.10000000000E+02 0.  1.
</event>
<event>
 5    1  0.1338054E-008  0.3846262E+03  0.7957747E-01  0.3431259E+00
         13   -1    0    0    0    0  0.00000000000E+00  0.00000000000E+00  0.14999999963E+04  0.15000000000E+04  0.10566000000E+00 0.  1.
        994   -1    0    0    0    0 -0.00000000000E+00 -0.00000000000E+00  0.11368683772E-12  0.17120000000E+03  0.17120000000E+03 0.  0.
         13    1    1    2    0    0 -0.88655225022E+00  0.11658443783E+02  0.38567384019E+02  0.40300863023E+02  0.10566000000E+00 0.  1.
        994    1    1    2    0    0  0.47365447038E+01 -0.69900127918E+00  0.18913335833E+01  0.17127737913E+03  0.17120000000E+03 0.  0.
        998    1    1    2    0    0 -0.38499924536E+01 -0.10959442504E+02  0.14595412787E+04  0.14596217578E+04  0.10000000000E+02 0.  1.
</event>
<event>
 5    1  0.1338054E-008  0.3134169E+03  0.7957747E-01  0.3804658E+00
         13   -1    0    0    0    0  0.00000000000E+00  0.00000000000E+00  0.14999999963E+04  0.15000000000E+04  0.10566000000E+00 0. -1.
        994   -1    0    0    0    0 -0.00000000000E+00 -0.00000000000E+00  0.11368683772E-12  0.17120000000E+03  0.17120000000E+03 0.  0.
         13    1    1    2    0    0  0.84958409703E+02  0.15164569924E+03  0.95737036630E+03  0.97302229107E+03  0.10566000000E+00 0. -1.
        994    1    1    2    0    0 -0.29034629967E+02 -0.56403674268E+02  0.44591627453E+02  0.18794211196E+03  0.17120000000E+03 0.  0.
        998    1    1    2    0    0 -0.55923779736E+02 -0.95242024977E+02  0.49803800252E+03  0.51023559698E+03  0.10000000000E+02 0. -1.
</event>
<event>
 5    1  0.1338054E-008  0.3826605E+03  0.7957747E-01  0.3439655E+00
         13   -1    0    0    0    0  0.00000000000E+00  0.00000000000E+00  0.14999999963E+04  0.15000000000E+04  0.10566000000E+00 0.  1.
        994   -1    0    0    0    0 -0.00000000000E+00 -0.00000000000E+00  0.11368683772E-12  0.17120000000E+03  0.17120000000E+03 0.  0.
         13    1    1    2    0    0 -0.24871383307E+02 -0.14586730857E+02  0.14931285046E+03  0.15207135463E+03  0.10566000000E+00 0.  1.
        994    1    1    2    0    0  0.13086961263E+02  0.89763147066E+01  0.36311331483E+01  0.17197228820E+03  0.17120000000E+03 0.  0.
        998    1    1    2    0    0  0.11784422044E+02  0.56104161506E+01  0.13470560127E+04  0.13471563572E+04  0.10000000000E+02 0.  1.
</event>
<event>
 5    1  0.1338054E-008  0.3747840E+03  0.7957747E-01  0.3474190E+00
         13   -1    0    0    0    0  0.00000000000E+00  0.00000000000E+00  0.14999999963E+04  0.15000000000E+04  0.10566000000E+00 0.  1.
        994   -1    0    0    0    0 -0.00000000000E+00 -0.00000000000E+00  0.11368683772E-12  0.17120000000E+03  0.17120000000E+03 0.  0.
         13    1    1    2    0    0  0.11246683720E+02  0.14981503288E+02  0.22137736497E+02  0.29000411664E+02  0.10566000000E+00 0.  1.
        994    1    1    2    0    0  0.45942917384E+01 -0.37603609185E+02  0.11687232594E+02  0.17573039107E+03  0.17120000000E+03 0.  0.
        998    1    1    2    0    0 -0.15840975458E+02  0.22622105897E+02  0.14661750272E+04  0.14664691973E+04  0.10000000000E+02 0.  1.
</event>
<event>
 5    1  0.1338054E-008  0.3817298E+03  0.7957747E-01  0.3443661E+00
         13   -1    0    0    0    0  0.00000000000E+00  0.00000000000E+00  0.14999999963E+04  0.15000000000E+04  0.10566000000E+00 0. -1.
        994   -1    0    0    0    0 -0.00000000000E+00 -0.00000000000E+00  0.11368683772E-12  0.17120000000E+03  0.17120000000E+03 0.  0.
         13    1    1    2    0    0 -0.98229795758E+01 -0.94030035625E+01  0.25893246151E+02  0.29246859045E+02  0.10566000000E+00 0. -1.
        994    1    1    2    0    0  0.19752675048E+02  0.13552368490E+02  0.51722227389E+01  0.17294515533E+03  0.17120000000E+03 0.  0.
        998    1    1    2    0    0 -0.99296954718E+01 -0.41493649274E+01  0.14689345274E+04  0.14690079856E+04  0.10000000000E+02 0. -1.
</event>
<event>
 5    1  0.1338054E-008  0.3834540E+03  0.7957747E-01  0.3436255E+00
         13   -1    0    0    0    0  0.00000000000E+00  0.00000000000E+00  0.14999999963E+04  0.15000000000E+04  0.10566000000E+00 0.  1.
        994   -1    0    0    0    0 -0.00000000000E+00 -0.00000000000E+00  0.11368683772E-12  0.17120000000E+03  0.17120000000E+03 0.  0.
         13    1    1    2    0    0 -0.22470024636E+02 -0.16367075823E+02  0.14798816652E+03  0.15057653128E+03  0.10566000000E+00 0.  1.
        994    1    1    2    0    0  0.23468972926E+02  0.13277826922E+02  0.48065366755E+01  0.17337715009E+03  0.17120000000E+03 0.  0.
        998    1    1    2    0    0 -0.99894828961E+00  0.30892489015E+01  0.13472052931E+04  0.13472463186E+04  0.10000000000E+02 0.  1.
</event>
<event>
 5    1  0.1338054E-008  0.3730815E+03  0.7957747E-01  0.3481848E+00
         13   -1    0    0    0    0  0.00000000000E+00  0.00000000000E+00  0.14999999963E+04  0.15000000000E+04  0.10566000000E+00 0. -1.
        994   -1    0    0    0    0 -0.00000000000E+00 -0.00000000000E+00  0.11368683772E-12  0.17120000000E+03  0.17120000000E+03 0.  0.
         13    1    1    2    0    0  0.17815061451E+02  0.23585482673E+02  0.57123445190E+02  0.64317575840E+02  0.10566000000E+00 0. -1.
        994    1    1    2    0    0  0.96846158777E+01 -0.95912124492E+01  0.83030936377E+01  0.17194232901E+03  0.17120000000E+03 0.  0.
        998    1    1    2    0    0 -0.27499677329E+02 -0.13994270224E+02  0.14345734575E+04  0.14349400952E+04  0.10000000000E+02 0. -1.
</event>
<event>
 5    1  0.1338054E-008  0.3753304E+03  0.7957747E-01  0.3471746E+00
         13   -1    0    0    0    0  0.00000000000E+00  0.00000000000E+00  0.14999999963E+04  0.15000000000E+04  0.10566000000E+00 0.  1.
        994   -1    0    0    0    0 -0.00000000000E+00 -0.00000000000E+00  0.11368683772E-12  0.17120000000E+03  0.17120000000E+03 0.  0.
         13    1    1    2    0    0  0.31352409150E+02 -0.64907277684E+02  0.32338678143E+03  0.33132302942E+03  0.10566000000E+00 0.  1.
        994    1    1    2    0    0 -0.23479983335E+02  0.63734119503E+02  0.22338068649E+02  0.18553106726E+03  0.17120000000E+03 0.  0.
        998    1    1    2    0    0 -0.78724258151E+01  0.11731581804E+01  0.11542751462E+04  0.11543459033E+04  0.10000000000E+02 0.  1.
</event>
<event>
 5    1  0.1338054E-008  0.3831047E+03  0.7957747E-01  0.3437750E+00
         13   -1    0    0    0    0  0.00000000000E+00  0.00000000000E+00  0.14999999963E+04  0.15000000000E+04  0.10566000000E+00 0. -1.
        994   -1    0    0    0    0 -0.00000000000E+00 -0.00000000000E+00  0.11368683772E-12  0.17120000000E+03  0.17120000000E+03 0.  0.
         13    1    1    2    0    0  0.27294874149E+02 -0.57547828600E+01  0.14048252339E+03  0.14322527090E+03  0.10566000000E+00 0. -1.
        994    1    1    2    0    0 -0.24709430868E+02  0.80763975377E+01  0.48134160421E+01  0.17322930799E+03  0.17120000000E+03 0.  0.
        998    1    1    2    0    0 -0.25854432817E+01 -0.23216146777E+01  0.13547040568E+04  0.13547454211E+04  0.10000000000E+02 0. -1.
</event>
<event>
 5    1  0.1338054E-008  0.3839736E+03  0.7957747E-01  0.3434037E+00
         13   -1    0    0    0    0  0.00000000000E+00  0.00000000000E+00  0.14999999963E+04  0.15000000000E+04  0.10566000000E+00 0. -1.
        994   -1    0    0    0    0 -0.00000000000E+00 -0.00000000000E+00  0.11368683772E-12  0.17120000000E+03  0.17120000000E+03 0.  0.
         13    1    1    2    0    0  0.17679325637E+02 -0.74293182451E+01  0.84591809763E+02  0.86738335052E+02  0.10566000000E+00 0. -1.
        994    1    1    2    0    0 -0.14621658527E+02  0.10021416235E+01  0.28496601976E+01  0.17184981161E+03  0.17120000000E+03 0.  0.
        998    1    1    2    0    0 -0.30576671097E+01  0.64271766216E+01  0.14125585263E+04  0.14126118533E+04  0.10000000000E+02 0. -1.
</event>
<event>
 5    1  0.2672399E-008  0.3863212E+03  0.7957747E-01  0.3424088E+00
         13   -1    0    0    0    0  0.00000000000E+00  0.00000000000E+00  0.14999999963E+04  0.15000000000E+04  0.10566000000E+00 0. -1.
        994   -1    0    0    0    0 -0.00000000000E+00 -0.00000000000E+00  0.11368683772E-12  0.17120000000E+03  0.17120000000E+03 0.  0.
         13    1    1    2    0    0  0.84208851757E+01 -0.84412156704E+01  0.70622929578E+02  0.71622446031E+02  0.10566000000E+00 0. -1.
        994    1    1    2    0    0 -0.10022030736E+02  0.93267236075E+01  0.15895849032E+01  0.17175388104E+03  0.17120000000E+03 0.  0.
        998    1    1    2    0    0  0.16011455604E+01 -0.88550793712E+00  0.14277874818E+04  0.14278236729E+04  0.10000000000E+02 0. -1.
</event>
<event>
 5    1  0.1338054E-008  0.3771760E+03  0.7957747E-01  0.3463548E+00
         13   -1    0    0    0    0  0.00000000000E+00  0.00000000000E+00  0.14999999963E+04  0.15000000000E+04  0.10566000000E+00 0. -1.
        994   -1    0    0    0    0 -0.00000000000E+00 -0.00000000000E+00  0.11368683772E-12  0.17120000000E+03  0.17120000000E+03 0.  0.
         13    1    1    2    0    0 -0.84824734438E+01  0.83934961111E+01  0.10217564576E+02  0.15710280793E+02  0.10566000000E+00 0. -1.
        994    1    1    2    0    0  0.75678760477E+01 -0.96740180026E+01  0.60747403546E+01  0.17174749443E+03  0.17120000000E+03 0.  0.
        998    1    1    2    0    0  0.91459739607E+00  0.12805218915E+01  0.14837076913E+04  0.14837422248E+04  0.10000000000E+02 0. -1.
</event>
<event>
 5    1  0.1338054E-008  0.3857482E+03  0.7957747E-01  0.3426505E+00
         13   -1    0    0    0    0  0.00000000000E+00  0.00000000000E+00  0.14999999963E+04  0.15000000000E+04  0.10566000000E+00 0.  1.
        994   -1    0    0    0    0 -0.00000000000E+00 -0.00000000000E+00  0.11368683772E-12  0.17120000000E+03  0.17120000000E+03 0.  0.
         13    1    1    2    0    0  0.54413126797E+01  0.94780139008E+01  0.54423482636E+02  0.55510064470E+02  0.10566000000E+00 0.  1.
        994    1    1    2    0    0  0.12654522980E+02  0.64272991704E+01  0.19202873203E+01  0.17179806352E+03  0.17120000000E+03 0.  0.
        998    1    1    2    0    0 -0.18095835660E+02 -0.15905313071E+02  0.14436562263E+04  0.14438918720E+04  0.10000000000E+02 0.  1.
</event>
<event>
 5    1  0.1542494E-008  0.3854081E+03  0.7957747E-01  0.3427943E+00
         13   -1    0    0    0    0  0.00000000000E+00  0.00000000000E+00  0.14999999963E+04  0.15000000000E+04  0.10566000000E+00 0. -1.
        994   -1    0    0    0    0 -0.00000000000E+00 -0.00000000000E+00  0.11368683772E-12  0.17120000000E+03  0.17120000000E+03 0.  0.
         13    1    1    2    0    0 -0.68857040999E+01  0.11750718385E+02  0.63173838547E+02  0.64625361464E+02  0.10566000000E+00 0. -1.
        994    1    1    2    0    0  0.51406760698E+01 -0.13063019770E+02  0.20751513487E+01  0.17178712201E+03  0.17120000000E+03 0.  0.
        998    1    1    2    0    0  0.17450280300E+01  0.13123013845E+01  0.14347510064E+04  0.14347875165E+04  0.10000000000E+02 0.  0.
</event>
<event>
 5    1  0.1338054E-008  0.3854057E+03  0.7957747E-01  0.3427954E+00
         13   -1    0    0    0    0  0.00000000000E+00  0.00000000000E+00  0.14999999963E+04  0.15000000000E+04  0.10566000000E+00 0. -1.
        994   -1    0    0    0    0 -0.00000000000E+00 -0.00000000000E+00  0.11368683772E-12  0.17120000000E+03  0.17120000000E+03 0.  0.
         13    1    1    2    0    0  0.53964091568E+00  0.16907309052E+02  0.94870785123E+02  0.96367138308E+02  0.10566000000E+00 0. -1.
        994    1    1    2    0    0 -0.85021768380E+00 -0.18019535910E+02  0.24984049056E+01  0.17216593325E+03  0.17120000000E+03 0.  0.
        998    1    1    2    0    0  0.31057676812E+00  0.11122268583E+01  0.14026308062E+04  0.14026669284E+04  0.10000000000E+02 0. -1.
</event>
<event>
 5    1  0.1338054E-008  0.3817059E+03  0.7957747E-01  0.3443764E+00
         13   -1    0    0    0    0  0.00000000000E+00  0.00000000000E+00  0.14999999963E+04  0.15000000000E+04  0.10566000000E+00 0.  1.
        994   -1    0    0    0    0 -0.00000000000E+00 -0.00000000000E+00  0.11368683772E-12  0.17120000000E+03  0.17120000000E+03 0.  0.
         13    1    1    2    0    0 -0.11564938608E+02  0.18929628236E+01  0.19592595671E+02  0.22830069698E+02  0.10566000000E+00 0.  1.
        994    1    1    2    0    0  0.92229748838E+01 -0.17445274993E+01  0.35674269109E+01  0.17149423657E+03  0.17120000000E+03 0.  0.
        998    1    1    2    0    0  0.23419637247E+01 -0.14843532433E+00  0.14768399737E+04  0.14768756937E+04  0.10000000000E+02 0.  1.
</event>
<event>
 5    1  0.1338054E-008  0.3770420E+03  0.7957747E-01  0.3464140E+00
         13   -1    0    0    0    0  0.00000000000E+00  0.00000000000E+00  0.14999999963E+04  0.15000000000E+04  0.10566000000E+00 0.  1.
        994   -1    0    0    0    0 -0.00000000000E+00 -0.00000000000E+00  0.11368683772E-12  0.17120000000E+03  0.17120000000E+03 0.  0.
         13    1    1    2    0    0  0.25101073957E+01 -0.11933332040E+02  0.10845274567E+02  0.16319809962E+02  0.10566000000E+00 0.  1.
        994    1    1    2    0    0 -0.77979259784E+01  0.43189641620E+00  0.58397646261E+01  0.17147751175E+03  0.17120000000E+03 0.  0.
        998    1    1    2    0    0  0.52878185827E+01  0.11501435624E+02  0.14833149571E+04  0.14834026783E+04  0.10000000000E+02 0.  1.
</event>
<event>
 5    1  0.1338054E-008  0.3785871E+03  0.7957747E-01  0.3457334E+00
         13   -1    0    0    0    0  0.00000000000E+00  0.00000000000E+00  0.14999999963E+04  0.15000000000E+04  0.10566000000E+00 0.  1.
        994   -1    0    0    0    0 -0.00000000000E+00 -0.00000000000E+00  0.11368683772E-12  0.17120000000E+03  0.17120000000E+03 0.  0.
         13    1    1    2    0    0 -0.36084895042E+01  0.28320377082E+02  0.77999373258E+02  0.83060088774E+02  0.10566000000E+00 0.  1.
        994    1    1    2    0    0  0.65686403594E+01 -0.29773831308E+02  0.79766077122E+01  0.17407669097E+03  0.17120000000E+03 0.  0.
        998    1    1    2    0    0 -0.29601508552E+01  0.14534542266E+01  0.14140240153E+04  0.14140632203E+04  0.10000000000E+02 0.  1.
</event>
<event>
 5    1  0.1338054E-008  0.3857409E+03  0.7957747E-01  0.3426536E+00
         13   -1    0    0    0    0  0.00000000000E+00  0.00000000000E+00  0.14999999963E+04  0.15000000000E+04  0.10566000000E+00 0.  1.
        994   -1    0    0    0    0 -0.00000000000E+00 -0.00000000000E+00  0.11368683772E-12  0.17120000000E+03  0.17120000000E+03 0.  0.
         13    1    1    2    0    0  0.83375712053E+01 -0.99273355390E+01  0.76332420830E+02  0.77425555977E+02  0.10566000000E+00 0.  1.
        994    1    1    2    0    0  0.10054449462E+02 -0.14602510817E+01  0.16014920835E+01  0.17150868510E+03  0.17120000000E+03 0.  0.
        998    1    1    2    0    0 -0.18392020667E+02  0.11387586621E+02  0.14220660834E+04  0.14222657589E+04  0.10000000000E+02 0.  1.
</event>
<event>
 5    1  0.1338054E-008  0.3831003E+03  0.7957747E-01  0.3437769E+00
         13   -1    0    0    0    0  0.00000000000E+00  0.00000000000E+00  0.14999999963E+04  0.15000000000E+04  0.10566000000E+00 0. -1.
        994   -1    0    0    0    0 -0.00000000000E+00 -0.00000000000E+00  0.11368683772E-12  0.17120000000E+03  0.17120000000E+03 0.  0.
         13    1    1    2    0    0  0.20077207103E+02 -0.12264261366E+02  0.10065062681E+03  0.10336375667E+03  0.10566000000E+00 0. -1.
        994    1    1    2    0    0 -0.20598401779E+02  0.11923949766E+02  0.44529661564E+01  0.17290385664E+03  0.17120000000E+03 0.  0.
        998    1    1    2    0    0  0.52119467589E+00  0.34031160041E+00  0.13948964033E+04  0.13949323867E+04  0.10000000000E+02 0.  0.
</event>
<event>
 5    1  0.2392184E-008  0.3865089E+03  0.7957747E-01  0.3423298E+00
         13   -1    0    0    0    0  0.00000000000E+00  0.00000000000E+00  0.14999999963E+04  0.15000000000E+04  0.10566000000E+00 0.  1.
        994   -1    0    0    0    0 -0.00000000000E+00 -0.00000000000E+00  0.11368683772E-12  0.17120000000E+03  0.17120000000E+03 0.  0.
         13    1    1    2    0    0 -0.74383930759E+01  0.67403954732E+01  0.57214020199E+02  0.58088018507E+02  0.10566000000E+00 0.  1.
        994    1    1    2    0    0  0.56483258864E+01 -0.74676503903E+01  0.11698155197E+01  0.17145984328E+03  0.17120000000E+03 0.  0.
        998    1    1    2    0    0  0.17900671895E+01  0.72725491704E+00  0.14416161606E+04  0.14416521382E+04  0.10000000000E+02 0.  1.
</event>
<event>
 5    1  0.1338054E-008  0.3833266E+03  0.7957747E-01  0.3436800E+00
         13   -1    0    0    0    0  0.00000000000E+00  0.00000000000E+00  0.14999999963E+04  0.15000000000E+04  0.10566000000E+00 0. -1.
        994   -1    0    0    0    0 -0.00000000000E+00 -0.00000000000E+00  0.11368683772E-12  0.17120000000E+03  0.17120000000E+03 0.  0.
         13    1    1    2    0    0 -0.37186047428E+00  0.35596049014E+02  0.21421310617E+03  0.21715083008E+03  0.10566000000E+00 0. -1.
        994    1    1    2    0    0 -0.43948670646E+01 -0.39891219293E+02  0.78072020037E+01  0.17601425123E+03  0.17120000000E+03 0.  0.
        998    1    1    2    0    0  0.47667275388E+01  0.42951702788E+01  0.12779796881E+04  0.12780349187E+04  0.10000000000E+02 0. -1.
</event>
<event>
 5    1  0.1338054E-008  0.3775426E+03  0.7957747E-01  0.3461929E+00
         13   -1    0    0    0    0  0.00000000000E+00  0.00000000000E+00  0.14999999963E+04  0.15000000000E+04  0.10566000000E+00 0. -1.
        994   -1    0    0    0    0 -0.00000000000E+00 -0.00000000000E+00  0.11368683772E-12  0.17120000000E+03  0.17120000000E+03 0.  0.
         13    1    1    2    0    0 -0.27381344468E+02 -0.35068355376E+02  0.22235555445E+03  0.22676316132E+03  0.10566000000E+00 0. -1.
        994    1    1    2    0    0 -0.27666780746E+01 -0.35645200716E+00  0.54050052098E+01  0.17130801396E+03  0.17120000000E+03 0.  0.
        998    1    1    2    0    0  0.30148022543E+02  0.35424807383E+02  0.12722394366E+04  0.12731288247E+04  0.10000000000E+02 0. -1.
</event>
<event>
 5    1  0.1338054E-008  0.3761242E+03  0.7957747E-01  0.3468210E+00
         13   -1    0    0    0    0  0.00000000000E+00  0.00000000000E+00  0.14999999963E+04  0.15000000000E+04  0.10566000000E+00 0. -1.
        994   -1    0    0    0    0 -0.00000000000E+00 -0.00000000000E+00  0.11368683772E-12  0.17120000000E+03  0.17120000000E+03 0.  0.
         13    1    1    2    0    0 -0.13197845389E+02 -0.21191700515E+02  0.50235088866E+02  0.56096761146E+02  0.10566000000E+00 0. -1.
        994    1    1    2    0    0  0.22774998877E+00  0.79174788924E+01  0.63150476535E+01  0.17149944072E+03  0.17120000000E+03 0.  0.
        998    1    1    2    0    0  0.12970095401E+02  0.13274221623E+02  0.14434498598E+04  0.14436037981E+04  0.10000000000E+02 0. -1.
</event>
<event>
 5    1  0.1338054E-008  0.3813619E+03  0.7957747E-01  0.3445250E+00
         13   -1    0    0    0    0  0.00000000000E+00  0.00000000000E+00  0.14999999963E+04  0.15000000000E+04  0.10566000000E+00 0.  1.
        994   -1    0    0    0    0 -0.00000000000E+00 -0.00000000000E+00  0.11368683772E-12  0.17120000000E+03  0.17120000000E+03 0.  0.
         13    1    1    2    0    0  0.32604138103E+02 -0.20252765833E+01  0.14668840322E+03  0.15028183646E+03  0.10566000000E+00 0.  1.
        994    1    1    2    0    0 -0.25866834038E+02  0.59416707446E+01  0.57949789726E+01  0.17334191165E+03  0.17120000000E+03 0.  0.
        998    1    1    2    0    0 -0.67373040651E+01 -0.39163941613E+01  0.13475166141E+04  0.13475762519E+04  0.10000000000E+02 0.  1.
</event>
<event>
 5    1  0.1338054E-008  0.3849388E+03  0.7957747E-01  0.3429932E+00
         13   -1    0    0    0    0  0.00000000000E+00  0.00000000000E+00  0.14999999963E+04  0.15000000000E+04  0.10566000000E+00 0.  1.
        994   -1    0    0    0    0 -0.00000000000E+00 -0.00000000000E+00  0.11368683772E-12  0.17120000000E+03  0.17120000000E+03 0.  0.
         13    1    1    2    0    0  0.89148327211E+01 -0.80926036767E+01  0.42579107063E+02  0.44248796583E+02  0.10566000000E+00 0.  1.
        994    1    1    2    0    0 -0.83779618754E+01  0.91804199888E+01  0.21687972875E+01  0.17166424799E+03  0.17120000000E+03 0.  0.
        998    1    1    2    0    0 -0.53687084564E+00 -0.10878163121E+01  0.14552520919E+04  0.14552869554E+04  0.10000000000E+02 0.  1.
</event>
<event>
 5    1  0.1338054E-008  0.3856430E+03  0.7957747E-01  0.3426950E+00
         13   -1    0    0    0    0  0.00000000000E+00  0.00000000000E+00  0.14999999963E+04  0.15000000000E+04  0.10566000000E+00 0.  1.
        994   -1    0    0    0    0 -0.00000000000E+00 -0.00000000000E+00  0.11368683772E-12  0.17120000000E+03  0.17120000000E+03 0.  0.
         13    1    1    2    0    0  0.11806673682E+02  0.34398058959E+01  0.60511533924E+02  0.61748576582E+02  0.10566000000E+00 0.  1.
        994    1    1    2    0    0  0.22635057772E+01 -0.16752970827E+02  0.22496882306E+01  0.17204733822E+03  0.17120000000E+03 0.  0.
        998    1    1    2    0    0 -0.14070179460E+02  0.13313164931E+02  0.14372387741E+04  0.14374040852E+04  0.10000000000E+02 0.  1.
</event>
<event>
 5    1  0.1338054E-008  0.3849203E+03  0.7957747E-01  0.3430010E+00
         13   -1    0    0    0    0  0.00000000000E+00  0.00000000000E+00  0.14999999963E+04  0.15000000000E+04  0.10566000000E+00 0.  1.
        994   -1    0    0    0    0 -0.00000000000E+00 -0.00000000000E+00  0.11368683772E-12  0.17120000000E+03  0.17120000000E+03 0.  0.
         13    1    1    2    0    0  0.12287884711E+02 -0.61508128304E+01  0.52440978411E+02  0.54211548491E+02  0.10566000000E+00 0.  1.
        994    1    1    2    0    0 -0.10933495701E+02  0.29236938570E+02  0.48813611096E+01  0.17409080272E+03  0.17120000000E+03 0.  0.
        998    1    1    2    0    0 -0.13543890100E+01 -0.23086125740E+02  0.14426776568E+04  0.14428976488E+04  0.10000000000E+02 0.  1.
</event>
<event>
 5    1  0.1338054E-008  0.3859550E+03  0.7957747E-01  0.3425632E+00
         13   -1    0    0    0    0  0.00000000000E+00  0.00000000000E+00  0.14999999963E+04  0.15000000000E+04  0.10566000000E+00 0. -1.
        994   -1    0    0    0    0 -0.00000000000E+00 -0.00000000000E+00  0.11368683772E-12  0.17120000000E+03  0.17120000000E+03 0.  0.
         13    1    1    2    0    0  0.75591237732E+01 -0.91862937787E+01  0.58264920448E+02  0.59467137685E+02  0.10566000000E+00 0. -1.
        994    1    1    2    0    0 -0.90985132896E+01  0.13888069938E+02  0.20609926993E+01  0.17201554907E+03  0.17120000000E+03 0.  0.
        998    1    1    2    0    0  0.15393895164E+01 -0.47017761596E+01  0.14396740831E+04  0.14397173132E+04  0.10000000000E+02 0. -1.
</event>
<event>
 5    1  0.2429529E-008  0.3854358E+03  0.7957747E-01  0.3427826E+00
         13   -1    0    0    0    0  0.00000000000E+00  0.00000000000E+00  0.14999999963E+04  0.15000000000E+04  0.10566000000E+00 0. -1.
        994   -1    0    0    0    0 -0.00000000000E+00 -0.00000000000E+00  0.11368683772E-12  0.17120000000E+03  0.17120000000E+03 0.  0.
         13    1    1    2    0    0  0.11496881070E+02  0.31750013232E+01  0.48930347969E+02  0.50363171307E+02  0.10566000000E+00 0. -1.
        994    1    1    2    0    0 -0.13030238106E+02 -0.29478523861E+01  0.20002643060E+01  0.17173211114E+03  0.17120000000E+03 0.  0.
        998    1    1    2    0    0  0.15333570354E+01 -0.22714893713E+00  0.14490693840E+04  0.14491047176E+04  0.10000000000E+02 0. -1.
</event>
<event>
 5    1  0.1338054E-008  0.3800559E+03  0.7957747E-01  0.3450915E+00
         13   -1    0    0    0    0  0.00000000000E+00  0.00000000000E+00  0.14999999963E+04  0.15000000000E+04  0.10566000000E+00 0. -1.
        994   -1    0    0    0    0 -0.00000000000E+00 -0.00000000000E+00  0.11368683772E-12  0.17120000000E+03  0.17120000000E+03 0.  0.
         13    1    1    2    0    0  0.12138840684E+02 -0.74903191021E+01  0.22555617905E+02  0.26687513869E+02  0.10566000000E+00 0. -1.
        994    1    1    2    0    0 -0.13558548741E+02  0.13041692751E+02  0.52887321102E+01  0.17231172532E+03  0.17120000000E+03 0.  0.
        998    1    1    2    0    0  0.14197080570E+01 -0.55513736490E+01  0.14721556463E+04  0.14722007608E+04  0.10000000000E+02 0. -1.
</event>
<event>
 5    1  0.1338054E-008  0.3848723E+03  0.7957747E-01  0.3430214E+00
         13   -1    0    0    0    0  0.00000000000E+00  0.00000000000E+00  0.14999999963E+04  0.15000000000E+04  0.10566000000E+00 0. -1.
        994   -1    0    0    0    0 -0.00000000000E+00 -0.00000000000E+00  0.11368683772E-12  0.17120000000E+03  0.17120000000E+03 0.  0.
         13    1    1    2    0    0 -0.23790232572E+01  0.15750731917E+02  0.71288774724E+02  0.73046874494E+02  0.10566000000E+00 0. -1.
        994    1    1    2    0    0  0.31030296836E+01 -0.17757200022E+02  0.27633443782E+01  0.17216858894E+03  0.17120000000E+03 0.  0.
        998    1    1    2    0    0 -0.72400642643E+00  0.20064681046E+01  0.14259478772E+04  0.14259845366E+04  0.10000000000E+02 0. -1.
</event>
<event>
 5    1  0.1338054E-008  0.3842935E+03  0.7957747E-01  0.3432674E+00
         13   -1    0    0    0    0  0.00000000000E+00  0.00000000000E+00  0.14999999963E+04  0.15000000000E+04  0.10566000000E+00 0. -1.
        994   -1    0    0    0    0 -0.00000000000E+00 -0.00000000000E+00  0.11368683772E-12  0.17120000000E+03  0.17120000000E+03 0.  0.
         13    1    1    2    0    0 -0.13746588444E+02  0.16926656687E+00  0.45315946817E+02  0.47355501739E+02  0.10566000000E+00 0. -1.
        994    1    1    2    0    0  0.18291605667E+02  0.99130334587E+01  0.34093718779E+01  0.17249323142E+03  0.17120000000E+03 0.  0.
        998    1    1    2    0    0 -0.45450172231E+01 -0.10082300026E+02  0.14512746776E+04  0.14513512668E+04  0.10000000000E+02 0. -1.
</event>
<event>
 5    1  0.1338054E-008  0.4227349E+03  0.7957747E-01  0.3283872E+00
         13   -1    0    0    0    0  0.00000000000E+00  0.00000000000E+00  0.14999999963E+04  0.15000000000E+04  0.10566000000E+00 0.  1.
        994   -1    0    0    0    0 -0.00000000000E+00 -0.00000000000E+00  0.11368683772E-12  0.17120000000E+03  0.17120000000E+03 0.  0.
         13    1    1    2    0    0  0.72147537649E+02 -0.43486615942E+02  0.71631667558E+02  0.11057784550E+03  0.10566000000E+00 0.  1.
        994    1    1    2    0    0 -0.47003782874E+02  0.51900006497E+02  0.63652235170E+02  0.19561189463E+03  0.17120000000E+03 0.  0.
        998    1    1    2    0    0 -0.25143754775E+02 -0.84133905551E+01  0.13647160936E+04  0.13650102599E+04  0.10000000000E+02 0.  1.
</event>
<event>
 5    1  0.1338054E-008  0.3834039E+03  0.7957747E-01  0.3436470E+00
         13   -1    0    0    0    0  0.00000000000E+00  0.00000000000E+00  0.14999999963E+04  0.15000000000E+04  0.10566000000E+00 0. -1.
        994   -1    0    0    0    0 -0.00000000000E+00 -0.00000000000E+00  0.11368683772E-12  0.17120000000E+03  0.17120000000E+03 0.  0.
         13    1    1    2    0    0 -0.11945076243E+02  0.78551910712E+01  0.46714949234E+02  0.48853725745E+02  0.10566000000E+00 0. -1.
        994    1    1    2    0    0 -0.61108787928E+01  0.20419956123E+02  0.39279544559E+01  0.17256646915E+03  0.17120000000E+03 0.  0.
        998    1    1    2    0    0  0.18055955036E+02 -0.28275147194E+02  0.14493570926E+04  0.14497798051E+04  0.10000000000E+02 0. -1.
</event>
<event>
 5    1  0.1338054E-008  0.3686611E+03  0.7957747E-01  0.3502067E+00
         13   -1    0    0    0    0  0.00000000000E+00  0.00000000000E+00  0.14999999963E+04  0.15000000000E+04  0.10566000000E+00 0. -1.
        994   -1    0    0    0    0 -0.00000000000E+00 -0.00000000000E+00  0.11368683772E-12  0.17120000000E+03  0.17120000000E+03 0.  0.
         13    1    1    2    0    0  0.37611304937E+01  0.16565953216E+02  0.94754604601E+01  0.19451797436E+02  0.10566000000E+00 0. -1.
        994    1    1    2    0    0 -0.42283917736E+01 -0.14775110374E+02  0.11054811813E+02  0.17224352542E+03  0.17120000000E+03 0.  0.
        998    1    1    2    0    0  0.46726127993E+00 -0.17908428413E+01  0.14794697240E+04  0.14795046771E+04  0.10000000000E+02 0. -1.
</event>
<event>
 5    1  0.1338054E-008  0.3722841E+03  0.7957747E-01  0.3485459E+00
         13   -1    0    0    0    0  0.00000000000E+00  0.00000000000E+00  0.14999999963E+04  0.15000000000E+04  0.10566000000E+00 0.  1.
        994   -1    0    0    0    0 -0.00000000000E+00 -0.00000000000E+00  0.11368683772E-12  0.17120000000E+03  0.17120000000E+03 0.  0.
         13    1    1    2    0    0  0.19564250310E+02  0.45707798181E+02  0.16125889135E+03  0.16874953010E+03  0.10566000000E+00 0.  1.
        994    1    1    2    0    0  0.22404919656E+00 -0.16825556433E+02  0.90520284247E+01  0.17226296400E+03  0.17120000000E+03 0.  0.
        998    1    1    2    0    0 -0.19788299507E+02 -0.28882241748E+02  0.13296890765E+04  0.13301875059E+04  0.10000000000E+02 0.  1.
</event>
<event>
 5    1  0.1744114E-008  0.3863812E+03  0.7957747E-01  0.3423835E+00
         13   -1    0    0    0    0  0.00000000000E+00  0.00000000000E+00  0.14999999963E+04  0.15000000000E+04  0.10566000000E+00 0.  1.
        994   -1    0    0    0    0 -0.00000000000E+00 -0.00000000000E+00  0.11368683772E-12  0.17120000000E+03  0.17120000000E+03 0.  0.
         13    1    1    2    0    0 -0.10001547646E+02  0.20534990273E+01  0.56942310348E+02  0.57850546111E+02  0.10566000000E+00 0.  1.
        994    1    1    2    0    0  0.42305244452E+01 -0.48288452221E+01  0.10808633724E+01  0.17132373843E+03  0.17120000000E+03 0.  0.
        998    1    1    2    0    0  0.57710232004E+01  0.27753461948E+01  0.14419768226E+04  0.14420257155E+04  0.10000000000E+02 0.  1.
</event>
<event>
 5    1  0.1338054E-008  0.3816155E+03  0.7957747E-01  0.3444154E+00
         13   -1    0    0    0    0  0.00000000000E+00  0.00000000000E+00  0.14999999963E+04  0.15000000000E+04  0.10566000000E+00 0. -1.
        994   -1    0    0    0    0 -0.00000000000E+00 -0.00000000000E+00  0.11368683772E-12  0.17120000000E+03  0.17120000000E+03 0.  0.
         13    1    1    2    0    0  0.25670580625E+02 -0.21553706938E+02  0.18832603179E+03  0.19128577157E+03  0.10566000000E+00 0. -1.
        994    1    1    2    0    0 -0.51526917445E+01  0.24185886822E+01  0.34276376144E+01  0.17132888987E+03  0.17120000000E+03 0.  0.
        998    1    1    2    0    0 -0.20517888881E+02  0.19135118256E+02  0.13082463269E+04  0.13085853386E+04  0.10000000000E+02 0. -1.
</event>
<event>
 5    1  0.1338054E-008  0.3763096E+03  0.7957747E-01  0.3467386E+00
         13   -1    0    0    0    0  0.00000000000E+00  0.00000000000E+00  0.14999999963E+04  0.15000000000E+04  0.10566000000E+00 0. -1.
        994   -1    0    0    0    0 -0.00000000000E+00 -0.00000000000E+00  0.11368683772E-12  0.17120000000E+03  0.17120000000E+03 0.  0.
         13    1    1    2    0    0  0.16293287782E+02 -0.12627046611E+02  0.31496591730E+02  0.37642528973E+02  0.10566000000E+00 0. -1.
        994    1    1    2    0    0 -0.23641409160E+02  0.17944249239E+02  0.89947459336E+01  0.17398637235E+03  0.17120000000E+03 0.  0.
        998    1    1    2    0    0  0.73481213788E+01 -0.53172026283E+01  0.14595086586E+04  0.14595710987E+04  0.10000000000E+02 0. -1.
</event>
<event>
 5    1  0.1338054E-008  0.3700315E+03  0.7957747E-01  0.3495746E+00
         13   -1    0    0    0    0  0.00000000000E+00  0.00000000000E+00  0.14999999963E+04  0.15000000000E+04  0.10566000000E+00 0.  1.
        994   -1    0    0    0    0 -0.00000000000E+00 -0.00000000000E+00  0.11368683772E-12  0.17120000000E+03  0.17120000000E+03 0.  0.
         13    1    1    2    0    0  0.31048471771E+02 -0.15071085829E+03  0.60712792504E+03  0.62632427618E+03  0.10566000000E+00 0.  1.
        994    1    1    2    0    0 -0.74401480382E+02  0.14240121354E+03  0.10753942881E+03  0.25823991684E+03  0.17120000000E+03 0.  0.
        998    1    1    2    0    0  0.43353008611E+02  0.83096447523E+01  0.78533264243E+03  0.78663580698E+03  0.10000000000E+02 0.  1.
</event>
<event>
 5    1  0.1338054E-008  0.3830521E+03  0.7957747E-01  0.3437976E+00
         13   -1    0    0    0    0  0.00000000000E+00  0.00000000000E+00  0.14999999963E+04  0.15000000000E+04  0.10566000000E+00 0.  1.
        994   -1    0    0    0    0 -0.00000000000E+00 -0.00000000000E+00  0.11368683772E-12  0.17120000000E+03  0.17120000000E+03 0.  0.
         13    1    1    2    0    0  0.11434926180E+02  0.10744518106E+02  0.45948759375E+02  0.48554112680E+02  0.10566000000E+00 0.  1.
        994    1    1    2    0    0 -0.16671815789E+02 -0.19204605376E+01  0.35329612780E+01  0.17205684940E+03  0.17120000000E+03 0.  0.
        998    1    1    2    0    0  0.52368896081E+01 -0.88240575685E+01  0.14505182756E+04  0.14505890379E+04  0.10000000000E+02 0.  1.
</event>
<event>
 5    1  0.1338054E-008  0.3840591E+03  0.7957747E-01  0.3433672E+00
         13   -1    0    0    0    0  0.00000000000E+00  0.00000000000E+00  0.14999999963E+04  0.15000000000E+04  0.10566000000E+00 0. -1.
        994   -1    0    0    0    0 -0.00000000000E+00 -0.00000000000E+00  0.11368683772E-12  0.17120000000E+03  0.17120000000E+03 0.  0.
         13    1    1    2    0    0 -0.51528995470E+02 -0.24902966603E+02  0.75243560028E+02  0.94535705475E+02  0.10566000000E+00 0. -1.
        994    1    1    2    0    0  0.63526463898E+02  0.26651677047E+02  0.36248380270E+02  0.18806729800E+03  0.17120000000E+03 0.  0.
        998    1    1    2    0    0 -0.11997468428E+02 -0.17487104438E+01  0.13885080560E+04  0.13885969965E+04  0.10000000000E+02 0. -1.
</event>
<event>
 5    1  0.1338054E-008  0.3796132E+03  0.7957747E-01  0.3452845E+00
         13   -1    0    0    0    0  0.00000000000E+00  0.00000000000E+00  0.14999999963E+04  0.15000000000E+04  0.10566000000E+00 0.  1.
        994   -1    0    0    0    0 -0.00000000000E+00 -0.00000000000E+00  0.11368683772E-12  0.17120000000E+03  0.17120000000E+03 0.  0.
         13    1    1    2    0    0  0.32125854615E+02 -0.23390614680E+02  0.16809363059E+03  0.17272715825E+03  0.10566000000E+00 0.  1.
        994    1    1    2    0    0 -0.89086770943E+01  0.48671554866E+02  0.12567386746E+02  0.17864955637E+03  0.17120000000E+03 0.  0.
        998    1    1    2    0    0 -0.23217177521E+02 -0.25280940186E+02  0.13193389789E+04  0.13198232854E+04  0.10000000000E+02 0.  1.
</event>
<event>
 5    1  0.1338054E-008  0.3812615E+03  0.7957747E-01  0.3445684E+00
         13   -1    0    0    0    0  0.00000000000E+00  0.00000000000E+00  0.14999999963E+04  0.15000000000E+04  0.10566000000E+00 0.  1.
        994   -1    0    0    0    0 -0.00000000000E+00 -0.00000000000E+00  0.11368683772E-12  0.17120000000E+03  0.17120000000E+03 0.  0.
         13    1    1    2    0    0  0.18152225871E+02 -0.15730345676E+02  0.75925008079E+02  0.79633944364E+02  0.10566000000E+00 0.  1.
        994    1    1    2    0    0 -0.22202589294E+02  0.19002444275E+02  0.63460518139E+01  0.17379229049E+03  0.17120000000E+03 0.  0.
        998    1    1    2    0    0  0.40503634231E+01 -0.32720985988E+01  0.14177289364E+04  0.14177737651E+04  0.10000000000E+02 0.  1.
</event>
<event>
 5    1  0.1338054E-008  0.3804535E+03  0.7957747E-01  0.3449186E+00
         13   -1    0    0    0    0  0.00000000000E+00  0.00000000000E+00  0.14999999963E+04  0.15000000000E+04  0.10566000000E+00 0.  1.
        994   -1    0    0    0    0 -0.00000000000E+00 -0.00000000000E+00  0.11368683772E-12  0.17120000000E+03  0.17120000000E+03 0.  0.
         13    1    1    2    0    0 -0.42169070915E+02  0.25682770513E+02  0.27678757570E+03  0.28115691076E+03  0.10566000000E+00 0.  1.
        994    1    1    2    0    0  0.28927295662E+02 -0.32031411706E+02  0.10147413552E+02  0.17684798492E+03  0.17120000000E+03 0.  0.
        998    1    1    2    0    0  0.13241775254E+02  0.63486411936E+01  0.12130650070E+04  0.12131951043E+04  0.10000000000E+02 0.  1.
</event>
<event>
 5    1  0.1338054E-008  0.3349622E+03  0.7957747E-01  0.3674240E+00
         13   -1    0    0    0    0  0.00000000000E+00  0.00000000000E+00  0.14999999963E+04  0.15000000000E+04  0.10566000000E+00 0. -1.
        994   -1    0    0    0    0 -0.00000000000E+00 -0.00000000000E+00  0.11368683772E-12  0.17120000000E+03  0.17120000000E+03 0.  0.
         13    1    1    2    0    0 -0.60795059459E+02 -0.20741131039E+03  0.10580084405E+04  0.10798598809E+04  0.10566000000E+00 0. -1.
        994    1    1    2    0    0  0.12730415058E+03  0.13003814587E+03  0.17416747999E+03  0.30456529222E+03  0.17120000000E+03 0.  0.
        998    1    1    2    0    0 -0.66509091126E+02  0.77373164515E+02  0.26782407576E+03  0.28677482691E+03  0.10000000000E+02 0. -1.
</event>
<event>
 5    1  0.1338054E-008  0.3788294E+03  0.7957747E-01  0.3456271E+00
         13   -1    0    0    0    0  0.00000000000E+00  0.00000000000E+00  0.14999999963E+04  0.15000000000E+04  0.10566000000E+00 0.  1.
        994   -1    0    0    0    0 -0.00000000000E+00 -0.00000000000E+00  0.11368683772E-12  0.17120000000E+03  0.17120000000E+03 0.  0.
         13    1    1    2    0    0  0.23895131496E+02 -0.86746894686E+01  0.69988691854E+02  0.74462444884E+02  0.10566000000E+00 0.  1.
        994    1    1    2    0    0 -0.12666052906E+01  0.90148006022E+01  0.50033797627E+01  0.17151485279E+03  0.17120000000E+03 0.  0.
        998    1    1    2    0    0 -0.22628526206E+02 -0.34011113366E+00  0.14250079247E+04  0.14252227023E+04  0.10000000000E+02 0.  1.
</event>
<event>
 5    1  0.1338054E-008  0.3691811E+03  0.7957747E-01  0.3499663E+00
         13   -1    0    0    0    0  0.00000000000E+00  0.00000000000E+00  0.14999999963E+04  0.15000000000E+04  0.10566000000E+00 0.  1.
        994   -1    0    0    0    0 -0.00000000000E+00 -0.00000000000E+00  0.11368683772E-12  0.17120000000E+03  0.17120000000E+03 0.  0.
         13    1    1    2    0    0  0.24738855881E+02  0.43252873258E+01  0.28871088855E+02  0.38265781534E+02  0.10566000000E+00 0.  1.
        994    1    1    2    0    0 -0.11160460083E+02 -0.99761342114E+01  0.10475103309E+02  0.17217214325E+03  0.17120000000E+03 0.  0.
        998    1    1    2    0    0 -0.13578395798E+02  0.56508468856E+01  0.14606538041E+04  0.14607620752E+04  0.10000000000E+02 0.  1.
</event>
<event>
 5    1  0.1338054E-008  0.3825105E+03  0.7957747E-01  0.3440299E+00
         13   -1    0    0    0    0  0.00000000000E+00  0.00000000000E+00  0.14999999963E+04  0.15000000000E+04  0.10566000000E+00 0.  1.
        994   -1    0    0    0    0 -0.00000000000E+00 -0.00000000000E+00  0.11368683772E-12  0.17120000000E+03  0.17120000000E+03 0.  0.
         13    1    1    2    0    0 -0.13630188937E+02 -0.92573465206E+01  0.48720831787E+02  0.51431616047E+02  0.10566000000E+00 0.  1.
        994    1    1    2    0    0  0.77133445704E+00 -0.23954444516E+01  0.28921716436E+01  0.17124292034E+03  0.17120000000E+03 0.  0.
        998    1    1    2    0    0  0.12858854480E+02  0.11652790972E+02  0.14483869928E+04  0.14485254636E+04  0.10000000000E+02 0.  1.
</event>
<event>
 5    1  0.1338054E-008  0.3756477E+03  0.7957747E-01  0.3470331E+00
         13   -1    0    0    0    0  0.00000000000E+00  0.00000000000E+00  0.14999999963E+04  0.15000000000E+04  0.10566000000E+00 0.  1.
        994   -1    0    0    0    0 -0.00000000000E+00 -0.00000000000E+00  0.11368683772E-12  0.17120000000E+03  0.17120000000E+03 0.  0.
         13    1    1    2    0    0 -0.31318217165E+02 -0.80761453439E+01  0.32882095806E+02  0.46122643448E+02  0.10566000000E+00 0.  1.
        994    1    1    2    0    0  0.50350041242E+01  0.22692260336E+02  0.15886131877E+02  0.17349956522E+03  0.17120000000E+03 0.  0.
        998    1    1    2    0    0  0.26283213041E+02 -0.14616114993E+02  0.14512317686E+04  0.14515777913E+04  0.10000000000E+02 0.  1.
</event>
<event>
 5    1  0.1338054E-008  0.3831759E+03  0.7957747E-01  0.3437445E+00
         13   -1    0    0    0    0  0.00000000000E+00  0.00000000000E+00  0.14999999963E+04  0.15000000000E+04  0.10566000000E+00 0.  1.
        994   -1    0    0    0    0 -0.00000000000E+00 -0.00000000000E+00  0.11368683772E-12  0.17120000000E+03  0.17120000000E+03 0.  0.
         13    1    1    2    0    0 -0.97664716458E+01  0.16849255250E+02  0.70268711704E+02  0.72917654786E+02  0.10566000000E+00 0.  1.
        994    1    1    2    0    0  0.12173763186E+02 -0.18584313242E+02  0.41730341643E+01  0.17268593290E+03  0.17120000000E+03 0.  0.
        998    1    1    2    0    0 -0.24072915404E+01  0.17350579915E+01  0.14255582504E+04  0.14255964123E+04  0.10000000000E+02 0.  1.
</event>
<event>
 5    1  0.1338054E-008  0.3853744E+03  0.7957747E-01  0.3428086E+00
         13   -1    0    0    0    0  0.00000000000E+00  0.00000000000E+00  0.14999999963E+04  0.15000000000E+04  0.10566000000E+00 0. -1.
        994   -1    0    0    0    0 -0.00000000000E+00 -0.00000000000E+00  0.11368683772E-12  0.17120000000E+03  0.17120000000E+03 0.  0.
         13    1    1    2    0    0  0.71039108155E+01 -0.16807264884E+02  0.98167799063E+02  0.99849274603E+02  0.10566000000E+00 0. -1.
        994    1    1    2    0    0 -0.64331569382E+01  0.32228408628E+02  0.50000727795E+01  0.17439752452E+03  0.17120000000E+03 0.  0.
        998    1    1    2    0    0 -0.67075387733E+00 -0.15421143744E+02  0.13968321244E+04  0.13969532009E+04  0.10000000000E+02 0. -1.
</event>
<event>
 5    1  0.1338054E-008  0.3791024E+03  0.7957747E-01  0.3455076E+00
         13   -1    0    0    0    0  0.00000000000E+00  0.00000000000E+00  0.14999999963E+04  0.15000000000E+04  0.10566000000E+00 0. -1.
        994   -1    0    0    0    0 -0.00000000000E+00 -0.00000000000E+00  0.11368683772E-12  0.17120000000E+03  0.17120000000E+03 0.  0.
         13    1    1    2    0    0  0.15287040153E+02  0.21229365446E+02  0.14242444171E+02  0.29786539475E+02  0.10566000000E+00 0. -1.
        994    1    1    2    0    0 -0.34812313422E+02 -0.20364767373E+02  0.21732770674E+02  0.17722407917E+03  0.17120000000E+03 0.  0.
        998    1    1    2    0    0  0.19525273269E+02 -0.86459807340E+00  0.14640247814E+04  0.14641893814E+04  0.10000000000E+02 0. -1.
</event>
<event>
 5    1  0.1338054E-008  0.3781117E+03  0.7957747E-01  0.3459422E+00
         13   -1    0    0    0    0  0.00000000000E+00  0.00000000000E+00  0.14999999963E+04  0.15000000000E+04  0.10566000000E+00 0.  1.
        994   -1    0    0    0    0 -0.00000000000E+00 -0.00000000000E+00  0.11368683772E-12  0.17120000000E+03  0.17120000000E+03 0.  0.
         13    1    1    2    0    0 -0.14202273606E+02  0.40132494701E+02  0.20714638613E+03  0.21147566800E+03  0.10566000000E+00 0.  1.
        994    1    1    2    0    0  0.44695744183E+01 -0.30295334007E+00  0.51569098521E+01  0.17133622675E+03  0.17120000000E+03 0.  0.
        998    1    1    2    0    0  0.97326991882E+01 -0.39829541361E+02  0.12876967003E+04  0.12883881053E+04  0.10000000000E+02 0.  1.
</event>
<event>
 5    1  0.1338054E-008  0.3762875E+03  0.7957747E-01  0.3467485E+00
         13   -1    0    0    0    0  0.00000000000E+00  0.00000000000E+00  0.14999999963E+04  0.15000000000E+04  0.10566000000E+00 0.  1.
        994   -1    0    0    0    0 -0.00000000000E+00 -0.00000000000E+00  0.11368683772E-12  0.17120000000E+03  0.17120000000E+03 0.  0.
         13    1    1    2    0    0 -0.30679624204E+01  0.27427397148E+02  0.58601788833E+02  0.64775422239E+02  0.10566000000E+00 0.  1.
        994    1    1    2    0    0 -0.72460408342E+01 -0.30197274461E+02  0.92899262334E+01  0.17424156571E+03  0.17120000000E+03 0.  0.
        998    1    1    2    0    0  0.10314003255E+02  0.27698773133E+01  0.14321082812E+04  0.14321830120E+04  0.10000000000E+02 0.  1.
</event>
<event>
 5    1  0.1338054E-008  0.3737579E+03  0.7957747E-01  0.3478796E+00
         13   -1    0    0    0    0  0.00000000000E+00  0.00000000000E+00  0.14999999963E+04  0.15000000000E+04  0.10566000000E+00 0. -1.
        994   -1    0    0    0    0 -0.00000000000E+00 -0.00000000000E+00  0.11368683772E-12  0.17120000000E+03  0.17120000000E+03 0.  0.
         13    1    1    2    0    0  0.25628424119E+01 -0.42486886389E+02  0.12557522653E+03  0.13259280658E+03  0.10566000000E+00 0. -1.
        994    1    1    2    0    0 -0.43248200455E+02  0.16387367413E+02  0.14654623450E+02  0.17794142475E+03  0.17120000000E+03 0.  0.
        998    1    1    2    0    0  0.40685358043E+02  0.26099518976E+02  0.13597701463E+04  0.13606657687E+04  0.10000000000E+02 0. -1.
</event>
<event>
 5    1  0.1338054E-008  0.3849896E+03  0.7957747E-01  0.3429716E+00
         13   -1    0    0    0    0  0.00000000000E+00  0.00000000000E+00  0.14999999963E+04  0.15000000000E+04  0.10566000000E+00 0.  1.
        994   -1    0    0    0    0 -0.00000000000E+00 -0.00000000000E+00  0.11368683772E-12  0.17120000000E+03  0.17120000000E+03 0.  0.
         13    1    1    2    0    0  0.12606336772E+02 -0.49373028702E+01  0.55180370887E+02  0.56817085298E+02  0.10566000000E+00 0.  1.
        994    1    1    2    0    0 -0.11596859465E+02  0.21667684235E+01  0.20931533934E+01  0.17161877323E+03  0.17120000000E+03 0.  0.
        998    1    1    2    0    0 -0.10094773069E+01  0.27705344467E+01  0.14427264720E+04  0.14427641415E+04  0.10000000000E+02 0.  1.
</event>
<event>
 5    1  0.1338054E-008  0.3820809E+03  0.7957747E-01  0.3442148E+00
         13   -1    0    0    0    0  0.00000000000E+00  0.00000000000E+00  0.14999999963E+04  0.15000000000E+04  0.10566000000E+00 0.  1.
        994   -1    0    0    0    0 -0.00000000000E+00 -0.00000000000E+00  0.11368683772E-12  0.17120000000E+03  0.17120000000E+03 0.  0.
         13    1    1    2    0    0  0.10982628804E+02 -0.15843999771E+02  0.58426682477E+02  0.61525107505E+02  0.10566000000E+00 0.  1.
        994    1    1    2    0    0 -0.12966975096E+01  0.17815071751E+02  0.41464303807E+01  0.17217924117E+03  0.17120000000E+03 0.  0.
        998    1    1    2    0    0 -0.96859312942E+01 -0.19710719799E+01  0.14374268834E+04  0.14374956513E+04  0.10000000000E+02 0.  1.
</event>
<event>
 5    1  0.1338054E-008  0.3781907E+03  0.7957747E-01  0.3459074E+00
         13   -1    0    0    0    0  0.00000000000E+00  0.00000000000E+00  0.14999999963E+04  0.15000000000E+04  0.10566000000E+00 0.  1.
        994   -1    0    0    0    0 -0.00000000000E+00 -0.00000000000E+00  0.11368683772E-12  0.17120000000E+03  0.17120000000E+03 0.  0.
         13    1    1    2    0    0  0.22604000567E+02 -0.23944011097E+02  0.12231219893E+03  0.12666705049E+03  0.10566000000E+00 0.  1.
        994    1    1    2    0    0  0.10293209875E+02 -0.97217869308E+00  0.54088181378E+01  0.17159717543E+03  0.17120000000E+03 0.  0.
        998    1    1    2    0    0 -0.32897210442E+02  0.24916189790E+02  0.13722789792E+04  0.13729357741E+04  0.10000000000E+02 0.  1.
</event>
<event>
 5    1  0.1338054E-008  0.3814827E+03  0.7957747E-01  0.3444728E+00
         13   -1    0    0    0    0  0.00000000000E+00  0.00000000000E+00  0.14999999963E+04  0.15000000000E+04  0.10566000000E+00 0. -1.
        994   -1    0    0    0    0 -0.00000000000E+00 -0.00000000000E+00  0.11368683772E-12  0.17120000000E+03  0.17120000000E+03 0.  0.
         13    1    1    2    0    0  0.12073670662E+02  0.30912448211E+01  0.21657402191E+02  0.24987667989E+02  0.10566000000E+00 0. -1.
        994    1    1    2    0    0 -0.66115560325E+01 -0.45342868092E+01  0.36004090623E+01  0.17142542220E+03  0.17120000000E+03 0.  0.
        998    1    1    2    0    0 -0.54621146299E+01  0.14430419881E+01  0.14747421850E+04  0.14747869098E+04  0.10000000000E+02 0. -1.
</event>
<event>
 5    1  0.1338054E-008  0.3831446E+03  0.7957747E-01  0.3437580E+00
         13   -1    0    0    0    0  0.00000000000E+00  0.00000000000E+00  0.14999999963E+04  0.15000000000E+04  0.10566000000E+00 0. -1.
        994   -1    0    0    0    0 -0.00000000000E+00 -0.00000000000E+00  0.11368683772E-12  0.17120000000E+03  0.17120000000E+03 0.  0.
         13    1    1    2    0    0  0.85465340906E+01 -0.10997313005E+02  0.37834304518E+02  0.40316620651E+02  0.10566000000E+00 0. -1.
        994    1    1    2    0    0 -0.21583081615E+01  0.46991044809E+01  0.26426008290E+01  0.17129846239E+03  0.17120000000E+03 0.  0.
        998    1    1    2    0    0 -0.63882259291E+01  0.62982085238E+01  0.14595230909E+04  0.14595849170E+04  0.10000000000E+02 0. -1.
</event>
<event>
 5    1  0.1338054E-008  0.3795414E+03  0.7957747E-01  0.3453158E+00
         13   -1    0    0    0    0  0.00000000000E+00  0.00000000000E+00  0.14999999963E+04  0.15000000000E+04  0.10566000000E+00 0. -1.
        994   -1    0    0    0    0 -0.00000000000E+00 -0.00000000000E+00  0.11368683772E-12  0.17120000000E+03  0.17120000000E+03 0.  0.
         13    1    1    2    0    0 -0.91162540800E+02  0.34554484810E+01  0.22808260876E+03  0.24565063923E+03  0.10566000000E+00 0. -1.
        994    1    1    2    0    0  0.79338261899E+02  0.77357703603E+01  0.39439122880E+02  0.19292300629E+03  0.17120000000E+03 0.  0.
        998    1    1    2    0    0  0.11824278900E+02 -0.11191218841E+02  0.12324782646E+04  0.12326263545E+04  0.10000000000E+02 0. -1.
</event>
<event>
 5    1  0.1338054E-008  0.3835481E+03  0.7957747E-01  0.3435853E+00
         13   -1    0    0    0    0  0.00000000000E+00  0.00000000000E+00  0.14999999963E+04  0.15000000000E+04  0.10566000000E+00 0.  1.
        994   -1    0    0    0    0 -0.00000000000E+00 -0.00000000000E+00  0.11368683772E-12  0.17120000000E+03  0.17120000000E+03 0.  0.
         13    1    1    2    0    0 -0.15755213488E+02  0.50189926095E+01  0.64456011225E+02  0.66543261010E+02  0.10566000000E+00 0.  1.
        994    1    1    2    0    0 -0.12663609784E+02 -0.63948761903E+01  0.30179635655E+01  0.17181329855E+03  0.17120000000E+03 0.  0.
        998    1    1    2    0    0  0.28418823272E+02  0.13758835808E+01  0.14325260215E+04  0.14328434404E+04  0.10000000000E+02 0.  1.
</event>
<event>
 5    1  0.1338054E-008  0.3859445E+03  0.7957747E-01  0.3425676E+00
         13   -1    0    0    0    0  0.00000000000E+00  0.00000000000E+00  0.14999999963E+04  0.15000000000E+04  0.10566000000E+00 0.  1.
        994   -1    0    0    0    0 -0.00000000000E+00 -0.00000000000E+00  0.11368683772E-12  0.17120000000E+03  0.17120000000E+03 0.  0.
         13    1    1    2    0    0  0.23928534467E+01  0.10414843307E+02  0.50471760461E+02  0.51590740224E+02  0.10566000000E+00 0.  1.
        994    1    1    2    0    0 -0.46326098756E+01 -0.38393820722E+01  0.12806429248E+01  0.17131048414E+03  0.17120000000E+03 0.  0.
        998    1    1    2    0    0  0.22397564289E+01 -0.65754612348E+01  0.14482475929E+04  0.14482987756E+04  0.10000000000E+02 0.  1.
</event>
<event>
 5    1  0.1338054E-008  0.3743655E+03  0.7957747E-01  0.3476065E+00
         13   -1    0    0    0    0  0.00000000000E+00  0.00000000000E+00  0.14999999963E+04  0.15000000000E+04  0.10566000000E+00 0.  1.
        994   -1    0    0    0    0 -0.00000000000E+00 -0.00000000000E+00  0.11368683772E-12  0.17120000000E+03  0.17120000000E+03 0.  0.
         13    1    1    2    0    0 -0.26547096958E+02  0.12871505687E+02  0.63611672872E+02  0.70120468518E+02  0.10566000000E+00 0.  1.
        994    1    1    2    0    0  0.17301674506E+01  0.50585401101E+01  0.71022838239E+01  0.17143064120E+03  0.17120000000E+03 0.  0.
        998    1    1    2    0    0  0.24816929508E+02 -0.17930045798E+02  0.14292860396E+04  0.14296488903E+04  0.10000000000E+02 0.  1.
</event>
<event>
 5    1  0.1338054E-008  0.3721023E+03  0.7957747E-01  0.3486285E+00
         13   -1    0    0    0    0  0.00000000000E+00  0.00000000000E+00  0.14999999963E+04  0.15000000000E+04  0.10566000000E+00 0. -1.
        994   -1    0    0    0    0 -0.00000000000E+00 -0.00000000000E+00  0.11368683772E-12  0.17120000000E+03  0.17120000000E+03 0.  0.
         13    1    1    2    0    0  0.18241053834E+02  0.69166064922E+01  0.19657873231E+02  0.27695101270E+02  0.10566000000E+00 0. -1.
        994    1    1    2    0    0 -0.13625280083E+02 -0.10376302049E+02  0.91818590864E+01  0.17229933963E+03  0.17120000000E+03 0.  0.
        998    1    1    2    0    0 -0.46157737512E+01  0.34596955566E+01  0.14711602640E+04  0.14712055591E+04  0.10000000000E+02 0. -1.
</event>
<event>
 5    1  0.1338054E-008  0.3733385E+03  0.7957747E-01  0.3480687E+00
         13   -1    0    0    0    0  0.00000000000E+00  0.00000000000E+00  0.14999999963E+04  0.15000000000E+04  0.10566000000E+00 0.  1.
        994   -1    0    0    0    0 -0.00000000000E+00 -0.00000000000E+00  0.11368683772E-12  0.17120000000E+03  0.17120000000E+03 0.  0.
         13    1    1    2    0    0 -0.61074766451E+01 -0.88271346031E+01  0.40477728696E+01  0.11472367041E+02  0.10566000000E+00 0.  1.
        994    1    1    2    0    0  0.13883050457E+02  0.11233602021E+02  0.86253952755E+01  0.17234491680E+03  0.17120000000E+03 0.  0.
        998    1    1    2    0    0 -0.77755738118E+01 -0.24064674184E+01  0.14873268281E+04  0.14873827162E+04  0.10000000000E+02 0.  1.
</event>
<event>
 5    1  0.2274715E-008  0.3864448E+03  0.7957747E-01  0.3423568E+00
         13   -1    0    0    0    0  0.00000000000E+00  0.00000000000E+00  0.14999999963E+04  0.15000000000E+04  0.10566000000E+00 0. -1.
        994   -1    0    0    0    0 -0.00000000000E+00 -0.00000000000E+00  0.11368683772E-12  0.17120000000E+03  0.17120000000E+03 0.  0.
         13    1    1    2    0    0 -0.30930077955E+01 -0.10335607615E+02  0.62544392600E+02  0.63468131308E+02  0.10566000000E+00 0. -1.
        994    1    1    2    0    0  0.22515288444E+01  0.11668061492E+02  0.13768652573E+01  0.17161744899E+03  0.17120000000E+03 0.  0.
        998    1    1    2    0    0  0.84147895110E+00 -0.13324538775E+01  0.14360787384E+04  0.14361144197E+04  0.10000000000E+02 0.  0.
</event>
<event>
 5    1  0.1338054E-008  0.3700184E+03  0.7957747E-01  0.3495806E+00
         13   -1    0    0    0    0  0.00000000000E+00  0.00000000000E+00  0.14999999963E+04  0.15000000000E+04  0.10566000000E+00 0.  1.
        994   -1    0    0    0    0 -0.00000000000E+00 -0.00000000000E+00  0.11368683772E-12  0.17120000000E+03  0.17120000000E+03 0.  0.
         13    1    1    2    0    0  0.47235008846E+02 -0.42561239413E+02  0.23287833540E+03  0.24140202034E+03  0.10566000000E+00 0.  1.
        994    1    1    2    0    0 -0.12816446039E+02  0.20880743397E+02  0.11337583450E+02  0.17331545670E+03  0.17120000000E+03 0.  0.
        998    1    1    2    0    0 -0.34418562807E+02  0.21680496016E+02  0.12557840774E+04  0.12564825230E+04  0.10000000000E+02 0.  1.
</event>
<event>
 5    1  0.1338054E-008  0.3751779E+03  0.7957747E-01  0.3472428E+00
         13   -1    0    0    0    0  0.00000000000E+00  0.00000000000E+00  0.14999999963E+04  0.15000000000E+04  0.10566000000E+00 0.  1.
        994   -1    0    0    0    0 -0.00000000000E+00 -0.00000000000E+00  0.11368683772E-12  0.17120000000E+03  0.17120000000E+03 0.  0.
         13    1    1    2    0    0  0.23789807576E+02 -0.24691697744E+02  0.84339074061E+02  0.91042437684E+02  0.10566000000E+00 0.  1.
        994    1    1    2    0    0 -0.15874692843E+02  0.24692814800E+02  0.95204414600E+01  0.17395924747E+03  0.17120000000E+03 0.  0.
        998    1    1    2    0    0 -0.79151147329E+01 -0.11170566016E-02  0.14061404808E+04  0.14061983148E+04  0.10000000000E+02 0.  1.
</event>
<event>
 5    1  0.1338054E-008  0.3854309E+03  0.7957747E-01  0.3427847E+00
         13   -1    0    0    0    0  0.00000000000E+00  0.00000000000E+00  0.14999999963E+04  0.15000000000E+04  0.10566000000E+00 0.  1.
        994   -1    0    0    0    0 -0.00000000000E+00 -0.00000000000E+00  0.11368683772E-12  0.17120000000E+03  0.17120000000E+03 0.  0.
         13    1    1    2    0    0  0.82730471852E+01 -0.92293268060E+01  0.55876068660E+02  0.57234342802E+02  0.10566000000E+00 0.  1.
        994    1    1    2    0    0 -0.54842238596E+01  0.71193769141E+00  0.15167815807E+01  0.17129601336E+03  0.17120000000E+03 0.  0.
        998    1    1    2    0    0 -0.27888233255E+01  0.85173891146E+01  0.14426071460E+04  0.14426696438E+04  0.10000000000E+02 0.  1.
</event>
<event>
 5    1  0.1338054E-008  0.3848375E+03  0.7957747E-01  0.3430362E+00
         13   -1    0    0    0    0  0.00000000000E+00  0.00000000000E+00  0.14999999963E+04  0.15000000000E+04  0.10566000000E+00 0.  1.
        994   -1    0    0    0    0 -0.00000000000E+00 -0.00000000000E+00  0.11368683772E-12  0.17120000000E+03  0.17120000000E+03 0.  0.
         13    1    1    2    0    0  0.19168843349E+02  0.90500725993E+01  0.12514411359E+03  0.12692678480E+03  0.10566000000E+00 0.  1.
        994    1    1    2    0    0 -0.19113514416E+02 -0.36082156377E+01  0.29567118380E+01  0.17232680522E+03  0.17120000000E+03 0.  0.
        998    1    1    2    0    0 -0.55328933394E-01 -0.54418569616E+01  0.13718991708E+04  0.13719464100E+04  0.10000000000E+02 0.  1.
</event>
<event>
 5    1  0.1338054E-008  0.3692982E+03  0.7957747E-01  0.3499123E+00
         13   -1    0    0    0    0  0.00000000000E+00  0.00000000000E+00  0.14999999963E+04  0.15000000000E+04  0.10566000000E+00 0.  1.
        994   -1    0    0    0    0 -0.00000000000E+00 -0.00000000000E+00  0.11368683772E-12  0.17120000000E+03  0.17120000000E+03 0.  0.
         13    1    1    2    0    0 -0.10265703818E+03  0.13357205087E+02  0.39190751335E+03  0.40534971642E+03  0.10566000000E+00 0.  1.
        994    1    1    2    0    0  0.95715486059E+02 -0.51400822846E+00  0.43239430033E+02  0.20085020982E+03  0.17120000000E+03 0.  0.
        998    1    1    2    0    0  0.69415521165E+01 -0.12843196858E+02  0.10648530529E+04  0.10650000738E+04  0.10000000000E+02 0.  1.
</event>
<event>
 5    1  0.1338054E-008  0.3817811E+03  0.7957747E-01  0.3443440E+00
         13   -1    0    0    0    0  0.00000000000E+00  0.00000000000E+00  0.14999999963E+04  0.15000000000E+04  0.10566000000E+00 0.  1.
        994   -1    0    0    0    0 -0.00000000000E+00 -0.00000000000E+00  0.11368683772E-12  0.17120000000E+03  0.17120000000E+03 0.  0.
         13    1    1    2    0    0 -0.11461014390E+01  0.15000982746E+02  0.32970741281E+02  0.36241191709E+02  0.10566000000E+00 0.  1.
        994    1    1    2    0    0  0.46921803632E+00 -0.17144492807E+02  0.42149225977E+01  0.17210856856E+03  0.17120000000E+03 0.  0.
        998    1    1    2    0    0  0.67688340269E+00  0.21435100617E+01  0.14628143324E+04  0.14628502397E+04  0.10000000000E+02 0.  1.
</event>
<event>
 5    1  0.1338054E-008  0.3804050E+03  0.7957747E-01  0.3449397E+00
         13   -1    0    0    0    0  0.00000000000E+00  0.00000000000E+00  0.14999999963E+04  0.15000000000E+04  0.10566000000E+00 0.  1.
        994   -1    0    0    0    0 -0.00000000000E+00 -0.00000000000E+00  0.11368683772E-12  0.17120000000E+03  0.17120000000E+03 0.  0.
         13    1    1    2    0    0 -0.29900019018E+02 -0.94122080315E+01  0.12478930820E+03  0.12866617039E+03  0.10566000000E+00 0.  1.
        994    1    1    2    0    0  0.14987365568E+02  0.99587848677E+01  0.50105869542E+01  0.17221598214E+03  0.17120000000E+03 0.  0.
        998    1    1    2    0    0  0.14912653450E+02 -0.54657683618E+00  0.13702001011E+04  0.13703178475E+04  0.10000000000E+02 0.  1.
</event>
<event>
 5    1  0.1338054E-008  0.3851203E+03  0.7957747E-01  0.3429162E+00
         13   -1    0    0    0    0  0.00000000000E+00  0.00000000000E+00  0.14999999963E+04  0.15000000000E+04  0.10566000000E+00 0.  1.
        994   -1    0    0    0    0 -0.00000000000E+00 -0.00000000000E+00  0.11368683772E-12  0.17120000000E+03  0.17120000000E+03 0.  0.
         13    1    1    2    0    0  0.54680660443E+01 -0.85984009187E+01  0.33082433903E+02  0.34616337784E+02  0.10566000000E+00 0.  1.
        994    1    1    2    0    0 -0.11187226067E+02 -0.16474758729E+00  0.19820622967E+01  0.17157665849E+03  0.17120000000E+03 0.  0.
        998    1    1    2    0    0  0.57191600230E+01  0.87631485060E+01  0.14649355001E+04  0.14650070037E+04  0.10000000000E+02 0.  1.
</event>
<event>
 5    1  0.1338054E-008  0.4208482E+03  0.7957747E-01  0.3290547E+00
         13   -1    0    0    0    0  0.00000000000E+00  0.00000000000E+00  0.14999999963E+04  0.15000000000E+04  0.10566000000E+00 0.  1.
        994   -1    0    0    0    0 -0.00000000000E+00 -0.00000000000E+00  0.11368683772E-12  0.17120000000E+03  0.17120000000E+03 0.  0.
         13    1    1    2    0    0  0.92980271915E+02  0.91357154722E+02  0.33118637924E+03  0.35591556533E+03  0.10566000000E+00 0.  1.
        994    1    1    2    0    0  0.37712189389E+02  0.80644566042E+01  0.47277827027E+02  0.18174674032E+03  0.17120000000E+03 0.  0.
        998    1    1    2    0    0 -0.13069246130E+03 -0.99421611326E+02  0.11215357900E+04  0.11335376943E+04  0.10000000000E+02 0. -1.
</event>
<event>
 5    1  0.1338054E-008  0.3843632E+03  0.7957747E-01  0.3432377E+00
         13   -1    0    0    0    0  0.00000000000E+00  0.00000000000E+00  0.14999999963E+04  0.15000000000E+04  0.10566000000E+00 0.  1.
        994   -1    0    0    0    0 -0.00000000000E+00 -0.00000000000E+00  0.11368683772E-12  0.17120000000E+03  0.17120000000E+03 0.  0.
         13    1    1    2    0    0 -0.11285079563E+02 -0.70551512223E+01  0.48588477043E+02  0.50378362864E+02  0.10566000000E+00 0.  1.
        994    1    1    2    0    0 -0.10559683867E+01 -0.84838262859E+01  0.21875153152E+01  0.17142728955E+03  0.17120000000E+03 0.  0.
        998    1    1    2    0    0  0.12341047950E+02  0.15538977508E+02  0.14492240039E+04  0.14493943476E+04  0.10000000000E+02 0.  1.
</event>
<event>
 5    1  0.1338054E-008  0.3802657E+03  0.7957747E-01  0.3450003E+00
         13   -1    0    0    0    0  0.00000000000E+00  0.00000000000E+00  0.14999999963E+04  0.15000000000E+04  0.10566000000E+00 0. -1.
        994   -1    0    0    0    0 -0.00000000000E+00 -0.00000000000E+00  0.11368683772E-12  0.17120000000E+03  0.17120000000E+03 0.  0.
         13    1    1    2    0    0  0.20042910012E+02 -0.15430305240E+02  0.87534203347E+02  0.91115643449E+02  0.10566000000E+00 0. -1.
        994    1    1    2    0    0  0.11387243228E+02  0.50915527631E+01  0.45189489451E+01  0.17171329045E+03  0.17120000000E+03 0.  0.
        998    1    1    2    0    0 -0.31430153241E+02  0.10338752476E+02  0.14079468440E+04  0.14083710661E+04  0.10000000000E+02 0. -1.
</event>
<event>
 5    1  0.1338054E-008  0.3742302E+03  0.7957747E-01  0.3476673E+00
         13   -1    0    0    0    0  0.00000000000E+00  0.00000000000E+00  0.14999999963E+04  0.15000000000E+04  0.10566000000E+00 0.  1.
        994   -1    0    0    0    0 -0.00000000000E+00 -0.00000000000E+00  0.11368683772E-12  0.17120000000E+03  0.17120000000E+03 0.  0.
         13    1    1    2    0    0  0.31277286089E+02 -0.11365931924E+02  0.69855532270E+02  0.77377384205E+02  0.10566000000E+00 0.  1.
        994    1    1    2    0    0 -0.33292756806E+02  0.36073231300E+02  0.15331675238E+02  0.17875733814E+03  0.17120000000E+03 0.  0.
        998    1    1    2    0    0  0.20154707163E+01 -0.24707299375E+02  0.14148127888E+04  0.14150652777E+04  0.10000000000E+02 0.  1.
</event>
<event>
 5    1  0.1338054E-008  0.3799866E+03  0.7957747E-01  0.3451217E+00
         13   -1    0    0    0    0  0.00000000000E+00  0.00000000000E+00  0.14999999963E+04  0.15000000000E+04  0.10566000000E+00 0.  1.
        994   -1    0    0    0    0 -0.00000000000E+00 -0.00000000000E+00  0.11368683772E-12  0.17120000000E+03  0.17120000000E+03 0.  0.
         13    1    1    2    0    0 -0.66858005563E+01  0.98275495227E+01  0.15453273814E+02  0.19496037913E+02  0.10566000000E+00 0.  1.
        994    1    1    2    0    0  0.38013604650E+01 -0.25785414098E+01  0.42104538582E+01  0.17131335949E+03  0.17120000000E+03 0.  0.
        998    1    1    2    0    0  0.28844400914E+01 -0.72490081129E+01  0.14803362686E+04  0.14803906026E+04  0.10000000000E+02 0.  1.
</event>
<event>
 5    1  0.1338054E-008  0.3875872E+03  0.7957747E-01  0.3418773E+00
         13   -1    0    0    0    0  0.00000000000E+00  0.00000000000E+00  0.14999999963E+04  0.15000000000E+04  0.10566000000E+00 0.  1.
        994   -1    0    0    0    0 -0.00000000000E+00 -0.00000000000E+00  0.11368683772E-12  0.17120000000E+03  0.17120000000E+03 0.  0.
         13    1    1    2    0    0 -0.50222146538E+02 -0.79932502717E+01  0.61372371868E+02  0.79704047861E+02  0.10566000000E+00 0.  1.
        994    1    1    2    0    0 -0.35014612404E+01  0.12197579254E+02  0.21159702360E+02  0.17296882428E+03  0.17120000000E+03 0.  0.
        998    1    1    2    0    0  0.53723607778E+02 -0.42043289827E+01  0.14174679221E+04  0.14185271279E+04  0.10000000000E+02 0.  1.
</event>
<event>
 5    1  0.1338054E-008  0.3738335E+03  0.7957747E-01  0.3478456E+00
         13   -1    0    0    0    0  0.00000000000E+00  0.00000000000E+00  0.14999999963E+04  0.15000000000E+04  0.10566000000E+00 0. -1.
        994   -1    0    0    0    0 -0.00000000000E+00 -0.00000000000E+00  0.11368683772E-12  0.17120000000E+03  0.17120000000E+03 0.  0.
         13    1    1    2    0    0 -0.11388083978E+02 -0.13214458100E+02  0.17997939551E+02  0.25064862890E+02  0.10566000000E+00 0. -1.
        994    1    1    2    0    0  0.36172080818E+00  0.84996777560E+01  0.75259785672E+01  0.17157638450E+03  0.17120000000E+03 0.  0.
        998    1    1    2    0    0  0.11026363170E+02  0.47147803440E+01  0.14744760782E+04  0.14745587526E+04  0.10000000000E+02 0. -1.
</event>
<event>
 5    1  0.1338054E-008  0.3831316E+03  0.7957747E-01  0.3437635E+00
         13   -1    0    0    0    0  0.00000000000E+00  0.00000000000E+00  0.14999999963E+04  0.15000000000E+04  0.10566000000E+00 0.  1.
        994   -1    0    0    0    0 -0.00000000000E+00 -0.00000000000E+00  0.11368683772E-12  0.17120000000E+03  0.17120000000E+03 0.  0.
         13    1    1    2    0    0 -0.10420452141E+02  0.12893147479E+02  0.51866860448E+02  0.54451826889E+02  0.10566000000E+00 0.  1.
        994    1    1    2    0    0  0.73658729675E+01 -0.13640957550E+02  0.33562235532E+01  0.17193323135E+03  0.17120000000E+03 0.  0.
        998    1    1    2    0    0  0.30545791737E+01  0.74781007083E+00  0.14447769123E+04  0.14448149418E+04  0.10000000000E+02 0.  1.
</event>
<event>
 5    1  0.1338054E-008  0.3751147E+03  0.7957747E-01  0.3472710E+00
         13   -1    0    0    0    0  0.00000000000E+00  0.00000000000E+00  0.14999999963E+04  0.15000000000E+04  0.10566000000E+00 0. -1.
        994   -1    0    0    0    0 -0.00000000000E+00 -0.00000000000E+00  0.11368683772E-12  0.17120000000E+03  0.17120000000E+03 0.  0.
         13    1    1    2    0    0  0.10210391716E+03  0.19416311016E+02  0.49909851770E+03  0.50980539873E+03  0.10566000000E+00 0. -1.
        994    1    1    2    0    0 -0.11074629297E+03 -0.57133319026E+01  0.49624548051E+02  0.20992717627E+03  0.17120000000E+03 0.  0.
        998    1    1    2    0    0  0.86423758058E+01 -0.13702979113E+02  0.95127693052E+03  0.95146742500E+03  0.10000000000E+02 0.  0.
</event>
<event>
 5    1  0.1338054E-008  0.3850159E+03  0.7957747E-01  0.3429605E+00
         13   -1    0    0    0    0  0.00000000000E+00  0.00000000000E+00  0.14999999963E+04  0.15000000000E+04  0.10566000000E+00 0. -1.
        994   -1    0    0    0    0 -0.00000000000E+00 -0.00000000000E+00  0.11368683772E-12  0.17120000000E+03  0.17120000000E+03 0.  0.
         13    1    1    2    0    0  0.15653470055E+02  0.68893405185E+01  0.94947667208E+02  0.96475721349E+02  0.10566000000E+00 0. -1.
        994    1    1    2    0    0 -0.69431499393E+01  0.46397252970E+01  0.18516198001E+01  0.17141354345E+03  0.17120000000E+03 0.  0.
        998    1    1    2    0    0 -0.87103201158E+01 -0.11529065816E+02  0.14032007093E+04  0.14033107352E+04  0.10000000000E+02 0. -1.
</event>
<event>
 5    1  0.1338054E-008  0.3718971E+03  0.7957747E-01  0.3487217E+00
         13   -1    0    0    0    0  0.00000000000E+00  0.00000000000E+00  0.14999999963E+04  0.15000000000E+04  0.10566000000E+00 0. -1.
        994   -1    0    0    0    0 -0.00000000000E+00 -0.00000000000E+00  0.11368683772E-12  0.17120000000E+03  0.17120000000E+03 0.  0.
         13    1    1    2    0    0 -0.28246088684E+02 -0.64863517217E+02  0.17573026672E+03  0.18943667860E+03  0.10566000000E+00 0. -1.
        994    1    1    2    0    0  0.43862306121E+02  0.66246073090E+02  0.34506502515E+02  0.19186605436E+03  0.17120000000E+03 0.  0.
        998    1    1    2    0    0 -0.15616217437E+02 -0.13825558728E+01  0.12897632270E+04  0.12898972670E+04  0.10000000000E+02 0. -1.
</event>
<event>
 5    1  0.1338054E-008  0.3851852E+03  0.7957747E-01  0.3428887E+00
         13   -1    0    0    0    0  0.00000000000E+00  0.00000000000E+00  0.14999999963E+04  0.15000000000E+04  0.10566000000E+00 0.  1.
        994   -1    0    0    0    0 -0.00000000000E+00 -0.00000000000E+00  0.11368683772E-12  0.17120000000E+03  0.17120000000E+03 0.  0.
         13    1    1    2    0    0  0.86225824745E+01  0.11058146303E+02  0.62095761489E+02  0.63659455599E+02  0.10566000000E+00 0.  1.
        994    1    1    2    0    0 -0.53831643288E+01 -0.13743410253E+02  0.22545679226E+01  0.17184988467E+03  0.17120000000E+03 0.  0.
        998    1    1    2    0    0 -0.32394181457E+01  0.26852639503E+01  0.14356496669E+04  0.14356906597E+04  0.10000000000E+02 0.  1.
</event>
<event>
 5    1  0.1338054E-008  0.3841200E+03  0.7957747E-01  0.3433413E+00
         13   -1    0    0    0    0  0.00000000000E+00  0.00000000000E+00  0.14999999963E+04  0.15000000000E+04  0.10566000000E+00 0. -1.
        994   -1    0    0    0    0 -0.00000000000E+00 -0.00000000000E+00  0.11368683772E-12  0.17120000000E+03  0.17120000000E+03 0.  0.
         13    1    1    2    0    0  0.28134028578E+01 -0.11536123335E+02  0.33709156169E+02  0.35739554431E+02  0.10566000000E+00 0. -1.
        994    1    1    2    0    0 -0.22326080869E+01  0.67798676598E+01  0.22357128205E+01  0.17136332617E+03  0.17120000000E+03 0.  0.
        998    1    1    2    0    0 -0.58079477093E+00  0.47562556752E+01  0.14640551273E+04  0.14640971194E+04  0.10000000000E+02 0. -1.
</event>
<event>
 5    1  0.1670446E-008  0.3866190E+03  0.7957747E-01  0.3422835E+00
         13   -1    0    0    0    0  0.00000000000E+00  0.00000000000E+00  0.14999999963E+04  0.15000000000E+04  0.10566000000E+00 0. -1.
        994   -1    0    0    0    0 -0.00000000000E+00 -0.00000000000E+00  0.11368683772E-12  0.17120000000E+03  0.17120000000E+03 0.  0.
         13    1    1    2    0    0 -0.47992645733E+01 -0.10343473848E+02  0.62895461052E+02  0.63920814893E+02  0.10566000000E+00 0. -1.
        994    1    1    2    0    0  0.26297780161E+02  0.29243215121E+02  0.59050015853E+01  0.17575849315E+03  0.17120000000E+03 0.  0.
        998    1    1    2    0    0 -0.21498515588E+02 -0.18899741273E+02  0.14311995336E+04  0.14315206920E+04  0.10000000000E+02 0. -1.
</event>
<event>
 5    1  0.1489454E-008  0.3847983E+03  0.7957747E-01  0.3430528E+00
         13   -1    0    0    0    0  0.00000000000E+00  0.00000000000E+00  0.14999999963E+04  0.15000000000E+04  0.10566000000E+00 0.  1.
        994   -1    0    0    0    0 -0.00000000000E+00 -0.00000000000E+00  0.11368683772E-12  0.17120000000E+03  0.17120000000E+03 0.  0.
         13    1    1    2    0    0 -0.63722891277E+01 -0.10863894751E+02  0.44289117858E+02  0.46045275572E+02  0.10566000000E+00 0.  1.
        994    1    1    2    0    0  0.81824563180E+01  0.11916557820E+02  0.24182725129E+01  0.17182620575E+03  0.17120000000E+03 0.  0.
        998    1    1    2    0    0 -0.18101671903E+01 -0.10526630692E+01  0.14532926059E+04  0.14533285187E+04  0.10000000000E+02 0.  0.
</event>
<event>
 5    1  0.1338054E-008  0.3738382E+03  0.7957747E-01  0.3478435E+00
         13   -1    0    0    0    0  0.00000000000E+00  0.00000000000E+00  0.14999999963E+04  0.15000000000E+04  0.10566000000E+00 0. -1.
        994   -1    0    0    0    0 -0.00000000000E+00 -0.00000000000E+00  0.11368683772E-12  0.17120000000E+03  0.17120000000E+03 0.  0.
         13    1    1    2    0    0 -0.32498900265E+02  0.60331723627E+01  0.77501925972E+02  0.84256378872E+02  0.10566000000E+00 0. -1.
        994    1    1    2    0    0  0.14958828469E+01 -0.45760847016E+01  0.73556530743E+01  0.17142556358E+03  0.17120000000E+03 0.  0.
        998    1    1    2    0    0  0.31003017418E+02 -0.14570876611E+01  0.14151424172E+04  0.14155180575E+04  0.10000000000E+02 0. -1.
</event>
<event>
 5    1  0.1338054E-008  0.3816419E+03  0.7957747E-01  0.3444040E+00
         13   -1    0    0    0    0  0.00000000000E+00  0.00000000000E+00  0.14999999963E+04  0.15000000000E+04  0.10566000000E+00 0.  1.
        994   -1    0    0    0    0 -0.00000000000E+00 -0.00000000000E+00  0.11368683772E-12  0.17120000000E+03  0.17120000000E+03 0.  0.
         13    1    1    2    0    0 -0.11090778756E+02  0.12704715113E+02  0.42972062470E+02  0.46163020661E+02  0.10566000000E+00 0.  1.
        994    1    1    2    0    0 -0.10839968706E+01 -0.65100429291E+01  0.34514571116E+01  0.17136192186E+03  0.17120000000E+03 0.  0.
        998    1    1    2    0    0  0.12174775627E+02 -0.61946721841E+01  0.14535764767E+04  0.14536750575E+04  0.10000000000E+02 0.  1.
</event>
<event>
 5    1  0.1338054E-008  0.3758414E+03  0.7957747E-01  0.3469468E+00
         13   -1    0    0    0    0  0.00000000000E+00  0.00000000000E+00  0.14999999963E+04  0.15000000000E+04  0.10566000000E+00 0. -1.
        994   -1    0    0    0    0 -0.00000000000E+00 -0.00000000000E+00  0.11368683772E-12  0.17120000000E+03  0.17120000000E+03 0.  0.
         13    1    1    2    0    0 -0.93066053242E+02  0.74267397713E+02  0.37823600906E+03  0.39653426882E+03  0.10566000000E+00 0. -1.
        994    1    1    2    0    0  0.79789473154E+02 -0.82361649629E+02  0.62621312685E+02  0.21536171934E+03  0.17120000000E+03 0.  0.
        998    1    1    2    0    0  0.13276580088E+02  0.80942519163E+01  0.10591426745E+04  0.10593040118E+04  0.10000000000E+02 0. -1.
</event>
<event>
 5    1  0.1338054E-008  0.3827580E+03  0.7957747E-01  0.3439237E+00
         13   -1    0    0    0    0  0.00000000000E+00  0.00000000000E+00  0.14999999963E+04  0.15000000000E+04  0.10566000000E+00 0. -1.
        994   -1    0    0    0    0 -0.00000000000E+00 -0.00000000000E+00  0.11368683772E-12  0.17120000000E+03  0.17120000000E+03 0.  0.
         13    1    1    2    0    0 -0.31225345382E+03  0.69109109052E+02  0.73881396116E+03  0.80506171736E+03  0.10566000000E+00 0. -1.
        994    1    1    2    0    0  0.32736573001E+03 -0.79094609833E+02  0.63994299634E+03  0.74314248772E+03  0.17120000000E+03 0.  0.
        998    1    1    2    0    0 -0.15112276190E+02  0.99855007813E+01  0.12124303878E+03  0.12299579493E+03  0.10000000000E+02 0.  1.
</event>
<event>
 5    1  0.1338054E-008  0.3834921E+03  0.7957747E-01  0.3436093E+00
         13   -1    0    0    0    0  0.00000000000E+00  0.00000000000E+00  0.14999999963E+04  0.15000000000E+04  0.10566000000E+00 0.  1.
        994   -1    0    0    0    0 -0.00000000000E+00 -0.00000000000E+00  0.11368683772E-12  0.17120000000E+03  0.17120000000E+03 0.  0.
         13    1    1    2    0    0 -0.13539539530E+02 -0.15883174964E+02  0.99806707909E+02  0.10196560442E+03  0.10566000000E+00 0.  1.
        994    1    1    2    0    0 -0.87448128934E+01  0.64578266261E+01  0.27712935926E+01  0.17156717444E+03  0.17120000000E+03 0.  0.
        998    1    1    2    0    0  0.22284352423E+02  0.94253483376E+01  0.13974219948E+04  0.13976672211E+04  0.10000000000E+02 0.  1.
</event>
<event>
 5    1  0.1338054E-008  0.3861129E+03  0.7957747E-01  0.3424966E+00
         13   -1    0    0    0    0  0.00000000000E+00  0.00000000000E+00  0.14999999963E+04  0.15000000000E+04  0.10566000000E+00 0. -1.
        994   -1    0    0    0    0 -0.00000000000E+00 -0.00000000000E+00  0.11368683772E-12  0.17120000000E+03  0.17120000000E+03 0.  0.
         13    1    1    2    0    0  0.79168301422E+01  0.10960048078E+02  0.79109863289E+02  0.80256965349E+02  0.10566000000E+00 0. -1.
        994    1    1    2    0    0 -0.11979419280E+02 -0.14296924678E+02  0.22194753473E+01  0.17222739217E+03  0.17120000000E+03 0.  0.
        998    1    1    2    0    0  0.40625891375E+01  0.33368766000E+01  0.14186706576E+04  0.14187156425E+04  0.10000000000E+02 0. -1.
</event>
<event>
 5    1  0.1338054E-008  0.4092745E+03  0.7957747E-01  0.3332823E+00
         13   -1    0    0    0    0  0.00000000000E+00  0.00000000000E+00  0.14999999963E+04  0.15000000000E+04  0.10566000000E+00 0.  1.
        994   -1    0    0    0    0 -0.00000000000E+00 -0.00000000000E+00  0.11368683772E-12  0.17120000000E+03  0.17120000000E+03 0.  0.
         13    1    1    2    0    0 -0.24850274919E+02 -0.47591115515E+01 -0.46361205297E+01  0.25723337341E+02  0.10566000000E+00 0.  1.
        994    1    1    2    0    0 -0.19182049184E+02  0.75851351531E+02  0.58816180004E+02  0.19720588625E+03  0.17120000000E+03 0.  0.
        998    1    1    2    0    0  0.44032324104E+02 -0.71092239980E+02  0.14458199368E+04  0.14482707764E+04  0.10000000000E+02 0.  1.
</event>
<event>
 5    1  0.1338054E-008  0.3823340E+03  0.7957747E-01  0.3441058E+00
         13   -1    0    0    0    0  0.00000000000E+00  0.00000000000E+00  0.14999999963E+04  0.15000000000E+04  0.10566000000E+00 0.  1.
        994   -1    0    0    0    0 -0.00000000000E+00 -0.00000000000E+00  0.11368683772E-12  0.17120000000E+03  0.17120000000E+03 0.  0.
         13    1    1    2    0    0 -0.24385349233E+02  0.14081261617E+02  0.12803662336E+03  0.13109658756E+03  0.10566000000E+00 0.  1.
        994    1    1    2    0    0  0.12512079037E+02 -0.24085347659E+02  0.54071548094E+01  0.17342241325E+03  0.17120000000E+03 0.  0.
        998    1    1    2    0    0  0.11873270197E+02  0.10004086042E+02  0.13665562181E+04  0.13666809992E+04  0.10000000000E+02 0.  1.
</event>
<event>
 5    1  0.1338054E-008  0.3853234E+03  0.7957747E-01  0.3428302E+00
         13   -1    0    0    0    0  0.00000000000E+00  0.00000000000E+00  0.14999999963E+04  0.15000000000E+04  0.10566000000E+00 0. -1.
        994   -1    0    0    0    0 -0.00000000000E+00 -0.00000000000E+00  0.11368683772E-12  0.17120000000E+03  0.17120000000E+03 0.  0.
         13    1    1    2    0    0  0.11003170920E+02  0.15733227950E+01  0.45220334323E+02  0.46566456975E+02  0.10566000000E+00 0. -1.
        994    1    1    2    0    0  0.76087932135E+01 -0.18953233848E+02  0.28411683562E+01  0.17243732498E+03  0.17120000000E+03 0.  0.
        998    1    1    2    0    0 -0.18611964134E+02  0.17379911053E+02  0.14519384936E+04  0.14521962180E+04  0.10000000000E+02 0. -1.
</event>
<event>
 5    1  0.1338054E-008  0.3743701E+03  0.7957747E-01  0.3476045E+00
         13   -1    0    0    0    0  0.00000000000E+00  0.00000000000E+00  0.14999999963E+04  0.15000000000E+04  0.10566000000E+00 0. -1.
        994   -1    0    0    0    0 -0.00000000000E+00 -0.00000000000E+00  0.11368683772E-12  0.17120000000E+03  0.17120000000E+03 0.  0.
         13    1    1    2    0    0  0.20481831918E+02 -0.46444393804E+02  0.22153071528E+03  0.22727176713E+03  0.10566000000E+00 0. -1.
        994    1    1    2    0    0  0.29652228326E+02  0.12600037365E+02  0.10546649457E+02  0.17452417426E+03  0.17120000000E+03 0.  0.
        998    1    1    2    0    0 -0.50134060244E+02  0.33844356438E+02  0.12679226315E+04  0.12694040586E+04  0.10000000000E+02 0. -1.
</event>
<event>
 5    1  0.1338054E-008  0.3708502E+03  0.7957747E-01  0.3491992E+00
         13   -1    0    0    0    0  0.00000000000E+00  0.00000000000E+00  0.14999999963E+04  0.15000000000E+04  0.10566000000E+00 0.  1.
        994   -1    0    0    0    0 -0.00000000000E+00 -0.00000000000E+00  0.11368683772E-12  0.17120000000E+03  0.17120000000E+03 0.  0.
         13    1    1    2    0    0 -0.54898251112E+01  0.14210157795E+02  0.91214281403E+01  0.17756080076E+02  0.10566000000E+00 0.  1.
        994    1    1    2    0    0  0.62731165853E+01 -0.12746057862E+02  0.95213897861E+01  0.17205205854E+03  0.17120000000E+03 0.  0.
        998    1    1    2    0    0 -0.78329147408E+00 -0.14640999327E+01  0.14813571784E+04  0.14813918614E+04  0.10000000000E+02 0.  1.
</event>
<event>
 5    1  0.1338054E-008  0.3849541E+03  0.7957747E-01  0.3429867E+00
         13   -1    0    0    0    0  0.00000000000E+00  0.00000000000E+00  0.14999999963E+04  0.15000000000E+04  0.10566000000E+00 0.  1.
        994   -1    0    0    0    0 -0.00000000000E+00 -0.00000000000E+00  0.11368683772E-12  0.17120000000E+03  0.17120000000E+03 0.  0.
         13    1    1    2    0    0  0.15700361416E+02 -0.13786022873E+02  0.12005148785E+03  0.12185617208E+03  0.10566000000E+00 0.  1.
        994    1    1    2    0    0 -0.28269012796E+02  0.53466120306E+01  0.43801685451E+01  0.17365583555E+03  0.17120000000E+03 0.  0.
        998    1    1    2    0    0  0.12568651381E+02  0.84394108427E+01  0.13755683399E+04  0.13756879924E+04  0.10000000000E+02 0.  1.
</event>
<event>
 5    1  0.1338054E-008  0.3495937E+03  0.7957747E-01  0.3595274E+00
         13   -1    0    0    0    0  0.00000000000E+00  0.00000000000E+00  0.14999999963E+04  0.15000000000E+04  0.10566000000E+00 0.  1.
        994   -1    0    0    0    0 -0.00000000000E+00 -0.00000000000E+00  0.11368683772E-12  0.17120000000E+03  0.17120000000E+03 0.  0.
         13    1    1    2    0    0  0.12187518898E+03  0.19165412444E+03  0.11914001014E+04  0.12128557531E+04  0.10566000000E+00 0.  1.
        994    1    1    2    0    0 -0.88751817799E+02 -0.12256102548E+03  0.12798188014E+03  0.26189099216E+03  0.17120000000E+03 0.  0.
        998    1    1    2    0    0 -0.33123371177E+02 -0.69093098963E+02  0.18061801475E+03  0.19645325474E+03  0.10000000000E+02 0.  1.
</event>
<event>
 5    1  0.1338054E-008  0.3740853E+03  0.7957747E-01  0.3477324E+00
         13   -1    0    0    0    0  0.00000000000E+00  0.00000000000E+00  0.14999999963E+04  0.15000000000E+04  0.10566000000E+00 0. -1.
        994   -1    0    0    0    0 -0.00000000000E+00 -0.00000000000E+00  0.11368683772E-12  0.17120000000E+03  0.17120000000E+03 0.  0.
         13    1    1    2    0    0  0.49164522422E+02  0.43453269928E+02  0.26161304577E+03  0.26971602439E+03  0.10566000000E+00 0. -1.
        994    1    1    2    0    0 -0.45453983353E+02 -0.35652581209E+02  0.18614622008E+02  0.18164007075E+03  0.17120000000E+03 0.  0.
        998    1    1    2    0    0 -0.37105390688E+01 -0.78006887181E+01  0.12197723285E+04  0.12198439049E+04  0.10000000000E+02 0. -1.
</event>
<event>
 5    1  0.1338054E-008  0.3786799E+03  0.7957747E-01  0.3456927E+00
         13   -1    0    0    0    0  0.00000000000E+00  0.00000000000E+00  0.14999999963E+04  0.15000000000E+04  0.10566000000E+00 0.  1.
        994   -1    0    0    0    0 -0.00000000000E+00 -0.00000000000E+00  0.11368683772E-12  0.17120000000E+03  0.17120000000E+03 0.  0.
         13    1    1    2    0    0  0.48171256817E+02  0.16096941663E+03  0.46329501422E+03  0.49282238630E+03  0.10566000000E+00 0.  1.
        994    1    1    2    0    0 -0.83732646427E+02 -0.17483774571E+03  0.16717990756E+03  0.30795771608E+03  0.17120000000E+03 0.  0.
        998    1    1    2    0    0  0.35561389610E+02  0.13868329079E+02  0.86952507450E+03  0.87041989762E+03  0.10000000000E+02 0.  1.
</event>
<event>
 5    1  0.1338054E-008  0.3825607E+03  0.7957747E-01  0.3440084E+00
         13   -1    0    0    0    0  0.00000000000E+00  0.00000000000E+00  0.14999999963E+04  0.15000000000E+04  0.10566000000E+00 0. -1.
        994   -1    0    0    0    0 -0.00000000000E+00 -0.00000000000E+00  0.11368683772E-12  0.17120000000E+03  0.17120000000E+03 0.  0.
         13    1    1    2    0    0  0.10270591841E+02 -0.54876150902E+00  0.17547145936E+02  0.20339608907E+02  0.10566000000E+00 0. -1.
        994    1    1    2    0    0 -0.56687477388E+01  0.54417311908E+00  0.29535623439E+01  0.17132015163E+03  0.17120000000E+03 0.  0.
        998    1    1    2    0    0 -0.46018441022E+01  0.45883899391E-02  0.14794992880E+04  0.14795402395E+04  0.10000000000E+02 0. -1.
</event>
<event>
 5    1  0.1338054E-008  0.3760975E+03  0.7957747E-01  0.3468329E+00
         13   -1    0    0    0    0  0.00000000000E+00  0.00000000000E+00  0.14999999963E+04  0.15000000000E+04  0.10566000000E+00 0. -1.
        994   -1    0    0    0    0 -0.00000000000E+00 -0.00000000000E+00  0.11368683772E-12  0.17120000000E+03  0.17120000000E+03 0.  0.
         13    1    1    2    0    0 -0.30781018759E+02 -0.47626980034E+01  0.82659041072E+02  0.88332794833E+02  0.10566000000E+00 0. -1.
        994    1    1    2    0    0  0.29348220367E+01 -0.52854839923E+01  0.62399930532E+01  0.17142032270E+03  0.17120000000E+03 0.  0.
        998    1    1    2    0    0  0.27846196722E+02  0.10048181996E+02  0.14111009622E+04  0.14114468825E+04  0.10000000000E+02 0. -1.
</event>
<event>
 5    1  0.1338054E-008  0.3817469E+03  0.7957747E-01  0.3443587E+00
         13   -1    0    0    0    0  0.00000000000E+00  0.00000000000E+00  0.14999999963E+04  0.15000000000E+04  0.10566000000E+00 0. -1.
        994   -1    0    0    0    0 -0.00000000000E+00 -0.00000000000E+00  0.11368683772E-12  0.17120000000E+03  0.17120000000E+03 0.  0.
         13    1    1    2    0    0  0.27003266155E+02 -0.20112242899E+01  0.12059096728E+03  0.12359374563E+03  0.10566000000E+00 0. -1.
        994    1    1    2    0    0 -0.35385272281E+01  0.11088785144E+02  0.37043644055E+01  0.17163520806E+03  0.17120000000E+03 0.  0.
        998    1    1    2    0    0 -0.23464738927E+02 -0.90775608539E+01  0.13757046646E+04  0.13759710463E+04  0.10000000000E+02 0. -1.
</event>
<event>
 5    1  0.1338054E-008  0.3969858E+03  0.7957747E-01  0.3380377E+00
         13   -1    0    0    0    0  0.00000000000E+00  0.00000000000E+00  0.14999999963E+04  0.15000000000E+04  0.10566000000E+00 0. -1.
        994   -1    0    0    0    0 -0.00000000000E+00 -0.00000000000E+00  0.11368683772E-12  0.17120000000E+03  0.17120000000E+03 0.  0.
         13    1    1    2    0    0  0.56665084268E+02  0.13583711294E+03  0.42258047901E+03  0.44747840779E+03  0.10566000000E+00 0. -1.
        994    1    1    2    0    0 -0.13382474886E+02 -0.85839381972E+02  0.55815644872E+02  0.19993077888E+03  0.17120000000E+03 0.  0.
        998    1    1    2    0    0 -0.43282609383E+02 -0.49997730969E+02  0.10216038724E+04  0.10237908133E+04  0.10000000000E+02 0. -1.
</event>
<event>
 5    1  0.1338054E-008  0.3841037E+03  0.7957747E-01  0.3433482E+00
         13   -1    0    0    0    0  0.00000000000E+00  0.00000000000E+00  0.14999999963E+04  0.15000000000E+04  0.10566000000E+00 0.  1.
        994   -1    0    0    0    0 -0.00000000000E+00 -0.00000000000E+00  0.11368683772E-12  0.17120000000E+03  0.17120000000E+03 0.  0.
         13    1    1    2    0    0  0.79547346209E+01  0.12121231714E+02  0.44974011125E+02  0.47253305724E+02  0.10566000000E+00 0.  1.
        994    1    1    2    0    0  0.26537875997E+01 -0.41656121404E+02  0.78434998147E+01  0.17638944279E+03  0.17120000000E+03 0.  0.
        998    1    1    2    0    0 -0.10608522221E+02  0.29534889690E+02  0.14471824853E+04  0.14475572515E+04  0.10000000000E+02 0.  1.
</event>
<event>
 5    1  0.1338054E-008  0.3702845E+03  0.7957747E-01  0.3494585E+00
         13   -1    0    0    0    0  0.00000000000E+00  0.00000000000E+00  0.14999999963E+04  0.15000000000E+04  0.10566000000E+00 0. -1.
        994   -1    0    0    0    0 -0.00000000000E+00 -0.00000000000E+00  0.11368683772E-12  0.17120000000E+03  0.17120000000E+03 0.  0.
         13    1    1    2    0    0 -0.52247806393E+02  0.89393860294E+02  0.36033037793E+03  0.37491210697E+03  0.10566000000E+00 0. -1.
        994    1    1    2    0    0  0.60126570959E+02 -0.84165324087E+02  0.49531167601E+02  0.20606257030E+03  0.17120000000E+03 0.  0.
        998    1    1    2    0    0 -0.78787645661E+01 -0.52285362070E+01  0.10901384507E+04  0.10902253227E+04  0.10000000000E+02 0. -1.
</event>
<event>
 5    1  0.1338054E-008  0.3855745E+03  0.7957747E-01  0.3427239E+00
         13   -1    0    0    0    0  0.00000000000E+00  0.00000000000E+00  0.14999999963E+04  0.15000000000E+04  0.10566000000E+00 0.  1.
        994   -1    0    0    0    0 -0.00000000000E+00 -0.00000000000E+00  0.11368683772E-12  0.17120000000E+03  0.17120000000E+03 0.  0.
         13    1    1    2    0    0 -0.93876958624E+01 -0.39585270464E+01  0.39027225992E+02  0.40335273678E+02  0.10566000000E+00 0.  1.
        994    1    1    2    0    0  0.61847644613E+01 -0.57354935066E+00  0.14718139111E+01  0.17131896132E+03  0.17120000000E+03 0.  0.
        998    1    1    2    0    0  0.32029314011E+01  0.45320763970E+01  0.14595009564E+04  0.14595457650E+04  0.10000000000E+02 0.  1.
</event>
<event>
 5    1  0.1338054E-008  0.3815179E+03  0.7957747E-01  0.3444576E+00
         13   -1    0    0    0    0  0.00000000000E+00  0.00000000000E+00  0.14999999963E+04  0.15000000000E+04  0.10566000000E+00 0.  1.
        994   -1    0    0    0    0 -0.00000000000E+00 -0.00000000000E+00  0.11368683772E-12  0.17120000000E+03  0.17120000000E+03 0.  0.
         13    1    1    2    0    0  0.26196262942E+02 -0.14759235294E+02  0.14567575255E+03  0.14874647984E+03  0.10566000000E+00 0.  1.
        994    1    1    2    0    0 -0.12271946130E+02 -0.11265353172E+02  0.42924814411E+01  0.17206212320E+03  0.17120000000E+03 0.  0.
        998    1    1    2    0    0 -0.13924316812E+02  0.26024588465E+02  0.13500317623E+04  0.13503913970E+04  0.10000000000E+02 0.  1.
</event>
<event>
 5    1  0.1338054E-008  0.4134212E+03  0.7957747E-01  0.3317408E+00
         13   -1    0    0    0    0  0.00000000000E+00  0.00000000000E+00  0.14999999963E+04  0.15000000000E+04  0.10566000000E+00 0.  1.
        994   -1    0    0    0    0 -0.00000000000E+00 -0.00000000000E+00  0.11368683772E-12  0.17120000000E+03  0.17120000000E+03 0.  0.
         13    1    1    2    0    0  0.10133426998E+03 -0.68483375419E+02  0.26030251159E+03  0.28760392154E+03  0.10566000000E+00 0.  1.
        994    1    1    2    0    0  0.46397633720E+01  0.28743943250E+02  0.39579450731E+02  0.17811152292E+03  0.17120000000E+03 0.  0.
        998    1    1    2    0    0 -0.10597403335E+03  0.39739432169E+02  0.12001180340E+04  0.12054845555E+04  0.10000000000E+02 0.  1.
</event>
<event>
 5    1  0.1338054E-008  0.3840736E+03  0.7957747E-01  0.3433611E+00
         13   -1    0    0    0    0  0.00000000000E+00  0.00000000000E+00  0.14999999963E+04  0.15000000000E+04  0.10566000000E+00 0. -1.
        994   -1    0    0    0    0 -0.00000000000E+00 -0.00000000000E+00  0.11368683772E-12  0.17120000000E+03  0.17120000000E+03 0.  0.
         13    1    1    2    0    0 -0.14895191027E+02 -0.24751960795E+01  0.53382323705E+02  0.55476814613E+02  0.10566000000E+00 0. -1.
        994    1    1    2    0    0  0.12234402471E+02  0.30157921337E+01  0.26146641068E+01  0.17168299879E+03  0.17120000000E+03 0.  0.
        998    1    1    2    0    0  0.26607885565E+01 -0.54059605418E+00  0.14440030085E+04  0.14440401866E+04  0.10000000000E+02 0.  0.
</event>
<event>
 5    1  0.1338054E-008  0.4438572E+03  0.7957747E-01  0.3212918E+00
         13   -1    0    0    0    0  0.00000000000E+00  0.00000000000E+00  0.14999999963E+04  0.15000000000E+04  0.10566000000E+00 0. -1.
        994   -1    0    0    0    0 -0.00000000000E+00 -0.00000000000E+00  0.11368683772E-12  0.17120000000E+03  0.17120000000E+03 0.  0.
         13    1    1    2    0    0  0.78124772090E+02  0.70573682921E+02  0.72144398336E+02  0.12762817130E+03  0.10566000000E+00 0. -1.
        994    1    1    2    0    0 -0.72669938142E+02 -0.99159193813E+02  0.13488177236E+03  0.25023188874E+03  0.17120000000E+03 0.  0.
        998    1    1    2    0    0 -0.54548339481E+01  0.28585510892E+02  0.12929738256E+04  0.12933399400E+04  0.10000000000E+02 0. -1.
</event>
<event>
 5    1  0.1338054E-008  0.3745855E+03  0.7957747E-01  0.3475079E+00
         13   -1    0    0    0    0  0.00000000000E+00  0.00000000000E+00  0.14999999963E+04  0.15000000000E+04  0.10566000000E+00 0.  1.
        994   -1    0    0    0    0 -0.00000000000E+00 -0.00000000000E+00  0.11368683772E-12  0.17120000000E+03  0.17120000000E+03 0.  0.
         13    1    1    2    0    0 -0.43934461609E+02 -0.53982173218E+02  0.35145348532E+03  0.35827904690E+03  0.10566000000E+00 0.  1.
        994    1    1    2    0    0  0.28321360917E+02  0.27192978006E+02  0.12157229327E+02  0.17606474878E+03  0.17120000000E+03 0.  0.
        998    1    1    2    0    0  0.15613100692E+02  0.26789195211E+02  0.11363892816E+04  0.11368562043E+04  0.10000000000E+02 0.  1.
</event>
<event>
 5    1  0.1338054E-008  0.3852365E+03  0.7957747E-01  0.3428670E+00
         13   -1    0    0    0    0  0.00000000000E+00  0.00000000000E+00  0.14999999963E+04  0.15000000000E+04  0.10566000000E+00 0.  1.
        994   -1    0    0    0    0 -0.00000000000E+00 -0.00000000000E+00  0.11368683772E-12  0.17120000000E+03  0.17120000000E+03 0.  0.
         13    1    1    2    0    0 -0.10381723731E+02 -0.11729854752E+02  0.75315001041E+02  0.76926784841E+02  0.10566000000E+00 0.  1.
        994    1    1    2    0    0  0.24695230908E+01  0.26616217419E+02  0.38643024284E+01  0.17331732287E+03  0.17120000000E+03 0.  0.
        998    1    1    2    0    0  0.79122006403E+01 -0.14886362667E+02  0.14208206928E+04  0.14209558923E+04  0.10000000000E+02 0.  1.
</event>
<event>
 5    1  0.1338054E-008  0.3842656E+03  0.7957747E-01  0.3432793E+00
         13   -1    0    0    0    0  0.00000000000E+00  0.00000000000E+00  0.14999999963E+04  0.15000000000E+04  0.10566000000E+00 0.  1.
        994   -1    0    0    0    0 -0.00000000000E+00 -0.00000000000E+00  0.11368683772E-12  0.17120000000E+03  0.17120000000E+03 0.  0.
         13    1    1    2    0    0 -0.75495853239E+01  0.16723370710E+02  0.88581045278E+02  0.90461484141E+02  0.10566000000E+00 0.  1.
        994    1    1    2    0    0 -0.21288145091E+01 -0.53737921823E+01  0.21053262421E+01  0.17131048389E+03  0.17120000000E+03 0.  0.
        998    1    1    2    0    0  0.96783998330E+01 -0.11349578528E+02  0.14093136248E+04  0.14094280320E+04  0.10000000000E+02 0.  1.
</event>
<event>
 5    1  0.1338054E-008  0.3845360E+03  0.7957747E-01  0.3431642E+00
         13   -1    0    0    0    0  0.00000000000E+00  0.00000000000E+00  0.14999999963E+04  0.15000000000E+04  0.10566000000E+00 0. -1.
        994   -1    0    0    0    0 -0.00000000000E+00 -0.00000000000E+00  0.11368683772E-12  0.17120000000E+03  0.17120000000E+03 0.  0.
         13    1    1    2    0    0 -0.11788819718E+02  0.13555555513E+02  0.97874447114E+02  0.99509536817E+02  0.10566000000E+00 0. -1.
        994    1    1    2    0    0 -0.11198354693E+01  0.56243467380E+01  0.19689886805E+01  0.17130733850E+03  0.17120000000E+03 0.  0.
        998    1    1    2    0    0  0.12908655188E+02 -0.19179902251E+02  0.14001565605E+04  0.14003831247E+04  0.10000000000E+02 0. -1.
</event>
<event>
 5    1  0.1338054E-008  0.3849668E+03  0.7957747E-01  0.3429813E+00
         13   -1    0    0    0    0  0.00000000000E+00  0.00000000000E+00  0.14999999963E+04  0.15000000000E+04  0.10566000000E+00 0.  1.
        994   -1    0    0    0    0 -0.00000000000E+00 -0.00000000000E+00  0.11368683772E-12  0.17120000000E+03  0.17120000000E+03 0.  0.
         13    1    1    2    0    0  0.13153950306E+00 -0.16227455795E+02 -0.17795153148E+01  0.16325607584E+02  0.10566000000E+00 0.  1.
        994    1    1    2    0    0  0.35513090957E+02  0.13581310783E+02  0.24436886399E+02  0.17706561792E+03  0.17120000000E+03 0.  0.
        998    1    1    2    0    0 -0.35644630460E+02  0.26461450119E+01  0.14773426252E+04  0.14778087745E+04  0.10000000000E+02 0.  1.
</event>
<event>
 5    1  0.1338054E-008  0.3835164E+03  0.7957747E-01  0.3435989E+00
         13   -1    0    0    0    0  0.00000000000E+00  0.00000000000E+00  0.14999999963E+04  0.15000000000E+04  0.10566000000E+00 0. -1.
        994   -1    0    0    0    0 -0.00000000000E+00 -0.00000000000E+00  0.11368683772E-12  0.17120000000E+03  0.17120000000E+03 0.  0.
         13    1    1    2    0    0  0.15359507577E+02 -0.19771553087E+02  0.93602817780E+02  0.96893381843E+02  0.10566000000E+00 0. -1.
        994    1    1    2    0    0 -0.61942724075E+02  0.43291682025E+02  0.21475313188E+02  0.18836586706E+03  0.17120000000E+03 0.  0.
        998    1    1    2    0    0  0.46583216498E+02 -0.23520128937E+02  0.13849218653E+04  0.13859407511E+04  0.10000000000E+02 0. -1.
</event>
<event>
 5    1  0.1338054E-008  0.3825242E+03  0.7957747E-01  0.3440241E+00
         13   -1    0    0    0    0  0.00000000000E+00  0.00000000000E+00  0.14999999963E+04  0.15000000000E+04  0.10566000000E+00 0. -1.
        994   -1    0    0    0    0 -0.00000000000E+00 -0.00000000000E+00  0.11368683772E-12  0.17120000000E+03  0.17120000000E+03 0.  0.
         13    1    1    2    0    0 -0.86193600753E+01  0.23331258618E+02  0.97855288022E+02  0.10096687355E+03  0.10566000000E+00 0. -1.
        994    1    1    2    0    0  0.51500909162E+01 -0.30763194652E+02  0.60964563906E+01  0.17412496766E+03  0.17120000000E+03 0.  0.
        998    1    1    2    0    0  0.34692691592E+01  0.74319360343E+01  0.13960482519E+04  0.13961081588E+04  0.10000000000E+02 0. -1.
</event>
<event>
 5    1  0.1338054E-008  0.3832439E+03  0.7957747E-01  0.3437154E+00
         13   -1    0    0    0    0  0.00000000000E+00  0.00000000000E+00  0.14999999963E+04  0.15000000000E+04  0.10566000000E+00 0. -1.
        994   -1    0    0    0    0 -0.00000000000E+00 -0.00000000000E+00  0.11368683772E-12  0.17120000000E+03  0.17120000000E+03 0.  0.
         13    1    1    2    0    0 -0.11438068713E+02  0.28553192078E+01  0.34137216327E+02  0.36115688644E+02  0.10566000000E+00 0. -1.
        994    1    1    2    0    0 -0.49169982303E+02  0.16073350728E+02  0.11406324737E+02  0.17920821412E+03  0.17120000000E+03 0.  0.
        998    1    1    2    0    0  0.60608051017E+02 -0.18928669936E+02  0.14544564552E+04  0.14558760972E+04  0.10000000000E+02 0. -1.
</event>
<event>
 5    1  0.1338054E-008  0.3836625E+03  0.7957747E-01  0.3435364E+00
         13   -1    0    0    0    0  0.00000000000E+00  0.00000000000E+00  0.14999999963E+04  0.15000000000E+04  0.10566000000E+00 0. -1.
        994   -1    0    0    0    0 -0.00000000000E+00 -0.00000000000E+00  0.11368683772E-12  0.17120000000E+03  0.17120000000E+03 0.  0.
         13    1    1    2    0    0 -0.92590273852E+01  0.10865003299E+02  0.43806602220E+02  0.46073934571E+02  0.10566000000E+00 0. -1.
        994    1    1    2    0    0 -0.32849162867E+01 -0.15233091733E+02  0.30981176948E+01  0.17193567429E+03  0.17120000000E+03 0.  0.
        998    1    1    2    0    0  0.12543943672E+02  0.43680884346E+01  0.14530952764E+04  0.14531903911E+04  0.10000000000E+02 0. -1.
</event>
<event>
 5    1  0.1338054E-008  0.3820065E+03  0.7957747E-01  0.3442468E+00
         13   -1    0    0    0    0  0.00000000000E+00  0.00000000000E+00  0.14999999963E+04  0.15000000000E+04  0.10566000000E+00 0.  1.
        994   -1    0    0    0    0 -0.00000000000E+00 -0.00000000000E+00  0.11368683772E-12  0.17120000000E+03  0.17120000000E+03 0.  0.
         13    1    1    2    0    0  0.13449290739E+02 -0.62392500309E+01  0.32824085128E+02  0.36017265177E+02  0.10566000000E+00 0.  1.
        994    1    1    2    0    0 -0.12396622579E+02  0.22062672444E+02  0.52534343093E+01  0.17314004834E+03  0.17120000000E+03 0.  0.
        998    1    1    2    0    0 -0.10526681592E+01 -0.15823422413E+02  0.14619224768E+04  0.14620426865E+04  0.10000000000E+02 0.  1.
</event>
<event>
 5    1  0.1338054E-008  0.3818347E+03  0.7957747E-01  0.3443209E+00
         13   -1    0    0    0    0  0.00000000000E+00  0.00000000000E+00  0.14999999963E+04  0.15000000000E+04  0.10566000000E+00 0.  1.
        994   -1    0    0    0    0 -0.00000000000E+00 -0.00000000000E+00  0.11368683772E-12  0.17120000000E+03  0.17120000000E+03 0.  0.
         13    1    1    2    0    0  0.23107729644E+01  0.11295255640E+02  0.19100578755E+02  0.22310664366E+02  0.10566000000E+00 0.  1.
        994    1    1    2    0    0 -0.39831542843E+01 -0.13404703771E+02  0.38599203877E+01  0.17181353435E+03  0.17120000000E+03 0.  0.
        998    1    1    2    0    0  0.16723813199E+01  0.21094481314E+01  0.14770394971E+04  0.14770758013E+04  0.10000000000E+02 0.  1.
</event>
<event>
 5    1  0.1338054E-008  0.3752239E+03  0.7957747E-01  0.3472222E+00
         13   -1    0    0    0    0  0.00000000000E+00  0.00000000000E+00  0.14999999963E+04  0.15000000000E+04  0.10566000000E+00 0.  1.
        994   -1    0    0    0    0 -0.00000000000E+00 -0.00000000000E+00  0.11368683772E-12  0.17120000000E+03  0.17120000000E+03 0.  0.
         13    1    1    2    0    0  0.33650927686E+02 -0.27777710519E+02  0.14065158785E+03  0.14726461375E+03  0.10566000000E+00 0.  1.
        994    1    1    2    0    0 -0.16358294904E+02  0.25743318916E+02  0.97301984473E+01  0.17416781862E+03  0.17120000000E+03 0.  0.
        998    1    1    2    0    0 -0.17292632781E+02  0.20343916027E+01  0.13496182100E+04  0.13497675676E+04  0.10000000000E+02 0.  1.
</event>
<event>
 5    1  0.1338054E-008  0.3784484E+03  0.7957747E-01  0.3457942E+00
         13   -1    0    0    0    0  0.00000000000E+00  0.00000000000E+00  0.14999999963E+04  0.15000000000E+04  0.10566000000E+00 0.  1.
        994   -1    0    0    0    0 -0.00000000000E+00 -0.00000000000E+00  0.11368683772E-12  0.17120000000E+03  0.17120000000E+03 0.  0.
         13    1    1    2    0    0  0.76767764579E+01 -0.12835425175E+02  0.20433421744E+02  0.25322261440E+02  0.10566000000E+00 0.  1.
        994    1    1    2    0    0 -0.62360942544E+01  0.13461929951E+02  0.56583794744E+01  0.17193478324E+03  0.17120000000E+03 0.  0.
        998    1    1    2    0    0 -0.14406822034E+01 -0.62650477651E+00  0.14739081951E+04  0.14739429553E+04  0.10000000000E+02 0.  1.
</event>
<event>
 5    1  0.1338054E-008  0.3814439E+03  0.7957747E-01  0.3444895E+00
         13   -1    0    0    0    0  0.00000000000E+00  0.00000000000E+00  0.14999999963E+04  0.15000000000E+04  0.10566000000E+00 0.  1.
        994   -1    0    0    0    0 -0.00000000000E+00 -0.00000000000E+00  0.11368683772E-12  0.17120000000E+03  0.17120000000E+03 0.  0.
         13    1    1    2    0    0 -0.46542255287E+02 -0.34242837256E+02  0.81006038063E+02  0.99502476337E+02  0.10566000000E+00 0.  1.
        994    1    1    2    0    0  0.66671214808E+02  0.44913010949E+02  0.41060863207E+02  0.19353982516E+03  0.17120000000E+03 0.  0.
        998    1    1    2    0    0 -0.20128959521E+02 -0.10670173694E+02  0.13779330950E+04  0.13781576985E+04  0.10000000000E+02 0.  1.
</event>
<event>
 5    1  0.1338054E-008  0.3851595E+03  0.7957747E-01  0.3428996E+00
         13   -1    0    0    0    0  0.00000000000E+00  0.00000000000E+00  0.14999999963E+04  0.15000000000E+04  0.10566000000E+00 0.  1.
        994   -1    0    0    0    0 -0.00000000000E+00 -0.00000000000E+00  0.11368683772E-12  0.17120000000E+03  0.17120000000E+03 0.  0.
         13    1    1    2    0    0 -0.11445003577E+02 -0.20189410671E+00  0.43861442927E+02  0.45330632114E+02  0.10566000000E+00 0.  1.
        994    1    1    2    0    0  0.52258114670E+00  0.54890742839E+01  0.16509063076E+01  0.17129672653E+03  0.17120000000E+03 0.  0.
        998    1    1    2    0    0  0.10922422430E+02 -0.52871801772E+01  0.14544876470E+04  0.14545726414E+04  0.10000000000E+02 0.  1.
</event>
<event>
 5    1  0.1767927E-008  0.3863316E+03  0.7957747E-01  0.3424044E+00
         13   -1    0    0    0    0  0.00000000000E+00  0.00000000000E+00  0.14999999963E+04  0.15000000000E+04  0.10566000000E+00 0.  1.
        994   -1    0    0    0    0 -0.00000000000E+00 -0.00000000000E+00  0.11368683772E-12  0.17120000000E+03  0.17120000000E+03 0.  0.
         13    1    1    2    0    0  0.21506028842E+01  0.11005964949E+02  0.67631590453E+02  0.68555084045E+02  0.10566000000E+00 0.  1.
        994    1    1    2    0    0  0.46311864975E+00 -0.46357887556E+01  0.10415294227E+01  0.17126654606E+03  0.17120000000E+03 0.  0.
        998    1    1    2    0    0 -0.26137215340E+01 -0.63701761933E+01  0.14313268764E+04  0.14313783699E+04  0.10000000000E+02 0.  1.
</event>
<event>
 5    1  0.1338054E-008  0.3820434E+03  0.7957747E-01  0.3442309E+00
         13   -1    0    0    0    0  0.00000000000E+00  0.00000000000E+00  0.14999999963E+04  0.15000000000E+04  0.10566000000E+00 0.  1.
        994   -1    0    0    0    0 -0.00000000000E+00 -0.00000000000E+00  0.11368683772E-12  0.17120000000E+03  0.17120000000E+03 0.  0.
         13    1    1    2    0    0  0.41402292546E+02 -0.22377808859E+02  0.27476010908E+03  0.27876162731E+03  0.10566000000E+00 0.  1.
        994    1    1    2    0    0 -0.49047603066E+02  0.22049984016E+02  0.12767775267E+02  0.17990087617E+03  0.17120000000E+03 0.  0.
        998    1    1    2    0    0  0.76453105208E+01  0.32782484290E+00  0.12124721119E+04  0.12125374965E+04  0.10000000000E+02 0.  1.
</event>
<event>
 5    1  0.1338054E-008  0.3860047E+03  0.7957747E-01  0.3425422E+00
         13   -1    0    0    0    0  0.00000000000E+00  0.00000000000E+00  0.14999999963E+04  0.15000000000E+04  0.10566000000E+00 0.  1.
        994   -1    0    0    0    0 -0.00000000000E+00 -0.00000000000E+00  0.11368683772E-12  0.17120000000E+03  0.17120000000E+03 0.  0.
         13    1    1    2    0    0  0.10658852443E+02  0.40364038768E+01  0.62642301330E+02  0.63670815697E+02  0.10566000000E+00 0.  1.
        994    1    1    2    0    0 -0.25563362383E+01  0.13019630057E+02  0.17094003022E+01  0.17172189048E+03  0.17120000000E+03 0.  0.
        998    1    1    2    0    0 -0.81025162048E+01 -0.17056033934E+02  0.14356482946E+04  0.14358072938E+04  0.10000000000E+02 0.  1.
</event>
<event>
 5    1  0.1338054E-008  0.3776979E+03  0.7957747E-01  0.3461244E+00
         13   -1    0    0    0    0  0.00000000000E+00  0.00000000000E+00  0.14999999963E+04  0.15000000000E+04  0.10566000000E+00 0. -1.
        994   -1    0    0    0    0 -0.00000000000E+00 -0.00000000000E+00  0.11368683772E-12  0.17120000000E+03  0.17120000000E+03 0.  0.
         13    1    1    2    0    0 -0.15272439824E+02  0.87164046074E+01  0.25590225908E+02  0.31049862375E+02  0.10566000000E+00 0. -1.
        994    1    1    2    0    0  0.23979021418E+02 -0.21310053516E+02  0.87742227754E+01  0.17440051271E+03  0.17120000000E+03 0.  0.
        998    1    1    2    0    0 -0.87065815944E+01  0.12593648909E+02  0.14656355476E+04  0.14657496249E+04  0.10000000000E+02 0. -1.
</event>
<event>
 5    1  0.1594427E-008  0.3847582E+03  0.7957747E-01  0.3430698E+00
         13   -1    0    0    0    0  0.00000000000E+00  0.00000000000E+00  0.14999999963E+04  0.15000000000E+04  0.10566000000E+00 0.  1.
        994   -1    0    0    0    0 -0.00000000000E+00 -0.00000000000E+00  0.11368683772E-12  0.17120000000E+03  0.17120000000E+03 0.  0.
         13    1    1    2    0    0  0.14187492618E+02 -0.12315161753E+02  0.11190415034E+03  0.11347025241E+03  0.10566000000E+00 0.  1.
        994    1    1    2    0    0 -0.15542042006E+01 -0.30904436849E+01  0.17896123665E+01  0.17124429656E+03  0.17120000000E+03 0.  0.
        998    1    1    2    0    0 -0.12633288417E+02  0.15405605438E+02  0.13863062336E+04  0.13864854510E+04  0.10000000000E+02 0.  1.
</event>
<event>
 5    1  0.1338054E-008  0.3699051E+03  0.7957747E-01  0.3496327E+00
         13   -1    0    0    0    0  0.00000000000E+00  0.00000000000E+00  0.14999999963E+04  0.15000000000E+04  0.10566000000E+00 0. -1.
        994   -1    0    0    0    0 -0.00000000000E+00 -0.00000000000E+00  0.11368683772E-12  0.17120000000E+03  0.17120000000E+03 0.  0.
         13    1    1    2    0    0  0.59962149982E+02  0.15161997407E+02  0.16011841340E+03  0.17164866172E+03  0.10566000000E+00 0. -1.
        994    1    1    2    0    0 -0.53443912322E+02 -0.87326314219E+01  0.21208552859E+02  0.18080860967E+03  0.17120000000E+03 0.  0.
        998    1    1    2    0    0 -0.65182376599E+01 -0.64293659851E+01  0.13186730300E+04  0.13187427286E+04  0.10000000000E+02 0. -1.
</event>
<event>
 5    1  0.1338054E-008  0.3811232E+03  0.7957747E-01  0.3446282E+00
         13   -1    0    0    0    0  0.00000000000E+00  0.00000000000E+00  0.14999999963E+04  0.15000000000E+04  0.10566000000E+00 0. -1.
        994   -1    0    0    0    0 -0.00000000000E+00 -0.00000000000E+00  0.11368683772E-12  0.17120000000E+03  0.17120000000E+03 0.  0.
         13    1    1    2    0    0  0.21644857665E-01  0.12100003388E+02  0.19285194052E+02  0.22767090814E+02  0.10566000000E+00 0. -1.
        994    1    1    2    0    0 -0.49485428175E+01 -0.42790190294E+01  0.37097769398E+01  0.17136510883E+03  0.17120000000E+03 0.  0.
        998    1    1    2    0    0  0.49268979598E+01 -0.78209843590E+01  0.14770050253E+04  0.14770678004E+04  0.10000000000E+02 0. -1.
</event>
<event>
 5    1  0.1338054E-008  0.3835919E+03  0.7957747E-01  0.3435666E+00
         13   -1    0    0    0    0  0.00000000000E+00  0.00000000000E+00  0.14999999963E+04  0.15000000000E+04  0.10566000000E+00 0.  1.
        994   -1    0    0    0    0 -0.00000000000E+00 -0.00000000000E+00  0.11368683772E-12  0.17120000000E+03  0.17120000000E+03 0.  0.
         13    1    1    2    0    0  0.18662909709E+02 -0.97060987728E+01  0.11150379775E+03  0.11347079197E+03  0.10566000000E+00 0.  1.
        994    1    1    2    0    0  0.10496058919E+02 -0.12118948335E+01  0.26997724654E+01  0.17154697524E+03  0.17120000000E+03 0.  0.
        998    1    1    2    0    0 -0.29158968628E+02  0.10917993606E+02  0.13857964261E+04  0.13861822328E+04  0.10000000000E+02 0.  1.
</event>
<event>
 5    1  0.1338054E-008  0.3863159E+03  0.7957747E-01  0.3424110E+00
         13   -1    0    0    0    0  0.00000000000E+00  0.00000000000E+00  0.14999999963E+04  0.15000000000E+04  0.10566000000E+00 0.  1.
        994   -1    0    0    0    0 -0.00000000000E+00 -0.00000000000E+00  0.11368683772E-12  0.17120000000E+03  0.17120000000E+03 0.  0.
         13    1    1    2    0    0  0.82111255454E+01 -0.64962486162E+01  0.62757665039E+02  0.63625148440E+02  0.10566000000E+00 0.  1.
        994    1    1    2    0    0  0.24954483478E+01 -0.44980171485E+01  0.10648486642E+01  0.17128056902E+03  0.17120000000E+03 0.  0.
        998    1    1    2    0    0 -0.10706573893E+02  0.10994265765E+02  0.14361774826E+04  0.14362942825E+04  0.10000000000E+02 0.  1.
</event>
<event>
 5    1  0.1338054E-008  0.3790386E+03  0.7957747E-01  0.3455356E+00
         13   -1    0    0    0    0  0.00000000000E+00  0.00000000000E+00  0.14999999963E+04  0.15000000000E+04  0.10566000000E+00 0.  1.
        994   -1    0    0    0    0 -0.00000000000E+00 -0.00000000000E+00  0.11368683772E-12  0.17120000000E+03  0.17120000000E+03 0.  0.
         13    1    1    2    0    0 -0.41444849864E+02  0.59174899531E+01  0.22918347960E+03  0.23297590166E+03  0.10566000000E+00 0.  1.
        994    1    1    2    0    0 -0.17572423848E+01 -0.56002382403E+01  0.47348061577E+01  0.17136600876E+03  0.17120000000E+03 0.  0.
        998    1    1    2    0    0  0.43202092249E+02 -0.31725171287E+00  0.12660817105E+04  0.12668580896E+04  0.10000000000E+02 0.  1.
</event>
<event>
 5    1  0.1338054E-008  0.4066739E+03  0.7957747E-01  0.3342649E+00
         13   -1    0    0    0    0  0.00000000000E+00  0.00000000000E+00  0.14999999963E+04  0.15000000000E+04  0.10566000000E+00 0.  1.
        994   -1    0    0    0    0 -0.00000000000E+00 -0.00000000000E+00  0.11368683772E-12  0.17120000000E+03  0.17120000000E+03 0.  0.
         13    1    1    2    0    0 -0.17187823182E+02  0.47271138712E+02  0.32443702310E+02  0.59854714137E+02  0.10566000000E+00 0.  1.
        994    1    1    2    0    0 -0.15417488545E+02  0.12525889880E+02  0.33421379681E+02  0.17555917945E+03  0.17120000000E+03 0.  0.
        998    1    1    2    0    0  0.32605311727E+02 -0.59797028592E+02  0.14341349143E+04  0.14357861064E+04  0.10000000000E+02 0.  1.
</event>
<event>
 5    1  0.1338054E-008  0.3852756E+03  0.7957747E-01  0.3428504E+00
         13   -1    0    0    0    0  0.00000000000E+00  0.00000000000E+00  0.14999999963E+04  0.15000000000E+04  0.10566000000E+00 0. -1.
        994   -1    0    0    0    0 -0.00000000000E+00 -0.00000000000E+00  0.11368683772E-12  0.17120000000E+03  0.17120000000E+03 0.  0.
         13    1    1    2    0    0  0.11406898883E+02  0.59247556564E+01  0.59655963106E+02  0.61025119171E+02  0.10566000000E+00 0. -1.
        994    1    1    2    0    0  0.78861647725E+01 -0.93800597536E+01  0.19869880390E+01  0.17164954191E+03  0.17120000000E+03 0.  0.
        998    1    1    2    0    0 -0.19293063655E+02  0.34553040972E+01  0.14383570451E+04  0.14385253389E+04  0.10000000000E+02 0. -1.
</event>
<event>
 5    1  0.1338054E-008  0.3778334E+03  0.7957747E-01  0.3460647E+00
         13   -1    0    0    0    0  0.00000000000E+00  0.00000000000E+00  0.14999999963E+04  0.15000000000E+04  0.10566000000E+00 0. -1.
        994   -1    0    0    0    0 -0.00000000000E+00 -0.00000000000E+00  0.11368683772E-12  0.17120000000E+03  0.17120000000E+03 0.  0.
         13    1    1    2    0    0  0.49826191293E+02  0.21969036593E+02  0.86387489108E+02  0.10211805593E+03  0.10566000000E+00 0. -1.
        994    1    1    2    0    0 -0.54854552924E+02 -0.22254095732E+02  0.27849663284E+02  0.18327386747E+03  0.17120000000E+03 0.  0.
        998    1    1    2    0    0  0.50283616307E+01  0.28505913868E+00  0.13857628439E+04  0.13858080766E+04  0.10000000000E+02 0. -1.
</event>
<event>
 5    1  0.1338054E-008  0.3804697E+03  0.7957747E-01  0.3449116E+00
         13   -1    0    0    0    0  0.00000000000E+00  0.00000000000E+00  0.14999999963E+04  0.15000000000E+04  0.10566000000E+00 0. -1.
        994   -1    0    0    0    0 -0.00000000000E+00 -0.00000000000E+00  0.11368683772E-12  0.17120000000E+03  0.17120000000E+03 0.  0.
         13    1    1    2    0    0 -0.95420293363E+01  0.23288566475E+02  0.78012286656E+02  0.81971554125E+02  0.10566000000E+00 0. -1.
        994    1    1    2    0    0  0.41237058843E+01 -0.20882392148E+02  0.54099393789E+01  0.17260297418E+03  0.17120000000E+03 0.  0.
        998    1    1    2    0    0  0.54183234520E+01 -0.24061743272E+01  0.14165777702E+04  0.14166254717E+04  0.10000000000E+02 0. -1.
</event>
<event>
 5    1  0.1338054E-008  0.3858092E+03  0.7957747E-01  0.3426247E+00
         13   -1    0    0    0    0  0.00000000000E+00  0.00000000000E+00  0.14999999963E+04  0.15000000000E+04  0.10566000000E+00 0. -1.
        994   -1    0    0    0    0 -0.00000000000E+00 -0.00000000000E+00  0.11368683772E-12  0.17120000000E+03  0.17120000000E+03 0.  0.
         13    1    1    2    0    0  0.60188787133E+01  0.13658099161E+02  0.85314861508E+02  0.86610665231E+02  0.10566000000E+00 0. -1.
        994    1    1    2    0    0 -0.51699104095E+01 -0.17525151941E+02  0.23247386591E+01  0.17218798836E+03  0.17120000000E+03 0.  0.
        998    1    1    2    0    0 -0.84896830379E+00  0.38670527804E+01  0.14123603961E+04  0.14124013464E+04  0.10000000000E+02 0. -1.
</event>
<event>
 5    1  0.1338054E-008  0.3714502E+03  0.7957747E-01  0.3489252E+00
         13   -1    0    0    0    0  0.00000000000E+00  0.00000000000E+00  0.14999999963E+04  0.15000000000E+04  0.10566000000E+00 0.  1.
        994   -1    0    0    0    0 -0.00000000000E+00 -0.00000000000E+00  0.11368683772E-12  0.17120000000E+03  0.17120000000E+03 0.  0.
         13    1    1    2    0    0  0.43130990660E+02  0.36367937482E+02  0.17483701974E+03  0.18371419071E+03  0.10566000000E+00 0.  1.
        994    1    1    2    0    0 -0.26139876474E+02 -0.36902476943E+02  0.15582040149E+02  0.17775636675E+03  0.17120000000E+03 0.  0.
        998    1    1    2    0    0 -0.16991114186E+02  0.53453946010E+00  0.13095809364E+04  0.13097294425E+04  0.10000000000E+02 0.  1.
</event>
<event>
 5    1  0.1338054E-008  0.3731111E+03  0.7957747E-01  0.3481714E+00
         13   -1    0    0    0    0  0.00000000000E+00  0.00000000000E+00  0.14999999963E+04  0.15000000000E+04  0.10566000000E+00 0.  1.
        994   -1    0    0    0    0 -0.00000000000E+00 -0.00000000000E+00  0.11368683772E-12  0.17120000000E+03  0.17120000000E+03 0.  0.
         13    1    1    2    0    0 -0.69385782721E+02  0.13026253293E+02  0.37257561747E+03  0.37920531644E+03  0.10566000000E+00 0.  1.
        994    1    1    2    0    0  0.20905810726E+02 -0.16625632932E+02  0.10096556252E+02  0.17356510318E+03  0.17120000000E+03 0.  0.
        998    1    1    2    0    0  0.48479971994E+02  0.35993796394E+01  0.11173278226E+04  0.11184295804E+04  0.10000000000E+02 0.  1.
</event>
<event>
 5    1  0.1338054E-008  0.3835094E+03  0.7957747E-01  0.3436019E+00
         13   -1    0    0    0    0  0.00000000000E+00  0.00000000000E+00  0.14999999963E+04  0.15000000000E+04  0.10566000000E+00 0. -1.
        994   -1    0    0    0    0 -0.00000000000E+00 -0.00000000000E+00  0.11368683772E-12  0.17120000000E+03  0.17120000000E+03 0.  0.
         13    1    1    2    0    0 -0.11327278720E+02  0.51445782688E+01  0.32504986994E+02  0.34804586943E+02  0.10566000000E+00 0. -1.
        994    1    1    2    0    0  0.35796046570E+01 -0.94534370053E+00  0.24173159517E+01  0.17125708937E+03  0.17120000000E+03 0.  0.
        998    1    1    2    0    0  0.77476740630E+01 -0.41992345683E+01  0.14650776933E+04  0.14651383237E+04  0.10000000000E+02 0. -1.
</event>
<event>
 5    1  0.1338054E-008  0.3772939E+03  0.7957747E-01  0.3463027E+00
         13   -1    0    0    0    0  0.00000000000E+00  0.00000000000E+00  0.14999999963E+04  0.15000000000E+04  0.10566000000E+00 0.  1.
        994   -1    0    0    0    0 -0.00000000000E+00 -0.00000000000E+00  0.11368683772E-12  0.17120000000E+03  0.17120000000E+03 0.  0.
         13    1    1    2    0    0 -0.38915568182E+02 -0.28102829777E+02  0.19969555162E+03  0.20538382359E+03  0.10566000000E+00 0.  1.
        994    1    1    2    0    0  0.33637070010E+02  0.11009701095E+02  0.97424584331E+01  0.17509146608E+03  0.17120000000E+03 0.  0.
        998    1    1    2    0    0  0.52784981717E+01  0.17093128682E+02  0.12905619862E+04  0.12907247103E+04  0.10000000000E+02 0.  1.
</event>
<event>
 5    1  0.1338054E-008  0.3821045E+03  0.7957747E-01  0.3442046E+00
         13   -1    0    0    0    0  0.00000000000E+00  0.00000000000E+00  0.14999999963E+04  0.15000000000E+04  0.10566000000E+00 0.  1.
        994   -1    0    0    0    0 -0.00000000000E+00 -0.00000000000E+00  0.11368683772E-12  0.17120000000E+03  0.17120000000E+03 0.  0.
         13    1    1    2    0    0  0.14041252064E+02 -0.35351409548E+02  0.20366340056E+03  0.20718511242E+03  0.10566000000E+00 0.  1.
        994    1    1    2    0    0 -0.70087403919E+01  0.39089812970E+02  0.83281345714E+01  0.17594298436E+03  0.17120000000E+03 0.  0.
        998    1    1    2    0    0 -0.70325116719E+01 -0.37384034224E+01  0.12880084611E+04  0.12880719032E+04  0.10000000000E+02 0.  1.
</event>
<event>
 5    1  0.1338054E-008  0.3810767E+03  0.7957747E-01  0.3446483E+00
         13   -1    0    0    0    0  0.00000000000E+00  0.00000000000E+00  0.14999999963E+04  0.15000000000E+04  0.10566000000E+00 0. -1.
        994   -1    0    0    0    0 -0.00000000000E+00 -0.00000000000E+00  0.11368683772E-12  0.17120000000E+03  0.17120000000E+03 0.  0.
         13    1    1    2    0    0  0.11184500910E+02 -0.96411788846E+01  0.29224658036E+02  0.32743506108E+02  0.10566000000E+00 0. -1.
        994    1    1    2    0    0 -0.40435584693E+01  0.66086273848E+01  0.37905724085E+01  0.17141713088E+03  0.17120000000E+03 0.  0.
        998    1    1    2    0    0 -0.71409424411E+01  0.30325514997E+01  0.14669847658E+04  0.14670393630E+04  0.10000000000E+02 0. -1.
</event>
<event>
 5    1  0.1338054E-008  0.3736679E+03  0.7957747E-01  0.3479202E+00
         13   -1    0    0    0    0  0.00000000000E+00  0.00000000000E+00  0.14999999963E+04  0.15000000000E+04  0.10566000000E+00 0. -1.
        994   -1    0    0    0    0 -0.00000000000E+00 -0.00000000000E+00  0.11368683772E-12  0.17120000000E+03  0.17120000000E+03 0.  0.
         13    1    1    2    0    0 -0.81109332479E+01 -0.63454324912E+01  0.37689150884E+01  0.10966660231E+02  0.10566000000E+00 0. -1.
        994    1    1    2    0    0  0.67090297917E+01  0.54666275717E+01  0.76201316496E+01  0.17158788274E+03  0.17120000000E+03 0.  0.
        998    1    1    2    0    0  0.14019034562E+01  0.87880491950E+00  0.14886109495E+04  0.14886454570E+04  0.10000000000E+02 0. -1.
</event>
<event>
 5    1  0.1683153E-008  0.3857808E+03  0.7957747E-01  0.3426368E+00
         13   -1    0    0    0    0  0.00000000000E+00  0.00000000000E+00  0.14999999963E+04  0.15000000000E+04  0.10566000000E+00 0.  1.
        994   -1    0    0    0    0 -0.00000000000E+00 -0.00000000000E+00  0.11368683772E-12  0.17120000000E+03  0.17120000000E+03 0.  0.
         13    1    1    2    0    0 -0.99353259092E+01  0.50623316435E+01  0.48793215133E+02  0.50051242839E+02  0.10566000000E+00 0.  1.
        994    1    1    2    0    0  0.10779790323E+02 -0.70147260800E+01  0.17857793364E+01  0.17169169831E+03  0.17120000000E+03 0.  0.
        998    1    1    2    0    0 -0.84446441412E+00  0.19523944365E+01  0.14494210018E+04  0.14494570588E+04  0.10000000000E+02 0.  1.
</event>
<event>
 5    1  0.1338054E-008  0.3791492E+03  0.7957747E-01  0.3454871E+00
         13   -1    0    0    0    0  0.00000000000E+00  0.00000000000E+00  0.14999999963E+04  0.15000000000E+04  0.10566000000E+00 0.  1.
        994   -1    0    0    0    0 -0.00000000000E+00 -0.00000000000E+00  0.11368683772E-12  0.17120000000E+03  0.17120000000E+03 0.  0.
         13    1    1    2    0    0  0.65003221106E+02 -0.22382625263E+02  0.39216356577E+03  0.39814403694E+03  0.10566000000E+00 0.  1.
        994    1    1    2    0    0 -0.56678731699E+02  0.42448077081E+02  0.21560773303E+02  0.18651708989E+03  0.17120000000E+03 0.  0.
        998    1    1    2    0    0 -0.83244894060E+01 -0.20065451818E+02  0.10862756572E+04  0.10865388732E+04  0.10000000000E+02 0.  1.
</event>
<event>
 5    1  0.1338054E-008  0.3806644E+03  0.7957747E-01  0.3448271E+00
         13   -1    0    0    0    0  0.00000000000E+00  0.00000000000E+00  0.14999999963E+04  0.15000000000E+04  0.10566000000E+00 0.  1.
        994   -1    0    0    0    0 -0.00000000000E+00 -0.00000000000E+00  0.11368683772E-12  0.17120000000E+03  0.17120000000E+03 0.  0.
         13    1    1    2    0    0 -0.22150453416E+02  0.14993329780E+02  0.93244347014E+02  0.97004958319E+02  0.10566000000E+00 0.  1.
        994    1    1    2    0    0  0.25386006127E+02  0.88851566390E+01  0.62148257576E+01  0.17341124351E+03  0.17120000000E+03 0.  0.
        998    1    1    2    0    0 -0.32355527114E+01 -0.23878486419E+02  0.14005408235E+04  0.14007837982E+04  0.10000000000E+02 0.  1.
</event>
<event>
 5    1  0.1338054E-008  0.3824286E+03  0.7957747E-01  0.3440652E+00
         13   -1    0    0    0    0  0.00000000000E+00  0.00000000000E+00  0.14999999963E+04  0.15000000000E+04  0.10566000000E+00 0.  1.
        994   -1    0    0    0    0 -0.00000000000E+00 -0.00000000000E+00  0.11368683772E-12  0.17120000000E+03  0.17120000000E+03 0.  0.
         13    1    1    2    0    0  0.11239140796E+02  0.20506793310E+02  0.88419749258E+02  0.91459882356E+02  0.10566000000E+00 0.  1.
        994    1    1    2    0    0 -0.56180129635E+01 -0.23792890609E+02  0.48967595209E+01  0.17300601714E+03  0.17120000000E+03 0.  0.
        998    1    1    2    0    0 -0.56211278325E+01  0.32860972994E+01  0.14066834875E+04  0.14067341005E+04  0.10000000000E+02 0.  1.
</event>
<event>
 5    1  0.1338054E-008  0.3855003E+03  0.7957747E-01  0.3427553E+00
         13   -1    0    0    0    0  0.00000000000E+00  0.00000000000E+00  0.14999999963E+04  0.15000000000E+04  0.10566000000E+00 0. -1.
        994   -1    0    0    0    0 -0.00000000000E+00 -0.00000000000E+00  0.11368683772E-12  0.17120000000E+03  0.17120000000E+03 0.  0.
         13    1    1    2    0    0 -0.13140967985E+02  0.28802043435E+01  0.65663756276E+02  0.67027760436E+02  0.10566000000E+00 0. -1.
        994    1    1    2    0    0  0.10099008413E+02  0.27586506441E+01  0.17418682077E+01  0.17152863968E+03  0.17120000000E+03 0.  0.
        998    1    1    2    0    0  0.30419595721E+01 -0.56388549876E+01  0.14325943718E+04  0.14326435999E+04  0.10000000000E+02 0. -1.
</event>
<event>
 5    1  0.1338054E-008  0.3744816E+03  0.7957747E-01  0.3475544E+00
         13   -1    0    0    0    0  0.00000000000E+00  0.00000000000E+00  0.14999999963E+04  0.15000000000E+04  0.10566000000E+00 0. -1.
        994   -1    0    0    0    0 -0.00000000000E+00 -0.00000000000E+00  0.11368683772E-12  0.17120000000E+03  0.17120000000E+03 0.  0.
         13    1    1    2    0    0 -0.31175828520E+02 -0.34095666573E+02  0.18872266557E+03  0.19429539991E+03  0.10566000000E+00 0. -1.
        994    1    1    2    0    0 -0.16295611957E+02  0.91046381690E+00  0.78527325738E+01  0.17215539876E+03  0.17120000000E+03 0.  0.
        998    1    1    2    0    0  0.47471440477E+02  0.33185202757E+02  0.13034245981E+04  0.13047492013E+04  0.10000000000E+02 0. -1.
</event>
<event>
 5    1  0.1338054E-008  0.3743580E+03  0.7957747E-01  0.3476099E+00
         13   -1    0    0    0    0  0.00000000000E+00  0.00000000000E+00  0.14999999963E+04  0.15000000000E+04  0.10566000000E+00 0. -1.
        994   -1    0    0    0    0 -0.00000000000E+00 -0.00000000000E+00  0.11368683772E-12  0.17120000000E+03  0.17120000000E+03 0.  0.
         13    1    1    2    0    0 -0.18148987074E+01 -0.18783396286E+02  0.73569334922E+01  0.20254517220E+02  0.10566000000E+00 0. -1.
        994    1    1    2    0    0  0.16142293514E+01  0.22622744364E+02  0.15090249774E+02  0.17335382874E+03  0.17120000000E+03 0.  0.
        998    1    1    2    0    0  0.20066935600E+00 -0.38393480774E+01  0.14775528130E+04  0.14775916540E+04  0.10000000000E+02 0. -1.
</event>
<event>
 5    1  0.1338054E-008  0.3838328E+03  0.7957747E-01  0.3434637E+00
         13   -1    0    0    0    0  0.00000000000E+00  0.00000000000E+00  0.14999999963E+04  0.15000000000E+04  0.10566000000E+00 0. -1.
        994   -1    0    0    0    0 -0.00000000000E+00 -0.00000000000E+00  0.11368683772E-12  0.17120000000E+03  0.17120000000E+03 0.  0.
         13    1    1    2    0    0 -0.57681123334E+00  0.16878533866E+02  0.69426715133E+02  0.71451364961E+02  0.10566000000E+00 0. -1.
        994    1    1    2    0    0  0.10729138789E+02  0.33638429923E+01  0.26281899401E+01  0.17158897762E+03  0.17120000000E+03 0.  0.
        998    1    1    2    0    0 -0.10152327555E+02 -0.20242376858E+02  0.14279450912E+04  0.14281596574E+04  0.10000000000E+02 0. -1.
</event>
<event>
 5    1  0.1338054E-008  0.3795968E+03  0.7957747E-01  0.3452916E+00
         13   -1    0    0    0    0  0.00000000000E+00  0.00000000000E+00  0.14999999963E+04  0.15000000000E+04  0.10566000000E+00 0. -1.
        994   -1    0    0    0    0 -0.00000000000E+00 -0.00000000000E+00  0.11368683772E-12  0.17120000000E+03  0.17120000000E+03 0.  0.
         13    1    1    2    0    0 -0.94076456033E+01 -0.18760274524E+02  0.48225496877E+02  0.52594309664E+02  0.10566000000E+00 0. -1.
        994    1    1    2    0    0  0.11181612826E+02  0.15569055371E+02  0.55676814783E+01  0.17235969084E+03  0.17120000000E+03 0.  0.
        998    1    1    2    0    0 -0.17739672230E+01  0.31912191527E+01  0.14462068179E+04  0.14462459995E+04  0.10000000000E+02 0. -1.
</event>
<event>
 5    1  0.1338054E-008  0.3818900E+03  0.7957747E-01  0.3442970E+00
         13   -1    0    0    0    0  0.00000000000E+00  0.00000000000E+00  0.14999999963E+04  0.15000000000E+04  0.10566000000E+00 0. -1.
        994   -1    0    0    0    0 -0.00000000000E+00 -0.00000000000E+00  0.11368683772E-12  0.17120000000E+03  0.17120000000E+03 0.  0.
         13    1    1    2    0    0 -0.94776495127E+01  0.87877307980E+01  0.25287355159E+02  0.28399146956E+02  0.10566000000E+00 0. -1.
        994    1    1    2    0    0  0.40320160548E+01 -0.40160901029E+01  0.32897281619E+01  0.17132614641E+03  0.17120000000E+03 0.  0.
        998    1    1    2    0    0  0.54456334579E+01 -0.47716406950E+01  0.14714229130E+04  0.14714747066E+04  0.10000000000E+02 0. -1.
</event>
<event>
 5    1  0.1338054E-008  0.3688094E+03  0.7957747E-01  0.3501380E+00
         13   -1    0    0    0    0  0.00000000000E+00  0.00000000000E+00  0.14999999963E+04  0.15000000000E+04  0.10566000000E+00 0. -1.
        994   -1    0    0    0    0 -0.00000000000E+00 -0.00000000000E+00  0.11368683772E-12  0.17120000000E+03  0.17120000000E+03 0.  0.
         13    1    1    2    0    0 -0.11572883230E+03  0.25035484644E+02  0.52835226767E+03  0.54145735569E+03  0.10566000000E+00 0. -1.
        994    1    1    2    0    0  0.10150406534E+03 -0.95398719538E+01  0.46901154299E+02  0.20470281559E+03  0.17120000000E+03 0.  0.
        998    1    1    2    0    0  0.14224766963E+02 -0.15495612691E+02  0.92474657431E+03  0.92503982872E+03  0.10000000000E+02 0. -1.
</event>
<event>
 5    1  0.1338054E-008  0.3720509E+03  0.7957747E-01  0.3486518E+00
         13   -1    0    0    0    0  0.00000000000E+00  0.00000000000E+00  0.14999999963E+04  0.15000000000E+04  0.10566000000E+00 0. -1.
        994   -1    0    0    0    0 -0.00000000000E+00 -0.00000000000E+00  0.11368683772E-12  0.17120000000E+03  0.17120000000E+03 0.  0.
         13    1    1    2    0    0 -0.24589865361E+02 -0.26079521281E+02  0.71912158893E+02  0.80350312192E+02  0.10566000000E+00 0. -1.
        994    1    1    2    0    0  0.19493127861E+02  0.31727444801E+02  0.12976737070E+02  0.17568280648E+03  0.17120000000E+03 0.  0.
        998    1    1    2    0    0  0.50967374996E+01 -0.56479235203E+01  0.14151111003E+04  0.14151668813E+04  0.10000000000E+02 0. -1.
</event>
<event>
 5    1  0.1338054E-008  0.3825400E+03  0.7957747E-01  0.3440173E+00
         13   -1    0    0    0    0  0.00000000000E+00  0.00000000000E+00  0.14999999963E+04  0.15000000000E+04  0.10566000000E+00 0.  1.
        994   -1    0    0    0    0 -0.00000000000E+00 -0.00000000000E+00  0.11368683772E-12  0.17120000000E+03  0.17120000000E+03 0.  0.
         13    1    1    2    0    0  0.12005475904E+02  0.15936526387E+02  0.67315119256E+02  0.70209976281E+02  0.10566000000E+00 0.  1.
        994    1    1    2    0    0 -0.16837440915E+02 -0.88533793368E+01  0.40570061687E+01  0.17230142495E+03  0.17120000000E+03 0.  0.
        998    1    1    2    0    0  0.48319650110E+01 -0.70831470502E+01  0.14286278709E+04  0.14286885988E+04  0.10000000000E+02 0.  1.
</event>
<event>
 5    1  0.1338054E-008  0.3857083E+03  0.7957747E-01  0.3426674E+00
         13   -1    0    0    0    0  0.00000000000E+00  0.00000000000E+00  0.14999999963E+04  0.15000000000E+04  0.10566000000E+00 0. -1.
        994   -1    0    0    0    0 -0.00000000000E+00 -0.00000000000E+00  0.11368683772E-12  0.17120000000E+03  0.17120000000E+03 0.  0.
         13    1    1    2    0    0 -0.61334953834E+01 -0.11848717848E+02  0.72386590211E+02  0.73605988117E+02  0.10566000000E+00 0. -1.
        994    1    1    2    0    0  0.45124044336E+01  0.28601851149E+01  0.13725340315E+01  0.17128883881E+03  0.17120000000E+03 0.  0.
        998    1    1    2    0    0  0.16210909498E+01  0.89885327329E+01  0.14262408720E+04  0.14263051731E+04  0.10000000000E+02 0. -1.
</event>
<event>
 5    1  0.1338054E-008  0.3828198E+03  0.7957747E-01  0.3438971E+00
         13   -1    0    0    0    0  0.00000000000E+00  0.00000000000E+00  0.14999999963E+04  0.15000000000E+04  0.10566000000E+00 0.  1.
        994   -1    0    0    0    0 -0.00000000000E+00 -0.00000000000E+00  0.11368683772E-12  0.17120000000E+03  0.17120000000E+03 0.  0.
         13    1    1    2    0    0 -0.13828441811E+02 -0.15716465918E+01  0.34533704863E+02  0.37232832440E+02  0.10566000000E+00 0.  1.
        994    1    1    2    0    0  0.11689964945E+02 -0.50870680567E+01  0.32549296321E+01  0.17170488668E+03  0.17120000000E+03 0.  0.
        998    1    1    2    0    0  0.21384768659E+01  0.66587146485E+01  0.14622113618E+04  0.14622622809E+04  0.10000000000E+02 0.  1.
</event>
<event>
 5    1  0.1338054E-008  0.3735759E+03  0.7957747E-01  0.3479617E+00
         13   -1    0    0    0    0  0.00000000000E+00  0.00000000000E+00  0.14999999963E+04  0.15000000000E+04  0.10566000000E+00 0.  1.
        994   -1    0    0    0    0 -0.00000000000E+00 -0.00000000000E+00  0.11368683772E-12  0.17120000000E+03  0.17120000000E+03 0.  0.
         13    1    1    2    0    0  0.60253792588E+02  0.73878600339E+02  0.43292485674E+03  0.44329731542E+03  0.10566000000E+00 0.  1.
        994    1    1    2    0    0 -0.51994727351E+02 -0.79375947837E+02  0.38819377310E+02  0.19955043679E+03  0.17120000000E+03 0.  0.
        998    1    1    2    0    0 -0.82590652370E+01  0.54973474988E+01  0.10282557622E+04  0.10283522478E+04  0.10000000000E+02 0.  1.
</event>
<event>
 5    1  0.1338054E-008  0.3846304E+03  0.7957747E-01  0.3431241E+00
         13   -1    0    0    0    0  0.00000000000E+00  0.00000000000E+00  0.14999999963E+04  0.15000000000E+04  0.10566000000E+00 0. -1.
        994   -1    0    0    0    0 -0.00000000000E+00 -0.00000000000E+00  0.11368683772E-12  0.17120000000E+03  0.17120000000E+03 0.  0.
         13    1    1    2    0    0 -0.19053136660E+02  0.17570506958E+01  0.10112197088E+03  0.10291634177E+03  0.10566000000E+00 0. -1.
        994    1    1    2    0    0  0.11110223006E+02 -0.72879166046E+01  0.23952694681E+01  0.17173155825E+03  0.17120000000E+03 0.  0.
        998    1    1    2    0    0  0.79429136548E+01  0.55308659088E+01  0.13964827559E+04  0.13965521000E+04  0.10000000000E+02 0. -1.
</event>
<event>
 5    1  0.1338054E-008  0.3784073E+03  0.7957747E-01  0.3458123E+00
         13   -1    0    0    0    0  0.00000000000E+00  0.00000000000E+00  0.14999999963E+04  0.15000000000E+04  0.10566000000E+00 0.  1.
        994   -1    0    0    0    0 -0.00000000000E+00 -0.00000000000E+00  0.11368683772E-12  0.17120000000E+03  0.17120000000E+03 0.  0.
         13    1    1    2    0    0 -0.16379613386E+02 -0.53667212275E+02  0.27448821641E+03  0.28016468999E+03  0.10566000000E+00 0.  1.
        994    1    1    2    0    0  0.25226733898E+01  0.51771348519E+02  0.14021662445E+02  0.17942319646E+03  0.17120000000E+03 0.  0.
        998    1    1    2    0    0  0.13856939997E+02  0.18958637567E+01  0.12114901174E+04  0.12116121136E+04  0.10000000000E+02 0.  1.
</event>
<event>
 5    1  0.1338054E-008  0.3710387E+03  0.7957747E-01  0.3491131E+00
         13   -1    0    0    0    0  0.00000000000E+00  0.00000000000E+00  0.14999999963E+04  0.15000000000E+04  0.10566000000E+00 0.  1.
        994   -1    0    0    0    0 -0.00000000000E+00 -0.00000000000E+00  0.11368683772E-12  0.17120000000E+03  0.17120000000E+03 0.  0.
         13    1    1    2    0    0 -0.10001101085E+02 -0.69266288862E+00 -0.11025470378E+01  0.10086058635E+02  0.10566000000E+00 0.  1.
        994    1    1    2    0    0  0.21216558432E+02 -0.37291223536E+01  0.13119000889E+02  0.17304796124E+03  0.17120000000E+03 0.  0.
        998    1    1    2    0    0 -0.11215457347E+02  0.44217852422E+01  0.14879835424E+04  0.14880659801E+04  0.10000000000E+02 0.  1.
</event>
<event>
 5    1  0.1338054E-008  0.3822306E+03  0.7957747E-01  0.3441503E+00
         13   -1    0    0    0    0  0.00000000000E+00  0.00000000000E+00  0.14999999963E+04  0.15000000000E+04  0.10566000000E+00 0.  1.
        994   -1    0    0    0    0 -0.00000000000E+00 -0.00000000000E+00  0.11368683772E-12  0.17120000000E+03  0.17120000000E+03 0.  0.
         13    1    1    2    0    0 -0.19216927965E+02  0.20125243560E+02  0.14491555555E+03  0.14756302096E+03  0.10566000000E+00 0.  1.
        994    1    1    2    0    0  0.42403160701E+01  0.49132016397E+01  0.31511635772E+01  0.17135194677E+03  0.17120000000E+03 0.  0.
        998    1    1    2    0    0  0.14976611895E+02 -0.25038445199E+02  0.13519332771E+04  0.13522850323E+04  0.10000000000E+02 0.  1.
</event>
<event>
 5    1  0.1338054E-008  0.3767807E+03  0.7957747E-01  0.3465297E+00
         13   -1    0    0    0    0  0.00000000000E+00  0.00000000000E+00  0.14999999963E+04  0.15000000000E+04  0.10566000000E+00 0.  1.
        994   -1    0    0    0    0 -0.00000000000E+00 -0.00000000000E+00  0.11368683772E-12  0.17120000000E+03  0.17120000000E+03 0.  0.
         13    1    1    2    0    0  0.20451595602E+02  0.15749099139E+02  0.58279307175E+02  0.63740024280E+02  0.10566000000E+00 0.  1.
        994    1    1    2    0    0 -0.11841306046E+01 -0.37071198169E+01  0.58183229950E+01  0.17134304125E+03  0.17120000000E+03 0.  0.
        998    1    1    2    0    0 -0.19267464997E+02 -0.12041979322E+02  0.14359023661E+04  0.14361169345E+04  0.10000000000E+02 0.  1.
</event>
<event>
 5    1  0.1338054E-008  0.3846159E+03  0.7957747E-01  0.3431303E+00
         13   -1    0    0    0    0  0.00000000000E+00  0.00000000000E+00  0.14999999963E+04  0.15000000000E+04  0.10566000000E+00 0.  1.
        994   -1    0    0    0    0 -0.00000000000E+00 -0.00000000000E+00  0.11368683772E-12  0.17120000000E+03  0.17120000000E+03 0.  0.
         13    1    1    2    0    0 -0.11790028355E+02  0.91870838114E+01  0.64050513793E+02  0.65771473746E+02  0.10566000000E+00 0.  1.
        994    1    1    2    0    0  0.39657216737E+01  0.15572532135E+01  0.18807458779E+01  0.17126333289E+03  0.17120000000E+03 0.  0.
        998    1    1    2    0    0  0.78243066818E+01 -0.10744337025E+02  0.14340687366E+04  0.14341651934E+04  0.10000000000E+02 0.  1.
</event>
<event>
 5    1  0.1338054E-008  0.3714931E+03  0.7957747E-01  0.3489057E+00
         13   -1    0    0    0    0  0.00000000000E+00  0.00000000000E+00  0.14999999963E+04  0.15000000000E+04  0.10566000000E+00 0. -1.
        994   -1    0    0    0    0 -0.00000000000E+00 -0.00000000000E+00  0.11368683772E-12  0.17120000000E+03  0.17120000000E+03 0.  0.
         13    1    1    2    0    0  0.30155556161E+02 -0.37375131683E+02  0.94036165551E+02  0.10558915489E+03  0.10566000000E+00 0. -1.
        994    1    1    2    0    0 -0.22218612560E+02  0.22543717850E+02  0.15259603945E+02  0.17476893737E+03  0.17120000000E+03 0.  0.
        998    1    1    2    0    0 -0.79369436010E+01  0.14831413833E+02  0.13907042268E+04  0.13908419077E+04  0.10000000000E+02 0. -1.
</event>
<event>
 5    1  0.1338054E-008  0.3799606E+03  0.7957747E-01  0.3451330E+00
         13   -1    0    0    0    0  0.00000000000E+00  0.00000000000E+00  0.14999999963E+04  0.15000000000E+04  0.10566000000E+00 0. -1.
        994   -1    0    0    0    0 -0.00000000000E+00 -0.00000000000E+00  0.11368683772E-12  0.17120000000E+03  0.17120000000E+03 0.  0.
         13    1    1    2    0    0  0.10955925529E+03  0.34606420218E+01  0.65664706525E+03  0.66573311915E+03  0.10566000000E+00 0. -1.
        994    1    1    2    0    0 -0.12063946597E+03 -0.20202821915E+02  0.55916549940E+02  0.21771112815E+03  0.17120000000E+03 0.  0.
        998    1    1    2    0    0  0.11080210678E+02  0.16742179894E+02  0.78743638109E+03  0.78775575270E+03  0.10000000000E+02 0. -1.
</event>
<event>
 5    1  0.1338054E-008  0.3823265E+03  0.7957747E-01  0.3441091E+00
         13   -1    0    0    0    0  0.00000000000E+00  0.00000000000E+00  0.14999999963E+04  0.15000000000E+04  0.10566000000E+00 0. -1.
        994   -1    0    0    0    0 -0.00000000000E+00 -0.00000000000E+00  0.11368683772E-12  0.17120000000E+03  0.17120000000E+03 0.  0.
         13    1    1    2    0    0 -0.18616559373E+02 -0.18505989915E+02  0.10516314115E+03  0.10838978442E+03  0.10566000000E+00 0. -1.
        994    1    1    2    0    0  0.18858067118E+02  0.25501261053E+02  0.63076331432E+01  0.17422734357E+03  0.17120000000E+03 0.  0.
        998    1    1    2    0    0 -0.24150774446E+00 -0.69952711372E+01  0.13885292220E+04  0.13885828720E+04  0.10000000000E+02 0. -1.
</event>
<event>
 5    1  0.1338054E-008  0.3838075E+03  0.7957747E-01  0.3434746E+00
         13   -1    0    0    0    0  0.00000000000E+00  0.00000000000E+00  0.14999999963E+04  0.15000000000E+04  0.10566000000E+00 0.  1.
        994   -1    0    0    0    0 -0.00000000000E+00 -0.00000000000E+00  0.11368683772E-12  0.17120000000E+03  0.17120000000E+03 0.  0.
         13    1    1    2    0    0  0.68004951178E+01  0.20089414257E+02  0.91338932073E+02  0.93769093924E+02  0.10566000000E+00 0.  1.
        994    1    1    2    0    0  0.24539771178E+02 -0.40096285281E+02  0.95536240535E+01  0.17779376872E+03  0.17120000000E+03 0.  0.
        998    1    1    2    0    0 -0.31340266296E+02  0.20006871024E+02  0.13991074402E+04  0.13996371374E+04  0.10000000000E+02 0.  1.
</event>
<event>
 5    1  0.1338054E-008  0.3841811E+03  0.7957747E-01  0.3433153E+00
         13   -1    0    0    0    0  0.00000000000E+00  0.00000000000E+00  0.14999999963E+04  0.15000000000E+04  0.10566000000E+00 0.  1.
        994   -1    0    0    0    0 -0.00000000000E+00 -0.00000000000E+00  0.11368683772E-12  0.17120000000E+03  0.17120000000E+03 0.  0.
         13    1    1    2    0    0 -0.12922769652E+02  0.10411369124E+02  0.64399903362E+02  0.66503784100E+02  0.10566000000E+00 0.  1.
        994    1    1    2    0    0  0.18604022856E+02 -0.63579406710E+01  0.33128245378E+01  0.17235703607E+03  0.17120000000E+03 0.  0.
        998    1    1    2    0    0 -0.56812532034E+01 -0.40534284531E+01  0.14322872684E+04  0.14323391798E+04  0.10000000000E+02 0.  1.
</event>
<event>
 5    1  0.1338054E-008  0.3821001E+03  0.7957747E-01  0.3442065E+00
         13   -1    0    0    0    0  0.00000000000E+00  0.00000000000E+00  0.14999999963E+04  0.15000000000E+04  0.10566000000E+00 0. -1.
        994   -1    0    0    0    0 -0.00000000000E+00 -0.00000000000E+00  0.11368683772E-12  0.17120000000E+03  0.17120000000E+03 0.  0.
         13    1    1    2    0    0 -0.15956104024E+02 -0.19155212369E+02  0.10466479632E+03  0.10759298383E+03  0.10566000000E+00 0. -1.
        994    1    1    2    0    0 -0.22374995745E+01  0.12121265941E+02  0.35813002040E+01  0.17168050910E+03  0.17120000000E+03 0.  0.
        998    1    1    2    0    0  0.18193603598E+02  0.70339464280E+01  0.13917538998E+04  0.13919265071E+04  0.10000000000E+02 0. -1.
</event>
<event>
 5    1  0.1338054E-008  0.3845329E+03  0.7957747E-01  0.3431656E+00
         13   -1    0    0    0    0  0.00000000000E+00  0.00000000000E+00  0.14999999963E+04  0.15000000000E+04  0.10566000000E+00 0. -1.
        994   -1    0    0    0    0 -0.00000000000E+00 -0.00000000000E+00  0.11368683772E-12  0.17120000000E+03  0.17120000000E+03 0.  0.
         13    1    1    2    0    0  0.46744854251E+00 -0.12013313054E+02  0.39548171428E+02  0.41335302418E+02  0.10566000000E+00 0. -1.
        994    1    1    2    0    0 -0.52529014006E+01  0.21044785451E+01  0.19677159093E+01  0.17130479768E+03  0.17120000000E+03 0.  0.
        998    1    1    2    0    0  0.47854528581E+01  0.99088345087E+01  0.14584841089E+04  0.14585598999E+04  0.10000000000E+02 0. -1.
</event>
<event>
 5    1  0.1338054E-008  0.3705027E+03  0.7957747E-01  0.3493584E+00
         13   -1    0    0    0    0  0.00000000000E+00  0.00000000000E+00  0.14999999963E+04  0.15000000000E+04  0.10566000000E+00 0. -1.
        994   -1    0    0    0    0 -0.00000000000E+00 -0.00000000000E+00  0.11368683772E-12  0.17120000000E+03  0.17120000000E+03 0.  0.
         13    1    1    2    0    0  0.13438174595E+02  0.62215712999E+02  0.18167285916E+03  0.19250043741E+03  0.10566000000E+00 0. -1.
        994    1    1    2    0    0 -0.17056101420E+02 -0.75984996340E+02  0.30240644479E+02  0.19049558221E+03  0.17120000000E+03 0.  0.
        998    1    1    2    0    0  0.36179268254E+01  0.13769283340E+02  0.12880864926E+04  0.12882039804E+04  0.10000000000E+02 0. -1.
</event>
<event>
 5    1  0.1338054E-008  0.3734686E+03  0.7957747E-01  0.3480100E+00
         13   -1    0    0    0    0  0.00000000000E+00  0.00000000000E+00  0.14999999963E+04  0.15000000000E+04  0.10566000000E+00 0.  1.
        994   -1    0    0    0    0 -0.00000000000E+00 -0.00000000000E+00  0.11368683772E-12  0.17120000000E+03  0.17120000000E+03 0.  0.
         13    1    1    2    0    0 -0.13440180210E+02 -0.23987578986E+02  0.46990217852E+02  0.54443862166E+02  0.10566000000E+00 0.  1.
        994    1    1    2    0    0 -0.29152339880E+01  0.28249482841E+02  0.10227970653E+02  0.17384068354E+03  0.17120000000E+03 0.  0.
        998    1    1    2    0    0  0.16355414198E+02 -0.42619038545E+01  0.14427818078E+04  0.14429154543E+04  0.10000000000E+02 0.  1.
</event>
<event>
 5    1  0.1338054E-008  0.3826679E+03  0.7957747E-01  0.3439624E+00
         13   -1    0    0    0    0  0.00000000000E+00  0.00000000000E+00  0.14999999963E+04  0.15000000000E+04  0.10566000000E+00 0.  1.
        994   -1    0    0    0    0 -0.00000000000E+00 -0.00000000000E+00  0.11368683772E-12  0.17120000000E+03  0.17120000000E+03 0.  0.
         13    1    1    2    0    0  0.27868388641E+02 -0.10035070900E+02  0.15057461435E+03  0.15346033815E+03  0.10566000000E+00 0.  1.
        994    1    1    2    0    0 -0.31183654514E+02 -0.16975053925E+02  0.69808747270E+01  0.17498212873E+03  0.17120000000E+03 0.  0.
        998    1    1    2    0    0  0.33152658730E+01  0.27010124826E+02  0.13424445072E+04  0.13427575331E+04  0.10000000000E+02 0.  1.
</event>
<event>
 5    1  0.1338054E-008  0.3837390E+03  0.7957747E-01  0.3435038E+00
         13   -1    0    0    0    0  0.00000000000E+00  0.00000000000E+00  0.14999999963E+04  0.15000000000E+04  0.10566000000E+00 0. -1.
        994   -1    0    0    0    0 -0.00000000000E+00 -0.00000000000E+00  0.11368683772E-12  0.17120000000E+03  0.17120000000E+03 0.  0.
         13    1    1    2    0    0  0.47644182144E+01 -0.17880830110E+02  0.79218084034E+02  0.81350720762E+02  0.10566000000E+00 0. -1.
        994    1    1    2    0    0 -0.62073710161E+00  0.34937287903E+01  0.22990946584E+01  0.17125220376E+03  0.17120000000E+03 0.  0.
        998    1    1    2    0    0 -0.41436811128E+01  0.14387101319E+02  0.14184828176E+04  0.14185970755E+04  0.10000000000E+02 0. -1.
</event>
<event>
 5    1  0.1338054E-008  0.3859671E+03  0.7957747E-01  0.3425581E+00
         13   -1    0    0    0    0  0.00000000000E+00  0.00000000000E+00  0.14999999963E+04  0.15000000000E+04  0.10566000000E+00 0.  1.
        994   -1    0    0    0    0 -0.00000000000E+00 -0.00000000000E+00  0.11368683772E-12  0.17120000000E+03  0.17120000000E+03 0.  0.
         13    1    1    2    0    0  0.28140618809E+01  0.12088918940E+02  0.65157494739E+02  0.66329263452E+02  0.10566000000E+00 0.  1.
        994    1    1    2    0    0  0.41170518119E+01 -0.14776259644E+02  0.19224909000E+01  0.17189655010E+03  0.17120000000E+03 0.  0.
        998    1    1    2    0    0 -0.69311136928E+01  0.26873407042E+01  0.14329200106E+04  0.14329741864E+04  0.10000000000E+02 0.  1.
</event>
<event>
 5    1  0.1338054E-008  0.2215248E+03  0.7957747E-01  0.4687450E+00
         13   -1    0    0    0    0  0.00000000000E+00  0.00000000000E+00  0.14999999963E+04  0.15000000000E+04  0.10566000000E+00 0.  1.
        994   -1    0    0    0    0 -0.00000000000E+00 -0.00000000000E+00  0.11368683772E-12  0.17120000000E+03  0.17120000000E+03 0.  0.
         13    1    1    2    0    0 -0.48200302361E+01 -0.16439346684E+03  0.24411791019E+03  0.29435014841E+03  0.10566000000E+00 0.  1.
        994    1    1    2    0    0 -0.84727642614E+02  0.70467275445E+02  0.12587337431E+03  0.23936991601E+03  0.17120000000E+03 0.  0.
        998    1    1    2    0    0  0.89547672850E+02  0.93926191394E+02  0.11300087118E+04  0.11374799356E+04  0.10000000000E+02 0.  1.
</event>
<event>
 5    1  0.1338054E-008  0.3780974E+03  0.7957747E-01  0.3459485E+00
         13   -1    0    0    0    0  0.00000000000E+00  0.00000000000E+00  0.14999999963E+04  0.15000000000E+04  0.10566000000E+00 0. -1.
        994   -1    0    0    0    0 -0.00000000000E+00 -0.00000000000E+00  0.11368683772E-12  0.17120000000E+03  0.17120000000E+03 0.  0.
         13    1    1    2    0    0 -0.59135771591E+02 -0.62350809300E+01  0.28021638808E+03  0.28645619391E+03  0.10566000000E+00 0. -1.
        994    1    1    2    0    0  0.59601923207E+02  0.93985594839E+01  0.17443646604E+02  0.18235800771E+03  0.17120000000E+03 0.  0.
        998    1    1    2    0    0 -0.46615161630E+00 -0.31634785540E+01  0.12023399616E+04  0.12023857984E+04  0.10000000000E+02 0. -1.
</event>
<event>
 5    1  0.1338054E-008  0.3819842E+03  0.7957747E-01  0.3442564E+00
         13   -1    0    0    0    0  0.00000000000E+00  0.00000000000E+00  0.14999999963E+04  0.15000000000E+04  0.10566000000E+00 0.  1.
        994   -1    0    0    0    0 -0.00000000000E+00 -0.00000000000E+00  0.11368683772E-12  0.17120000000E+03  0.17120000000E+03 0.  0.
         13    1    1    2    0    0  0.20420818664E+02 -0.18230855000E+02  0.10974960232E+03  0.11311215798E+03  0.10566000000E+00 0.  1.
        994    1    1    2    0    0 -0.13715593345E+02  0.28980957660E+02  0.65565514327E+01  0.17429986166E+03  0.17120000000E+03 0.  0.
        998    1    1    2    0    0 -0.67052253184E+01 -0.10750102659E+02  0.13836938425E+04  0.13837879804E+04  0.10000000000E+02 0.  1.
</event>
<event>
 5    1  0.1338054E-008  0.3840894E+03  0.7957747E-01  0.3433543E+00
         13   -1    0    0    0    0  0.00000000000E+00  0.00000000000E+00  0.14999999963E+04  0.15000000000E+04  0.10566000000E+00 0. -1.
        994   -1    0    0    0    0 -0.00000000000E+00 -0.00000000000E+00  0.11368683772E-12  0.17120000000E+03  0.17120000000E+03 0.  0.
         13    1    1    2    0    0  0.43166186396E+01  0.20491242537E+02  0.10897833671E+03  0.11097212827E+03  0.10566000000E+00 0. -1.
        994    1    1    2    0    0  0.15929009221E+01 -0.84036554587E+01  0.23242581291E+01  0.17142928844E+03  0.17120000000E+03 0.  0.
        998    1    1    2    0    0 -0.59095195618E+01 -0.12087587079E+02  0.13886974014E+04  0.13887985833E+04  0.10000000000E+02 0. -1.
</event>
<event>
 5    1  0.1338054E-008  0.3820777E+03  0.7957747E-01  0.3442161E+00
         13   -1    0    0    0    0  0.00000000000E+00  0.00000000000E+00  0.14999999963E+04  0.15000000000E+04  0.10566000000E+00 0. -1.
        994   -1    0    0    0    0 -0.00000000000E+00 -0.00000000000E+00  0.11368683772E-12  0.17120000000E+03  0.17120000000E+03 0.  0.
         13    1    1    2    0    0  0.47495954643E+01  0.20710127922E+02  0.74693586722E+02  0.77657009452E+02  0.10566000000E+00 0. -1.
        994    1    1    2    0    0  0.45916539069E+01 -0.77889474404E+01  0.33594717027E+01  0.17147150503E+03  0.17120000000E+03 0.  0.
        998    1    1    2    0    0 -0.93412493712E+01 -0.12921180481E+02  0.14219469379E+04  0.14220714855E+04  0.10000000000E+02 0. -1.
</event>
<event>
 5    1  0.1338054E-008  0.3816537E+03  0.7957747E-01  0.3443989E+00
         13   -1    0    0    0    0  0.00000000000E+00  0.00000000000E+00  0.14999999963E+04  0.15000000000E+04  0.10566000000E+00 0.  1.
        994   -1    0    0    0    0 -0.00000000000E+00 -0.00000000000E+00  0.11368683772E-12  0.17120000000E+03  0.17120000000E+03 0.  0.
         13    1    1    2    0    0 -0.19636901929E+02 -0.21608224878E+02  0.13195476548E+03  0.13514656710E+03  0.10566000000E+00 0.  1.
        994    1    1    2    0    0  0.54119202534E+01  0.12560535434E+02  0.39228523112E+01  0.17179023459E+03  0.17120000000E+03 0.  0.
        998    1    1    2    0    0  0.14224981675E+02  0.90476894447E+01  0.13641223785E+04  0.13642631983E+04  0.10000000000E+02 0.  1.
</event>
<event>
 5    1  0.1338054E-008  0.3720421E+03  0.7957747E-01  0.3486558E+00
         13   -1    0    0    0    0  0.00000000000E+00  0.00000000000E+00  0.14999999963E+04  0.15000000000E+04  0.10566000000E+00 0. -1.
        994   -1    0    0    0    0 -0.00000000000E+00 -0.00000000000E+00  0.11368683772E-12  0.17120000000E+03  0.17120000000E+03 0.  0.
         13    1    1    2    0    0 -0.67781913651E+01  0.36794815900E+02  0.56890488153E+02  0.68090683369E+02  0.10566000000E+00 0. -1.
        994    1    1    2    0    0 -0.11222368550E+02 -0.67821386577E+01  0.12628366573E+02  0.17216519568E+03  0.17120000000E+03 0.  0.
        998    1    1    2    0    0  0.18000559915E+02 -0.30012677242E+02  0.14304811416E+04  0.14309441210E+04  0.10000000000E+02 0. -1.
</event>
<event>
 5    1  0.1338054E-008  0.3817117E+03  0.7957747E-01  0.3443739E+00
         13   -1    0    0    0    0  0.00000000000E+00  0.00000000000E+00  0.14999999963E+04  0.15000000000E+04  0.10566000000E+00 0.  1.
        994   -1    0    0    0    0 -0.00000000000E+00 -0.00000000000E+00  0.11368683772E-12  0.17120000000E+03  0.17120000000E+03 0.  0.
         13    1    1    2    0    0 -0.83776121353E+01 -0.18492540778E+02  0.64875376509E+02  0.67977820579E+02  0.10566000000E+00 0.  1.
        994    1    1    2    0    0  0.42802274716E+01  0.12470639408E+01  0.33376338931E+01  0.17129055816E+03  0.17120000000E+03 0.  0.
        998    1    1    2    0    0  0.40973846637E+01  0.17245476837E+02  0.14317869859E+04  0.14319316213E+04  0.10000000000E+02 0.  1.
</event>
<event>
 5    1  0.1338054E-008  0.3830690E+03  0.7957747E-01  0.3437903E+00
         13   -1    0    0    0    0  0.00000000000E+00  0.00000000000E+00  0.14999999963E+04  0.15000000000E+04  0.10566000000E+00 0.  1.
        994   -1    0    0    0    0 -0.00000000000E+00 -0.00000000000E+00  0.11368683772E-12  0.17120000000E+03  0.17120000000E+03 0.  0.
         13    1    1    2    0    0  0.15243770591E+02 -0.15281087567E+02  0.85922452609E+02  0.88592117062E+02  0.10566000000E+00 0.  1.
        994    1    1    2    0    0 -0.14738419773E+02  0.13358280773E+02  0.39023803411E+01  0.17239586206E+03  0.17120000000E+03 0.  0.
        998    1    1    2    0    0 -0.50535081858E+00  0.19228067939E+01  0.14101751633E+04  0.14102120209E+04  0.10000000000E+02 0.  1.
</event>
<event>
 5    1  0.1338054E-008  0.3800538E+03  0.7957747E-01  0.3450924E+00
         13   -1    0    0    0    0  0.00000000000E+00  0.00000000000E+00  0.14999999963E+04  0.15000000000E+04  0.10566000000E+00 0.  1.
        994   -1    0    0    0    0 -0.00000000000E+00 -0.00000000000E+00  0.11368683772E-12  0.17120000000E+03  0.17120000000E+03 0.  0.
         13    1    1    2    0    0 -0.17187320722E+02  0.22795030324E+02  0.11247035659E+03  0.11603710474E+03  0.10566000000E+00 0.  1.
        994    1    1    2    0    0  0.10392970538E+02  0.17025703729E+02  0.54370092204E+01  0.17244387346E+03  0.17120000000E+03 0.  0.
        998    1    1    2    0    0  0.67943501844E+01 -0.39820734053E+02  0.13820926305E+04  0.13827190218E+04  0.10000000000E+02 0.  1.
</event>
<event>
 5    1  0.1338054E-008  0.3835515E+03  0.7957747E-01  0.3435839E+00
         13   -1    0    0    0    0  0.00000000000E+00  0.00000000000E+00  0.14999999963E+04  0.15000000000E+04  0.10566000000E+00 0.  1.
        994   -1    0    0    0    0 -0.00000000000E+00 -0.00000000000E+00  0.11368683772E-12  0.17120000000E+03  0.17120000000E+03 0.  0.
         13    1    1    2    0    0  0.66476947382E+01  0.16960763158E+02  0.65139228438E+02  0.67638669249E+02  0.10566000000E+00 0.  1.
        994    1    1    2    0    0 -0.23104166594E+00 -0.27179472885E+02  0.47958486547E+01  0.17341054550E+03  0.17120000000E+03 0.  0.
        998    1    1    2    0    0 -0.64166530723E+01  0.10218709727E+02  0.14300649192E+04  0.14301507853E+04  0.10000000000E+02 0.  1.
</event>
<event>
 5    1  0.1338054E-008  0.4046033E+03  0.7957747E-01  0.3350562E+00
         13   -1    0    0    0    0  0.00000000000E+00  0.00000000000E+00  0.14999999963E+04  0.15000000000E+04  0.10566000000E+00 0.  1.
        994   -1    0    0    0    0 -0.00000000000E+00 -0.00000000000E+00  0.11368683772E-12  0.17120000000E+03  0.17120000000E+03 0.  0.
         13    1    1    2    0    0 -0.11634371906E+02  0.16588461542E+02 -0.67564166465E+01  0.21358745186E+02  0.10566000000E+00 0.  1.
        994    1    1    2    0    0  0.17690844882E+02 -0.21230140766E+02  0.33612324180E+02  0.17664346353E+03  0.17120000000E+03 0.  0.
        998    1    1    2    0    0 -0.60564729763E+01  0.46416792240E+01  0.14731440887E+04  0.14731977913E+04  0.10000000000E+02 0.  1.
</event>
<event>
 5    1  0.1338054E-008  0.3823917E+03  0.7957747E-01  0.3440810E+00
         13   -1    0    0    0    0  0.00000000000E+00  0.00000000000E+00  0.14999999963E+04  0.15000000000E+04  0.10566000000E+00 0. -1.
        994   -1    0    0    0    0 -0.00000000000E+00 -0.00000000000E+00  0.11368683772E-12  0.17120000000E+03  0.17120000000E+03 0.  0.
         13    1    1    2    0    0  0.41734719173E+01  0.16701299095E+02  0.49678012559E+02  0.52576300318E+02  0.10566000000E+00 0. -1.
        994    1    1    2    0    0 -0.23630029992E+01 -0.10699373854E+02  0.33290003834E+01  0.17158258253E+03  0.17120000000E+03 0.  0.
        998    1    1    2    0    0 -0.18104689181E+01 -0.60019252403E+01  0.14469929833E+04  0.14470411172E+04  0.10000000000E+02 0. -1.
</event>
<event>
 5    1  0.1338054E-008  0.3800386E+03  0.7957747E-01  0.3450991E+00
         13   -1    0    0    0    0  0.00000000000E+00  0.00000000000E+00  0.14999999963E+04  0.15000000000E+04  0.10566000000E+00 0. -1.
        994   -1    0    0    0    0 -0.00000000000E+00 -0.00000000000E+00  0.11368683772E-12  0.17120000000E+03  0.17120000000E+03 0.  0.
         13    1    1    2    0    0 -0.44321227543E+02 -0.62794541877E+02  0.44312682560E+03  0.44974317164E+03  0.10566000000E+00 0. -1.
        994    1    1    2    0    0  0.44434490304E+02  0.75652313989E+02  0.30287647023E+02  0.19474208098E+03  0.17120000000E+03 0.  0.
        998    1    1    2    0    0 -0.11326276026E+00 -0.12857772112E+02  0.10265855237E+04  0.10267147474E+04  0.10000000000E+02 0. -1.
</event>
<event>
 5    1  0.1338054E-008  0.3012124E+03  0.7957747E-01  0.3887401E+00
         13   -1    0    0    0    0  0.00000000000E+00  0.00000000000E+00  0.14999999963E+04  0.15000000000E+04  0.10566000000E+00 0.  1.
        994   -1    0    0    0    0 -0.00000000000E+00 -0.00000000000E+00  0.11368683772E-12  0.17120000000E+03  0.17120000000E+03 0.  0.
         13    1    1    2    0    0 -0.85374783635E+02 -0.15651890972E+03  0.67563988819E+03  0.69876769563E+03  0.10566000000E+00 0.  1.
        994    1    1    2    0    0  0.49939686283E+02  0.16664972224E+03  0.12909231664E+03  0.27611658480E+03  0.17120000000E+03 0.  0.
        998    1    1    2    0    0  0.35435097352E+02 -0.10130812519E+02  0.69526779145E+03  0.69631571957E+03  0.10000000000E+02 0.  1.
</event>
<event>
 5    1  0.1338054E-008  0.3750679E+03  0.7957747E-01  0.3472919E+00
         13   -1    0    0    0    0  0.00000000000E+00  0.00000000000E+00  0.14999999963E+04  0.15000000000E+04  0.10566000000E+00 0. -1.
        994   -1    0    0    0    0 -0.00000000000E+00 -0.00000000000E+00  0.11368683772E-12  0.17120000000E+03  0.17120000000E+03 0.  0.
         13    1    1    2    0    0  0.74709880822E+01  0.43370502833E+02  0.70173504306E+02  0.82832047237E+02  0.10566000000E+00 0. -1.
        994    1    1    2    0    0  0.30672507037E+02 -0.13917058280E+02  0.17692610011E+02  0.17537661089E+03  0.17120000000E+03 0.  0.
        998    1    1    2    0    0 -0.38143495119E+02 -0.29453444552E+02  0.14121338820E+04  0.14129913419E+04  0.10000000000E+02 0. -1.
</event>
<event>
 5    1  0.1338054E-008  0.3862465E+03  0.7957747E-01  0.3424403E+00
         13   -1    0    0    0    0  0.00000000000E+00  0.00000000000E+00  0.14999999963E+04  0.15000000000E+04  0.10566000000E+00 0.  1.
        994   -1    0    0    0    0 -0.00000000000E+00 -0.00000000000E+00  0.11368683772E-12  0.17120000000E+03  0.17120000000E+03 0.  0.
         13    1    1    2    0    0  0.92193231017E+01 -0.49272463011E+01  0.55131903778E+02  0.56114273165E+02  0.10566000000E+00 0.  1.
        994    1    1    2    0    0 -0.38583823710E+01  0.62246540543E+01  0.11882230260E+01  0.17136068775E+03  0.17120000000E+03 0.  0.
        998    1    1    2    0    0 -0.53609407307E+01 -0.12974077531E+01  0.14436798695E+04  0.14437250391E+04  0.10000000000E+02 0.  1.
</event>
<event>
 5    1  0.1338054E-008  0.3806374E+03  0.7957747E-01  0.3448388E+00
         13   -1    0    0    0    0  0.00000000000E+00  0.00000000000E+00  0.14999999963E+04  0.15000000000E+04  0.10566000000E+00 0. -1.
        994   -1    0    0    0    0 -0.00000000000E+00 -0.00000000000E+00  0.11368683772E-12  0.17120000000E+03  0.17120000000E+03 0.  0.
         13    1    1    2    0    0 -0.10779841142E+02 -0.12462098345E+03  0.34155121178E+03  0.36373594258E+03  0.10566000000E+00 0. -1.
        994    1    1    2    0    0  0.79152452575E+00  0.12840369410E+03  0.79311690379E+02  0.22822777964E+03  0.17120000000E+03 0.  0.
        998    1    1    2    0    0  0.99883166166E+01 -0.37827106483E+01  0.10791370941E+04  0.10792362778E+04  0.10000000000E+02 0. -1.
</event>
<event>
 5    1  0.1338054E-008  0.3800670E+03  0.7957747E-01  0.3450867E+00
         13   -1    0    0    0    0  0.00000000000E+00  0.00000000000E+00  0.14999999963E+04  0.15000000000E+04  0.10566000000E+00 0.  1.
        994   -1    0    0    0    0 -0.00000000000E+00 -0.00000000000E+00  0.11368683772E-12  0.17120000000E+03  0.17120000000E+03 0.  0.
         13    1    1    2    0    0 -0.41569355195E+02  0.18854542402E+02  0.25067511722E+03  0.25479703808E+03  0.10566000000E+00 0.  1.
        994    1    1    2    0    0  0.62196324766E+02  0.49517622511E+02  0.25520741965E+02  0.19047605105E+03  0.17120000000E+03 0.  0.
        998    1    1    2    0    0 -0.20626969571E+02 -0.68372164914E+02  0.12238041371E+04  0.12259269109E+04  0.10000000000E+02 0.  1.
</event>
<event>
 5    1  0.1338054E-008  0.3752855E+03  0.7957747E-01  0.3471947E+00
         13   -1    0    0    0    0  0.00000000000E+00  0.00000000000E+00  0.14999999963E+04  0.15000000000E+04  0.10566000000E+00 0.  1.
        994   -1    0    0    0    0 -0.00000000000E+00 -0.00000000000E+00  0.11368683772E-12  0.17120000000E+03  0.17120000000E+03 0.  0.
         13    1    1    2    0    0  0.16086354478E+01 -0.18024913562E+03  0.89898698711E+03  0.91688055534E+03  0.10566000000E+00 0.  1.
        994    1    1    2    0    0 -0.20082205824E+02  0.17698780446E+03  0.12326886564E+03  0.27610257361E+03  0.17120000000E+03 0.  0.
        998    1    1    2    0    0  0.18473570377E+02  0.32613311608E+01  0.47774414353E+03  0.47821687106E+03  0.10000000000E+02 0. -1.
</event>
<event>
 5    1  0.1338054E-008  0.3796080E+03  0.7957747E-01  0.3452867E+00
         13   -1    0    0    0    0  0.00000000000E+00  0.00000000000E+00  0.14999999963E+04  0.15000000000E+04  0.10566000000E+00 0.  1.
        994   -1    0    0    0    0 -0.00000000000E+00 -0.00000000000E+00  0.11368683772E-12  0.17120000000E+03  0.17120000000E+03 0.  0.
         13    1    1    2    0    0  0.48182396775E+02  0.38272884441E+02  0.34198184695E+03  0.34747367073E+03  0.10566000000E+00 0.  1.
        994    1    1    2    0    0 -0.44182169583E+02 -0.41526500639E+02  0.16737213140E+02  0.18238993576E+03  0.17120000000E+03 0.  0.
        998    1    1    2    0    0 -0.40002271921E+01  0.32536161983E+01  0.11412809362E+04  0.11413363935E+04  0.10000000000E+02 0.  0.
</event>
<event>
 5    1  0.1338054E-008  0.3822217E+03  0.7957747E-01  0.3441541E+00
         13   -1    0    0    0    0  0.00000000000E+00  0.00000000000E+00  0.14999999963E+04  0.15000000000E+04  0.10566000000E+00 0. -1.
        994   -1    0    0    0    0 -0.00000000000E+00 -0.00000000000E+00  0.11368683772E-12  0.17120000000E+03  0.17120000000E+03 0.  0.
         13    1    1    2    0    0 -0.14864381171E+02 -0.19818692677E+02  0.97907762010E+02  0.10099342272E+03  0.10566000000E+00 0. -1.
        994    1    1    2    0    0  0.10756174456E+02  0.17247153782E+02  0.43881028265E+01  0.17245827046E+03  0.17120000000E+03 0.  0.
        998    1    1    2    0    0  0.41082067148E+01  0.25715388953E+01  0.13977041314E+04  0.13977483068E+04  0.10000000000E+02 0. -1.
</event>
<event>
 5    1  0.1338054E-008  0.3774200E+03  0.7957747E-01  0.3462470E+00
         13   -1    0    0    0    0  0.00000000000E+00  0.00000000000E+00  0.14999999963E+04  0.15000000000E+04  0.10566000000E+00 0.  1.
        994   -1    0    0    0    0 -0.00000000000E+00 -0.00000000000E+00  0.11368683772E-12  0.17120000000E+03  0.17120000000E+03 0.  0.
         13    1    1    2    0    0 -0.55682977527E+02  0.30462214664E+01  0.25539769255E+03  0.26141512194E+03  0.10566000000E+00 0.  1.
        994    1    1    2    0    0  0.46408151273E+02  0.21257411009E+01  0.12752912536E+02  0.17784912723E+03  0.17120000000E+03 0.  0.
        998    1    1    2    0    0  0.92748262542E+01 -0.51719625673E+01  0.12318493912E+04  0.12319357508E+04  0.10000000000E+02 0.  0.
</event>
<event>
 5    1  0.1338054E-008  0.3844588E+03  0.7957747E-01  0.3431971E+00
         13   -1    0    0    0    0  0.00000000000E+00  0.00000000000E+00  0.14999999963E+04  0.15000000000E+04  0.10566000000E+00 0. -1.
        994   -1    0    0    0    0 -0.00000000000E+00 -0.00000000000E+00  0.11368683772E-12  0.17120000000E+03  0.17120000000E+03 0.  0.
         13    1    1    2    0    0 -0.15104753308E+02  0.67612911397E+01  0.77693924846E+02  0.79436929399E+02  0.10566000000E+00 0. -1.
        994    1    1    2    0    0 -0.32596559554E+01 -0.44475783218E+01  0.19992529028E+01  0.17130044752E+03  0.17120000000E+03 0.  0.
        998    1    1    2    0    0  0.18364409264E+02 -0.23137128179E+01  0.14203068185E+04  0.14204626231E+04  0.10000000000E+02 0. -1.
</event>
<event>
 5    1  0.1338054E-008  0.3742071E+03  0.7957747E-01  0.3476776E+00
         13   -1    0    0    0    0  0.00000000000E+00  0.00000000000E+00  0.14999999963E+04  0.15000000000E+04  0.10566000000E+00 0.  1.
        994   -1    0    0    0    0 -0.00000000000E+00 -0.00000000000E+00  0.11368683772E-12  0.17120000000E+03  0.17120000000E+03 0.  0.
         13    1    1    2    0    0 -0.29894611801E+02  0.11321823460E+02  0.60369292279E+02  0.68310571037E+02  0.10566000000E+00 0.  1.
        994    1    1    2    0    0  0.60761184533E+02 -0.14653212080E+02  0.20520432389E+02  0.18340437922E+03  0.17120000000E+03 0.  0.
        998    1    1    2    0    0 -0.30866572732E+02  0.33313886199E+01  0.14191102716E+04  0.14194850497E+04  0.10000000000E+02 0.  1.
</event>
<event>
 5    1  0.1338054E-008  0.3793257E+03  0.7957747E-01  0.3454100E+00
         13   -1    0    0    0    0  0.00000000000E+00  0.00000000000E+00  0.14999999963E+04  0.15000000000E+04  0.10566000000E+00 0.  1.
        994   -1    0    0    0    0 -0.00000000000E+00 -0.00000000000E+00  0.11368683772E-12  0.17120000000E+03  0.17120000000E+03 0.  0.
         13    1    1    2    0    0 -0.52492267539E+02  0.26608429737E+02  0.31540518450E+03  0.32084869995E+03  0.10566000000E+00 0.  1.
        994    1    1    2    0    0  0.45280901852E+02 -0.34469628296E+02  0.15401687984E+02  0.18106674830E+03  0.17120000000E+03 0.  0.
        998    1    1    2    0    0  0.72113656876E+01  0.78611985582E+01  0.11691931238E+04  0.11692845518E+04  0.10000000000E+02 0.  1.
</event>
<event>
 5    1  0.1338054E-008  0.3850402E+03  0.7957747E-01  0.3429502E+00
         13   -1    0    0    0    0  0.00000000000E+00  0.00000000000E+00  0.14999999963E+04  0.15000000000E+04  0.10566000000E+00 0. -1.
        994   -1    0    0    0    0 -0.00000000000E+00 -0.00000000000E+00  0.11368683772E-12  0.17120000000E+03  0.17120000000E+03 0.  0.
         13    1    1    2    0    0 -0.62780620378E+01 -0.16642643503E+02  0.10017027216E+03  0.10173733943E+03  0.10566000000E+00 0. -1.
        994    1    1    2    0    0 -0.19040325535E+01  0.10438571920E+02  0.19804861921E+01  0.17153994127E+03  0.17120000000E+03 0.  0.
        998    1    1    2    0    0  0.81820945913E+01  0.62040715829E+01  0.13978492379E+04  0.13979227193E+04  0.10000000000E+02 0. -1.
</event>
<event>
 5    1  0.1338054E-008  0.3752034E+03  0.7957747E-01  0.3472314E+00
         13   -1    0    0    0    0  0.00000000000E+00  0.00000000000E+00  0.14999999963E+04  0.15000000000E+04  0.10566000000E+00 0.  1.
        994   -1    0    0    0    0 -0.00000000000E+00 -0.00000000000E+00  0.11368683772E-12  0.17120000000E+03  0.17120000000E+03 0.  0.
         13    1    1    2    0    0  0.17674142779E+01  0.23962638951E+02  0.40553952545E+02  0.47137734882E+02  0.10566000000E+00 0.  1.
        994    1    1    2    0    0 -0.11806553031E+01 -0.22147386168E+02  0.82470127805E+01  0.17282752640E+03  0.17120000000E+03 0.  0.
        998    1    1    2    0    0 -0.58675897483E+00 -0.18152527832E+01  0.14511990310E+04  0.14512347387E+04  0.10000000000E+02 0.  1.
</event>
<event>
 5    1  0.1338054E-008  0.3720851E+03  0.7957747E-01  0.3486363E+00
         13   -1    0    0    0    0  0.00000000000E+00  0.00000000000E+00  0.14999999963E+04  0.15000000000E+04  0.10566000000E+00 0.  1.
        994   -1    0    0    0    0 -0.00000000000E+00 -0.00000000000E+00  0.11368683772E-12  0.17120000000E+03  0.17120000000E+03 0.  0.
         13    1    1    2    0    0 -0.32306744944E+02 -0.33503028649E+02  0.85108001087E+02  0.97002895372E+02  0.10566000000E+00 0.  1.
        994    1    1    2    0    0  0.17512298900E+02  0.28114812081E+02  0.15919151198E+02  0.17509992189E+03  0.17120000000E+03 0.  0.
        998    1    1    2    0    0  0.14794446044E+02  0.53882165685E+01  0.13989728440E+04  0.13990971827E+04  0.10000000000E+02 0.  1.
</event>
<event>
 5    1  0.1338054E-008  0.3797849E+03  0.7957747E-01  0.3452096E+00
         13   -1    0    0    0    0  0.00000000000E+00  0.00000000000E+00  0.14999999963E+04  0.15000000000E+04  0.10566000000E+00 0.  1.
        994   -1    0    0    0    0 -0.00000000000E+00 -0.00000000000E+00  0.11368683772E-12  0.17120000000E+03  0.17120000000E+03 0.  0.
         13    1    1    2    0    0  0.18088510483E+01  0.12622136792E+02  0.17310961229E+02  0.21500484228E+02  0.10566000000E+00 0.  1.
        994    1    1    2    0    0 -0.84444093228E+01 -0.91422286432E+01  0.47600960039E+01  0.17171775362E+03  0.17120000000E+03 0.  0.
        998    1    1    2    0    0  0.66355582746E+01 -0.34799081490E+01  0.14779289390E+04  0.14779817622E+04  0.10000000000E+02 0.  1.
</event>
<event>
 5    1  0.1338054E-008  0.3800090E+03  0.7957747E-01  0.3451119E+00
         13   -1    0    0    0    0  0.00000000000E+00  0.00000000000E+00  0.14999999963E+04  0.15000000000E+04  0.10566000000E+00 0.  1.
        994   -1    0    0    0    0 -0.00000000000E+00 -0.00000000000E+00  0.11368683772E-12  0.17120000000E+03  0.17120000000E+03 0.  0.
         13    1    1    2    0    0  0.76748100359E+01 -0.85276357153E+01  0.14265433409E+02  0.18306748329E+02  0.10566000000E+00 0.  1.
        994    1    1    2    0    0 -0.58649989849E+01  0.17533106747E+01  0.42538661593E+01  0.17136221196E+03  0.17120000000E+03 0.  0.
        998    1    1    2    0    0 -0.18098110510E+01  0.67743250406E+01  0.14814806967E+04  0.14815310397E+04  0.10000000000E+02 0.  1.
</event>
<event>
 5    1  0.1338054E-008  0.3771914E+03  0.7957747E-01  0.3463480E+00
         13   -1    0    0    0    0  0.00000000000E+00  0.00000000000E+00  0.14999999963E+04  0.15000000000E+04  0.10566000000E+00 0.  1.
        994   -1    0    0    0    0 -0.00000000000E+00 -0.00000000000E+00  0.11368683772E-12  0.17120000000E+03  0.17120000000E+03 0.  0.
         13    1    1    2    0    0  0.32956226549E+02  0.38196778872E+02  0.16759528743E+03  0.17502370787E+03  0.10566000000E+00 0.  1.
        994    1    1    2    0    0 -0.12105025720E+03 -0.12468058452E+02  0.57278816174E+02  0.21771293033E+03  0.17120000000E+03 0.  0.
        998    1    1    2    0    0  0.88094030654E+02 -0.25728720420E+02  0.12751258927E+04  0.12784633618E+04  0.10000000000E+02 0.  1.
</event>
<event>
 5    1  0.1338054E-008  0.3826094E+03  0.7957747E-01  0.3439875E+00
         13   -1    0    0    0    0  0.00000000000E+00  0.00000000000E+00  0.14999999963E+04  0.15000000000E+04  0.10566000000E+00 0. -1.
        994   -1    0    0    0    0 -0.00000000000E+00 -0.00000000000E+00  0.11368683772E-12  0.17120000000E+03  0.17120000000E+03 0.  0.
         13    1    1    2    0    0  0.10807876151E+02  0.32490680012E+01  0.21859416262E+02  0.24601054309E+02  0.10566000000E+00 0. -1.
        994    1    1    2    0    0 -0.41055995478E+01  0.44778360034E+01  0.29440389427E+01  0.17133305089E+03  0.17120000000E+03 0.  0.
        998    1    1    2    0    0 -0.67022766036E+01 -0.77269040045E+01  0.14751965411E+04  0.14752658948E+04  0.10000000000E+02 0. -1.
</event>
<event>
 5    1  0.1338054E-008  0.3781708E+03  0.7957747E-01  0.3459162E+00
         13   -1    0    0    0    0  0.00000000000E+00  0.00000000000E+00  0.14999999963E+04  0.15000000000E+04  0.10566000000E+00 0. -1.
        994   -1    0    0    0    0 -0.00000000000E+00 -0.00000000000E+00  0.11368683772E-12  0.17120000000E+03  0.17120000000E+03 0.  0.
         13    1    1    2    0    0  0.91225279574E+01 -0.12133088224E+03  0.38260020802E+03  0.40148142403E+03  0.10566000000E+00 0. -1.
        994    1    1    2    0    0 -0.48367461933E+02  0.10541710681E+03  0.65493186323E+02  0.21691236764E+03  0.17120000000E+03 0.  0.
        998    1    1    2    0    0  0.39244933976E+02  0.15913775437E+02  0.10519066019E+04  0.10528062083E+04  0.10000000000E+02 0. -1.
</event>
<event>
 5    1  0.1338054E-008  0.3761425E+03  0.7957747E-01  0.3468129E+00
         13   -1    0    0    0    0  0.00000000000E+00  0.00000000000E+00  0.14999999963E+04  0.15000000000E+04  0.10566000000E+00 0. -1.
        994   -1    0    0    0    0 -0.00000000000E+00 -0.00000000000E+00  0.11368683772E-12  0.17120000000E+03  0.17120000000E+03 0.  0.
         13    1    1    2    0    0 -0.41326941957E+02 -0.43216925075E+01  0.14114046763E+03  0.14712999669E+03  0.10566000000E+00 0. -1.
        994    1    1    2    0    0  0.22681368458E+02 -0.42278031486E+00  0.78377307062E+01  0.17287421219E+03  0.17120000000E+03 0.  0.
        998    1    1    2    0    0  0.18645573499E+02  0.47444728224E+01  0.13510217979E+04  0.13511957911E+04  0.10000000000E+02 0. -1.
</event>
<event>
 5    1  0.1338054E-008  0.3802661E+03  0.7957747E-01  0.3450001E+00
         13   -1    0    0    0    0  0.00000000000E+00  0.00000000000E+00  0.14999999963E+04  0.15000000000E+04  0.10566000000E+00 0. -1.
        994   -1    0    0    0    0 -0.00000000000E+00 -0.00000000000E+00  0.11368683772E-12  0.17120000000E+03  0.17120000000E+03 0.  0.
         13    1    1    2    0    0 -0.11772513368E+02  0.13408268075E+02  0.40528024485E+02  0.44282114408E+02  0.10566000000E+00 0. -1.
        994    1    1    2    0    0 -0.11934954314E+01  0.48512636759E+01  0.40822489280E+01  0.17132152214E+03  0.17120000000E+03 0.  0.
        998    1    1    2    0    0  0.12966008799E+02 -0.18259531751E+02  0.14553897229E+04  0.14555963635E+04  0.10000000000E+02 0. -1.
</event>
<event>
 5    1  0.1338054E-008  0.3842248E+03  0.7957747E-01  0.3432967E+00
         13   -1    0    0    0    0  0.00000000000E+00  0.00000000000E+00  0.14999999963E+04  0.15000000000E+04  0.10566000000E+00 0. -1.
        994   -1    0    0    0    0 -0.00000000000E+00 -0.00000000000E+00  0.11368683772E-12  0.17120000000E+03  0.17120000000E+03 0.  0.
         13    1    1    2    0    0 -0.52283129959E+01  0.14682644712E+02  0.60885470941E+02  0.62848763299E+02  0.10566000000E+00 0. -1.
        994    1    1    2    0    0 -0.28604452248E+01 -0.88340451596E+01  0.22998150738E+01  0.17146705704E+03  0.17120000000E+03 0.  0.
        998    1    1    2    0    0  0.80887582207E+01 -0.58485995529E+01  0.14368147103E+04  0.14368841797E+04  0.10000000000E+02 0. -1.
</event>
<event>
 5    1  0.1338054E-008  0.4069053E+03  0.7957747E-01  0.3341770E+00
         13   -1    0    0    0    0  0.00000000000E+00  0.00000000000E+00  0.14999999963E+04  0.15000000000E+04  0.10566000000E+00 0.  1.
        994   -1    0    0    0    0 -0.00000000000E+00 -0.00000000000E+00  0.11368683772E-12  0.17120000000E+03  0.17120000000E+03 0.  0.
         13    1    1    2    0    0 -0.66072679379E+02 -0.62523335838E+02  0.11095527511E+03  0.14347770114E+03  0.10566000000E+00 0.  1.
        994    1    1    2    0    0  0.63200950779E+02  0.66300544808E+02  0.66655017129E+02  0.20528627263E+03  0.17120000000E+03 0.  0.
        998    1    1    2    0    0  0.28717286004E+01 -0.37772089704E+01  0.13223897040E+04  0.13224360262E+04  0.10000000000E+02 0.  1.
</event>
<event>
 5    1  0.1338054E-008  0.3750222E+03  0.7957747E-01  0.3473124E+00
         13   -1    0    0    0    0  0.00000000000E+00  0.00000000000E+00  0.14999999963E+04  0.15000000000E+04  0.10566000000E+00 0.  1.
        994   -1    0    0    0    0 -0.00000000000E+00 -0.00000000000E+00  0.11368683772E-12  0.17120000000E+03  0.17120000000E+03 0.  0.
         13    1    1    2    0    0 -0.36451140074E+02  0.38880587294E+02  0.10607838143E+03  0.11871402550E+03  0.10566000000E+00 0.  1.
        994    1    1    2    0    0  0.37705114690E+02  0.13333323581E+02  0.19332910366E+02  0.17686903238E+03  0.17120000000E+03 0.  0.
        998    1    1    2    0    0 -0.12539746163E+01 -0.52213910875E+02  0.13745887045E+04  0.13756169421E+04  0.10000000000E+02 0.  1.
</event>
<event>
 5    1  0.1338054E-008  0.3832453E+03  0.7957747E-01  0.3437148E+00
         13   -1    0    0    0    0  0.00000000000E+00  0.00000000000E+00  0.14999999963E+04  0.15000000000E+04  0.10566000000E+00 0. -1.
        994   -1    0    0    0    0 -0.00000000000E+00 -0.00000000000E+00  0.11368683772E-12  0.17120000000E+03  0.17120000000E+03 0.  0.
         13    1    1    2    0    0  0.76649227830E+01 -0.13856766460E+02  0.51674739659E+02  0.54046747366E+02  0.10566000000E+00 0. -1.
        994    1    1    2    0    0  0.62498005264E+01  0.43144643826E+01  0.26945882501E+01  0.17138954290E+03  0.17120000000E+03 0.  0.
        998    1    1    2    0    0 -0.13914723309E+02  0.95423020773E+01  0.14456306684E+04  0.14457637097E+04  0.10000000000E+02 0. -1.
</event>
<event>
 5    1  0.1338054E-008  0.3736134E+03  0.7957747E-01  0.3479447E+00
         13   -1    0    0    0    0  0.00000000000E+00  0.00000000000E+00  0.14999999963E+04  0.15000000000E+04  0.10566000000E+00 0.  1.
        994   -1    0    0    0    0 -0.00000000000E+00 -0.00000000000E+00  0.11368683772E-12  0.17120000000E+03  0.17120000000E+03 0.  0.
         13    1    1    2    0    0  0.10193656548E+02  0.27285257291E+02  0.55167950939E+02  0.62385173512E+02  0.10566000000E+00 0.  1.
        994    1    1    2    0    0 -0.94897762999E+00 -0.16168467926E+02  0.82888448580E+01  0.17216406380E+03  0.17120000000E+03 0.  0.
        998    1    1    2    0    0 -0.92446789184E+01 -0.11116789366E+02  0.14365432005E+04  0.14366507627E+04  0.10000000000E+02 0.  1.
</event>
<event>
 5    1  0.1338054E-008  0.3812440E+03  0.7957747E-01  0.3445759E+00
         13   -1    0    0    0    0  0.00000000000E+00  0.00000000000E+00  0.14999999963E+04  0.15000000000E+04  0.10566000000E+00 0. -1.
        994   -1    0    0    0    0 -0.00000000000E+00 -0.00000000000E+00  0.11368683772E-12  0.17120000000E+03  0.17120000000E+03 0.  0.
         13    1    1    2    0    0 -0.19624998487E+02 -0.36147287747E+01  0.52877684609E+02  0.56517851369E+02  0.10566000000E+00 0. -1.
        994    1    1    2    0    0  0.24694246013E+02  0.38060201758E+01  0.55876540185E+01  0.17310388053E+03  0.17120000000E+03 0.  0.
        998    1    1    2    0    0 -0.50692475259E+01 -0.19129140108E+00  0.14415346577E+04  0.14415782681E+04  0.10000000000E+02 0. -1.
</event>
<event>
 5    1  0.1338054E-008  0.3850252E+03  0.7957747E-01  0.3429565E+00
         13   -1    0    0    0    0  0.00000000000E+00  0.00000000000E+00  0.14999999963E+04  0.15000000000E+04  0.10566000000E+00 0. -1.
        994   -1    0    0    0    0 -0.00000000000E+00 -0.00000000000E+00  0.11368683772E-12  0.17120000000E+03  0.17120000000E+03 0.  0.
         13    1    1    2    0    0  0.10735062263E+02 -0.51444248529E+01  0.46967310231E+02  0.48452513488E+02  0.10566000000E+00 0. -1.
        994    1    1    2    0    0  0.54651599041E+01 -0.24617440147E+00  0.17160546896E+01  0.17129598191E+03  0.17120000000E+03 0.  0.
        998    1    1    2    0    0 -0.16200222167E+02  0.53905992544E+01  0.14513166314E+04  0.14514515046E+04  0.10000000000E+02 0. -1.
</event>
<event>
 5    1  0.1338054E-008  0.3838608E+03  0.7957747E-01  0.3434518E+00
         13   -1    0    0    0    0  0.00000000000E+00  0.00000000000E+00  0.14999999963E+04  0.15000000000E+04  0.10566000000E+00 0. -1.
        994   -1    0    0    0    0 -0.00000000000E+00 -0.00000000000E+00  0.11368683772E-12  0.17120000000E+03  0.17120000000E+03 0.  0.
         13    1    1    2    0    0  0.33481332893E+02 -0.54008342388E+01  0.19166056849E+03  0.19463800590E+03  0.10566000000E+00 0. -1.
        994    1    1    2    0    0 -0.51948518164E+02  0.17017775382E+02  0.12123653934E+02  0.18012405781E+03  0.17120000000E+03 0.  0.
        998    1    1    2    0    0  0.18467185270E+02 -0.11616941144E+02  0.12962157739E+04  0.12964379363E+04  0.10000000000E+02 0. -1.
</event>
<event>
 5    1  0.1338054E-008  0.3820688E+03  0.7957747E-01  0.3442200E+00
         13   -1    0    0    0    0  0.00000000000E+00  0.00000000000E+00  0.14999999963E+04  0.15000000000E+04  0.10566000000E+00 0. -1.
        994   -1    0    0    0    0 -0.00000000000E+00 -0.00000000000E+00  0.11368683772E-12  0.17120000000E+03  0.17120000000E+03 0.  0.
         13    1    1    2    0    0  0.24929753791E+02  0.39505976905E+02  0.26783361507E+03  0.27187694158E+03  0.10566000000E+00 0. -1.
        994    1    1    2    0    0 -0.44439229880E+02 -0.38204381192E+02  0.14580483519E+02  0.18153911533E+03  0.17120000000E+03 0.  0.
        998    1    1    2    0    0  0.19509476090E+02 -0.13015957126E+01  0.12175858977E+04  0.12177839431E+04  0.10000000000E+02 0. -1.
</event>
<event>
 5    1  0.1338054E-008  0.3860683E+03  0.7957747E-01  0.3425154E+00
         13   -1    0    0    0    0  0.00000000000E+00  0.00000000000E+00  0.14999999963E+04  0.15000000000E+04  0.10566000000E+00 0. -1.
        994   -1    0    0    0    0 -0.00000000000E+00 -0.00000000000E+00  0.11368683772E-12  0.17120000000E+03  0.17120000000E+03 0.  0.
         13    1    1    2    0    0 -0.66566707710E+01  0.12022981405E+02  0.80475532257E+02  0.81640589192E+02  0.10566000000E+00 0. -1.
        994    1    1    2    0    0  0.79966121568E+01 -0.16239667917E+02  0.21753062446E+01  0.17216807073E+03  0.17120000000E+03 0.  0.
        998    1    1    2    0    0 -0.13399413859E+01  0.42166865120E+01  0.14173491578E+04  0.14173913401E+04  0.10000000000E+02 0. -1.
</event>
<event>
 5    1  0.1338054E-008  0.2921183E+03  0.7957747E-01  0.3953945E+00
         13   -1    0    0    0    0  0.00000000000E+00  0.00000000000E+00  0.14999999963E+04  0.15000000000E+04  0.10566000000E+00 0.  1.
        994   -1    0    0    0    0 -0.00000000000E+00 -0.00000000000E+00  0.11368683772E-12  0.17120000000E+03  0.17120000000E+03 0.  0.
         13    1    1    2    0    0 -0.11197556384E+03  0.73145441865E+02  0.73049054341E+03  0.74263397966E+03  0.10566000000E+00 0.  1.
        994    1    1    2    0    0  0.64026573716E+02 -0.25289133211E+02  0.31264593255E+02  0.18715196283E+03  0.17120000000E+03 0.  0.
        998    1    1    2    0    0  0.47948990125E+02 -0.47856308654E+02  0.73824485961E+03  0.74141405751E+03  0.10000000000E+02 0.  1.
</event>
<event>
 5    1  0.1338054E-008  0.3682736E+03  0.7957747E-01  0.3503863E+00
         13   -1    0    0    0    0  0.00000000000E+00  0.00000000000E+00  0.14999999963E+04  0.15000000000E+04  0.10566000000E+00 0.  1.
        994   -1    0    0    0    0 -0.00000000000E+00 -0.00000000000E+00  0.11368683772E-12  0.17120000000E+03  0.17120000000E+03 0.  0.
         13    1    1    2    0    0 -0.21506994315E+03 -0.43422141934E+02  0.12024578776E+04  0.12223115484E+04  0.10566000000E+00 0.  1.
        994    1    1    2    0    0  0.18665907356E+03  0.48540083876E+02  0.15026100950E+03  0.29847204301E+03  0.17120000000E+03 0.  0.
        998    1    1    2    0    0  0.28410869591E+02 -0.51179419420E+01  0.14728110917E+03  0.15041640854E+03  0.10000000000E+02 0.  1.
</event>
<event>
 5    1  0.1338054E-008  0.3752115E+03  0.7957747E-01  0.3472277E+00
         13   -1    0    0    0    0  0.00000000000E+00  0.00000000000E+00  0.14999999963E+04  0.15000000000E+04  0.10566000000E+00 0. -1.
        994   -1    0    0    0    0 -0.00000000000E+00 -0.00000000000E+00  0.11368683772E-12  0.17120000000E+03  0.17120000000E+03 0.  0.
         13    1    1    2    0    0  0.39324983510E+02 -0.87768437734E+02  0.46162650737E+03  0.47153875394E+03  0.10566000000E+00 0. -1.
        994    1    1    2    0    0 -0.40117189574E+02  0.91039139087E+02  0.40969583010E+02  0.20220153431E+03  0.17120000000E+03 0.  0.
        998    1    1    2    0    0  0.79220606442E+00 -0.32707013526E+01  0.99740390589E+03  0.99745971175E+03  0.10000000000E+02 0.  0.
</event>
<event>
 5    1  0.1338054E-008  0.3842649E+03  0.7957747E-01  0.3432796E+00
         13   -1    0    0    0    0  0.00000000000E+00  0.00000000000E+00  0.14999999963E+04  0.15000000000E+04  0.10566000000E+00 0. -1.
        994   -1    0    0    0    0 -0.00000000000E+00 -0.00000000000E+00  0.11368683772E-12  0.17120000000E+03  0.17120000000E+03 0.  0.
         13    1    1    2    0    0  0.30110282273E+02 -0.22734872898E+02  0.22496854049E+03  0.22811040949E+03  0.10566000000E+00 0. -1.
        994    1    1    2    0    0 -0.42826290163E+02  0.56494029173E+02  0.18742283950E+02  0.18624279763E+03  0.17120000000E+03 0.  0.
        998    1    1    2    0    0  0.12716007890E+02 -0.33759156275E+02  0.12562891718E+04  0.12568467929E+04  0.10000000000E+02 0. -1.
</event>
<event>
 5    1  0.1338054E-008  0.3743171E+03  0.7957747E-01  0.3476283E+00
         13   -1    0    0    0    0  0.00000000000E+00  0.00000000000E+00  0.14999999963E+04  0.15000000000E+04  0.10566000000E+00 0.  1.
        994   -1    0    0    0    0 -0.00000000000E+00 -0.00000000000E+00  0.11368683772E-12  0.17120000000E+03  0.17120000000E+03 0.  0.
         13    1    1    2    0    0  0.18386472429E+02 -0.19072911769E+02  0.50497869879E+02  0.57025295773E+02  0.10566000000E+00 0.  1.
        994    1    1    2    0    0  0.17666697601E+02  0.10907945189E+02  0.84999705651E+01  0.17266379172E+03  0.17120000000E+03 0.  0.
        998    1    1    2    0    0 -0.36053170029E+02  0.81649665791E+01  0.14410021558E+04  0.14415109125E+04  0.10000000000E+02 0.  1.
</event>
<event>
 5    1  0.1338054E-008  0.3824684E+03  0.7957747E-01  0.3440480E+00
         13   -1    0    0    0    0  0.00000000000E+00  0.00000000000E+00  0.14999999963E+04  0.15000000000E+04  0.10566000000E+00 0.  1.
        994   -1    0    0    0    0 -0.00000000000E+00 -0.00000000000E+00  0.11368683772E-12  0.17120000000E+03  0.17120000000E+03 0.  0.
         13    1    1    2    0    0  0.11287626327E+02 -0.19532568650E+02  0.83769013384E+02  0.86753619599E+02  0.10566000000E+00 0.  1.
        994    1    1    2    0    0 -0.67965184816E+01  0.20579195602E+02  0.44512726936E+01  0.17262372312E+03  0.17120000000E+03 0.  0.
        998    1    1    2    0    0 -0.44911078454E+01 -0.10466269515E+01  0.14117797102E+04  0.14118226573E+04  0.10000000000E+02 0.  1.
</event>
<event>
 5    1  0.1338054E-008  0.3831358E+03  0.7957747E-01  0.3437617E+00
         13   -1    0    0    0    0  0.00000000000E+00  0.00000000000E+00  0.14999999963E+04  0.15000000000E+04  0.10566000000E+00 0. -1.
        994   -1    0    0    0    0 -0.00000000000E+00 -0.00000000000E+00  0.11368683772E-12  0.17120000000E+03  0.17120000000E+03 0.  0.
         13    1    1    2    0    0  0.12692397977E+02 -0.10155824007E+02  0.51263683006E+02  0.53779309098E+02  0.10566000000E+00 0. -1.
        994    1    1    2    0    0 -0.86979383989E+01  0.37630666207E+01  0.28557411463E+01  0.17148588881E+03  0.17120000000E+03 0.  0.
        998    1    1    2    0    0 -0.39944595785E+01  0.63927573863E+01  0.14458805721E+04  0.14459348021E+04  0.10000000000E+02 0. -1.
</event>
<event>
 5    1  0.1338054E-008  0.3787336E+03  0.7957747E-01  0.3456691E+00
         13   -1    0    0    0    0  0.00000000000E+00  0.00000000000E+00  0.14999999963E+04  0.15000000000E+04  0.10566000000E+00 0. -1.
        994   -1    0    0    0    0 -0.00000000000E+00 -0.00000000000E+00  0.11368683772E-12  0.17120000000E+03  0.17120000000E+03 0.  0.
         13    1    1    2    0    0 -0.87693514961E+01  0.48233936503E+01  0.83985891339E+01  0.13065761189E+02  0.10566000000E+00 0. -1.
        994    1    1    2    0    0  0.28581042510E+01 -0.31509140536E+01  0.48345624966E+01  0.17132107288E+03  0.17120000000E+03 0.  0.
        998    1    1    2    0    0  0.59112472451E+01 -0.16724795968E+01  0.14867668446E+04  0.14868131659E+04  0.10000000000E+02 0. -1.
</event>
<event>
 5    1  0.1338054E-008  0.3806095E+03  0.7957747E-01  0.3448509E+00
         13   -1    0    0    0    0  0.00000000000E+00  0.00000000000E+00  0.14999999963E+04  0.15000000000E+04  0.10566000000E+00 0. -1.
        994   -1    0    0    0    0 -0.00000000000E+00 -0.00000000000E+00  0.11368683772E-12  0.17120000000E+03  0.17120000000E+03 0.  0.
         13    1    1    2    0    0 -0.14127417509E+02  0.27250562451E+02  0.11776690473E+03  0.12170140547E+03  0.10566000000E+00 0. -1.
        994    1    1    2    0    0  0.13308163528E+02 -0.20507373867E+02  0.58222576284E+01  0.17303467364E+03  0.17120000000E+03 0.  0.
        998    1    1    2    0    0  0.81925398175E+00 -0.67431885835E+01  0.13764108339E+04  0.13764639209E+04  0.10000000000E+02 0. -1.
</event>
<event>
 5    1  0.1338054E-008  0.3779955E+03  0.7957747E-01  0.3459933E+00
         13   -1    0    0    0    0  0.00000000000E+00  0.00000000000E+00  0.14999999963E+04  0.15000000000E+04  0.10566000000E+00 0. -1.
        994   -1    0    0    0    0 -0.00000000000E+00 -0.00000000000E+00  0.11368683772E-12  0.17120000000E+03  0.17120000000E+03 0.  0.
         13    1    1    2    0    0  0.34487869475E+02  0.18174629047E+02  0.13345790168E+03  0.13903507819E+03  0.10566000000E+00 0. -1.
        994    1    1    2    0    0 -0.36170071691E+02 -0.16368429505E+02  0.10471061581E+02  0.17605477188E+03  0.17120000000E+03 0.  0.
        998    1    1    2    0    0  0.16822022155E+01 -0.18061995426E+01  0.13560710330E+04  0.13561101499E+04  0.10000000000E+02 0. -1.
</event>
<event>
 5    1  0.1338054E-008  0.3840785E+03  0.7957747E-01  0.3433590E+00
         13   -1    0    0    0    0  0.00000000000E+00  0.00000000000E+00  0.14999999963E+04  0.15000000000E+04  0.10566000000E+00 0.  1.
        994   -1    0    0    0    0 -0.00000000000E+00 -0.00000000000E+00  0.11368683772E-12  0.17120000000E+03  0.17120000000E+03 0.  0.
         13    1    1    2    0    0  0.10037123304E+02 -0.58506554845E+01  0.32192244560E+02  0.34224637145E+02  0.10566000000E+00 0.  1.
        994    1    1    2    0    0 -0.77863591998E+01 -0.40404731710E+01  0.23422128848E+01  0.17144059838E+03  0.17120000000E+03 0.  0.
        998    1    1    2    0    0 -0.22507641045E+01  0.98911286555E+01  0.14654655388E+04  0.14655347645E+04  0.10000000000E+02 0.  1.
</event>
<event>
 5    1  0.1338054E-008  0.3843893E+03  0.7957747E-01  0.3432266E+00
         13   -1    0    0    0    0  0.00000000000E+00  0.00000000000E+00  0.14999999963E+04  0.15000000000E+04  0.10566000000E+00 0.  1.
        994   -1    0    0    0    0 -0.00000000000E+00 -0.00000000000E+00  0.11368683772E-12  0.17120000000E+03  0.17120000000E+03 0.  0.
         13    1    1    2    0    0 -0.18237538082E+02 -0.14963554679E+02  0.12385957333E+03  0.12608616432E+03  0.10566000000E+00 0.  1.
        994    1    1    2    0    0  0.24531310606E+02  0.22563922803E+02  0.56028851859E+01  0.17450429260E+03  0.17120000000E+03 0.  0.
        998    1    1    2    0    0 -0.62937725240E+01 -0.76003681243E+01  0.13705375378E+04  0.13706095431E+04  0.10000000000E+02 0.  1.
</event>
<event>
 5    1  0.1338054E-008  0.3734349E+03  0.7957747E-01  0.3480252E+00
         13   -1    0    0    0    0  0.00000000000E+00  0.00000000000E+00  0.14999999963E+04  0.15000000000E+04  0.10566000000E+00 0. -1.
        994   -1    0    0    0    0 -0.00000000000E+00 -0.00000000000E+00  0.11368683772E-12  0.17120000000E+03  0.17120000000E+03 0.  0.
         13    1    1    2    0    0  0.73809677870E+02  0.20400357592E+01  0.23344824079E+03  0.24484714127E+03  0.10566000000E+00 0. -1.
        994    1    1    2    0    0 -0.11646074306E+03 -0.54716548512E+02  0.66363889976E+02  0.22421108636E+03  0.17120000000E+03 0.  0.
        998    1    1    2    0    0  0.42651065193E+02  0.52676512753E+02  0.12001878655E+04  0.12021417724E+04  0.10000000000E+02 0. -1.
</event>
<event>
 5    1  0.1338054E-008  0.3767638E+03  0.7957747E-01  0.3465372E+00
         13   -1    0    0    0    0  0.00000000000E+00  0.00000000000E+00  0.14999999963E+04  0.15000000000E+04  0.10566000000E+00 0. -1.
        994   -1    0    0    0    0 -0.00000000000E+00 -0.00000000000E+00  0.11368683772E-12  0.17120000000E+03  0.17120000000E+03 0.  0.
         13    1    1    2    0    0  0.38347256273E+02  0.25450601530E+02  0.20082371810E+03  0.20603014852E+03  0.10566000000E+00 0. -1.
        994    1    1    2    0    0 -0.86511309554E+01 -0.68134669541E+01  0.61856040795E+01  0.17166527633E+03  0.17120000000E+03 0.  0.
        998    1    1    2    0    0 -0.29696125318E+02 -0.18637134576E+02  0.12929906741E+04  0.12935045752E+04  0.10000000000E+02 0. -1.
</event>
<event>
 5    1  0.1338054E-008  0.3150783E+03  0.7957747E-01  0.3793926E+00
         13   -1    0    0    0    0  0.00000000000E+00  0.00000000000E+00  0.14999999963E+04  0.15000000000E+04  0.10566000000E+00 0.  1.
        994   -1    0    0    0    0 -0.00000000000E+00 -0.00000000000E+00  0.11368683772E-12  0.17120000000E+03  0.17120000000E+03 0.  0.
         13    1    1    2    0    0 -0.50795815724E+02  0.15601828279E+03  0.84807844096E+03  0.86380493900E+03  0.10566000000E+00 0.  1.
        994    1    1    2    0    0  0.10958914245E+03 -0.10619502880E+03  0.10027738314E+03  0.25030413072E+03  0.17120000000E+03 0.  0.
        998    1    1    2    0    0 -0.58793326723E+02 -0.49823253983E+02  0.55164417218E+03  0.55709093029E+03  0.10000000000E+02 0.  1.
</event>
<event>
 5    1  0.1338054E-008  0.3789484E+03  0.7957747E-01  0.3455750E+00
         13   -1    0    0    0    0  0.00000000000E+00  0.00000000000E+00  0.14999999963E+04  0.15000000000E+04  0.10566000000E+00 0.  1.
        994   -1    0    0    0    0 -0.00000000000E+00 -0.00000000000E+00  0.11368683772E-12  0.17120000000E+03  0.17120000000E+03 0.  0.
         13    1    1    2    0    0 -0.38357519012E+01  0.52576320762E+02  0.24108034172E+03  0.24677666994E+03  0.10566000000E+00 0.  1.
        994    1    1    2    0    0  0.56236419947E+01 -0.57241462060E+02  0.15843789421E+02  0.18129720348E+03  0.17120000000E+03 0.  0.
        998    1    1    2    0    0 -0.17878900935E+01  0.46651412982E+01  0.12430758651E+04  0.12431261266E+04  0.10000000000E+02 0.  1.
</event>
<event>
 5    1  0.1388752E-008  0.3851322E+03  0.7957747E-01  0.3429112E+00
         13   -1    0    0    0    0  0.00000000000E+00  0.00000000000E+00  0.14999999963E+04  0.15000000000E+04  0.10566000000E+00 0. -1.
        994   -1    0    0    0    0 -0.00000000000E+00 -0.00000000000E+00  0.11368683772E-12  0.17120000000E+03  0.17120000000E+03 0.  0.
         13    1    1    2    0    0 -0.15155294554E+02  0.13657957988E+02  0.12274848471E+03  0.12443240910E+03  0.10566000000E+00 0. -1.
        994    1    1    2    0    0  0.17916046041E+02 -0.13074621720E+02  0.31832871757E+01  0.17266008154E+03  0.17120000000E+03 0.  0.
        998    1    1    2    0    0 -0.27607514871E+01 -0.58333626791E+00  0.13740682244E+04  0.13741075094E+04  0.10000000000E+02 0.  0.
</event>
<event>
 5    1  0.1338054E-008  0.3726092E+03  0.7957747E-01  0.3483985E+00
         13   -1    0    0    0    0  0.00000000000E+00  0.00000000000E+00  0.14999999963E+04  0.15000000000E+04  0.10566000000E+00 0. -1.
        994   -1    0    0    0    0 -0.00000000000E+00 -0.00000000000E+00  0.11368683772E-12  0.17120000000E+03  0.17120000000E+03 0.  0.
         13    1    1    2    0    0  0.29963855312E+02 -0.48290142926E+00  0.55385564821E+02  0.62973310009E+02  0.10566000000E+00 0. -1.
        994    1    1    2    0    0 -0.97917097022E+01  0.48299281855E+01  0.83202194484E+01  0.17174944494E+03  0.17120000000E+03 0.  0.
        998    1    1    2    0    0 -0.20172145610E+02 -0.43470267562E+01  0.14362942120E+04  0.14364772451E+04  0.10000000000E+02 0. -1.
</event>
<event>
 5    1  0.1338054E-008  0.3741292E+03  0.7957747E-01  0.3477127E+00
         13   -1    0    0    0    0  0.00000000000E+00  0.00000000000E+00  0.14999999963E+04  0.15000000000E+04  0.10566000000E+00 0.  1.
        994   -1    0    0    0    0 -0.00000000000E+00 -0.00000000000E+00  0.11368683772E-12  0.17120000000E+03  0.17120000000E+03 0.  0.
         13    1    1    2    0    0 -0.63063891052E+02 -0.13002314963E+02  0.26032268708E+03  0.26816790844E+03  0.10566000000E+00 0.  1.
        994    1    1    2    0    0  0.52830503415E+02  0.37164329681E+01  0.16749928943E+02  0.17998576078E+03  0.17120000000E+03 0.  0.
        998    1    1    2    0    0  0.10233387638E+02  0.92858819952E+01  0.12229273803E+04  0.12230463308E+04  0.10000000000E+02 0.  1.
</event>
<event>
 5    1  0.1338054E-008  0.3801920E+03  0.7957747E-01  0.3450323E+00
         13   -1    0    0    0    0  0.00000000000E+00  0.00000000000E+00  0.14999999963E+04  0.15000000000E+04  0.10566000000E+00 0. -1.
        994   -1    0    0    0    0 -0.00000000000E+00 -0.00000000000E+00  0.11368683772E-12  0.17120000000E+03  0.17120000000E+03 0.  0.
         13    1    1    2    0    0 -0.29685138588E+02  0.28746508502E+02  0.20733889852E+03  0.21141664837E+03  0.10566000000E+00 0. -1.
        994    1    1    2    0    0  0.19980895638E+01 -0.36038154591E+02  0.84007085444E+01  0.17516493043E+03  0.17120000000E+03 0.  0.
        998    1    1    2    0    0  0.27687049024E+02  0.72916460886E+01  0.12842603892E+04  0.12846184212E+04  0.10000000000E+02 0. -1.
</event>
<event>
 5    1  0.1338054E-008  0.4084347E+03  0.7957747E-01  0.3335983E+00
         13   -1    0    0    0    0  0.00000000000E+00  0.00000000000E+00  0.14999999963E+04  0.15000000000E+04  0.10566000000E+00 0.  1.
        994   -1    0    0    0    0 -0.00000000000E+00 -0.00000000000E+00  0.11368683772E-12  0.17120000000E+03  0.17120000000E+03 0.  0.
         13    1    1    2    0    0  0.15292765173E+02  0.76467529595E+02  0.79092540964E+02  0.11107111663E+03  0.10566000000E+00 0.  1.
        994    1    1    2    0    0 -0.12291683585E+02 -0.71806895942E+02  0.54778605801E+02  0.19395218855E+03  0.17120000000E+03 0.  0.
        998    1    1    2    0    0 -0.30010815883E+01 -0.46606336532E+01  0.13661288495E+04  0.13661766948E+04  0.10000000000E+02 0.  1.
</event>
<event>
 5    1  0.1338054E-008  0.3830438E+03  0.7957747E-01  0.3438011E+00
         13   -1    0    0    0    0  0.00000000000E+00  0.00000000000E+00  0.14999999963E+04  0.15000000000E+04  0.10566000000E+00 0.  1.
        994   -1    0    0    0    0 -0.00000000000E+00 -0.00000000000E+00  0.11368683772E-12  0.17120000000E+03  0.17120000000E+03 0.  0.
         13    1    1    2    0    0  0.98085073108E+01 -0.12574977727E+02  0.46652650220E+02  0.49303324605E+02  0.10566000000E+00 0.  1.
        994    1    1    2    0    0 -0.10964371483E+02  0.13337927663E+02  0.35917719576E+01  0.17210595162E+03  0.17120000000E+03 0.  0.
        998    1    1    2    0    0  0.11558641723E+01 -0.76294993549E+00  0.14497555741E+04  0.14497907238E+04  0.10000000000E+02 0.  1.
</event>
<event>
 5    1  0.1338054E-008  0.3848485E+03  0.7957747E-01  0.3430315E+00
         13   -1    0    0    0    0  0.00000000000E+00  0.00000000000E+00  0.14999999963E+04  0.15000000000E+04  0.10566000000E+00 0.  1.
        994   -1    0    0    0    0 -0.00000000000E+00 -0.00000000000E+00  0.11368683772E-12  0.17120000000E+03  0.17120000000E+03 0.  0.
         13    1    1    2    0    0 -0.13604453406E+02  0.18357818942E+01  0.59073635594E+02  0.60647809804E+02  0.10566000000E+00 0.  1.
        994    1    1    2    0    0 -0.18157904043E+01  0.40093588205E+01  0.17690945918E+01  0.17126570512E+03  0.17120000000E+03 0.  0.
        998    1    1    2    0    0  0.15420243811E+02 -0.58451407147E+01  0.14391572661E+04  0.14392864851E+04  0.10000000000E+02 0.  1.
</event>
<event>
 5    1  0.1338054E-008  0.3739875E+03  0.7957747E-01  0.3477764E+00
         13   -1    0    0    0    0  0.00000000000E+00  0.00000000000E+00  0.14999999963E+04  0.15000000000E+04  0.10566000000E+00 0.  1.
        994   -1    0    0    0    0 -0.00000000000E+00 -0.00000000000E+00  0.11368683772E-12  0.17120000000E+03  0.17120000000E+03 0.  0.
         13    1    1    2    0    0 -0.19090246149E+02  0.32730945407E+02  0.89903364359E+02  0.97562176956E+02  0.10566000000E+00 0.  1.
        994    1    1    2    0    0  0.48269440104E+02 -0.22159770228E+02  0.16883307470E+02  0.18004299580E+03  0.17120000000E+03 0.  0.
        998    1    1    2    0    0 -0.29179193955E+02 -0.10571175179E+02  0.13932133245E+04  0.13935948272E+04  0.10000000000E+02 0.  1.
</event>
<event>
 5    1  0.1338054E-008  0.3853545E+03  0.7957747E-01  0.3428170E+00
         13   -1    0    0    0    0  0.00000000000E+00  0.00000000000E+00  0.14999999963E+04  0.15000000000E+04  0.10566000000E+00 0. -1.
        994   -1    0    0    0    0 -0.00000000000E+00 -0.00000000000E+00  0.11368683772E-12  0.17120000000E+03  0.17120000000E+03 0.  0.
         13    1    1    2    0    0 -0.16956443864E+02  0.35445892978E+01  0.98076290398E+02  0.99594452677E+02  0.10566000000E+00 0. -1.
        994    1    1    2    0    0  0.18853606969E+02  0.31137113299E+01  0.26546235730E+01  0.17228360549E+03  0.17120000000E+03 0.  0.
        998    1    1    2    0    0 -0.18971631045E+01 -0.66583006277E+01  0.13992690823E+04  0.13993219418E+04  0.10000000000E+02 0. -1.
</event>
<event>
 5    1  0.1338054E-008  0.3851126E+03  0.7957747E-01  0.3429195E+00
         13   -1    0    0    0    0  0.00000000000E+00  0.00000000000E+00  0.14999999963E+04  0.15000000000E+04  0.10566000000E+00 0.  1.
        994   -1    0    0    0    0 -0.00000000000E+00 -0.00000000000E+00  0.11368683772E-12  0.17120000000E+03  0.17120000000E+03 0.  0.
         13    1    1    2    0    0  0.12402633620E+02  0.70656272212E+01  0.68916507187E+02  0.70379290531E+02  0.10566000000E+00 0.  1.
        994    1    1    2    0    0  0.39463184445E+01 -0.75309341244E+01  0.18119062757E+01  0.17142056878E+03  0.17120000000E+03 0.  0.
        998    1    1    2    0    0 -0.16348952064E+02  0.46530690314E+00  0.14292715828E+04  0.14294001407E+04  0.10000000000E+02 0.  1.
</event>
<event>
 5    1  0.1338054E-008  0.3772958E+03  0.7957747E-01  0.3463018E+00
         13   -1    0    0    0    0  0.00000000000E+00  0.00000000000E+00  0.14999999963E+04  0.15000000000E+04  0.10566000000E+00 0.  1.
        994   -1    0    0    0    0 -0.00000000000E+00 -0.00000000000E+00  0.11368683772E-12  0.17120000000E+03  0.17120000000E+03 0.  0.
         13    1    1    2    0    0  0.31561859232E+02 -0.45542699789E+02  0.26541893266E+03  0.27114112458E+03  0.10566000000E+00 0.  1.
        994    1    1    2    0    0 -0.20287041102E+02  0.31286699151E+02  0.10208837678E+02  0.17551091689E+03  0.17120000000E+03 0.  0.
        998    1    1    2    0    0 -0.11274818130E+02  0.14256000638E+02  0.12243722259E+04  0.12245479585E+04  0.10000000000E+02 0.  0.
</event>
<event>
 5    1  0.1338054E-008  0.3760599E+03  0.7957747E-01  0.3468496E+00
         13   -1    0    0    0    0  0.00000000000E+00  0.00000000000E+00  0.14999999963E+04  0.15000000000E+04  0.10566000000E+00 0. -1.
        994   -1    0    0    0    0 -0.00000000000E+00 -0.00000000000E+00  0.11368683772E-12  0.17120000000E+03  0.17120000000E+03 0.  0.
         13    1    1    2    0    0 -0.53611292194E+02  0.70088392115E+01  0.90640761724E+02  0.10554171369E+03  0.10566000000E+00 0. -1.
        994    1    1    2    0    0  0.59456245346E+02 -0.13224843044E+02  0.27552871019E+02  0.18378939655E+03  0.17120000000E+03 0.  0.
        998    1    1    2    0    0 -0.58449531514E+01  0.62160038329E+01  0.13818063635E+04  0.13818688898E+04  0.10000000000E+02 0. -1.
</event>
<event>
 5    1  0.1338054E-008  0.3838249E+03  0.7957747E-01  0.3434671E+00
         13   -1    0    0    0    0  0.00000000000E+00  0.00000000000E+00  0.14999999963E+04  0.15000000000E+04  0.10566000000E+00 0.  1.
        994   -1    0    0    0    0 -0.00000000000E+00 -0.00000000000E+00  0.11368683772E-12  0.17120000000E+03  0.17120000000E+03 0.  0.
         13    1    1    2    0    0  0.14765444671E+02 -0.93876610580E+01  0.68646849816E+02  0.70841708690E+02  0.10566000000E+00 0.  1.
        994    1    1    2    0    0 -0.96552049468E+01  0.58360920973E+01  0.26349716855E+01  0.17159156748E+03  0.17120000000E+03 0.  0.
        998    1    1    2    0    0 -0.51102397238E+01  0.35515689606E+01  0.14287181748E+04  0.14287667238E+04  0.10000000000E+02 0.  1.
</event>
<event>
 5    1  0.1338054E-008  0.3815233E+03  0.7957747E-01  0.3444552E+00
         13   -1    0    0    0    0  0.00000000000E+00  0.00000000000E+00  0.14999999963E+04  0.15000000000E+04  0.10566000000E+00 0.  1.
        994   -1    0    0    0    0 -0.00000000000E+00 -0.00000000000E+00  0.11368683772E-12  0.17120000000E+03  0.17120000000E+03 0.  0.
         13    1    1    2    0    0 -0.15554402367E+03 -0.12008153605E+03  0.11644977970E+04  0.11809609007E+04  0.10566000000E+00 0.  1.
        994    1    1    2    0    0  0.15378952327E+03  0.11253940750E+03  0.13543596559E+03  0.28977349168E+03  0.17120000000E+03 0.  0.
        998    1    1    2    0    0  0.17545004023E+01  0.75421285519E+01  0.20006623367E+03  0.20046560760E+03  0.10000000000E+02 0.  1.
</event>
<event>
 5    1  0.1338054E-008  0.3816293E+03  0.7957747E-01  0.3444095E+00
         13   -1    0    0    0    0  0.00000000000E+00  0.00000000000E+00  0.14999999963E+04  0.15000000000E+04  0.10566000000E+00 0. -1.
        994   -1    0    0    0    0 -0.00000000000E+00 -0.00000000000E+00  0.11368683772E-12  0.17120000000E+03  0.17120000000E+03 0.  0.
         13    1    1    2    0    0  0.22014228058E+02 -0.10387896027E+02  0.90386211370E+02  0.93606693087E+02  0.10566000000E+00 0. -1.
        994    1    1    2    0    0 -0.12940531007E+02 -0.19217299391E+01  0.38822340165E+01  0.17174301188E+03  0.17120000000E+03 0.  0.
        998    1    1    2    0    0 -0.90736970509E+01  0.12309625966E+02  0.14057315509E+04  0.14058502950E+04  0.10000000000E+02 0. -1.
</event>
<event>
 5    1  0.1338054E-008  0.3833288E+03  0.7957747E-01  0.3436791E+00
         13   -1    0    0    0    0  0.00000000000E+00  0.00000000000E+00  0.14999999963E+04  0.15000000000E+04  0.10566000000E+00 0.  1.
        994   -1    0    0    0    0 -0.00000000000E+00 -0.00000000000E+00  0.11368683772E-12  0.17120000000E+03  0.17120000000E+03 0.  0.
         13    1    1    2    0    0  0.60719067022E+01  0.10339899410E+02  0.28570682030E+02  0.30985102977E+02  0.10566000000E+00 0.  1.
        994    1    1    2    0    0 -0.11493917506E+02 -0.80584298619E+00  0.29012410534E+01  0.17161181988E+03  0.17120000000E+03 0.  0.
        998    1    1    2    0    0  0.54220108040E+01 -0.95340564243E+01  0.14685280732E+04  0.14686030771E+04  0.10000000000E+02 0.  1.
</event>
<event>
 5    1  0.1338054E-008  0.3809588E+03  0.7957747E-01  0.3446994E+00
         13   -1    0    0    0    0  0.00000000000E+00  0.00000000000E+00  0.14999999963E+04  0.15000000000E+04  0.10566000000E+00 0. -1.
        994   -1    0    0    0    0 -0.00000000000E+00 -0.00000000000E+00  0.11368683772E-12  0.17120000000E+03  0.17120000000E+03 0.  0.
         13    1    1    2    0    0  0.11603842789E+02  0.95153092045E+01  0.29842669967E+02  0.33403388922E+02  0.10566000000E+00 0. -1.
        994    1    1    2    0    0 -0.81674342627E+01  0.62916582710E+00  0.38735640125E+01  0.17143963174E+03  0.17120000000E+03 0.  0.
        998    1    1    2    0    0 -0.34364085259E+01 -0.10144475032E+02  0.14662837623E+04  0.14663569793E+04  0.10000000000E+02 0. -1.
</event>
<event>
 5    1  0.1338054E-008  0.3851340E+03  0.7957747E-01  0.3429104E+00
         13   -1    0    0    0    0  0.00000000000E+00  0.00000000000E+00  0.14999999963E+04  0.15000000000E+04  0.10566000000E+00 0. -1.
        994   -1    0    0    0    0 -0.00000000000E+00 -0.00000000000E+00  0.11368683772E-12  0.17120000000E+03  0.17120000000E+03 0.  0.
         13    1    1    2    0    0 -0.14136913110E+02 -0.13431409205E+02  0.10145452026E+03  0.10331159621E+03  0.10566000000E+00 0. -1.
        994    1    1    2    0    0  0.22149395466E+02  0.28631503783E+02  0.58829697080E+01  0.17508400287E+03  0.17120000000E+03 0.  0.
        998    1    1    2    0    0 -0.80124823554E+01 -0.15200094578E+02  0.13926625063E+04  0.13928044009E+04  0.10000000000E+02 0. -1.
</event>
<event>
 5    1  0.1338054E-008  0.3856749E+03  0.7957747E-01  0.3426815E+00
         13   -1    0    0    0    0  0.00000000000E+00  0.00000000000E+00  0.14999999963E+04  0.15000000000E+04  0.10566000000E+00 0. -1.
        994   -1    0    0    0    0 -0.00000000000E+00 -0.00000000000E+00  0.11368683772E-12  0.17120000000E+03  0.17120000000E+03 0.  0.
         13    1    1    2    0    0 -0.74394502421E+01 -0.11236160613E+02  0.66585434097E+02  0.67935468815E+02  0.10566000000E+00 0. -1.
        994    1    1    2    0    0  0.16709598989E+02  0.96647220598E+01  0.25190950937E+01  0.17230323094E+03  0.17120000000E+03 0.  0.
        998    1    1    2    0    0 -0.92701487473E+01  0.15714385530E+01  0.14308954671E+04  0.14309613002E+04  0.10000000000E+02 0. -1.
</event>
<event>
 5    1  0.1338054E-008  0.3729754E+03  0.7957747E-01  0.3482327E+00
         13   -1    0    0    0    0  0.00000000000E+00  0.00000000000E+00  0.14999999963E+04  0.15000000000E+04  0.10566000000E+00 0.  1.
        994   -1    0    0    0    0 -0.00000000000E+00 -0.00000000000E+00  0.11368683772E-12  0.17120000000E+03  0.17120000000E+03 0.  0.
         13    1    1    2    0    0 -0.70850226714E+02 -0.19355761196E+02  0.30107610468E+03  0.30990519855E+03  0.10566000000E+00 0.  1.
        994    1    1    2    0    0  0.60501866126E+02  0.15174950329E+02  0.21157933982E+02  0.18343351137E+03  0.17120000000E+03 0.  0.
        998    1    1    2    0    0  0.10348360587E+02  0.41808108665E+01  0.11777659576E+04  0.11778612901E+04  0.10000000000E+02 0. -1.
</event>
<event>
 5    1  0.1338054E-008  0.3730281E+03  0.7957747E-01  0.3482089E+00
         13   -1    0    0    0    0  0.00000000000E+00  0.00000000000E+00  0.14999999963E+04  0.15000000000E+04  0.10566000000E+00 0.  1.
        994   -1    0    0    0    0 -0.00000000000E+00 -0.00000000000E+00  0.11368683772E-12  0.17120000000E+03  0.17120000000E+03 0.  0.
         13    1    1    2    0    0 -0.18908501588E+02  0.88519574671E+02  0.30223391707E+03  0.31549738243E+03  0.10566000000E+00 0.  1.
        994    1    1    2    0    0  0.25279447788E+02 -0.60451572666E+02  0.27878952377E+02  0.18541876686E+03  0.17120000000E+03 0.  0.
        998    1    1    2    0    0 -0.63709461998E+01 -0.28068002005E+02  0.11698871268E+04  0.11702838507E+04  0.10000000000E+02 0.  1.
</event>
<event>
 5    1  0.1338054E-008  0.3741411E+03  0.7957747E-01  0.3477073E+00
         13   -1    0    0    0    0  0.00000000000E+00  0.00000000000E+00  0.14999999963E+04  0.15000000000E+04  0.10566000000E+00 0. -1.
        994   -1    0    0    0    0 -0.00000000000E+00 -0.00000000000E+00  0.11368683772E-12  0.17120000000E+03  0.17120000000E+03 0.  0.
         13    1    1    2    0    0  0.82385173847E+02 -0.14585116152E+01  0.32184287567E+03  0.33222325612E+03  0.10566000000E+00 0. -1.
        994    1    1    2    0    0 -0.10945696132E+02  0.41354728636E+02  0.19665691390E+02  0.17755619184E+03  0.17120000000E+03 0.  0.
        998    1    1    2    0    0 -0.71439477715E+02 -0.39896217020E+02  0.11584914292E+04  0.11614205520E+04  0.10000000000E+02 0.  1.
</event>
<event>
 5    1  0.1338054E-008  0.3775387E+03  0.7957747E-01  0.3461946E+00
         13   -1    0    0    0    0  0.00000000000E+00  0.00000000000E+00  0.14999999963E+04  0.15000000000E+04  0.10566000000E+00 0.  1.
        994   -1    0    0    0    0 -0.00000000000E+00 -0.00000000000E+00  0.11368683772E-12  0.17120000000E+03  0.17120000000E+03 0.  0.
         13    1    1    2    0    0 -0.51246510211E+02  0.14227795253E+02  0.21240166698E+03  0.21895916118E+03  0.10566000000E+00 0.  1.
        994    1    1    2    0    0  0.63632124198E+02 -0.27241641680E+01  0.19176781264E+02  0.18366724596E+03  0.17120000000E+03 0.  0.
        998    1    1    2    0    0 -0.12385613987E+02 -0.11503631085E+02  0.12684215480E+04  0.12685735929E+04  0.10000000000E+02 0.  1.
</event>
<event>
 5    1  0.1338054E-008  0.3849929E+03  0.7957747E-01  0.3429702E+00
         13   -1    0    0    0    0  0.00000000000E+00  0.00000000000E+00  0.14999999963E+04  0.15000000000E+04  0.10566000000E+00 0. -1.
        994   -1    0    0    0    0 -0.00000000000E+00 -0.00000000000E+00  0.11368683772E-12  0.17120000000E+03  0.17120000000E+03 0.  0.
         13    1    1    2    0    0 -0.12140318794E+02 -0.10524033550E+02  0.88704717051E+02  0.90148103773E+02  0.10566000000E+00 0. -1.
        994    1    1    2    0    0 -0.32947598025E+01 -0.35697539891E+01  0.17112642839E+01  0.17127745623E+03  0.17120000000E+03 0.  0.
        998    1    1    2    0    0  0.15435078596E+02  0.14093787539E+02  0.14095840149E+04  0.14097744400E+04  0.10000000000E+02 0. -1.
</event>
<event>
 5    1  0.1338054E-008  0.3837389E+03  0.7957747E-01  0.3435038E+00
         13   -1    0    0    0    0  0.00000000000E+00  0.00000000000E+00  0.14999999963E+04  0.15000000000E+04  0.10566000000E+00 0.  1.
        994   -1    0    0    0    0 -0.00000000000E+00 -0.00000000000E+00  0.11368683772E-12  0.17120000000E+03  0.17120000000E+03 0.  0.
         13    1    1    2    0    0  0.13397531569E+02  0.19084743923E+02  0.13928226000E+03  0.14122067985E+03  0.10566000000E+00 0.  1.
        994    1    1    2    0    0  0.10184177424E+02 -0.25958899499E+01  0.26223559810E+01  0.17154233549E+03  0.17120000000E+03 0.  0.
        998    1    1    2    0    0 -0.23581708993E+02 -0.16488853973E+02  0.13580953803E+04  0.13584369847E+04  0.10000000000E+02 0.  1.
</event>
<event>
 5    1  0.1338054E-008  0.3764496E+03  0.7957747E-01  0.3466765E+00
         13   -1    0    0    0    0  0.00000000000E+00  0.00000000000E+00  0.14999999963E+04  0.15000000000E+04  0.10566000000E+00 0. -1.
        994   -1    0    0    0    0 -0.00000000000E+00 -0.00000000000E+00  0.11368683772E-12  0.17120000000E+03  0.17120000000E+03 0.  0.
         13    1    1    2    0    0  0.90419506529E+01 -0.19751694639E+02  0.37150534348E+02  0.43035562957E+02  0.10566000000E+00 0. -1.
        994    1    1    2    0    0 -0.66140377270E+01  0.15194134714E+02  0.68656311817E+01  0.17213710848E+03  0.17120000000E+03 0.  0.
        998    1    1    2    0    0 -0.24279129258E+01  0.45575599247E+01  0.14559838307E+04  0.14560273286E+04  0.10000000000E+02 0. -1.
</event>
<event>
 5    1  0.1338054E-008  0.3823780E+03  0.7957747E-01  0.3440869E+00
         13   -1    0    0    0    0  0.00000000000E+00  0.00000000000E+00  0.14999999963E+04  0.15000000000E+04  0.10566000000E+00 0. -1.
        994   -1    0    0    0    0 -0.00000000000E+00 -0.00000000000E+00  0.11368683772E-12  0.17120000000E+03  0.17120000000E+03 0.  0.
         13    1    1    2    0    0 -0.61565007383E+01  0.28845937700E+02  0.14681006099E+03  0.14974376714E+03  0.10566000000E+00 0. -1.
        994    1    1    2    0    0  0.11133148685E+01 -0.18041421377E+02  0.40220222048E+01  0.17219857438E+03  0.17120000000E+03 0.  0.
        998    1    1    2    0    0  0.50431858698E+01 -0.10804516322E+02  0.13491679131E+04  0.13492576585E+04  0.10000000000E+02 0. -1.
</event>
<event>
 5    1  0.1338054E-008  0.3833892E+03  0.7957747E-01  0.3436533E+00
         13   -1    0    0    0    0  0.00000000000E+00  0.00000000000E+00  0.14999999963E+04  0.15000000000E+04  0.10566000000E+00 0.  1.
        994   -1    0    0    0    0 -0.00000000000E+00 -0.00000000000E+00  0.11368683772E-12  0.17120000000E+03  0.17120000000E+03 0.  0.
         13    1    1    2    0    0  0.16444189199E+02  0.15030534691E+02  0.10518089098E+03  0.10751446100E+03  0.10566000000E+00 0.  1.
        994    1    1    2    0    0 -0.10454295405E+02 -0.10927239389E+01  0.27973323096E+01  0.17154518765E+03  0.17120000000E+03 0.  0.
        998    1    1    2    0    0 -0.59898937933E+01 -0.13937810752E+02  0.13920217730E+04  0.13921403514E+04  0.10000000000E+02 0.  1.
</event>
<event>
 5    1  0.1338054E-008  0.3846675E+03  0.7957747E-01  0.3431084E+00
         13   -1    0    0    0    0  0.00000000000E+00  0.00000000000E+00  0.14999999963E+04  0.15000000000E+04  0.10566000000E+00 0. -1.
        994   -1    0    0    0    0 -0.00000000000E+00 -0.00000000000E+00  0.11368683772E-12  0.17120000000E+03  0.17120000000E+03 0.  0.
         13    1    1    2    0    0  0.16394551867E+02 -0.38444312320E+01  0.75460045204E+02  0.77316172750E+02  0.10566000000E+00 0. -1.
        994    1    1    2    0    0 -0.17414414644E+02  0.32376394778E+01  0.28289039619E+01  0.17213711641E+03  0.17120000000E+03 0.  0.
        998    1    1    2    0    0  0.10198627772E+01  0.60679175426E+00  0.14217110471E+04  0.14217467108E+04  0.10000000000E+02 0. -1.
</event>
<event>
 5    1  0.1338054E-008  0.3769602E+03  0.7957747E-01  0.3464502E+00
         13   -1    0    0    0    0  0.00000000000E+00  0.00000000000E+00  0.14999999963E+04  0.15000000000E+04  0.10566000000E+00 0. -1.
        994   -1    0    0    0    0 -0.00000000000E+00 -0.00000000000E+00  0.11368683772E-12  0.17120000000E+03  0.17120000000E+03 0.  0.
         13    1    1    2    0    0  0.18397710353E+02 -0.51869427368E+02  0.25611961275E+03  0.26196599100E+03  0.10566000000E+00 0. -1.
        994    1    1    2    0    0  0.96901625378E+01  0.42531491727E+02  0.12128294639E+02  0.17708574920E+03  0.17120000000E+03 0.  0.
        998    1    1    2    0    0 -0.28087872891E+02  0.93379356417E+01  0.12317520889E+04  0.12321482598E+04  0.10000000000E+02 0. -1.
</event>
<event>
 5    1  0.1338054E-008  0.3729503E+03  0.7957747E-01  0.3482441E+00
         13   -1    0    0    0    0  0.00000000000E+00  0.00000000000E+00  0.14999999963E+04  0.15000000000E+04  0.10566000000E+00 0. -1.
        994   -1    0    0    0    0 -0.00000000000E+00 -0.00000000000E+00  0.11368683772E-12  0.17120000000E+03  0.17120000000E+03 0.  0.
         13    1    1    2    0    0 -0.95675463055E+02 -0.26953484564E+01  0.25460020913E+03  0.27199694260E+03  0.10566000000E+00 0. -1.
        994    1    1    2    0    0  0.12277707084E+03  0.21284983768E+02  0.69586142559E+02  0.22288770916E+03  0.17120000000E+03 0.  0.
        998    1    1    2    0    0 -0.27101607787E+02 -0.18589635312E+02  0.11758136446E+04  0.11763153482E+04  0.10000000000E+02 0. -1.
</event>
<event>
 5    1  0.1338054E-008  0.3735160E+03  0.7957747E-01  0.3479886E+00
         13   -1    0    0    0    0  0.00000000000E+00  0.00000000000E+00  0.14999999963E+04  0.15000000000E+04  0.10566000000E+00 0. -1.
        994   -1    0    0    0    0 -0.00000000000E+00 -0.00000000000E+00  0.11368683772E-12  0.17120000000E+03  0.17120000000E+03 0.  0.
         13    1    1    2    0    0  0.16508234360E+02  0.86172609268E+01  0.19879476045E+02  0.27239378102E+02  0.10566000000E+00 0. -1.
        994    1    1    2    0    0 -0.11966533229E+02 -0.15760049577E+02  0.87816486927E+01  0.17256342148E+03  0.17120000000E+03 0.  0.
        998    1    1    2    0    0 -0.45417011309E+01  0.71427886507E+01  0.14713388715E+04  0.14713972004E+04  0.10000000000E+02 0. -1.
</event>
<event>
 5    1  0.1338054E-008  0.3799146E+03  0.7957747E-01  0.3451530E+00
         13   -1    0    0    0    0  0.00000000000E+00  0.00000000000E+00  0.14999999963E+04  0.15000000000E+04  0.10566000000E+00 0. -1.
        994   -1    0    0    0    0 -0.00000000000E+00 -0.00000000000E+00  0.11368683772E-12  0.17120000000E+03  0.17120000000E+03 0.  0.
         13    1    1    2    0    0 -0.15407953981E+02  0.18616829673E+02  0.74458265065E+02  0.78281771783E+02  0.10566000000E+00 0. -1.
        994    1    1    2    0    0 -0.13804942886E+02 -0.69284827459E+01  0.49744427366E+01  0.17196733818E+03  0.17120000000E+03 0.  0.
        998    1    1    2    0    0  0.29212896867E+02 -0.11688346927E+02  0.14205672885E+04  0.14209508900E+04  0.10000000000E+02 0. -1.
</event>
<event>
 5    1  0.1338054E-008  0.3812018E+03  0.7957747E-01  0.3445942E+00
         13   -1    0    0    0    0  0.00000000000E+00  0.00000000000E+00  0.14999999963E+04  0.15000000000E+04  0.10566000000E+00 0. -1.
        994   -1    0    0    0    0 -0.00000000000E+00 -0.00000000000E+00  0.11368683772E-12  0.17120000000E+03  0.17120000000E+03 0.  0.
         13    1    1    2    0    0  0.28945182345E+01 -0.15654998793E+02  0.36207344877E+02  0.39553005070E+02  0.10566000000E+00 0. -1.
        994    1    1    2    0    0  0.25257636576E+01 -0.18350337540E+01  0.35601650066E+01  0.17126547114E+03  0.17120000000E+03 0.  0.
        998    1    1    2    0    0 -0.54202818921E+01  0.17490032547E+02  0.14602324864E+04  0.14603815238E+04  0.10000000000E+02 0. -1.
</event>
<event>
 5    1  0.1338054E-008  0.3810921E+03  0.7957747E-01  0.3446417E+00
         13   -1    0    0    0    0  0.00000000000E+00  0.00000000000E+00  0.14999999963E+04  0.15000000000E+04  0.10566000000E+00 0. -1.
        994   -1    0    0    0    0 -0.00000000000E+00 -0.00000000000E+00  0.11368683772E-12  0.17120000000E+03  0.17120000000E+03 0.  0.
         13    1    1    2    0    0  0.98139530221E+01 -0.29681896337E+02  0.17154072542E+03  0.17436616727E+03  0.10566000000E+00 0. -1.
        994    1    1    2    0    0  0.53201669099E+01 -0.11948291592E+02  0.41528698059E+01  0.17174909658E+03  0.17120000000E+03 0.  0.
        998    1    1    2    0    0 -0.15134119932E+02  0.41630187928E+02  0.13243064010E+04  0.13250847362E+04  0.10000000000E+02 0. -1.
</event>
<event>
 5    1  0.1338054E-008  0.3714192E+03  0.7957747E-01  0.3489394E+00
         13   -1    0    0    0    0  0.00000000000E+00  0.00000000000E+00  0.14999999963E+04  0.15000000000E+04  0.10566000000E+00 0. -1.
        994   -1    0    0    0    0 -0.00000000000E+00 -0.00000000000E+00  0.11368683772E-12  0.17120000000E+03  0.17120000000E+03 0.  0.
         13    1    1    2    0    0 -0.47368904218E+02 -0.11153573135E+02  0.15035284187E+03  0.15803228627E+03  0.10566000000E+00 0. -1.
        994    1    1    2    0    0  0.84603065051E+01 -0.17475643398E+01  0.87859871069E+01  0.17164283946E+03  0.17120000000E+03 0.  0.
        998    1    1    2    0    0  0.38908597713E+02  0.12901137475E+02  0.13408611673E+04  0.13415248743E+04  0.10000000000E+02 0. -1.
</event>
<event>
 5    1  0.1338054E-008  0.4008182E+03  0.7957747E-01  0.3365236E+00
         13   -1    0    0    0    0  0.00000000000E+00  0.00000000000E+00  0.14999999963E+04  0.15000000000E+04  0.10566000000E+00 0.  1.
        994   -1    0    0    0    0 -0.00000000000E+00 -0.00000000000E+00  0.11368683772E-12  0.17120000000E+03  0.17120000000E+03 0.  0.
         13    1    1    2    0    0 -0.71831501953E+01 -0.33805844936E+02  0.10988012268E+02  0.36265415704E+02  0.10566000000E+00 0.  1.
        994    1    1    2    0    0 -0.18273655578E+02 -0.71316760953E+01  0.29782617450E+02  0.17487490270E+03  0.17120000000E+03 0.  0.
        998    1    1    2    0    0  0.25456805774E+02  0.40937521031E+02  0.14592293666E+04  0.14600596816E+04  0.10000000000E+02 0.  1.
</event>
<event>
 5    1  0.1338054E-008  0.3726239E+03  0.7957747E-01  0.3483918E+00
         13   -1    0    0    0    0  0.00000000000E+00  0.00000000000E+00  0.14999999963E+04  0.15000000000E+04  0.10566000000E+00 0.  1.
        994   -1    0    0    0    0 -0.00000000000E+00 -0.00000000000E+00  0.11368683772E-12  0.17120000000E+03  0.17120000000E+03 0.  0.
         13    1    1    2    0    0 -0.13426199903E+02 -0.18824862589E+03  0.81450130863E+03  0.83608025985E+03  0.10566000000E+00 0.  1.
        994    1    1    2    0    0  0.14235308441E+02  0.18957563330E+03  0.14409768207E+03  0.29362415896E+03  0.17120000000E+03 0.  0.
        998    1    1    2    0    0 -0.80910853803E+00 -0.13270074091E+01  0.54140100557E+03  0.54149558118E+03  0.10000000000E+02 0.  1.
</event>
<event>
 5    1  0.1338054E-008  0.3854455E+03  0.7957747E-01  0.3427785E+00
         13   -1    0    0    0    0  0.00000000000E+00  0.00000000000E+00  0.14999999963E+04  0.15000000000E+04  0.10566000000E+00 0.  1.
        994   -1    0    0    0    0 -0.00000000000E+00 -0.00000000000E+00  0.11368683772E-12  0.17120000000E+03  0.17120000000E+03 0.  0.
         13    1    1    2    0    0  0.13673238315E+02  0.96308330420E+01  0.93867519859E+02  0.95345859059E+02  0.10566000000E+00 0.  1.
        994    1    1    2    0    0 -0.21352710176E+02 -0.16345415818E+01  0.29166129028E+01  0.17255884964E+03  0.17120000000E+03 0.  0.
        998    1    1    2    0    0  0.76794718612E+01 -0.79962914602E+01  0.14032158635E+04  0.14032952913E+04  0.10000000000E+02 0.  1.
</event>
<event>
 5    1  0.1338054E-008  0.3730251E+03  0.7957747E-01  0.3482103E+00
         13   -1    0    0    0    0  0.00000000000E+00  0.00000000000E+00  0.14999999963E+04  0.15000000000E+04  0.10566000000E+00 0. -1.
        994   -1    0    0    0    0 -0.00000000000E+00 -0.00000000000E+00  0.11368683772E-12  0.17120000000E+03  0.17120000000E+03 0.  0.
         13    1    1    2    0    0  0.16408484086E+02  0.52464565102E+00  0.13790190146E+02  0.21440478338E+02  0.10566000000E+00 0. -1.
        994    1    1    2    0    0 -0.22188645803E+02  0.21796359279E+01  0.93992670962E+01  0.17290133903E+03  0.17120000000E+03 0.  0.
        998    1    1    2    0    0  0.57801617177E+01 -0.27042815789E+01  0.14768105390E+04  0.14768581826E+04  0.10000000000E+02 0. -1.
</event>
<event>
 5    1  0.1338054E-008  0.3823760E+03  0.7957747E-01  0.3440877E+00
         13   -1    0    0    0    0  0.00000000000E+00  0.00000000000E+00  0.14999999963E+04  0.15000000000E+04  0.10566000000E+00 0. -1.
        994   -1    0    0    0    0 -0.00000000000E+00 -0.00000000000E+00  0.11368683772E-12  0.17120000000E+03  0.17120000000E+03 0.  0.
         13    1    1    2    0    0 -0.54931086891E+02  0.19479167523E+02  0.30892197793E+03  0.31437185288E+03  0.10566000000E+00 0. -1.
        994    1    1    2    0    0  0.99482859538E+02 -0.10368094806E+02  0.36863285747E+02  0.20167468499E+03  0.17120000000E+03 0.  0.
        998    1    1    2    0    0 -0.44551772646E+02 -0.91110727166E+01  0.11542147326E+04  0.11551534621E+04  0.10000000000E+02 0. -1.
</event>
<event>
 5    1  0.1338054E-008  0.3843039E+03  0.7957747E-01  0.3432630E+00
         13   -1    0    0    0    0  0.00000000000E+00  0.00000000000E+00  0.14999999963E+04  0.15000000000E+04  0.10566000000E+00 0. -1.
        994   -1    0    0    0    0 -0.00000000000E+00 -0.00000000000E+00  0.11368683772E-12  0.17120000000E+03  0.17120000000E+03 0.  0.
         13    1    1    2    0    0 -0.11678110324E+02  0.32818494193E+01  0.37473602361E+02  0.39388206793E+02  0.10566000000E+00 0. -1.
        994    1    1    2    0    0  0.60503359705E+01  0.60323094301E+01  0.22167743121E+01  0.17142738816E+03  0.17120000000E+03 0.  0.
        998    1    1    2    0    0  0.56277743539E+01 -0.93141588494E+01  0.14603096196E+04  0.14603844050E+04  0.10000000000E+02 0. -1.
</event>
<event>
 5    1  0.1338054E-008  0.4033003E+03  0.7957747E-01  0.3355583E+00
         13   -1    0    0    0    0  0.00000000000E+00  0.00000000000E+00  0.14999999963E+04  0.15000000000E+04  0.10566000000E+00 0. -1.
        994   -1    0    0    0    0 -0.00000000000E+00 -0.00000000000E+00  0.11368683772E-12  0.17120000000E+03  0.17120000000E+03 0.  0.
         13    1    1    2    0    0 -0.43502163372E+02  0.52406310133E+02  0.64675213405E+02  0.93924192585E+02  0.10566000000E+00 0. -1.
        994    1    1    2    0    0  0.40754963757E+02 -0.58596220813E+02  0.50278156619E+02  0.19217652614E+03  0.17120000000E+03 0.  0.
        998    1    1    2    0    0  0.27471996146E+01  0.61899106799E+01  0.13850466263E+04  0.13850992813E+04  0.10000000000E+02 0. -1.
</event>
<event>
 5    1  0.1338054E-008  0.3814684E+03  0.7957747E-01  0.3444789E+00
         13   -1    0    0    0    0  0.00000000000E+00  0.00000000000E+00  0.14999999963E+04  0.15000000000E+04  0.10566000000E+00 0. -1.
        994   -1    0    0    0    0 -0.00000000000E+00 -0.00000000000E+00  0.11368683772E-12  0.17120000000E+03  0.17120000000E+03 0.  0.
         13    1    1    2    0    0 -0.31940256609E+02 -0.21419172075E+02  0.35531131406E+02  0.52358699255E+02  0.10566000000E+00 0. -1.
        994    1    1    2    0    0  0.32919622536E+02  0.21655118095E+02  0.22813822023E+02  0.17715122400E+03  0.17120000000E+03 0.  0.
        998    1    1    2    0    0 -0.97936592720E+00 -0.23594602010E+00  0.14416550428E+04  0.14416900768E+04  0.10000000000E+02 0. -1.
</event>
<event>
 5    1  0.1338054E-008  0.3854225E+03  0.7957747E-01  0.3427882E+00
         13   -1    0    0    0    0  0.00000000000E+00  0.00000000000E+00  0.14999999963E+04  0.15000000000E+04  0.10566000000E+00 0.  1.
        994   -1    0    0    0    0 -0.00000000000E+00 -0.00000000000E+00  0.11368683772E-12  0.17120000000E+03  0.17120000000E+03 0.  0.
         13    1    1    2    0    0  0.12219403762E+02  0.33408454492E+01  0.57791000800E+02  0.59163215042E+02  0.10566000000E+00 0.  1.
        994    1    1    2    0    0 -0.81356535823E+01  0.84280273432E+01  0.18712880299E+01  0.17161049567E+03  0.17120000000E+03 0.  0.
        998    1    1    2    0    0 -0.40837501794E+01 -0.11768872792E+02  0.14403377074E+04  0.14404262893E+04  0.10000000000E+02 0.  1.
</event>
<event>
 5    1  0.1338054E-008  0.3861072E+03  0.7957747E-01  0.3424990E+00
         13   -1    0    0    0    0  0.00000000000E+00  0.00000000000E+00  0.14999999963E+04  0.15000000000E+04  0.10566000000E+00 0. -1.
        994   -1    0    0    0    0 -0.00000000000E+00 -0.00000000000E+00  0.11368683772E-12  0.17120000000E+03  0.17120000000E+03 0.  0.
         13    1    1    2    0    0  0.13268915975E+02  0.11773212115E+01  0.79533290718E+02  0.80641215968E+02  0.10566000000E+00 0. -1.
        994    1    1    2    0    0 -0.13607449810E+02 -0.46797686845E+01  0.17602205850E+01  0.17181269249E+03  0.17120000000E+03 0.  0.
        998    1    1    2    0    0  0.33853383455E+00  0.35024474729E+01  0.14187064850E+04  0.14187460915E+04  0.10000000000E+02 0. -1.
</event>
<event>
 5    1  0.1338054E-008  0.3727396E+03  0.7957747E-01  0.3483394E+00
         13   -1    0    0    0    0  0.00000000000E+00  0.00000000000E+00  0.14999999963E+04  0.15000000000E+04  0.10566000000E+00 0.  1.
        994   -1    0    0    0    0 -0.00000000000E+00 -0.00000000000E+00  0.11368683772E-12  0.17120000000E+03  0.17120000000E+03 0.  0.
         13    1    1    2    0    0 -0.71953178502E+02 -0.24564058884E+02  0.38266446820E+03  0.39014453639E+03  0.10566000000E+00 0.  1.
        994    1    1    2    0    0  0.38454337569E+02  0.55920225568E+01  0.13034046436E+02  0.17603787422E+03  0.17120000000E+03 0.  0.
        998    1    1    2    0    0  0.33498840934E+02  0.18972036327E+02  0.11043014816E+04  0.11050175894E+04  0.10000000000E+02 0.  0.
</event>
<event>
 5    1  0.1338054E-008  0.3856903E+03  0.7957747E-01  0.3426750E+00
         13   -1    0    0    0    0  0.00000000000E+00  0.00000000000E+00  0.14999999963E+04  0.15000000000E+04  0.10566000000E+00 0.  1.
        994   -1    0    0    0    0 -0.00000000000E+00 -0.00000000000E+00  0.11368683772E-12  0.17120000000E+03  0.17120000000E+03 0.  0.
         13    1    1    2    0    0 -0.98575189245E+01 -0.85679332526E+01  0.67287060363E+02  0.68542977874E+02  0.10566000000E+00 0.  1.
        994    1    1    2    0    0  0.47536883490E+01  0.59267482914E+01  0.14772554305E+01  0.17137487033E+03  0.17120000000E+03 0.  0.
        998    1    1    2    0    0  0.51038305755E+01  0.26411849612E+01  0.14312356805E+04  0.14312821518E+04  0.10000000000E+02 0.  1.
</event>
<event>
 5    1  0.1338054E-008  0.3722516E+03  0.7957747E-01  0.3485606E+00
         13   -1    0    0    0    0  0.00000000000E+00  0.00000000000E+00  0.14999999963E+04  0.15000000000E+04  0.10566000000E+00 0. -1.
        994   -1    0    0    0    0 -0.00000000000E+00 -0.00000000000E+00  0.11368683772E-12  0.17120000000E+03  0.17120000000E+03 0.  0.
         13    1    1    2    0    0 -0.23851084607E+02  0.38392864954E+02  0.18785160108E+03  0.19321263289E+03  0.10566000000E+00 0. -1.
        994    1    1    2    0    0 -0.51298091456E+02  0.22650743205E+02  0.18964121788E+02  0.18114532362E+03  0.17120000000E+03 0.  0.
        998    1    1    2    0    0  0.75149176063E+02 -0.61043608159E+02  0.12931842734E+04  0.12968420435E+04  0.10000000000E+02 0. -1.
</event>
<event>
 5    1  0.1338054E-008  0.3836628E+03  0.7957747E-01  0.3435363E+00
         13   -1    0    0    0    0  0.00000000000E+00  0.00000000000E+00  0.14999999963E+04  0.15000000000E+04  0.10566000000E+00 0.  1.
        994   -1    0    0    0    0 -0.00000000000E+00 -0.00000000000E+00  0.11368683772E-12  0.17120000000E+03  0.17120000000E+03 0.  0.
         13    1    1    2    0    0 -0.17850589190E+02  0.66464084131E+01  0.81326231967E+02  0.83527153964E+02  0.10566000000E+00 0.  1.
        994    1    1    2    0    0  0.58102387885E+01 -0.24597297476E+01  0.24270053576E+01  0.17133341618E+03  0.17120000000E+03 0.  0.
        998    1    1    2    0    0  0.12040350402E+02 -0.41866786655E+01  0.14162467590E+04  0.14163394299E+04  0.10000000000E+02 0.  1.
</event>
<event>
 5    1  0.1338054E-008  0.3711347E+03  0.7957747E-01  0.3490692E+00
         13   -1    0    0    0    0  0.00000000000E+00  0.00000000000E+00  0.14999999963E+04  0.15000000000E+04  0.10566000000E+00 0. -1.
        994   -1    0    0    0    0 -0.00000000000E+00 -0.00000000000E+00  0.11368683772E-12  0.17120000000E+03  0.17120000000E+03 0.  0.
         13    1    1    2    0    0  0.16376491084E+02  0.20398454193E+02  0.39521497437E+02  0.47394581097E+02  0.10566000000E+00 0. -1.
        994    1    1    2    0    0  0.11838419928E+01  0.21662469900E+02  0.10299882916E+02  0.17287623224E+03  0.17120000000E+03 0.  0.
        998    1    1    2    0    0 -0.17560333077E+02 -0.42060924093E+02  0.14501786159E+04  0.14509291867E+04  0.10000000000E+02 0. -1.
</event>
<event>
 5    1  0.1338054E-008  0.3741951E+03  0.7957747E-01  0.3476831E+00
         13   -1    0    0    0    0  0.00000000000E+00  0.00000000000E+00  0.14999999963E+04  0.15000000000E+04  0.10566000000E+00 0.  1.
        994   -1    0    0    0    0 -0.00000000000E+00 -0.00000000000E+00  0.11368683772E-12  0.17120000000E+03  0.17120000000E+03 0.  0.
         13    1    1    2    0    0  0.97758608703E+00  0.11862478441E+02  0.64387285235E+01  0.13533013646E+02  0.10566000000E+00 0.  1.
        994    1    1    2    0    0  0.29022456750E+01 -0.27749786249E+02  0.97506183869E+01  0.17373251919E+03  0.17120000000E+03 0.  0.
        998    1    1    2    0    0 -0.38798317621E+01  0.15887307809E+02  0.14838106494E+04  0.14839344672E+04  0.10000000000E+02 0.  1.
</event>
<event>
 5    1  0.1338054E-008  0.3712746E+03  0.7957747E-01  0.3490053E+00
         13   -1    0    0    0    0  0.00000000000E+00  0.00000000000E+00  0.14999999963E+04  0.15000000000E+04  0.10566000000E+00 0.  1.
        994   -1    0    0    0    0 -0.00000000000E+00 -0.00000000000E+00  0.11368683772E-12  0.17120000000E+03  0.17120000000E+03 0.  0.
         13    1    1    2    0    0 -0.33450868476E+01  0.35064775431E+02  0.51099249851E+02  0.62063456087E+02  0.10566000000E+00 0.  1.
        994    1    1    2    0    0  0.58852636535E+00 -0.85047479825E+01  0.11869661559E+02  0.17182260028E+03  0.17120000000E+03 0.  0.
        998    1    1    2    0    0  0.27565604823E+01 -0.26560027448E+02  0.14370310849E+04  0.14373139436E+04  0.10000000000E+02 0.  1.
</event>
<event>
 5    1  0.1338054E-008  0.3727055E+03  0.7957747E-01  0.3483549E+00
         13   -1    0    0    0    0  0.00000000000E+00  0.00000000000E+00  0.14999999963E+04  0.15000000000E+04  0.10566000000E+00 0.  1.
        994   -1    0    0    0    0 -0.00000000000E+00 -0.00000000000E+00  0.11368683772E-12  0.17120000000E+03  0.17120000000E+03 0.  0.
         13    1    1    2    0    0  0.25247402758E+01  0.27084922589E+02  0.44039366386E+02  0.51763349011E+02  0.10566000000E+00 0.  1.
        994    1    1    2    0    0 -0.78862879872E+01 -0.16943843957E+02  0.90592073123E+01  0.17245520179E+03  0.17120000000E+03 0.  0.
        998    1    1    2    0    0  0.53615477114E+01 -0.10141078632E+02  0.14469014226E+04  0.14469814492E+04  0.10000000000E+02 0.  1.
</event>
<event>
 5    1  0.1338054E-008  0.3730316E+03  0.7957747E-01  0.3482073E+00
         13   -1    0    0    0    0  0.00000000000E+00  0.00000000000E+00  0.14999999963E+04  0.15000000000E+04  0.10566000000E+00 0. -1.
        994   -1    0    0    0    0 -0.00000000000E+00 -0.00000000000E+00  0.11368683772E-12  0.17120000000E+03  0.17120000000E+03 0.  0.
         13    1    1    2    0    0  0.11999238145E+03  0.98903671169E+01  0.67682524981E+03  0.68745066798E+03  0.10566000000E+00 0. -1.
        994    1    1    2    0    0 -0.55491850326E+02 -0.29259677558E+02  0.26590293386E+02  0.18426057062E+03  0.17120000000E+03 0.  0.
        998    1    1    2    0    0 -0.64500531123E+02  0.19369310441E+02  0.79658445308E+03  0.79948876140E+03  0.10000000000E+02 0. -1.
</event>
<event>
 5    1  0.1338054E-008  0.3947809E+03  0.7957747E-01  0.3389221E+00
         13   -1    0    0    0    0  0.00000000000E+00  0.00000000000E+00  0.14999999963E+04  0.15000000000E+04  0.10566000000E+00 0. -1.
        994   -1    0    0    0    0 -0.00000000000E+00 -0.00000000000E+00  0.11368683772E-12  0.17120000000E+03  0.17120000000E+03 0.  0.
         13    1    1    2    0    0  0.45047029838E+02  0.22085805070E+02  0.44062546624E+02  0.66772276147E+02  0.10566000000E+00 0. -1.
        994    1    1    2    0    0 -0.18892259164E+02 -0.56925908826E+01  0.26189853193E+02  0.17431199459E+03  0.17120000000E+03 0.  0.
        998    1    1    2    0    0 -0.26154770674E+02 -0.16393214187E+02  0.14297475965E+04  0.14301157293E+04  0.10000000000E+02 0. -1.
</event>
<event>
 5    1  0.1338054E-008  0.3689132E+03  0.7957747E-01  0.3500901E+00
         13   -1    0    0    0    0  0.00000000000E+00  0.00000000000E+00  0.14999999963E+04  0.15000000000E+04  0.10566000000E+00 0.  1.
        994   -1    0    0    0    0 -0.00000000000E+00 -0.00000000000E+00  0.11368683772E-12  0.17120000000E+03  0.17120000000E+03 0.  0.
         13    1    1    2    0    0  0.90164667336E+02 -0.40080051921E+02  0.55334183618E+03  0.56207052638E+03  0.10566000000E+00 0.  1.
        994    1    1    2    0    0 -0.36583046119E+02  0.16313166571E+02  0.15973922627E+02  0.17654757113E+03  0.17120000000E+03 0.  0.
        998    1    1    2    0    0 -0.53581621216E+02  0.23766885350E+02  0.93068423747E+03  0.93258190249E+03  0.10000000000E+02 0.  1.
</event>
<event>
 5    1  0.1338054E-008  0.3843853E+03  0.7957747E-01  0.3432283E+00
         13   -1    0    0    0    0  0.00000000000E+00  0.00000000000E+00  0.14999999963E+04  0.15000000000E+04  0.10566000000E+00 0. -1.
        994   -1    0    0    0    0 -0.00000000000E+00 -0.00000000000E+00  0.11368683772E-12  0.17120000000E+03  0.17120000000E+03 0.  0.
         13    1    1    2    0    0  0.14975038354E+02  0.14127214596E+02  0.11444091491E+03  0.11627796066E+03  0.10566000000E+00 0. -1.
        994    1    1    2    0    0 -0.69946008778E+01 -0.26718521068E+01  0.21204007107E+01  0.17137677595E+03  0.17120000000E+03 0.  0.
        998    1    1    2    0    0 -0.79804374762E+01 -0.11455362490E+02  0.13834386807E+04  0.13835452634E+04  0.10000000000E+02 0. -1.
</event>
<event>
 5    1  0.1338054E-008  0.4444762E+03  0.7957747E-01  0.3210938E+00
         13   -1    0    0    0    0  0.00000000000E+00  0.00000000000E+00  0.14999999963E+04  0.15000000000E+04  0.10566000000E+00 0. -1.
        994   -1    0    0    0    0 -0.00000000000E+00 -0.00000000000E+00  0.11368683772E-12  0.17120000000E+03  0.17120000000E+03 0.  0.
         13    1    1    2    0    0  0.15336315410E+03 -0.38602668407E+02  0.35826241696E+03  0.39161510902E+03  0.10566000000E+00 0. -1.
        994    1    1    2    0    0  0.19929614936E+02 -0.15212891407E+02  0.60678885791E+02  0.18335754361E+03  0.17120000000E+03 0.  0.
        998    1    1    2    0    0 -0.17329276903E+03  0.53815559814E+02  0.10810586935E+04  0.10962273474E+04  0.10000000000E+02 0. -1.
</event>
<event>
 5    1  0.1338054E-008  0.3271532E+03  0.7957747E-01  0.3719411E+00
         13   -1    0    0    0    0  0.00000000000E+00  0.00000000000E+00  0.14999999963E+04  0.15000000000E+04  0.10566000000E+00 0.  1.
        994   -1    0    0    0    0 -0.00000000000E+00 -0.00000000000E+00  0.11368683772E-12  0.17120000000E+03  0.17120000000E+03 0.  0.
         13    1    1    2    0    0 -0.16010562182E+03  0.13515935616E+03  0.82009730490E+03  0.84644046593E+03  0.10566000000E+00 0.  1.
        994    1    1    2    0    0  0.16777234052E+03 -0.11407899779E+03  0.17211282207E+03  0.31637610450E+03  0.17120000000E+03 0.  0.
        998    1    1    2    0    0 -0.76667186917E+01 -0.21080358375E+02  0.50778986931E+03  0.50838342957E+03  0.10000000000E+02 0. -1.
</event>
<event>
 5    1  0.1338054E-008  0.3700012E+03  0.7957747E-01  0.3495885E+00
         13   -1    0    0    0    0  0.00000000000E+00  0.00000000000E+00  0.14999999963E+04  0.15000000000E+04  0.10566000000E+00 0. -1.
        994   -1    0    0    0    0 -0.00000000000E+00 -0.00000000000E+00  0.11368683772E-12  0.17120000000E+03  0.17120000000E+03 0.  0.
         13    1    1    2    0    0 -0.42272078558E+02 -0.82810112188E+02  0.35852433081E+03  0.37038378779E+03  0.10566000000E+00 0. -1.
        994    1    1    2    0    0  0.43667904306E+02  0.78219377706E+02  0.37552040947E+02  0.19683686823E+03  0.17120000000E+03 0.  0.
        998    1    1    2    0    0 -0.13958257484E+01  0.45907344817E+01  0.11039236245E+04  0.11039793440E+04  0.10000000000E+02 0.  0.
</event>
<event>
 5    1  0.1338054E-008  0.3827817E+03  0.7957747E-01  0.3439135E+00
         13   -1    0    0    0    0  0.00000000000E+00  0.00000000000E+00  0.14999999963E+04  0.15000000000E+04  0.10566000000E+00 0.  1.
        994   -1    0    0    0    0 -0.00000000000E+00 -0.00000000000E+00  0.11368683772E-12  0.17120000000E+03  0.17120000000E+03 0.  0.
         13    1    1    2    0    0 -0.85574375932E+01 -0.12509474439E+02  0.38750002496E+02  0.41608779678E+02  0.10566000000E+00 0.  1.
        994    1    1    2    0    0  0.76062633759E+01  0.25150944321E+02  0.50258813933E+01  0.17327759442E+03  0.17120000000E+03 0.  0.
        998    1    1    2    0    0  0.95117421725E+00 -0.12641469882E+02  0.14562241124E+04  0.14563136259E+04  0.10000000000E+02 0.  1.
</event>
<event>
 5    1  0.1338054E-008  0.3813189E+03  0.7957747E-01  0.3445436E+00
         13   -1    0    0    0    0  0.00000000000E+00  0.00000000000E+00  0.14999999963E+04  0.15000000000E+04  0.10566000000E+00 0. -1.
        994   -1    0    0    0    0 -0.00000000000E+00 -0.00000000000E+00  0.11368683772E-12  0.17120000000E+03  0.17120000000E+03 0.  0.
         13    1    1    2    0    0 -0.23090891344E+02  0.25232711452E+02  0.19300616469E+03  0.19601344281E+03  0.10566000000E+00 0. -1.
        994    1    1    2    0    0  0.14478928636E+02  0.94467791288E+01  0.44642778952E+01  0.17212858794E+03  0.17120000000E+03 0.  0.
        998    1    1    2    0    0  0.86119627082E+01 -0.34679490581E+02  0.13025295537E+04  0.13030579692E+04  0.10000000000E+02 0. -1.
</event>
<event>
 5    1  0.1338054E-008  0.3774100E+03  0.7957747E-01  0.3462514E+00
         13   -1    0    0    0    0  0.00000000000E+00  0.00000000000E+00  0.14999999963E+04  0.15000000000E+04  0.10566000000E+00 0. -1.
        994   -1    0    0    0    0 -0.00000000000E+00 -0.00000000000E+00  0.11368683772E-12  0.17120000000E+03  0.17120000000E+03 0.  0.
         13    1    1    2    0    0  0.28929907615E+02  0.37773486769E+02  0.25377864730E+03  0.25820028824E+03  0.10566000000E+00 0. -1.
        994    1    1    2    0    0  0.21568656071E+02 -0.18578803960E+02  0.81835801945E+01  0.17374345992E+03  0.17120000000E+03 0.  0.
        998    1    1    2    0    0 -0.50498563686E+02 -0.19194682809E+02  0.12380377688E+04  0.12392562518E+04  0.10000000000E+02 0. -1.
</event>
<event>
 5    1  0.1338054E-008  0.3982374E+03  0.7957747E-01  0.3375400E+00
         13   -1    0    0    0    0  0.00000000000E+00  0.00000000000E+00  0.14999999963E+04  0.15000000000E+04  0.10566000000E+00 0. -1.
        994   -1    0    0    0    0 -0.00000000000E+00 -0.00000000000E+00  0.11368683772E-12  0.17120000000E+03  0.17120000000E+03 0.  0.
         13    1    1    2    0    0 -0.41393665624E+02  0.29963197457E+01  0.22811284737E+02  0.47357991524E+02  0.10566000000E+00 0. -1.
        994    1    1    2    0    0  0.18002887425E+02  0.30878549846E+02  0.31710347963E+02  0.17774300257E+03  0.17120000000E+03 0.  0.
        998    1    1    2    0    0  0.23390778199E+02 -0.33874869591E+02  0.14454783636E+04  0.14460990059E+04  0.10000000000E+02 0. -1.
</event>
<event>
 5    1  0.1338054E-008  0.4026471E+03  0.7957747E-01  0.3358111E+00
         13   -1    0    0    0    0  0.00000000000E+00  0.00000000000E+00  0.14999999963E+04  0.15000000000E+04  0.10566000000E+00 0.  1.
        994   -1    0    0    0    0 -0.00000000000E+00 -0.00000000000E+00  0.11368683772E-12  0.17120000000E+03  0.17120000000E+03 0.  0.
         13    1    1    2    0    0  0.11226133242E+02 -0.11243172889E+03  0.20099871104E+03  0.23058059921E+03  0.10566000000E+00 0.  1.
        994    1    1    2    0    0 -0.30145961792E+01  0.85902042571E+02  0.59254500306E+02  0.20052128195E+03  0.17120000000E+03 0.  0.
        998    1    1    2    0    0 -0.82115370625E+01  0.26529686322E+02  0.12397467849E+04  0.12400981188E+04  0.10000000000E+02 0.  1.
</event>
<event>
 5    1  0.1338054E-008  0.3808695E+03  0.7957747E-01  0.3447381E+00
         13   -1    0    0    0    0  0.00000000000E+00  0.00000000000E+00  0.14999999963E+04  0.15000000000E+04  0.10566000000E+00 0. -1.
        994   -1    0    0    0    0 -0.00000000000E+00 -0.00000000000E+00  0.11368683772E-12  0.17120000000E+03  0.17120000000E+03 0.  0.
         13    1    1    2    0    0  0.17766282896E+02  0.25666330433E+02  0.13937788999E+03  0.14283069946E+03  0.10566000000E+00 0. -1.
        994    1    1    2    0    0 -0.33836255639E+01 -0.80057146570E+01  0.39467352251E+01  0.17146590655E+03  0.17120000000E+03 0.  0.
        998    1    1    2    0    0 -0.14382657332E+02 -0.17660615776E+02  0.13566753711E+04  0.13569033940E+04  0.10000000000E+02 0. -1.
</event>
<event>
 5    1  0.1338054E-008  0.3837876E+03  0.7957747E-01  0.3434830E+00
         13   -1    0    0    0    0  0.00000000000E+00  0.00000000000E+00  0.14999999963E+04  0.15000000000E+04  0.10566000000E+00 0.  1.
        994   -1    0    0    0    0 -0.00000000000E+00 -0.00000000000E+00  0.11368683772E-12  0.17120000000E+03  0.17120000000E+03 0.  0.
         13    1    1    2    0    0  0.15652771172E+02  0.44479165063E+01  0.54735981365E+02  0.57103695385E+02  0.10566000000E+00 0.  1.
        994    1    1    2    0    0 -0.28150970033E+02  0.75154142692E+01  0.50412287095E+01  0.17373489158E+03  0.17120000000E+03 0.  0.
        998    1    1    2    0    0  0.12498198861E+02 -0.11963330776E+02  0.14402227862E+04  0.14403614130E+04  0.10000000000E+02 0.  1.
</event>
<event>
 5    1  0.1338054E-008  0.3796074E+03  0.7957747E-01  0.3452870E+00
         13   -1    0    0    0    0  0.00000000000E+00  0.00000000000E+00  0.14999999963E+04  0.15000000000E+04  0.10566000000E+00 0.  1.
        994   -1    0    0    0    0 -0.00000000000E+00 -0.00000000000E+00  0.11368683772E-12  0.17120000000E+03  0.17120000000E+03 0.  0.
         13    1    1    2    0    0  0.29139530207E+02 -0.15908792557E+02  0.11601436378E+03  0.12067122966E+03  0.10566000000E+00 0.  1.
        994    1    1    2    0    0 -0.36219713082E+02  0.66132713062E+01  0.88823634096E+01  0.17533949741E+03  0.17120000000E+03 0.  0.
        998    1    1    2    0    0  0.70801828746E+01  0.92955212510E+01  0.13751032691E+04  0.13751892729E+04  0.10000000000E+02 0.  1.
</event>
<event>
 5    1  0.1338054E-008  0.3988998E+03  0.7957747E-01  0.3372779E+00
         13   -1    0    0    0    0  0.00000000000E+00  0.00000000000E+00  0.14999999963E+04  0.15000000000E+04  0.10566000000E+00 0.  1.
        994   -1    0    0    0    0 -0.00000000000E+00 -0.00000000000E+00  0.11368683772E-12  0.17120000000E+03  0.17120000000E+03 0.  0.
         13    1    1    2    0    0 -0.21966228836E+02 -0.11231499986E+02 -0.55124489396E+00  0.24677456031E+02  0.10566000000E+00 0.  1.
        994    1    1    2    0    0  0.26069074634E+02  0.62516498210E+01  0.29928610235E+02  0.17585175998E+03  0.17120000000E+03 0.  0.
        998    1    1    2    0    0 -0.41028457980E+01  0.49798501650E+01  0.14706226309E+04  0.14706707840E+04  0.10000000000E+02 0.  1.
</event>
<event>
 5    1  0.1338054E-008  0.3855693E+03  0.7957747E-01  0.3427261E+00
         13   -1    0    0    0    0  0.00000000000E+00  0.00000000000E+00  0.14999999963E+04  0.15000000000E+04  0.10566000000E+00 0.  1.
        994   -1    0    0    0    0 -0.00000000000E+00 -0.00000000000E+00  0.11368683772E-12  0.17120000000E+03  0.17120000000E+03 0.  0.
         13    1    1    2    0    0 -0.11469352382E+02  0.25070484618E+01  0.49957930292E+02  0.51318976015E+02  0.10566000000E+00 0.  1.
        994    1    1    2    0    0  0.13220988622E+02  0.14047024556E+01  0.19282224931E+01  0.17172631065E+03  0.17120000000E+03 0.  0.
        998    1    1    2    0    0 -0.17516362395E+01 -0.39117509174E+01  0.14481138435E+04  0.14481547133E+04  0.10000000000E+02 0.  1.
</event>
<event>
 5    1  0.1338054E-008  0.3797089E+03  0.7957747E-01  0.3452427E+00
         13   -1    0    0    0    0  0.00000000000E+00  0.00000000000E+00  0.14999999963E+04  0.15000000000E+04  0.10566000000E+00 0. -1.
        994   -1    0    0    0    0 -0.00000000000E+00 -0.00000000000E+00  0.11368683772E-12  0.17120000000E+03  0.17120000000E+03 0.  0.
         13    1    1    2    0    0  0.23939799061E+02  0.10971608997E+02  0.91457331411E+02  0.95173235818E+02  0.10566000000E+00 0. -1.
        994    1    1    2    0    0  0.15755095013E+01  0.24663758099E+02  0.63266210785E+01  0.17309029241E+03  0.17120000000E+03 0.  0.
        998    1    1    2    0    0 -0.25515308562E+02 -0.35635367096E+02  0.14022160438E+04  0.14029364718E+04  0.10000000000E+02 0. -1.
</event>
<event>
 5    1  0.1338054E-008  0.3769359E+03  0.7957747E-01  0.3464610E+00
         13   -1    0    0    0    0  0.00000000000E+00  0.00000000000E+00  0.14999999963E+04  0.15000000000E+04  0.10566000000E+00 0.  1.
        994   -1    0    0    0    0 -0.00000000000E+00 -0.00000000000E+00  0.11368683772E-12  0.17120000000E+03  0.17120000000E+03 0.  0.
         13    1    1    2    0    0  0.14103139258E+02  0.14849191814E+02  0.34295418199E+02  0.39944760707E+02  0.10566000000E+00 0.  1.
        994    1    1    2    0    0 -0.97734576726E+01 -0.13598855889E+02  0.66356239905E+01  0.17214505762E+03  0.17120000000E+03 0.  0.
        998    1    1    2    0    0 -0.43296815851E+01 -0.12503359254E+01  0.14590689541E+04  0.14591101817E+04  0.10000000000E+02 0.  1.
</event>
<event>
 5    1  0.1348045E-008  0.3861036E+03  0.7957747E-01  0.3425005E+00
         13   -1    0    0    0    0  0.00000000000E+00  0.00000000000E+00  0.14999999963E+04  0.15000000000E+04  0.10566000000E+00 0.  1.
        994   -1    0    0    0    0 -0.00000000000E+00 -0.00000000000E+00  0.11368683772E-12  0.17120000000E+03  0.17120000000E+03 0.  0.
         13    1    1    2    0    0  0.10117374081E+02  0.39462752268E+01  0.53862678100E+02  0.54946643233E+02  0.10566000000E+00 0.  1.
        994    1    1    2    0    0 -0.91192680662E+01 -0.62286094980E+01  0.14829401477E+01  0.17156222118E+03  0.17120000000E+03 0.  0.
        998    1    1    2    0    0 -0.99810601511E+00  0.22823342712E+01  0.14446543780E+04  0.14446911356E+04  0.10000000000E+02 0.  1.
</event>
<event>
 5    1  0.1338054E-008  0.3715184E+03  0.7957747E-01  0.3488942E+00
         13   -1    0    0    0    0  0.00000000000E+00  0.00000000000E+00  0.14999999963E+04  0.15000000000E+04  0.10566000000E+00 0. -1.
        994   -1    0    0    0    0 -0.00000000000E+00 -0.00000000000E+00  0.11368683772E-12  0.17120000000E+03  0.17120000000E+03 0.  0.
         13    1    1    2    0    0  0.49529178949E+02 -0.20112173278E+02  0.16708530500E+03  0.17542847372E+03  0.10566000000E+00 0. -1.
        994    1    1    2    0    0  0.33415861871E+02 -0.37149457388E+02  0.20571182763E+02  0.17952525051E+03  0.17120000000E+03 0.  0.
        998    1    1    2    0    0 -0.82945040820E+02  0.57261630666E+02  0.13123435085E+04  0.13162462758E+04  0.10000000000E+02 0. -1.
</event>
<event>
 5    1  0.1338054E-008  0.3831075E+03  0.7957747E-01  0.3437739E+00
         13   -1    0    0    0    0  0.00000000000E+00  0.00000000000E+00  0.14999999963E+04  0.15000000000E+04  0.10566000000E+00 0.  1.
        994   -1    0    0    0    0 -0.00000000000E+00 -0.00000000000E+00  0.11368683772E-12  0.17120000000E+03  0.17120000000E+03 0.  0.
         13    1    1    2    0    0  0.71694452995E+01  0.11239319301E+02  0.33934995978E+02  0.36459818435E+02  0.10566000000E+00 0.  1.
        994    1    1    2    0    0 -0.10885491196E+02 -0.17402467538E+01  0.29748844603E+01  0.17158033779E+03  0.17120000000E+03 0.  0.
        998    1    1    2    0    0  0.37160458960E+01 -0.94990725473E+01  0.14630901158E+04  0.14631598438E+04  0.10000000000E+02 0.  1.
</event>
<event>
 5    1  0.1338054E-008  0.3833231E+03  0.7957747E-01  0.3436815E+00
         13   -1    0    0    0    0  0.00000000000E+00  0.00000000000E+00  0.14999999963E+04  0.15000000000E+04  0.10566000000E+00 0.  1.
        994   -1    0    0    0    0 -0.00000000000E+00 -0.00000000000E+00  0.11368683772E-12  0.17120000000E+03  0.17120000000E+03 0.  0.
         13    1    1    2    0    0  0.12334222186E+02  0.15761788952E+02  0.83579833724E+02  0.85942811202E+02  0.10566000000E+00 0.  1.
        994    1    1    2    0    0 -0.20296816537E+02  0.69417024449E+01  0.39880053820E+01  0.17258473913E+03  0.17120000000E+03 0.  0.
        998    1    1    2    0    0  0.79625943517E+01 -0.22703491397E+02  0.14124321572E+04  0.14126724497E+04  0.10000000000E+02 0.  1.
</event>
<event>
 5    1  0.1338054E-008  0.3746433E+03  0.7957747E-01  0.3474820E+00
         13   -1    0    0    0    0  0.00000000000E+00  0.00000000000E+00  0.14999999963E+04  0.15000000000E+04  0.10566000000E+00 0.  1.
        994   -1    0    0    0    0 -0.00000000000E+00 -0.00000000000E+00  0.11368683772E-12  0.17120000000E+03  0.17120000000E+03 0.  0.
         13    1    1    2    0    0 -0.53348148661E+01  0.15658726021E+02  0.16891652412E+02  0.23643075847E+02  0.10566000000E+00 0.  1.
        994    1    1    2    0    0  0.21929210480E+02 -0.65004401311E+01  0.86444536548E+01  0.17293730822E+03  0.17120000000E+03 0.  0.
        998    1    1    2    0    0 -0.16594395614E+02 -0.91582858901E+01  0.14744638902E+04  0.14746196159E+04  0.10000000000E+02 0.  1.
</event>
<event>
 5    1  0.1338054E-008  0.3847412E+03  0.7957747E-01  0.3430770E+00
         13   -1    0    0    0    0  0.00000000000E+00  0.00000000000E+00  0.14999999963E+04  0.15000000000E+04  0.10566000000E+00 0. -1.
        994   -1    0    0    0    0 -0.00000000000E+00 -0.00000000000E+00  0.11368683772E-12  0.17120000000E+03  0.17120000000E+03 0.  0.
         13    1    1    2    0    0 -0.11062884534E+02  0.20879339318E+01  0.35291553566E+02  0.37043917172E+02  0.10566000000E+00 0. -1.
        994    1    1    2    0    0  0.98279953235E+01 -0.45077226851E+01  0.21435615633E+01  0.17155449254E+03  0.17120000000E+03 0.  0.
        998    1    1    2    0    0  0.12348892110E+01  0.24197887532E+01  0.14625648811E+04  0.14626015903E+04  0.10000000000E+02 0. -1.
</event>
<event>
 5    1  0.1338054E-008  0.3825815E+03  0.7957747E-01  0.3439995E+00
         13   -1    0    0    0    0  0.00000000000E+00  0.00000000000E+00  0.14999999963E+04  0.15000000000E+04  0.10566000000E+00 0.  1.
        994   -1    0    0    0    0 -0.00000000000E+00 -0.00000000000E+00  0.11368683772E-12  0.17120000000E+03  0.17120000000E+03 0.  0.
         13    1    1    2    0    0 -0.49038235273E+01 -0.93850704792E+01  0.18564939532E+02  0.21372767180E+02  0.10566000000E+00 0.  1.
        994    1    1    2    0    0  0.42933927400E+01  0.83504685987E+01  0.31279575802E+01  0.17148582351E+03  0.17120000000E+03 0.  0.
        998    1    1    2    0    0  0.61043078731E+00  0.10346018805E+01  0.14783070992E+04  0.14783414093E+04  0.10000000000E+02 0.  1.
</event>
<event>
 5    1  0.1338054E-008  0.3792910E+03  0.7957747E-01  0.3454251E+00
         13   -1    0    0    0    0  0.00000000000E+00  0.00000000000E+00  0.14999999963E+04  0.15000000000E+04  0.10566000000E+00 0. -1.
        994   -1    0    0    0    0 -0.00000000000E+00 -0.00000000000E+00  0.11368683772E-12  0.17120000000E+03  0.17120000000E+03 0.  0.
         13    1    1    2    0    0  0.21274648232E+02  0.29582257459E+02  0.15372061977E+03  0.15798025421E+03  0.10566000000E+00 0. -1.
        994    1    1    2    0    0 -0.98235911227E+01 -0.94734016800E+01  0.51157926366E+01  0.17181926439E+03  0.17120000000E+03 0.  0.
        998    1    1    2    0    0 -0.11451057109E+02 -0.20108855779E+02  0.13411635839E+04  0.13414004814E+04  0.10000000000E+02 0. -1.
</event>
<event>
 5    1  0.1338054E-008  0.3757678E+03  0.7957747E-01  0.3469796E+00
         13   -1    0    0    0    0  0.00000000000E+00  0.00000000000E+00  0.14999999963E+04  0.15000000000E+04  0.10566000000E+00 0. -1.
        994   -1    0    0    0    0 -0.00000000000E+00 -0.00000000000E+00  0.11368683772E-12  0.17120000000E+03  0.17120000000E+03 0.  0.
         13    1    1    2    0    0  0.14209091049E+02  0.40435238971E+02  0.18778334692E+03  0.19261231364E+03  0.10566000000E+00 0. -1.
        994    1    1    2    0    0  0.31042397460E+01  0.17869467988E+02  0.74010474298E+01  0.17231706153E+03  0.17120000000E+03 0.  0.
        998    1    1    2    0    0 -0.17313330795E+02 -0.58304706959E+02  0.13048156019E+04  0.13062706248E+04  0.10000000000E+02 0. -1.
</event>
<event>
 5    1  0.1338054E-008  0.3830350E+03  0.7957747E-01  0.3438049E+00
         13   -1    0    0    0    0  0.00000000000E+00  0.00000000000E+00  0.14999999963E+04  0.15000000000E+04  0.10566000000E+00 0.  1.
        994   -1    0    0    0    0 -0.00000000000E+00 -0.00000000000E+00  0.11368683772E-12  0.17120000000E+03  0.17120000000E+03 0.  0.
         13    1    1    2    0    0 -0.13711506483E+02  0.13663651259E+02  0.69031282653E+02  0.71694002012E+02  0.10566000000E+00 0.  1.
        994    1    1    2    0    0  0.11130327357E+02 -0.14276677653E+02  0.36942757424E+01  0.17219406315E+03  0.17120000000E+03 0.  0.
        998    1    1    2    0    0  0.25811791266E+01  0.61302639413E+00  0.14272744379E+04  0.14273119348E+04  0.10000000000E+02 0.  0.
</event>
<event>
 5    1  0.2397145E-008  0.3853633E+03  0.7957747E-01  0.3428133E+00
         13   -1    0    0    0    0  0.00000000000E+00  0.00000000000E+00  0.14999999963E+04  0.15000000000E+04  0.10566000000E+00 0. -1.
        994   -1    0    0    0    0 -0.00000000000E+00 -0.00000000000E+00  0.11368683772E-12  0.17120000000E+03  0.17120000000E+03 0.  0.
         13    1    1    2    0    0 -0.32528054772E+01 -0.10004941877E+02  0.39127020857E+02  0.40516842554E+02  0.10566000000E+00 0. -1.
        994    1    1    2    0    0 -0.13914661645E+01  0.31275636634E+01  0.14883600611E+01  0.17124068748E+03  0.17120000000E+03 0.  0.
        998    1    1    2    0    0  0.46442716417E+01  0.68773782136E+01  0.14593846154E+04  0.14594424700E+04  0.10000000000E+02 0. -1.
</event>
<event>
 5    1  0.1338054E-008  0.3691864E+03  0.7957747E-01  0.3499639E+00
         13   -1    0    0    0    0  0.00000000000E+00  0.00000000000E+00  0.14999999963E+04  0.15000000000E+04  0.10566000000E+00 0.  1.
        994   -1    0    0    0    0 -0.00000000000E+00 -0.00000000000E+00  0.11368683772E-12  0.17120000000E+03  0.17120000000E+03 0.  0.
         13    1    1    2    0    0 -0.20377699237E+02 -0.49048702553E+02  0.13009981649E+03  0.14052401668E+03  0.10566000000E+00 0.  1.
        994    1    1    2    0    0  0.95044817779E+01  0.54511981441E+02  0.20387909781E+02  0.18107180388E+03  0.17120000000E+03 0.  0.
        998    1    1    2    0    0  0.10873217459E+02 -0.54632788880E+01  0.13495122700E+04  0.13496041794E+04  0.10000000000E+02 0.  1.
</event>
<event>
 5    1  0.1338054E-008  0.3870415E+03  0.7957747E-01  0.3421060E+00
         13   -1    0    0    0    0  0.00000000000E+00  0.00000000000E+00  0.14999999963E+04  0.15000000000E+04  0.10566000000E+00 0.  1.
        994   -1    0    0    0    0 -0.00000000000E+00 -0.00000000000E+00  0.11368683772E-12  0.17120000000E+03  0.17120000000E+03 0.  0.
         13    1    1    2    0    0  0.16628535381E+02 -0.26625387364E+02  0.15098375658E+02  0.34833770292E+02  0.10566000000E+00 0.  1.
        994    1    1    2    0    0 -0.17084855731E+02  0.42289746936E+02  0.28028951998E+02  0.17937496241E+03  0.17120000000E+03 0.  0.
        998    1    1    2    0    0  0.45632034982E+00 -0.15664359571E+02  0.14568726686E+04  0.14569912673E+04  0.10000000000E+02 0.  1.
</event>
<event>
 5    1  0.1338054E-008  0.3786081E+03  0.7957747E-01  0.3457242E+00
         13   -1    0    0    0    0  0.00000000000E+00  0.00000000000E+00  0.14999999963E+04  0.15000000000E+04  0.10566000000E+00 0. -1.
        994   -1    0    0    0    0 -0.00000000000E+00 -0.00000000000E+00  0.11368683772E-12  0.17120000000E+03  0.17120000000E+03 0.  0.
         13    1    1    2    0    0  0.30923134243E+02 -0.45606854430E+00  0.94288056452E+02  0.99230524454E+02  0.10566000000E+00 0. -1.
        994    1    1    2    0    0 -0.25271070298E+02  0.18918967021E+01  0.69972004763E+01  0.17320683324E+03  0.17120000000E+03 0.  0.
        998    1    1    2    0    0 -0.56520639452E+01 -0.14358281578E+01  0.13987147394E+04  0.13987626423E+04  0.10000000000E+02 0. -1.
</event>
<event>
 5    1  0.1338054E-008  0.3825345E+03  0.7957747E-01  0.3440197E+00
         13   -1    0    0    0    0  0.00000000000E+00  0.00000000000E+00  0.14999999963E+04  0.15000000000E+04  0.10566000000E+00 0. -1.
        994   -1    0    0    0    0 -0.00000000000E+00 -0.00000000000E+00  0.11368683772E-12  0.17120000000E+03  0.17120000000E+03 0.  0.
         13    1    1    2    0    0 -0.11907474390E+02  0.28428760997E+01  0.25544972295E+02  0.28327136538E+02  0.10566000000E+00 0. -1.
        994    1    1    2    0    0  0.24748783272E+01 -0.60605007726E+01  0.30012907292E+01  0.17135140046E+03  0.17120000000E+03 0.  0.
        998    1    1    2    0    0  0.94325960627E+01  0.32176246729E+01  0.14714537333E+04  0.14715214630E+04  0.10000000000E+02 0. -1.
</event>
<event>
 5    1  0.1338054E-008  0.3755163E+03  0.7957747E-01  0.3470917E+00
         13   -1    0    0    0    0  0.00000000000E+00  0.00000000000E+00  0.14999999963E+04  0.15000000000E+04  0.10566000000E+00 0. -1.
        994   -1    0    0    0    0 -0.00000000000E+00 -0.00000000000E+00  0.11368683772E-12  0.17120000000E+03  0.17120000000E+03 0.  0.
         13    1    1    2    0    0 -0.75638641828E+01  0.11540390558E+02  0.12154412115E+02  0.18388408129E+02  0.10566000000E+00 0. -1.
        994    1    1    2    0    0 -0.16773074819E+02 -0.15244690582E+02  0.81590541648E+01  0.17288651421E+03  0.17120000000E+03 0.  0.
        998    1    1    2    0    0  0.24336939002E+02  0.37043000234E+01  0.14796865300E+04  0.14799250777E+04  0.10000000000E+02 0. -1.
</event>
<event>
 5    1  0.1338054E-008  0.3846868E+03  0.7957747E-01  0.3431001E+00
         13   -1    0    0    0    0  0.00000000000E+00  0.00000000000E+00  0.14999999963E+04  0.15000000000E+04  0.10566000000E+00 0. -1.
        994   -1    0    0    0    0 -0.00000000000E+00 -0.00000000000E+00  0.11368683772E-12  0.17120000000E+03  0.17120000000E+03 0.  0.
         13    1    1    2    0    0  0.15822211724E+02  0.17165590151E+02  0.13919049803E+03  0.14113470790E+03  0.10566000000E+00 0. -1.
        994    1    1    2    0    0 -0.21579029342E+02 -0.13756549730E+02  0.39445880882E+01  0.17314703850E+03  0.17120000000E+03 0.  0.
        998    1    1    2    0    0  0.57568176181E+01 -0.34090404211E+01  0.13568649102E+04  0.13569182536E+04  0.10000000000E+02 0. -1.
</event>
<event>
 5    1  0.1542729E-008  0.3854110E+03  0.7957747E-01  0.3427931E+00
         13   -1    0    0    0    0  0.00000000000E+00  0.00000000000E+00  0.14999999963E+04  0.15000000000E+04  0.10566000000E+00 0.  1.
        994   -1    0    0    0    0 -0.00000000000E+00 -0.00000000000E+00  0.11368683772E-12  0.17120000000E+03  0.17120000000E+03 0.  0.
         13    1    1    2    0    0  0.56071429559E+01  0.10562130683E+02  0.48608906616E+02  0.50058322216E+02  0.10566000000E+00 0.  1.
        994    1    1    2    0    0 -0.84967216159E+01 -0.11216684198E+02  0.20768146740E+01  0.17178987584E+03  0.17120000000E+03 0.  0.
        998    1    1    2    0    0  0.28895786600E+01  0.65455351496E+00  0.14493142750E+04  0.14493518019E+04  0.10000000000E+02 0.  1.
</event>
<event>
 5    1  0.1338054E-008  0.3825175E+03  0.7957747E-01  0.3440269E+00
         13   -1    0    0    0    0  0.00000000000E+00  0.00000000000E+00  0.14999999963E+04  0.15000000000E+04  0.10566000000E+00 0.  1.
        994   -1    0    0    0    0 -0.00000000000E+00 -0.00000000000E+00  0.11368683772E-12  0.17120000000E+03  0.17120000000E+03 0.  0.
         13    1    1    2    0    0  0.11885017968E+02  0.39120656545E+01  0.25940594161E+02  0.28800755185E+02  0.10566000000E+00 0.  1.
        994    1    1    2    0    0 -0.10525933664E+02 -0.70211990336E+01  0.33986323007E+01  0.17170056266E+03  0.17120000000E+03 0.  0.
        998    1    1    2    0    0 -0.13590843037E+01  0.31091333791E+01  0.14706607698E+04  0.14706986822E+04  0.10000000000E+02 0.  1.
</event>
<event>
 5    1  0.1338054E-008  0.3837126E+03  0.7957747E-01  0.3435150E+00
         13   -1    0    0    0    0  0.00000000000E+00  0.00000000000E+00  0.14999999963E+04  0.15000000000E+04  0.10566000000E+00 0. -1.
        994   -1    0    0    0    0 -0.00000000000E+00 -0.00000000000E+00  0.11368683772E-12  0.17120000000E+03  0.17120000000E+03 0.  0.
         13    1    1    2    0    0 -0.11672026656E+02 -0.64797250706E+01  0.39875455575E+02  0.42050994811E+02  0.10566000000E+00 0. -1.
        994    1    1    2    0    0  0.28598054878E+01 -0.16816995939E+01  0.23069930924E+01  0.17124768266E+03  0.17120000000E+03 0.  0.
        998    1    1    2    0    0  0.88122211680E+01  0.81614246645E+01  0.14578175476E+04  0.14579013225E+04  0.10000000000E+02 0. -1.
</event>
<event>
 5    1  0.1338054E-008  0.3780055E+03  0.7957747E-01  0.3459889E+00
         13   -1    0    0    0    0  0.00000000000E+00  0.00000000000E+00  0.14999999963E+04  0.15000000000E+04  0.10566000000E+00 0.  1.
        994   -1    0    0    0    0 -0.00000000000E+00 -0.00000000000E+00  0.11368683772E-12  0.17120000000E+03  0.17120000000E+03 0.  0.
         13    1    1    2    0    0  0.35682570033E+02  0.19633249050E+03  0.10055642461E+04  0.10251727448E+04  0.10566000000E+00 0.  1.
        994    1    1    2    0    0 -0.24260801878E+02 -0.19613615069E+03  0.15036960617E+03  0.30162631612E+03  0.17120000000E+03 0.  0.
        998    1    1    2    0    0 -0.11421768155E+02 -0.19633980264E+00  0.34406614405E+03  0.34440093905E+03  0.10000000000E+02 0.  1.
</event>
<event>
 5    1  0.1338054E-008  0.3722299E+03  0.7957747E-01  0.3485705E+00
         13   -1    0    0    0    0  0.00000000000E+00  0.00000000000E+00  0.14999999963E+04  0.15000000000E+04  0.10566000000E+00 0.  1.
        994   -1    0    0    0    0 -0.00000000000E+00 -0.00000000000E+00  0.11368683772E-12  0.17120000000E+03  0.17120000000E+03 0.  0.
         13    1    1    2    0    0 -0.10950890070E+02 -0.75367533502E+01  0.17062355962E+01  0.13403247678E+02  0.10566000000E+00 0.  1.
        994    1    1    2    0    0  0.10972978354E+02  0.23677037979E+01  0.12566917798E+02  0.17202726440E+03  0.17120000000E+03 0.  0.
        998    1    1    2    0    0 -0.22088284133E-01  0.51690495522E+01  0.14857268429E+04  0.14857694879E+04  0.10000000000E+02 0.  1.
</event>
<event>
 5    1  0.1338054E-008  0.3855036E+03  0.7957747E-01  0.3427539E+00
         13   -1    0    0    0    0  0.00000000000E+00  0.00000000000E+00  0.14999999963E+04  0.15000000000E+04  0.10566000000E+00 0. -1.
        994   -1    0    0    0    0 -0.00000000000E+00 -0.00000000000E+00  0.11368683772E-12  0.17120000000E+03  0.17120000000E+03 0.  0.
         13    1    1    2    0    0  0.36232954319E+01 -0.12043415595E+02  0.62121120894E+02  0.63381519027E+02  0.10566000000E+00 0. -1.
        994    1    1    2    0    0  0.40004077680E+01 -0.16921132002E+01  0.14422647135E+01  0.17126116500E+03  0.17120000000E+03 0.  0.
        998    1    1    2    0    0 -0.76237031999E+01  0.13735528796E+02  0.14364366107E+04  0.14365573160E+04  0.10000000000E+02 0. -1.
</event>
<event>
 5    1  0.1338054E-008  0.3791245E+03  0.7957747E-01  0.3454979E+00
         13   -1    0    0    0    0  0.00000000000E+00  0.00000000000E+00  0.14999999963E+04  0.15000000000E+04  0.10566000000E+00 0. -1.
        994   -1    0    0    0    0 -0.00000000000E+00 -0.00000000000E+00  0.11368683772E-12  0.17120000000E+03  0.17120000000E+03 0.  0.
         13    1    1    2    0    0 -0.40156982953E+00 -0.18808050887E+02  0.35825304662E+02  0.40464399843E+02  0.10566000000E+00 0. -1.
        994    1    1    2    0    0 -0.17504562212E+01  0.21724052638E+02  0.61698261880E+01  0.17269193761E+03  0.17120000000E+03 0.  0.
        998    1    1    2    0    0  0.21520260507E+01 -0.29160017509E+01  0.14580048654E+04  0.14580436625E+04  0.10000000000E+02 0. -1.
</event>
<event>
 5    1  0.1338054E-008  0.3852713E+03  0.7957747E-01  0.3428522E+00
         13   -1    0    0    0    0  0.00000000000E+00  0.00000000000E+00  0.14999999963E+04  0.15000000000E+04  0.10566000000E+00 0.  1.
        994   -1    0    0    0    0 -0.00000000000E+00 -0.00000000000E+00  0.11368683772E-12  0.17120000000E+03  0.17120000000E+03 0.  0.
         13    1    1    2    0    0  0.14224919776E+02  0.47731548990E+01  0.76009121543E+02  0.77475990294E+02  0.10566000000E+00 0.  1.
        994    1    1    2    0    0 -0.74379519937E+01 -0.56907185488E+01  0.17837527833E+01  0.17146524190E+03  0.17120000000E+03 0.  0.
        998    1    1    2    0    0 -0.67869677819E+01  0.91756364982E+00  0.14222071220E+04  0.14222587678E+04  0.10000000000E+02 0.  1.
</event>
<event>
 5    1  0.1338054E-008  0.3769234E+03  0.7957747E-01  0.3464665E+00
         13   -1    0    0    0    0  0.00000000000E+00  0.00000000000E+00  0.14999999963E+04  0.15000000000E+04  0.10566000000E+00 0. -1.
        994   -1    0    0    0    0 -0.00000000000E+00 -0.00000000000E+00  0.11368683772E-12  0.17120000000E+03  0.17120000000E+03 0.  0.
         13    1    1    2    0    0 -0.14445634524E+02 -0.24951488951E+02  0.75955849205E+02  0.81243801918E+02  0.10566000000E+00 0. -1.
        994    1    1    2    0    0  0.11495024001E+02 -0.56466554865E+01  0.62484495733E+01  0.17179203537E+03  0.17120000000E+03 0.  0.
        998    1    1    2    0    0  0.29506105237E+01  0.30598144437E+02  0.14177956975E+04  0.14181641627E+04  0.10000000000E+02 0. -1.
</event>
<event>
 5    1  0.1338054E-008  0.3823889E+03  0.7957747E-01  0.3440822E+00
         13   -1    0    0    0    0  0.00000000000E+00  0.00000000000E+00  0.14999999963E+04  0.15000000000E+04  0.10566000000E+00 0.  1.
        994   -1    0    0    0    0 -0.00000000000E+00 -0.00000000000E+00  0.11368683772E-12  0.17120000000E+03  0.17120000000E+03 0.  0.
         13    1    1    2    0    0 -0.26910346582E+02  0.32830305583E+01  0.11976512603E+03  0.12279512051E+03  0.10566000000E+00 0.  1.
        994    1    1    2    0    0  0.21725708248E+02 -0.55472256395E+01  0.46014233541E+01  0.17272345298E+03  0.17120000000E+03 0.  0.
        998    1    1    2    0    0  0.51846383335E+01  0.22641950812E+01  0.13756334469E+04  0.13756814265E+04  0.10000000000E+02 0.  1.
</event>
<event>
 5    1  0.1338054E-008  0.3721238E+03  0.7957747E-01  0.3486187E+00
         13   -1    0    0    0    0  0.00000000000E+00  0.00000000000E+00  0.14999999963E+04  0.15000000000E+04  0.10566000000E+00 0.  1.
        994   -1    0    0    0    0 -0.00000000000E+00 -0.00000000000E+00  0.11368683772E-12  0.17120000000E+03  0.17120000000E+03 0.  0.
         13    1    1    2    0    0  0.10512000009E+02  0.19978602549E+02  0.28471222444E+02  0.36335497457E+02  0.10566000000E+00 0.  1.
        994    1    1    2    0    0 -0.58860373144E+02  0.26350130247E+02  0.22576462133E+02  0.18433124948E+03  0.17120000000E+03 0.  0.
        998    1    1    2    0    0  0.48348373135E+02 -0.46328732796E+02  0.14489523117E+04  0.14505332531E+04  0.10000000000E+02 0.  1.
</event>
<event>
 5    1  0.1338054E-008  0.3858518E+03  0.7957747E-01  0.3426068E+00
         13   -1    0    0    0    0  0.00000000000E+00  0.00000000000E+00  0.14999999963E+04  0.15000000000E+04  0.10566000000E+00 0.  1.
        994   -1    0    0    0    0 -0.00000000000E+00 -0.00000000000E+00  0.11368683772E-12  0.17120000000E+03  0.17120000000E+03 0.  0.
         13    1    1    2    0    0  0.61761141565E+01  0.83152738554E+01  0.45688575432E+02  0.46848108333E+02  0.10566000000E+00 0.  1.
        994    1    1    2    0    0 -0.45824270959E+01 -0.13983690827E+01  0.12831085458E+01  0.17127183201E+03  0.17120000000E+03 0.  0.
        998    1    1    2    0    0 -0.15936870605E+01 -0.69169047728E+01  0.14530283123E+04  0.14530800597E+04  0.10000000000E+02 0.  1.
</event>
<event>
 5    1  0.1338054E-008  0.3844663E+03  0.7957747E-01  0.3431939E+00
         13   -1    0    0    0    0  0.00000000000E+00  0.00000000000E+00  0.14999999963E+04  0.15000000000E+04  0.10566000000E+00 0.  1.
        994   -1    0    0    0    0 -0.00000000000E+00 -0.00000000000E+00  0.11368683772E-12  0.17120000000E+03  0.17120000000E+03 0.  0.
         13    1    1    2    0    0  0.16178662189E+02 -0.92520042604E+01  0.89768222788E+02  0.91682570206E+02  0.10566000000E+00 0.  1.
        994    1    1    2    0    0 -0.81075346777E+01  0.15281433573E+02  0.28818307016E+01  0.17209590140E+03  0.17120000000E+03 0.  0.
        998    1    1    2    0    0 -0.80711275115E+01 -0.60294293122E+01  0.14073499428E+04  0.14074215284E+04  0.10000000000E+02 0.  1.
</event>
<event>
 5    1  0.1338054E-008  0.3792564E+03  0.7957747E-01  0.3454403E+00
         13   -1    0    0    0    0  0.00000000000E+00  0.00000000000E+00  0.14999999963E+04  0.15000000000E+04  0.10566000000E+00 0. -1.
        994   -1    0    0    0    0 -0.00000000000E+00 -0.00000000000E+00  0.11368683772E-12  0.17120000000E+03  0.17120000000E+03 0.  0.
         13    1    1    2    0    0 -0.79620728308E+02 -0.86452698061E+02  0.66705796393E+03  0.67733290765E+03  0.10566000000E+00 0. -1.
        994    1    1    2    0    0  0.87072587423E+02  0.95839398554E+02  0.62918056108E+02  0.22368492926E+03  0.17120000000E+03 0.  0.
        998    1    1    2    0    0 -0.74518591145E+01 -0.93867004927E+01  0.77002397624E+03  0.77018216309E+03  0.10000000000E+02 0. -1.
</event>
<event>
 5    1  0.1338054E-008  0.3832913E+03  0.7957747E-01  0.3436952E+00
         13   -1    0    0    0    0  0.00000000000E+00  0.00000000000E+00  0.14999999963E+04  0.15000000000E+04  0.10566000000E+00 0. -1.
        994   -1    0    0    0    0 -0.00000000000E+00 -0.00000000000E+00  0.11368683772E-12  0.17120000000E+03  0.17120000000E+03 0.  0.
         13    1    1    2    0    0 -0.62787994905E+01  0.12924465482E+02  0.39849801346E+02  0.42361338062E+02  0.10566000000E+00 0. -1.
        994    1    1    2    0    0  0.42837317129E+01 -0.15379793530E+02  0.33242256654E+01  0.17197493679E+03  0.17120000000E+03 0.  0.
        998    1    1    2    0    0  0.19950677776E+01  0.24553280476E+01  0.14568259693E+04  0.14568637252E+04  0.10000000000E+02 0. -1.
</event>
<event>
 5    1  0.1338054E-008  0.3734514E+03  0.7957747E-01  0.3480178E+00
         13   -1    0    0    0    0  0.00000000000E+00  0.00000000000E+00  0.14999999963E+04  0.15000000000E+04  0.10566000000E+00 0. -1.
        994   -1    0    0    0    0 -0.00000000000E+00 -0.00000000000E+00  0.11368683772E-12  0.17120000000E+03  0.17120000000E+03 0.  0.
         13    1    1    2    0    0 -0.35277727994E+02  0.28031560844E+02  0.12475373305E+03  0.13264159065E+03  0.10566000000E+00 0. -1.
        994    1    1    2    0    0  0.48717888875E+02 -0.64175487679E+01  0.15772322413E+02  0.17880946223E+03  0.17120000000E+03 0.  0.
        998    1    1    2    0    0 -0.13440160881E+02 -0.21614012076E+02  0.13594739408E+04  0.13597489471E+04  0.10000000000E+02 0. -1.
</event>
<event>
 5    1  0.1338054E-008  0.3777516E+03  0.7957747E-01  0.3461007E+00
         13   -1    0    0    0    0  0.00000000000E+00  0.00000000000E+00  0.14999999963E+04  0.15000000000E+04  0.10566000000E+00 0. -1.
        994   -1    0    0    0    0 -0.00000000000E+00 -0.00000000000E+00  0.11368683772E-12  0.17120000000E+03  0.17120000000E+03 0.  0.
         13    1    1    2    0    0 -0.18057281142E+02 -0.62534127634E+01  0.33013925180E+02  0.38145786049E+02  0.10566000000E+00 0. -1.
        994    1    1    2    0    0  0.24049466491E+02 -0.48059558978E+02  0.15061890224E+02  0.18006776109E+03  0.17120000000E+03 0.  0.
        998    1    1    2    0    0 -0.59921853498E+01  0.54312971741E+02  0.14519241809E+04  0.14529864529E+04  0.10000000000E+02 0. -1.
</event>
<event>
 5    1  0.1338054E-008  0.3841970E+03  0.7957747E-01  0.3433085E+00
         13   -1    0    0    0    0  0.00000000000E+00  0.00000000000E+00  0.14999999963E+04  0.15000000000E+04  0.10566000000E+00 0. -1.
        994   -1    0    0    0    0 -0.00000000000E+00 -0.00000000000E+00  0.11368683772E-12  0.17120000000E+03  0.17120000000E+03 0.  0.
         13    1    1    2    0    0  0.18214030138E+02 -0.12930935711E+02  0.11624198866E+03  0.11836879270E+03  0.10566000000E+00 0. -1.
        994    1    1    2    0    0 -0.21624691563E+02  0.56730912596E+01  0.36790806834E+01  0.17269275284E+03  0.17120000000E+03 0.  0.
        998    1    1    2    0    0  0.34106614251E+01  0.72578444512E+01  0.13800789269E+04  0.13801384545E+04  0.10000000000E+02 0. -1.
</event>
<event>
 5    1  0.1338054E-008  0.3789144E+03  0.7957747E-01  0.3455899E+00
         13   -1    0    0    0    0  0.00000000000E+00  0.00000000000E+00  0.14999999963E+04  0.15000000000E+04  0.10566000000E+00 0. -1.
        994   -1    0    0    0    0 -0.00000000000E+00 -0.00000000000E+00  0.11368683772E-12  0.17120000000E+03  0.17120000000E+03 0.  0.
         13    1    1    2    0    0 -0.75912522287E+01 -0.17009827336E+02  0.35551455061E+02  0.40135750365E+02  0.10566000000E+00 0. -1.
        994    1    1    2    0    0  0.13614650467E+01  0.96173498701E+01  0.49987374010E+01  0.17154816927E+03  0.17120000000E+03 0.  0.
        998    1    1    2    0    0  0.62297871820E+01  0.73924774657E+01  0.14594498038E+04  0.14595160804E+04  0.10000000000E+02 0. -1.
</event>
<event>
 5    1  0.1338054E-008  0.3841861E+03  0.7957747E-01  0.3433132E+00
         13   -1    0    0    0    0  0.00000000000E+00  0.00000000000E+00  0.14999999963E+04  0.15000000000E+04  0.10566000000E+00 0.  1.
        994   -1    0    0    0    0 -0.00000000000E+00 -0.00000000000E+00  0.11368683772E-12  0.17120000000E+03  0.17120000000E+03 0.  0.
         13    1    1    2    0    0 -0.99589866880E+01 -0.14762766686E+01  0.23862620324E+02  0.25899741725E+02  0.10566000000E+00 0.  1.
        994    1    1    2    0    0  0.11899380297E+02  0.25270484750E+01  0.25228850486E+01  0.17165018548E+03  0.17120000000E+03 0.  0.
        998    1    1    2    0    0 -0.19403936086E+01 -0.10507718063E+01  0.14736144909E+04  0.14736500728E+04  0.10000000000E+02 0.  1.
</event>
<event>
 5    1  0.1338054E-008  0.3849849E+03  0.7957747E-01  0.3429736E+00
         13   -1    0    0    0    0  0.00000000000E+00  0.00000000000E+00  0.14999999963E+04  0.15000000000E+04  0.10566000000E+00 0.  1.
        994   -1    0    0    0    0 -0.00000000000E+00 -0.00000000000E+00  0.11368683772E-12  0.17120000000E+03  0.17120000000E+03 0.  0.
         13    1    1    2    0    0  0.10649437066E+02 -0.62898963139E+01  0.46683228299E+02  0.48293977615E+02  0.10566000000E+00 0.  1.
        994    1    1    2    0    0 -0.39852340254E+01  0.91356524155E+01  0.19644258058E+01  0.17150114053E+03  0.17120000000E+03 0.  0.
        998    1    1    2    0    0 -0.66642030403E+01 -0.28457561015E+01  0.14513523422E+04  0.14514048819E+04  0.10000000000E+02 0.  1.
</event>
<event>
 5    1  0.1338054E-008  0.3782102E+03  0.7957747E-01  0.3458989E+00
         13   -1    0    0    0    0  0.00000000000E+00  0.00000000000E+00  0.14999999963E+04  0.15000000000E+04  0.10566000000E+00 0.  1.
        994   -1    0    0    0    0 -0.00000000000E+00 -0.00000000000E+00  0.11368683772E-12  0.17120000000E+03  0.17120000000E+03 0.  0.
         13    1    1    2    0    0 -0.20252810266E+02  0.33935927594E+02  0.16618429708E+03  0.17081877902E+03  0.10566000000E+00 0.  1.
        994    1    1    2    0    0  0.10388506405E+02 -0.55085336311E+01  0.55044792446E+01  0.17169159647E+03  0.17120000000E+03 0.  0.
        998    1    1    2    0    0  0.98643038603E+01 -0.28427393963E+02  0.13283112200E+04  0.13286896245E+04  0.10000000000E+02 0.  1.
</event>
<event>
 5    1  0.1338054E-008  0.3729362E+03  0.7957747E-01  0.3482505E+00
         13   -1    0    0    0    0  0.00000000000E+00  0.00000000000E+00  0.14999999963E+04  0.15000000000E+04  0.10566000000E+00 0. -1.
        994   -1    0    0    0    0 -0.00000000000E+00 -0.00000000000E+00  0.11368683772E-12  0.17120000000E+03  0.17120000000E+03 0.  0.
         13    1    1    2    0    0  0.77901998427E+02 -0.75826884701E+02  0.50992629033E+03  0.52138591325E+03  0.10566000000E+00 0. -1.
        994    1    1    2    0    0 -0.66043444859E+02  0.82916021745E+02  0.47242541454E+02  0.20682867546E+03  0.17120000000E+03 0.  0.
        998    1    1    2    0    0 -0.11858553568E+02 -0.70891370443E+01  0.94283116450E+03  0.94298541129E+03  0.10000000000E+02 0. -1.
</event>
<event>
 5    1  0.1338054E-008  0.3686110E+03  0.7957747E-01  0.3502299E+00
         13   -1    0    0    0    0  0.00000000000E+00  0.00000000000E+00  0.14999999963E+04  0.15000000000E+04  0.10566000000E+00 0.  1.
        994   -1    0    0    0    0 -0.00000000000E+00 -0.00000000000E+00  0.11368683772E-12  0.17120000000E+03  0.17120000000E+03 0.  0.
         13    1    1    2    0    0 -0.70733447721E+02 -0.58872223321E+02  0.28275319260E+03  0.29735254900E+03  0.10566000000E+00 0.  1.
        994    1    1    2    0    0  0.59660224869E+02  0.11846111158E+03  0.73867488123E+02  0.22881919323E+03  0.17120000000E+03 0.  0.
        998    1    1    2    0    0  0.11073222851E+02 -0.59588888254E+02  0.11433793156E+04  0.11450282578E+04  0.10000000000E+02 0.  1.
</event>
<event>
 5    1  0.1338054E-008  0.3809137E+03  0.7957747E-01  0.3447190E+00
         13   -1    0    0    0    0  0.00000000000E+00  0.00000000000E+00  0.14999999963E+04  0.15000000000E+04  0.10566000000E+00 0. -1.
        994   -1    0    0    0    0 -0.00000000000E+00 -0.00000000000E+00  0.11368683772E-12  0.17120000000E+03  0.17120000000E+03 0.  0.
         13    1    1    2    0    0 -0.26580215733E+02  0.74055868954E+01  0.10766769668E+03  0.11114717566E+03  0.10566000000E+00 0. -1.
        994    1    1    2    0    0  0.98821708103E+01  0.56864223612E+01  0.41059906982E+01  0.17162835389E+03  0.17120000000E+03 0.  0.
        998    1    1    2    0    0  0.16698044923E+02 -0.13092009257E+02  0.13882263089E+04  0.13884244705E+04  0.10000000000E+02 0.  1.
</event>
<event>
 5    1  0.1338054E-008  0.3793887E+03  0.7957747E-01  0.3453824E+00
         13   -1    0    0    0    0  0.00000000000E+00  0.00000000000E+00  0.14999999963E+04  0.15000000000E+04  0.10566000000E+00 0. -1.
        994   -1    0    0    0    0 -0.00000000000E+00 -0.00000000000E+00  0.11368683772E-12  0.17120000000E+03  0.17120000000E+03 0.  0.
         13    1    1    2    0    0 -0.12794062231E+02 -0.10562487113E+02  0.28377711524E+02  0.32871870006E+02  0.10566000000E+00 0. -1.
        994    1    1    2    0    0  0.17473072858E+02  0.11682934604E+02  0.59233159664E+01  0.17258715163E+03  0.17120000000E+03 0.  0.
        998    1    1    2    0    0 -0.46790106271E+01 -0.11204474918E+01  0.14656989688E+04  0.14657409784E+04  0.10000000000E+02 0. -1.
</event>
<event>
 5    1  0.1338054E-008  0.4007409E+03  0.7957747E-01  0.3365539E+00
         13   -1    0    0    0    0  0.00000000000E+00  0.00000000000E+00  0.14999999963E+04  0.15000000000E+04  0.10566000000E+00 0. -1.
        994   -1    0    0    0    0 -0.00000000000E+00 -0.00000000000E+00  0.11368683772E-12  0.17120000000E+03  0.17120000000E+03 0.  0.
         13    1    1    2    0    0  0.22360502306E+02 -0.94811218979E+02  0.18542255362E+03  0.20945332144E+03  0.10566000000E+00 0. -1.
        994    1    1    2    0    0  0.15893102412E+01  0.25305721258E+02  0.30750985692E+02  0.17577817998E+03  0.17120000000E+03 0.  0.
        998    1    1    2    0    0 -0.23949812547E+02  0.69505497721E+02  0.12838264570E+04  0.12859684986E+04  0.10000000000E+02 0. -1.
</event>
<event>
 5    1  0.1338054E-008  0.3843421E+03  0.7957747E-01  0.3432467E+00
         13   -1    0    0    0    0  0.00000000000E+00  0.00000000000E+00  0.14999999963E+04  0.15000000000E+04  0.10566000000E+00 0. -1.
        994   -1    0    0    0    0 -0.00000000000E+00 -0.00000000000E+00  0.11368683772E-12  0.17120000000E+03  0.17120000000E+03 0.  0.
         13    1    1    2    0    0  0.11723211163E+02 -0.12100313556E+02  0.74171056231E+02  0.76060554919E+02  0.10566000000E+00 0. -1.
        994    1    1    2    0    0 -0.57145907161E+01  0.37564409190E+01  0.21112820580E+01  0.17134954014E+03  0.17120000000E+03 0.  0.
        998    1    1    2    0    0 -0.60086204473E+01  0.83438726373E+01  0.14237176580E+04  0.14237899049E+04  0.10000000000E+02 0. -1.
</event>
<event>
 5    1  0.1338054E-008  0.3748480E+03  0.7957747E-01  0.3473903E+00
         13   -1    0    0    0    0  0.00000000000E+00  0.00000000000E+00  0.14999999963E+04  0.15000000000E+04  0.10566000000E+00 0. -1.
        994   -1    0    0    0    0 -0.00000000000E+00 -0.00000000000E+00  0.11368683772E-12  0.17120000000E+03  0.17120000000E+03 0.  0.
         13    1    1    2    0    0  0.33207822660E+02  0.12345386834E+00  0.74305917276E+02  0.81388913452E+02  0.10566000000E+00 0. -1.
        994    1    1    2    0    0 -0.37929078620E+02  0.12277896195E+01  0.11670325807E+02  0.17574344647E+03  0.17120000000E+03 0.  0.
        998    1    1    2    0    0  0.47212559602E+01 -0.13512434878E+01  0.14140237532E+04  0.14140676401E+04  0.10000000000E+02 0. -1.
</event>
<event>
 5    1  0.1338054E-008  0.3751475E+03  0.7957747E-01  0.3472563E+00
         13   -1    0    0    0    0  0.00000000000E+00  0.00000000000E+00  0.14999999963E+04  0.15000000000E+04  0.10566000000E+00 0.  1.
        994   -1    0    0    0    0 -0.00000000000E+00 -0.00000000000E+00  0.11368683772E-12  0.17120000000E+03  0.17120000000E+03 0.  0.
         13    1    1    2    0    0 -0.14794756151E+02  0.19442117323E+02  0.39425146385E+02  0.46381397856E+02  0.10566000000E+00 0.  1.
        994    1    1    2    0    0  0.43844098827E+02 -0.19595941928E+02  0.14479306716E+02  0.17839673838E+03  0.17120000000E+03 0.  0.
        998    1    1    2    0    0 -0.29049342675E+02  0.15382460468E+00  0.14460955432E+04  0.14464218638E+04  0.10000000000E+02 0.  1.
</event>
<event>
 5    1  0.1338054E-008  0.3797063E+03  0.7957747E-01  0.3452438E+00
         13   -1    0    0    0    0  0.00000000000E+00  0.00000000000E+00  0.14999999963E+04  0.15000000000E+04  0.10566000000E+00 0.  1.
        994   -1    0    0    0    0 -0.00000000000E+00 -0.00000000000E+00  0.11368683772E-12  0.17120000000E+03  0.17120000000E+03 0.  0.
         13    1    1    2    0    0 -0.20992989190E+02  0.18280076706E+02  0.86509077862E+02  0.90877381763E+02  0.10566000000E+00 0.  1.
        994    1    1    2    0    0  0.16968373436E+02 -0.15748164575E+02  0.60768285323E+01  0.17286497109E+03  0.17120000000E+03 0.  0.
        998    1    1    2    0    0  0.40246157537E+01 -0.25319121310E+01  0.14074140899E+04  0.14074576471E+04  0.10000000000E+02 0.  1.
</event>
<event>
 5    1  0.1338054E-008  0.3834945E+03  0.7957747E-01  0.3436082E+00
         13   -1    0    0    0    0  0.00000000000E+00  0.00000000000E+00  0.14999999963E+04  0.15000000000E+04  0.10566000000E+00 0. -1.
        994   -1    0    0    0    0 -0.00000000000E+00 -0.00000000000E+00  0.11368683772E-12  0.17120000000E+03  0.17120000000E+03 0.  0.
         13    1    1    2    0    0 -0.14521677741E+02 -0.45009062734E+01  0.48388179365E+02  0.50720452955E+02  0.10566000000E+00 0. -1.
        994    1    1    2    0    0  0.82496121308E+01  0.44745190876E+00  0.26050455364E+01  0.17141902629E+03  0.17120000000E+03 0.  0.
        998    1    1    2    0    0  0.62720656107E+01  0.40534543646E+01  0.14490067714E+04  0.14490605208E+04  0.10000000000E+02 0. -1.
</event>
<event>
 5    1  0.1338054E-008  0.3817067E+03  0.7957747E-01  0.3443761E+00
         13   -1    0    0    0    0  0.00000000000E+00  0.00000000000E+00  0.14999999963E+04  0.15000000000E+04  0.10566000000E+00 0. -1.
        994   -1    0    0    0    0 -0.00000000000E+00 -0.00000000000E+00  0.11368683772E-12  0.17120000000E+03  0.17120000000E+03 0.  0.
         13    1    1    2    0    0 -0.85159725132E+01 -0.70515652470E+01  0.17269120501E+02  0.20505610140E+02  0.10566000000E+00 0. -1.
        994    1    1    2    0    0  0.49469312611E+01  0.84078466103E+01  0.35905096570E+01  0.17151529312E+03  0.17120000000E+03 0.  0.
        998    1    1    2    0    0  0.35690412521E+01 -0.13562813634E+01  0.14791403661E+04  0.14791790967E+04  0.10000000000E+02 0. -1.
</event>
<event>
 5    1  0.1338054E-008  0.3829514E+03  0.7957747E-01  0.3438407E+00
         13   -1    0    0    0    0  0.00000000000E+00  0.00000000000E+00  0.14999999963E+04  0.15000000000E+04  0.10566000000E+00 0. -1.
        994   -1    0    0    0    0 -0.00000000000E+00 -0.00000000000E+00  0.11368683772E-12  0.17120000000E+03  0.17120000000E+03 0.  0.
         13    1    1    2    0    0 -0.10981744431E+02 -0.18590795595E+01  0.22489335408E+02  0.25096538778E+02  0.10566000000E+00 0. -1.
        994    1    1    2    0    0  0.52042366945E+01  0.11322928692E+02  0.31649231817E+01  0.17168211768E+03  0.17120000000E+03 0.  0.
        998    1    1    2    0    0  0.57775077362E+01 -0.94638491329E+01  0.14743457377E+04  0.14744213435E+04  0.10000000000E+02 0. -1.
</event>
<event>
 5    1  0.1751546E-008  0.3850882E+03  0.7957747E-01  0.3429298E+00
         13   -1    0    0    0    0  0.00000000000E+00  0.00000000000E+00  0.14999999963E+04  0.15000000000E+04  0.10566000000E+00 0. -1.
        994   -1    0    0    0    0 -0.00000000000E+00 -0.00000000000E+00  0.11368683772E-12  0.17120000000E+03  0.17120000000E+03 0.  0.
         13    1    1    2    0    0  0.69210418529E+01 -0.94398587789E+01  0.42069250324E+02  0.43667433414E+02  0.10566000000E+00 0. -1.
        994    1    1    2    0    0 -0.83145973607E+01  0.95803967016E+01  0.21155558993E+01  0.17168235817E+03  0.17120000000E+03 0.  0.
        998    1    1    2    0    0  0.13935555078E+01 -0.14053792275E+00  0.14558151901E+04  0.14558502084E+04  0.10000000000E+02 0. -1.
</event>
<event>
 5    1  0.1708711E-008  0.3855907E+03  0.7957747E-01  0.3427171E+00
         13   -1    0    0    0    0  0.00000000000E+00  0.00000000000E+00  0.14999999963E+04  0.15000000000E+04  0.10566000000E+00 0.  1.
        994   -1    0    0    0    0 -0.00000000000E+00 -0.00000000000E+00  0.11368683772E-12  0.17120000000E+03  0.17120000000E+03 0.  0.
         13    1    1    2    0    0  0.10528934675E+01 -0.10951692729E+02  0.48703952756E+02  0.49931296161E+02  0.10566000000E+00 0.  1.
        994    1    1    2    0    0  0.74875049505E+00 -0.36656165010E+01  0.13830826675E+01  0.17124646066E+03  0.17120000000E+03 0.  0.
        998    1    1    2    0    0 -0.18016439626E+01  0.14617309230E+02  0.14499129609E+04  0.14500222432E+04  0.10000000000E+02 0.  1.
</event>
<event>
 5    1  0.1338054E-008  0.3725809E+03  0.7957747E-01  0.3484113E+00
         13   -1    0    0    0    0  0.00000000000E+00  0.00000000000E+00  0.14999999963E+04  0.15000000000E+04  0.10566000000E+00 0. -1.
        994   -1    0    0    0    0 -0.00000000000E+00 -0.00000000000E+00  0.11368683772E-12  0.17120000000E+03  0.17120000000E+03 0.  0.
         13    1    1    2    0    0  0.69501997694E+02  0.63540707018E+01  0.33776951126E+03  0.34490456042E+03  0.10566000000E+00 0. -1.
        994    1    1    2    0    0 -0.25689617104E+02 -0.11935593030E+02  0.10681199115E+02  0.17385609803E+03  0.17120000000E+03 0.  0.
        998    1    1    2    0    0 -0.43812380589E+02  0.55815223280E+01  0.11515492859E+04  0.11524393415E+04  0.10000000000E+02 0. -1.
</event>
<event>
 5    1  0.1338054E-008  0.3847434E+03  0.7957747E-01  0.3430761E+00
         13   -1    0    0    0    0  0.00000000000E+00  0.00000000000E+00  0.14999999963E+04  0.15000000000E+04  0.10566000000E+00 0. -1.
        994   -1    0    0    0    0 -0.00000000000E+00 -0.00000000000E+00  0.11368683772E-12  0.17120000000E+03  0.17120000000E+03 0.  0.
         13    1    1    2    0    0  0.73270955362E+00 -0.10887624403E+02  0.35053046342E+02  0.36712456338E+02  0.10566000000E+00 0. -1.
        994    1    1    2    0    0 -0.39572568970E+01 -0.21724581196E+01  0.18246471275E+01  0.17126922897E+03  0.17120000000E+03 0.  0.
        998    1    1    2    0    0  0.32245473434E+01  0.13060082522E+02  0.14631223028E+04  0.14632183147E+04  0.10000000000E+02 0. -1.
</event>
<event>
 5    1  0.1338054E-008  0.3793702E+03  0.7957747E-01  0.3453905E+00
         13   -1    0    0    0    0  0.00000000000E+00  0.00000000000E+00  0.14999999963E+04  0.15000000000E+04  0.10566000000E+00 0.  1.
        994   -1    0    0    0    0 -0.00000000000E+00 -0.00000000000E+00  0.11368683772E-12  0.17120000000E+03  0.17120000000E+03 0.  0.
         13    1    1    2    0    0  0.34053548517E+02 -0.55285243617E+01  0.12702611753E+03  0.13162771155E+03  0.10566000000E+00 0.  1.
        994    1    1    2    0    0 -0.27386275033E+02  0.36060625353E+01  0.70116142523E+01  0.17355579645E+03  0.17120000000E+03 0.  0.
        998    1    1    2    0    0 -0.66672734843E+01  0.19224618265E+01  0.13659622645E+04  0.13660164920E+04  0.10000000000E+02 0.  1.
</event>
<event>
 5    1  0.1338054E-008  0.3812778E+03  0.7957747E-01  0.3445614E+00
         13   -1    0    0    0    0  0.00000000000E+00  0.00000000000E+00  0.14999999963E+04  0.15000000000E+04  0.10566000000E+00 0.  1.
        994   -1    0    0    0    0 -0.00000000000E+00 -0.00000000000E+00  0.11368683772E-12  0.17120000000E+03  0.17120000000E+03 0.  0.
         13    1    1    2    0    0 -0.20257858426E+02  0.86740684885E+01  0.65462181265E+02  0.69071909139E+02  0.10566000000E+00 0.  1.
        994    1    1    2    0    0  0.21961069830E+02 -0.89109422614E+01  0.53615605358E+01  0.17291581712E+03  0.17120000000E+03 0.  0.
        998    1    1    2    0    0 -0.17032114038E+01  0.23687377292E+00  0.14291762545E+04  0.14292122737E+04  0.10000000000E+02 0.  1.
</event>
<event>
 5    1  0.1338054E-008  0.3721146E+03  0.7957747E-01  0.3486229E+00
         13   -1    0    0    0    0  0.00000000000E+00  0.00000000000E+00  0.14999999963E+04  0.15000000000E+04  0.10566000000E+00 0.  1.
        994   -1    0    0    0    0 -0.00000000000E+00 -0.00000000000E+00  0.11368683772E-12  0.17120000000E+03  0.17120000000E+03 0.  0.
         13    1    1    2    0    0 -0.92575010598E+02 -0.47938340416E+02  0.39529403875E+03  0.40880998680E+03  0.10566000000E+00 0.  1.
        994    1    1    2    0    0  0.10932535844E+03  0.63481259659E+02  0.65194826005E+02  0.22257967037E+03  0.17120000000E+03 0.  0.
        998    1    1    2    0    0 -0.16750347844E+02 -0.15542919244E+02  0.10395111315E+04  0.10398103428E+04  0.10000000000E+02 0.  1.
</event>
<event>
 5    1  0.1338054E-008  0.3847128E+03  0.7957747E-01  0.3430891E+00
         13   -1    0    0    0    0  0.00000000000E+00  0.00000000000E+00  0.14999999963E+04  0.15000000000E+04  0.10566000000E+00 0. -1.
        994   -1    0    0    0    0 -0.00000000000E+00 -0.00000000000E+00  0.11368683772E-12  0.17120000000E+03  0.17120000000E+03 0.  0.
         13    1    1    2    0    0 -0.16359576977E+02  0.12899980593E+01  0.78414745742E+02  0.80113565441E+02  0.10566000000E+00 0. -1.
        994    1    1    2    0    0  0.56152668648E+01 -0.11209358754E+01  0.18807554335E+01  0.17130605640E+03  0.17120000000E+03 0.  0.
        998    1    1    2    0    0  0.10744310112E+02 -0.16906218389E+00  0.14197044951E+04  0.14197803782E+04  0.10000000000E+02 0. -1.
</event>
<event>
 5    1  0.1338054E-008  0.3754284E+03  0.7957747E-01  0.3471309E+00
         13   -1    0    0    0    0  0.00000000000E+00  0.00000000000E+00  0.14999999963E+04  0.15000000000E+04  0.10566000000E+00 0.  1.
        994   -1    0    0    0    0 -0.00000000000E+00 -0.00000000000E+00  0.11368683772E-12  0.17120000000E+03  0.17120000000E+03 0.  0.
         13    1    1    2    0    0  0.58822534367E+02  0.37352244327E+02  0.27416257968E+03  0.28287879377E+03  0.10566000000E+00 0.  1.
        994    1    1    2    0    0 -0.74211261571E+02 -0.40419154429E+02  0.31097102470E+02  0.19343600795E+03  0.17120000000E+03 0.  0.
        998    1    1    2    0    0  0.15388727203E+02  0.30669101014E+01  0.11947403141E+04  0.11948851983E+04  0.10000000000E+02 0.  1.
</event>
<event>
 5    1  0.1338054E-008  0.3761564E+03  0.7957747E-01  0.3468067E+00
         13   -1    0    0    0    0  0.00000000000E+00  0.00000000000E+00  0.14999999963E+04  0.15000000000E+04  0.10566000000E+00 0.  1.
        994   -1    0    0    0    0 -0.00000000000E+00 -0.00000000000E+00  0.11368683772E-12  0.17120000000E+03  0.17120000000E+03 0.  0.
         13    1    1    2    0    0 -0.17373141181E+03  0.78197416700E+02  0.10548711206E+04  0.10719377462E+04  0.10566000000E+00 0.  1.
        994    1    1    2    0    0  0.16683529816E+03 -0.60286395345E+02  0.12138328026E+03  0.27479411730E+03  0.17120000000E+03 0.  0.
        998    1    1    2    0    0  0.68961136522E+01 -0.17911021355E+02  0.32374559539E+03  0.32446813650E+03  0.10000000000E+02 0.  1.
</event>
<event>
 5    1  0.1338054E-008  0.3820632E+03  0.7957747E-01  0.3442224E+00
         13   -1    0    0    0    0  0.00000000000E+00  0.00000000000E+00  0.14999999963E+04  0.15000000000E+04  0.10566000000E+00 0.  1.
        994   -1    0    0    0    0 -0.00000000000E+00 -0.00000000000E+00  0.11368683772E-12  0.17120000000E+03  0.17120000000E+03 0.  0.
         13    1    1    2    0    0  0.11068647910E+02 -0.45064727956E+02  0.53235616525E+02  0.70621432321E+02  0.10566000000E+00 0.  1.
        994    1    1    2    0    0 -0.12918972399E+02  0.45616058539E+02  0.25717599784E+02  0.17949529126E+03  0.17120000000E+03 0.  0.
        998    1    1    2    0    0  0.18503244890E+01 -0.55133058319E+00  0.14210467800E+04  0.14210832764E+04  0.10000000000E+02 0.  1.
</event>
<event>
 5    1  0.1338054E-008  0.3847124E+03  0.7957747E-01  0.3430893E+00
         13   -1    0    0    0    0  0.00000000000E+00  0.00000000000E+00  0.14999999963E+04  0.15000000000E+04  0.10566000000E+00 0.  1.
        994   -1    0    0    0    0 -0.00000000000E+00 -0.00000000000E+00  0.11368683772E-12  0.17120000000E+03  0.17120000000E+03 0.  0.
         13    1    1    2    0    0  0.58324050070E+01  0.18911737134E+02  0.11832514550E+03  0.11996883750E+03  0.10566000000E+00 0.  1.
        994    1    1    2    0    0  0.58075847516E+00 -0.44490451117E+01  0.18392781359E+01  0.17126866096E+03  0.17120000000E+03 0.  0.
        998    1    1    2    0    0 -0.64131634821E+01 -0.14462692022E+02  0.13798355726E+04  0.13799625015E+04  0.10000000000E+02 0.  1.
</event>
<event>
 5    1  0.1338054E-008  0.3854235E+03  0.7957747E-01  0.3427878E+00
         13   -1    0    0    0    0  0.00000000000E+00  0.00000000000E+00  0.14999999963E+04  0.15000000000E+04  0.10566000000E+00 0. -1.
        994   -1    0    0    0    0 -0.00000000000E+00 -0.00000000000E+00  0.11368683772E-12  0.17120000000E+03  0.17120000000E+03 0.  0.
         13    1    1    2    0    0 -0.83122038762E+01 -0.74394886817E+01  0.43500998857E+02  0.44908649398E+02  0.10566000000E+00 0. -1.
        994    1    1    2    0    0  0.37204193634E+01  0.98146601129E+01  0.17819125176E+01  0.17153070945E+03  0.17120000000E+03 0.  0.
        998    1    1    2    0    0  0.45917845127E+01 -0.23751714313E+01  0.14547170849E+04  0.14547606411E+04  0.10000000000E+02 0. -1.
</event>
<event>
 5    1  0.1338054E-008  0.3769926E+03  0.7957747E-01  0.3464359E+00
         13   -1    0    0    0    0  0.00000000000E+00  0.00000000000E+00  0.14999999963E+04  0.15000000000E+04  0.10566000000E+00 0.  1.
        994   -1    0    0    0    0 -0.00000000000E+00 -0.00000000000E+00  0.11368683772E-12  0.17120000000E+03  0.17120000000E+03 0.  0.
         13    1    1    2    0    0  0.13154111560E+02  0.14851757732E+02  0.31727544122E+02  0.37419962302E+02  0.10566000000E+00 0.  1.
        994    1    1    2    0    0 -0.14128098531E+02 -0.16400811966E+02  0.72428320871E+01  0.17271504977E+03  0.17120000000E+03 0.  0.
        998    1    1    2    0    0  0.97398697132E+00  0.15490542334E+01  0.14610296201E+04  0.14610649879E+04  0.10000000000E+02 0.  1.
</event>
<event>
 5    1  0.1338054E-008  0.3908613E+03  0.7957747E-01  0.3405188E+00
         13   -1    0    0    0    0  0.00000000000E+00  0.00000000000E+00  0.14999999963E+04  0.15000000000E+04  0.10566000000E+00 0.  1.
        994   -1    0    0    0    0 -0.00000000000E+00 -0.00000000000E+00  0.11368683772E-12  0.17120000000E+03  0.17120000000E+03 0.  0.
         13    1    1    2    0    0  0.93630812076E+02 -0.11311218531E+03  0.34895749214E+03  0.37859270716E+03  0.10566000000E+00 0.  1.
        994    1    1    2    0    0 -0.10215576294E+03  0.10431465491E+03  0.10824049285E+03  0.24968538488E+03  0.17120000000E+03 0.  0.
        998    1    1    2    0    0  0.85249508672E+01  0.87975303921E+01  0.10428020113E+04  0.10429219080E+04  0.10000000000E+02 0.  0.
</event>
<event>
 5    1  0.1338054E-008  0.2806029E+03  0.7957747E-01  0.4045031E+00
         13   -1    0    0    0    0  0.00000000000E+00  0.00000000000E+00  0.14999999963E+04  0.15000000000E+04  0.10566000000E+00 0.  1.
        994   -1    0    0    0    0 -0.00000000000E+00 -0.00000000000E+00  0.11368683772E-12  0.17120000000E+03  0.17120000000E+03 0.  0.
         13    1    1    2    0    0 -0.18215308593E+03 -0.25804774637E+02  0.69945615470E+03  0.72324584798E+03  0.10566000000E+00 0.  1.
        994    1    1    2    0    0  0.57149570833E+02  0.47338254855E+02  0.59181229687E+02  0.19575199045E+03  0.17120000000E+03 0.  0.
        998    1    1    2    0    0  0.12500351510E+03 -0.21533480219E+02  0.74136261189E+03  0.75220216157E+03  0.10000000000E+02 0.  1.
</event>
<event>
 5    1  0.1338054E-008  0.3829262E+03  0.7957747E-01  0.3438515E+00
         13   -1    0    0    0    0  0.00000000000E+00  0.00000000000E+00  0.14999999963E+04  0.15000000000E+04  0.10566000000E+00 0.  1.
        994   -1    0    0    0    0 -0.00000000000E+00 -0.00000000000E+00  0.11368683772E-12  0.17120000000E+03  0.17120000000E+03 0.  0.
         13    1    1    2    0    0 -0.34356724842E+02 -0.45766351282E+01  0.16369566924E+03  0.16732487389E+03  0.10566000000E+00 0.  1.
        994    1    1    2    0    0  0.62032308765E+02  0.18660077837E+01  0.15521470920E+02  0.18276171748E+03  0.17120000000E+03 0.  0.
        998    1    1    2    0    0 -0.27675583923E+02  0.27106273445E+01  0.13207828561E+04  0.13211134086E+04  0.10000000000E+02 0.  1.
</event>
<event>
 5    1  0.1338054E-008  0.3841118E+03  0.7957747E-01  0.3433448E+00
         13   -1    0    0    0    0  0.00000000000E+00  0.00000000000E+00  0.14999999963E+04  0.15000000000E+04  0.10566000000E+00 0.  1.
        994   -1    0    0    0    0 -0.00000000000E+00 -0.00000000000E+00  0.11368683772E-12  0.17120000000E+03  0.17120000000E+03 0.  0.
         13    1    1    2    0    0 -0.65412914692E+02  0.11412633079E+03  0.36161055867E+03  0.38479329008E+03  0.10566000000E+00 0.  1.
        994    1    1    2    0    0  0.40587493891E+02 -0.11588230732E+03  0.76438011824E+02  0.22411662915E+03  0.17120000000E+03 0.  0.
        998    1    1    2    0    0  0.24825420801E+02  0.17559765302E+01  0.10619514258E+04  0.10622900808E+04  0.10000000000E+02 0.  1.
</event>
<event>
 5    1  0.1338054E-008  0.3741229E+03  0.7957747E-01  0.3477155E+00
         13   -1    0    0    0    0  0.00000000000E+00  0.00000000000E+00  0.14999999963E+04  0.15000000000E+04  0.10566000000E+00 0.  1.
        994   -1    0    0    0    0 -0.00000000000E+00 -0.00000000000E+00  0.11368683772E-12  0.17120000000E+03  0.17120000000E+03 0.  0.
         13    1    1    2    0    0 -0.39126918419E+02  0.16615799461E+02  0.11620954467E+03  0.12374033285E+03  0.10566000000E+00 0.  1.
        994    1    1    2    0    0  0.42821295114E+02 -0.40154349804E+01  0.13462571694E+02  0.17703239215E+03  0.17120000000E+03 0.  0.
        998    1    1    2    0    0 -0.36943766946E+01 -0.12600364481E+02  0.13703278799E+04  0.13704272750E+04  0.10000000000E+02 0.  1.
</event>
<event>
 5    1  0.1338054E-008  0.3844845E+03  0.7957747E-01  0.3431861E+00
         13   -1    0    0    0    0  0.00000000000E+00  0.00000000000E+00  0.14999999963E+04  0.15000000000E+04  0.10566000000E+00 0. -1.
        994   -1    0    0    0    0 -0.00000000000E+00 -0.00000000000E+00  0.11368683772E-12  0.17120000000E+03  0.17120000000E+03 0.  0.
         13    1    1    2    0    0  0.36148334439E+01  0.11448391578E+02  0.36973780243E+02  0.38874210990E+02  0.10566000000E+00 0. -1.
        994    1    1    2    0    0 -0.91718771745E+01 -0.11021524758E+02  0.25638364309E+01  0.17181853973E+03  0.17120000000E+03 0.  0.
        998    1    1    2    0    0  0.55570437306E+01 -0.42686682025E+00  0.14604623796E+04  0.14605072493E+04  0.10000000000E+02 0. -1.
</event>
<event>
 5    1  0.1338054E-008  0.3752706E+03  0.7957747E-01  0.3472013E+00
         13   -1    0    0    0    0  0.00000000000E+00  0.00000000000E+00  0.14999999963E+04  0.15000000000E+04  0.10566000000E+00 0. -1.
        994   -1    0    0    0    0 -0.00000000000E+00 -0.00000000000E+00  0.11368683772E-12  0.17120000000E+03  0.17120000000E+03 0.  0.
         13    1    1    2    0    0 -0.50345846754E+02  0.46520834328E+02  0.16420112643E+03  0.17793513817E+03  0.10566000000E+00 0. -1.
        994    1    1    2    0    0  0.35267555733E+02 -0.29257208612E+02  0.21270166249E+02  0.17849830452E+03  0.17120000000E+03 0.  0.
        998    1    1    2    0    0  0.15078291021E+02 -0.17263625716E+02  0.13145287036E+04  0.13147665573E+04  0.10000000000E+02 0. -1.
</event>
<event>
 5    1  0.1338054E-008  0.3807433E+03  0.7957747E-01  0.3447929E+00
         13   -1    0    0    0    0  0.00000000000E+00  0.00000000000E+00  0.14999999963E+04  0.15000000000E+04  0.10566000000E+00 0.  1.
        994   -1    0    0    0    0 -0.00000000000E+00 -0.00000000000E+00  0.11368683772E-12  0.17120000000E+03  0.17120000000E+03 0.  0.
         13    1    1    2    0    0 -0.26480625658E+01  0.28142943334E+02  0.96124482414E+02  0.10019463448E+03  0.10566000000E+00 0.  1.
        994    1    1    2    0    0 -0.11605609937E+02 -0.35658171603E+02  0.84619395057E+01  0.17546293000E+03  0.17120000000E+03 0.  0.
        998    1    1    2    0    0  0.14253672503E+02  0.75152282697E+01  0.13954135744E+04  0.13955424355E+04  0.10000000000E+02 0.  1.
</event>
<event>
 5    1  0.1338054E-008  0.3810245E+03  0.7957747E-01  0.3446710E+00
         13   -1    0    0    0    0  0.00000000000E+00  0.00000000000E+00  0.14999999963E+04  0.15000000000E+04  0.10566000000E+00 0. -1.
        994   -1    0    0    0    0 -0.00000000000E+00 -0.00000000000E+00  0.11368683772E-12  0.17120000000E+03  0.17120000000E+03 0.  0.
         13    1    1    2    0    0  0.29544507834E+02 -0.21568991555E+02  0.19809726895E+03  0.20144636623E+03  0.10566000000E+00 0. -1.
        994    1    1    2    0    0 -0.73891627519E+02 -0.57749653252E+02  0.33496188205E+02  0.19805663254E+03  0.17120000000E+03 0.  0.
        998    1    1    2    0    0  0.44347119685E+02  0.79318644807E+02  0.12684065391E+04  0.12716970012E+04  0.10000000000E+02 0. -1.
</event>
<event>
 5    1  0.1338054E-008  0.3832940E+03  0.7957747E-01  0.3436940E+00
         13   -1    0    0    0    0  0.00000000000E+00  0.00000000000E+00  0.14999999963E+04  0.15000000000E+04  0.10566000000E+00 0.  1.
        994   -1    0    0    0    0 -0.00000000000E+00 -0.00000000000E+00  0.11368683772E-12  0.17120000000E+03  0.17120000000E+03 0.  0.
         13    1    1    2    0    0  0.19003296832E+02 -0.87604523139E+01  0.95596075219E+02  0.97859550258E+02  0.10566000000E+00 0.  1.
        994    1    1    2    0    0 -0.82744634011E+00 -0.27721234613E+01  0.25071816911E+01  0.17124279633E+03  0.17120000000E+03 0.  0.
        998    1    1    2    0    0 -0.18175850491E+02  0.11532575775E+02  0.14018967394E+04  0.14020976534E+04  0.10000000000E+02 0.  1.
</event>
<event>
 5    1  0.1338054E-008  0.3765014E+03  0.7957747E-01  0.3466535E+00
         13   -1    0    0    0    0  0.00000000000E+00  0.00000000000E+00  0.14999999963E+04  0.15000000000E+04  0.10566000000E+00 0. -1.
        994   -1    0    0    0    0 -0.00000000000E+00 -0.00000000000E+00  0.11368683772E-12  0.17120000000E+03  0.17120000000E+03 0.  0.
         13    1    1    2    0    0  0.12204590912E+02  0.86549296294E+01  0.16393080418E+02  0.22194686207E+02  0.10566000000E+00 0. -1.
        994    1    1    2    0    0 -0.60550753788E+01 -0.89575031028E+01  0.63051913299E+01  0.17165691433E+03  0.17120000000E+03 0.  0.
        998    1    1    2    0    0 -0.61495155333E+01  0.30257347340E+00  0.14773017245E+04  0.14773483995E+04  0.10000000000E+02 0. -1.
</event>
<event>
 5    1  0.1338054E-008  0.3832975E+03  0.7957747E-01  0.3436925E+00
         13   -1    0    0    0    0  0.00000000000E+00  0.00000000000E+00  0.14999999963E+04  0.15000000000E+04  0.10566000000E+00 0.  1.
        994   -1    0    0    0    0 -0.00000000000E+00 -0.00000000000E+00  0.11368683772E-12  0.17120000000E+03  0.17120000000E+03 0.  0.
         13    1    1    2    0    0  0.14644362105E+02 -0.66179643910E+01  0.52693076534E+02  0.55089257327E+02  0.10566000000E+00 0.  1.
        994    1    1    2    0    0 -0.58294279619E+01  0.31921065171E+00  0.25905094092E+01  0.17131910245E+03  0.17120000000E+03 0.  0.
        998    1    1    2    0    0 -0.88149341429E+01  0.62987537393E+01  0.14447164103E+04  0.14447916402E+04  0.10000000000E+02 0.  1.
</event>
<event>
 5    1  0.1338054E-008  0.3789655E+03  0.7957747E-01  0.3455675E+00
         13   -1    0    0    0    0  0.00000000000E+00  0.00000000000E+00  0.14999999963E+04  0.15000000000E+04  0.10566000000E+00 0. -1.
        994   -1    0    0    0    0 -0.00000000000E+00 -0.00000000000E+00  0.11368683772E-12  0.17120000000E+03  0.17120000000E+03 0.  0.
         13    1    1    2    0    0 -0.25164442433E+02 -0.21460548738E+02  0.12277390160E+03  0.12715048719E+03  0.10566000000E+00 0. -1.
        994    1    1    2    0    0  0.73816891906E+01  0.54321593016E+01  0.49380649088E+01  0.17151624464E+03  0.17120000000E+03 0.  0.
        998    1    1    2    0    0  0.17782753243E+02  0.16028389436E+02  0.13722880298E+04  0.13725332682E+04  0.10000000000E+02 0. -1.
</event>
<event>
 5    1  0.1338054E-008  0.3749615E+03  0.7957747E-01  0.3473395E+00
         13   -1    0    0    0    0  0.00000000000E+00  0.00000000000E+00  0.14999999963E+04  0.15000000000E+04  0.10566000000E+00 0. -1.
        994   -1    0    0    0    0 -0.00000000000E+00 -0.00000000000E+00  0.11368683772E-12  0.17120000000E+03  0.17120000000E+03 0.  0.
         13    1    1    2    0    0 -0.58615295961E+01 -0.14586315770E+02  0.15778441335E+02  0.22273044514E+02  0.10566000000E+00 0. -1.
        994    1    1    2    0    0 -0.27498219241E+01  0.55792004333E+01  0.68300489421E+01  0.17144905531E+03  0.17120000000E+03 0.  0.
        998    1    1    2    0    0  0.86113515202E+01  0.90071153365E+01  0.14773915060E+04  0.14774779002E+04  0.10000000000E+02 0. -1.
</event>
<event>
 5    1  0.1338054E-008  0.3752383E+03  0.7957747E-01  0.3472158E+00
         13   -1    0    0    0    0  0.00000000000E+00  0.00000000000E+00  0.14999999963E+04  0.15000000000E+04  0.10566000000E+00 0.  1.
        994   -1    0    0    0    0 -0.00000000000E+00 -0.00000000000E+00  0.11368683772E-12  0.17120000000E+03  0.17120000000E+03 0.  0.
         13    1    1    2    0    0 -0.43683757396E+02 -0.43322951774E+01  0.13982609320E+03  0.14655506455E+03  0.10566000000E+00 0.  1.
        994    1    1    2    0    0  0.32027404773E+02  0.11690449505E+02  0.10514703997E+02  0.17487830130E+03  0.17120000000E+03 0.  0.
        998    1    1    2    0    0  0.11656352624E+02 -0.73581543275E+01  0.13496591991E+04  0.13497666342E+04  0.10000000000E+02 0.  1.
</event>
<event>
 5    1  0.1338054E-008  0.3826234E+03  0.7957747E-01  0.3439815E+00
         13   -1    0    0    0    0  0.00000000000E+00  0.00000000000E+00  0.14999999963E+04  0.15000000000E+04  0.10566000000E+00 0. -1.
        994   -1    0    0    0    0 -0.00000000000E+00 -0.00000000000E+00  0.11368683772E-12  0.17120000000E+03  0.17120000000E+03 0.  0.
         13    1    1    2    0    0 -0.67248409947E+01  0.13347719316E+02  0.40774220606E+02  0.43427333874E+02  0.10566000000E+00 0. -1.
        994    1    1    2    0    0  0.64442461938E+00  0.33126234201E+01  0.28524362408E+01  0.17125701489E+03  0.17120000000E+03 0.  0.
        998    1    1    2    0    0  0.60804163754E+01 -0.16660342736E+02  0.14563733394E+04  0.14565156512E+04  0.10000000000E+02 0. -1.
</event>
<event>
 5    1  0.1338054E-008  0.4011116E+03  0.7957747E-01  0.3364089E+00
         13   -1    0    0    0    0  0.00000000000E+00  0.00000000000E+00  0.14999999963E+04  0.15000000000E+04  0.10566000000E+00 0. -1.
        994   -1    0    0    0    0 -0.00000000000E+00 -0.00000000000E+00  0.11368683772E-12  0.17120000000E+03  0.17120000000E+03 0.  0.
         13    1    1    2    0    0 -0.47152545544E+01 -0.42110684746E+02  0.20498295275E+02  0.47071590886E+02  0.10566000000E+00 0. -1.
        994    1    1    2    0    0  0.12687493349E+02  0.34612662593E+02  0.33806630759E+02  0.17835733005E+03  0.17120000000E+03 0.  0.
        998    1    1    2    0    0 -0.79722387951E+01  0.74980221531E+01  0.14456950702E+04  0.14457710791E+04  0.10000000000E+02 0. -1.
</event>
<event>
 5    1  0.1338054E-008  0.3839165E+03  0.7957747E-01  0.3434281E+00
         13   -1    0    0    0    0  0.00000000000E+00  0.00000000000E+00  0.14999999963E+04  0.15000000000E+04  0.10566000000E+00 0.  1.
        994   -1    0    0    0    0 -0.00000000000E+00 -0.00000000000E+00  0.11368683772E-12  0.17120000000E+03  0.17120000000E+03 0.  0.
         13    1    1    2    0    0 -0.23896550221E+02 -0.18834579713E+01  0.14497277515E+03  0.14694117607E+03  0.10566000000E+00 0.  1.
        994    1    1    2    0    0  0.36591969372E+01 -0.12647730628E+01  0.22185194001E+01  0.17125814200E+03  0.17120000000E+03 0.  0.
        998    1    1    2    0    0  0.20237353284E+02  0.31482310341E+01  0.13528087017E+04  0.13530006819E+04  0.10000000000E+02 0.  1.
</event>
<event>
 5    1  0.1338054E-008  0.3710429E+03  0.7957747E-01  0.3491112E+00
         13   -1    0    0    0    0  0.00000000000E+00  0.00000000000E+00  0.14999999963E+04  0.15000000000E+04  0.10566000000E+00 0.  1.
        994   -1    0    0    0    0 -0.00000000000E+00 -0.00000000000E+00  0.11368683772E-12  0.17120000000E+03  0.17120000000E+03 0.  0.
         13    1    1    2    0    0 -0.55260758343E+01  0.22071468575E+02  0.26155199191E+02  0.34666884024E+02  0.10566000000E+00 0.  1.
        994    1    1    2    0    0 -0.14608776620E+02 -0.17827067602E+02  0.10557324921E+02  0.17306680156E+03  0.17120000000E+03 0.  0.
        998    1    1    2    0    0  0.20134852454E+02 -0.42444009731E+01  0.14632874722E+04  0.14634663144E+04  0.10000000000E+02 0.  1.
</event>
<event>
 5    1  0.1338054E-008  0.3688756E+03  0.7957747E-01  0.3501075E+00
         13   -1    0    0    0    0  0.00000000000E+00  0.00000000000E+00  0.14999999963E+04  0.15000000000E+04  0.10566000000E+00 0.  1.
        994   -1    0    0    0    0 -0.00000000000E+00 -0.00000000000E+00  0.11368683772E-12  0.17120000000E+03  0.17120000000E+03 0.  0.
         13    1    1    2    0    0 -0.19916365830E+01  0.13438887228E+02  0.41981081199E+01  0.14219900914E+02  0.10566000000E+00 0.  1.
        994    1    1    2    0    0  0.34080481330E+01 -0.86315511489E+01  0.10645409314E+02  0.17178149844E+03  0.17120000000E+03 0.  0.
        998    1    1    2    0    0 -0.14164115500E+01 -0.48073360786E+01  0.14851564788E+04  0.14851986006E+04  0.10000000000E+02 0.  1.
</event>
<event>
 5    1  0.1338054E-008  0.3740341E+03  0.7957747E-01  0.3477554E+00
         13   -1    0    0    0    0  0.00000000000E+00  0.00000000000E+00  0.14999999963E+04  0.15000000000E+04  0.10566000000E+00 0.  1.
        994   -1    0    0    0    0 -0.00000000000E+00 -0.00000000000E+00  0.11368683772E-12  0.17120000000E+03  0.17120000000E+03 0.  0.
         13    1    1    2    0    0 -0.49214537036E+02  0.77058238276E+01  0.84346755070E+02  0.97958341306E+02  0.10566000000E+00 0.  1.
        994    1    1    2    0    0  0.50307468010E+02 -0.26940502683E+02  0.24727987431E+02  0.18214704331E+03  0.17120000000E+03 0.  0.
        998    1    1    2    0    0 -0.10929309743E+01  0.19234678855E+02  0.13909252538E+04  0.13910946154E+04  0.10000000000E+02 0.  1.
</event>
<event>
 5    1  0.1338054E-008  0.3738575E+03  0.7957747E-01  0.3478348E+00
         13   -1    0    0    0    0  0.00000000000E+00  0.00000000000E+00  0.14999999963E+04  0.15000000000E+04  0.10566000000E+00 0. -1.
        994   -1    0    0    0    0 -0.00000000000E+00 -0.00000000000E+00  0.11368683772E-12  0.17120000000E+03  0.17120000000E+03 0.  0.
         13    1    1    2    0    0  0.88108977270E+02  0.11291220849E+02  0.41214381038E+03  0.42160789265E+03  0.10566000000E+00 0. -1.
        994    1    1    2    0    0 -0.87736560615E+02  0.21307316322E+02  0.35614728806E+02  0.19679825890E+03  0.17120000000E+03 0.  0.
        998    1    1    2    0    0 -0.37241665559E+00 -0.32598537171E+02  0.10522414571E+04  0.10527938485E+04  0.10000000000E+02 0. -1.
</event>
<event>
 5    1  0.1338054E-008  0.3817141E+03  0.7957747E-01  0.3443729E+00
         13   -1    0    0    0    0  0.00000000000E+00  0.00000000000E+00  0.14999999963E+04  0.15000000000E+04  0.10566000000E+00 0.  1.
        994   -1    0    0    0    0 -0.00000000000E+00 -0.00000000000E+00  0.11368683772E-12  0.17120000000E+03  0.17120000000E+03 0.  0.
         13    1    1    2    0    0 -0.21663177209E+01 -0.12899632489E+02  0.24919848825E+02  0.28144333006E+02  0.10566000000E+00 0.  1.
        994    1    1    2    0    0  0.12185335816E+02  0.67695821714E+01  0.39165541503E+01  0.17181120175E+03  0.17120000000E+03 0.  0.
        998    1    1    2    0    0 -0.10019018095E+02  0.61300503175E+01  0.14711635933E+04  0.14712444652E+04  0.10000000000E+02 0.  1.
</event>
<event>
 5    1  0.1338054E-008  0.3971733E+03  0.7957747E-01  0.3379629E+00
         13   -1    0    0    0    0  0.00000000000E+00  0.00000000000E+00  0.14999999963E+04  0.15000000000E+04  0.10566000000E+00 0.  1.
        994   -1    0    0    0    0 -0.00000000000E+00 -0.00000000000E+00  0.11368683772E-12  0.17120000000E+03  0.17120000000E+03 0.  0.
         13    1    1    2    0    0 -0.43197649323E+02 -0.96848593094E+02  0.21752329271E+03  0.24199603494E+03  0.10566000000E+00 0.  1.
        994    1    1    2    0    0 -0.36687725569E+02  0.79565746811E+02  0.56472612394E+02  0.20043775399E+03  0.17120000000E+03 0.  0.
        998    1    1    2    0    0  0.79885374892E+02  0.17282846283E+02  0.12260040912E+04  0.12287662111E+04  0.10000000000E+02 0.  1.
</event>
<event>
 5    1  0.1338054E-008  0.3819151E+03  0.7957747E-01  0.3442862E+00
         13   -1    0    0    0    0  0.00000000000E+00  0.00000000000E+00  0.14999999963E+04  0.15000000000E+04  0.10566000000E+00 0. -1.
        994   -1    0    0    0    0 -0.00000000000E+00 -0.00000000000E+00  0.11368683772E-12  0.17120000000E+03  0.17120000000E+03 0.  0.
         13    1    1    2    0    0  0.79333630127E+01  0.32107557285E+02  0.16338884286E+03  0.16670260532E+03  0.10566000000E+00 0. -1.
        994    1    1    2    0    0 -0.13860363261E+02 -0.23430397343E+02  0.56352719093E+01  0.17344246735E+03  0.17120000000E+03 0.  0.
        998    1    1    2    0    0  0.59270002479E+01 -0.86771599417E+01  0.13309758815E+04  0.13310549273E+04  0.10000000000E+02 0. -1.
</event>
<event>
 5    1  0.1338054E-008  0.3858076E+03  0.7957747E-01  0.3426254E+00
         13   -1    0    0    0    0  0.00000000000E+00  0.00000000000E+00  0.14999999963E+04  0.15000000000E+04  0.10566000000E+00 0. -1.
        994   -1    0    0    0    0 -0.00000000000E+00 -0.00000000000E+00  0.11368683772E-12  0.17120000000E+03  0.17120000000E+03 0.  0.
         13    1    1    2    0    0  0.18503523011E+01 -0.12327606852E+02  0.65689979546E+02  0.66862383080E+02  0.10566000000E+00 0. -1.
        994    1    1    2    0    0  0.12790385683E+01  0.44334302482E+01  0.12995524105E+01  0.17126710157E+03  0.17120000000E+03 0.  0.
        998    1    1    2    0    0 -0.31293908694E+01  0.78941766040E+01  0.14330104643E+04  0.14330705154E+04  0.10000000000E+02 0.  1.
</event>
<event>
 5    1  0.1338054E-008  0.3849050E+03  0.7957747E-01  0.3430075E+00
         13   -1    0    0    0    0  0.00000000000E+00  0.00000000000E+00  0.14999999963E+04  0.15000000000E+04  0.10566000000E+00 0.  1.
        994   -1    0    0    0    0 -0.00000000000E+00 -0.00000000000E+00  0.11368683772E-12  0.17120000000E+03  0.17120000000E+03 0.  0.
         13    1    1    2    0    0 -0.10737382481E+02  0.50659533913E+01  0.42820761768E+02  0.44436292248E+02  0.10566000000E+00 0.  1.
        994    1    1    2    0    0  0.60613808921E+01  0.43573575542E+01  0.18606801478E+01  0.17137277798E+03  0.17120000000E+03 0.  0.
        998    1    1    2    0    0  0.46760015891E+01 -0.94233109456E+01  0.14553185544E+04  0.14553909298E+04  0.10000000000E+02 0.  1.
</event>
<event>
 5    1  0.1338054E-008  0.3793808E+03  0.7957747E-01  0.3453859E+00
         13   -1    0    0    0    0  0.00000000000E+00  0.00000000000E+00  0.14999999963E+04  0.15000000000E+04  0.10566000000E+00 0. -1.
        994   -1    0    0    0    0 -0.00000000000E+00 -0.00000000000E+00  0.11368683772E-12  0.17120000000E+03  0.17120000000E+03 0.  0.
         13    1    1    2    0    0  0.56513979797E+02 -0.27291339569E+02  0.32327455467E+03  0.32931003020E+03  0.10566000000E+00 0. -1.
        994    1    1    2    0    0 -0.62207243854E+02  0.32898379152E+02  0.21216984278E+02  0.18631061419E+03  0.17120000000E+03 0.  0.
        998    1    1    2    0    0  0.56932640566E+01 -0.56070395838E+01  0.11555084573E+04  0.11555793556E+04  0.10000000000E+02 0. -1.
</event>
<event>
 5    1  0.1338054E-008  0.3898332E+03  0.7957747E-01  0.3409429E+00
         13   -1    0    0    0    0  0.00000000000E+00  0.00000000000E+00  0.14999999963E+04  0.15000000000E+04  0.10566000000E+00 0.  1.
        994   -1    0    0    0    0 -0.00000000000E+00 -0.00000000000E+00  0.11368683772E-12  0.17120000000E+03  0.17120000000E+03 0.  0.
         13    1    1    2    0    0 -0.89239193817E+02 -0.12746613361E+03  0.37942468216E+03  0.41009066014E+03  0.10566000000E+00 0.  1.
        994    1    1    2    0    0 -0.48059845026E+02  0.24268228176E+03  0.31427218627E+03  0.43506423163E+03  0.17120000000E+03 0.  0.
        998    1    1    2    0    0  0.13729903884E+03 -0.11521614814E+03  0.80630312785E+03  0.82604510823E+03  0.10000000000E+02 0.  1.
</event>
<event>
 5    1  0.1338054E-008  0.3696621E+03  0.7957747E-01  0.3497445E+00
         13   -1    0    0    0    0  0.00000000000E+00  0.00000000000E+00  0.14999999963E+04  0.15000000000E+04  0.10566000000E+00 0. -1.
        994   -1    0    0    0    0 -0.00000000000E+00 -0.00000000000E+00  0.11368683772E-12  0.17120000000E+03  0.17120000000E+03 0.  0.
         13    1    1    2    0    0  0.28083881186E+02  0.64128205879E+02  0.19368889992E+03  0.20595274286E+03  0.10566000000E+00 0. -1.
        994    1    1    2    0    0 -0.27909431247E+02 -0.66476026204E+02  0.29138351075E+02  0.18803319365E+03  0.17120000000E+03 0.  0.
        998    1    1    2    0    0 -0.17444993900E+00  0.23478203249E+01  0.12771727453E+04  0.12772140635E+04  0.10000000000E+02 0.  0.
</event>
<event>
 5    1  0.1338054E-008  0.3780951E+03  0.7957747E-01  0.3459495E+00
         13   -1    0    0    0    0  0.00000000000E+00  0.00000000000E+00  0.14999999963E+04  0.15000000000E+04  0.10566000000E+00 0. -1.
        994   -1    0    0    0    0 -0.00000000000E+00 -0.00000000000E+00  0.11368683772E-12  0.17120000000E+03  0.17120000000E+03 0.  0.
         13    1    1    2    0    0 -0.10798594289E+02 -0.85210574435E+01 -0.83739450797E+00  0.13781525756E+02  0.10566000000E+00 0. -1.
        994    1    1    2    0    0  0.12428080825E+02  0.29078318641E+01  0.15871315049E+02  0.17240722526E+03  0.17120000000E+03 0.  0.
        998    1    1    2    0    0 -0.16294865365E+01  0.56132255794E+01  0.14849660757E+04  0.14850112490E+04  0.10000000000E+02 0. -1.
</event>
<event>
 5    1  0.1338054E-008  0.3748873E+03  0.7957747E-01  0.3473727E+00
         13   -1    0    0    0    0  0.00000000000E+00  0.00000000000E+00  0.14999999963E+04  0.15000000000E+04  0.10566000000E+00 0.  1.
        994   -1    0    0    0    0 -0.00000000000E+00 -0.00000000000E+00  0.11368683772E-12  0.17120000000E+03  0.17120000000E+03 0.  0.
         13    1    1    2    0    0 -0.54904664052E+02  0.12556242814E+02  0.24813356342E+03  0.25444539262E+03  0.10566000000E+00 0.  1.
        994    1    1    2    0    0  0.22539267005E+02 -0.56462793220E+01  0.85746845440E+01  0.17298226569E+03  0.17120000000E+03 0.  0.
        998    1    1    2    0    0  0.32365397047E+02 -0.69099634924E+01  0.12432917483E+04  0.12437723417E+04  0.10000000000E+02 0.  1.
</event>
<event>
 5    1  0.1338054E-008  0.3804501E+03  0.7957747E-01  0.3449201E+00
         13   -1    0    0    0    0  0.00000000000E+00  0.00000000000E+00  0.14999999963E+04  0.15000000000E+04  0.10566000000E+00 0. -1.
        994   -1    0    0    0    0 -0.00000000000E+00 -0.00000000000E+00  0.11368683772E-12  0.17120000000E+03  0.17120000000E+03 0.  0.
         13    1    1    2    0    0 -0.76007512635E+01  0.71315828123E+01  0.12532997537E+02  0.16300861465E+02  0.10566000000E+00 0. -1.
        994    1    1    2    0    0 -0.42807288033E+00  0.44262998590E+01  0.39721144654E+01  0.17130380343E+03  0.17120000000E+03 0.  0.
        998    1    1    2    0    0  0.80288241439E+01 -0.11557882671E+02  0.14834948843E+04  0.14835953351E+04  0.10000000000E+02 0. -1.
</event>
<event>
 5    1  0.1338054E-008  0.3694126E+03  0.7957747E-01  0.3498595E+00
         13   -1    0    0    0    0  0.00000000000E+00  0.00000000000E+00  0.14999999963E+04  0.15000000000E+04  0.10566000000E+00 0.  1.
        994   -1    0    0    0    0 -0.00000000000E+00 -0.00000000000E+00  0.11368683772E-12  0.17120000000E+03  0.17120000000E+03 0.  0.
         13    1    1    2    0    0 -0.41081183237E+02 -0.24119811443E+02  0.94395086201E+02  0.10573491563E+03  0.10566000000E+00 0.  1.
        994    1    1    2    0    0  0.50534568745E+02  0.22993133288E+02  0.21461127672E+02  0.18125243948E+03  0.17120000000E+03 0.  0.
        998    1    1    2    0    0 -0.94533855077E+01  0.11266781551E+01  0.13841437824E+04  0.13842126449E+04  0.10000000000E+02 0.  1.
</event>
<event>
 5    1  0.1338054E-008  0.3844042E+03  0.7957747E-01  0.3432203E+00
         13   -1    0    0    0    0  0.00000000000E+00  0.00000000000E+00  0.14999999963E+04  0.15000000000E+04  0.10566000000E+00 0. -1.
        994   -1    0    0    0    0 -0.00000000000E+00 -0.00000000000E+00  0.11368683772E-12  0.17120000000E+03  0.17120000000E+03 0.  0.
         13    1    1    2    0    0  0.15572586080E+02  0.11956451702E+02  0.91556720575E+02  0.93638167544E+02  0.10566000000E+00 0. -1.
        994    1    1    2    0    0 -0.19203699611E+02 -0.16127224188E+02  0.40010891883E+01  0.17307315839E+03  0.17120000000E+03 0.  0.
        998    1    1    2    0    0  0.36311135311E+01  0.41707724855E+01  0.14044421865E+04  0.14044886741E+04  0.10000000000E+02 0. -1.
</event>
<event>
 5    1  0.1338054E-008  0.3818099E+03  0.7957747E-01  0.3443316E+00
         13   -1    0    0    0    0  0.00000000000E+00  0.00000000000E+00  0.14999999963E+04  0.15000000000E+04  0.10566000000E+00 0.  1.
        994   -1    0    0    0    0 -0.00000000000E+00 -0.00000000000E+00  0.11368683772E-12  0.17120000000E+03  0.17120000000E+03 0.  0.
         13    1    1    2    0    0 -0.28470495893E+02  0.16837909817E+01  0.12422655139E+03  0.12745843057E+03  0.10566000000E+00 0.  1.
        994    1    1    2    0    0  0.18543608002E+02  0.29569955418E+01  0.43949174380E+01  0.17228280390E+03  0.17120000000E+03 0.  0.
        998    1    1    2    0    0  0.99268878919E+01 -0.46407865236E+01  0.13713785275E+04  0.13714587655E+04  0.10000000000E+02 0.  1.
</event>
<event>
 5    1  0.1338054E-008  0.3738353E+03  0.7957747E-01  0.3478448E+00
         13   -1    0    0    0    0  0.00000000000E+00  0.00000000000E+00  0.14999999963E+04  0.15000000000E+04  0.10566000000E+00 0. -1.
        994   -1    0    0    0    0 -0.00000000000E+00 -0.00000000000E+00  0.11368683772E-12  0.17120000000E+03  0.17120000000E+03 0.  0.
         13    1    1    2    0    0 -0.15491437762E+03 -0.85854481905E+02  0.10485937639E+04  0.10634464487E+04  0.10566000000E+00 0. -1.
        994    1    1    2    0    0  0.14270476637E+03  0.61040750003E+02  0.94536478065E+02  0.24967420610E+03  0.17120000000E+03 0.  0.
        998    1    1    2    0    0  0.12209611257E+02  0.24813731901E+02  0.35686975431E+03  0.35807934517E+03  0.10000000000E+02 0.  1.
</event>
<event>
 5    1  0.1338054E-008  0.3855590E+03  0.7957747E-01  0.3427305E+00
         13   -1    0    0    0    0  0.00000000000E+00  0.00000000000E+00  0.14999999963E+04  0.15000000000E+04  0.10566000000E+00 0.  1.
        994   -1    0    0    0    0 -0.00000000000E+00 -0.00000000000E+00  0.11368683772E-12  0.17120000000E+03  0.17120000000E+03 0.  0.
         13    1    1    2    0    0 -0.12312336066E+02  0.89949540884E+01  0.83076427044E+02  0.84464233335E+02  0.10566000000E+00 0.  1.
        994    1    1    2    0    0 -0.13985156676E+01 -0.28973467509E+02  0.41198516274E+01  0.17368889096E+03  0.17120000000E+03 0.  0.
        998    1    1    2    0    0  0.13710851734E+02  0.19978513420E+02  0.14128037176E+04  0.14130468757E+04  0.10000000000E+02 0.  1.
</event>
<event>
 5    1  0.1338054E-008  0.3852310E+03  0.7957747E-01  0.3428693E+00
         13   -1    0    0    0    0  0.00000000000E+00  0.00000000000E+00  0.14999999963E+04  0.15000000000E+04  0.10566000000E+00 0. -1.
        994   -1    0    0    0    0 -0.00000000000E+00 -0.00000000000E+00  0.11368683772E-12  0.17120000000E+03  0.17120000000E+03 0.  0.
         13    1    1    2    0    0 -0.13950224023E+02  0.11816272409E+02  0.10270599786E+03  0.10432049753E+03  0.10566000000E+00 0. -1.
        994    1    1    2    0    0  0.14234711985E+02 -0.15143708406E+02  0.29362967388E+01  0.17248194331E+03  0.17120000000E+03 0.  0.
        998    1    1    2    0    0 -0.28448796222E+00  0.33274359966E+01  0.13943577017E+04  0.13943975592E+04  0.10000000000E+02 0. -1.
</event>
<event>
 5    1  0.1338054E-008  0.3845221E+03  0.7957747E-01  0.3431702E+00
         13   -1    0    0    0    0  0.00000000000E+00  0.00000000000E+00  0.14999999963E+04  0.15000000000E+04  0.10566000000E+00 0. -1.
        994   -1    0    0    0    0 -0.00000000000E+00 -0.00000000000E+00  0.11368683772E-12  0.17120000000E+03  0.17120000000E+03 0.  0.
         13    1    1    2    0    0  0.12584948572E+01 -0.19709345128E+02  0.10810388407E+03  0.10989314359E+03  0.10566000000E+00 0. -1.
        994    1    1    2    0    0 -0.26412665197E+02  0.71250362408E+01  0.43365019939E+01  0.17342618105E+03  0.17120000000E+03 0.  0.
        998    1    1    2    0    0  0.25154170340E+02  0.12584308888E+02  0.13875596102E+04  0.13878806754E+04  0.10000000000E+02 0. -1.
</event>
<event>
 5    1  0.1338054E-008  0.3807249E+03  0.7957747E-01  0.3448008E+00
         13   -1    0    0    0    0  0.00000000000E+00  0.00000000000E+00  0.14999999963E+04  0.15000000000E+04  0.10566000000E+00 0.  1.
        994   -1    0    0    0    0 -0.00000000000E+00 -0.00000000000E+00  0.11368683772E-12  0.17120000000E+03  0.17120000000E+03 0.  0.
         13    1    1    2    0    0 -0.29554076216E+02 -0.10695195266E+02  0.12606632811E+03  0.12992521260E+03  0.10566000000E+00 0.  1.
        994    1    1    2    0    0  0.18826946739E+02  0.17805312378E+02  0.60102497858E+01  0.17325428184E+03  0.17120000000E+03 0.  0.
        998    1    1    2    0    0  0.10727129477E+02 -0.71101171112E+01  0.13679234184E+04  0.13680205056E+04  0.10000000000E+02 0.  1.
</event>
<event>
 5    1  0.1338054E-008  0.3797809E+03  0.7957747E-01  0.3452113E+00
         13   -1    0    0    0    0  0.00000000000E+00  0.00000000000E+00  0.14999999963E+04  0.15000000000E+04  0.10566000000E+00 0. -1.
        994   -1    0    0    0    0 -0.00000000000E+00 -0.00000000000E+00  0.11368683772E-12  0.17120000000E+03  0.17120000000E+03 0.  0.
         13    1    1    2    0    0 -0.23919502418E+02  0.10023302165E+02  0.81351498702E+02  0.85385518018E+02  0.10566000000E+00 0. -1.
        994    1    1    2    0    0  0.91730970665E+01  0.53556940700E+01  0.46213364183E+01  0.17159145060E+03  0.17120000000E+03 0.  0.
        998    1    1    2    0    0  0.14746405351E+02 -0.15378996235E+02  0.14140271612E+04  0.14142230314E+04  0.10000000000E+02 0. -1.
</event>
<event>
 5    1  0.1338054E-008  0.3786320E+03  0.7957747E-01  0.3457137E+00
         13   -1    0    0    0    0  0.00000000000E+00  0.00000000000E+00  0.14999999963E+04  0.15000000000E+04  0.10566000000E+00 0. -1.
        994   -1    0    0    0    0 -0.00000000000E+00 -0.00000000000E+00  0.11368683772E-12  0.17120000000E+03  0.17120000000E+03 0.  0.
         13    1    1    2    0    0 -0.39711683878E+01 -0.43638274915E+02  0.56993310642E+02  0.71891013610E+02  0.10566000000E+00 0. -1.
        994    1    1    2    0    0  0.37851482909E+01  0.23332770566E+02  0.17594895993E+02  0.17371748874E+03  0.17120000000E+03 0.  0.
        998    1    1    2    0    0  0.18602009692E+00  0.20305504349E+02  0.14254117896E+04  0.14255914976E+04  0.10000000000E+02 0. -1.
</event>
<event>
 5    1  0.1338054E-008  0.3845436E+03  0.7957747E-01  0.3431610E+00
         13   -1    0    0    0    0  0.00000000000E+00  0.00000000000E+00  0.14999999963E+04  0.15000000000E+04  0.10566000000E+00 0. -1.
        994   -1    0    0    0    0 -0.00000000000E+00 -0.00000000000E+00  0.11368683772E-12  0.17120000000E+03  0.17120000000E+03 0.  0.
         13    1    1    2    0    0  0.11290001060E+02  0.53536867798E+01  0.43577074502E+02  0.45333196140E+02  0.10566000000E+00 0. -1.
        994    1    1    2    0    0  0.60627481544E+01 -0.12393227601E+02  0.24840819131E+01  0.17177298876E+03  0.17120000000E+03 0.  0.
        998    1    1    2    0    0 -0.17352749214E+02  0.70395408217E+01  0.14539388399E+04  0.14540938151E+04  0.10000000000E+02 0. -1.
</event>
<event>
 5    1  0.1338054E-008  0.3767602E+03  0.7957747E-01  0.3465388E+00
         13   -1    0    0    0    0  0.00000000000E+00  0.00000000000E+00  0.14999999963E+04  0.15000000000E+04  0.10566000000E+00 0. -1.
        994   -1    0    0    0    0 -0.00000000000E+00 -0.00000000000E+00  0.11368683772E-12  0.17120000000E+03  0.17120000000E+03 0.  0.
         13    1    1    2    0    0 -0.27645784240E+02  0.50568753367E+01  0.72571909782E+02  0.77823869268E+02  0.10566000000E+00 0. -1.
        994    1    1    2    0    0 -0.88844425340E+01 -0.16822655130E+02  0.70015632105E+01  0.17239604674E+03  0.17120000000E+03 0.  0.
        998    1    1    2    0    0  0.36530226774E+02  0.11765779793E+02  0.14204265233E+04  0.14209800840E+04  0.10000000000E+02 0. -1.
</event>
<event>
 5    1  0.1338054E-008  0.3692476E+03  0.7957747E-01  0.3499356E+00
         13   -1    0    0    0    0  0.00000000000E+00  0.00000000000E+00  0.14999999963E+04  0.15000000000E+04  0.10566000000E+00 0.  1.
        994   -1    0    0    0    0 -0.00000000000E+00 -0.00000000000E+00  0.11368683772E-12  0.17120000000E+03  0.17120000000E+03 0.  0.
         13    1    1    2    0    0 -0.35742611959E+02 -0.68376206256E+02  0.31054873994E+03  0.31998964192E+03  0.10566000000E+00 0.  1.
        994    1    1    2    0    0  0.66793220981E+02  0.13243075235E+01  0.26269590219E+02  0.18564110410E+03  0.17120000000E+03 0.  0.
        998    1    1    2    0    0 -0.31050609022E+02  0.67051898733E+02  0.11631816661E+04  0.11655692540E+04  0.10000000000E+02 0.  1.
</event>
<event>
 5    1  0.1338054E-008  0.3841358E+03  0.7957747E-01  0.3433346E+00
         13   -1    0    0    0    0  0.00000000000E+00  0.00000000000E+00  0.14999999963E+04  0.15000000000E+04  0.10566000000E+00 0. -1.
        994   -1    0    0    0    0 -0.00000000000E+00 -0.00000000000E+00  0.11368683772E-12  0.17120000000E+03  0.17120000000E+03 0.  0.
         13    1    1    2    0    0  0.23864873245E+00 -0.19203034267E+02  0.84883629820E+02  0.87029048333E+02  0.10566000000E+00 0. -1.
        994    1    1    2    0    0  0.54678226801E+01  0.19984681771E+02  0.34768238095E+01  0.17248423955E+03  0.17120000000E+03 0.  0.
        998    1    1    2    0    0 -0.57064714126E+01 -0.78164750415E+00  0.14116395426E+04  0.14116867121E+04  0.10000000000E+02 0. -1.
</event>
<event>
 5    1  0.1338054E-008  0.3800996E+03  0.7957747E-01  0.3450725E+00
         13   -1    0    0    0    0  0.00000000000E+00  0.00000000000E+00  0.14999999963E+04  0.15000000000E+04  0.10566000000E+00 0. -1.
        994   -1    0    0    0    0 -0.00000000000E+00 -0.00000000000E+00  0.11368683772E-12  0.17120000000E+03  0.17120000000E+03 0.  0.
         13    1    1    2    0    0  0.38409769747E+01  0.13142531993E+02  0.20605816011E+02  0.24740454095E+02  0.10566000000E+00 0. -1.
        994    1    1    2    0    0 -0.81347269748E+01 -0.19646062154E+02  0.55953313729E+01  0.17260616812E+03  0.17120000000E+03 0.  0.
        998    1    1    2    0    0  0.42937500001E+01  0.65035301607E+01  0.14737988489E+04  0.14738533778E+04  0.10000000000E+02 0. -1.
</event>
<event>
 5    1  0.1338054E-008  0.3839826E+03  0.7957747E-01  0.3433998E+00
         13   -1    0    0    0    0  0.00000000000E+00  0.00000000000E+00  0.14999999963E+04  0.15000000000E+04  0.10566000000E+00 0.  1.
        994   -1    0    0    0    0 -0.00000000000E+00 -0.00000000000E+00  0.11368683772E-12  0.17120000000E+03  0.17120000000E+03 0.  0.
         13    1    1    2    0    0 -0.15866926726E+02 -0.18509123445E+02  0.12680322328E+03  0.12912558078E+03  0.10566000000E+00 0.  1.
        994    1    1    2    0    0  0.14185867398E+02  0.22782682268E+02  0.45163119950E+01  0.17334972316E+03  0.17120000000E+03 0.  0.
        998    1    1    2    0    0  0.16810593276E+01 -0.42735588230E+01  0.13686804610E+04  0.13687246961E+04  0.10000000000E+02 0.  1.
</event>
<event>
 5    1  0.1338054E-008  0.3887711E+03  0.7957747E-01  0.3413834E+00
         13   -1    0    0    0    0  0.00000000000E+00  0.00000000000E+00  0.14999999963E+04  0.15000000000E+04  0.10566000000E+00 0. -1.
        994   -1    0    0    0    0 -0.00000000000E+00 -0.00000000000E+00  0.11368683772E-12  0.17120000000E+03  0.17120000000E+03 0.  0.
         13    1    1    2    0    0  0.11856071513E+02 -0.65409797321E+02  0.94451439769E+02  0.11549932318E+03  0.10566000000E+00 0. -1.
        994    1    1    2    0    0 -0.38857626987E+02  0.49258075632E+02  0.36123819357E+02  0.18587803398E+03  0.17120000000E+03 0.  0.
        998    1    1    2    0    0  0.27001555474E+02  0.16151721689E+02  0.13694247372E+04  0.13698226428E+04  0.10000000000E+02 0. -1.
</event>
<event>
 5    1  0.1338054E-008  0.3860171E+03  0.7957747E-01  0.3425370E+00
         13   -1    0    0    0    0  0.00000000000E+00  0.00000000000E+00  0.14999999963E+04  0.15000000000E+04  0.10566000000E+00 0.  1.
        994   -1    0    0    0    0 -0.00000000000E+00 -0.00000000000E+00  0.11368683772E-12  0.17120000000E+03  0.17120000000E+03 0.  0.
         13    1    1    2    0    0 -0.10496495470E+02 -0.41683008565E+01  0.63950621228E+02  0.64940313124E+02  0.10566000000E+00 0.  1.
        994    1    1    2    0    0 -0.59615035243E+01 -0.31513241157E+01  0.12750853720E+01  0.17133749213E+03  0.17120000000E+03 0.  0.
        998    1    1    2    0    0  0.16457998995E+02  0.73196249722E+01  0.14347742897E+04  0.14349221947E+04  0.10000000000E+02 0.  1.
</event>
<event>
 5    1  0.1338054E-008  0.4132345E+03  0.7957747E-01  0.3318096E+00
         13   -1    0    0    0    0  0.00000000000E+00  0.00000000000E+00  0.14999999963E+04  0.15000000000E+04  0.10566000000E+00 0. -1.
        994   -1    0    0    0    0 -0.00000000000E+00 -0.00000000000E+00  0.11368683772E-12  0.17120000000E+03  0.17120000000E+03 0.  0.
         13    1    1    2    0    0  0.59224277218E+02 -0.13801954046E+02  0.39203804717E+02  0.72353012486E+02  0.10566000000E+00 0. -1.
        994    1    1    2    0    0 -0.36854168473E+02  0.47694817879E+02  0.51136088465E+02  0.18856660608E+03  0.17120000000E+03 0.  0.
        998    1    1    2    0    0 -0.22370108745E+02 -0.33892863833E+02  0.14096601031E+04  0.14102803814E+04  0.10000000000E+02 0. -1.
</event>
<event>
 5    1  0.1338054E-008  0.3725818E+03  0.7957747E-01  0.3484109E+00
         13   -1    0    0    0    0  0.00000000000E+00  0.00000000000E+00  0.14999999963E+04  0.15000000000E+04  0.10566000000E+00 0.  1.
        994   -1    0    0    0    0 -0.00000000000E+00 -0.00000000000E+00  0.11368683772E-12  0.17120000000E+03  0.17120000000E+03 0.  0.
         13    1    1    2    0    0 -0.37827234726E+02 -0.15109584645E+02  0.59724250745E+02  0.72292437545E+02  0.10566000000E+00 0.  1.
        994    1    1    2    0    0  0.45552591814E+02  0.76894172614E+01  0.19877896333E+02  0.17843412376E+03  0.17120000000E+03 0.  0.
        998    1    1    2    0    0 -0.77253570882E+01  0.74201673834E+01  0.14203978492E+04  0.14204734387E+04  0.10000000000E+02 0.  1.
</event>
<event>
 5    1  0.1338054E-008  0.3849835E+03  0.7957747E-01  0.3429742E+00
         13   -1    0    0    0    0  0.00000000000E+00  0.00000000000E+00  0.14999999963E+04  0.15000000000E+04  0.10566000000E+00 0. -1.
        994   -1    0    0    0    0 -0.00000000000E+00 -0.00000000000E+00  0.11368683772E-12  0.17120000000E+03  0.17120000000E+03 0.  0.
         13    1    1    2    0    0 -0.41634227375E+01 -0.13224503806E+02  0.56631121740E+02  0.58303659433E+02  0.10566000000E+00 0. -1.
        994    1    1    2    0    0  0.91733571522E+00  0.15603541301E+02  0.24422477801E+01  0.17192939417E+03  0.17120000000E+03 0.  0.
        998    1    1    2    0    0  0.32460870223E+01 -0.23790374946E+01  0.14409266268E+04  0.14409669464E+04  0.10000000000E+02 0. -1.
</event>
<event>
 5    1  0.1338054E-008  0.3803680E+03  0.7957747E-01  0.3449558E+00
         13   -1    0    0    0    0  0.00000000000E+00  0.00000000000E+00  0.14999999963E+04  0.15000000000E+04  0.10566000000E+00 0.  1.
        994   -1    0    0    0    0 -0.00000000000E+00 -0.00000000000E+00  0.11368683772E-12  0.17120000000E+03  0.17120000000E+03 0.  0.
         13    1    1    2    0    0  0.31145077460E+02 -0.19932560474E+02  0.14377095369E+03  0.14845006267E+03  0.10566000000E+00 0.  1.
        994    1    1    2    0    0 -0.44003524814E+02  0.25326905073E+02  0.12602721703E+02  0.17901405227E+03  0.17120000000E+03 0.  0.
        998    1    1    2    0    0  0.12858447355E+02 -0.53943445992E+01  0.13436263209E+04  0.13437358851E+04  0.10000000000E+02 0.  1.
</event>
<event>
 5    1  0.1338054E-008  0.3685974E+03  0.7957747E-01  0.3502362E+00
         13   -1    0    0    0    0  0.00000000000E+00  0.00000000000E+00  0.14999999963E+04  0.15000000000E+04  0.10566000000E+00 0. -1.
        994   -1    0    0    0    0 -0.00000000000E+00 -0.00000000000E+00  0.11368683772E-12  0.17120000000E+03  0.17120000000E+03 0.  0.
         13    1    1    2    0    0  0.72838251890E+01  0.23432931369E+02  0.25345612037E+02  0.35278429606E+02  0.10566000000E+00 0. -1.
        994    1    1    2    0    0  0.26591835455E+02 -0.24354718744E+02  0.14736142478E+02  0.17557582958E+03  0.17120000000E+03 0.  0.
        998    1    1    2    0    0 -0.33875660644E+02  0.92178737448E+00  0.14599182418E+04  0.14603457408E+04  0.10000000000E+02 0. -1.
</event>
<event>
 5    1  0.1338054E-008  0.3726493E+03  0.7957747E-01  0.3483803E+00
         13   -1    0    0    0    0  0.00000000000E+00  0.00000000000E+00  0.14999999963E+04  0.15000000000E+04  0.10566000000E+00 0. -1.
        994   -1    0    0    0    0 -0.00000000000E+00 -0.00000000000E+00  0.11368683772E-12  0.17120000000E+03  0.17120000000E+03 0.  0.
         13    1    1    2    0    0 -0.79663691980E+01 -0.54770387963E+02  0.22849679948E+03  0.23510435336E+03  0.10566000000E+00 0. -1.
        994    1    1    2    0    0 -0.60721689412E+01  0.43976789218E+01  0.80834409733E+01  0.17155463513E+03  0.17120000000E+03 0.  0.
        998    1    1    2    0    0  0.14038538139E+02  0.50372709041E+02  0.12634197558E+04  0.12645410115E+04  0.10000000000E+02 0. -1.
</event>
<event>
 5    1  0.1338054E-008  0.3846797E+03  0.7957747E-01  0.3431032E+00
         13   -1    0    0    0    0  0.00000000000E+00  0.00000000000E+00  0.14999999963E+04  0.15000000000E+04  0.10566000000E+00 0.  1.
        994   -1    0    0    0    0 -0.00000000000E+00 -0.00000000000E+00  0.11368683772E-12  0.17120000000E+03  0.17120000000E+03 0.  0.
         13    1    1    2    0    0 -0.70072866819E+01  0.97905834450E+01  0.40719547567E+02  0.42462339890E+02  0.10566000000E+00 0.  1.
        994    1    1    2    0    0  0.43394940609E+01 -0.39100391054E+01  0.19015754240E+01  0.17131017367E+03  0.17120000000E+03 0.  0.
        998    1    1    2    0    0  0.26677926210E+01 -0.58805443395E+01  0.14573788733E+04  0.14574274864E+04  0.10000000000E+02 0.  1.
</event>
<event>
 5    1  0.1338054E-008  0.3808573E+03  0.7957747E-01  0.3447434E+00
         13   -1    0    0    0    0  0.00000000000E+00  0.00000000000E+00  0.14999999963E+04  0.15000000000E+04  0.10566000000E+00 0.  1.
        994   -1    0    0    0    0 -0.00000000000E+00 -0.00000000000E+00  0.11368683772E-12  0.17120000000E+03  0.17120000000E+03 0.  0.
         13    1    1    2    0    0  0.13097861825E+02  0.61537192638E+00  0.22281479752E+02  0.25853591065E+02  0.10566000000E+00 0.  1.
        994    1    1    2    0    0 -0.20786507377E+00 -0.34862054140E+01  0.37416768204E+01  0.17127649279E+03  0.17120000000E+03 0.  0.
        998    1    1    2    0    0 -0.12889996751E+02  0.28708334876E+01  0.14739768397E+04  0.14740699161E+04  0.10000000000E+02 0.  1.
</event>
<event>
 5    1  0.1338054E-008  0.3772217E+03  0.7957747E-01  0.3463346E+00
         13   -1    0    0    0    0  0.00000000000E+00  0.00000000000E+00  0.14999999963E+04  0.15000000000E+04  0.10566000000E+00 0. -1.
        994   -1    0    0    0    0 -0.00000000000E+00 -0.00000000000E+00  0.11368683772E-12  0.17120000000E+03  0.17120000000E+03 0.  0.
         13    1    1    2    0    0  0.61899988515E+01  0.19772477689E+02  0.37163485820E+02  0.42548828445E+02  0.10566000000E+00 0. -1.
        994    1    1    2    0    0  0.33177290176E+01 -0.94516278592E+01  0.58808353227E+01  0.17159360367E+03  0.17120000000E+03 0.  0.
        998    1    1    2    0    0 -0.95077278691E+01 -0.10320849830E+02  0.14569556751E+04  0.14570575679E+04  0.10000000000E+02 0. -1.
</event>
<event>
 5    1  0.1338054E-008  0.3032556E+03  0.7957747E-01  0.3873048E+00
         13   -1    0    0    0    0  0.00000000000E+00  0.00000000000E+00  0.14999999963E+04  0.15000000000E+04  0.10566000000E+00 0.  1.
        994   -1    0    0    0    0 -0.00000000000E+00 -0.00000000000E+00  0.11368683772E-12  0.17120000000E+03  0.17120000000E+03 0.  0.
         13    1    1    2    0    0  0.12439366226E+03 -0.16154461774E+03  0.83091703678E+03  0.85556623350E+03  0.10566000000E+00 0.  1.
        994    1    1    2    0    0 -0.14519818208E+02  0.11950816864E+03  0.95541859265E+02  0.23006676067E+03  0.17120000000E+03 0.  0.
        998    1    1    2    0    0 -0.10987384406E+03  0.42036449094E+02  0.57354110024E+03  0.58556700583E+03  0.10000000000E+02 0.  1.
</event>
<event>
 5    1  0.1338054E-008  0.3690248E+03  0.7957747E-01  0.3500385E+00
         13   -1    0    0    0    0  0.00000000000E+00  0.00000000000E+00  0.14999999963E+04  0.15000000000E+04  0.10566000000E+00 0. -1.
        994   -1    0    0    0    0 -0.00000000000E+00 -0.00000000000E+00  0.11368683772E-12  0.17120000000E+03  0.17120000000E+03 0.  0.
         13    1    1    2    0    0 -0.26603630778E+02 -0.38351978308E+02  0.10120443078E+03  0.11144942972E+03  0.10566000000E+00 0. -1.
        994    1    1    2    0    0 -0.95728518690E+01  0.41535909443E+02  0.16781015816E+02  0.17722278002E+03  0.17120000000E+03 0.  0.
        998    1    1    2    0    0  0.36176482647E+02 -0.31839311355E+01  0.13820145497E+04  0.13825277903E+04  0.10000000000E+02 0. -1.
</event>
<event>
 5    1  0.1338054E-008  0.3740047E+03  0.7957747E-01  0.3477686E+00
         13   -1    0    0    0    0  0.00000000000E+00  0.00000000000E+00  0.14999999963E+04  0.15000000000E+04  0.10566000000E+00 0. -1.
        994   -1    0    0    0    0 -0.00000000000E+00 -0.00000000000E+00  0.11368683772E-12  0.17120000000E+03  0.17120000000E+03 0.  0.
         13    1    1    2    0    0 -0.46098414733E+02  0.76892294735E+01  0.13994705889E+03  0.14754449684E+03  0.10566000000E+00 0. -1.
        994    1    1    2    0    0  0.44270570391E+02  0.11753914481E+02  0.14380308007E+02  0.17780402461E+03  0.17120000000E+03 0.  0.
        998    1    1    2    0    0  0.18278443420E+01 -0.19443143955E+02  0.13456726294E+04  0.13458514786E+04  0.10000000000E+02 0. -1.
</event>
<event>
 5    1  0.1338054E-008  0.3828670E+03  0.7957747E-01  0.3438769E+00
         13   -1    0    0    0    0  0.00000000000E+00  0.00000000000E+00  0.14999999963E+04  0.15000000000E+04  0.10566000000E+00 0. -1.
        994   -1    0    0    0    0 -0.00000000000E+00 -0.00000000000E+00  0.11368683772E-12  0.17120000000E+03  0.17120000000E+03 0.  0.
         13    1    1    2    0    0 -0.23726867610E+02 -0.13588271673E+02  0.13340743641E+03  0.13618061766E+03  0.10566000000E+00 0. -1.
        994    1    1    2    0    0  0.17652060736E+02  0.11779426036E+02  0.41856526592E+01  0.17256103214E+03  0.17120000000E+03 0.  0.
        998    1    1    2    0    0  0.60748068735E+01  0.18088456373E+01  0.13624069072E+04  0.13624583502E+04  0.10000000000E+02 0. -1.
</event>
<event>
 5    1  0.1338054E-008  0.3753912E+03  0.7957747E-01  0.3471475E+00
         13   -1    0    0    0    0  0.00000000000E+00  0.00000000000E+00  0.14999999963E+04  0.15000000000E+04  0.10566000000E+00 0.  1.
        994   -1    0    0    0    0 -0.00000000000E+00 -0.00000000000E+00  0.11368683772E-12  0.17120000000E+03  0.17120000000E+03 0.  0.
         13    1    1    2    0    0  0.40521636188E+02  0.46393298272E+02  0.36003809869E+03  0.36526946874E+03  0.10566000000E+00 0.  1.
        994    1    1    2    0    0 -0.25517667117E+02  0.61698305893E+01  0.88212351094E+01  0.17342569687E+03  0.17120000000E+03 0.  0.
        998    1    1    2    0    0 -0.15003969071E+02 -0.52563128861E+02  0.11311406625E+04  0.11325048344E+04  0.10000000000E+02 0. -1.
</event>
<event>
 5    1  0.1338054E-008  0.3740095E+03  0.7957747E-01  0.3477664E+00
         13   -1    0    0    0    0  0.00000000000E+00  0.00000000000E+00  0.14999999963E+04  0.15000000000E+04  0.10566000000E+00 0. -1.
        994   -1    0    0    0    0 -0.00000000000E+00 -0.00000000000E+00  0.11368683772E-12  0.17120000000E+03  0.17120000000E+03 0.  0.
         13    1    1    2    0    0 -0.35888032654E+02  0.98304497269E+01  0.88153327816E+02  0.95684946562E+02  0.10566000000E+00 0. -1.
        994    1    1    2    0    0  0.36915876914E+02 -0.12548488615E+02  0.12390870367E+02  0.17602051075E+03  0.17120000000E+03 0.  0.
        998    1    1    2    0    0 -0.10278442604E+01  0.27180388880E+01  0.13994557981E+04  0.13994945427E+04  0.10000000000E+02 0. -1.
</event>
<event>
 5    1  0.1338054E-008  0.3852754E+03  0.7957747E-01  0.3428505E+00
         13   -1    0    0    0    0  0.00000000000E+00  0.00000000000E+00  0.14999999963E+04  0.15000000000E+04  0.10566000000E+00 0.  1.
        994   -1    0    0    0    0 -0.00000000000E+00 -0.00000000000E+00  0.11368683772E-12  0.17120000000E+03  0.17120000000E+03 0.  0.
         13    1    1    2    0    0 -0.11479653600E+02  0.79284183252E+01  0.67770310082E+02  0.69191533850E+02  0.10566000000E+00 0.  1.
        994    1    1    2    0    0  0.46183902860E+00 -0.61380413324E+01  0.16179763901E+01  0.17131826142E+03  0.17120000000E+03 0.  0.
        998    1    1    2    0    0  0.11017814572E+02 -0.17903769928E+01  0.14306117098E+04  0.14306902047E+04  0.10000000000E+02 0.  1.
</event>
<event>
 5    1  0.1338054E-008  0.3852318E+03  0.7957747E-01  0.3428690E+00
         13   -1    0    0    0    0  0.00000000000E+00  0.00000000000E+00  0.14999999963E+04  0.15000000000E+04  0.10566000000E+00 0. -1.
        994   -1    0    0    0    0 -0.00000000000E+00 -0.00000000000E+00  0.11368683772E-12  0.17120000000E+03  0.17120000000E+03 0.  0.
         13    1    1    2    0    0 -0.14852884310E+02  0.18087225072E+01  0.72476000437E+02  0.74004469141E+02  0.10566000000E+00 0. -1.
        994    1    1    2    0    0  0.13314438711E+02  0.19738657743E+01  0.21106654474E+01  0.17174127440E+03  0.17120000000E+03 0.  0.
        998    1    1    2    0    0  0.15384455990E+01 -0.37825882816E+01  0.14254133304E+04  0.14254542565E+04  0.10000000000E+02 0. -1.
</event>
<event>
 5    1  0.1338054E-008  0.3809642E+03  0.7957747E-01  0.3446971E+00
         13   -1    0    0    0    0  0.00000000000E+00  0.00000000000E+00  0.14999999963E+04  0.15000000000E+04  0.10566000000E+00 0. -1.
        994   -1    0    0    0    0 -0.00000000000E+00 -0.00000000000E+00  0.11368683772E-12  0.17120000000E+03  0.17120000000E+03 0.  0.
         13    1    1    2    0    0  0.15103451025E+02 -0.18680305670E+02  0.79497191011E+02  0.83047471939E+02  0.10566000000E+00 0. -1.
        994    1    1    2    0    0 -0.40929668828E+01  0.10520891791E+02  0.40719805436E+01  0.17162011120E+03  0.17120000000E+03 0.  0.
        998    1    1    2    0    0 -0.11010484142E+02  0.81594138793E+01  0.14164308247E+04  0.14165324169E+04  0.10000000000E+02 0. -1.
</event>
<event>
 5    1  0.1338054E-008  0.3793931E+03  0.7957747E-01  0.3453805E+00
         13   -1    0    0    0    0  0.00000000000E+00  0.00000000000E+00  0.14999999963E+04  0.15000000000E+04  0.10566000000E+00 0.  1.
        994   -1    0    0    0    0 -0.00000000000E+00 -0.00000000000E+00  0.11368683772E-12  0.17120000000E+03  0.17120000000E+03 0.  0.
         13    1    1    2    0    0 -0.10939778564E+03 -0.10370744952E+03  0.87606329873E+03  0.88893758225E+03  0.10566000000E+00 0.  1.
        994    1    1    2    0    0  0.11295851374E+03  0.10453697634E+03  0.88369137379E+02  0.24658902994E+03  0.17120000000E+03 0.  0.
        998    1    1    2    0    0 -0.35607280970E+01 -0.82952682431E+00  0.53556756017E+03  0.53567338781E+03  0.10000000000E+02 0.  0.
</event>
<event>
 5    1  0.1338054E-008  0.3797658E+03  0.7957747E-01  0.3452179E+00
         13   -1    0    0    0    0  0.00000000000E+00  0.00000000000E+00  0.14999999963E+04  0.15000000000E+04  0.10566000000E+00 0. -1.
        994   -1    0    0    0    0 -0.00000000000E+00 -0.00000000000E+00  0.11368683772E-12  0.17120000000E+03  0.17120000000E+03 0.  0.
         13    1    1    2    0    0  0.27108110329E+02  0.57575117792E+01  0.92529839756E+02  0.96590791470E+02  0.10566000000E+00 0. -1.
        994    1    1    2    0    0 -0.14101358709E+02  0.22219620734E+02  0.65718136837E+01  0.17333547992E+03  0.17120000000E+03 0.  0.
        998    1    1    2    0    0 -0.13006751620E+02 -0.27977132513E+02  0.14008983428E+04  0.14012737286E+04  0.10000000000E+02 0. -1.
</event>
<event>
 5    1  0.1338054E-008  0.3803461E+03  0.7957747E-01  0.3449653E+00
         13   -1    0    0    0    0  0.00000000000E+00  0.00000000000E+00  0.14999999963E+04  0.15000000000E+04  0.10566000000E+00 0. -1.
        994   -1    0    0    0    0 -0.00000000000E+00 -0.00000000000E+00  0.11368683772E-12  0.17120000000E+03  0.17120000000E+03 0.  0.
         13    1    1    2    0    0 -0.10301081015E+02  0.65024007969E+01  0.17009897349E+02  0.20922267039E+02  0.10566000000E+00 0. -1.
        994    1    1    2    0    0  0.81480992888E+01 -0.59991613024E+01  0.43004938885E+01  0.17155266161E+03  0.17120000000E+03 0.  0.
        998    1    1    2    0    0  0.21529817259E+01 -0.50323949447E+00  0.14786896050E+04  0.14787250713E+04  0.10000000000E+02 0. -1.
</event>
<event>
 5    1  0.1338054E-008  0.3848645E+03  0.7957747E-01  0.3430247E+00
         13   -1    0    0    0    0  0.00000000000E+00  0.00000000000E+00  0.14999999963E+04  0.15000000000E+04  0.10566000000E+00 0. -1.
        994   -1    0    0    0    0 -0.00000000000E+00 -0.00000000000E+00  0.11368683772E-12  0.17120000000E+03  0.17120000000E+03 0.  0.
         13    1    1    2    0    0  0.15440049795E+02 -0.77768608598E+01  0.92284044734E+02  0.93889460425E+02  0.10566000000E+00 0. -1.
        994    1    1    2    0    0 -0.65235872031E+01 -0.22567345839E+01  0.18541950851E+01  0.17134914088E+03  0.17120000000E+03 0.  0.
        998    1    1    2    0    0 -0.89164625916E+01  0.10033595444E+02  0.14058617565E+04  0.14059613987E+04  0.10000000000E+02 0. -1.
</event>
<event>
 5    1  0.1338054E-008  0.3842414E+03  0.7957747E-01  0.3432896E+00
         13   -1    0    0    0    0  0.00000000000E+00  0.00000000000E+00  0.14999999963E+04  0.15000000000E+04  0.10566000000E+00 0. -1.
        994   -1    0    0    0    0 -0.00000000000E+00 -0.00000000000E+00  0.11368683772E-12  0.17120000000E+03  0.17120000000E+03 0.  0.
         13    1    1    2    0    0 -0.42203186166E+01  0.15669757270E+02  0.65320245654E+02  0.67306002989E+02  0.10566000000E+00 0. -1.
        994    1    1    2    0    0  0.46771004822E+01 -0.95612150014E+01  0.23808401210E+01  0.17154707955E+03  0.17120000000E+03 0.  0.
        998    1    1    2    0    0 -0.45678186554E+00 -0.61085422681E+01  0.14322989105E+04  0.14323469175E+04  0.10000000000E+02 0. -1.
</event>
<event>
 5    1  0.1338054E-008  0.3863117E+03  0.7957747E-01  0.3424128E+00
         13   -1    0    0    0    0  0.00000000000E+00  0.00000000000E+00  0.14999999963E+04  0.15000000000E+04  0.10566000000E+00 0. -1.
        994   -1    0    0    0    0 -0.00000000000E+00 -0.00000000000E+00  0.11368683772E-12  0.17120000000E+03  0.17120000000E+03 0.  0.
         13    1    1    2    0    0 -0.10525981629E+02 -0.44891407358E+01  0.67997769933E+02  0.68954017676E+02  0.10566000000E+00 0. -1.
        994    1    1    2    0    0  0.46616183144E+01  0.84282998372E+01  0.12841579536E+01  0.17147552591E+03  0.17120000000E+03 0.  0.
        998    1    1    2    0    0  0.58643633142E+01 -0.39391591014E+01  0.14307180684E+04  0.14307704564E+04  0.10000000000E+02 0. -1.
</event>
<event>
 5    1  0.1338054E-008  0.3756628E+03  0.7957747E-01  0.3470264E+00
         13   -1    0    0    0    0  0.00000000000E+00  0.00000000000E+00  0.14999999963E+04  0.15000000000E+04  0.10566000000E+00 0.  1.
        994   -1    0    0    0    0 -0.00000000000E+00 -0.00000000000E+00  0.11368683772E-12  0.17120000000E+03  0.17120000000E+03 0.  0.
         13    1    1    2    0    0  0.53494185111E+02 -0.59599534581E+01  0.20162152148E+03  0.20868252915E+03  0.10566000000E+00 0.  1.
        994    1    1    2    0    0 -0.49905764684E+02  0.61645446495E+01  0.14963454169E+02  0.17905845950E+03  0.17120000000E+03 0.  0.
        998    1    1    2    0    0 -0.35884204275E+01 -0.20459119141E+00  0.12834150206E+04  0.12834590113E+04  0.10000000000E+02 0.  1.
</event>
<event>
 5    1  0.1338054E-008  0.3811032E+03  0.7957747E-01  0.3446369E+00
         13   -1    0    0    0    0  0.00000000000E+00  0.00000000000E+00  0.14999999963E+04  0.15000000000E+04  0.10566000000E+00 0.  1.
        994   -1    0    0    0    0 -0.00000000000E+00 -0.00000000000E+00  0.11368683772E-12  0.17120000000E+03  0.17120000000E+03 0.  0.
         13    1    1    2    0    0 -0.40967713327E+02  0.13337468366E+02  0.22315023197E+03  0.22727137697E+03  0.10566000000E+00 0.  1.
        994    1    1    2    0    0  0.38922601371E+02 -0.18106448314E+02  0.97397609686E+01  0.17676853598E+03  0.17120000000E+03 0.  0.
        998    1    1    2    0    0  0.20451119558E+01  0.47689799478E+01  0.12671100033E+04  0.12671600871E+04  0.10000000000E+02 0.  0.
</event>
<event>
 5    1  0.1338054E-008  0.3776995E+03  0.7957747E-01  0.3461237E+00
         13   -1    0    0    0    0  0.00000000000E+00  0.00000000000E+00  0.14999999963E+04  0.15000000000E+04  0.10566000000E+00 0. -1.
        994   -1    0    0    0    0 -0.00000000000E+00 -0.00000000000E+00  0.11368683772E-12  0.17120000000E+03  0.17120000000E+03 0.  0.
         13    1    1    2    0    0 -0.22897373860E+02  0.72793830624E+02  0.27478248819E+03  0.28518179901E+03  0.10566000000E+00 0. -1.
        994    1    1    2    0    0  0.55976546672E+02 -0.12738687415E+03  0.73566156880E+02  0.23255581893E+03  0.17120000000E+03 0.  0.
        998    1    1    2    0    0 -0.33079172812E+02  0.54593043523E+02  0.11516513512E+04  0.11534623821E+04  0.10000000000E+02 0. -1.
</event>
<event>
 5    1  0.1338054E-008  0.3833598E+03  0.7957747E-01  0.3436658E+00
         13   -1    0    0    0    0  0.00000000000E+00  0.00000000000E+00  0.14999999963E+04  0.15000000000E+04  0.10566000000E+00 0.  1.
        994   -1    0    0    0    0 -0.00000000000E+00 -0.00000000000E+00  0.11368683772E-12  0.17120000000E+03  0.17120000000E+03 0.  0.
         13    1    1    2    0    0  0.20707864838E+02 -0.49910136191E+01  0.88626508860E+02  0.91150398353E+02  0.10566000000E+00 0.  1.
        994    1    1    2    0    0 -0.19514773491E+02  0.30012951860E+01  0.37365951929E+01  0.17237527752E+03  0.17120000000E+03 0.  0.
        998    1    1    2    0    0 -0.11930913473E+01  0.19897184331E+01  0.14076368922E+04  0.14076743241E+04  0.10000000000E+02 0.  1.
</event>
<event>
 5    1  0.1338054E-008  0.3732808E+03  0.7957747E-01  0.3480947E+00
         13   -1    0    0    0    0  0.00000000000E+00  0.00000000000E+00  0.14999999963E+04  0.15000000000E+04  0.10566000000E+00 0. -1.
        994   -1    0    0    0    0 -0.00000000000E+00 -0.00000000000E+00  0.11368683772E-12  0.17120000000E+03  0.17120000000E+03 0.  0.
         13    1    1    2    0    0  0.95724037763E+01 -0.51163789470E+02  0.24944670570E+03  0.25481961152E+03  0.10566000000E+00 0. -1.
        994    1    1    2    0    0 -0.13285637503E+03 -0.20467410963E+02  0.72110911790E+02  0.22930144984E+03  0.17120000000E+03 0.  0.
        998    1    1    2    0    0  0.12328397125E+03  0.71631200433E+02  0.11784423788E+04  0.11870789386E+04  0.10000000000E+02 0. -1.
</event>
<event>
 5    1  0.1338054E-008  0.3814043E+03  0.7957747E-01  0.3445067E+00
         13   -1    0    0    0    0  0.00000000000E+00  0.00000000000E+00  0.14999999963E+04  0.15000000000E+04  0.10566000000E+00 0.  1.
        994   -1    0    0    0    0 -0.00000000000E+00 -0.00000000000E+00  0.11368683772E-12  0.17120000000E+03  0.17120000000E+03 0.  0.
         13    1    1    2    0    0 -0.55601405993E+01 -0.12114530249E+02  0.24367905954E+02  0.27775583005E+02  0.10566000000E+00 0.  1.
        994    1    1    2    0    0  0.96149406258E+01  0.89656285396E+01  0.40012352613E+01  0.17175063162E+03  0.17120000000E+03 0.  0.
        998    1    1    2    0    0 -0.40548000265E+01  0.31489017093E+01  0.14716308551E+04  0.14716737854E+04  0.10000000000E+02 0.  1.
</event>
<event>
 5    1  0.1338054E-008  0.3747119E+03  0.7957747E-01  0.3474512E+00
         13   -1    0    0    0    0  0.00000000000E+00  0.00000000000E+00  0.14999999963E+04  0.15000000000E+04  0.10566000000E+00 0.  1.
        994   -1    0    0    0    0 -0.00000000000E+00 -0.00000000000E+00  0.11368683772E-12  0.17120000000E+03  0.17120000000E+03 0.  0.
         13    1    1    2    0    0 -0.27631538615E+02 -0.56030530064E+01  0.48041266228E+02  0.55703416000E+02  0.10566000000E+00 0.  1.
        994    1    1    2    0    0  0.65173631142E+02  0.38094083099E+01  0.21469766491E+02  0.18447900873E+03  0.17120000000E+03 0.  0.
        998    1    1    2    0    0 -0.37542092527E+02  0.17936446965E+01  0.14304889636E+04  0.14310175753E+04  0.10000000000E+02 0.  1.
</event>
<event>
 5    1  0.1338054E-008  0.3804903E+03  0.7957747E-01  0.3449026E+00
         13   -1    0    0    0    0  0.00000000000E+00  0.00000000000E+00  0.14999999963E+04  0.15000000000E+04  0.10566000000E+00 0. -1.
        994   -1    0    0    0    0 -0.00000000000E+00 -0.00000000000E+00  0.11368683772E-12  0.17120000000E+03  0.17120000000E+03 0.  0.
         13    1    1    2    0    0  0.17654076621E+02  0.17461036397E+02  0.74943719302E+02  0.78950151616E+02  0.10566000000E+00 0. -1.
        994    1    1    2    0    0 -0.26107771944E+02 -0.81088886686E+01  0.63841884965E+01  0.17348650580E+03  0.17120000000E+03 0.  0.
        998    1    1    2    0    0  0.84536953231E+01 -0.93521477284E+01  0.14186720885E+04  0.14187633426E+04  0.10000000000E+02 0. -1.
</event>
<event>
 5    1  0.1338054E-008  0.3841007E+03  0.7957747E-01  0.3433495E+00
         13   -1    0    0    0    0  0.00000000000E+00  0.00000000000E+00  0.14999999963E+04  0.15000000000E+04  0.10566000000E+00 0.  1.
        994   -1    0    0    0    0 -0.00000000000E+00 -0.00000000000E+00  0.11368683772E-12  0.17120000000E+03  0.17120000000E+03 0.  0.
         13    1    1    2    0    0 -0.57222225388E+01 -0.13995698707E+02  0.61359771126E+02  0.63195380288E+02  0.10566000000E+00 0.  1.
        994    1    1    2    0    0 -0.66490160097E+01 -0.89191936872E+01  0.24855672179E+01  0.17157907645E+03  0.17120000000E+03 0.  0.
        998    1    1    2    0    0  0.12371238548E+02  0.22914892395E+02  0.14361546579E+04  0.14364255433E+04  0.10000000000E+02 0.  1.
</event>
<event>
 5    1  0.1990441E-008  0.3850452E+03  0.7957747E-01  0.3429480E+00
         13   -1    0    0    0    0  0.00000000000E+00  0.00000000000E+00  0.14999999963E+04  0.15000000000E+04  0.10566000000E+00 0. -1.
        994   -1    0    0    0    0 -0.00000000000E+00 -0.00000000000E+00  0.11368683772E-12  0.17120000000E+03  0.17120000000E+03 0.  0.
         13    1    1    2    0    0  0.10561848717E+02  0.18867632174E+00  0.33500540972E+02  0.35126708592E+02  0.10566000000E+00 0. -1.
        994    1    1    2    0    0 -0.13722822044E+02 -0.10325550244E+01  0.22306612011E+01  0.17176669603E+03  0.17120000000E+03 0.  0.
        998    1    1    2    0    0  0.31609733273E+01  0.84387870262E+00  0.14642687941E+04  0.14643065954E+04  0.10000000000E+02 0. -1.
</event>
<event>
 5    1  0.1338054E-008  0.3718877E+03  0.7957747E-01  0.3487260E+00
         13   -1    0    0    0    0  0.00000000000E+00  0.00000000000E+00  0.14999999963E+04  0.15000000000E+04  0.10566000000E+00 0. -1.
        994   -1    0    0    0    0 -0.00000000000E+00 -0.00000000000E+00  0.11368683772E-12  0.17120000000E+03  0.17120000000E+03 0.  0.
         13    1    1    2    0    0  0.34272765450E+01 -0.22201834359E+03  0.12289259747E+04  0.12488246288E+04  0.10566000000E+00 0. -1.
        994    1    1    2    0    0 -0.22361733361E+02  0.20106682453E+03  0.16508658443E+03  0.31223538461E+03  0.17120000000E+03 0.  0.
        998    1    1    2    0    0  0.18934456816E+02  0.20951519064E+02  0.10598743719E+03  0.11013998660E+03  0.10000000000E+02 0.  1.
</event>
<event>
 5    1  0.1338054E-008  0.3839523E+03  0.7957747E-01  0.3434128E+00
         13   -1    0    0    0    0  0.00000000000E+00  0.00000000000E+00  0.14999999963E+04  0.15000000000E+04  0.10566000000E+00 0. -1.
        994   -1    0    0    0    0 -0.00000000000E+00 -0.00000000000E+00  0.11368683772E-12  0.17120000000E+03  0.17120000000E+03 0.  0.
         13    1    1    2    0    0 -0.23903200625E+02  0.11980317563E+02  0.13460345646E+03  0.13723335114E+03  0.10566000000E+00 0. -1.
        994    1    1    2    0    0  0.41578370337E+02 -0.13054378126E+02  0.84435464090E+01  0.17686127655E+03  0.17120000000E+03 0.  0.
        998    1    1    2    0    0 -0.17675169712E+02  0.10740605631E+01  0.13569529934E+04  0.13571053723E+04  0.10000000000E+02 0. -1.
</event>
<event>
 5    1  0.1338054E-008  0.3716693E+03  0.7957747E-01  0.3488254E+00
         13   -1    0    0    0    0  0.00000000000E+00  0.00000000000E+00  0.14999999963E+04  0.15000000000E+04  0.10566000000E+00 0. -1.
        994   -1    0    0    0    0 -0.00000000000E+00 -0.00000000000E+00  0.11368683772E-12  0.17120000000E+03  0.17120000000E+03 0.  0.
         13    1    1    2    0    0 -0.11062911050E+03 -0.18089642343E+02  0.42056345806E+03  0.43524667566E+03  0.10566000000E+00 0. -1.
        994    1    1    2    0    0  0.13155713427E+03  0.42471690018E+02  0.77265974222E+02  0.23321791270E+03  0.17120000000E+03 0.  0.
        998    1    1    2    0    0 -0.20928023775E+02 -0.24382047675E+02  0.10021705640E+04  0.10027354116E+04  0.10000000000E+02 0. -1.
</event>
<event>
 5    1  0.1338054E-008  0.3879466E+03  0.7957747E-01  0.3417271E+00
         13   -1    0    0    0    0  0.00000000000E+00  0.00000000000E+00  0.14999999963E+04  0.15000000000E+04  0.10566000000E+00 0.  1.
        994   -1    0    0    0    0 -0.00000000000E+00 -0.00000000000E+00  0.11368683772E-12  0.17120000000E+03  0.17120000000E+03 0.  0.
         13    1    1    2    0    0 -0.15389664943E+02 -0.29290995889E+02  0.17393266239E+02  0.37381025959E+02  0.10566000000E+00 0.  1.
        994    1    1    2    0    0  0.14090533139E+02  0.34086475030E+02  0.25857303063E+02  0.17702675229E+03  0.17120000000E+03 0.  0.
        998    1    1    2    0    0  0.12991318045E+01 -0.47954791404E+01  0.14567494270E+04  0.14567922218E+04  0.10000000000E+02 0.  1.
</event>
<event>
 5    1  0.1338054E-008  0.3856645E+03  0.7957747E-01  0.3426859E+00
         13   -1    0    0    0    0  0.00000000000E+00  0.00000000000E+00  0.14999999963E+04  0.15000000000E+04  0.10566000000E+00 0.  1.
        994   -1    0    0    0    0 -0.00000000000E+00 -0.00000000000E+00  0.11368683772E-12  0.17120000000E+03  0.17120000000E+03 0.  0.
         13    1    1    2    0    0 -0.10052483309E+02  0.32151207044E+01  0.43829690451E+02  0.45082616948E+02  0.10566000000E+00 0.  1.
        994    1    1    2    0    0  0.47053580241E+01  0.10986190607E+01  0.13772243913E+01  0.17127371107E+03  0.17120000000E+03 0.  0.
        998    1    1    2    0    0  0.53471252847E+01 -0.43137397650E+01  0.14547930814E+04  0.14548436720E+04  0.10000000000E+02 0.  1.
</event>
<event>
 5    1  0.1338054E-008  0.3739817E+03  0.7957747E-01  0.3477789E+00
         13   -1    0    0    0    0  0.00000000000E+00  0.00000000000E+00  0.14999999963E+04  0.15000000000E+04  0.10566000000E+00 0. -1.
        994   -1    0    0    0    0 -0.00000000000E+00 -0.00000000000E+00  0.11368683772E-12  0.17120000000E+03  0.17120000000E+03 0.  0.
         13    1    1    2    0    0 -0.64189031013E+02 -0.18606213269E+02  0.26633326393E+03  0.27459031577E+03  0.10566000000E+00 0. -1.
        994    1    1    2    0    0  0.57837936996E+02  0.15837939574E+02  0.19569259664E+02  0.18245126256E+03  0.17120000000E+03 0.  0.
        998    1    1    2    0    0  0.63510940169E+01  0.27682736952E+01  0.12140974727E+04  0.12141584217E+04  0.10000000000E+02 0. -1.
</event>
<event>
 5    1  0.1338054E-008  0.3847981E+03  0.7957747E-01  0.3430529E+00
         13   -1    0    0    0    0  0.00000000000E+00  0.00000000000E+00  0.14999999963E+04  0.15000000000E+04  0.10566000000E+00 0.  1.
        994   -1    0    0    0    0 -0.00000000000E+00 -0.00000000000E+00  0.11368683772E-12  0.17120000000E+03  0.17120000000E+03 0.  0.
         13    1    1    2    0    0 -0.80345251458E+01  0.86581476467E+01  0.40966762284E+02  0.42635711452E+02  0.10566000000E+00 0.  1.
        994    1    1    2    0    0  0.15424806684E+01 -0.35381195538E+01  0.17794598734E+01  0.17125274892E+03  0.17120000000E+03 0.  0.
        998    1    1    2    0    0  0.64920444775E+01 -0.51200280929E+01  0.14572537741E+04  0.14573115396E+04  0.10000000000E+02 0.  1.
</event>
<event>
 5    1  0.1338054E-008  0.3756070E+03  0.7957747E-01  0.3470512E+00
         13   -1    0    0    0    0  0.00000000000E+00  0.00000000000E+00  0.14999999963E+04  0.15000000000E+04  0.10566000000E+00 0. -1.
        994   -1    0    0    0    0 -0.00000000000E+00 -0.00000000000E+00  0.11368683772E-12  0.17120000000E+03  0.17120000000E+03 0.  0.
         13    1    1    2    0    0 -0.46306060341E+02  0.12085507999E+03  0.67212730294E+03  0.68447448755E+03  0.10566000000E+00 0. -1.
        994    1    1    2    0    0  0.45517343680E+02 -0.12234162610E+03  0.66555205634E+02  0.22534049226E+03  0.17120000000E+03 0.  0.
        998    1    1    2    0    0  0.78871666163E+00  0.14865461134E+01  0.76131748770E+03  0.76138502019E+03  0.10000000000E+02 0. -1.
</event>
<event>
 5    1  0.1338054E-008  0.2698548E+03  0.7957747E-01  0.4137895E+00
         13   -1    0    0    0    0  0.00000000000E+00  0.00000000000E+00  0.14999999963E+04  0.15000000000E+04  0.10566000000E+00 0.  1.
        994   -1    0    0    0    0 -0.00000000000E+00 -0.00000000000E+00  0.11368683772E-12  0.17120000000E+03  0.17120000000E+03 0.  0.
         13    1    1    2    0    0  0.35197845037E+02  0.16457812918E+03  0.49221503275E+03  0.52019275132E+03  0.10566000000E+00 0.  1.
        994    1    1    2    0    0 -0.85705855176E+01 -0.13777434056E+03  0.98649174838E+02  0.24103178950E+03  0.17120000000E+03 0.  0.
        998    1    1    2    0    0 -0.26627259519E+02 -0.26803788618E+02  0.90913578869E+03  0.90997545918E+03  0.10000000000E+02 0.  0.
</event>
<event>
 5    1  0.1338054E-008  0.3828136E+03  0.7957747E-01  0.3438998E+00
         13   -1    0    0    0    0  0.00000000000E+00  0.00000000000E+00  0.14999999963E+04  0.15000000000E+04  0.10566000000E+00 0.  1.
        994   -1    0    0    0    0 -0.00000000000E+00 -0.00000000000E+00  0.11368683772E-12  0.17120000000E+03  0.17120000000E+03 0.  0.
         13    1    1    2    0    0 -0.92003042537E+01 -0.74684054361E+01  0.24693082230E+02  0.27389453302E+02  0.10566000000E+00 0.  1.
        994    1    1    2    0    0  0.74394187482E+01  0.66198216748E+01  0.30480911955E+01  0.17151646525E+03  0.17120000000E+03 0.  0.
        998    1    1    2    0    0  0.17608855056E+01  0.84858376133E+00  0.14722588229E+04  0.14722940815E+04  0.10000000000E+02 0.  1.
</event>
<event>
 5    1  0.1338054E-008  0.3839512E+03  0.7957747E-01  0.3434132E+00
         13   -1    0    0    0    0  0.00000000000E+00  0.00000000000E+00  0.14999999963E+04  0.15000000000E+04  0.10566000000E+00 0. -1.
        994   -1    0    0    0    0 -0.00000000000E+00 -0.00000000000E+00  0.11368683772E-12  0.17120000000E+03  0.17120000000E+03 0.  0.
         13    1    1    2    0    0  0.12131593363E+02 -0.21824936820E+02  0.13715118456E+03  0.13940574599E+03  0.10566000000E+00 0. -1.
        994    1    1    2    0    0 -0.27926924276E+01  0.23277131704E+02  0.39675141581E+01  0.17284329654E+03  0.17120000000E+03 0.  0.
        998    1    1    2    0    0 -0.93389009358E+01 -0.14521948838E+01  0.13588812976E+04  0.13589509575E+04  0.10000000000E+02 0. -1.
</event>
<event>
 5    1  0.1338054E-008  0.3727728E+03  0.7957747E-01  0.3483244E+00
         13   -1    0    0    0    0  0.00000000000E+00  0.00000000000E+00  0.14999999963E+04  0.15000000000E+04  0.10566000000E+00 0.  1.
        994   -1    0    0    0    0 -0.00000000000E+00 -0.00000000000E+00  0.11368683772E-12  0.17120000000E+03  0.17120000000E+03 0.  0.
         13    1    1    2    0    0  0.38613946492E+02  0.33453585980E+02  0.22781411594E+03  0.23347261481E+03  0.10566000000E+00 0.  1.
        994    1    1    2    0    0  0.27442565033E+02  0.16570821085E+01  0.10419955681E+02  0.17370623412E+03  0.17120000000E+03 0.  0.
        998    1    1    2    0    0 -0.66056511525E+02 -0.35110668089E+02  0.12617659247E+04  0.12640211511E+04  0.10000000000E+02 0.  1.
</event>
<event>
 5    1  0.1338054E-008  0.2979086E+03  0.7957747E-01  0.3911064E+00
         13   -1    0    0    0    0  0.00000000000E+00  0.00000000000E+00  0.14999999963E+04  0.15000000000E+04  0.10566000000E+00 0.  1.
        994   -1    0    0    0    0 -0.00000000000E+00 -0.00000000000E+00  0.11368683772E-12  0.17120000000E+03  0.17120000000E+03 0.  0.
         13    1    1    2    0    0  0.19804988179E+03 -0.10702437657E+03  0.48496231332E+03  0.53466478224E+03  0.10566000000E+00 0.  1.
        994    1    1    2    0    0 -0.21472335608E+03  0.96957963911E+02  0.28941338957E+03  0.41058070641E+03  0.17120000000E+03 0.  0.
        998    1    1    2    0    0  0.16673474287E+02  0.10066412659E+02  0.72562429338E+03  0.72595451135E+03  0.10000000000E+02 0.  1.
</event>
<event>
 5    1  0.1338054E-008  0.3837784E+03  0.7957747E-01  0.3434870E+00
         13   -1    0    0    0    0  0.00000000000E+00  0.00000000000E+00  0.14999999963E+04  0.15000000000E+04  0.10566000000E+00 0.  1.
        994   -1    0    0    0    0 -0.00000000000E+00 -0.00000000000E+00  0.11368683772E-12  0.17120000000E+03  0.17120000000E+03 0.  0.
         13    1    1    2    0    0 -0.18478059310E+02  0.11031165675E+02  0.10680129726E+03  0.10894793965E+03  0.10566000000E+00 0.  1.
        994    1    1    2    0    0  0.79544589910E+01 -0.27345875281E+01  0.24714766755E+01  0.17142432611E+03  0.17120000000E+03 0.  0.
        998    1    1    2    0    0  0.10523600319E+02 -0.82965781467E+01  0.13907272223E+04  0.13908277342E+04  0.10000000000E+02 0.  1.
</event>
<event>
 5    1  0.1338054E-008  0.3689229E+03  0.7957747E-01  0.3500856E+00
         13   -1    0    0    0    0  0.00000000000E+00  0.00000000000E+00  0.14999999963E+04  0.15000000000E+04  0.10566000000E+00 0. -1.
        994   -1    0    0    0    0 -0.00000000000E+00 -0.00000000000E+00  0.11368683772E-12  0.17120000000E+03  0.17120000000E+03 0.  0.
         13    1    1    2    0    0  0.13438079282E+02 -0.21510286414E+01  0.43317861618E+01  0.14282311941E+02  0.10566000000E+00 0. -1.
        994    1    1    2    0    0  0.47393649117E+01  0.17921036272E+02  0.11568076248E+02  0.17258877573E+03  0.17120000000E+03 0.  0.
        998    1    1    2    0    0 -0.18177444194E+02 -0.15770007631E+02  0.14841001339E+04  0.14843289123E+04  0.10000000000E+02 0. -1.
</event>
<event>
 5    1  0.1338054E-008  0.3851482E+03  0.7957747E-01  0.3429044E+00
         13   -1    0    0    0    0  0.00000000000E+00  0.00000000000E+00  0.14999999963E+04  0.15000000000E+04  0.10566000000E+00 0.  1.
        994   -1    0    0    0    0 -0.00000000000E+00 -0.00000000000E+00  0.11368683772E-12  0.17120000000E+03  0.17120000000E+03 0.  0.
         13    1    1    2    0    0 -0.85568031630E+01 -0.13907655796E+02  0.88193155035E+02  0.89692170947E+02  0.10566000000E+00 0.  1.
        994    1    1    2    0    0  0.71443888092E+01  0.37851108320E+01  0.17714758324E+01  0.17139996348E+03  0.17120000000E+03 0.  0.
        998    1    1    2    0    0  0.14124143538E+01  0.10122544964E+02  0.14100353654E+04  0.14101078656E+04  0.10000000000E+02 0.  1.
</event>
<event>
 5    1  0.1338054E-008  0.3791653E+03  0.7957747E-01  0.3454801E+00
         13   -1    0    0    0    0  0.00000000000E+00  0.00000000000E+00  0.14999999963E+04  0.15000000000E+04  0.10566000000E+00 0.  1.
        994   -1    0    0    0    0 -0.00000000000E+00 -0.00000000000E+00  0.11368683772E-12  0.17120000000E+03  0.17120000000E+03 0.  0.
         13    1    1    2    0    0 -0.10378895419E+03 -0.70456218605E+02  0.55659081875E+03  0.57055199275E+03  0.10566000000E+00 0.  1.
        994    1    1    2    0    0  0.46569860010E+02  0.36335789839E+02  0.28583491291E+02  0.18334529571E+03  0.17120000000E+03 0.  0.
        998    1    1    2    0    0  0.57219094176E+02  0.34120428766E+02  0.91482568624E+03  0.91730271154E+03  0.10000000000E+02 0.  1.
</event>
<event>
 5    1  0.1338054E-008  0.3823707E+03  0.7957747E-01  0.3440900E+00
         13   -1    0    0    0    0  0.00000000000E+00  0.00000000000E+00  0.14999999963E+04  0.15000000000E+04  0.10566000000E+00 0. -1.
        994   -1    0    0    0    0 -0.00000000000E+00 -0.00000000000E+00  0.11368683772E-12  0.17120000000E+03  0.17120000000E+03 0.  0.
         13    1    1    2    0    0 -0.12915280022E+02 -0.68655711709E+01  0.35458474718E+02  0.38356943555E+02  0.10566000000E+00 0. -1.
        994    1    1    2    0    0  0.97689817679E+01  0.82077943411E+00  0.32600114116E+01  0.17151144090E+03  0.17120000000E+03 0.  0.
        998    1    1    2    0    0  0.31462982539E+01  0.60447917368E+01  0.14612815101E+04  0.14613316155E+04  0.10000000000E+02 0. -1.
</event>
<event>
 5    1  0.1338054E-008  0.2296607E+03  0.7957747E-01  0.4575515E+00
         13   -1    0    0    0    0  0.00000000000E+00  0.00000000000E+00  0.14999999963E+04  0.15000000000E+04  0.10566000000E+00 0.  1.
        994   -1    0    0    0    0 -0.00000000000E+00 -0.00000000000E+00  0.11368683772E-12  0.17120000000E+03  0.17120000000E+03 0.  0.
         13    1    1    2    0    0  0.58927614854E+02  0.33091785607E+02 -0.11265925586E+02  0.68516146347E+02  0.10566000000E+00 0.  1.
        994    1    1    2    0    0 -0.82261173623E+02 -0.50744426311E+02  0.16669312146E+03  0.25775557071E+03  0.17120000000E+03 0.  0.
        998    1    1    2    0    0  0.23333558770E+02  0.17652640704E+02  0.13445728004E+04  0.13449282829E+04  0.10000000000E+02 0.  1.
</event>
<event>
 5    1  0.1338054E-008  0.3839032E+03  0.7957747E-01  0.3434337E+00
         13   -1    0    0    0    0  0.00000000000E+00  0.00000000000E+00  0.14999999963E+04  0.15000000000E+04  0.10566000000E+00 0. -1.
        994   -1    0    0    0    0 -0.00000000000E+00 -0.00000000000E+00  0.11368683772E-12  0.17120000000E+03  0.17120000000E+03 0.  0.
         13    1    1    2    0    0  0.53176577728E+01 -0.15076850536E+02  0.62152993014E+02  0.64176277634E+02  0.10566000000E+00 0. -1.
        994    1    1    2    0    0  0.11921568591E+02  0.29540744015E+01  0.26736707831E+01  0.17166082508E+03  0.17120000000E+03 0.  0.
        998    1    1    2    0    0 -0.17239226363E+02  0.12122776135E+02  0.14351733325E+04  0.14353628973E+04  0.10000000000E+02 0. -1.
</event>
<event>
 5    1  0.1338054E-008  0.3764080E+03  0.7957747E-01  0.3466950E+00
         13   -1    0    0    0    0  0.00000000000E+00  0.00000000000E+00  0.14999999963E+04  0.15000000000E+04  0.10566000000E+00 0. -1.
        994   -1    0    0    0    0 -0.00000000000E+00 -0.00000000000E+00  0.11368683772E-12  0.17120000000E+03  0.17120000000E+03 0.  0.
         13    1    1    2    0    0 -0.83756060588E+02 -0.78173182053E+02  0.58860493943E+03  0.59965149042E+03  0.10566000000E+00 0. -1.
        994    1    1    2    0    0  0.86429371342E+02  0.85211075041E+02  0.57542346239E+02  0.21760405592E+03  0.17120000000E+03 0.  0.
        998    1    1    2    0    0 -0.26733107542E+01 -0.70378929881E+01  0.85385271061E+03  0.85394445367E+03  0.10000000000E+02 0. -1.
</event>
<event>
 5    1  0.1338054E-008  0.3801713E+03  0.7957747E-01  0.3450413E+00
         13   -1    0    0    0    0  0.00000000000E+00  0.00000000000E+00  0.14999999963E+04  0.15000000000E+04  0.10566000000E+00 0.  1.
        994   -1    0    0    0    0 -0.00000000000E+00 -0.00000000000E+00  0.11368683772E-12  0.17120000000E+03  0.17120000000E+03 0.  0.
         13    1    1    2    0    0 -0.73643106884E+01 -0.82607446119E+01  0.13297772804E+02  0.17300719610E+02  0.10566000000E+00 0.  1.
        994    1    1    2    0    0  0.10533662710E+02  0.46822845373E+01  0.44907910385E+01  0.17164640702E+03  0.17120000000E+03 0.  0.
        998    1    1    2    0    0 -0.31693520220E+01  0.35784600747E+01  0.14822114324E+04  0.14822528734E+04  0.10000000000E+02 0.  1.
</event>
<event>
 5    1  0.1338054E-008  0.3806393E+03  0.7957747E-01  0.3448380E+00
         13   -1    0    0    0    0  0.00000000000E+00  0.00000000000E+00  0.14999999963E+04  0.15000000000E+04  0.10566000000E+00 0.  1.
        994   -1    0    0    0    0 -0.00000000000E+00 -0.00000000000E+00  0.11368683772E-12  0.17120000000E+03  0.17120000000E+03 0.  0.
         13    1    1    2    0    0  0.18889090780E+02 -0.35147044429E+02  0.19444422240E+03  0.19849604346E+03  0.10566000000E+00 0.  1.
        994    1    1    2    0    0 -0.12291630233E+02  0.29548547055E+02  0.72349222148E+01  0.17431576207E+03  0.17120000000E+03 0.  0.
        998    1    1    2    0    0 -0.65974605468E+01  0.55984973738E+01  0.12983208517E+04  0.12983881945E+04  0.10000000000E+02 0.  1.
</event>
<event>
 5    1  0.1338054E-008  0.3810056E+03  0.7957747E-01  0.3446791E+00
         13   -1    0    0    0    0  0.00000000000E+00  0.00000000000E+00  0.14999999963E+04  0.15000000000E+04  0.10566000000E+00 0. -1.
        994   -1    0    0    0    0 -0.00000000000E+00 -0.00000000000E+00  0.11368683772E-12  0.17120000000E+03  0.17120000000E+03 0.  0.
         13    1    1    2    0    0 -0.17437586492E+02 -0.13753181607E+01  0.42416273911E+02  0.45881503672E+02  0.10566000000E+00 0. -1.
        994    1    1    2    0    0  0.74649424193E+00  0.85735707975E+01  0.38731780976E+01  0.17145992208E+03  0.17120000000E+03 0.  0.
        998    1    1    2    0    0  0.16691092250E+02 -0.71982526368E+01  0.14537105443E+04  0.14538585743E+04  0.10000000000E+02 0. -1.
</event>
<event>
 5    1  0.1338054E-008  0.3812412E+03  0.7957747E-01  0.3445772E+00
         13   -1    0    0    0    0  0.00000000000E+00  0.00000000000E+00  0.14999999963E+04  0.15000000000E+04  0.10566000000E+00 0. -1.
        994   -1    0    0    0    0 -0.00000000000E+00 -0.00000000000E+00  0.11368683772E-12  0.17120000000E+03  0.17120000000E+03 0.  0.
         13    1    1    2    0    0  0.15518740601E+03  0.13381110848E+03  0.10043507335E+04  0.10250409507E+04  0.10566000000E+00 0. -1.
        994    1    1    2    0    0 -0.14657595763E+03 -0.17866355564E+03  0.20849858208E+03  0.35522707695E+03  0.17120000000E+03 0.  0.
        998    1    1    2    0    0 -0.86114483880E+01  0.44852447164E+02  0.28715068074E+03  0.29093197230E+03  0.10000000000E+02 0. -1.
</event>
<event>
 5    1  0.1338054E-008  0.3730793E+03  0.7957747E-01  0.3481858E+00
         13   -1    0    0    0    0  0.00000000000E+00  0.00000000000E+00  0.14999999963E+04  0.15000000000E+04  0.10566000000E+00 0.  1.
        994   -1    0    0    0    0 -0.00000000000E+00 -0.00000000000E+00  0.11368683772E-12  0.17120000000E+03  0.17120000000E+03 0.  0.
         13    1    1    2    0    0 -0.36536844344E+02 -0.20721578847E+02  0.11664330758E+03  0.12397579276E+03  0.10566000000E+00 0.  1.
        994    1    1    2    0    0  0.22205408424E+01  0.31024511816E+02  0.10985536000E+02  0.17434899809E+03  0.17120000000E+03 0.  0.
        998    1    1    2    0    0  0.34316303501E+02 -0.10302932969E+02  0.13723711527E+04  0.13728752091E+04  0.10000000000E+02 0.  1.
</event>
<event>
 5    1  0.1338054E-008  0.3831956E+03  0.7957747E-01  0.3437361E+00
         13   -1    0    0    0    0  0.00000000000E+00  0.00000000000E+00  0.14999999963E+04  0.15000000000E+04  0.10566000000E+00 0. -1.
        994   -1    0    0    0    0 -0.00000000000E+00 -0.00000000000E+00  0.11368683772E-12  0.17120000000E+03  0.17120000000E+03 0.  0.
         13    1    1    2    0    0 -0.15443288548E+02 -0.18727864028E+01  0.47901852178E+02  0.50364681039E+02  0.10566000000E+00 0. -1.
        994    1    1    2    0    0  0.71022360989E+01 -0.34425828721E+01  0.27347212165E+01  0.17140365175E+03  0.17120000000E+03 0.  0.
        998    1    1    2    0    0  0.83410524496E+01  0.53153692750E+01  0.14493634229E+04  0.14494316672E+04  0.10000000000E+02 0. -1.
</event>
<event>
 5    1  0.1338054E-008  0.3733142E+03  0.7957747E-01  0.3480797E+00
         13   -1    0    0    0    0  0.00000000000E+00  0.00000000000E+00  0.14999999963E+04  0.15000000000E+04  0.10566000000E+00 0.  1.
        994   -1    0    0    0    0 -0.00000000000E+00 -0.00000000000E+00  0.11368683772E-12  0.17120000000E+03  0.17120000000E+03 0.  0.
         13    1    1    2    0    0 -0.67785357121E+01 -0.59384053176E+02  0.21368585221E+03  0.22188751410E+03  0.10566000000E+00 0.  1.
        994    1    1    2    0    0  0.66009770136E+01  0.49977034071E+02  0.16285024530E+02  0.17920914836E+03  0.17120000000E+03 0.  0.
        998    1    1    2    0    0  0.17755869850E+00  0.94070191051E+01  0.12700291195E+04  0.12701033375E+04  0.10000000000E+02 0.  1.
</event>
<event>
 5    1  0.1338054E-008  0.3692055E+03  0.7957747E-01  0.3499550E+00
         13   -1    0    0    0    0  0.00000000000E+00  0.00000000000E+00  0.14999999963E+04  0.15000000000E+04  0.10566000000E+00 0. -1.
        994   -1    0    0    0    0 -0.00000000000E+00 -0.00000000000E+00  0.11368683772E-12  0.17120000000E+03  0.17120000000E+03 0.  0.
         13    1    1    2    0    0 -0.24818579523E+02 -0.69478268696E+02  0.20476140060E+03  0.21764749953E+03  0.10566000000E+00 0. -1.
        994    1    1    2    0    0  0.33617960427E+02  0.81286886141E+02  0.38004666590E+02  0.19619255797E+03  0.17120000000E+03 0.  0.
        998    1    1    2    0    0 -0.87993809037E+01 -0.11808617445E+02  0.12572339291E+04  0.12573599425E+04  0.10000000000E+02 0. -1.
</event>
<event>
 5    1  0.1338054E-008  0.3813705E+03  0.7957747E-01  0.3445213E+00
         13   -1    0    0    0    0  0.00000000000E+00  0.00000000000E+00  0.14999999963E+04  0.15000000000E+04  0.10566000000E+00 0. -1.
        994   -1    0    0    0    0 -0.00000000000E+00 -0.00000000000E+00  0.11368683772E-12  0.17120000000E+03  0.17120000000E+03 0.  0.
         13    1    1    2    0    0  0.15915454008E+02 -0.17912367820E+02  0.80930171412E+02  0.84402952591E+02  0.10566000000E+00 0. -1.
        994    1    1    2    0    0 -0.15582547810E+02  0.10403473003E+02  0.46120446904E+01  0.17228394877E+03  0.17120000000E+03 0.  0.
        998    1    1    2    0    0 -0.33290619764E+00  0.75088948171E+01  0.14144577802E+04  0.14145130986E+04  0.10000000000E+02 0. -1.
</event>
<event>
 5    1  0.1338054E-008  0.3762477E+03  0.7957747E-01  0.3467661E+00
         13   -1    0    0    0    0  0.00000000000E+00  0.00000000000E+00  0.14999999963E+04  0.15000000000E+04  0.10566000000E+00 0.  1.
        994   -1    0    0    0    0 -0.00000000000E+00 -0.00000000000E+00  0.11368683772E-12  0.17120000000E+03  0.17120000000E+03 0.  0.
         13    1    1    2    0    0  0.32460786585E+03  0.99796949757E+02  0.83210815956E+03  0.89874006149E+03  0.10566000000E+00 0.  1.
        994    1    1    2    0    0 -0.30196116788E+03 -0.10370563361E+03  0.61166364923E+03  0.71089891345E+03  0.17120000000E+03 0.  0.
        998    1    1    2    0    0 -0.22646697972E+02  0.39086838550E+01  0.56228187488E+02  0.61561025062E+02  0.10000000000E+02 0. -1.
</event>
<event>
 5    1  0.1338054E-008  0.3392811E+03  0.7957747E-01  0.3650192E+00
         13   -1    0    0    0    0  0.00000000000E+00  0.00000000000E+00  0.14999999963E+04  0.15000000000E+04  0.10566000000E+00 0.  1.
        994   -1    0    0    0    0 -0.00000000000E+00 -0.00000000000E+00  0.11368683772E-12  0.17120000000E+03  0.17120000000E+03 0.  0.
         13    1    1    2    0    0 -0.28127637362E+02  0.22283725216E+03  0.97167534384E+03  0.99729664089E+03  0.10566000000E+00 0.  1.
        994    1    1    2    0    0  0.39282581483E+02 -0.17346659918E+03  0.14331310301E+03  0.28545028942E+03  0.17120000000E+03 0.  0.
        998    1    1    2    0    0 -0.11154944121E+02 -0.49370652981E+02  0.38501154943E+03  0.38845306969E+03  0.10000000000E+02 0.  1.
</event>
<event>
 5    1  0.1338054E-008  0.3789672E+03  0.7957747E-01  0.3455668E+00
         13   -1    0    0    0    0  0.00000000000E+00  0.00000000000E+00  0.14999999963E+04  0.15000000000E+04  0.10566000000E+00 0. -1.
        994   -1    0    0    0    0 -0.00000000000E+00 -0.00000000000E+00  0.11368683772E-12  0.17120000000E+03  0.17120000000E+03 0.  0.
         13    1    1    2    0    0 -0.20073301084E+02 -0.77102163914E+01  0.48310125313E+02  0.52879714683E+02  0.10566000000E+00 0. -1.
        994    1    1    2    0    0  0.13667081691E+02 -0.32698754719E+01  0.53181078223E+01  0.17185809111E+03  0.17120000000E+03 0.  0.
        998    1    1    2    0    0  0.64062193931E+01  0.10980091863E+02  0.14463717631E+04  0.14464621942E+04  0.10000000000E+02 0. -1.
</event>
<event>
 5    1  0.1338054E-008  0.3843433E+03  0.7957747E-01  0.3432462E+00
         13   -1    0    0    0    0  0.00000000000E+00  0.00000000000E+00  0.14999999963E+04  0.15000000000E+04  0.10566000000E+00 0.  1.
        994   -1    0    0    0    0 -0.00000000000E+00 -0.00000000000E+00  0.11368683772E-12  0.17120000000E+03  0.17120000000E+03 0.  0.
         13    1    1    2    0    0  0.21097421328E+01  0.14260691084E+02  0.51375312867E+02  0.53359650095E+02  0.10566000000E+00 0.  1.
        994    1    1    2    0    0 -0.71928412484E+01 -0.13879148021E+02  0.27623000760E+01  0.17193440033E+03  0.17120000000E+03 0.  0.
        998    1    1    2    0    0  0.50830991156E+01 -0.38154306373E+00  0.14458623833E+04  0.14459059496E+04  0.10000000000E+02 0.  1.
</event>
<event>
 5    1  0.1338054E-008  0.3828165E+03  0.7957747E-01  0.3438986E+00
         13   -1    0    0    0    0  0.00000000000E+00  0.00000000000E+00  0.14999999963E+04  0.15000000000E+04  0.10566000000E+00 0. -1.
        994   -1    0    0    0    0 -0.00000000000E+00 -0.00000000000E+00  0.11368683772E-12  0.17120000000E+03  0.17120000000E+03 0.  0.
         13    1    1    2    0    0  0.36790584047E+01  0.13533160303E+02  0.36473306145E+02  0.39076784972E+02  0.10566000000E+00 0. -1.
        994    1    1    2    0    0  0.28728192315E+01 -0.17021208273E+01  0.27550284683E+01  0.17125472399E+03  0.17120000000E+03 0.  0.
        998    1    1    2    0    0 -0.65518776362E+01 -0.11831039476E+02  0.14607716617E+04  0.14608684910E+04  0.10000000000E+02 0. -1.
</event>
<event>
 5    1  0.1338054E-008  0.3754477E+03  0.7957747E-01  0.3471223E+00
         13   -1    0    0    0    0  0.00000000000E+00  0.00000000000E+00  0.14999999963E+04  0.15000000000E+04  0.10566000000E+00 0. -1.
        994   -1    0    0    0    0 -0.00000000000E+00 -0.00000000000E+00  0.11368683772E-12  0.17120000000E+03  0.17120000000E+03 0.  0.
         13    1    1    2    0    0 -0.60597607948E+01 -0.17417300826E+02  0.22157398508E+02  0.28827843166E+02  0.10566000000E+00 0. -1.
        994    1    1    2    0    0 -0.32982766710E+02  0.50418776651E+02  0.18870460816E+02  0.18247040919E+03  0.17120000000E+03 0.  0.
        998    1    1    2    0    0  0.39042527505E+02 -0.33001475825E+02  0.14589721370E+04  0.14599017476E+04  0.10000000000E+02 0. -1.
</event>
<event>
 5    1  0.1338054E-008  0.3798428E+03  0.7957747E-01  0.3451843E+00
         13   -1    0    0    0    0  0.00000000000E+00  0.00000000000E+00  0.14999999963E+04  0.15000000000E+04  0.10566000000E+00 0. -1.
        994   -1    0    0    0    0 -0.00000000000E+00 -0.00000000000E+00  0.11368683772E-12  0.17120000000E+03  0.17120000000E+03 0.  0.
         13    1    1    2    0    0 -0.11096581706E+02 -0.41826377924E+02  0.18970373225E+03  0.19457671292E+03  0.10566000000E+00 0. -1.
        994    1    1    2    0    0  0.78285379641E+01  0.46420112730E+02  0.11660561943E+02  0.17793684716E+03  0.17120000000E+03 0.  0.
        998    1    1    2    0    0  0.32680437422E+01 -0.45937348062E+01  0.12986357021E+04  0.12986864399E+04  0.10000000000E+02 0. -1.
</event>
<event>
 5    1  0.1338054E-008  0.3800869E+03  0.7957747E-01  0.3450780E+00
         13   -1    0    0    0    0  0.00000000000E+00  0.00000000000E+00  0.14999999963E+04  0.15000000000E+04  0.10566000000E+00 0. -1.
        994   -1    0    0    0    0 -0.00000000000E+00 -0.00000000000E+00  0.11368683772E-12  0.17120000000E+03  0.17120000000E+03 0.  0.
         13    1    1    2    0    0  0.15942419151E+02  0.46346487008E+01  0.30829729575E+02  0.35016054699E+02  0.10566000000E+00 0. -1.
        994    1    1    2    0    0 -0.18757094224E+02 -0.21760544607E+02  0.68524445527E+01  0.17372894371E+03  0.17120000000E+03 0.  0.
        998    1    1    2    0    0  0.28146750727E+01  0.17125895907E+02  0.14623178222E+04  0.14624550016E+04  0.10000000000E+02 0. -1.
</event>
<event>
 5    1  0.1338054E-008  0.3858817E+03  0.7957747E-01  0.3425941E+00
         13   -1    0    0    0    0  0.00000000000E+00  0.00000000000E+00  0.14999999963E+04  0.15000000000E+04  0.10566000000E+00 0. -1.
        994   -1    0    0    0    0 -0.00000000000E+00 -0.00000000000E+00  0.11368683772E-12  0.17120000000E+03  0.17120000000E+03 0.  0.
         13    1    1    2    0    0 -0.71139293443E+01  0.12110427190E+02  0.80912347578E+02  0.82122406151E+02  0.10566000000E+00 0. -1.
        994    1    1    2    0    0  0.11995036067E+02 -0.81197514892E+01  0.18813327492E+01  0.17182197376E+03  0.17120000000E+03 0.  0.
        998    1    1    2    0    0 -0.48811067226E+01 -0.39906757008E+01  0.14172063160E+04  0.14172556201E+04  0.10000000000E+02 0. -1.
</event>
<event>
 5    1  0.1447148E-008  0.3842125E+03  0.7957747E-01  0.3433019E+00
         13   -1    0    0    0    0  0.00000000000E+00  0.00000000000E+00  0.14999999963E+04  0.15000000000E+04  0.10566000000E+00 0.  1.
        994   -1    0    0    0    0 -0.00000000000E+00 -0.00000000000E+00  0.11368683772E-12  0.17120000000E+03  0.17120000000E+03 0.  0.
         13    1    1    2    0    0 -0.87787500942E+01  0.68471325793E+01  0.29424191890E+02  0.31460195648E+02  0.10566000000E+00 0.  1.
        994    1    1    2    0    0  0.96277065720E+01 -0.97654424737E+01  0.26418777546E+01  0.17176867036E+03  0.17120000000E+03 0.  0.
        998    1    1    2    0    0 -0.84895647773E+00  0.29183098944E+01  0.14679339266E+04  0.14679711340E+04  0.10000000000E+02 0.  1.
</event>
<event>
 5    1  0.1689116E-008  0.3864789E+03  0.7957747E-01  0.3423424E+00
         13   -1    0    0    0    0  0.00000000000E+00  0.00000000000E+00  0.14999999963E+04  0.15000000000E+04  0.10566000000E+00 0.  1.
        994   -1    0    0    0    0 -0.00000000000E+00 -0.00000000000E+00  0.11368683772E-12  0.17120000000E+03  0.17120000000E+03 0.  0.
         13    1    1    2    0    0 -0.11358650584E+00  0.10065791664E+02  0.60105954990E+02  0.60943170684E+02  0.10566000000E+00 0.  1.
        994    1    1    2    0    0 -0.77056671687E+01 -0.18929143580E+01  0.11037563302E+01  0.17138733532E+03  0.17120000000E+03 0.  0.
        998    1    1    2    0    0  0.78192536746E+01 -0.81728773058E+01  0.14387902850E+04  0.14388694940E+04  0.10000000000E+02 0.  1.
</event>
<event>
 5    1  0.1338054E-008  0.3735434E+03  0.7957747E-01  0.3479763E+00
         13   -1    0    0    0    0  0.00000000000E+00  0.00000000000E+00  0.14999999963E+04  0.15000000000E+04  0.10566000000E+00 0. -1.
        994   -1    0    0    0    0 -0.00000000000E+00 -0.00000000000E+00  0.11368683772E-12  0.17120000000E+03  0.17120000000E+03 0.  0.
         13    1    1    2    0    0 -0.58012681829E+02 -0.13453742769E+03  0.63766002130E+03  0.65427525143E+03  0.10566000000E+00 0. -1.
        994    1    1    2    0    0  0.78157146948E+02  0.14102920319E+03  0.10219534070E+03  0.25641977973E+03  0.17120000000E+03 0.  0.
        998    1    1    2    0    0 -0.20144465120E+02 -0.64917755025E+01  0.76014463427E+03  0.76050496885E+03  0.10000000000E+02 0.  1.
</event>
<event>
 5    1  0.1338054E-008  0.3812562E+03  0.7957747E-01  0.3445707E+00
         13   -1    0    0    0    0  0.00000000000E+00  0.00000000000E+00  0.14999999963E+04  0.15000000000E+04  0.10566000000E+00 0. -1.
        994   -1    0    0    0    0 -0.00000000000E+00 -0.00000000000E+00  0.11368683772E-12  0.17120000000E+03  0.17120000000E+03 0.  0.
         13    1    1    2    0    0  0.22019046973E+02 -0.58755640914E+01  0.75325986862E+02  0.78698005971E+02  0.10566000000E+00 0. -1.
        994    1    1    2    0    0 -0.58202399398E+01  0.87947595436E+01  0.38707374378E+01  0.17156819518E+03  0.17120000000E+03 0.  0.
        998    1    1    2    0    0 -0.16198807033E+02 -0.29191954522E+01  0.14208032720E+04  0.14209337989E+04  0.10000000000E+02 0. -1.
</event>
<event>
 5    1  0.1387761E-008  0.3856011E+03  0.7957747E-01  0.3427127E+00
         13   -1    0    0    0    0  0.00000000000E+00  0.00000000000E+00  0.14999999963E+04  0.15000000000E+04  0.10566000000E+00 0.  1.
        994   -1    0    0    0    0 -0.00000000000E+00 -0.00000000000E+00  0.11368683772E-12  0.17120000000E+03  0.17120000000E+03 0.  0.
         13    1    1    2    0    0  0.77248104432E+01  0.70492366337E+01  0.40235276013E+02  0.41572262789E+02  0.10566000000E+00 0.  1.
        994    1    1    2    0    0 -0.89203738155E+01 -0.73609908754E+01  0.17711419290E+01  0.17159934207E+03  0.17120000000E+03 0.  0.
        998    1    1    2    0    0  0.11955633723E+01  0.31175424177E+00  0.14579935783E+04  0.14580283951E+04  0.10000000000E+02 0.  1.
</event>
<event>
 5    1  0.1338054E-008  0.3791726E+03  0.7957747E-01  0.3454769E+00
         13   -1    0    0    0    0  0.00000000000E+00  0.00000000000E+00  0.14999999963E+04  0.15000000000E+04  0.10566000000E+00 0.  1.
        994   -1    0    0    0    0 -0.00000000000E+00 -0.00000000000E+00  0.11368683772E-12  0.17120000000E+03  0.17120000000E+03 0.  0.
         13    1    1    2    0    0  0.30268254042E+02  0.44896776346E+02  0.25067135462E+03  0.25645277717E+03  0.10566000000E+00 0.  1.
        994    1    1    2    0    0 -0.29934628883E+02 -0.55478755758E+02  0.17989785699E+02  0.18332224834E+03  0.17120000000E+03 0.  0.
        998    1    1    2    0    0 -0.33362515912E+00  0.10581979412E+02  0.12313388560E+04  0.12314249745E+04  0.10000000000E+02 0.  0.
</event>
<event>
 5    1  0.1338054E-008  0.3825628E+03  0.7957747E-01  0.3440075E+00
         13   -1    0    0    0    0  0.00000000000E+00  0.00000000000E+00  0.14999999963E+04  0.15000000000E+04  0.10566000000E+00 0.  1.
        994   -1    0    0    0    0 -0.00000000000E+00 -0.00000000000E+00  0.11368683772E-12  0.17120000000E+03  0.17120000000E+03 0.  0.
         13    1    1    2    0    0 -0.38247996884E+01 -0.19543580755E+02  0.71538229429E+02  0.74258400705E+02  0.10566000000E+00 0.  1.
        994    1    1    2    0    0  0.91519940602E+01  0.36111336260E+01  0.31659441546E+01  0.17151169780E+03  0.17120000000E+03 0.  0.
        998    1    1    2    0    0 -0.53271943718E+01  0.15932447129E+02  0.14252958227E+04  0.14254299015E+04  0.10000000000E+02 0.  1.
</event>
<event>
 5    1  0.1338054E-008  0.3843286E+03  0.7957747E-01  0.3432525E+00
         13   -1    0    0    0    0  0.00000000000E+00  0.00000000000E+00  0.14999999963E+04  0.15000000000E+04  0.10566000000E+00 0. -1.
        994   -1    0    0    0    0 -0.00000000000E+00 -0.00000000000E+00  0.11368683772E-12  0.17120000000E+03  0.17120000000E+03 0.  0.
         13    1    1    2    0    0 -0.52215399558E+01  0.21998924189E+02  0.13155486842E+03  0.13348375075E+03  0.10566000000E+00 0. -1.
        994    1    1    2    0    0 -0.26350539591E+02 -0.20651581314E+02  0.56666784486E+01  0.17453478161E+03  0.17120000000E+03 0.  0.
        998    1    1    2    0    0  0.31572079547E+02 -0.13473428743E+01  0.13627784494E+04  0.13631814676E+04  0.10000000000E+02 0. -1.
</event>
<event>
 5    1  0.1338054E-008  0.3839983E+03  0.7957747E-01  0.3433932E+00
         13   -1    0    0    0    0  0.00000000000E+00  0.00000000000E+00  0.14999999963E+04  0.15000000000E+04  0.10566000000E+00 0. -1.
        994   -1    0    0    0    0 -0.00000000000E+00 -0.00000000000E+00  0.11368683772E-12  0.17120000000E+03  0.17120000000E+03 0.  0.
         13    1    1    2    0    0 -0.94159645490E+00 -0.23518884147E+02  0.12359037663E+03  0.12581183122E+03  0.10566000000E+00 0. -1.
        994    1    1    2    0    0  0.87088799745E+01  0.20516566327E+02  0.37690341573E+01  0.17268589897E+03  0.17120000000E+03 0.  0.
        998    1    1    2    0    0 -0.77672835196E+01  0.30023178201E+01  0.13726405855E+04  0.13727022698E+04  0.10000000000E+02 0. -1.
</event>
<event>
 5    1  0.1338054E-008  0.3849359E+03  0.7957747E-01  0.3429944E+00
         13   -1    0    0    0    0  0.00000000000E+00  0.00000000000E+00  0.14999999963E+04  0.15000000000E+04  0.10566000000E+00 0.  1.
        994   -1    0    0    0    0 -0.00000000000E+00 -0.00000000000E+00  0.11368683772E-12  0.17120000000E+03  0.17120000000E+03 0.  0.
         13    1    1    2    0    0  0.38041135458E+01 -0.10064034854E+02  0.35314202867E+02  0.36916936027E+02  0.10566000000E+00 0.  1.
        994    1    1    2    0    0  0.41255430412E+01  0.48703753603E+01  0.17959757117E+01  0.17132835781E+03  0.17120000000E+03 0.  0.
        998    1    1    2    0    0 -0.79296565870E+01  0.51936594935E+01  0.14628898177E+04  0.14629547062E+04  0.10000000000E+02 0.  1.
</event>
<event>
 5    1  0.1338054E-008  0.3715981E+03  0.7957747E-01  0.3488578E+00
         13   -1    0    0    0    0  0.00000000000E+00  0.00000000000E+00  0.14999999963E+04  0.15000000000E+04  0.10566000000E+00 0.  1.
        994   -1    0    0    0    0 -0.00000000000E+00 -0.00000000000E+00  0.11368683772E-12  0.17120000000E+03  0.17120000000E+03 0.  0.
         13    1    1    2    0    0 -0.97102253634E+01  0.14988158920E+02  0.15047590286E+02  0.23353255059E+02  0.10566000000E+00 0.  1.
        994    1    1    2    0    0  0.10072006645E+02 -0.14629424453E+02  0.95216770261E+01  0.17238203999E+03  0.17120000000E+03 0.  0.
        998    1    1    2    0    0 -0.36178128128E+00 -0.35873446706E+00  0.14754307290E+04  0.14754647050E+04  0.10000000000E+02 0.  1.
</event>
<event>
 5    1  0.1338054E-008  0.3763825E+03  0.7957747E-01  0.3467063E+00
         13   -1    0    0    0    0  0.00000000000E+00  0.00000000000E+00  0.14999999963E+04  0.15000000000E+04  0.10566000000E+00 0.  1.
        994   -1    0    0    0    0 -0.00000000000E+00 -0.00000000000E+00  0.11368683772E-12  0.17120000000E+03  0.17120000000E+03 0.  0.
         13    1    1    2    0    0  0.32448176675E+00 -0.30585001430E+02  0.69097354597E+02  0.75564562973E+02  0.10566000000E+00 0.  1.
        994    1    1    2    0    0 -0.27277725576E+02  0.45015824439E+02  0.15402435810E+02  0.17976977997E+03  0.17120000000E+03 0.  0.
        998    1    1    2    0    0  0.26953243809E+02 -0.14430823008E+02  0.14155002059E+04  0.14158656571E+04  0.10000000000E+02 0.  1.
</event>
<event>
 5    1  0.1338054E-008  0.3828645E+03  0.7957747E-01  0.3438780E+00
         13   -1    0    0    0    0  0.00000000000E+00  0.00000000000E+00  0.14999999963E+04  0.15000000000E+04  0.10566000000E+00 0. -1.
        994   -1    0    0    0    0 -0.00000000000E+00 -0.00000000000E+00  0.11368683772E-12  0.17120000000E+03  0.17120000000E+03 0.  0.
         13    1    1    2    0    0 -0.92644268714E+01 -0.58860385400E+01  0.21554128626E+02  0.24188151641E+02  0.10566000000E+00 0. -1.
        994    1    1    2    0    0  0.17787059304E+02 -0.19072696698E+02  0.49496967025E+01  0.17324574089E+03  0.17120000000E+03 0.  0.
        998    1    1    2    0    0 -0.85226324326E+01  0.24958735238E+02  0.14734961710E+04  0.14737661075E+04  0.10000000000E+02 0. -1.
</event>
<event>
 5    1  0.1338054E-008  0.3851839E+03  0.7957747E-01  0.3428893E+00
         13   -1    0    0    0    0  0.00000000000E+00  0.00000000000E+00  0.14999999963E+04  0.15000000000E+04  0.10566000000E+00 0.  1.
        994   -1    0    0    0    0 -0.00000000000E+00 -0.00000000000E+00  0.11368683772E-12  0.17120000000E+03  0.17120000000E+03 0.  0.
         13    1    1    2    0    0 -0.12107020304E+02  0.33825568909E+01  0.53533776386E+02  0.54989980996E+02  0.10566000000E+00 0.  1.
        994    1    1    2    0    0  0.25626046934E+01  0.33182558714E+01  0.15966378188E+01  0.17125877209E+03  0.17120000000E+03 0.  0.
        998    1    1    2    0    0  0.95444156109E+01 -0.67008127623E+01  0.14448695821E+04  0.14449512469E+04  0.10000000000E+02 0.  1.
</event>
<event>
 5    1  0.1338054E-008  0.3767509E+03  0.7957747E-01  0.3465429E+00
         13   -1    0    0    0    0  0.00000000000E+00  0.00000000000E+00  0.14999999963E+04  0.15000000000E+04  0.10566000000E+00 0. -1.
        994   -1    0    0    0    0 -0.00000000000E+00 -0.00000000000E+00  0.11368683772E-12  0.17120000000E+03  0.17120000000E+03 0.  0.
         13    1    1    2    0    0 -0.25846727144E+02  0.53539578873E+01  0.17797130574E+02  0.31834999447E+02  0.10566000000E+00 0. -1.
        994    1    1    2    0    0  0.19332174799E+02 -0.59150847752E+01  0.16018755418E+02  0.17313220883E+03  0.17120000000E+03 0.  0.
        998    1    1    2    0    0  0.65145523449E+01  0.56112688792E+00  0.14661841103E+04  0.14662327917E+04  0.10000000000E+02 0. -1.
</event>
<event>
 5    1  0.1338054E-008  0.3852966E+03  0.7957747E-01  0.3428415E+00
         13   -1    0    0    0    0  0.00000000000E+00  0.00000000000E+00  0.14999999963E+04  0.15000000000E+04  0.10566000000E+00 0. -1.
        994   -1    0    0    0    0 -0.00000000000E+00 -0.00000000000E+00  0.11368683772E-12  0.17120000000E+03  0.17120000000E+03 0.  0.
         13    1    1    2    0    0 -0.68377090445E+01  0.13300115323E+02  0.81619660532E+02  0.82978476017E+02  0.10566000000E+00 0. -1.
        994    1    1    2    0    0  0.39877034932E+01  0.23859993338E+01  0.15539022146E+01  0.17127010651E+03  0.17120000000E+03 0.  0.
        998    1    1    2    0    0  0.28500055513E+01 -0.15686114657E+02  0.14168264335E+04  0.14169514175E+04  0.10000000000E+02 0. -1.
</event>
<event>
 5    1  0.1338054E-008  0.3835391E+03  0.7957747E-01  0.3435892E+00
         13   -1    0    0    0    0  0.00000000000E+00  0.00000000000E+00  0.14999999963E+04  0.15000000000E+04  0.10566000000E+00 0.  1.
        994   -1    0    0    0    0 -0.00000000000E+00 -0.00000000000E+00  0.11368683772E-12  0.17120000000E+03  0.17120000000E+03 0.  0.
         13    1    1    2    0    0  0.15298329541E+02  0.15129907054E+02  0.88316592360E+02  0.90899860420E+02  0.10566000000E+00 0.  1.
        994    1    1    2    0    0 -0.24608581682E+02 -0.17639887913E+02  0.53922814727E+01  0.17394040542E+03  0.17120000000E+03 0.  0.
        998    1    1    2    0    0  0.93102521412E+01  0.25099808593E+01  0.14062911224E+04  0.14063597342E+04  0.10000000000E+02 0.  1.
</event>
<event>
 5    1  0.1338054E-008  0.3816088E+03  0.7957747E-01  0.3444183E+00
         13   -1    0    0    0    0  0.00000000000E+00  0.00000000000E+00  0.14999999963E+04  0.15000000000E+04  0.10566000000E+00 0. -1.
        994   -1    0    0    0    0 -0.00000000000E+00 -0.00000000000E+00  0.11368683772E-12  0.17120000000E+03  0.17120000000E+03 0.  0.
         13    1    1    2    0    0  0.26278673215E+01 -0.10346877494E+02  0.14907670652E+02  0.18336121968E+02  0.10566000000E+00 0. -1.
        994    1    1    2    0    0 -0.18216358296E+02  0.24923086937E+02  0.64986322705E+01  0.17408236037E+03  0.17120000000E+03 0.  0.
        998    1    1    2    0    0  0.15588490975E+02 -0.14576209442E+02  0.14785936934E+04  0.14787815177E+04  0.10000000000E+02 0. -1.
</event>
<event>
 5    1  0.1338054E-008  0.3833258E+03  0.7957747E-01  0.3436804E+00
         13   -1    0    0    0    0  0.00000000000E+00  0.00000000000E+00  0.14999999963E+04  0.15000000000E+04  0.10566000000E+00 0. -1.
        994   -1    0    0    0    0 -0.00000000000E+00 -0.00000000000E+00  0.11368683772E-12  0.17120000000E+03  0.17120000000E+03 0.  0.
         13    1    1    2    0    0  0.10175071103E+02  0.26443021729E+01  0.21520180672E+02  0.23951069832E+02  0.10566000000E+00 0. -1.
        994    1    1    2    0    0 -0.74439086066E+01 -0.27755530011E+01  0.26723647896E+01  0.17140506703E+03  0.17120000000E+03 0.  0.
        998    1    1    2    0    0 -0.27311624959E+01  0.13125082819E+00  0.14758074508E+04  0.14758438631E+04  0.10000000000E+02 0. -1.
</event>
<event>
 5    1  0.1338054E-008  0.3805858E+03  0.7957747E-01  0.3448612E+00
         13   -1    0    0    0    0  0.00000000000E+00  0.00000000000E+00  0.14999999963E+04  0.15000000000E+04  0.10566000000E+00 0. -1.
        994   -1    0    0    0    0 -0.00000000000E+00 -0.00000000000E+00  0.11368683772E-12  0.17120000000E+03  0.17120000000E+03 0.  0.
         13    1    1    2    0    0  0.19174909861E+02  0.92337709500E+01  0.57718082579E+02  0.61516891296E+02  0.10566000000E+00 0. -1.
        994    1    1    2    0    0 -0.16035599003E+02  0.24854988999E+01  0.47167713615E+01  0.17203199142E+03  0.17120000000E+03 0.  0.
        998    1    1    2    0    0 -0.31393108583E+01 -0.11719269850E+02  0.14375651423E+04  0.14376511173E+04  0.10000000000E+02 0. -1.
</event>
<event>
 5    1  0.1338054E-008  0.3734738E+03  0.7957747E-01  0.3480077E+00
         13   -1    0    0    0    0  0.00000000000E+00  0.00000000000E+00  0.14999999963E+04  0.15000000000E+04  0.10566000000E+00 0. -1.
        994   -1    0    0    0    0 -0.00000000000E+00 -0.00000000000E+00  0.11368683772E-12  0.17120000000E+03  0.17120000000E+03 0.  0.
         13    1    1    2    0    0  0.11917772972E+02  0.35115702972E+01  0.68529613209E+01  0.14189386226E+02  0.10566000000E+00 0. -1.
        994    1    1    2    0    0 -0.13064084579E+02 -0.53372570260E+01  0.81453247640E+01  0.17197366930E+03  0.17120000000E+03 0.  0.
        998    1    1    2    0    0  0.11463116073E+01  0.18256867288E+01  0.14850017102E+04  0.14850369445E+04  0.10000000000E+02 0. -1.
</event>
<event>
 5    1  0.1338054E-008  0.3810295E+03  0.7957747E-01  0.3446688E+00
         13   -1    0    0    0    0  0.00000000000E+00  0.00000000000E+00  0.14999999963E+04  0.15000000000E+04  0.10566000000E+00 0. -1.
        994   -1    0    0    0    0 -0.00000000000E+00 -0.00000000000E+00  0.11368683772E-12  0.17120000000E+03  0.17120000000E+03 0.  0.
         13    1    1    2    0    0 -0.29476934345E+01 -0.24454140973E+02  0.80186583591E+02  0.83884404149E+02  0.10566000000E+00 0. -1.
        994    1    1    2    0    0  0.20602383661E+02  0.19546537832E+02  0.63060101652E+01  0.17365405586E+03  0.17120000000E+03 0.  0.
        998    1    1    2    0    0 -0.17654690226E+02  0.49076031408E+01  0.14135074025E+04  0.14136615400E+04  0.10000000000E+02 0. -1.
</event>
<event>
 5    1  0.1338054E-008  0.3724091E+03  0.7957747E-01  0.3484892E+00
         13   -1    0    0    0    0  0.00000000000E+00  0.00000000000E+00  0.14999999963E+04  0.15000000000E+04  0.10566000000E+00 0.  1.
        994   -1    0    0    0    0 -0.00000000000E+00 -0.00000000000E+00  0.11368683772E-12  0.17120000000E+03  0.17120000000E+03 0.  0.
         13    1    1    2    0    0  0.27006798469E+02 -0.33983084359E+01  0.43185989840E+02  0.51048570462E+02  0.10566000000E+00 0.  1.
        994    1    1    2    0    0 -0.16908326258E+02  0.34032028305E+01  0.90360242618E+01  0.17230369416E+03  0.17120000000E+03 0.  0.
        998    1    1    2    0    0 -0.10098472211E+02 -0.48943946686E-02  0.14477779822E+04  0.14478477354E+04  0.10000000000E+02 0.  1.
</event>
<event>
 5    1  0.1338054E-008  0.3843109E+03  0.7957747E-01  0.3432600E+00
         13   -1    0    0    0    0  0.00000000000E+00  0.00000000000E+00  0.14999999963E+04  0.15000000000E+04  0.10566000000E+00 0.  1.
        994   -1    0    0    0    0 -0.00000000000E+00 -0.00000000000E+00  0.11368683772E-12  0.17120000000E+03  0.17120000000E+03 0.  0.
         13    1    1    2    0    0  0.11336722873E+02 -0.14174541201E+02  0.79595519368E+02  0.81638819022E+02  0.10566000000E+00 0.  1.
        994    1    1    2    0    0 -0.14598985265E+02  0.12213153849E+02  0.31676548474E+01  0.17228396772E+03  0.17120000000E+03 0.  0.
        998    1    1    2    0    0  0.32622623922E+01  0.19613873527E+01  0.14172368221E+04  0.14172772133E+04  0.10000000000E+02 0.  1.
</event>
<event>
 5    1  0.1338054E-008  0.3842940E+03  0.7957747E-01  0.3432672E+00
         13   -1    0    0    0    0  0.00000000000E+00  0.00000000000E+00  0.14999999963E+04  0.15000000000E+04  0.10566000000E+00 0.  1.
        994   -1    0    0    0    0 -0.00000000000E+00 -0.00000000000E+00  0.11368683772E-12  0.17120000000E+03  0.17120000000E+03 0.  0.
         13    1    1    2    0    0 -0.46651618594E+01  0.20432626106E+02  0.10592603938E+03  0.10797959496E+03  0.10566000000E+00 0.  1.
        994    1    1    2    0    0  0.40906886233E+00 -0.19366555010E+02  0.32188860237E+01  0.17232246521E+03  0.17120000000E+03 0.  0.
        998    1    1    2    0    0  0.42560929971E+01 -0.10660710955E+01  0.13908550709E+04  0.13908979398E+04  0.10000000000E+02 0.  1.
</event>
<event>
 5    1  0.1338054E-008  0.3842565E+03  0.7957747E-01  0.3432832E+00
         13   -1    0    0    0    0  0.00000000000E+00  0.00000000000E+00  0.14999999963E+04  0.15000000000E+04  0.10566000000E+00 0. -1.
        994   -1    0    0    0    0 -0.00000000000E+00 -0.00000000000E+00  0.11368683772E-12  0.17120000000E+03  0.17120000000E+03 0.  0.
         13    1    1    2    0    0  0.16140291047E+02  0.31019013611E+01  0.66112849613E+02  0.68125258423E+02  0.10566000000E+00 0. -1.
        994    1    1    2    0    0 -0.11535624239E+02 -0.12401519742E+02  0.29459710081E+01  0.17206099809E+03  0.17120000000E+03 0.  0.
        998    1    1    2    0    0 -0.46046668079E+01  0.92996183812E+01  0.14309411757E+04  0.14310137435E+04  0.10000000000E+02 0. -1.
</event>
<event>
 5    1  0.1338054E-008  0.3849206E+03  0.7957747E-01  0.3430009E+00
         13   -1    0    0    0    0  0.00000000000E+00  0.00000000000E+00  0.14999999963E+04  0.15000000000E+04  0.10566000000E+00 0.  1.
        994   -1    0    0    0    0 -0.00000000000E+00 -0.00000000000E+00  0.11368683772E-12  0.17120000000E+03  0.17120000000E+03 0.  0.
         13    1    1    2    0    0 -0.35165369313E+01  0.13445247779E+02  0.54864186066E+02  0.56597091768E+02  0.10566000000E+00 0.  1.
        994    1    1    2    0    0 -0.54360458057E+00 -0.19076987303E+02  0.28686251822E+01  0.17228434624E+03  0.17120000000E+03 0.  0.
        998    1    1    2    0    0  0.40601415119E+01  0.56317395247E+01  0.14422671850E+04  0.14423185620E+04  0.10000000000E+02 0.  1.
</event>
<event>
 5    1  0.1338054E-008  0.3735832E+03  0.7957747E-01  0.3479584E+00
         13   -1    0    0    0    0  0.00000000000E+00  0.00000000000E+00  0.14999999963E+04  0.15000000000E+04  0.10566000000E+00 0. -1.
        994   -1    0    0    0    0 -0.00000000000E+00 -0.00000000000E+00  0.11368683772E-12  0.17120000000E+03  0.17120000000E+03 0.  0.
         13    1    1    2    0    0 -0.11254211782E+02 -0.49582333249E+02  0.17324809722E+03  0.18055464382E+03  0.10566000000E+00 0. -1.
        994    1    1    2    0    0  0.17333488426E+02  0.25434632060E+02  0.10650691795E+02  0.17427061590E+03  0.17120000000E+03 0.  0.
        998    1    1    2    0    0 -0.60792766441E+01  0.24147701189E+02  0.13161012073E+04  0.13163747403E+04  0.10000000000E+02 0. -1.
</event>
<event>
 5    1  0.1338054E-008  0.3724071E+03  0.7957747E-01  0.3484901E+00
         13   -1    0    0    0    0  0.00000000000E+00  0.00000000000E+00  0.14999999963E+04  0.15000000000E+04  0.10566000000E+00 0.  1.
        994   -1    0    0    0    0 -0.00000000000E+00 -0.00000000000E+00  0.11368683772E-12  0.17120000000E+03  0.17120000000E+03 0.  0.
         13    1    1    2    0    0 -0.11231913524E+02  0.10391666217E+02  0.11143670742E+02  0.18929742994E+02  0.10566000000E+00 0.  1.
        994    1    1    2    0    0  0.66008635726E+01 -0.27644370971E+01  0.81919396573E+01  0.17154521674E+03  0.17120000000E+03 0.  0.
        998    1    1    2    0    0  0.46310499515E+01 -0.76272291195E+01  0.14806643859E+04  0.14807250403E+04  0.10000000000E+02 0.  1.
</event>
<event>
 5    1  0.1338054E-008  0.3841415E+03  0.7957747E-01  0.3433322E+00
         13   -1    0    0    0    0  0.00000000000E+00  0.00000000000E+00  0.14999999963E+04  0.15000000000E+04  0.10566000000E+00 0. -1.
        994   -1    0    0    0    0 -0.00000000000E+00 -0.00000000000E+00  0.11368683772E-12  0.17120000000E+03  0.17120000000E+03 0.  0.
         13    1    1    2    0    0 -0.15053344235E+02 -0.19695721038E+02  0.13015332264E+03  0.13249310608E+03  0.10566000000E+00 0. -1.
        994    1    1    2    0    0  0.21490320352E+02  0.24181753717E+02  0.55161072052E+01  0.17431712056E+03  0.17120000000E+03 0.  0.
        998    1    1    2    0    0 -0.64369761173E+01 -0.44860326782E+01  0.13643305664E+04  0.13643897734E+04  0.10000000000E+02 0. -1.
</event>
<event>
 5    1  0.1338054E-008  0.3746512E+03  0.7957747E-01  0.3474784E+00
         13   -1    0    0    0    0  0.00000000000E+00  0.00000000000E+00  0.14999999963E+04  0.15000000000E+04  0.10566000000E+00 0. -1.
        994   -1    0    0    0    0 -0.00000000000E+00 -0.00000000000E+00  0.11368683772E-12  0.17120000000E+03  0.17120000000E+03 0.  0.
         13    1    1    2    0    0 -0.60997987594E+01  0.61152471139E+02  0.13011897355E+03  0.14390201775E+03  0.10566000000E+00 0. -1.
        994    1    1    2    0    0  0.32411846444E+02 -0.48356673951E+02  0.25563400375E+02  0.18262481525E+03  0.17120000000E+03 0.  0.
        998    1    1    2    0    0 -0.26312047685E+02 -0.12795797188E+02  0.13443176224E+04  0.13446731670E+04  0.10000000000E+02 0. -1.
</event>
<event>
 5    1  0.1338054E-008  0.3789622E+03  0.7957747E-01  0.3455690E+00
         13   -1    0    0    0    0  0.00000000000E+00  0.00000000000E+00  0.14999999963E+04  0.15000000000E+04  0.10566000000E+00 0.  1.
        994   -1    0    0    0    0 -0.00000000000E+00 -0.00000000000E+00  0.11368683772E-12  0.17120000000E+03  0.17120000000E+03 0.  0.
         13    1    1    2    0    0  0.20325249765E+02 -0.16042348139E+02  0.63759708366E+02  0.68817034859E+02  0.10566000000E+00 0.  1.
        994    1    1    2    0    0 -0.22310749499E+02  0.37842043426E+02  0.11158636204E+02  0.17709812239E+03  0.17120000000E+03 0.  0.
        998    1    1    2    0    0  0.19854997340E+01 -0.21799695287E+02  0.14250816517E+04  0.14252848427E+04  0.10000000000E+02 0.  1.
</event>
<event>
 5    1  0.1338054E-008  0.3750410E+03  0.7957747E-01  0.3473039E+00
         13   -1    0    0    0    0  0.00000000000E+00  0.00000000000E+00  0.14999999963E+04  0.15000000000E+04  0.10566000000E+00 0. -1.
        994   -1    0    0    0    0 -0.00000000000E+00 -0.00000000000E+00  0.11368683772E-12  0.17120000000E+03  0.17120000000E+03 0.  0.
         13    1    1    2    0    0 -0.33781833348E+02  0.19704780210E+02  0.12033934963E+03  0.12653482075E+03  0.10566000000E+00 0. -1.
        994    1    1    2    0    0  0.92439038848E+01 -0.24147126188E+01  0.69679562207E+01  0.17160790486E+03  0.17120000000E+03 0.  0.
        998    1    1    2    0    0  0.24537929464E+02 -0.17290067591E+02  0.13726926904E+04  0.13730572744E+04  0.10000000000E+02 0. -1.
</event>
<event>
 5    1  0.1338054E-008  0.3834219E+03  0.7957747E-01  0.3436393E+00
         13   -1    0    0    0    0  0.00000000000E+00  0.00000000000E+00  0.14999999963E+04  0.15000000000E+04  0.10566000000E+00 0. -1.
        994   -1    0    0    0    0 -0.00000000000E+00 -0.00000000000E+00  0.11368683772E-12  0.17120000000E+03  0.17120000000E+03 0.  0.
         13    1    1    2    0    0  0.13305518324E+02 -0.20262153955E+02  0.11780521447E+03  0.12027331966E+03  0.10566000000E+00 0. -1.
        994    1    1    2    0    0 -0.12109393184E+02  0.14312262037E+02  0.35783518942E+01  0.17226062478E+03  0.17120000000E+03 0.  0.
        998    1    1    2    0    0 -0.11961251405E+01  0.59498919176E+01  0.13786164299E+04  0.13786660556E+04  0.10000000000E+02 0. -1.
</event>
<event>
 5    1  0.1338054E-008  0.3858806E+03  0.7957747E-01  0.3425946E+00
         13   -1    0    0    0    0  0.00000000000E+00  0.00000000000E+00  0.14999999963E+04  0.15000000000E+04  0.10566000000E+00 0. -1.
        994   -1    0    0    0    0 -0.00000000000E+00 -0.00000000000E+00  0.11368683772E-12  0.17120000000E+03  0.17120000000E+03 0.  0.
         13    1    1    2    0    0  0.80900699549E+01  0.13080292289E+02  0.89505129490E+02  0.90816973343E+02  0.10566000000E+00 0. -1.
        994    1    1    2    0    0 -0.13402334703E+02 -0.18837377506E+02  0.29482135490E+01  0.17277905350E+03  0.17120000000E+03 0.  0.
        998    1    1    2    0    0  0.53122647478E+01  0.57570852168E+01  0.14075466532E+04  0.14076039732E+04  0.10000000000E+02 0. -1.
</event>
<event>
 5    1  0.1338054E-008  0.3688042E+03  0.7957747E-01  0.3501405E+00
         13   -1    0    0    0    0  0.00000000000E+00  0.00000000000E+00  0.14999999963E+04  0.15000000000E+04  0.10566000000E+00 0.  1.
        994   -1    0    0    0    0 -0.00000000000E+00 -0.00000000000E+00  0.11368683772E-12  0.17120000000E+03  0.17120000000E+03 0.  0.
         13    1    1    2    0    0 -0.22825970457E+02 -0.15338084636E+02  0.34198180108E+02  0.43884034162E+02  0.10566000000E+00 0.  1.
        994    1    1    2    0    0  0.72828346473E+01  0.23584055492E+02  0.12013602830E+02  0.17338689110E+03  0.17120000000E+03 0.  0.
        998    1    1    2    0    0  0.15543135810E+02 -0.82459708554E+01  0.14537882133E+04  0.14539290747E+04  0.10000000000E+02 0.  1.
</event>
<event>
 5    1  0.1338054E-008  0.3692312E+03  0.7957747E-01  0.3499432E+00
         13   -1    0    0    0    0  0.00000000000E+00  0.00000000000E+00  0.14999999963E+04  0.15000000000E+04  0.10566000000E+00 0. -1.
        994   -1    0    0    0    0 -0.00000000000E+00 -0.00000000000E+00  0.11368683772E-12  0.17120000000E+03  0.17120000000E+03 0.  0.
         13    1    1    2    0    0  0.10300904232E+03  0.42322807091E+02  0.60660365463E+03  0.61674150806E+03  0.10566000000E+00 0. -1.
        994    1    1    2    0    0 -0.61511530928E+02 -0.35639452906E+02  0.27402774782E+02  0.18738780939E+03  0.17120000000E+03 0.  0.
        998    1    1    2    0    0 -0.41497511394E+02 -0.66833541841E+01  0.86599356687E+03  0.86707068255E+03  0.10000000000E+02 0. -1.
</event>
<event>
 5    1  0.1338054E-008  0.3686398E+03  0.7957747E-01  0.3502165E+00
         13   -1    0    0    0    0  0.00000000000E+00  0.00000000000E+00  0.14999999963E+04  0.15000000000E+04  0.10566000000E+00 0.  1.
        994   -1    0    0    0    0 -0.00000000000E+00 -0.00000000000E+00  0.11368683772E-12  0.17120000000E+03  0.17120000000E+03 0.  0.
         13    1    1    2    0    0 -0.13980209505E+02  0.18450067016E-01  0.51916885601E+01  0.14913463459E+02  0.10566000000E+00 0.  1.
        994    1    1    2    0    0  0.13458941521E+02  0.13119251747E+01  0.10617271898E+02  0.17206112494E+03  0.17120000000E+03 0.  0.
        998    1    1    2    0    0  0.52126798379E+00 -0.13303752417E+01  0.14841910358E+04  0.14842254116E+04  0.10000000000E+02 0.  1.
</event>
<event>
 5    1  0.1338054E-008  0.3823317E+03  0.7957747E-01  0.3441068E+00
         13   -1    0    0    0    0  0.00000000000E+00  0.00000000000E+00  0.14999999963E+04  0.15000000000E+04  0.10566000000E+00 0. -1.
        994   -1    0    0    0    0 -0.00000000000E+00 -0.00000000000E+00  0.11368683772E-12  0.17120000000E+03  0.17120000000E+03 0.  0.
         13    1    1    2    0    0  0.11194833134E+02 -0.31712519128E+00  0.18394169055E+02  0.21535586283E+02  0.10566000000E+00 0. -1.
        994    1    1    2    0    0 -0.36346363327E+02  0.18020833417E+02  0.84397398474E+01  0.17614334439E+03  0.17120000000E+03 0.  0.
        998    1    1    2    0    0  0.25151530192E+02 -0.17703708226E+02  0.14731660874E+04  0.14735210693E+04  0.10000000000E+02 0. -1.
</event>
<event>
 5    1  0.1338054E-008  0.3773717E+03  0.7957747E-01  0.3462683E+00
         13   -1    0    0    0    0  0.00000000000E+00  0.00000000000E+00  0.14999999963E+04  0.15000000000E+04  0.10566000000E+00 0. -1.
        994   -1    0    0    0    0 -0.00000000000E+00 -0.00000000000E+00  0.11368683772E-12  0.17120000000E+03  0.17120000000E+03 0.  0.
         13    1    1    2    0    0  0.75907260827E+01 -0.23672892783E+02  0.53395939193E+02  0.58899596446E+02  0.10566000000E+00 0. -1.
        994    1    1    2    0    0 -0.76780414249E+01  0.20351744161E+02  0.70630119284E+01  0.17272079188E+03  0.17120000000E+03 0.  0.
        998    1    1    2    0    0  0.87315342198E-01  0.33211486217E+01  0.14395410452E+04  0.14395796117E+04  0.10000000000E+02 0.  0.
</event>
<event>
 5    1  0.1338054E-008  0.3753310E+03  0.7957747E-01  0.3471744E+00
         13   -1    0    0    0    0  0.00000000000E+00  0.00000000000E+00  0.14999999963E+04  0.15000000000E+04  0.10566000000E+00 0.  1.
        994   -1    0    0    0    0 -0.00000000000E+00 -0.00000000000E+00  0.11368683772E-12  0.17120000000E+03  0.17120000000E+03 0.  0.
         13    1    1    2    0    0  0.20137078699E+02 -0.24203030872E+02  0.73183536069E+02  0.79668875714E+02  0.10566000000E+00 0.  1.
        994    1    1    2    0    0  0.56778665328E-01  0.28661659037E+02  0.93032180277E+01  0.17383176864E+03  0.17120000000E+03 0.  0.
        998    1    1    2    0    0 -0.20193857365E+02 -0.44586281651E+01  0.14175132422E+04  0.14176993556E+04  0.10000000000E+02 0.  1.
</event>
<event>
 5    1  0.1338054E-008  0.3793410E+03  0.7957747E-01  0.3454033E+00
         13   -1    0    0    0    0  0.00000000000E+00  0.00000000000E+00  0.14999999963E+04  0.15000000000E+04  0.10566000000E+00 0.  1.
        994   -1    0    0    0    0 -0.00000000000E+00 -0.00000000000E+00  0.11368683772E-12  0.17120000000E+03  0.17120000000E+03 0.  0.
         13    1    1    2    0    0  0.46013338796E+02  0.10872315491E+02  0.72959672088E+02  0.86939976458E+02  0.10566000000E+00 0.  1.
        994    1    1    2    0    0  0.99212330907E+01  0.12406885947E+02  0.16878542433E+02  0.17276193701E+03  0.17120000000E+03 0.  0.
        998    1    1    2    0    0 -0.55934571887E+02 -0.23279201438E+02  0.14101617818E+04  0.14114980865E+04  0.10000000000E+02 0.  1.
</event>
<event>
 5    1  0.1338054E-008  0.3787101E+03  0.7957747E-01  0.3456794E+00
         13   -1    0    0    0    0  0.00000000000E+00  0.00000000000E+00  0.14999999963E+04  0.15000000000E+04  0.10566000000E+00 0.  1.
        994   -1    0    0    0    0 -0.00000000000E+00 -0.00000000000E+00  0.11368683772E-12  0.17120000000E+03  0.17120000000E+03 0.  0.
         13    1    1    2    0    0 -0.49612433258E+01 -0.48693059636E+02  0.27945237472E+03  0.28370630746E+03  0.10566000000E+00 0.  1.
        994    1    1    2    0    0 -0.17975489055E+01  0.14568072778E+02  0.55093812231E+01  0.17191641343E+03  0.17120000000E+03 0.  0.
        998    1    1    2    0    0  0.67587922313E+01  0.34124986857E+02  0.12150382403E+04  0.12155772791E+04  0.10000000000E+02 0.  1.
</event>
<event>
 5    1  0.1338054E-008  0.3784837E+03  0.7957747E-01  0.3457787E+00
         13   -1    0    0    0    0  0.00000000000E+00  0.00000000000E+00  0.14999999963E+04  0.15000000000E+04  0.10566000000E+00 0. -1.
        994   -1    0    0    0    0 -0.00000000000E+00 -0.00000000000E+00  0.11368683772E-12  0.17120000000E+03  0.17120000000E+03 0.  0.
         13    1    1    2    0    0  0.41630809518E+02 -0.79073994876E+01  0.17941922352E+03  0.18435541814E+03  0.10566000000E+00 0. -1.
        994    1    1    2    0    0 -0.21909531568E+02  0.30507419108E+02  0.96548482563E+01  0.17553742134E+03  0.17120000000E+03 0.  0.
        998    1    1    2    0    0 -0.19721277950E+02 -0.22600019621E+02  0.13109259245E+04  0.13113071605E+04  0.10000000000E+02 0. -1.
</event>
<event>
 5    1  0.1338054E-008  0.3870960E+03  0.7957747E-01  0.3420831E+00
         13   -1    0    0    0    0  0.00000000000E+00  0.00000000000E+00  0.14999999963E+04  0.15000000000E+04  0.10566000000E+00 0. -1.
        994   -1    0    0    0    0 -0.00000000000E+00 -0.00000000000E+00  0.11368683772E-12  0.17120000000E+03  0.17120000000E+03 0.  0.
         13    1    1    2    0    0 -0.33115346223E+01 -0.29074565043E+02  0.14038924896E+02  0.32456111447E+02  0.10566000000E+00 0. -1.
        994    1    1    2    0    0  0.49145075460E+02 -0.29150314646E+02  0.32531491855E+02  0.18339224970E+03  0.17120000000E+03 0.  0.
        998    1    1    2    0    0 -0.45833540838E+02  0.58224879689E+02  0.14534295795E+04  0.14553516389E+04  0.10000000000E+02 0. -1.
</event>
<event>
 5    1  0.1338054E-008  0.3750493E+03  0.7957747E-01  0.3473003E+00
         13   -1    0    0    0    0  0.00000000000E+00  0.00000000000E+00  0.14999999963E+04  0.15000000000E+04  0.10566000000E+00 0. -1.
        994   -1    0    0    0    0 -0.00000000000E+00 -0.00000000000E+00  0.11368683772E-12  0.17120000000E+03  0.17120000000E+03 0.  0.
         13    1    1    2    0    0  0.54887465385E+02 -0.22815860101E+02  0.32317052148E+03  0.32859153131E+03  0.10566000000E+00 0. -1.
        994    1    1    2    0    0 -0.60144650344E+01  0.90395598350E+01  0.70541943627E+01  0.17168893118E+03  0.17120000000E+03 0.  0.
        998    1    1    2    0    0 -0.48873000350E+02  0.13776300266E+02  0.11697752804E+04  0.11709195375E+04  0.10000000000E+02 0. -1.
</event>
<event>
 5    1  0.1338054E-008  0.3744358E+03  0.7957747E-01  0.3475750E+00
         13   -1    0    0    0    0  0.00000000000E+00  0.00000000000E+00  0.14999999963E+04  0.15000000000E+04  0.10566000000E+00 0. -1.
        994   -1    0    0    0    0 -0.00000000000E+00 -0.00000000000E+00  0.11368683772E-12  0.17120000000E+03  0.17120000000E+03 0.  0.
         13    1    1    2    0    0  0.79685252341E+02 -0.35763477322E+00  0.34431619734E+03  0.35341692412E+03  0.10566000000E+00 0. -1.
        994    1    1    2    0    0 -0.80929412729E+02 -0.17025550494E+01  0.29623026946E+02  0.19167533035E+03  0.17120000000E+03 0.  0.
        998    1    1    2    0    0  0.12441603873E+01  0.20601898226E+01  0.11260607720E+04  0.11261077455E+04  0.10000000000E+02 0.  0.
</event>
<event>
 5    1  0.1338054E-008  0.3797554E+03  0.7957747E-01  0.3452224E+00
         13   -1    0    0    0    0  0.00000000000E+00  0.00000000000E+00  0.14999999963E+04  0.15000000000E+04  0.10566000000E+00 0.  1.
        994   -1    0    0    0    0 -0.00000000000E+00 -0.00000000000E+00  0.11368683772E-12  0.17120000000E+03  0.17120000000E+03 0.  0.
         13    1    1    2    0    0  0.88912264846E+01  0.27676770524E+02  0.94328581106E+02  0.98706382329E+02  0.10566000000E+00 0.  1.
        994    1    1    2    0    0  0.66818628458E+01 -0.28630925252E+02  0.71539518249E+01  0.17385337557E+03  0.17120000000E+03 0.  0.
        998    1    1    2    0    0 -0.15573089330E+02  0.95415472781E+00  0.13985174633E+04  0.13986402421E+04  0.10000000000E+02 0.  1.
</event>
<event>
 5    1  0.1338054E-008  0.3788342E+03  0.7957747E-01  0.3456250E+00
         13   -1    0    0    0    0  0.00000000000E+00  0.00000000000E+00  0.14999999963E+04  0.15000000000E+04  0.10566000000E+00 0.  1.
        994   -1    0    0    0    0 -0.00000000000E+00 -0.00000000000E+00  0.11368683772E-12  0.17120000000E+03  0.17120000000E+03 0.  0.
         13    1    1    2    0    0  0.79016097578E+01 -0.31496277333E+02  0.12160341186E+03  0.12586441857E+03  0.10566000000E+00 0.  1.
        994    1    1    2    0    0 -0.25041346696E+01  0.40274020169E+00  0.47443657362E+01  0.17128450571E+03  0.17120000000E+03 0.  0.
        998    1    1    2    0    0 -0.53974750882E+01  0.31093537131E+02  0.13736522187E+04  0.13740510757E+04  0.10000000000E+02 0.  1.
</event>
<event>
 5    1  0.1359793E-008  0.3860694E+03  0.7957747E-01  0.3425149E+00
         13   -1    0    0    0    0  0.00000000000E+00  0.00000000000E+00  0.14999999963E+04  0.15000000000E+04  0.10566000000E+00 0.  1.
        994   -1    0    0    0    0 -0.00000000000E+00 -0.00000000000E+00  0.11368683772E-12  0.17120000000E+03  0.17120000000E+03 0.  0.
         13    1    1    2    0    0  0.17668228923E+01 -0.10113522061E+02  0.48023194241E+02  0.49108485425E+02  0.10566000000E+00 0.  1.
        994    1    1    2    0    0  0.95401637510E+00  0.88019737342E+01  0.13570457003E+01  0.17143414614E+03  0.17120000000E+03 0.  0.
        998    1    1    2    0    0 -0.27208392674E+01  0.13115483265E+01  0.14506197563E+04  0.14506573684E+04  0.10000000000E+02 0.  1.
</event>
<event>
 5    1  0.1338054E-008  0.3805686E+03  0.7957747E-01  0.3448686E+00
         13   -1    0    0    0    0  0.00000000000E+00  0.00000000000E+00  0.14999999963E+04  0.15000000000E+04  0.10566000000E+00 0. -1.
        994   -1    0    0    0    0 -0.00000000000E+00 -0.00000000000E+00  0.11368683772E-12  0.17120000000E+03  0.17120000000E+03 0.  0.
         13    1    1    2    0    0  0.18771870016E+02 -0.57453319272E+02  0.98335507775E+02  0.11542595138E+03  0.10566000000E+00 0. -1.
        994    1    1    2    0    0 -0.13775380271E+02  0.57285636673E+02  0.29355079485E+02  0.18341909923E+03  0.17120000000E+03 0.  0.
        998    1    1    2    0    0 -0.49964897451E+01  0.16768259931E+00  0.13723094090E+04  0.13723549494E+04  0.10000000000E+02 0. -1.
</event>
<event>
 5    1  0.1338054E-008  0.3845644E+03  0.7957747E-01  0.3431522E+00
         13   -1    0    0    0    0  0.00000000000E+00  0.00000000000E+00  0.14999999963E+04  0.15000000000E+04  0.10566000000E+00 0.  1.
        994   -1    0    0    0    0 -0.00000000000E+00 -0.00000000000E+00  0.11368683772E-12  0.17120000000E+03  0.17120000000E+03 0.  0.
         13    1    1    2    0    0  0.14130751474E+02  0.13227112765E+02  0.98223002542E+02  0.10011195754E+03  0.10566000000E+00 0.  1.
        994    1    1    2    0    0 -0.10462473779E+02 -0.12881118291E+02  0.27539907931E+01  0.17202444893E+03  0.17120000000E+03 0.  0.
        998    1    1    2    0    0 -0.36682776957E+01 -0.34599447434E+00  0.13990230029E+04  0.13990635935E+04  0.10000000000E+02 0.  1.
</event>
<event>
 5    1  0.1338054E-008  0.3851241E+03  0.7957747E-01  0.3429146E+00
         13   -1    0    0    0    0  0.00000000000E+00  0.00000000000E+00  0.14999999963E+04  0.15000000000E+04  0.10566000000E+00 0. -1.
        994   -1    0    0    0    0 -0.00000000000E+00 -0.00000000000E+00  0.11368683772E-12  0.17120000000E+03  0.17120000000E+03 0.  0.
         13    1    1    2    0    0  0.10376582100E+02  0.28224053557E+01  0.38410354507E+02  0.39887415628E+02  0.10566000000E+00 0. -1.
        994    1    1    2    0    0 -0.24904249135E+01  0.13960339596E+02  0.22298936245E+01  0.17180077335E+03  0.17120000000E+03 0.  0.
        998    1    1    2    0    0 -0.78861571864E+01 -0.16782744951E+02  0.14593597481E+04  0.14595118110E+04  0.10000000000E+02 0. -1.
</event>
<event>
 5    1  0.1338054E-008  0.3757415E+03  0.7957747E-01  0.3469913E+00
         13   -1    0    0    0    0  0.00000000000E+00  0.00000000000E+00  0.14999999963E+04  0.15000000000E+04  0.10566000000E+00 0. -1.
        994   -1    0    0    0    0 -0.00000000000E+00 -0.00000000000E+00  0.11368683772E-12  0.17120000000E+03  0.17120000000E+03 0.  0.
         13    1    1    2    0    0 -0.20866059202E+00  0.27069694914E+02  0.56174828221E+02  0.62357312415E+02  0.10566000000E+00 0. -1.
        994    1    1    2    0    0  0.76848645719E-01 -0.15380390518E+02  0.71009561104E+01  0.17203611800E+03  0.17120000000E+03 0.  0.
        998    1    1    2    0    0  0.13181194630E+00 -0.11689304396E+02  0.14367242119E+04  0.14368065696E+04  0.10000000000E+02 0. -1.
</event>
<event>
 5    1  0.1338054E-008  0.3851670E+03  0.7957747E-01  0.3428964E+00
         13   -1    0    0    0    0  0.00000000000E+00  0.00000000000E+00  0.14999999963E+04  0.15000000000E+04  0.10566000000E+00 0.  1.
        994   -1    0    0    0    0 -0.00000000000E+00 -0.00000000000E+00  0.11368683772E-12  0.17120000000E+03  0.17120000000E+03 0.  0.
         13    1    1    2    0    0 -0.93195979439E+01 -0.16139213439E+02  0.10660545370E+03  0.10822228532E+03  0.10566000000E+00 0.  1.
        994    1    1    2    0    0  0.15310313504E+02  0.12369887983E+02  0.28216638995E+01  0.17235086775E+03  0.17120000000E+03 0.  0.
        998    1    1    2    0    0 -0.59907155598E+01  0.37693254552E+01  0.13905728787E+04  0.13906268469E+04  0.10000000000E+02 0.  1.
</event>
<event>
 5    1  0.1338054E-008  0.3843142E+03  0.7957747E-01  0.3432586E+00
         13   -1    0    0    0    0  0.00000000000E+00  0.00000000000E+00  0.14999999963E+04  0.15000000000E+04  0.10566000000E+00 0. -1.
        994   -1    0    0    0    0 -0.00000000000E+00 -0.00000000000E+00  0.11368683772E-12  0.17120000000E+03  0.17120000000E+03 0.  0.
         13    1    1    2    0    0  0.12688239962E+02 -0.13837091169E+02  0.83926221151E+02  0.86000455151E+02  0.10566000000E+00 0. -1.
        994    1    1    2    0    0 -0.12346077808E+02  0.17471800477E+02  0.34809875412E+01  0.17256664430E+03  0.17120000000E+03 0.  0.
        998    1    1    2    0    0 -0.34216215429E+00 -0.36347093079E+01  0.14125927876E+04  0.14126329006E+04  0.10000000000E+02 0. -1.
</event>
<event>
 5    1  0.1338054E-008  0.3822638E+03  0.7957747E-01  0.3441360E+00
         13   -1    0    0    0    0  0.00000000000E+00  0.00000000000E+00  0.14999999963E+04  0.15000000000E+04  0.10566000000E+00 0.  1.
        994   -1    0    0    0    0 -0.00000000000E+00 -0.00000000000E+00  0.11368683772E-12  0.17120000000E+03  0.17120000000E+03 0.  0.
         13    1    1    2    0    0 -0.22120593129E+02 -0.26529243879E+02  0.18323591685E+03  0.18646322374E+03  0.10566000000E+00 0.  1.
        994    1    1    2    0    0  0.25150991980E+02  0.18125023333E+02  0.61902687840E+01  0.17409436607E+03  0.17120000000E+03 0.  0.
        998    1    1    2    0    0 -0.30303988510E+01  0.84042205465E+01  0.13105738106E+04  0.13106424102E+04  0.10000000000E+02 0.  1.
</event>
<event>
 5    1  0.1338054E-008  0.3854045E+03  0.7957747E-01  0.3427958E+00
         13   -1    0    0    0    0  0.00000000000E+00  0.00000000000E+00  0.14999999963E+04  0.15000000000E+04  0.10566000000E+00 0.  1.
        994   -1    0    0    0    0 -0.00000000000E+00 -0.00000000000E+00  0.11368683772E-12  0.17120000000E+03  0.17120000000E+03 0.  0.
         13    1    1    2    0    0  0.19754100587E+02 -0.62984176526E+01  0.12047475544E+03  0.12224595051E+03  0.10566000000E+00 0.  1.
        994    1    1    2    0    0 -0.37236078740E+02  0.96793228096E+01  0.63061258591E+01  0.17558309165E+03  0.17120000000E+03 0.  0.
        998    1    1    2    0    0  0.17481978153E+02 -0.33809051570E+01  0.13732191150E+04  0.13733709578E+04  0.10000000000E+02 0.  1.
</event>
<event>
 5    1  0.1338054E-008  0.3782271E+03  0.7957747E-01  0.3458915E+00
         13   -1    0    0    0    0  0.00000000000E+00  0.00000000000E+00  0.14999999963E+04  0.15000000000E+04  0.10566000000E+00 0. -1.
        994   -1    0    0    0    0 -0.00000000000E+00 -0.00000000000E+00  0.11368683772E-12  0.17120000000E+03  0.17120000000E+03 0.  0.
         13    1    1    2    0    0 -0.32853691513E+02 -0.11967020588E+02  0.18056748125E+03  0.18392172540E+03  0.10566000000E+00 0. -1.
        994    1    1    2    0    0 -0.32314653686E+02 -0.24893645907E+02  0.10646422136E+02  0.17631425567E+03  0.17120000000E+03 0.  0.
        998    1    1    2    0    0  0.65168345199E+02  0.36860666496E+02  0.13087860929E+04  0.13109640189E+04  0.10000000000E+02 0. -1.
</event>
<event>
 5    1  0.1338054E-008  0.3857020E+03  0.7957747E-01  0.3426700E+00
         13   -1    0    0    0    0  0.00000000000E+00  0.00000000000E+00  0.14999999963E+04  0.15000000000E+04  0.10566000000E+00 0. -1.
        994   -1    0    0    0    0 -0.00000000000E+00 -0.00000000000E+00  0.11368683772E-12  0.17120000000E+03  0.17120000000E+03 0.  0.
         13    1    1    2    0    0 -0.11549890090E+02  0.95816307230E+01  0.89106523128E+02  0.90361447733E+02  0.10566000000E+00 0. -1.
        994    1    1    2    0    0  0.79437201579E+01 -0.43442528252E+01  0.15510049852E+01  0.17144626225E+03  0.17120000000E+03 0.  0.
        998    1    1    2    0    0  0.36061699317E+01 -0.52373778978E+01  0.14093424682E+04  0.14093922900E+04  0.10000000000E+02 0. -1.
</event>
<event>
 5    1  0.1338054E-008  0.3810204E+03  0.7957747E-01  0.3446727E+00
         13   -1    0    0    0    0  0.00000000000E+00  0.00000000000E+00  0.14999999963E+04  0.15000000000E+04  0.10566000000E+00 0.  1.
        994   -1    0    0    0    0 -0.00000000000E+00 -0.00000000000E+00  0.11368683772E-12  0.17120000000E+03  0.17120000000E+03 0.  0.
         13    1    1    2    0    0  0.14383574321E+02  0.13328008557E+02  0.49735540045E+02  0.53461744547E+02  0.10566000000E+00 0.  1.
        994    1    1    2    0    0 -0.17890876236E+02 -0.14899800605E+02  0.54270782454E+01  0.17286116015E+03  0.17120000000E+03 0.  0.
        998    1    1    2    0    0  0.35073019142E+01  0.15717920472E+01  0.14448373780E+04  0.14448770953E+04  0.10000000000E+02 0.  1.
</event>
<event>
 5    1  0.1338054E-008  0.3814125E+03  0.7957747E-01  0.3445031E+00
         13   -1    0    0    0    0  0.00000000000E+00  0.00000000000E+00  0.14999999963E+04  0.15000000000E+04  0.10566000000E+00 0.  1.
        994   -1    0    0    0    0 -0.00000000000E+00 -0.00000000000E+00  0.11368683772E-12  0.17120000000E+03  0.17120000000E+03 0.  0.
         13    1    1    2    0    0 -0.92229557888E+01 -0.22786160285E+02  0.10445257887E+03  0.10730621795E+03  0.10566000000E+00 0.  1.
        994    1    1    2    0    0 -0.96255738542E+01 -0.12969534720E+02  0.42902608224E+01  0.17201368213E+03  0.17120000000E+03 0.  0.
        998    1    1    2    0    0  0.18848529643E+02  0.35755695004E+02  0.13912571566E+04  0.13918800999E+04  0.10000000000E+02 0.  1.
</event>
<event>
 5    1  0.1488052E-008  0.3847035E+03  0.7957747E-01  0.3430930E+00
         13   -1    0    0    0    0  0.00000000000E+00  0.00000000000E+00  0.14999999963E+04  0.15000000000E+04  0.10566000000E+00 0.  1.
        994   -1    0    0    0    0 -0.00000000000E+00 -0.00000000000E+00  0.11368683772E-12  0.17120000000E+03  0.17120000000E+03 0.  0.
         13    1    1    2    0    0  0.19492098491E+01  0.10236901320E+02  0.30186410839E+02  0.31934685391E+02  0.10566000000E+00 0.  1.
        994    1    1    2    0    0 -0.19581870687E+01 -0.69871417543E+01  0.19507465857E+01  0.17136481570E+03  0.17120000000E+03 0.  0.
        998    1    1    2    0    0  0.89772196162E-02 -0.32497595656E+01  0.14678628389E+04  0.14679004989E+04  0.10000000000E+02 0.  1.
</event>
<event>
 5    1  0.1338054E-008  0.3823172E+03  0.7957747E-01  0.3441131E+00
         13   -1    0    0    0    0  0.00000000000E+00  0.00000000000E+00  0.14999999963E+04  0.15000000000E+04  0.10566000000E+00 0. -1.
        994   -1    0    0    0    0 -0.00000000000E+00 -0.00000000000E+00  0.11368683772E-12  0.17120000000E+03  0.17120000000E+03 0.  0.
         13    1    1    2    0    0 -0.91949320437E+01 -0.46145148724E+01  0.16845643700E+02  0.19738981699E+02  0.10566000000E+00 0. -1.
        994    1    1    2    0    0  0.13425969287E+01  0.39161801124E+01  0.30248688262E+01  0.17127676102E+03  0.17120000000E+03 0.  0.
        998    1    1    2    0    0  0.78523351150E+01  0.69833475996E+00  0.14801294838E+04  0.14801842573E+04  0.10000000000E+02 0. -1.
</event>
<event>
 5    1  0.1338054E-008  0.3859058E+03  0.7957747E-01  0.3425839E+00
         13   -1    0    0    0    0  0.00000000000E+00  0.00000000000E+00  0.14999999963E+04  0.15000000000E+04  0.10566000000E+00 0. -1.
        994   -1    0    0    0    0 -0.00000000000E+00 -0.00000000000E+00  0.11368683772E-12  0.17120000000E+03  0.17120000000E+03 0.  0.
         13    1    1    2    0    0 -0.90909575754E+01  0.69967716901E+01  0.58454310961E+02  0.59569438118E+02  0.10566000000E+00 0. -1.
        994    1    1    2    0    0  0.42548113705E+01  0.16658012063E+01  0.12495301891E+01  0.17126552379E+03  0.17120000000E+03 0.  0.
        998    1    1    2    0    0  0.48361462048E+01 -0.86625728965E+01  0.14402961551E+04  0.14403650381E+04  0.10000000000E+02 0. -1.
</event>
<event>
 5    1  0.1338054E-008  0.3753709E+03  0.7957747E-01  0.3471566E+00
         13   -1    0    0    0    0  0.00000000000E+00  0.00000000000E+00  0.14999999963E+04  0.15000000000E+04  0.10566000000E+00 0. -1.
        994   -1    0    0    0    0 -0.00000000000E+00 -0.00000000000E+00  0.11368683772E-12  0.17120000000E+03  0.17120000000E+03 0.  0.
         13    1    1    2    0    0 -0.21692451783E+02 -0.58452615441E+02  0.23014527612E+03  0.23844104094E+03  0.10566000000E+00 0. -1.
        994    1    1    2    0    0  0.22725196851E+02  0.72896887243E+02  0.26546925611E+02  0.18932662254E+03  0.17120000000E+03 0.  0.
        998    1    1    2    0    0 -0.10327450675E+01 -0.14444271802E+02  0.12433077945E+04  0.12434323365E+04  0.10000000000E+02 0. -1.
</event>
<event>
 5    1  0.1338054E-008  0.3835057E+03  0.7957747E-01  0.3436034E+00
         13   -1    0    0    0    0  0.00000000000E+00  0.00000000000E+00  0.14999999963E+04  0.15000000000E+04  0.10566000000E+00 0.  1.
        994   -1    0    0    0    0 -0.00000000000E+00 -0.00000000000E+00  0.11368683772E-12  0.17120000000E+03  0.17120000000E+03 0.  0.
         13    1    1    2    0    0  0.14878199781E+02  0.27913022879E+01  0.47594621017E+02  0.49944081842E+02  0.10566000000E+00 0.  1.
        994    1    1    2    0    0 -0.83888870951E+01 -0.10733889687E+02  0.29873924672E+01  0.17176715148E+03  0.17120000000E+03 0.  0.
        998    1    1    2    0    0 -0.64893126859E+01  0.79425873991E+01  0.14494179828E+04  0.14494887667E+04  0.10000000000E+02 0.  1.
</event>
<event>
 5    1  0.1338054E-008  0.3788426E+03  0.7957747E-01  0.3456213E+00
         13   -1    0    0    0    0  0.00000000000E+00  0.00000000000E+00  0.14999999963E+04  0.15000000000E+04  0.10566000000E+00 0. -1.
        994   -1    0    0    0    0 -0.00000000000E+00 -0.00000000000E+00  0.11368683772E-12  0.17120000000E+03  0.17120000000E+03 0.  0.
         13    1    1    2    0    0  0.69350819725E+02 -0.53018984610E+02  0.48557126644E+03  0.49335587043E+03  0.10566000000E+00 0. -1.
        994    1    1    2    0    0 -0.91327160952E+02  0.40517120519E+02  0.38981486735E+02  0.20201802813E+03  0.17120000000E+03 0.  0.
        998    1    1    2    0    0  0.21976341226E+02  0.12501864092E+02  0.97544724310E+03  0.97582610144E+03  0.10000000000E+02 0. -1.
</event>
<event>
 5    1  0.1338054E-008  0.3968255E+03  0.7957747E-01  0.3381017E+00
         13   -1    0    0    0    0  0.00000000000E+00  0.00000000000E+00  0.14999999963E+04  0.15000000000E+04  0.10566000000E+00 0.  1.
        994   -1    0    0    0    0 -0.00000000000E+00 -0.00000000000E+00  0.11368683772E-12  0.17120000000E+03  0.17120000000E+03 0.  0.
         13    1    1    2    0    0 -0.11796933688E+02  0.88578435388E+01 -0.74600015998E+01  0.16531540294E+02  0.10566000000E+00 0.  1.
        994    1    1    2    0    0  0.62421323221E+01 -0.14312266914E+02  0.26838776469E+02  0.17399300308E+03  0.17120000000E+03 0.  0.
        998    1    1    2    0    0  0.55548013655E+01  0.54544233751E+01  0.14806212214E+04  0.14806754566E+04  0.10000000000E+02 0.  1.
</event>
<event>
 5    1  0.1338054E-008  0.3843006E+03  0.7957747E-01  0.3432644E+00
         13   -1    0    0    0    0  0.00000000000E+00  0.00000000000E+00  0.14999999963E+04  0.15000000000E+04  0.10566000000E+00 0.  1.
        994   -1    0    0    0    0 -0.00000000000E+00 -0.00000000000E+00  0.11368683772E-12  0.17120000000E+03  0.17120000000E+03 0.  0.
         13    1    1    2    0    0 -0.13518772490E+02 -0.82362775980E+01  0.63542571704E+02  0.65484830771E+02  0.10566000000E+00 0.  1.
        994    1    1    2    0    0  0.36527846914E+01  0.11358861220E+02  0.24471933360E+01  0.17163273382E+03  0.17120000000E+03 0.  0.
        998    1    1    2    0    0  0.98659877990E+01 -0.31225836221E+01  0.14340102312E+04  0.14340824354E+04  0.10000000000E+02 0.  1.
</event>
<event>
 5    1  0.1338054E-008  0.3793472E+03  0.7957747E-01  0.3454006E+00
         13   -1    0    0    0    0  0.00000000000E+00  0.00000000000E+00  0.14999999963E+04  0.15000000000E+04  0.10566000000E+00 0. -1.
        994   -1    0    0    0    0 -0.00000000000E+00 -0.00000000000E+00  0.11368683772E-12  0.17120000000E+03  0.17120000000E+03 0.  0.
         13    1    1    2    0    0 -0.12478961832E+02  0.55609796112E+02  0.32232991642E+03  0.32732974215E+03  0.10566000000E+00 0. -1.
        994    1    1    2    0    0  0.23120834276E+02 -0.41339099399E+02  0.12016046246E+02  0.17803741035E+03  0.17120000000E+03 0.  0.
        998    1    1    2    0    0 -0.10641872443E+02 -0.14270696712E+02  0.11656540336E+04  0.11658328475E+04  0.10000000000E+02 0. -1.
</event>
<event>
 5    1  0.1338054E-008  0.3829504E+03  0.7957747E-01  0.3438412E+00
         13   -1    0    0    0    0  0.00000000000E+00  0.00000000000E+00  0.14999999963E+04  0.15000000000E+04  0.10566000000E+00 0.  1.
        994   -1    0    0    0    0 -0.00000000000E+00 -0.00000000000E+00  0.11368683772E-12  0.17120000000E+03  0.17120000000E+03 0.  0.
         13    1    1    2    0    0  0.95755230615E+01 -0.89414223813E+01  0.32289961074E+02  0.34846698930E+02  0.10566000000E+00 0.  1.
        994    1    1    2    0    0  0.11809488478E+01  0.43517845061E+01  0.27184871431E+01  0.17128094710E+03  0.17120000000E+03 0.  0.
        998    1    1    2    0    0 -0.10756471909E+02  0.45896378752E+01  0.14649915481E+04  0.14650723540E+04  0.10000000000E+02 0.  1.
</event>
<event>
 5    1  0.1338054E-008  0.3758616E+03  0.7957747E-01  0.3469378E+00
         13   -1    0    0    0    0  0.00000000000E+00  0.00000000000E+00  0.14999999963E+04  0.15000000000E+04  0.10566000000E+00 0.  1.
        994   -1    0    0    0    0 -0.00000000000E+00 -0.00000000000E+00  0.11368683772E-12  0.17120000000E+03  0.17120000000E+03 0.  0.
         13    1    1    2    0    0  0.24412026759E+02 -0.78755100699E+02  0.40212866963E+03  0.41049456883E+03  0.10566000000E+00 0.  1.
        994    1    1    2    0    0 -0.16969774922E+02  0.79254837045E+02  0.28838232493E+02  0.19159954621E+03  0.17120000000E+03 0.  0.
        998    1    1    2    0    0 -0.74422518375E+01 -0.49973634524E+00  0.10690330942E+04  0.10691058850E+04  0.10000000000E+02 0.  0.
</event>
<event>
 5    1  0.1338054E-008  0.3846178E+03  0.7957747E-01  0.3431295E+00
         13   -1    0    0    0    0  0.00000000000E+00  0.00000000000E+00  0.14999999963E+04  0.15000000000E+04  0.10566000000E+00 0.  1.
        994   -1    0    0    0    0 -0.00000000000E+00 -0.00000000000E+00  0.11368683772E-12  0.17120000000E+03  0.17120000000E+03 0.  0.
         13    1    1    2    0    0  0.33419480086E+01  0.11868800371E+02  0.43331559539E+02  0.45051884033E+02  0.10566000000E+00 0.  1.
        994    1    1    2    0    0  0.59083054350E+01 -0.12730472541E+01  0.19403252875E+01  0.17131763944E+03  0.17120000000E+03 0.  0.
        998    1    1    2    0    0 -0.92502534436E+01 -0.10595753117E+02  0.14547281115E+04  0.14548304765E+04  0.10000000000E+02 0.  1.
</event>
<event>
 5    1  0.1338054E-008  0.3850772E+03  0.7957747E-01  0.3429345E+00
         13   -1    0    0    0    0  0.00000000000E+00  0.00000000000E+00  0.14999999963E+04  0.15000000000E+04  0.10566000000E+00 0.  1.
        994   -1    0    0    0    0 -0.00000000000E+00 -0.00000000000E+00  0.11368683772E-12  0.17120000000E+03  0.17120000000E+03 0.  0.
         13    1    1    2    0    0  0.28485163136E+01 -0.13484369360E+02  0.60492362026E+02  0.62042560310E+02  0.10566000000E+00 0.  1.
        994    1    1    2    0    0 -0.16086781569E+01  0.68213366930E+01  0.17533078280E+01  0.17135236377E+03  0.17120000000E+03 0.  0.
        998    1    1    2    0    0 -0.12398381567E+01  0.66630326671E+01  0.14377543264E+04  0.14378050759E+04  0.10000000000E+02 0.  1.
</event>
<event>
 5    1  0.1338054E-008  0.3742749E+03  0.7957747E-01  0.3476472E+00
         13   -1    0    0    0    0  0.00000000000E+00  0.00000000000E+00  0.14999999963E+04  0.15000000000E+04  0.10566000000E+00 0.  1.
        994   -1    0    0    0    0 -0.00000000000E+00 -0.00000000000E+00  0.11368683772E-12  0.17120000000E+03  0.17120000000E+03 0.  0.
         13    1    1    2    0    0  0.38619003744E+02  0.27501396626E+01  0.97246211375E+02  0.10467008889E+03  0.10566000000E+00 0.  1.
        994    1    1    2    0    0 -0.39020520850E+02 -0.12180286810E+02  0.12766793534E+02  0.17647490318E+03  0.17120000000E+03 0.  0.
        998    1    1    2    0    0  0.40151710614E+00  0.94301471469E+01  0.13899869914E+04  0.13900550079E+04  0.10000000000E+02 0.  1.
</event>
<event>
 5    1  0.1338054E-008  0.3807857E+03  0.7957747E-01  0.3447744E+00
         13   -1    0    0    0    0  0.00000000000E+00  0.00000000000E+00  0.14999999963E+04  0.15000000000E+04  0.10566000000E+00 0. -1.
        994   -1    0    0    0    0 -0.00000000000E+00 -0.00000000000E+00  0.11368683772E-12  0.17120000000E+03  0.17120000000E+03 0.  0.
         13    1    1    2    0    0 -0.74899109100E+02 -0.34237294805E+02  0.19041735319E+03  0.20746288453E+03  0.10566000000E+00 0. -1.
        994    1    1    2    0    0  0.57500662275E+02  0.18024720730E+02  0.30076351844E+02  0.18397076849E+03  0.17120000000E+03 0.  0.
        998    1    1    2    0    0  0.17398446825E+02  0.16212574075E+02  0.12795062912E+04  0.12797663470E+04  0.10000000000E+02 0. -1.
</event>
<event>
 5    1  0.1338054E-008  0.3734665E+03  0.7957747E-01  0.3480109E+00
         13   -1    0    0    0    0  0.00000000000E+00  0.00000000000E+00  0.14999999963E+04  0.15000000000E+04  0.10566000000E+00 0.  1.
        994   -1    0    0    0    0 -0.00000000000E+00 -0.00000000000E+00  0.11368683772E-12  0.17120000000E+03  0.17120000000E+03 0.  0.
         13    1    1    2    0    0  0.76189443167E+02 -0.35836813818E+02  0.35971289445E+03  0.36943536116E+03  0.10566000000E+00 0.  1.
        994    1    1    2    0    0 -0.80893531463E+02  0.24059703384E+02  0.32210838114E+02  0.19357068696E+03  0.17120000000E+03 0.  0.
        998    1    1    2    0    0  0.47040882963E+01  0.11777110434E+02  0.11080762637E+04  0.11081939519E+04  0.10000000000E+02 0.  1.
</event>
<event>
 5    1  0.2063968E-008  0.3861169E+03  0.7957747E-01  0.3424949E+00
         13   -1    0    0    0    0  0.00000000000E+00  0.00000000000E+00  0.14999999963E+04  0.15000000000E+04  0.10566000000E+00 0. -1.
        994   -1    0    0    0    0 -0.00000000000E+00 -0.00000000000E+00  0.11368683772E-12  0.17120000000E+03  0.17120000000E+03 0.  0.
         13    1    1    2    0    0  0.93054074955E+01 -0.59448051185E+01  0.57041017876E+02  0.58100087788E+02  0.10566000000E+00 0. -1.
        994    1    1    2    0    0 -0.78954842864E+01  0.30606828684E+01  0.13116360341E+01  0.17141431341E+03  0.17120000000E+03 0.  0.
        998    1    1    2    0    0 -0.14099232091E+01  0.28841222502E+01  0.14416473424E+04  0.14416855988E+04  0.10000000000E+02 0. -1.
</event>
<event>
 5    1  0.1338054E-008  0.3857498E+03  0.7957747E-01  0.3426498E+00
         13   -1    0    0    0    0  0.00000000000E+00  0.00000000000E+00  0.14999999963E+04  0.15000000000E+04  0.10566000000E+00 0. -1.
        994   -1    0    0    0    0 -0.00000000000E+00 -0.00000000000E+00  0.11368683772E-12  0.17120000000E+03  0.17120000000E+03 0.  0.
         13    1    1    2    0    0 -0.10881569553E+02  0.55154263175E+01  0.62283067029E+02  0.63466684851E+02  0.10566000000E+00 0. -1.
        994    1    1    2    0    0  0.57456165406E+01  0.67839983766E+01  0.15176616753E+01  0.17143738811E+03  0.17120000000E+03 0.  0.
        998    1    1    2    0    0  0.51359530127E+01 -0.12299424694E+02  0.14361992676E+04  0.14362959270E+04  0.10000000000E+02 0. -1.
</event>
<event>
 5    1  0.1338054E-008  0.3744915E+03  0.7957747E-01  0.3475500E+00
         13   -1    0    0    0    0  0.00000000000E+00  0.00000000000E+00  0.14999999963E+04  0.15000000000E+04  0.10566000000E+00 0.  1.
        994   -1    0    0    0    0 -0.00000000000E+00 -0.00000000000E+00  0.11368683772E-12  0.17120000000E+03  0.17120000000E+03 0.  0.
         13    1    1    2    0    0 -0.42380208188E+02  0.22407877501E+01  0.12471561501E+03  0.13173875272E+03  0.10566000000E+00 0.  1.
        994    1    1    2    0    0  0.30566939452E+02  0.75840534682E+01  0.10324844124E+02  0.17437860551E+03  0.17120000000E+03 0.  0.
        998    1    1    2    0    0  0.11813268737E+02 -0.98248412183E+01  0.13649595371E+04  0.13650826418E+04  0.10000000000E+02 0.  1.
</event>
<event>
 5    1  0.1338054E-008  0.3851400E+03  0.7957747E-01  0.3429078E+00
         13   -1    0    0    0    0  0.00000000000E+00  0.00000000000E+00  0.14999999963E+04  0.15000000000E+04  0.10566000000E+00 0. -1.
        994   -1    0    0    0    0 -0.00000000000E+00 -0.00000000000E+00  0.11368683772E-12  0.17120000000E+03  0.17120000000E+03 0.  0.
         13    1    1    2    0    0 -0.13485506043E+02 -0.19411083604E+01  0.55730656765E+02  0.57371979593E+02  0.10566000000E+00 0. -1.
        994    1    1    2    0    0  0.23036502904E+02 -0.15641645323E+02  0.41134518642E+01  0.17349842080E+03  0.17120000000E+03 0.  0.
        998    1    1    2    0    0 -0.95509968605E+01  0.17582753684E+02  0.14401558876E+04  0.14403295996E+04  0.10000000000E+02 0. -1.
</event>
<event>
 5    1  0.1338054E-008  0.4218703E+03  0.7957747E-01  0.3286924E+00
         13   -1    0    0    0    0  0.00000000000E+00  0.00000000000E+00  0.14999999963E+04  0.15000000000E+04  0.10566000000E+00 0.  1.
        994   -1    0    0    0    0 -0.00000000000E+00 -0.00000000000E+00  0.11368683772E-12  0.17120000000E+03  0.17120000000E+03 0.  0.
         13    1    1    2    0    0 -0.99454369129E+02  0.47543579650E+02  0.14828589615E+03  0.18477088966E+03  0.10566000000E+00 0.  1.
        994    1    1    2    0    0  0.67683732398E+02  0.24171657628E+02  0.64156171016E+02  0.19644544012E+03  0.17120000000E+03 0.  0.
        998    1    1    2    0    0  0.31770636731E+02 -0.71715237278E+02  0.12875579291E+04  0.12899836702E+04  0.10000000000E+02 0.  1.
</event>
<event>
 5    1  0.1338054E-008  0.3799577E+03  0.7957747E-01  0.3451343E+00
         13   -1    0    0    0    0  0.00000000000E+00  0.00000000000E+00  0.14999999963E+04  0.15000000000E+04  0.10566000000E+00 0. -1.
        994   -1    0    0    0    0 -0.00000000000E+00 -0.00000000000E+00  0.11368683772E-12  0.17120000000E+03  0.17120000000E+03 0.  0.
         13    1    1    2    0    0  0.12849709550E+00 -0.22340751267E+02  0.64474332383E+02  0.68235448111E+02  0.10566000000E+00 0. -1.
        994    1    1    2    0    0  0.36224835418E+01 -0.85073849853E+01  0.44404075960E+01  0.17150701212E+03  0.17120000000E+03 0.  0.
        998    1    1    2    0    0 -0.37509806373E+01  0.30848136252E+02  0.14310852563E+04  0.14314575398E+04  0.10000000000E+02 0. -1.
</event>
<event>
 5    1  0.1338054E-008  0.3819047E+03  0.7957747E-01  0.3442907E+00
         13   -1    0    0    0    0  0.00000000000E+00  0.00000000000E+00  0.14999999963E+04  0.15000000000E+04  0.10566000000E+00 0. -1.
        994   -1    0    0    0    0 -0.00000000000E+00 -0.00000000000E+00  0.11368683772E-12  0.17120000000E+03  0.17120000000E+03 0.  0.
         13    1    1    2    0    0 -0.14299681303E+02 -0.13145808881E+02  0.58026559843E+02  0.61191388183E+02  0.10566000000E+00 0. -1.
        994    1    1    2    0    0  0.74184149141E+01  0.12384682023E+02  0.38673834177E+01  0.17185112709E+03  0.17120000000E+03 0.  0.
        998    1    1    2    0    0  0.68812663886E+01  0.76112685810E+00  0.14381060530E+04  0.14381574847E+04  0.10000000000E+02 0. -1.
</event>
<event>
 5    1  0.1338054E-008  0.3851059E+03  0.7957747E-01  0.3429223E+00
         13   -1    0    0    0    0  0.00000000000E+00  0.00000000000E+00  0.14999999963E+04  0.15000000000E+04  0.10566000000E+00 0. -1.
        994   -1    0    0    0    0 -0.00000000000E+00 -0.00000000000E+00  0.11368683772E-12  0.17120000000E+03  0.17120000000E+03 0.  0.
         13    1    1    2    0    0  0.13793646627E+02  0.62317305180E+01  0.72187710961E+02  0.73757548294E+02  0.10566000000E+00 0. -1.
        994    1    1    2    0    0 -0.11799670390E+02 -0.61988256042E+00  0.20366995595E+01  0.17161935969E+03  0.17120000000E+03 0.  0.
        998    1    1    2    0    0 -0.19939762367E+01 -0.56118479576E+01  0.14257755858E+04  0.14258230920E+04  0.10000000000E+02 0. -1.
</event>
<event>
 5    1  0.1338054E-008  0.3813937E+03  0.7957747E-01  0.3445113E+00
         13   -1    0    0    0    0  0.00000000000E+00  0.00000000000E+00  0.14999999963E+04  0.15000000000E+04  0.10566000000E+00 0.  1.
        994   -1    0    0    0    0 -0.00000000000E+00 -0.00000000000E+00  0.11368683772E-12  0.17120000000E+03  0.17120000000E+03 0.  0.
         13    1    1    2    0    0 -0.43502213569E+01 -0.23055146510E+02  0.76399683075E+02  0.79921129525E+02  0.10566000000E+00 0.  1.
        994    1    1    2    0    0  0.19630411924E+02  0.18565969974E+02  0.58643767173E+01  0.17341822058E+03  0.17120000000E+03 0.  0.
        998    1    1    2    0    0 -0.15280190567E+02  0.44891765365E+01  0.14177359365E+04  0.14178606499E+04  0.10000000000E+02 0.  1.
</event>
<event>
 5    1  0.1338054E-008  0.3845186E+03  0.7957747E-01  0.3431717E+00
         13   -1    0    0    0    0  0.00000000000E+00  0.00000000000E+00  0.14999999963E+04  0.15000000000E+04  0.10566000000E+00 0.  1.
        994   -1    0    0    0    0 -0.00000000000E+00 -0.00000000000E+00  0.11368683772E-12  0.17120000000E+03  0.17120000000E+03 0.  0.
         13    1    1    2    0    0  0.79143786135E+01  0.77353217179E+01  0.32147148528E+02  0.33998866355E+02  0.10566000000E+00 0.  1.
        994    1    1    2    0    0 -0.12790544027E+02  0.46769762377E-03  0.24083878794E+01  0.17169402537E+03  0.17120000000E+03 0.  0.
        998    1    1    2    0    0  0.48761654138E+01 -0.77357894155E+01  0.14654444599E+04  0.14655071083E+04  0.10000000000E+02 0.  1.
</event>
<event>
 5    1  0.1338054E-008  0.3313951E+03  0.7957747E-01  0.3694596E+00
         13   -1    0    0    0    0  0.00000000000E+00  0.00000000000E+00  0.14999999963E+04  0.15000000000E+04  0.10566000000E+00 0.  1.
        994   -1    0    0    0    0 -0.00000000000E+00 -0.00000000000E+00  0.11368683772E-12  0.17120000000E+03  0.17120000000E+03 0.  0.
         13    1    1    2    0    0 -0.13928195616E+02  0.20594247330E+03  0.93623391995E+03  0.95871802996E+03  0.10566000000E+00 0.  1.
        994    1    1    2    0    0 -0.28581578539E+02 -0.16325866833E+03  0.12423046437E+03  0.26872466893E+03  0.17120000000E+03 0.  0.
        998    1    1    2    0    0  0.42509774155E+02 -0.42683804968E+02  0.43953561196E+03  0.44375730110E+03  0.10000000000E+02 0.  1.
</event>
<event>
 5    1  0.1338054E-008  0.3862412E+03  0.7957747E-01  0.3424425E+00
         13   -1    0    0    0    0  0.00000000000E+00  0.00000000000E+00  0.14999999963E+04  0.15000000000E+04  0.10566000000E+00 0.  1.
        994   -1    0    0    0    0 -0.00000000000E+00 -0.00000000000E+00  0.11368683772E-12  0.17120000000E+03  0.17120000000E+03 0.  0.
         13    1    1    2    0    0 -0.10468509696E+02 -0.30853871739E+01  0.57168647963E+02  0.58201157920E+02  0.10566000000E+00 0.  1.
        994    1    1    2    0    0  0.10501237360E+02  0.10555196336E+02  0.17416205044E+01  0.17185505927E+03  0.17120000000E+03 0.  0.
        998    1    1    2    0    0 -0.32727664849E-01 -0.74698091625E+01  0.14410897278E+04  0.14411437828E+04  0.10000000000E+02 0.  1.
</event>
<event>
 5    1  0.1338054E-008  0.3824885E+03  0.7957747E-01  0.3440394E+00
         13   -1    0    0    0    0  0.00000000000E+00  0.00000000000E+00  0.14999999963E+04  0.15000000000E+04  0.10566000000E+00 0.  1.
        994   -1    0    0    0    0 -0.00000000000E+00 -0.00000000000E+00  0.11368683772E-12  0.17120000000E+03  0.17120000000E+03 0.  0.
         13    1    1    2    0    0  0.13454812007E+02  0.34808459663E+01  0.33507217739E+02  0.36275240309E+02  0.10566000000E+00 0.  1.
        994    1    1    2    0    0  0.58819469895E-01 -0.45461251722E+01  0.29507335667E+01  0.17128577741E+03  0.17120000000E+03 0.  0.
        998    1    1    2    0    0 -0.13513631477E+02  0.10652792058E+01  0.14635420450E+04  0.14636389823E+04  0.10000000000E+02 0.  1.
</event>
<event>
 5    1  0.1338054E-008  0.3708278E+03  0.7957747E-01  0.3492095E+00
         13   -1    0    0    0    0  0.00000000000E+00  0.00000000000E+00  0.14999999963E+04  0.15000000000E+04  0.10566000000E+00 0. -1.
        994   -1    0    0    0    0 -0.00000000000E+00 -0.00000000000E+00  0.11368683772E-12  0.17120000000E+03  0.17120000000E+03 0.  0.
         13    1    1    2    0    0  0.28400361423E+02  0.76409830560E+02  0.26080063668E+03  0.27324352873E+03  0.10566000000E+00 0. -1.
        994    1    1    2    0    0  0.41857822503E+01 -0.11732752200E+03  0.57973949686E+02  0.21553117416E+03  0.17120000000E+03 0.  0.
        998    1    1    2    0    0 -0.32586143674E+02  0.40917691439E+02  0.11812254099E+04  0.11824252971E+04  0.10000000000E+02 0. -1.
</event>
<event>
 5    1  0.1338054E-008  0.3787250E+03  0.7957747E-01  0.3456729E+00
         13   -1    0    0    0    0  0.00000000000E+00  0.00000000000E+00  0.14999999963E+04  0.15000000000E+04  0.10566000000E+00 0. -1.
        994   -1    0    0    0    0 -0.00000000000E+00 -0.00000000000E+00  0.11368683772E-12  0.17120000000E+03  0.17120000000E+03 0.  0.
         13    1    1    2    0    0 -0.26525767391E+02  0.13220902503E+02  0.88939589337E+02  0.93747908319E+02  0.10566000000E+00 0. -1.
        994    1    1    2    0    0  0.22039427909E+02 -0.36920733848E+01  0.64563468437E+01  0.17277294986E+03  0.17120000000E+03 0.  0.
        998    1    1    2    0    0  0.44863394820E+01 -0.95288291183E+01  0.14046040601E+04  0.14046791418E+04  0.10000000000E+02 0. -1.
</event>
<event>
 5    1  0.1338054E-008  0.3757705E+03  0.7957747E-01  0.3469784E+00
         13   -1    0    0    0    0  0.00000000000E+00  0.00000000000E+00  0.14999999963E+04  0.15000000000E+04  0.10566000000E+00 0.  1.
        994   -1    0    0    0    0 -0.00000000000E+00 -0.00000000000E+00  0.11368683772E-12  0.17120000000E+03  0.17120000000E+03 0.  0.
         13    1    1    2    0    0 -0.91561872832E+01  0.14053367749E+02  0.19560903842E+02  0.25767674202E+02  0.10566000000E+00 0.  1.
        994    1    1    2    0    0  0.87771248520E+01 -0.11698641805E+02  0.70090913609E+01  0.17196646040E+03  0.17120000000E+03 0.  0.
        998    1    1    2    0    0  0.37906243118E+00 -0.23547259432E+01  0.14734300011E+04  0.14734658654E+04  0.10000000000E+02 0.  1.
</event>
<event>
 5    1  0.1338055E-008  0.3850895E+03  0.7957747E-01  0.3429293E+00
         13   -1    0    0    0    0  0.00000000000E+00  0.00000000000E+00  0.14999999963E+04  0.15000000000E+04  0.10566000000E+00 0. -1.
        994   -1    0    0    0    0 -0.00000000000E+00 -0.00000000000E+00  0.11368683772E-12  0.17120000000E+03  0.17120000000E+03 0.  0.
         13    1    1    2    0    0 -0.72639841313E+01 -0.80900393194E+01  0.37719517305E+02  0.39255411746E+02  0.10566000000E+00 0. -1.
        994    1    1    2    0    0  0.30995930944E+01  0.30536020269E+01  0.16479530801E+01  0.17126321179E+03  0.17120000000E+03 0.  0.
        998    1    1    2    0    0  0.41643910370E+01  0.50364372925E+01  0.14606325259E+04  0.14606813765E+04  0.10000000000E+02 0.  0.
</event>
<event>
 5    1  0.1338054E-008  0.3841761E+03  0.7957747E-01  0.3433174E+00
         13   -1    0    0    0    0  0.00000000000E+00  0.00000000000E+00  0.14999999963E+04  0.15000000000E+04  0.10566000000E+00 0.  1.
        994   -1    0    0    0    0 -0.00000000000E+00 -0.00000000000E+00  0.11368683772E-12  0.17120000000E+03  0.17120000000E+03 0.  0.
         13    1    1    2    0    0  0.96270522295E+01 -0.17137229094E+02  0.99811962271E+02  0.10172907024E+03  0.10566000000E+00 0.  1.
        994    1    1    2    0    0  0.27370522455E+00  0.53772449607E+01  0.21353363192E+01  0.17129795486E+03  0.17120000000E+03 0.  0.
        998    1    1    2    0    0 -0.99007574541E+01  0.11759984134E+02  0.13980526977E+04  0.13981729749E+04  0.10000000000E+02 0.  1.
</event>
<event>
 5    1  0.1338054E-008  0.3825318E+03  0.7957747E-01  0.3440208E+00
         13   -1    0    0    0    0  0.00000000000E+00  0.00000000000E+00  0.14999999963E+04  0.15000000000E+04  0.10566000000E+00 0. -1.
        994   -1    0    0    0    0 -0.00000000000E+00 -0.00000000000E+00  0.11368683772E-12  0.17120000000E+03  0.17120000000E+03 0.  0.
         13    1    1    2    0    0  0.30354712590E+02 -0.13471557020E+02  0.17057925547E+03  0.17378200421E+03  0.10566000000E+00 0. -1.
        994    1    1    2    0    0 -0.33096588638E+02  0.10458585606E+02  0.68648206921E+01  0.17481799666E+03  0.17120000000E+03 0.  0.
        998    1    1    2    0    0  0.27418760475E+01  0.30129714140E+01  0.13225559201E+04  0.13225999991E+04  0.10000000000E+02 0. -1.
</event>
<event>
 5    1  0.1338054E-008  0.3841935E+03  0.7957747E-01  0.3433100E+00
         13   -1    0    0    0    0  0.00000000000E+00  0.00000000000E+00  0.14999999963E+04  0.15000000000E+04  0.10566000000E+00 0. -1.
        994   -1    0    0    0    0 -0.00000000000E+00 -0.00000000000E+00  0.11368683772E-12  0.17120000000E+03  0.17120000000E+03 0.  0.
         13    1    1    2    0    0 -0.68296783427E+01  0.12308259997E+02  0.51194885782E+02  0.53094870418E+02  0.10566000000E+00 0. -1.
        994    1    1    2    0    0  0.13181254371E+02  0.89549349667E+01  0.28688074520E+01  0.17196396827E+03  0.17120000000E+03 0.  0.
        998    1    1    2    0    0 -0.63515760285E+01 -0.21263194964E+02  0.14459363030E+04  0.14461411613E+04  0.10000000000E+02 0. -1.
</event>
<event>
 5    1  0.1338054E-008  0.3709700E+03  0.7957747E-01  0.3491445E+00
         13   -1    0    0    0    0  0.00000000000E+00  0.00000000000E+00  0.14999999963E+04  0.15000000000E+04  0.10566000000E+00 0. -1.
        994   -1    0    0    0    0 -0.00000000000E+00 -0.00000000000E+00  0.11368683772E-12  0.17120000000E+03  0.17120000000E+03 0.  0.
         13    1    1    2    0    0 -0.16921150713E+02  0.13759234563E+02  0.22524667043E+02  0.31353048762E+02  0.10566000000E+00 0. -1.
        994    1    1    2    0    0  0.29385675611E+02 -0.14183207461E+02  0.12440786816E+02  0.17472519704E+03  0.17120000000E+03 0.  0.
        998    1    1    2    0    0 -0.12464524899E+02  0.42397289809E+00  0.14650345424E+04  0.14651217542E+04  0.10000000000E+02 0. -1.
</event>
<event>
 5    1  0.1338054E-008  0.3741773E+03  0.7957747E-01  0.3476911E+00
         13   -1    0    0    0    0  0.00000000000E+00  0.00000000000E+00  0.14999999963E+04  0.15000000000E+04  0.10566000000E+00 0. -1.
        994   -1    0    0    0    0 -0.00000000000E+00 -0.00000000000E+00  0.11368683772E-12  0.17120000000E+03  0.17120000000E+03 0.  0.
         13    1    1    2    0    0  0.50636890637E+01 -0.25699507641E+02  0.44040829383E+02  0.51241696466E+02  0.10566000000E+00 0. -1.
        994    1    1    2    0    0 -0.30573599792E+01  0.28362821663E+02  0.98807831040E+01  0.17384149958E+03  0.17120000000E+03 0.  0.
        998    1    1    2    0    0 -0.20063290845E+01 -0.26633140216E+01  0.14460783838E+04  0.14461168040E+04  0.10000000000E+02 0. -1.
</event>
<event>
 5    1  0.1338054E-008  0.3805001E+03  0.7957747E-01  0.3448984E+00
         13   -1    0    0    0    0  0.00000000000E+00  0.00000000000E+00  0.14999999963E+04  0.15000000000E+04  0.10566000000E+00 0. -1.
        994   -1    0    0    0    0 -0.00000000000E+00 -0.00000000000E+00  0.11368683772E-12  0.17120000000E+03  0.17120000000E+03 0.  0.
         13    1    1    2    0    0 -0.59890527889E+02  0.12031363315E+02  0.36697911837E+03  0.37202864610E+03  0.10566000000E+00 0. -1.
        994    1    1    2    0    0  0.61077152239E+02 -0.35492916525E+01  0.16475494845E+02  0.18254834408E+03  0.17120000000E+03 0.  0.
        998    1    1    2    0    0 -0.11866243503E+01 -0.84820716623E+01  0.11165453831E+04  0.11166230098E+04  0.10000000000E+02 0. -1.
</event>
<event>
 5    1  0.1338054E-008  0.3771181E+03  0.7957747E-01  0.3463804E+00
         13   -1    0    0    0    0  0.00000000000E+00  0.00000000000E+00  0.14999999963E+04  0.15000000000E+04  0.10566000000E+00 0. -1.
        994   -1    0    0    0    0 -0.00000000000E+00 -0.00000000000E+00  0.11368683772E-12  0.17120000000E+03  0.17120000000E+03 0.  0.
         13    1    1    2    0    0 -0.45418893557E+02 -0.22180587504E+02  0.19798099273E+03  0.20433144399E+03  0.10566000000E+00 0. -1.
        994    1    1    2    0    0  0.35135809621E+02  0.44578023717E+02  0.16546982563E+02  0.18112141770E+03  0.17120000000E+03 0.  0.
        998    1    1    2    0    0  0.10283083936E+02 -0.22397436213E+02  0.12854720210E+04  0.12857471383E+04  0.10000000000E+02 0. -1.
</event>
<event>
 5    1  0.1338054E-008  0.3844308E+03  0.7957747E-01  0.3432090E+00
         13   -1    0    0    0    0  0.00000000000E+00  0.00000000000E+00  0.14999999963E+04  0.15000000000E+04  0.10566000000E+00 0.  1.
        994   -1    0    0    0    0 -0.00000000000E+00 -0.00000000000E+00  0.11368683772E-12  0.17120000000E+03  0.17120000000E+03 0.  0.
         13    1    1    2    0    0 -0.12075158052E+01 -0.11576054865E+02  0.35168045377E+02  0.37044105069E+02  0.10566000000E+00 0.  1.
        994    1    1    2    0    0 -0.29215744147E+01  0.71867278760E+01  0.21113399219E+01  0.17138868811E+03  0.17120000000E+03 0.  0.
        998    1    1    2    0    0  0.41290902199E+01  0.43893269890E+01  0.14627206110E+04  0.14627672068E+04  0.10000000000E+02 0.  1.
</event>
<event>
 5    1  0.1338054E-008  0.3800142E+03  0.7957747E-01  0.3451096E+00
         13   -1    0    0    0    0  0.00000000000E+00  0.00000000000E+00  0.14999999963E+04  0.15000000000E+04  0.10566000000E+00 0. -1.
        994   -1    0    0    0    0 -0.00000000000E+00 -0.00000000000E+00  0.11368683772E-12  0.17120000000E+03  0.17120000000E+03 0.  0.
         13    1    1    2    0    0 -0.34904236068E+02 -0.22870344341E+02  0.19979644767E+03  0.20410779018E+03  0.10566000000E+00 0. -1.
        994    1    1    2    0    0  0.98783087087E+01  0.43309701084E+02  0.10750617070E+02  0.17719573064E+03  0.17120000000E+03 0.  0.
        998    1    1    2    0    0  0.25025927359E+02 -0.20439356743E+02  0.12894529315E+04  0.12898964792E+04  0.10000000000E+02 0. -1.
</event>
<event>
 5    1  0.1338054E-008  0.3841070E+03  0.7957747E-01  0.3433469E+00
         13   -1    0    0    0    0  0.00000000000E+00  0.00000000000E+00  0.14999999963E+04  0.15000000000E+04  0.10566000000E+00 0. -1.
        994   -1    0    0    0    0 -0.00000000000E+00 -0.00000000000E+00  0.11368683772E-12  0.17120000000E+03  0.17120000000E+03 0.  0.
         13    1    1    2    0    0 -0.84228869740E+01  0.11820113013E+02  0.51517320809E+02  0.53522944649E+02  0.10566000000E+00 0. -1.
        994    1    1    2    0    0  0.10585209687E+02  0.11429159361E+01  0.24481185839E+01  0.17154820374E+03  0.17120000000E+03 0.  0.
        998    1    1    2    0    0 -0.21623227127E+01 -0.12963028949E+02  0.14460345569E+04  0.14461288516E+04  0.10000000000E+02 0. -1.
</event>
<event>
 5    1  0.1338054E-008  0.3807233E+03  0.7957747E-01  0.3448015E+00
         13   -1    0    0    0    0  0.00000000000E+00  0.00000000000E+00  0.14999999963E+04  0.15000000000E+04  0.10566000000E+00 0. -1.
        994   -1    0    0    0    0 -0.00000000000E+00 -0.00000000000E+00  0.11368683772E-12  0.17120000000E+03  0.17120000000E+03 0.  0.
         13    1    1    2    0    0  0.10190205627E+02 -0.13504555585E+01  0.12412533546E+02  0.16116642765E+02  0.10566000000E+00 0. -1.
        994    1    1    2    0    0 -0.63065742582E+01  0.31325270213E+01  0.39338677674E+01  0.17138990904E+03  0.17120000000E+03 0.  0.
        998    1    1    2    0    0 -0.38836313686E+01 -0.17820714628E+01  0.14836535950E+04  0.14836934482E+04  0.10000000000E+02 0. -1.
</event>
<event>
 5    1  0.1338054E-008  0.3820297E+03  0.7957747E-01  0.3442368E+00
         13   -1    0    0    0    0  0.00000000000E+00  0.00000000000E+00  0.14999999963E+04  0.15000000000E+04  0.10566000000E+00 0. -1.
        994   -1    0    0    0    0 -0.00000000000E+00 -0.00000000000E+00  0.11368683772E-12  0.17120000000E+03  0.17120000000E+03 0.  0.
         13    1    1    2    0    0 -0.20098204385E+02  0.27306856334E+01  0.61692314148E+02  0.64941106031E+02  0.10566000000E+00 0. -1.
        994    1    1    2    0    0  0.24425488398E+02 -0.30984693948E+01  0.51276432323E+01  0.17303738822E+03  0.17120000000E+03 0.  0.
        998    1    1    2    0    0 -0.43272840124E+01  0.36778376144E+00  0.14331800389E+04  0.14332215058E+04  0.10000000000E+02 0. -1.
</event>
<event>
 5    1  0.1338054E-008  0.3056337E+03  0.7957747E-01  0.3856603E+00
         13   -1    0    0    0    0  0.00000000000E+00  0.00000000000E+00  0.14999999963E+04  0.15000000000E+04  0.10566000000E+00 0. -1.
        994   -1    0    0    0    0 -0.00000000000E+00 -0.00000000000E+00  0.11368683772E-12  0.17120000000E+03  0.17120000000E+03 0.  0.
         13    1    1    2    0    0 -0.18702720303E+03 -0.76698541098E+02  0.74376944590E+03  0.77074953175E+03  0.10566000000E+00 0. -1.
        994    1    1    2    0    0  0.15934993280E+03  0.74612413831E+01  0.12604654366E+03  0.26579172744E+03  0.17120000000E+03 0.  0.
        998    1    1    2    0    0  0.27677270224E+02  0.69237299715E+02  0.63018400672E+03  0.63465874081E+03  0.10000000000E+02 0. -1.
</event>
<event>
 5    1  0.1338054E-008  0.3776762E+03  0.7957747E-01  0.3461340E+00
         13   -1    0    0    0    0  0.00000000000E+00  0.00000000000E+00  0.14999999963E+04  0.15000000000E+04  0.10566000000E+00 0.  1.
        994   -1    0    0    0    0 -0.00000000000E+00 -0.00000000000E+00  0.11368683772E-12  0.17120000000E+03  0.17120000000E+03 0.  0.
         13    1    1    2    0    0  0.22957513606E+02 -0.12399473806E+02  0.62462356970E+02  0.67693068950E+02  0.10566000000E+00 0.  1.
        994    1    1    2    0    0 -0.19041034760E+02 -0.33350235748E+01  0.65706676515E+01  0.17241315803E+03  0.17120000000E+03 0.  0.
        998    1    1    2    0    0 -0.39164788468E+01  0.15734497381E+02  0.14309669717E+04  0.14310937730E+04  0.10000000000E+02 0.  1.
</event>
<event>
 5    1  0.1338054E-008  0.3732419E+03  0.7957747E-01  0.3481123E+00
         13   -1    0    0    0    0  0.00000000000E+00  0.00000000000E+00  0.14999999963E+04  0.15000000000E+04  0.10566000000E+00 0.  1.
        994   -1    0    0    0    0 -0.00000000000E+00 -0.00000000000E+00  0.11368683772E-12  0.17120000000E+03  0.17120000000E+03 0.  0.
         13    1    1    2    0    0  0.49272732293E+02 -0.42973047762E+02  0.16079015284E+03  0.17357410347E+03  0.10566000000E+00 0.  1.
        994    1    1    2    0    0 -0.14643615660E+02  0.53537897166E+02  0.23638514943E+02  0.18151848749E+03  0.17120000000E+03 0.  0.
        998    1    1    2    0    0 -0.34629116633E+02 -0.10564849404E+02  0.13155713285E+04  0.13161074090E+04  0.10000000000E+02 0.  1.
</event>
<event>
 5    1  0.1338054E-008  0.3803832E+03  0.7957747E-01  0.3449492E+00
         13   -1    0    0    0    0  0.00000000000E+00  0.00000000000E+00  0.14999999963E+04  0.15000000000E+04  0.10566000000E+00 0. -1.
        994   -1    0    0    0    0 -0.00000000000E+00 -0.00000000000E+00  0.11368683772E-12  0.17120000000E+03  0.17120000000E+03 0.  0.
         13    1    1    2    0    0  0.95260051878E+01  0.44694646940E+01  0.12163156281E+02  0.16083358612E+02  0.10566000000E+00 0. -1.
        994    1    1    2    0    0 -0.13230964090E+02 -0.35831761678E+01  0.45674103563E+01  0.17180861096E+03  0.17120000000E+03 0.  0.
        998    1    1    2    0    0  0.37049589018E+01 -0.88628852624E+00  0.14832694296E+04  0.14833080304E+04  0.10000000000E+02 0. -1.
</event>
<event>
 5    1  0.1338054E-008  0.3796374E+03  0.7957747E-01  0.3452739E+00
         13   -1    0    0    0    0  0.00000000000E+00  0.00000000000E+00  0.14999999963E+04  0.15000000000E+04  0.10566000000E+00 0.  1.
        994   -1    0    0    0    0 -0.00000000000E+00 -0.00000000000E+00  0.11368683772E-12  0.17120000000E+03  0.17120000000E+03 0.  0.
         13    1    1    2    0    0  0.29468811714E+02 -0.25824984794E+02  0.15244379933E+03  0.15739905915E+03  0.10566000000E+00 0.  1.
        994    1    1    2    0    0 -0.33758174442E+02  0.32376557415E+02  0.11673940043E+02  0.17785830509E+03  0.17120000000E+03 0.  0.
        998    1    1    2    0    0  0.42893627282E+01 -0.65515726203E+01  0.13358822569E+04  0.13359426358E+04  0.10000000000E+02 0.  1.
</event>
<event>
 5    1  0.1338054E-008  0.3766670E+03  0.7957747E-01  0.3465801E+00
         13   -1    0    0    0    0  0.00000000000E+00  0.00000000000E+00  0.14999999963E+04  0.15000000000E+04  0.10566000000E+00 0. -1.
        994   -1    0    0    0    0 -0.00000000000E+00 -0.00000000000E+00  0.11368683772E-12  0.17120000000E+03  0.17120000000E+03 0.  0.
         13    1    1    2    0    0 -0.69922780621E+02  0.37361959696E+02  0.34580980784E+03  0.35478098264E+03  0.10566000000E+00 0. -1.
        994    1    1    2    0    0  0.81212025534E+02 -0.58423221741E+02  0.40442607315E+02  0.20237023105E+03  0.17120000000E+03 0.  0.
        998    1    1    2    0    0 -0.11289244913E+02  0.21061262044E+02  0.11137475811E+04  0.11140487863E+04  0.10000000000E+02 0. -1.
</event>
<event>
 5    1  0.1338054E-008  0.3859322E+03  0.7957747E-01  0.3425728E+00
         13   -1    0    0    0    0  0.00000000000E+00  0.00000000000E+00  0.14999999963E+04  0.15000000000E+04  0.10566000000E+00 0.  1.
        994   -1    0    0    0    0 -0.00000000000E+00 -0.00000000000E+00  0.11368683772E-12  0.17120000000E+03  0.17120000000E+03 0.  0.
         13    1    1    2    0    0 -0.10473129831E+02 -0.86115032465E+00  0.47736304876E+02  0.48879382112E+02  0.10566000000E+00 0.  1.
        994    1    1    2    0    0  0.74796751758E+01 -0.31247822889E+01  0.13834836622E+01  0.17139738572E+03  0.17120000000E+03 0.  0.
        998    1    1    2    0    0  0.29934546553E+01  0.39859326136E+01  0.14508802077E+04  0.14509232322E+04  0.10000000000E+02 0.  1.
</event>
<event>
 5    1  0.1338054E-008  0.3834011E+03  0.7957747E-01  0.3436482E+00
         13   -1    0    0    0    0  0.00000000000E+00  0.00000000000E+00  0.14999999963E+04  0.15000000000E+04  0.10566000000E+00 0. -1.
        994   -1    0    0    0    0 -0.00000000000E+00 -0.00000000000E+00  0.11368683772E-12  0.17120000000E+03  0.17120000000E+03 0.  0.
         13    1    1    2    0    0 -0.15111181758E+02  0.48496834533E+01  0.51174423462E+02  0.53578913990E+02  0.10566000000E+00 0. -1.
        994    1    1    2    0    0  0.11621328866E+02  0.94590439396E+00  0.28755748552E+01  0.17162068334E+03  0.17120000000E+03 0.  0.
        998    1    1    2    0    0  0.34898528915E+01 -0.57955878473E+01  0.14459499980E+04  0.14460004027E+04  0.10000000000E+02 0. -1.
</event>
<event>
 5    1  0.1338054E-008  0.3851284E+03  0.7957747E-01  0.3429128E+00
         13   -1    0    0    0    0  0.00000000000E+00  0.00000000000E+00  0.14999999963E+04  0.15000000000E+04  0.10566000000E+00 0.  1.
        994   -1    0    0    0    0 -0.00000000000E+00 -0.00000000000E+00  0.11368683772E-12  0.17120000000E+03  0.17120000000E+03 0.  0.
         13    1    1    2    0    0  0.14632532600E+02  0.10060235471E+02  0.95846672162E+02  0.97477767089E+02  0.10566000000E+00 0.  1.
        994    1    1    2    0    0 -0.22141304353E+02  0.20703595868E+00  0.31797602632E+01  0.17265523768E+03  0.17120000000E+03 0.  0.
        998    1    1    2    0    0  0.75087717522E+01 -0.10267271429E+02  0.14009735639E+04  0.14010669952E+04  0.10000000000E+02 0.  1.
</event>
<event>
 5    1  0.1338054E-008  0.3779835E+03  0.7957747E-01  0.3459986E+00
         13   -1    0    0    0    0  0.00000000000E+00  0.00000000000E+00  0.14999999963E+04  0.15000000000E+04  0.10566000000E+00 0. -1.
        994   -1    0    0    0    0 -0.00000000000E+00 -0.00000000000E+00  0.11368683772E-12  0.17120000000E+03  0.17120000000E+03 0.  0.
         13    1    1    2    0    0  0.53960709667E+00 -0.33884013171E+02  0.10237722138E+03  0.10784027145E+03  0.10566000000E+00 0. -1.
        994    1    1    2    0    0  0.47030416186E+01  0.35056111431E+02  0.93763144928E+01  0.17506685815E+03  0.17120000000E+03 0.  0.
        998    1    1    2    0    0 -0.52426487153E+01 -0.11720982593E+01  0.13882464604E+04  0.13882928704E+04  0.10000000000E+02 0. -1.
</event>
<event>
 5    1  0.1338054E-008  0.3850968E+03  0.7957747E-01  0.3429262E+00
         13   -1    0    0    0    0  0.00000000000E+00  0.00000000000E+00  0.14999999963E+04  0.15000000000E+04  0.10566000000E+00 0. -1.
        994   -1    0    0    0    0 -0.00000000000E+00 -0.00000000000E+00  0.11368683772E-12  0.17120000000E+03  0.17120000000E+03 0.  0.
         13    1    1    2    0    0 -0.12255805751E+02  0.11753974793E+02  0.87384041517E+02  0.89018776524E+02  0.10566000000E+00 0. -1.
        994    1    1    2    0    0  0.10110131514E+02 -0.13786224855E+02  0.25435764429E+01  0.17207028952E+03  0.17120000000E+03 0.  0.
        998    1    1    2    0    0  0.21456742375E+01  0.20322500618E+01  0.14100723783E+04  0.14101109340E+04  0.10000000000E+02 0. -1.
</event>
<event>
 5    1  0.1338054E-008  0.3780667E+03  0.7957747E-01  0.3459620E+00
         13   -1    0    0    0    0  0.00000000000E+00  0.00000000000E+00  0.14999999963E+04  0.15000000000E+04  0.10566000000E+00 0. -1.
        994   -1    0    0    0    0 -0.00000000000E+00 -0.00000000000E+00  0.11368683772E-12  0.17120000000E+03  0.17120000000E+03 0.  0.
         13    1    1    2    0    0  0.12001347349E+02 -0.36012509510E+02  0.12587415538E+03  0.13147337120E+03  0.10566000000E+00 0. -1.
        994    1    1    2    0    0 -0.14772584798E+02  0.39173709170E+02  0.11032175889E+02  0.17658980055E+03  0.17120000000E+03 0.  0.
        998    1    1    2    0    0  0.27712374489E+01 -0.31611996603E+01  0.13630936650E+04  0.13631368283E+04  0.10000000000E+02 0. -1.
</event>
<event>
 5    1  0.1338054E-008  0.3796387E+03  0.7957747E-01  0.3452733E+00
         13   -1    0    0    0    0  0.00000000000E+00  0.00000000000E+00  0.14999999963E+04  0.15000000000E+04  0.10566000000E+00 0. -1.
        994   -1    0    0    0    0 -0.00000000000E+00 -0.00000000000E+00  0.11368683772E-12  0.17120000000E+03  0.17120000000E+03 0.  0.
         13    1    1    2    0    0 -0.21752345368E+02  0.25076341610E+02  0.13021439456E+03  0.13437926608E+03  0.10566000000E+00 0. -1.
        994    1    1    2    0    0  0.40381212117E+01 -0.15545218958E+02  0.51794850068E+01  0.17202972801E+03  0.17120000000E+03 0.  0.
        998    1    1    2    0    0  0.17714224157E+02 -0.95311226523E+01  0.13646061167E+04  0.13647910059E+04  0.10000000000E+02 0. -1.
</event>
<event>
 5    1  0.1338054E-008  0.3811396E+03  0.7957747E-01  0.3446211E+00
         13   -1    0    0    0    0  0.00000000000E+00  0.00000000000E+00  0.14999999963E+04  0.15000000000E+04  0.10566000000E+00 0. -1.
        994   -1    0    0    0    0 -0.00000000000E+00 -0.00000000000E+00  0.11368683772E-12  0.17120000000E+03  0.17120000000E+03 0.  0.
         13    1    1    2    0    0 -0.19492570864E+02  0.43783718393E+02  0.28555282054E+03  0.28954688532E+03  0.10566000000E+00 0. -1.
        994    1    1    2    0    0  0.23796630729E+02 -0.33085728425E+02  0.91104042915E+01  0.17621970527E+03  0.17120000000E+03 0.  0.
        998    1    1    2    0    0 -0.43040598646E+01 -0.10697989968E+02  0.12053367714E+04  0.12054334094E+04  0.10000000000E+02 0. -1.
</event>
<event>
 5    1  0.1338054E-008  0.3853258E+03  0.7957747E-01  0.3428292E+00
         13   -1    0    0    0    0  0.00000000000E+00  0.00000000000E+00  0.14999999963E+04  0.15000000000E+04  0.10566000000E+00 0.  1.
        994   -1    0    0    0    0 -0.00000000000E+00 -0.00000000000E+00  0.11368683772E-12  0.17120000000E+03  0.17120000000E+03 0.  0.
         13    1    1    2    0    0 -0.14341187382E+01 -0.15676749901E+02  0.87420058975E+02  0.88826207052E+02  0.10566000000E+00 0.  1.
        994    1    1    2    0    0  0.73700751758E+01  0.55118263611E+01  0.17467741439E+01  0.17145608609E+03  0.17120000000E+03 0.  0.
        998    1    1    2    0    0 -0.59359564376E+01  0.10164923540E+02  0.14108331632E+04  0.14109177069E+04  0.10000000000E+02 0.  1.
</event>
<event>
 5    1  0.1338054E-008  0.3855979E+03  0.7957747E-01  0.3427140E+00
         13   -1    0    0    0    0  0.00000000000E+00  0.00000000000E+00  0.14999999963E+04  0.15000000000E+04  0.10566000000E+00 0.  1.
        994   -1    0    0    0    0 -0.00000000000E+00 -0.00000000000E+00  0.11368683772E-12  0.17120000000E+03  0.17120000000E+03 0.  0.
         13    1    1    2    0    0  0.10337002518E+02 -0.10133440037E+02  0.82252784008E+02  0.83516895710E+02  0.10566000000E+00 0.  1.
        994    1    1    2    0    0 -0.17390159738E+01  0.45737967431E+01  0.14121544445E+01  0.17127573667E+03  0.17120000000E+03 0.  0.
        998    1    1    2    0    0 -0.85979865445E+01  0.55596432941E+01  0.14163350578E+04  0.14164073676E+04  0.10000000000E+02 0.  1.
</event>
<event>
 5    1  0.1490009E-008  0.3844441E+03  0.7957747E-01  0.3432033E+00
         13   -1    0    0    0    0  0.00000000000E+00  0.00000000000E+00  0.14999999963E+04  0.15000000000E+04  0.10566000000E+00 0.  1.
        994   -1    0    0    0    0 -0.00000000000E+00 -0.00000000000E+00  0.11368683772E-12  0.17120000000E+03  0.17120000000E+03 0.  0.
         13    1    1    2    0    0 -0.11046091593E+02 -0.48517521919E+01  0.37470211760E+02  0.39364750377E+02  0.10566000000E+00 0.  1.
        994    1    1    2    0    0  0.97690469407E+01  0.28385109166E+01  0.22474322400E+01  0.17151671165E+03  0.17120000000E+03 0.  0.
        998    1    1    2    0    0  0.12770446524E+01  0.20132412753E+01  0.14602823523E+04  0.14603185380E+04  0.10000000000E+02 0.  1.
</event>
<event>
 5    1  0.1338054E-008  0.3730250E+03  0.7957747E-01  0.3482103E+00
         13   -1    0    0    0    0  0.00000000000E+00  0.00000000000E+00  0.14999999963E+04  0.15000000000E+04  0.10566000000E+00 0.  1.
        994   -1    0    0    0    0 -0.00000000000E+00 -0.00000000000E+00  0.11368683772E-12  0.17120000000E+03  0.17120000000E+03 0.  0.
         13    1    1    2    0    0 -0.25916649129E+02  0.10202997546E+02  0.46772740947E+02  0.54437802314E+02  0.10566000000E+00 0.  1.
        994    1    1    2    0    0  0.22293596306E+02 -0.59633590179E+01  0.95210275721E+01  0.17301056630E+03  0.17120000000E+03 0.  0.
        998    1    1    2    0    0  0.36230528226E+01 -0.42396385280E+01  0.14437062278E+04  0.14437516314E+04  0.10000000000E+02 0.  1.
</event>
<event>
 5    1  0.1338054E-008  0.3111382E+03  0.7957747E-01  0.3819577E+00
         13   -1    0    0    0    0  0.00000000000E+00  0.00000000000E+00  0.14999999963E+04  0.15000000000E+04  0.10566000000E+00 0. -1.
        994   -1    0    0    0    0 -0.00000000000E+00 -0.00000000000E+00  0.11368683772E-12  0.17120000000E+03  0.17120000000E+03 0.  0.
         13    1    1    2    0    0  0.14193022340E+03 -0.52265195182E+02  0.86879295657E+03  0.88185999540E+03  0.10566000000E+00 0. -1.
        994    1    1    2    0    0 -0.10007942500E+03  0.17767792054E+03  0.18595991494E+03  0.32477048007E+03  0.17120000000E+03 0.  0.
        998    1    1    2    0    0 -0.41850798396E+02 -0.12541272536E+03  0.44524712477E+03  0.46456952453E+03  0.10000000000E+02 0. -1.
</event>
<event>
 5    1  0.1338054E-008  0.3853455E+03  0.7957747E-01  0.3428208E+00
         13   -1    0    0    0    0  0.00000000000E+00  0.00000000000E+00  0.14999999963E+04  0.15000000000E+04  0.10566000000E+00 0. -1.
        994   -1    0    0    0    0 -0.00000000000E+00 -0.00000000000E+00  0.11368683772E-12  0.17120000000E+03  0.17120000000E+03 0.  0.
         13    1    1    2    0    0 -0.80344325004E+01  0.13631048438E+02  0.75644314261E+02  0.77281505104E+02  0.10566000000E+00 0. -1.
        994    1    1    2    0    0  0.27487848079E+02 -0.17542399004E+02  0.49594697858E+01  0.17434836935E+03  0.17120000000E+03 0.  0.
        998    1    1    2    0    0 -0.19453415578E+02  0.39113505668E+01  0.14193962122E+04  0.14195701255E+04  0.10000000000E+02 0. -1.
</event>
<event>
 5    1  0.1338054E-008  0.3746047E+03  0.7957747E-01  0.3474993E+00
         13   -1    0    0    0    0  0.00000000000E+00  0.00000000000E+00  0.14999999963E+04  0.15000000000E+04  0.10566000000E+00 0. -1.
        994   -1    0    0    0    0 -0.00000000000E+00 -0.00000000000E+00  0.11368683772E-12  0.17120000000E+03  0.17120000000E+03 0.  0.
         13    1    1    2    0    0 -0.37863848851E+02 -0.17010697437E+02  0.12843826949E+03  0.13497938773E+03  0.10566000000E+00 0. -1.
        994    1    1    2    0    0  0.17282691771E+01  0.35318197774E+02  0.11149646646E+02  0.17516882322E+03  0.17120000000E+03 0.  0.
        998    1    1    2    0    0  0.36135579674E+02 -0.18307500337E+02  0.13604120801E+04  0.13610517890E+04  0.10000000000E+02 0. -1.
</event>
<event>
 5    1  0.1338054E-008  0.3850058E+03  0.7957747E-01  0.3429648E+00
         13   -1    0    0    0    0  0.00000000000E+00  0.00000000000E+00  0.14999999963E+04  0.15000000000E+04  0.10566000000E+00 0.  1.
        994   -1    0    0    0    0 -0.00000000000E+00 -0.00000000000E+00  0.11368683772E-12  0.17120000000E+03  0.17120000000E+03 0.  0.
         13    1    1    2    0    0 -0.15829837631E+02 -0.11221026857E+02  0.11259866937E+03  0.11425833323E+03  0.10566000000E+00 0.  1.
        994    1    1    2    0    0  0.56392984724E+01  0.19440158759E+02  0.29758218252E+01  0.17241814573E+03  0.17120000000E+03 0.  0.
        998    1    1    2    0    0  0.10190539158E+02 -0.82191319016E+01  0.13844255051E+04  0.13845235210E+04  0.10000000000E+02 0.  1.
</event>
<event>
 5    1  0.1338054E-008  0.3726531E+03  0.7957747E-01  0.3483786E+00
         13   -1    0    0    0    0  0.00000000000E+00  0.00000000000E+00  0.14999999963E+04  0.15000000000E+04  0.10566000000E+00 0. -1.
        994   -1    0    0    0    0 -0.00000000000E+00 -0.00000000000E+00  0.11368683772E-12  0.17120000000E+03  0.17120000000E+03 0.  0.
         13    1    1    2    0    0  0.70288059977E+02  0.53231486804E+01  0.29885968653E+03  0.30706004411E+03  0.10566000000E+00 0. -1.
        994    1    1    2    0    0 -0.49504480258E+02  0.22492946375E+02  0.18088047179E+02  0.18053598991E+03  0.17120000000E+03 0.  0.
        998    1    1    2    0    0 -0.20783579719E+02 -0.27816095056E+02  0.11830522626E+04  0.11836039660E+04  0.10000000000E+02 0. -1.
</event>
<event>
 5    1  0.1338054E-008  0.3797475E+03  0.7957747E-01  0.3452259E+00
         13   -1    0    0    0    0  0.00000000000E+00  0.00000000000E+00  0.14999999963E+04  0.15000000000E+04  0.10566000000E+00 0.  1.
        994   -1    0    0    0    0 -0.00000000000E+00 -0.00000000000E+00  0.11368683772E-12  0.17120000000E+03  0.17120000000E+03 0.  0.
         13    1    1    2    0    0 -0.52545335816E+02  0.46800948631E+02  0.15219075598E+03  0.16767044605E+03  0.10566000000E+00 0.  1.
        994    1    1    2    0    0  0.24080721689E+02 -0.28665427305E+02  0.21279506424E+02  0.17653284474E+03  0.17120000000E+03 0.  0.
        998    1    1    2    0    0  0.28464614126E+02 -0.18135521327E+02  0.13265297339E+04  0.13269967092E+04  0.10000000000E+02 0.  1.
</event>
<event>
 5    1  0.1338054E-008  0.3687801E+03  0.7957747E-01  0.3501516E+00
         13   -1    0    0    0    0  0.00000000000E+00  0.00000000000E+00  0.14999999963E+04  0.15000000000E+04  0.10566000000E+00 0. -1.
        994   -1    0    0    0    0 -0.00000000000E+00 -0.00000000000E+00  0.11368683772E-12  0.17120000000E+03  0.17120000000E+03 0.  0.
         13    1    1    2    0    0  0.22037777155E+02 -0.50427890428E+02  0.15583528377E+03  0.16526730647E+03  0.10566000000E+00 0. -1.
        994    1    1    2    0    0 -0.10537211905E+02  0.11891161617E+02  0.11174438341E+02  0.17229840577E+03  0.17120000000E+03 0.  0.
        998    1    1    2    0    0 -0.11500565251E+02  0.38536728812E+02  0.13329902742E+04  0.13336342878E+04  0.10000000000E+02 0. -1.
</event>
<event>
 5    1  0.1338054E-008  0.3792464E+03  0.7957747E-01  0.3454447E+00
         13   -1    0    0    0    0  0.00000000000E+00  0.00000000000E+00  0.14999999963E+04  0.15000000000E+04  0.10566000000E+00 0. -1.
        994   -1    0    0    0    0 -0.00000000000E+00 -0.00000000000E+00  0.11368683772E-12  0.17120000000E+03  0.17120000000E+03 0.  0.
         13    1    1    2    0    0 -0.38961931913E+02 -0.13409181274E+02  0.23110371214E+03  0.23474832313E+03  0.10566000000E+00 0. -1.
        994    1    1    2    0    0 -0.19346167615E+01 -0.36510296870E+01  0.45712790929E+01  0.17131085591E+03  0.17120000000E+03 0.  0.
        998    1    1    2    0    0  0.40896548675E+02  0.17060210961E+02  0.12643250050E+04  0.12651408210E+04  0.10000000000E+02 0. -1.
</event>
<event>
 5    1  0.1338054E-008  0.3815717E+03  0.7957747E-01  0.3444343E+00
         13   -1    0    0    0    0  0.00000000000E+00  0.00000000000E+00  0.14999999963E+04  0.15000000000E+04  0.10566000000E+00 0. -1.
        994   -1    0    0    0    0 -0.00000000000E+00 -0.00000000000E+00  0.11368683772E-12  0.17120000000E+03  0.17120000000E+03 0.  0.
         13    1    1    2    0    0 -0.20383534124E+02 -0.34861111608E+02  0.20935184791E+03  0.21321114641E+03  0.10566000000E+00 0. -1.
        994    1    1    2    0    0  0.23124178190E+02  0.34592026568E+02  0.91211405143E+01  0.17641987168E+03  0.17120000000E+03 0.  0.
        998    1    1    2    0    0 -0.27406440658E+01  0.26908503988E+00  0.12815270079E+04  0.12815689819E+04  0.10000000000E+02 0. -1.
</event>
<event>
 5    1  0.1338054E-008  0.3767610E+03  0.7957747E-01  0.3465384E+00
         13   -1    0    0    0    0  0.00000000000E+00  0.00000000000E+00  0.14999999963E+04  0.15000000000E+04  0.10566000000E+00 0.  1.
        994   -1    0    0    0    0 -0.00000000000E+00 -0.00000000000E+00  0.11368683772E-12  0.17120000000E+03  0.17120000000E+03 0.  0.
         13    1    1    2    0    0  0.21136468714E+02 -0.20377504306E+01  0.36050502862E+02  0.41839606322E+02  0.10566000000E+00 0.  1.
        994    1    1    2    0    0 -0.20331977999E+02  0.14956324504E+01  0.71828948528E+01  0.17255914993E+03  0.17120000000E+03 0.  0.
        998    1    1    2    0    0 -0.80449071596E+00  0.54211798020E+00  0.14567665986E+04  0.14568012437E+04  0.10000000000E+02 0.  1.
</event>
<event>
 5    1  0.1338054E-008  0.3728172E+03  0.7957747E-01  0.3483043E+00
         13   -1    0    0    0    0  0.00000000000E+00  0.00000000000E+00  0.14999999963E+04  0.15000000000E+04  0.10566000000E+00 0.  1.
        994   -1    0    0    0    0 -0.00000000000E+00 -0.00000000000E+00  0.11368683772E-12  0.17120000000E+03  0.17120000000E+03 0.  0.
         13    1    1    2    0    0 -0.41292628494E+01 -0.93044978900E+01  0.29743845523E+01  0.10605782393E+02  0.10566000000E+00 0. -1.
        994    1    1    2    0    0  0.46108721865E+01  0.94660716175E+01  0.81836678828E+01  0.17171860433E+03  0.17120000000E+03 0.  0.
        998    1    1    2    0    0 -0.48160933718E+00 -0.16157372743E+00  0.14888419438E+04  0.14888756133E+04  0.10000000000E+02 0.  1.
</event>
<event>
 5    1  0.1338054E-008  0.3831259E+03  0.7957747E-01  0.3437659E+00
         13   -1    0    0    0    0  0.00000000000E+00  0.00000000000E+00  0.14999999963E+04  0.15000000000E+04  0.10566000000E+00 0. -1.
        994   -1    0    0    0    0 -0.00000000000E+00 -0.00000000000E+00  0.11368683772E-12  0.17120000000E+03  0.17120000000E+03 0.  0.
         13    1    1    2    0    0 -0.40735780616E+01  0.98931174937E+01  0.21408883245E+02  0.23933642803E+02  0.10566000000E+00 0. -1.
        994    1    1    2    0    0  0.13008041481E+02 -0.25705508540E+01  0.31453854196E+01  0.17174152184E+03  0.17120000000E+03 0.  0.
        998    1    1    2    0    0 -0.89344634191E+01 -0.73225666397E+01  0.14754457276E+04  0.14755248354E+04  0.10000000000E+02 0. -1.
</event>
<event>
 5    1  0.1338054E-008  0.3799440E+03  0.7957747E-01  0.3451402E+00
         13   -1    0    0    0    0  0.00000000000E+00  0.00000000000E+00  0.14999999963E+04  0.15000000000E+04  0.10566000000E+00 0. -1.
        994   -1    0    0    0    0 -0.00000000000E+00 -0.00000000000E+00  0.11368683772E-12  0.17120000000E+03  0.17120000000E+03 0.  0.
         13    1    1    2    0    0  0.30949794577E+02 -0.10627452238E+02  0.14827734627E+03  0.15184536577E+03  0.10566000000E+00 0. -1.
        994    1    1    2    0    0  0.29827423102E+01 -0.49453028874E+01  0.42729212755E+01  0.17135066568E+03  0.17120000000E+03 0.  0.
        998    1    1    2    0    0 -0.33932536888E+02  0.15572755126E+02  0.13474497287E+04  0.13480039686E+04  0.10000000000E+02 0. -1.
</event>
<event>
 5    1  0.1338054E-008  0.3842374E+03  0.7957747E-01  0.3432913E+00
         13   -1    0    0    0    0  0.00000000000E+00  0.00000000000E+00  0.14999999963E+04  0.15000000000E+04  0.10566000000E+00 0.  1.
        994   -1    0    0    0    0 -0.00000000000E+00 -0.00000000000E+00  0.11368683772E-12  0.17120000000E+03  0.17120000000E+03 0.  0.
         13    1    1    2    0    0  0.22496990908E+03 -0.41939446855E+02  0.12491829931E+04  0.12699718653E+04  0.10566000000E+00 0.  1.
        994    1    1    2    0    0 -0.23235840948E+03  0.33924546311E+02  0.21207792843E+03  0.35976074414E+03  0.17120000000E+03 0.  0.
        998    1    1    2    0    0  0.73885004037E+01  0.80149005440E+01  0.38739074747E+02  0.41467390576E+02  0.10000000000E+02 0. -1.
</event>
<event>
 5    1  0.1338054E-008  0.3792159E+03  0.7957747E-01  0.3454580E+00
         13   -1    0    0    0    0  0.00000000000E+00  0.00000000000E+00  0.14999999963E+04  0.15000000000E+04  0.10566000000E+00 0.  1.
        994   -1    0    0    0    0 -0.00000000000E+00 -0.00000000000E+00  0.11368683772E-12  0.17120000000E+03  0.17120000000E+03 0.  0.
         13    1    1    2    0    0  0.20542899438E+02 -0.12788460097E+02  0.61789577001E+02  0.66359011588E+02  0.10566000000E+00 0.  1.
        994    1    1    2    0    0  0.72415418217E+00  0.40105828255E+02  0.99411387496E+01  0.17611719990E+03  0.17120000000E+03 0.  0.
        998    1    1    2    0    0 -0.21267053621E+02 -0.27317368158E+02  0.14282692805E+04  0.14287237885E+04  0.10000000000E+02 0.  1.
</event>
<event>
 5    1  0.1338054E-008  0.3705646E+03  0.7957747E-01  0.3493300E+00
         13   -1    0    0    0    0  0.00000000000E+00  0.00000000000E+00  0.14999999963E+04  0.15000000000E+04  0.10566000000E+00 0. -1.
        994   -1    0    0    0    0 -0.00000000000E+00 -0.00000000000E+00  0.11368683772E-12  0.17120000000E+03  0.17120000000E+03 0.  0.
         13    1    1    2    0    0 -0.13576816330E+02  0.16592941255E+02  0.22328953424E+02  0.30955596686E+02  0.10566000000E+00 0. -1.
        994    1    1    2    0    0  0.73402618395E+00 -0.62529700604E+01  0.91110714339E+01  0.17155783297E+03  0.17120000000E+03 0.  0.
        998    1    1    2    0    0  0.12842790146E+02 -0.10339971195E+02  0.14685599714E+04  0.14686865703E+04  0.10000000000E+02 0. -1.
</event>
<event>
 5    1  0.1338054E-008  0.3857250E+03  0.7957747E-01  0.3426603E+00
         13   -1    0    0    0    0  0.00000000000E+00  0.00000000000E+00  0.14999999963E+04  0.15000000000E+04  0.10566000000E+00 0. -1.
        994   -1    0    0    0    0 -0.00000000000E+00 -0.00000000000E+00  0.11368683772E-12  0.17120000000E+03  0.17120000000E+03 0.  0.
         13    1    1    2    0    0  0.14672655386E+02  0.20951715736E+01  0.87619580803E+02  0.88864383552E+02  0.10566000000E+00 0. -1.
        994    1    1    2    0    0 -0.77978396598E+01 -0.92775930473E+01  0.17526649956E+01  0.17163738483E+03  0.17120000000E+03 0.  0.
        998    1    1    2    0    0 -0.68748157266E+01  0.71824214737E+01  0.14106277505E+04  0.14106982316E+04  0.10000000000E+02 0. -1.
</event>
<event>
 5    1  0.1338054E-008  0.3854606E+03  0.7957747E-01  0.3427721E+00
         13   -1    0    0    0    0  0.00000000000E+00  0.00000000000E+00  0.14999999963E+04  0.15000000000E+04  0.10566000000E+00 0. -1.
        994   -1    0    0    0    0 -0.00000000000E+00 -0.00000000000E+00  0.11368683772E-12  0.17120000000E+03  0.17120000000E+03 0.  0.
         13    1    1    2    0    0 -0.10822306401E+02  0.44822136616E+01  0.48924773931E+02  0.50307625897E+02  0.10566000000E+00 0. -1.
        994    1    1    2    0    0  0.58554308967E+01 -0.83985978791E+01  0.17459019393E+01  0.17151475357E+03  0.17120000000E+03 0.  0.
        998    1    1    2    0    0  0.49668755044E+01  0.39163842176E+01  0.14493293204E+04  0.14493776205E+04  0.10000000000E+02 0. -1.
</event>
<event>
 5    1  0.1338054E-008  0.3776069E+03  0.7957747E-01  0.3461645E+00
         13   -1    0    0    0    0  0.00000000000E+00  0.00000000000E+00  0.14999999963E+04  0.15000000000E+04  0.10566000000E+00 0. -1.
        994   -1    0    0    0    0 -0.00000000000E+00 -0.00000000000E+00  0.11368683772E-12  0.17120000000E+03  0.17120000000E+03 0.  0.
         13    1    1    2    0    0 -0.12177321301E+02  0.71305165008E+01  0.16015114909E+02  0.21345409090E+02  0.10566000000E+00 0. -1.
        994    1    1    2    0    0  0.21249091361E+02  0.19609707760E+01  0.68819880784E+01  0.17266201392E+03  0.17120000000E+03 0.  0.
        998    1    1    2    0    0 -0.90717700597E+01 -0.90914872768E+01  0.14771028933E+04  0.14771925770E+04  0.10000000000E+02 0. -1.
</event>
<event>
 5    1  0.1338054E-008  0.3727358E+03  0.7957747E-01  0.3483411E+00
         13   -1    0    0    0    0  0.00000000000E+00  0.00000000000E+00  0.14999999963E+04  0.15000000000E+04  0.10566000000E+00 0. -1.
        994   -1    0    0    0    0 -0.00000000000E+00 -0.00000000000E+00  0.11368683772E-12  0.17120000000E+03  0.17120000000E+03 0.  0.
         13    1    1    2    0    0 -0.36174555500E+02 -0.68095471076E+02  0.31367171530E+03  0.32301013574E+03  0.10566000000E+00 0. -1.
        994    1    1    2    0    0  0.28394850140E+02  0.64173500078E+02  0.24907251505E+02  0.18669310861E+03  0.17120000000E+03 0.  0.
        998    1    1    2    0    0  0.77797053607E+01  0.39219709978E+01  0.11614210295E+04  0.11614967557E+04  0.10000000000E+02 0. -1.
</event>
<event>
 5    1  0.1338054E-008  0.4060129E+03  0.7957747E-01  0.3345167E+00
         13   -1    0    0    0    0  0.00000000000E+00  0.00000000000E+00  0.14999999963E+04  0.15000000000E+04  0.10566000000E+00 0. -1.
        994   -1    0    0    0    0 -0.00000000000E+00 -0.00000000000E+00  0.11368683772E-12  0.17120000000E+03  0.17120000000E+03 0.  0.
         13    1    1    2    0    0  0.83025383153E+00  0.13489332510E+03  0.23468625930E+03  0.27069272237E+03  0.10566000000E+00 0. -1.
        994    1    1    2    0    0 -0.21785490888E+02 -0.13093586342E+03  0.10639018955E+03  0.24134440200E+03  0.17120000000E+03 0.  0.
        998    1    1    2    0    0  0.20955237056E+02 -0.39574616804E+01  0.11589235474E+04  0.11591628756E+04  0.10000000000E+02 0. -1.
</event>
<event>
 5    1  0.1338054E-008  0.3802044E+03  0.7957747E-01  0.3450269E+00
         13   -1    0    0    0    0  0.00000000000E+00  0.00000000000E+00  0.14999999963E+04  0.15000000000E+04  0.10566000000E+00 0. -1.
        994   -1    0    0    0    0 -0.00000000000E+00 -0.00000000000E+00  0.11368683772E-12  0.17120000000E+03  0.17120000000E+03 0.  0.
         13    1    1    2    0    0  0.27037280400E+01  0.33260291153E+02  0.15820387322E+03  0.16168498316E+03  0.10566000000E+00 0. -1.
        994    1    1    2    0    0  0.14190144369E+01  0.18081757869E+01  0.40476596442E+01  0.17126326708E+03  0.17120000000E+03 0.  0.
        998    1    1    2    0    0 -0.41227424769E+01 -0.35068466940E+02  0.13377484634E+04  0.13382517498E+04  0.10000000000E+02 0. -1.
</event>
<event>
 5    1  0.1338054E-008  0.3838462E+03  0.7957747E-01  0.3434580E+00
         13   -1    0    0    0    0  0.00000000000E+00  0.00000000000E+00  0.14999999963E+04  0.15000000000E+04  0.10566000000E+00 0.  1.
        994   -1    0    0    0    0 -0.00000000000E+00 -0.00000000000E+00  0.11368683772E-12  0.17120000000E+03  0.17120000000E+03 0.  0.
         13    1    1    2    0    0  0.38363567032E+01  0.12171993675E+02  0.36991443296E+02  0.39131229267E+02  0.10566000000E+00 0.  1.
        994    1    1    2    0    0 -0.37298984176E+01 -0.36236856450E+01  0.22933435916E+01  0.17129431591E+03  0.17120000000E+03 0.  0.
        998    1    1    2    0    0 -0.10645828558E+00 -0.85483080302E+01  0.14607152094E+04  0.14607744548E+04  0.10000000000E+02 0.  1.
</event>
<event>
 5    1  0.1338054E-008  0.3795578E+03  0.7957747E-01  0.3453086E+00
         13   -1    0    0    0    0  0.00000000000E+00  0.00000000000E+00  0.14999999963E+04  0.15000000000E+04  0.10566000000E+00 0.  1.
        994   -1    0    0    0    0 -0.00000000000E+00 -0.00000000000E+00  0.11368683772E-12  0.17120000000E+03  0.17120000000E+03 0.  0.
         13    1    1    2    0    0 -0.10334376023E+02 -0.36480118773E+02  0.14982195549E+03  0.15454522932E+03  0.10566000000E+00 0.  1.
        994    1    1    2    0    0  0.11561505906E+01  0.37779553924E+02  0.91541771979E+01  0.17556158560E+03  0.17120000000E+03 0.  0.
        998    1    1    2    0    0  0.91782254321E+01 -0.12994351517E+01  0.13410238636E+04  0.13410931851E+04  0.10000000000E+02 0.  1.
</event>
<event>
 5    1  0.1338054E-008  0.3846690E+03  0.7957747E-01  0.3431077E+00
         13   -1    0    0    0    0  0.00000000000E+00  0.00000000000E+00  0.14999999963E+04  0.15000000000E+04  0.10566000000E+00 0.  1.
        994   -1    0    0    0    0 -0.00000000000E+00 -0.00000000000E+00  0.11368683772E-12  0.17120000000E+03  0.17120000000E+03 0.  0.
         13    1    1    2    0    0 -0.12681984950E+02 -0.26123746993E+01  0.46557822363E+02  0.48324933845E+02  0.10566000000E+00 0.  1.
        994    1    1    2    0    0  0.69794507670E+01  0.77415293335E+01  0.21523380902E+01  0.17153051206E+03  0.17120000000E+03 0.  0.
        998    1    1    2    0    0  0.57025341829E+01 -0.51291546342E+01  0.14512898358E+04  0.14513445541E+04  0.10000000000E+02 0.  1.
</event>
<event>
 5    1  0.1338054E-008  0.3854779E+03  0.7957747E-01  0.3427648E+00
         13   -1    0    0    0    0  0.00000000000E+00  0.00000000000E+00  0.14999999963E+04  0.15000000000E+04  0.10566000000E+00 0.  1.
        994   -1    0    0    0    0 -0.00000000000E+00 -0.00000000000E+00  0.11368683772E-12  0.17120000000E+03  0.17120000000E+03 0.  0.
         13    1    1    2    0    0  0.19706513872E+01  0.13953503914E+02  0.78884269236E+02  0.80133156903E+02  0.10566000000E+00 0.  1.
        994    1    1    2    0    0 -0.46871439094E+01  0.39919689928E+01  0.15175122699E+01  0.17131738960E+03  0.17120000000E+03 0.  0.
        998    1    1    2    0    0  0.27164925222E+01 -0.17945472907E+02  0.14195982148E+04  0.14197494535E+04  0.10000000000E+02 0.  1.
</event>
<event>
 5    1  0.1338054E-008  0.3716462E+03  0.7957747E-01  0.3488359E+00
         13   -1    0    0    0    0  0.00000000000E+00  0.00000000000E+00  0.14999999963E+04  0.15000000000E+04  0.10566000000E+00 0.  1.
        994   -1    0    0    0    0 -0.00000000000E+00 -0.00000000000E+00  0.11368683772E-12  0.17120000000E+03  0.17120000000E+03 0.  0.
         13    1    1    2    0    0  0.96597360294E+01  0.45426503485E+01  0.28434130444E+01  0.11047277227E+02  0.10566000000E+00 0.  1.
        994    1    1    2    0    0 -0.93140490721E+01 -0.29690467446E+01  0.87397823874E+01  0.17170145761E+03  0.17120000000E+03 0.  0.
        998    1    1    2    0    0 -0.34568695732E+00 -0.15736036038E+01  0.14884168008E+04  0.14884512652E+04  0.10000000000E+02 0.  1.
</event>
<event>
 5    1  0.1338054E-008  0.2903648E+03  0.7957747E-01  0.3967301E+00
         13   -1    0    0    0    0  0.00000000000E+00  0.00000000000E+00  0.14999999963E+04  0.15000000000E+04  0.10566000000E+00 0.  1.
        994   -1    0    0    0    0 -0.00000000000E+00 -0.00000000000E+00  0.11368683772E-12  0.17120000000E+03  0.17120000000E+03 0.  0.
         13    1    1    2    0    0 -0.39582690142E+02  0.18437176202E+03  0.62504324874E+03  0.65286967302E+03  0.10566000000E+00 0.  1.
        994    1    1    2    0    0  0.95784237954E+01 -0.14701246357E+03  0.10895975225E+03  0.25077096773E+03  0.17120000000E+03 0.  0.
        998    1    1    2    0    0  0.30004266347E+02 -0.37359298454E+02  0.76599699528E+03  0.76755935924E+03  0.10000000000E+02 0. -1.
</event>
<event>
 5    1  0.1338054E-008  0.3774824E+03  0.7957747E-01  0.3462195E+00
         13   -1    0    0    0    0  0.00000000000E+00  0.00000000000E+00  0.14999999963E+04  0.15000000000E+04  0.10566000000E+00 0.  1.
        994   -1    0    0    0    0 -0.00000000000E+00 -0.00000000000E+00  0.11368683772E-12  0.17120000000E+03  0.17120000000E+03 0.  0.
         13    1    1    2    0    0  0.66837218295E+02 -0.11963787337E+03  0.74103607469E+03  0.75360129356E+03  0.10566000000E+00 0.  1.
        994    1    1    2    0    0 -0.77407503728E+02  0.12006081862E+03  0.77613528891E+02  0.23609282426E+03  0.17120000000E+03 0.  0.
        998    1    1    2    0    0  0.10570285433E+02 -0.42294525334E+00  0.68135039270E+03  0.68150588218E+03  0.10000000000E+02 0.  1.
</event>
<event>
 5    1  0.1338054E-008  0.3794202E+03  0.7957747E-01  0.3453687E+00
         13   -1    0    0    0    0  0.00000000000E+00  0.00000000000E+00  0.14999999963E+04  0.15000000000E+04  0.10566000000E+00 0.  1.
        994   -1    0    0    0    0 -0.00000000000E+00 -0.00000000000E+00  0.11368683772E-12  0.17120000000E+03  0.17120000000E+03 0.  0.
         13    1    1    2    0    0  0.28856955482E+02  0.42087075533E+02  0.90025258166E+02  0.10348238535E+03  0.10566000000E+00 0.  1.
        994    1    1    2    0    0 -0.14240296281E+01  0.28892419524E+02  0.19040679439E+02  0.17466764795E+03  0.17120000000E+03 0.  0.
        998    1    1    2    0    0 -0.27432925854E+02 -0.70979495057E+02  0.13909340587E+04  0.13930499667E+04  0.10000000000E+02 0.  1.
</event>
<event>
 5    1  0.1338054E-008  0.3777101E+03  0.7957747E-01  0.3461190E+00
         13   -1    0    0    0    0  0.00000000000E+00  0.00000000000E+00  0.14999999963E+04  0.15000000000E+04  0.10566000000E+00 0.  1.
        994   -1    0    0    0    0 -0.00000000000E+00 -0.00000000000E+00  0.11368683772E-12  0.17120000000E+03  0.17120000000E+03 0.  0.
         13    1    1    2    0    0  0.75135399053E+01 -0.96360798980E+01 -0.18597619042E+01  0.12360307281E+02  0.10566000000E+00 0.  1.
        994    1    1    2    0    0 -0.44699299682E+01 -0.22926810295E+02  0.17038040892E+02  0.17362417384E+03  0.17120000000E+03 0.  0.
        998    1    1    2    0    0 -0.30436099371E+01  0.32562890193E+02  0.14848217173E+04  0.14852155189E+04  0.10000000000E+02 0.  1.
</event>
<event>
 5    1  0.1338054E-008  0.3825297E+03  0.7957747E-01  0.3440217E+00
         13   -1    0    0    0    0  0.00000000000E+00  0.00000000000E+00  0.14999999963E+04  0.15000000000E+04  0.10566000000E+00 0.  1.
        994   -1    0    0    0    0 -0.00000000000E+00 -0.00000000000E+00  0.11368683772E-12  0.17120000000E+03  0.17120000000E+03 0.  0.
         13    1    1    2    0    0 -0.64216828496E+01 -0.38333141771E+02  0.22921603216E+03  0.23248799611E+03  0.10566000000E+00 0.  1.
        994    1    1    2    0    0  0.23465255075E+02  0.34551841351E+02  0.86664168671E+01  0.17643410871E+03  0.17120000000E+03 0.  0.
        998    1    1    2    0    0 -0.17043572226E+02  0.37813004203E+01  0.12621175472E+04  0.12622778952E+04  0.10000000000E+02 0.  1.
</event>
<event>
 5    1  0.1338054E-008  0.3848712E+03  0.7957747E-01  0.3430219E+00
         13   -1    0    0    0    0  0.00000000000E+00  0.00000000000E+00  0.14999999963E+04  0.15000000000E+04  0.10566000000E+00 0.  1.
        994   -1    0    0    0    0 -0.00000000000E+00 -0.00000000000E+00  0.11368683772E-12  0.17120000000E+03  0.17120000000E+03 0.  0.
         13    1    1    2    0    0 -0.12765558790E+01 -0.14868607465E+02  0.64679577253E+02  0.66378942147E+02  0.10566000000E+00 0.  1.
        994    1    1    2    0    0 -0.23971045627E+01  0.12555367424E+02  0.22318403980E+01  0.17169101454E+03  0.17120000000E+03 0.  0.
        998    1    1    2    0    0  0.36736604417E+01  0.23132400414E+01  0.14330885786E+04  0.14331300433E+04  0.10000000000E+02 0.  1.
</event>
<event>
 5    1  0.1338054E-008  0.3835439E+03  0.7957747E-01  0.3435871E+00
         13   -1    0    0    0    0  0.00000000000E+00  0.00000000000E+00  0.14999999963E+04  0.15000000000E+04  0.10566000000E+00 0. -1.
        994   -1    0    0    0    0 -0.00000000000E+00 -0.00000000000E+00  0.11368683772E-12  0.17120000000E+03  0.17120000000E+03 0.  0.
         13    1    1    2    0    0 -0.20776314370E+02  0.65876661384E+01  0.97550521203E+02  0.99955829920E+02  0.10566000000E+00 0. -1.
        994    1    1    2    0    0  0.17463602840E+02 -0.40051253458E+01  0.34162462428E+01  0.17216889728E+03  0.17120000000E+03 0.  0.
        998    1    1    2    0    0  0.33127115303E+01 -0.25825407925E+01  0.13990332288E+04  0.13990752728E+04  0.10000000000E+02 0. -1.
</event>
<event>
 5    1  0.1338054E-008  0.3840565E+03  0.7957747E-01  0.3433684E+00
         13   -1    0    0    0    0  0.00000000000E+00  0.00000000000E+00  0.14999999963E+04  0.15000000000E+04  0.10566000000E+00 0.  1.
        994   -1    0    0    0    0 -0.00000000000E+00 -0.00000000000E+00  0.11368683772E-12  0.17120000000E+03  0.17120000000E+03 0.  0.
         13    1    1    2    0    0 -0.59437189777E+01 -0.21098766556E+02  0.10930769859E+03  0.11148394450E+03  0.10566000000E+00 0.  1.
        994    1    1    2    0    0 -0.79165857307E+01  0.22736840949E+02  0.40136918283E+01  0.17293115968E+03  0.17120000000E+03 0.  0.
        998    1    1    2    0    0  0.13860304708E+02 -0.16380743924E+01  0.13866786059E+04  0.13867848958E+04  0.10000000000E+02 0.  1.
</event>
<event>
 5    1  0.1338054E-008  0.3831908E+03  0.7957747E-01  0.3437381E+00
         13   -1    0    0    0    0  0.00000000000E+00  0.00000000000E+00  0.14999999963E+04  0.15000000000E+04  0.10566000000E+00 0.  1.
        994   -1    0    0    0    0 -0.00000000000E+00 -0.00000000000E+00  0.11368683772E-12  0.17120000000E+03  0.17120000000E+03 0.  0.
         13    1    1    2    0    0 -0.61264339659E+01  0.19786178364E+02  0.86198718173E+02  0.88652446250E+02  0.10566000000E+00 0.  1.
        994    1    1    2    0    0 -0.20944557148E+01 -0.99521907572E+01  0.28732624184E+01  0.17152588284E+03  0.17120000000E+03 0.  0.
        998    1    1    2    0    0  0.82208896807E+01 -0.98339876065E+01  0.14109280157E+04  0.14110216709E+04  0.10000000000E+02 0.  1.
</event>
<event>
 5    1  0.1338054E-008  0.3886349E+03  0.7957747E-01  0.3414401E+00
         13   -1    0    0    0    0  0.00000000000E+00  0.00000000000E+00  0.14999999963E+04  0.15000000000E+04  0.10566000000E+00 0.  1.
        994   -1    0    0    0    0 -0.00000000000E+00 -0.00000000000E+00  0.11368683772E-12  0.17120000000E+03  0.17120000000E+03 0.  0.
         13    1    1    2    0    0  0.10032166174E+03  0.39848726969E+02  0.22921405090E+03  0.25336031487E+03  0.10566000000E+00 0.  1.
        994    1    1    2    0    0 -0.10103209837E+03 -0.29474339104E+02  0.63912801385E+02  0.21088031617E+03  0.17120000000E+03 0.  0.
        998    1    1    2    0    0  0.71043662870E+00 -0.10374387865E+02  0.12068731440E+04  0.12069593690E+04  0.10000000000E+02 0.  1.
</event>
<event>
 5    1  0.1338054E-008  0.3695843E+03  0.7957747E-01  0.3497804E+00
         13   -1    0    0    0    0  0.00000000000E+00  0.00000000000E+00  0.14999999963E+04  0.15000000000E+04  0.10566000000E+00 0. -1.
        994   -1    0    0    0    0 -0.00000000000E+00 -0.00000000000E+00  0.11368683772E-12  0.17120000000E+03  0.17120000000E+03 0.  0.
         13    1    1    2    0    0  0.12117467113E+03  0.79853829325E+01  0.63890205397E+03  0.65034061306E+03  0.10566000000E+00 0. -1.
        994    1    1    2    0    0 -0.78968456527E+02  0.34282125714E+01  0.32859983288E+02  0.19140791068E+03  0.17120000000E+03 0.  0.
        998    1    1    2    0    0 -0.42206214604E+02 -0.11413595504E+02  0.82823795902E+03  0.82945147627E+03  0.10000000000E+02 0. -1.
</event>
<event>
 5    1  0.1338054E-008  0.3828527E+03  0.7957747E-01  0.3438831E+00
         13   -1    0    0    0    0  0.00000000000E+00  0.00000000000E+00  0.14999999963E+04  0.15000000000E+04  0.10566000000E+00 0. -1.
        994   -1    0    0    0    0 -0.00000000000E+00 -0.00000000000E+00  0.11368683772E-12  0.17120000000E+03  0.17120000000E+03 0.  0.
         13    1    1    2    0    0 -0.94236053241E+01  0.64324436738E+01  0.22843444565E+02  0.25534580328E+02  0.10566000000E+00 0. -1.
        994    1    1    2    0    0  0.11534229438E+02 -0.38352105405E+01  0.31894479846E+01  0.17166059497E+03  0.17120000000E+03 0.  0.
        998    1    1    2    0    0 -0.21106241138E+01 -0.25972331334E+01  0.14739671037E+04  0.14740048247E+04  0.10000000000E+02 0. -1.
</event>
<event>
 5    1  0.1338054E-008  0.3836162E+03  0.7957747E-01  0.3435562E+00
         13   -1    0    0    0    0  0.00000000000E+00  0.00000000000E+00  0.14999999963E+04  0.15000000000E+04  0.10566000000E+00 0. -1.
        994   -1    0    0    0    0 -0.00000000000E+00 -0.00000000000E+00  0.11368683772E-12  0.17120000000E+03  0.17120000000E+03 0.  0.
         13    1    1    2    0    0  0.28889972761E+01  0.15541608179E+02  0.51126265779E+02  0.53514428957E+02  0.10566000000E+00 0. -1.
        994    1    1    2    0    0 -0.52771144739E+01 -0.18442577005E+02  0.35352533156E+01  0.17230761620E+03  0.17120000000E+03 0.  0.
        998    1    1    2    0    0  0.23881171978E+01  0.29009688263E+01  0.14453384772E+04  0.14453779548E+04  0.10000000000E+02 0. -1.
</event>
<event>
 5    1  0.1338054E-008  0.3859709E+03  0.7957747E-01  0.3425565E+00
         13   -1    0    0    0    0  0.00000000000E+00  0.00000000000E+00  0.14999999963E+04  0.15000000000E+04  0.10566000000E+00 0.  1.
        994   -1    0    0    0    0 -0.00000000000E+00 -0.00000000000E+00  0.11368683772E-12  0.17120000000E+03  0.17120000000E+03 0.  0.
         13    1    1    2    0    0  0.11026578843E+02  0.25184772666E+00  0.52370811557E+02  0.53519734075E+02  0.10566000000E+00 0.  1.
        994    1    1    2    0    0 -0.10815620837E+02  0.36214085594E+01  0.15754522121E+01  0.17158675445E+03  0.17120000000E+03 0.  0.
        998    1    1    2    0    0 -0.21095800647E+00 -0.38732562861E+01  0.14460537325E+04  0.14460935115E+04  0.10000000000E+02 0.  1.
</event>
<event>
 5    1  0.1338054E-008  0.3696348E+03  0.7957747E-01  0.3497571E+00
         13   -1    0    0    0    0  0.00000000000E+00  0.00000000000E+00  0.14999999963E+04  0.15000000000E+04  0.10566000000E+00 0.  1.
        994   -1    0    0    0    0 -0.00000000000E+00 -0.00000000000E+00  0.11368683772E-12  0.17120000000E+03  0.17120000000E+03 0.  0.
         13    1    1    2    0    0  0.64588961454E+02  0.20653192618E+02  0.29141346860E+03  0.29919911289E+03  0.10566000000E+00 0.  1.
        994    1    1    2    0    0  0.13577735958E+02 -0.46906706910E+01  0.11466621243E+02  0.17218385728E+03  0.17120000000E+03 0.  0.
        998    1    1    2    0    0 -0.78166697412E+02 -0.15962521927E+02  0.11971199064E+04  0.11998170298E+04  0.10000000000E+02 0.  1.
</event>
<event>
 5    1  0.1338054E-008  0.3805968E+03  0.7957747E-01  0.3448564E+00
         13   -1    0    0    0    0  0.00000000000E+00  0.00000000000E+00  0.14999999963E+04  0.15000000000E+04  0.10566000000E+00 0.  1.
        994   -1    0    0    0    0 -0.00000000000E+00 -0.00000000000E+00  0.11368683772E-12  0.17120000000E+03  0.17120000000E+03 0.  0.
         13    1    1    2    0    0  0.23748773381E+02 -0.16817147662E+02  0.10875443385E+03  0.11258045451E+03  0.10566000000E+00 0.  1.
        994    1    1    2    0    0 -0.18272605708E+02  0.59400947372E+01  0.50648302010E+01  0.17234925399E+03  0.17120000000E+03 0.  0.
        998    1    1    2    0    0 -0.54761676732E+01  0.10877052925E+02  0.13861807322E+04  0.13862702915E+04  0.10000000000E+02 0.  0.
</event>
<event>
 5    1  0.1338054E-008  0.3825108E+03  0.7957747E-01  0.3440298E+00
         13   -1    0    0    0    0  0.00000000000E+00  0.00000000000E+00  0.14999999963E+04  0.15000000000E+04  0.10566000000E+00 0. -1.
        994   -1    0    0    0    0 -0.00000000000E+00 -0.00000000000E+00  0.11368683772E-12  0.17120000000E+03  0.17120000000E+03 0.  0.
         13    1    1    2    0    0 -0.18557875775E+01  0.14345471353E+02  0.37988577428E+02  0.40649473242E+02  0.10566000000E+00 0. -1.
        994    1    1    2    0    0  0.17617338080E+02  0.10282566662E+02  0.42517872134E+01  0.17246338589E+03  0.17120000000E+03 0.  0.
        998    1    1    2    0    0 -0.15761550502E+02 -0.24628038015E+02  0.14577596316E+04  0.14580871409E+04  0.10000000000E+02 0. -1.
</event>
<event>
 5    1  0.1338054E-008  0.3799545E+03  0.7957747E-01  0.3451357E+00
         13   -1    0    0    0    0  0.00000000000E+00  0.00000000000E+00  0.14999999963E+04  0.15000000000E+04  0.10566000000E+00 0.  1.
        994   -1    0    0    0    0 -0.00000000000E+00 -0.00000000000E+00  0.11368683772E-12  0.17120000000E+03  0.17120000000E+03 0.  0.
         13    1    1    2    0    0  0.12403983452E+02 -0.28166797023E+02  0.13321833469E+03  0.13672733129E+03  0.10566000000E+00 0.  1.
        994    1    1    2    0    0  0.41689001402E+01 -0.83379607946E+01  0.44467078576E+01  0.17151126648E+03  0.17120000000E+03 0.  0.
        998    1    1    2    0    0 -0.16572883592E+02  0.36504757817E+02  0.13623349537E+04  0.13629614022E+04  0.10000000000E+02 0.  1.
</event>
<event>
 5    1  0.1338054E-008  0.3688290E+03  0.7957747E-01  0.3501290E+00
         13   -1    0    0    0    0  0.00000000000E+00  0.00000000000E+00  0.14999999963E+04  0.15000000000E+04  0.10566000000E+00 0.  1.
        994   -1    0    0    0    0 -0.00000000000E+00 -0.00000000000E+00  0.11368683772E-12  0.17120000000E+03  0.17120000000E+03 0.  0.
         13    1    1    2    0    0  0.34692718618E+02 -0.16339033111E+03  0.71903478045E+03  0.73818088006E+03  0.10566000000E+00 0.  1.
        994    1    1    2    0    0 -0.38070664345E+02  0.15186689346E+03  0.10125666389E+03  0.25313095582E+03  0.17120000000E+03 0.  0.
        998    1    1    2    0    0  0.33779457267E+01  0.11523437655E+02  0.67970855193E+03  0.67988816411E+03  0.10000000000E+02 0.  1.
</event>
<event>
 5    1  0.1338054E-008  0.3776617E+03  0.7957747E-01  0.3461404E+00
         13   -1    0    0    0    0  0.00000000000E+00  0.00000000000E+00  0.14999999963E+04  0.15000000000E+04  0.10566000000E+00 0. -1.
        994   -1    0    0    0    0 -0.00000000000E+00 -0.00000000000E+00  0.11368683772E-12  0.17120000000E+03  0.17120000000E+03 0.  0.
         13    1    1    2    0    0  0.13881208144E+02 -0.23459027051E+01  0.16193146797E+02  0.21457408191E+02  0.10566000000E+00 0. -1.
        994    1    1    2    0    0 -0.14852258604E+02 -0.74857133774E+01  0.62506652991E+01  0.17211954075E+03  0.17120000000E+03 0.  0.
        998    1    1    2    0    0  0.97105045984E+00  0.98316160826E+01  0.14775561842E+04  0.14776230511E+04  0.10000000000E+02 0. -1.
</event>
<event>
 5    1  0.1338054E-008  0.3840578E+03  0.7957747E-01  0.3433678E+00
         13   -1    0    0    0    0  0.00000000000E+00  0.00000000000E+00  0.14999999963E+04  0.15000000000E+04  0.10566000000E+00 0. -1.
        994   -1    0    0    0    0 -0.00000000000E+00 -0.00000000000E+00  0.11368683772E-12  0.17120000000E+03  0.17120000000E+03 0.  0.
         13    1    1    2    0    0  0.17481770513E+02 -0.86128577844E+01  0.86587857281E+02  0.88753939699E+02  0.10566000000E+00 0. -1.
        994    1    1    2    0    0 -0.18934923937E+02  0.35595214464E+01  0.33241119472E+01  0.17231277160E+03  0.17120000000E+03 0.  0.
        998    1    1    2    0    0  0.14531534248E+01  0.50533363379E+01  0.14100880271E+04  0.14101332887E+04  0.10000000000E+02 0. -1.
</event>
<event>
 5    1  0.1338054E-008  0.3827245E+03  0.7957747E-01  0.3439380E+00
         13   -1    0    0    0    0  0.00000000000E+00  0.00000000000E+00  0.14999999963E+04  0.15000000000E+04  0.10566000000E+00 0.  1.
        994   -1    0    0    0    0 -0.00000000000E+00 -0.00000000000E+00  0.11368683772E-12  0.17120000000E+03  0.17120000000E+03 0.  0.
         13    1    1    2    0    0 -0.34468727142E+02  0.30277914375E+01  0.20453231886E+03  0.20743852413E+03  0.10566000000E+00 0.  1.
        994    1    1    2    0    0  0.25825792184E+02 -0.41724206208E+01  0.50348087431E+01  0.17326041075E+03  0.17120000000E+03 0.  0.
        998    1    1    2    0    0  0.86429349584E+01  0.11446291833E+01  0.12904328687E+04  0.12905010651E+04  0.10000000000E+02 0.  1.
</event>
<event>
 5    1  0.1338054E-008  0.3843731E+03  0.7957747E-01  0.3432336E+00
         13   -1    0    0    0    0  0.00000000000E+00  0.00000000000E+00  0.14999999963E+04  0.15000000000E+04  0.10566000000E+00 0. -1.
        994   -1    0    0    0    0 -0.00000000000E+00 -0.00000000000E+00  0.11368683772E-12  0.17120000000E+03  0.17120000000E+03 0.  0.
         13    1    1    2    0    0  0.91451340725E+01  0.83046796204E+01  0.38295700052E+02  0.40238948636E+02  0.10566000000E+00 0. -1.
        994    1    1    2    0    0 -0.61095510925E+01 -0.10815835409E+02  0.24503927706E+01  0.17166756635E+03  0.17120000000E+03 0.  0.
        998    1    1    2    0    0 -0.30355829800E+01  0.25111557883E+01  0.14592539035E+04  0.14592934850E+04  0.10000000000E+02 0. -1.
</event>
<event>
 5    1  0.1338054E-008  0.3881192E+03  0.7957747E-01  0.3416550E+00
         13   -1    0    0    0    0  0.00000000000E+00  0.00000000000E+00  0.14999999963E+04  0.15000000000E+04  0.10566000000E+00 0. -1.
        994   -1    0    0    0    0 -0.00000000000E+00 -0.00000000000E+00  0.11368683772E-12  0.17120000000E+03  0.17120000000E+03 0.  0.
         13    1    1    2    0    0 -0.13393337556E+03  0.49339383054E+01  0.33180018835E+03  0.35784615268E+03  0.10566000000E+00 0. -1.
        994    1    1    2    0    0  0.12659851428E+03 -0.36312923444E+02  0.88982033577E+02  0.23360876380E+03  0.17120000000E+03 0.  0.
        998    1    1    2    0    0  0.73348612866E+01  0.31378985139E+02  0.10792177744E+04  0.10797450835E+04  0.10000000000E+02 0. -1.
</event>
<event>
 5    1  0.1338054E-008  0.3738725E+03  0.7957747E-01  0.3478281E+00
         13   -1    0    0    0    0  0.00000000000E+00  0.00000000000E+00  0.14999999963E+04  0.15000000000E+04  0.10566000000E+00 0. -1.
        994   -1    0    0    0    0 -0.00000000000E+00 -0.00000000000E+00  0.11368683772E-12  0.17120000000E+03  0.17120000000E+03 0.  0.
         13    1    1    2    0    0 -0.15701260730E+02  0.43510097467E+01  0.15018317697E+02  0.22159014076E+02  0.10566000000E+00 0. -1.
        994    1    1    2    0    0  0.16056093569E+02  0.49177875051E+01  0.82216161501E+01  0.17221793677E+03  0.17120000000E+03 0.  0.
        998    1    1    2    0    0 -0.35483283961E+00 -0.92687972518E+01  0.14767600624E+04  0.14768230492E+04  0.10000000000E+02 0. -1.
</event>
<event>
 5    1  0.1338054E-008  0.3861575E+03  0.7957747E-01  0.3424778E+00
         13   -1    0    0    0    0  0.00000000000E+00  0.00000000000E+00  0.14999999963E+04  0.15000000000E+04  0.10566000000E+00 0.  1.
        994   -1    0    0    0    0 -0.00000000000E+00 -0.00000000000E+00  0.11368683772E-12  0.17120000000E+03  0.17120000000E+03 0.  0.
         13    1    1    2    0    0  0.58976087259E+01 -0.12369216827E+02  0.75941617280E+02  0.77168126274E+02  0.10566000000E+00 0.  1.
        994    1    1    2    0    0 -0.87548351211E+01  0.29011332053E+02  0.40710426521E+01  0.17390893569E+03  0.17120000000E+03 0.  0.
        998    1    1    2    0    0  0.28572263952E+01 -0.16642115226E+02  0.14199873363E+04  0.14201229380E+04  0.10000000000E+02 0.  1.
</event>
<event>
 5    1  0.1338054E-008  0.3851121E+03  0.7957747E-01  0.3429197E+00
         13   -1    0    0    0    0  0.00000000000E+00  0.00000000000E+00  0.14999999963E+04  0.15000000000E+04  0.10566000000E+00 0.  1.
        994   -1    0    0    0    0 -0.00000000000E+00 -0.00000000000E+00  0.11368683772E-12  0.17120000000E+03  0.17120000000E+03 0.  0.
         13    1    1    2    0    0  0.10353276574E+02 -0.85522706962E+01  0.55910018941E+02  0.57500200450E+02  0.10566000000E+00 0.  1.
        994    1    1    2    0    0 -0.80829530222E+01  0.10772982521E+02  0.21710204410E+01  0.17174266975E+03  0.17120000000E+03 0.  0.
        998    1    1    2    0    0 -0.22703235514E+01 -0.22207118252E+01  0.14419189569E+04  0.14419571298E+04  0.10000000000E+02 0.  1.
</event>
<event>
 5    1  0.1338054E-008  0.3848354E+03  0.7957747E-01  0.3430371E+00
         13   -1    0    0    0    0  0.00000000000E+00  0.00000000000E+00  0.14999999963E+04  0.15000000000E+04  0.10566000000E+00 0. -1.
        994   -1    0    0    0    0 -0.00000000000E+00 -0.00000000000E+00  0.11368683772E-12  0.17120000000E+03  0.17120000000E+03 0.  0.
         13    1    1    2    0    0  0.15419362178E+02 -0.17172496415E+01  0.77291946401E+02  0.78833760653E+02  0.10566000000E+00 0. -1.
        994    1    1    2    0    0  0.34296583906E+01 -0.33789466046E+01  0.17881667622E+01  0.17127701941E+03  0.17120000000E+03 0.  0.
        998    1    1    2    0    0 -0.18849020569E+02  0.50961962461E+01  0.14209198831E+04  0.14210892199E+04  0.10000000000E+02 0. -1.
</event>
<event>
 5    1  0.1338054E-008  0.3855825E+03  0.7957747E-01  0.3427205E+00
         13   -1    0    0    0    0  0.00000000000E+00  0.00000000000E+00  0.14999999963E+04  0.15000000000E+04  0.10566000000E+00 0.  1.
        994   -1    0    0    0    0 -0.00000000000E+00 -0.00000000000E+00  0.11368683772E-12  0.17120000000E+03  0.17120000000E+03 0.  0.
         13    1    1    2    0    0 -0.25483255633E+01  0.12070682223E+02  0.57854628477E+02  0.59155426909E+02  0.10566000000E+00 0.  1.
        994    1    1    2    0    0  0.10375538216E+02 -0.42239249762E+01  0.17532227038E+01  0.17157507723E+03  0.17120000000E+03 0.  0.
        998    1    1    2    0    0 -0.78272126523E+01 -0.78467572466E+01  0.14403921451E+04  0.14404694959E+04  0.10000000000E+02 0.  1.
</event>
<event>
 5    1  0.1698934E-008  0.3859239E+03  0.7957747E-01  0.3425763E+00
         13   -1    0    0    0    0  0.00000000000E+00  0.00000000000E+00  0.14999999963E+04  0.15000000000E+04  0.10566000000E+00 0. -1.
        994   -1    0    0    0    0 -0.00000000000E+00 -0.00000000000E+00  0.11368683772E-12  0.17120000000E+03  0.17120000000E+03 0.  0.
         13    1    1    2    0    0 -0.91426992534E+01  0.58238439593E+01  0.50071639003E+02  0.51231692385E+02  0.10566000000E+00 0. -1.
        994    1    1    2    0    0  0.72323505797E+01 -0.55055999782E+01  0.14430585254E+01  0.17144719579E+03  0.17120000000E+03 0.  0.
        998    1    1    2    0    0  0.19103486737E+01 -0.31824398107E+00  0.14484852987E+04  0.14485211118E+04  0.10000000000E+02 0.  0.
</event>
<event>
 5    1  0.1338054E-008  0.3862951E+03  0.7957747E-01  0.3424198E+00
         13   -1    0    0    0    0  0.00000000000E+00  0.00000000000E+00  0.14999999963E+04  0.15000000000E+04  0.10566000000E+00 0.  1.
        994   -1    0    0    0    0 -0.00000000000E+00 -0.00000000000E+00  0.11368683772E-12  0.17120000000E+03  0.17120000000E+03 0.  0.
         13    1    1    2    0    0 -0.26714749034E+01  0.10137195690E+02  0.55308163426E+02  0.56293015732E+02  0.10566000000E+00 0.  1.
        994    1    1    2    0    0  0.66311535735E+01 -0.86750972817E+01  0.13790693971E+01  0.17155340668E+03  0.17120000000E+03 0.  0.
        998    1    1    2    0    0 -0.39596786702E+01 -0.14620984079E+01  0.14433127635E+04  0.14433535776E+04  0.10000000000E+02 0.  1.
</event>
<event>
 5    1  0.1338054E-008  0.3820553E+03  0.7957747E-01  0.3442258E+00
         13   -1    0    0    0    0  0.00000000000E+00  0.00000000000E+00  0.14999999963E+04  0.15000000000E+04  0.10566000000E+00 0.  1.
        994   -1    0    0    0    0 -0.00000000000E+00 -0.00000000000E+00  0.11368683772E-12  0.17120000000E+03  0.17120000000E+03 0.  0.
         13    1    1    2    0    0 -0.77418059229E+01 -0.19103565995E+02  0.72564832501E+02  0.75435720137E+02  0.10566000000E+00 0.  1.
        994    1    1    2    0    0 -0.75084933888E+01  0.18956304538E+01  0.32983892230E+01  0.17140679759E+03  0.17120000000E+03 0.  0.
        998    1    1    2    0    0  0.15250299312E+02  0.17207935541E+02  0.14241367746E+04  0.14243574823E+04  0.10000000000E+02 0.  1.
</event>
<event>
 5    1  0.1338054E-008  0.3696840E+03  0.7957747E-01  0.3497345E+00
         13   -1    0    0    0    0  0.00000000000E+00  0.00000000000E+00  0.14999999963E+04  0.15000000000E+04  0.10566000000E+00 0.  1.
        994   -1    0    0    0    0 -0.00000000000E+00 -0.00000000000E+00  0.11368683772E-12  0.17120000000E+03  0.17120000000E+03 0.  0.
         13    1    1    2    0    0  0.29991328150E+02 -0.13020433018E+02  0.45252705342E+02  0.55828576419E+02  0.10566000000E+00 0.  1.
        994    1    1    2    0    0 -0.18681214880E+02  0.16847180285E+02  0.12984796616E+02  0.17352481153E+03  0.17120000000E+03 0.  0.
        998    1    1    2    0    0 -0.11310113270E+02 -0.38267472671E+01  0.14417624943E+04  0.14418466121E+04  0.10000000000E+02 0.  1.
</event>
<event>
 5    1  0.1338054E-008  0.3845783E+03  0.7957747E-01  0.3431463E+00
         13   -1    0    0    0    0  0.00000000000E+00  0.00000000000E+00  0.14999999963E+04  0.15000000000E+04  0.10566000000E+00 0. -1.
        994   -1    0    0    0    0 -0.00000000000E+00 -0.00000000000E+00  0.11368683772E-12  0.17120000000E+03  0.17120000000E+03 0.  0.
         13    1    1    2    0    0 -0.16619053701E+02  0.31682338471E+00  0.81123408005E+02  0.82808887285E+02  0.10566000000E+00 0. -1.
        994    1    1    2    0    0 -0.74871936311E+00  0.78289824031E+01  0.20433535106E+01  0.17139273275E+03  0.17120000000E+03 0.  0.
        998    1    1    2    0    0  0.17367773064E+02 -0.81458057878E+01  0.14168332348E+04  0.14169983800E+04  0.10000000000E+02 0. -1.
</event>
<event>
 5    1  0.1338054E-008  0.3798189E+03  0.7957747E-01  0.3451948E+00
         13   -1    0    0    0    0  0.00000000000E+00  0.00000000000E+00  0.14999999963E+04  0.15000000000E+04  0.10566000000E+00 0.  1.
        994   -1    0    0    0    0 -0.00000000000E+00 -0.00000000000E+00  0.11368683772E-12  0.17120000000E+03  0.17120000000E+03 0.  0.
         13    1    1    2    0    0  0.86850713449E+01 -0.61927816017E+01  0.11474340267E+02  0.15666928762E+02  0.10566000000E+00 0.  1.
        994    1    1    2    0    0 -0.13785979251E+02  0.24651920503E+01  0.48809239817E+01  0.17184118777E+03  0.17120000000E+03 0.  0.
        998    1    1    2    0    0  0.51009079058E+01  0.37275895515E+01  0.14836447320E+04  0.14836918835E+04  0.10000000000E+02 0.  1.
</event>
<event>
 5    1  0.1338054E-008  0.3824289E+03  0.7957747E-01  0.3440650E+00
         13   -1    0    0    0    0  0.00000000000E+00  0.00000000000E+00  0.14999999963E+04  0.15000000000E+04  0.10566000000E+00 0.  1.
        994   -1    0    0    0    0 -0.00000000000E+00 -0.00000000000E+00  0.11368683772E-12  0.17120000000E+03  0.17120000000E+03 0.  0.
         13    1    1    2    0    0  0.23962576402E+02  0.12787879775E+02  0.11033251023E+03  0.11362662062E+03  0.10566000000E+00 0.  1.
        994    1    1    2    0    0 -0.37962726022E+02 -0.90339270928E+01  0.79785509227E+01  0.17577223239E+03  0.17120000000E+03 0.  0.
        998    1    1    2    0    0  0.14000149619E+02 -0.37539526823E+01  0.13816889351E+04  0.13818011470E+04  0.10000000000E+02 0.  1.
</event>
<event>
 5    1  0.1338054E-008  0.3713208E+03  0.7957747E-01  0.3489842E+00
         13   -1    0    0    0    0  0.00000000000E+00  0.00000000000E+00  0.14999999963E+04  0.15000000000E+04  0.10566000000E+00 0.  1.
        994   -1    0    0    0    0 -0.00000000000E+00 -0.00000000000E+00  0.11368683772E-12  0.17120000000E+03  0.17120000000E+03 0.  0.
         13    1    1    2    0    0  0.22046947545E+02  0.62656523280E+01  0.17811412914E+02  0.29027295589E+02  0.10566000000E+00 0.  1.
        994    1    1    2    0    0 -0.13423075495E+02  0.48263704955E+01  0.12353891669E+02  0.17223684695E+03  0.17120000000E+03 0.  0.
        998    1    1    2    0    0 -0.86238720504E+01 -0.11092022824E+02  0.14698346917E+04  0.14699358575E+04  0.10000000000E+02 0.  1.
</event>
<event>
 5    1  0.1338054E-008  0.3687506E+03  0.7957747E-01  0.3501653E+00
         13   -1    0    0    0    0  0.00000000000E+00  0.00000000000E+00  0.14999999963E+04  0.15000000000E+04  0.10566000000E+00 0.  1.
        994   -1    0    0    0    0 -0.00000000000E+00 -0.00000000000E+00  0.11368683772E-12  0.17120000000E+03  0.17120000000E+03 0.  0.
         13    1    1    2    0    0 -0.24318697243E+02  0.10237474332E+00  0.24425464218E+02  0.34467723779E+02  0.10566000000E+00 0.  1.
        994    1    1    2    0    0  0.18118941356E+02  0.10801696243E+02  0.11830017603E+02  0.17289986117E+03  0.17120000000E+03 0.  0.
        998    1    1    2    0    0  0.61997558871E+01 -0.10904070987E+02  0.14637445145E+04  0.14638324150E+04  0.10000000000E+02 0.  1.
</event>
<event>
 5    1  0.1338054E-008  0.3752588E+03  0.7957747E-01  0.3472066E+00
         13   -1    0    0    0    0  0.00000000000E+00  0.00000000000E+00  0.14999999963E+04  0.15000000000E+04  0.10566000000E+00 0.  1.
        994   -1    0    0    0    0 -0.00000000000E+00 -0.00000000000E+00  0.11368683772E-12  0.17120000000E+03  0.17120000000E+03 0.  0.
         13    1    1    2    0    0  0.20740905801E+01  0.24529129677E+02  0.43841007929E+02  0.50279470907E+02  0.10566000000E+00 0.  1.
        994    1    1    2    0    0 -0.33632764237E+02 -0.12360284969E+02  0.10918896152E+02  0.17525011203E+03  0.17120000000E+03 0.  0.
        998    1    1    2    0    0  0.31558673656E+02 -0.12168844708E+02  0.14452400922E+04  0.14456704171E+04  0.10000000000E+02 0.  1.
</event>
<event>
 5    1  0.1338054E-008  0.3797182E+03  0.7957747E-01  0.3452386E+00
         13   -1    0    0    0    0  0.00000000000E+00  0.00000000000E+00  0.14999999963E+04  0.15000000000E+04  0.10566000000E+00 0.  1.
        994   -1    0    0    0    0 -0.00000000000E+00 -0.00000000000E+00  0.11368683772E-12  0.17120000000E+03  0.17120000000E+03 0.  0.
         13    1    1    2    0    0  0.27599274645E+02  0.54984081528E+02  0.13196075039E+03  0.14559745873E+03  0.10566000000E+00 0.  1.
        994    1    1    2    0    0  0.57685730492E+01  0.54138691489E+01  0.16399331205E+02  0.17216551478E+03  0.17120000000E+03 0.  0.
        998    1    1    2    0    0 -0.33367847694E+02 -0.60397950677E+02  0.13516399147E+04  0.13534370265E+04  0.10000000000E+02 0.  1.
</event>
<event>
 5    1  0.1338054E-008  0.3858356E+03  0.7957747E-01  0.3426136E+00
         13   -1    0    0    0    0  0.00000000000E+00  0.00000000000E+00  0.14999999963E+04  0.15000000000E+04  0.10566000000E+00 0. -1.
        994   -1    0    0    0    0 -0.00000000000E+00 -0.00000000000E+00  0.11368683772E-12  0.17120000000E+03  0.17120000000E+03 0.  0.
         13    1    1    2    0    0  0.13116846387E+02  0.40540374832E+01  0.81124480221E+02  0.82278061075E+02  0.10566000000E+00 0. -1.
        994    1    1    2    0    0 -0.34267236038E+01 -0.44034462732E+01  0.13179817854E+01  0.17129597149E+03  0.17120000000E+03 0.  0.
        998    1    1    2    0    0 -0.96901227834E+01  0.34940878999E+00  0.14175575343E+04  0.14176259674E+04  0.10000000000E+02 0. -1.
</event>
<event>
 5    1  0.1338054E-008  0.3792280E+03  0.7957747E-01  0.3454527E+00
         13   -1    0    0    0    0  0.00000000000E+00  0.00000000000E+00  0.14999999963E+04  0.15000000000E+04  0.10566000000E+00 0.  1.
        994   -1    0    0    0    0 -0.00000000000E+00 -0.00000000000E+00  0.11368683772E-12  0.17120000000E+03  0.17120000000E+03 0.  0.
         13    1    1    2    0    0  0.30341704890E+02 -0.47639663694E+01  0.11192885899E+03  0.11606633909E+03  0.10566000000E+00 0.  1.
        994    1    1    2    0    0 -0.27802638379E+01 -0.28468675904E+01  0.45764246164E+01  0.17130737925E+03  0.17120000000E+03 0.  0.
        998    1    1    2    0    0 -0.27561441053E+02  0.76108339598E+01  0.13834947127E+04  0.13838262817E+04  0.10000000000E+02 0.  1.
</event>
<event>
 5    1  0.1338054E-008  0.3736292E+03  0.7957747E-01  0.3479376E+00
         13   -1    0    0    0    0  0.00000000000E+00  0.00000000000E+00  0.14999999963E+04  0.15000000000E+04  0.10566000000E+00 0.  1.
        994   -1    0    0    0    0 -0.00000000000E+00 -0.00000000000E+00  0.11368683772E-12  0.17120000000E+03  0.17120000000E+03 0.  0.
         13    1    1    2    0    0  0.22354865284E+02 -0.89235593512E+00  0.32330701688E+02  0.39316939564E+02  0.10566000000E+00 0.  1.
        994    1    1    2    0    0  0.18222599539E+01 -0.10060877956E+02  0.77414144774E+01  0.17167967671E+03  0.17120000000E+03 0.  0.
        998    1    1    2    0    0 -0.24177125238E+02  0.10953233892E+02  0.14599278801E+04  0.14602033837E+04  0.10000000000E+02 0.  1.
</event>
<event>
 5    1  0.1338054E-008  0.3853684E+03  0.7957747E-01  0.3428111E+00
         13   -1    0    0    0    0  0.00000000000E+00  0.00000000000E+00  0.14999999963E+04  0.15000000000E+04  0.10566000000E+00 0.  1.
        994   -1    0    0    0    0 -0.00000000000E+00 -0.00000000000E+00  0.11368683772E-12  0.17120000000E+03  0.17120000000E+03 0.  0.
         13    1    1    2    0    0 -0.14712274511E+02  0.18563415335E+01  0.72635474574E+02  0.74133800360E+02  0.10566000000E+00 0.  1.
        994    1    1    2    0    0  0.15653941527E+02 -0.96007642751E+01  0.25557955729E+01  0.17220102395E+03  0.17120000000E+03 0.  0.
        998    1    1    2    0    0 -0.94166701604E+00  0.77444227416E+01  0.14248087261E+04  0.14248651757E+04  0.10000000000E+02 0.  1.
</event>
<event>
 5    1  0.1338054E-008  0.3993233E+03  0.7957747E-01  0.3371108E+00
         13   -1    0    0    0    0  0.00000000000E+00  0.00000000000E+00  0.14999999963E+04  0.15000000000E+04  0.10566000000E+00 0. -1.
        994   -1    0    0    0    0 -0.00000000000E+00 -0.00000000000E+00  0.11368683772E-12  0.17120000000E+03  0.17120000000E+03 0.  0.
         13    1    1    2    0    0  0.38348642718E+02  0.13942491565E+02  0.19156652268E+02  0.45077710229E+02  0.10566000000E+00 0. -1.
        994    1    1    2    0    0 -0.24822997060E+02 -0.50744961654E+02  0.39939746612E+02  0.18465063140E+03  0.17120000000E+03 0.  0.
        998    1    1    2    0    0 -0.13525645658E+02  0.36802470089E+02  0.14409035974E+04  0.14414716584E+04  0.10000000000E+02 0. -1.
</event>
<event>
 5    1  0.1338054E-008  0.3711250E+03  0.7957747E-01  0.3490737E+00
         13   -1    0    0    0    0  0.00000000000E+00  0.00000000000E+00  0.14999999963E+04  0.15000000000E+04  0.10566000000E+00 0.  1.
        994   -1    0    0    0    0 -0.00000000000E+00 -0.00000000000E+00  0.11368683772E-12  0.17120000000E+03  0.17120000000E+03 0.  0.
         13    1    1    2    0    0 -0.13549387577E+02  0.38275511328E+02  0.80919826717E+02  0.90535242813E+02  0.10566000000E+00 0.  1.
        994    1    1    2    0    0  0.15749981512E+02  0.39134756048E+02  0.17807040378E+02  0.17721772410E+03  0.17120000000E+03 0.  0.
        998    1    1    2    0    0 -0.22005939354E+01 -0.77410267376E+02  0.14012731292E+04  0.14034470331E+04  0.10000000000E+02 0.  1.
</event>
<event>
 5    1  0.1338054E-008  0.3847273E+03  0.7957747E-01  0.3430830E+00
         13   -1    0    0    0    0  0.00000000000E+00  0.00000000000E+00  0.14999999963E+04  0.15000000000E+04  0.10566000000E+00 0.  1.
        994   -1    0    0    0    0 -0.00000000000E+00 -0.00000000000E+00  0.11368683772E-12  0.17120000000E+03  0.17120000000E+03 0.  0.
         13    1    1    2    0    0 -0.14886693788E+02  0.14007737576E+02  0.10844094930E+03  0.11035071822E+03  0.10566000000E+00 0.  1.
        994    1    1    2    0    0  0.17857555047E+02 -0.15981328402E+02  0.36582028045E+01  0.17290782972E+03  0.17120000000E+03 0.  0.
        998    1    1    2    0    0 -0.29708612588E+01  0.19735908264E+01  0.13879008442E+04  0.13879414521E+04  0.10000000000E+02 0.  1.
</event>
<event>
 5    1  0.1338054E-008  0.3795554E+03  0.7957747E-01  0.3453097E+00
         13   -1    0    0    0    0  0.00000000000E+00  0.00000000000E+00  0.14999999963E+04  0.15000000000E+04  0.10566000000E+00 0.  1.
        994   -1    0    0    0    0 -0.00000000000E+00 -0.00000000000E+00  0.11368683772E-12  0.17120000000E+03  0.17120000000E+03 0.  0.
         13    1    1    2    0    0  0.21012896181E+02  0.11305925302E+02  0.60579920159E+02  0.65109935059E+02  0.10566000000E+00 0.  1.
        994    1    1    2    0    0 -0.24627485375E+02 -0.13230256836E+02  0.69786439206E+01  0.17360787483E+03  0.17120000000E+03 0.  0.
        998    1    1    2    0    0  0.36145891931E+01  0.19243315338E+01  0.14324414322E+04  0.14324821901E+04  0.10000000000E+02 0.  1.
</event>
<event>
 5    1  0.1338054E-008  0.3811575E+03  0.7957747E-01  0.3446134E+00
         13   -1    0    0    0    0  0.00000000000E+00  0.00000000000E+00  0.14999999963E+04  0.15000000000E+04  0.10566000000E+00 0. -1.
        994   -1    0    0    0    0 -0.00000000000E+00 -0.00000000000E+00  0.11368683772E-12  0.17120000000E+03  0.17120000000E+03 0.  0.
         13    1    1    2    0    0  0.24123594802E+01 -0.23204710157E+02  0.77309012876E+02  0.80752539821E+02  0.10566000000E+00 0. -1.
        994    1    1    2    0    0  0.15906747549E+02  0.11542413298E+02  0.48373422115E+01  0.17239226143E+03  0.17120000000E+03 0.  0.
        998    1    1    2    0    0 -0.18319107029E+02  0.11662296859E+02  0.14178536412E+04  0.14180551987E+04  0.10000000000E+02 0. -1.
</event>
<event>
 5    1  0.1338054E-008  0.3770267E+03  0.7957747E-01  0.3464208E+00
         13   -1    0    0    0    0  0.00000000000E+00  0.00000000000E+00  0.14999999963E+04  0.15000000000E+04  0.10566000000E+00 0.  1.
        994   -1    0    0    0    0 -0.00000000000E+00 -0.00000000000E+00  0.11368683772E-12  0.17120000000E+03  0.17120000000E+03 0.  0.
         13    1    1    2    0    0 -0.32852474790E+02  0.24667041526E+02  0.19770987062E+03  0.20193303876E+03  0.10566000000E+00 0.  1.
        994    1    1    2    0    0 -0.10089802487E+02  0.18994501578E+02  0.72049541072E+01  0.17269611046E+03  0.17120000000E+03 0.  0.
        998    1    1    2    0    0  0.42942277277E+02 -0.43661543104E+02  0.12950851716E+04  0.12965708508E+04  0.10000000000E+02 0.  1.
</event>
<event>
 5    1  0.1338054E-008  0.3753770E+03  0.7957747E-01  0.3471539E+00
         13   -1    0    0    0    0  0.00000000000E+00  0.00000000000E+00  0.14999999963E+04  0.15000000000E+04  0.10566000000E+00 0.  1.
        994   -1    0    0    0    0 -0.00000000000E+00 -0.00000000000E+00  0.11368683772E-12  0.17120000000E+03  0.17120000000E+03 0.  0.
         13    1    1    2    0    0 -0.29727216481E+02  0.39445089907E+02  0.17968164215E+03  0.18634679017E+03  0.10566000000E+00 0.  1.
        994    1    1    2    0    0  0.14063682090E+02 -0.33056433553E+02  0.10878977888E+02  0.17526638900E+03  0.17120000000E+03 0.  0.
        998    1    1    2    0    0  0.15663534391E+02 -0.63886563534E+01  0.13094393762E+04  0.13095868208E+04  0.10000000000E+02 0.  1.
</event>
<event>
 5    1  0.1338054E-008  0.3836266E+03  0.7957747E-01  0.3435518E+00
         13   -1    0    0    0    0  0.00000000000E+00  0.00000000000E+00  0.14999999963E+04  0.15000000000E+04  0.10566000000E+00 0.  1.
        994   -1    0    0    0    0 -0.00000000000E+00 -0.00000000000E+00  0.11368683772E-12  0.17120000000E+03  0.17120000000E+03 0.  0.
         13    1    1    2    0    0  0.18666522526E+02 -0.17017324587E+02  0.12408389970E+03  0.12662880292E+03  0.10566000000E+00 0.  1.
        994    1    1    2    0    0 -0.24706845609E+02  0.16295600695E+02  0.52125542830E+01  0.17381767903E+03  0.17120000000E+03 0.  0.
        998    1    1    2    0    0  0.60403230831E+01  0.72172389209E+00  0.13707035423E+04  0.13707535181E+04  0.10000000000E+02 0.  1.
</event>
<event>
 5    1  0.1338054E-008  0.3711069E+03  0.7957747E-01  0.3490819E+00
         13   -1    0    0    0    0  0.00000000000E+00  0.00000000000E+00  0.14999999963E+04  0.15000000000E+04  0.10566000000E+00 0.  1.
        994   -1    0    0    0    0 -0.00000000000E+00 -0.00000000000E+00  0.11368683772E-12  0.17120000000E+03  0.17120000000E+03 0.  0.
         13    1    1    2    0    0  0.14152767249E+03 -0.27309942031E+02  0.75839661920E+03  0.77197238175E+03  0.10566000000E+00 0.  1.
        994    1    1    2    0    0 -0.13038990966E+03 -0.97068459434E+01  0.70098889840E+02  0.22653707369E+03  0.17120000000E+03 0.  0.
        998    1    1    2    0    0 -0.11137762830E+02  0.37016787974E+02  0.67150448724E+03  0.67269054456E+03  0.10000000000E+02 0.  1.
</event>
<event>
 5    1  0.1338054E-008  0.3643217E+03  0.7957747E-01  0.3522401E+00
         13   -1    0    0    0    0  0.00000000000E+00  0.00000000000E+00  0.14999999963E+04  0.15000000000E+04  0.10566000000E+00 0.  1.
        994   -1    0    0    0    0 -0.00000000000E+00 -0.00000000000E+00  0.11368683772E-12  0.17120000000E+03  0.17120000000E+03 0.  0.
         13    1    1    2    0    0  0.19292937273E+03  0.85723282353E+02  0.11622650162E+04  0.11812832865E+04  0.10566000000E+00 0.  1.
        994    1    1    2    0    0 -0.17333750341E+03 -0.75387046421E+02  0.14045685387E+03  0.29114715292E+03  0.17120000000E+03 0.  0.
        998    1    1    2    0    0 -0.19591869322E+02 -0.10336235933E+02  0.19727812621E+03  0.19876956054E+03  0.10000000000E+02 0.  1.
</event>
<event>
 5    1  0.1338054E-008  0.3693033E+03  0.7957747E-01  0.3499099E+00
         13   -1    0    0    0    0  0.00000000000E+00  0.00000000000E+00  0.14999999963E+04  0.15000000000E+04  0.10566000000E+00 0. -1.
        994   -1    0    0    0    0 -0.00000000000E+00 -0.00000000000E+00  0.11368683772E-12  0.17120000000E+03  0.17120000000E+03 0.  0.
         13    1    1    2    0    0 -0.16243978131E+03 -0.66700664433E+01  0.64672837801E+03  0.66684989197E+03  0.10566000000E+00 0. -1.
        994    1    1    2    0    0  0.16091684082E+03  0.15882335643E+02  0.10820974287E+03  0.25916262596E+03  0.17120000000E+03 0.  0.
        998    1    1    2    0    0  0.15229404935E+01 -0.92122691996E+01  0.74506187540E+03  0.74518748207E+03  0.10000000000E+02 0. -1.
</event>
<event>
 5    1  0.1338054E-008  0.3694462E+03  0.7957747E-01  0.3498440E+00
         13   -1    0    0    0    0  0.00000000000E+00  0.00000000000E+00  0.14999999963E+04  0.15000000000E+04  0.10566000000E+00 0. -1.
        994   -1    0    0    0    0 -0.00000000000E+00 -0.00000000000E+00  0.11368683772E-12  0.17120000000E+03  0.17120000000E+03 0.  0.
         13    1    1    2    0    0  0.57372862904E+02 -0.97721567393E+02  0.44076520449E+03  0.45509902965E+03  0.10566000000E+00 0. -1.
        994    1    1    2    0    0 -0.43390588895E+02  0.97207048626E+02  0.51303139947E+02  0.20802260857E+03  0.17120000000E+03 0.  0.
        998    1    1    2    0    0 -0.13982274009E+02  0.51451876716E+00  0.10079316518E+04  0.10080783618E+04  0.10000000000E+02 0. -1.
</event>
<event>
 5    1  0.1338054E-008  0.3746777E+03  0.7957747E-01  0.3474665E+00
         13   -1    0    0    0    0  0.00000000000E+00  0.00000000000E+00  0.14999999963E+04  0.15000000000E+04  0.10566000000E+00 0. -1.
        994   -1    0    0    0    0 -0.00000000000E+00 -0.00000000000E+00  0.11368683772E-12  0.17120000000E+03  0.17120000000E+03 0.  0.
         13    1    1    2    0    0 -0.44054355847E+02 -0.99692513255E+01  0.13196746934E+03  0.13948331932E+03  0.10566000000E+00 0. -1.
        994    1    1    2    0    0  0.47805376116E+02  0.12062637106E+02  0.15161687365E+02  0.17880206364E+03  0.17120000000E+03 0.  0.
        998    1    1    2    0    0 -0.37510202690E+01 -0.20933857807E+01  0.13528708396E+04  0.13529146170E+04  0.10000000000E+02 0. -1.
</event>
<event>
 5    1  0.1338054E-008  0.3838196E+03  0.7957747E-01  0.3434694E+00
         13   -1    0    0    0    0  0.00000000000E+00  0.00000000000E+00  0.14999999963E+04  0.15000000000E+04  0.10566000000E+00 0. -1.
        994   -1    0    0    0    0 -0.00000000000E+00 -0.00000000000E+00  0.11368683772E-12  0.17120000000E+03  0.17120000000E+03 0.  0.
         13    1    1    2    0    0 -0.14525744620E+02 -0.46858385705E+01  0.49427408517E+02  0.51730399347E+02  0.10566000000E+00 0. -1.
        994    1    1    2    0    0  0.20801436334E+02  0.28893464020E+01  0.36747059347E+01  0.17252243779E+03  0.17120000000E+03 0.  0.
        998    1    1    2    0    0 -0.62756917136E+01  0.17964921685E+01  0.14468978818E+04  0.14469471629E+04  0.10000000000E+02 0. -1.
</event>
<event>
 5    1  0.1338054E-008  0.3810473E+03  0.7957747E-01  0.3446611E+00
         13   -1    0    0    0    0  0.00000000000E+00  0.00000000000E+00  0.14999999963E+04  0.15000000000E+04  0.10566000000E+00 0.  1.
        994   -1    0    0    0    0 -0.00000000000E+00 -0.00000000000E+00  0.11368683772E-12  0.17120000000E+03  0.17120000000E+03 0.  0.
         13    1    1    2    0    0 -0.10235541945E+02  0.26927942200E+02  0.12655966797E+03  0.12979692257E+03  0.10566000000E+00 0.  1.
        994    1    1    2    0    0 -0.96682652168E+00 -0.83687400000E+00  0.36108444513E+01  0.17124284893E+03  0.17120000000E+03 0.  0.
        998    1    1    2    0    0  0.11202368467E+02 -0.26091068200E+02  0.13698294839E+04  0.13701602285E+04  0.10000000000E+02 0.  1.
</event>
<event>
 5    1  0.1338054E-008  0.2877364E+03  0.7957747E-01  0.3987656E+00
         13   -1    0    0    0    0  0.00000000000E+00  0.00000000000E+00  0.14999999963E+04  0.15000000000E+04  0.10566000000E+00 0.  1.
        994   -1    0    0    0    0 -0.00000000000E+00 -0.00000000000E+00  0.11368683772E-12  0.17120000000E+03  0.17120000000E+03 0.  0.
         13    1    1    2    0    0 -0.14452360698E+03  0.22296224376E+01  0.64818178147E+03  0.66410215869E+03  0.10566000000E+00 0.  1.
        994    1    1    2    0    0  0.12486843357E+03  0.68588270090E+02  0.87668494724E+02  0.23935680785E+03  0.17120000000E+03 0.  0.
        998    1    1    2    0    0  0.19655173411E+02 -0.70817892527E+02  0.76414972009E+03  0.76774103346E+03  0.10000000000E+02 0.  1.
</event>
<event>
 5    1  0.1338054E-008  0.3801726E+03  0.7957747E-01  0.3450407E+00
         13   -1    0    0    0    0  0.00000000000E+00  0.00000000000E+00  0.14999999963E+04  0.15000000000E+04  0.10566000000E+00 0.  1.
        994   -1    0    0    0    0 -0.00000000000E+00 -0.00000000000E+00  0.11368683772E-12  0.17120000000E+03  0.17120000000E+03 0.  0.
         13    1    1    2    0    0 -0.28287745226E+02 -0.80284833668E+01  0.10349534331E+03  0.10759159040E+03  0.10566000000E+00 0.  1.
        994    1    1    2    0    0  0.19995968299E+02  0.79516061019E+01  0.55946998437E+01  0.17263779266E+03  0.17120000000E+03 0.  0.
        998    1    1    2    0    0  0.82917769269E+01  0.76877264834E-01  0.13909099531E+04  0.13909706169E+04  0.10000000000E+02 0.  1.
</event>
<event>
 5    1  0.1338054E-008  0.3812407E+03  0.7957747E-01  0.3445774E+00
         13   -1    0    0    0    0  0.00000000000E+00  0.00000000000E+00  0.14999999963E+04  0.15000000000E+04  0.10566000000E+00 0. -1.
        994   -1    0    0    0    0 -0.00000000000E+00 -0.00000000000E+00  0.11368683772E-12  0.17120000000E+03  0.17120000000E+03 0.  0.
         13    1    1    2    0    0  0.20495105019E+02  0.32798112558E+02  0.19638370124E+03  0.20015577632E+03  0.10566000000E+00 0. -1.
        994    1    1    2    0    0 -0.17174647963E+01 -0.37544219258E+02  0.82251357239E+01  0.17546968668E+03  0.17120000000E+03 0.  0.
        998    1    1    2    0    0 -0.18777640223E+02  0.47461067008E+01  0.12953911593E+04  0.12955745370E+04  0.10000000000E+02 0. -1.
</event>
<event>
 5    1  0.2252765E-008  0.3855536E+03  0.7957747E-01  0.3427328E+00
         13   -1    0    0    0    0  0.00000000000E+00  0.00000000000E+00  0.14999999963E+04  0.15000000000E+04  0.10566000000E+00 0. -1.
        994   -1    0    0    0    0 -0.00000000000E+00 -0.00000000000E+00  0.11368683772E-12  0.17120000000E+03  0.17120000000E+03 0.  0.
         13    1    1    2    0    0 -0.97853149900E+01 -0.32825811875E+01  0.39219211179E+02  0.40554721282E+02  0.10566000000E+00 0. -1.
        994    1    1    2    0    0  0.73073663108E+01  0.33357549994E+01  0.15673879879E+01  0.17139551210E+03  0.17120000000E+03 0.  0.
        998    1    1    2    0    0  0.24779486791E+01 -0.53173811917E-01  0.14592133971E+04  0.14592497666E+04  0.10000000000E+02 0. -1.
</event>
<event>
 5    1  0.1338054E-008  0.3806543E+03  0.7957747E-01  0.3448315E+00
         13   -1    0    0    0    0  0.00000000000E+00  0.00000000000E+00  0.14999999963E+04  0.15000000000E+04  0.10566000000E+00 0.  1.
        994   -1    0    0    0    0 -0.00000000000E+00 -0.00000000000E+00  0.11368683772E-12  0.17120000000E+03  0.17120000000E+03 0.  0.
         13    1    1    2    0    0  0.76354617080E+01 -0.14553182662E+02  0.33245599298E+02  0.37086067975E+02  0.10566000000E+00 0.  1.
        994    1    1    2    0    0 -0.10280424755E+02  0.15306385971E+02  0.49380965322E+01  0.17226084112E+03  0.17120000000E+03 0.  0.
        998    1    1    2    0    0  0.26449630475E+01 -0.75320330891E+00  0.14618163004E+04  0.14618530909E+04  0.10000000000E+02 0.  1.
</event>
<event>
 5    1  0.1338054E-008  0.3894858E+03  0.7957747E-01  0.3410867E+00
         13   -1    0    0    0    0  0.00000000000E+00  0.00000000000E+00  0.14999999963E+04  0.15000000000E+04  0.10566000000E+00 0.  1.
        994   -1    0    0    0    0 -0.00000000000E+00 -0.00000000000E+00  0.11368683772E-12  0.17120000000E+03  0.17120000000E+03 0.  0.
         13    1    1    2    0    0 -0.76767319367E+01 -0.41550007817E+02  0.31993363792E+02  0.52999262764E+02  0.10566000000E+00 0.  1.
        994    1    1    2    0    0  0.10941689062E+01  0.44983984104E+02  0.29279692403E+02  0.17941988858E+03  0.17120000000E+03 0.  0.
        998    1    1    2    0    0  0.65825630305E+01 -0.34339762864E+01  0.14387269401E+04  0.14387808487E+04  0.10000000000E+02 0.  1.
</event>
<event>
 5    1  0.1338054E-008  0.3844162E+03  0.7957747E-01  0.3432152E+00
         13   -1    0    0    0    0  0.00000000000E+00  0.00000000000E+00  0.14999999963E+04  0.15000000000E+04  0.10566000000E+00 0. -1.
        994   -1    0    0    0    0 -0.00000000000E+00 -0.00000000000E+00  0.11368683772E-12  0.17120000000E+03  0.17120000000E+03 0.  0.
         13    1    1    2    0    0 -0.88373670170E+01  0.96484979455E+01  0.43375022647E+02  0.45305588199E+02  0.10566000000E+00 0. -1.
        994    1    1    2    0    0  0.12144723312E+02 -0.62808846948E+01  0.25364499150E+01  0.17176384193E+03  0.17120000000E+03 0.  0.
        998    1    1    2    0    0 -0.33073562946E+01 -0.33676132507E+01  0.14540885237E+04  0.14541305699E+04  0.10000000000E+02 0. -1.
</event>
<event>
 5    1  0.1338054E-008  0.3856214E+03  0.7957747E-01  0.3427041E+00
         13   -1    0    0    0    0  0.00000000000E+00  0.00000000000E+00  0.14999999963E+04  0.15000000000E+04  0.10566000000E+00 0.  1.
        994   -1    0    0    0    0 -0.00000000000E+00 -0.00000000000E+00  0.11368683772E-12  0.17120000000E+03  0.17120000000E+03 0.  0.
         13    1    1    2    0    0 -0.10475787804E+02 -0.11165906976E+02  0.86147179179E+02  0.87497241404E+02  0.10566000000E+00 0.  1.
        994    1    1    2    0    0  0.11354139030E+02  0.89962492490E+01  0.20109648844E+01  0.17182355180E+03  0.17120000000E+03 0.  0.
        998    1    1    2    0    0 -0.87835122610E+00  0.21696577267E+01  0.14118418522E+04  0.14118792068E+04  0.10000000000E+02 0.  0.
</event>
<event>
 5    1  0.1338054E-008  0.3833050E+03  0.7957747E-01  0.3436893E+00
         13   -1    0    0    0    0  0.00000000000E+00  0.00000000000E+00  0.14999999963E+04  0.15000000000E+04  0.10566000000E+00 0. -1.
        994   -1    0    0    0    0 -0.00000000000E+00 -0.00000000000E+00  0.11368683772E-12  0.17120000000E+03  0.17120000000E+03 0.  0.
         13    1    1    2    0    0  0.22623480262E+02  0.21394264420E+02  0.17393447198E+03  0.17669959852E+03  0.10566000000E+00 0. -1.
        994    1    1    2    0    0 -0.21757412452E+02 -0.23541370220E+02  0.58794918267E+01  0.17427446609E+03  0.17120000000E+03 0.  0.
        998    1    1    2    0    0 -0.86606780989E+00  0.21471057999E+01  0.13201860325E+04  0.13202259354E+04  0.10000000000E+02 0. -1.
</event>
<event>
 5    1  0.1338054E-008  0.3835161E+03  0.7957747E-01  0.3435990E+00
         13   -1    0    0    0    0  0.00000000000E+00  0.00000000000E+00  0.14999999963E+04  0.15000000000E+04  0.10566000000E+00 0. -1.
        994   -1    0    0    0    0 -0.00000000000E+00 -0.00000000000E+00  0.11368683772E-12  0.17120000000E+03  0.17120000000E+03 0.  0.
         13    1    1    2    0    0  0.59627016213E+01 -0.16785892113E+02  0.64248076122E+02  0.66671931381E+02  0.10566000000E+00 0. -1.
        994    1    1    2    0    0 -0.41010136433E+01  0.17362557621E+02  0.34211166526E+01  0.17216103148E+03  0.17120000000E+03 0.  0.
        998    1    1    2    0    0 -0.18616879779E+01 -0.57666550813E+00  0.14323308035E+04  0.14323670371E+04  0.10000000000E+02 0. -1.
</event>
<event>
 5    1  0.1338054E-008  0.3837460E+03  0.7957747E-01  0.3435008E+00
         13   -1    0    0    0    0  0.00000000000E+00  0.00000000000E+00  0.14999999963E+04  0.15000000000E+04  0.10566000000E+00 0.  1.
        994   -1    0    0    0    0 -0.00000000000E+00 -0.00000000000E+00  0.11368683772E-12  0.17120000000E+03  0.17120000000E+03 0.  0.
         13    1    1    2    0    0  0.45799368477E+01  0.22234091688E+02  0.11967015090E+03  0.12180429728E+03  0.10566000000E+00 0.  1.
        994    1    1    2    0    0 -0.87680384446E+01 -0.56877612372E+01  0.26147972699E+01  0.17153864372E+03  0.17120000000E+03 0.  0.
        998    1    1    2    0    0  0.41881015968E+01 -0.16546330451E+02  0.13777150481E+04  0.13778570590E+04  0.10000000000E+02 0.  1.
</event>
<event>
 5    1  0.1338054E-008  0.3849822E+03  0.7957747E-01  0.3429748E+00
         13   -1    0    0    0    0  0.00000000000E+00  0.00000000000E+00  0.14999999963E+04  0.15000000000E+04  0.10566000000E+00 0.  1.
        994   -1    0    0    0    0 -0.00000000000E+00 -0.00000000000E+00  0.11368683772E-12  0.17120000000E+03  0.17120000000E+03 0.  0.
         13    1    1    2    0    0 -0.55846373325E+01 -0.10047633183E+02  0.40504324873E+02  0.42104092488E+02  0.10566000000E+00 0.  1.
        994    1    1    2    0    0  0.43430338286E+01  0.46234023686E+01  0.17713173859E+01  0.17132663353E+03  0.17120000000E+03 0.  0.
        998    1    1    2    0    0  0.12416035039E+01  0.54242308140E+01  0.14577243540E+04  0.14577692740E+04  0.10000000000E+02 0.  1.
</event>
<event>
 5    1  0.1338054E-008  0.3794932E+03  0.7957747E-01  0.3453368E+00
         13   -1    0    0    0    0  0.00000000000E+00  0.00000000000E+00  0.14999999963E+04  0.15000000000E+04  0.10566000000E+00 0.  1.
        994   -1    0    0    0    0 -0.00000000000E+00 -0.00000000000E+00  0.11368683772E-12  0.17120000000E+03  0.17120000000E+03 0.  0.
         13    1    1    2    0    0  0.10721987341E+02  0.74574736979E-01  0.11344785563E+02  0.15610313816E+02  0.10566000000E+00 0.  1.
        994    1    1    2    0    0 -0.70702872621E+00  0.52787932746E+01  0.44841665268E+01  0.17134151072E+03  0.17120000000E+03 0.  0.
        998    1    1    2    0    0 -0.10014958614E+02 -0.53533680116E+01  0.14841710442E+04  0.14842481755E+04  0.10000000000E+02 0.  1.
</event>
<event>
 5    1  0.1338054E-008  0.3728930E+03  0.7957747E-01  0.3482700E+00
         13   -1    0    0    0    0  0.00000000000E+00  0.00000000000E+00  0.14999999963E+04  0.15000000000E+04  0.10566000000E+00 0. -1.
        994   -1    0    0    0    0 -0.00000000000E+00 -0.00000000000E+00  0.11368683772E-12  0.17120000000E+03  0.17120000000E+03 0.  0.
         13    1    1    2    0    0  0.90835715872E+02  0.66680720759E+02  0.38196002864E+03  0.39823475544E+03  0.10566000000E+00 0. -1.
        994    1    1    2    0    0 -0.14769319112E+03  0.48322810517E+01  0.94168519228E+02  0.24497710027E+03  0.17120000000E+03 0.  0.
        998    1    1    2    0    0  0.56857475253E+02 -0.71513001811E+02  0.10238714484E+04  0.10279881443E+04  0.10000000000E+02 0. -1.
</event>
<event>
 5    1  0.1338054E-008  0.3794585E+03  0.7957747E-01  0.3453520E+00
         13   -1    0    0    0    0  0.00000000000E+00  0.00000000000E+00  0.14999999963E+04  0.15000000000E+04  0.10566000000E+00 0. -1.
        994   -1    0    0    0    0 -0.00000000000E+00 -0.00000000000E+00  0.11368683772E-12  0.17120000000E+03  0.17120000000E+03 0.  0.
         13    1    1    2    0    0  0.26547023762E+02  0.16642829038E+02  0.11673158631E+03  0.12086357034E+03  0.10566000000E+00 0. -1.
        994    1    1    2    0    0 -0.95045051825E+01  0.58064308987E+00  0.47104673067E+01  0.17152930148E+03  0.17120000000E+03 0.  0.
        998    1    1    2    0    0 -0.17042518579E+02 -0.17223472128E+02  0.13785579427E+04  0.13788071282E+04  0.10000000000E+02 0. -1.
</event>
<event>
 5    1  0.1338054E-008  0.3847487E+03  0.7957747E-01  0.3430739E+00
         13   -1    0    0    0    0  0.00000000000E+00  0.00000000000E+00  0.14999999963E+04  0.15000000000E+04  0.10566000000E+00 0. -1.
        994   -1    0    0    0    0 -0.00000000000E+00 -0.00000000000E+00  0.11368683772E-12  0.17120000000E+03  0.17120000000E+03 0.  0.
         13    1    1    2    0    0  0.42106652224E+01 -0.14276681962E+02  0.64665666207E+02  0.66356709529E+02  0.10566000000E+00 0. -1.
        994    1    1    2    0    0 -0.12700725545E+01  0.54088695341E+01  0.18565554906E+01  0.17130019192E+03  0.17120000000E+03 0.  0.
        998    1    1    2    0    0 -0.29405926680E+01  0.88678124280E+01  0.14334777746E+04  0.14335430986E+04  0.10000000000E+02 0. -1.
</event>
<event>
 5    1  0.1338054E-008  0.3699651E+03  0.7957747E-01  0.3496051E+00
         13   -1    0    0    0    0  0.00000000000E+00  0.00000000000E+00  0.14999999963E+04  0.15000000000E+04  0.10566000000E+00 0. -1.
        994   -1    0    0    0    0 -0.00000000000E+00 -0.00000000000E+00  0.11368683772E-12  0.17120000000E+03  0.17120000000E+03 0.  0.
         13    1    1    2    0    0  0.36754333859E+02  0.52223803556E+02  0.24866806982E+03  0.25673727199E+03  0.10566000000E+00 0. -1.
        994    1    1    2    0    0 -0.15073315478E+00 -0.17263755117E+02  0.10318678055E+02  0.17237742044E+03  0.17120000000E+03 0.  0.
        998    1    1    2    0    0 -0.36603600704E+02 -0.34960048440E+02  0.12410132484E+04  0.12420853076E+04  0.10000000000E+02 0. -1.
</event>
<event>
 5    1  0.1338054E-008  0.3815365E+03  0.7957747E-01  0.3444495E+00
         13   -1    0    0    0    0  0.00000000000E+00  0.00000000000E+00  0.14999999963E+04  0.15000000000E+04  0.10566000000E+00 0. -1.
        994   -1    0    0    0    0 -0.00000000000E+00 -0.00000000000E+00  0.11368683772E-12  0.17120000000E+03  0.17120000000E+03 0.  0.
         13    1    1    2    0    0 -0.18702560149E+02  0.39090143454E+01  0.51952974727E+02  0.55355116261E+02  0.10566000000E+00 0. -1.
        994    1    1    2    0    0  0.18189656543E+02 -0.10224285275E+01  0.44642507834E+01  0.17222450029E+03  0.17120000000E+03 0.  0.
        998    1    1    2    0    0  0.51290360600E+00 -0.28865858179E+01  0.14435827708E+04  0.14436203834E+04  0.10000000000E+02 0. -1.
</event>
<event>
 5    1  0.1338054E-008  0.3706372E+03  0.7957747E-01  0.3492968E+00
         13   -1    0    0    0    0  0.00000000000E+00  0.00000000000E+00  0.14999999963E+04  0.15000000000E+04  0.10566000000E+00 0. -1.
        994   -1    0    0    0    0 -0.00000000000E+00 -0.00000000000E+00  0.11368683772E-12  0.17120000000E+03  0.17120000000E+03 0.  0.
         13    1    1    2    0    0 -0.14774799220E+02  0.25067676331E+02  0.45876799757E+02  0.54326558962E+02  0.10566000000E+00 0. -1.
        994    1    1    2    0    0 -0.32511046095E+02 -0.22795527218E+02  0.14395410946E+02  0.17633284446E+03  0.17120000000E+03 0.  0.
        998    1    1    2    0    0  0.47285845314E+02 -0.22721491136E+01  0.14397277856E+04  0.14405405966E+04  0.10000000000E+02 0. -1.
</event>
<event>
 5    1  0.1338054E-008  0.3836744E+03  0.7957747E-01  0.3435314E+00
         13   -1    0    0    0    0  0.00000000000E+00  0.00000000000E+00  0.14999999963E+04  0.15000000000E+04  0.10566000000E+00 0.  1.
        994   -1    0    0    0    0 -0.00000000000E+00 -0.00000000000E+00  0.11368683772E-12  0.17120000000E+03  0.17120000000E+03 0.  0.
         13    1    1    2    0    0  0.30373411033E+02 -0.23497166336E+00  0.17785822171E+03  0.18043324944E+03  0.10566000000E+00 0.  1.
        994    1    1    2    0    0 -0.31725539650E+02 -0.51447087670E+01  0.57089710590E+01  0.17428427997E+03  0.17120000000E+03 0.  0.
        998    1    1    2    0    0  0.13521286169E+01  0.53796804304E+01  0.13164328035E+04  0.13164824706E+04  0.10000000000E+02 0.  1.
</event>
<event>
 5    1  0.1338054E-008  0.4102434E+03  0.7957747E-01  0.3329194E+00
         13   -1    0    0    0    0  0.00000000000E+00  0.00000000000E+00  0.14999999963E+04  0.15000000000E+04  0.10566000000E+00 0. -1.
        994   -1    0    0    0    0 -0.00000000000E+00 -0.00000000000E+00  0.11368683772E-12  0.17120000000E+03  0.17120000000E+03 0.  0.
         13    1    1    2    0    0  0.12179002921E+03  0.46652152847E+02  0.44905885267E+03  0.46761426294E+03  0.10566000000E+00 0. -1.
        994    1    1    2    0    0  0.46027652840E+02 -0.48972035121E+02  0.52750491993E+02  0.19133441785E+03  0.17120000000E+03 0.  0.
        998    1    1    2    0    0 -0.16781768205E+03  0.23198822735E+01  0.99819065162E+03  0.10122513192E+04  0.10000000000E+02 0. -1.
</event>
<event>
 5    1  0.1338054E-008  0.3749013E+03  0.7957747E-01  0.3473665E+00
         13   -1    0    0    0    0  0.00000000000E+00  0.00000000000E+00  0.14999999963E+04  0.15000000000E+04  0.10566000000E+00 0.  1.
        994   -1    0    0    0    0 -0.00000000000E+00 -0.00000000000E+00  0.11368683772E-12  0.17120000000E+03  0.17120000000E+03 0.  0.
         13    1    1    2    0    0 -0.30952583201E+02  0.74613763812E+02  0.22424711015E+03  0.23835279258E+03  0.10566000000E+00 0.  1.
        994    1    1    2    0    0 -0.37864811158E+02 -0.82633161914E+02  0.43560341730E+02  0.19866788050E+03  0.17120000000E+03 0.  0.
        998    1    1    2    0    0  0.68817394359E+02  0.80193981025E+01  0.12321925444E+04  0.12341793269E+04  0.10000000000E+02 0.  1.
</event>
<event>
 5    1  0.1338054E-008  0.3759805E+03  0.7957747E-01  0.3468849E+00
         13   -1    0    0    0    0  0.00000000000E+00  0.00000000000E+00  0.14999999963E+04  0.15000000000E+04  0.10566000000E+00 0.  1.
        994   -1    0    0    0    0 -0.00000000000E+00 -0.00000000000E+00  0.11368683772E-12  0.17120000000E+03  0.17120000000E+03 0.  0.
         13    1    1    2    0    0  0.47497697335E+02  0.36289253985E+02  0.24522651308E+03  0.25240640858E+03  0.10566000000E+00 0.  1.
        994    1    1    2    0    0 -0.49765754749E+02 -0.29726266806E+02  0.17646879922E+02  0.18160708592E+03  0.17120000000E+03 0.  0.
        998    1    1    2    0    0  0.22680574133E+01 -0.65629871791E+01  0.12371266033E+04  0.12371865055E+04  0.10000000000E+02 0.  1.
</event>
<event>
 5    1  0.1338054E-008  0.3806241E+03  0.7957747E-01  0.3448445E+00
         13   -1    0    0    0    0  0.00000000000E+00  0.00000000000E+00  0.14999999963E+04  0.15000000000E+04  0.10566000000E+00 0. -1.
        994   -1    0    0    0    0 -0.00000000000E+00 -0.00000000000E+00  0.11368683772E-12  0.17120000000E+03  0.17120000000E+03 0.  0.
         13    1    1    2    0    0 -0.12316716095E+02 -0.13758673164E+02  0.44613487745E+02  0.48284335300E+02  0.10566000000E+00 0. -1.
        994    1    1    2    0    0  0.50972419882E+01  0.39141116648E+00  0.39056300129E+01  0.17132083652E+03  0.17120000000E+03 0.  0.
        998    1    1    2    0    0  0.72194741064E+01  0.13367261997E+02  0.14514808785E+04  0.14515948282E+04  0.10000000000E+02 0. -1.
</event>
<event>
 5    1  0.1338054E-008  0.3848748E+03  0.7957747E-01  0.3430203E+00
         13   -1    0    0    0    0  0.00000000000E+00  0.00000000000E+00  0.14999999963E+04  0.15000000000E+04  0.10566000000E+00 0.  1.
        994   -1    0    0    0    0 -0.00000000000E+00 -0.00000000000E+00  0.11368683772E-12  0.17120000000E+03  0.17120000000E+03 0.  0.
         13    1    1    2    0    0  0.64649008816E+01 -0.12312727349E+02  0.64044250325E+02  0.65536824472E+02  0.10566000000E+00 0.  1.
        994    1    1    2    0    0  0.15763079463E+02 -0.17511152034E+01  0.25203021252E+01  0.17195154260E+03  0.17120000000E+03 0.  0.
        998    1    1    2    0    0 -0.22227980345E+02  0.14063842553E+02  0.14334354438E+04  0.14337116329E+04  0.10000000000E+02 0.  1.
</event>
<event>
 5    1  0.1338054E-008  0.3795979E+03  0.7957747E-01  0.3452911E+00
         13   -1    0    0    0    0  0.00000000000E+00  0.00000000000E+00  0.14999999963E+04  0.15000000000E+04  0.10566000000E+00 0. -1.
        994   -1    0    0    0    0 -0.00000000000E+00 -0.00000000000E+00  0.11368683772E-12  0.17120000000E+03  0.17120000000E+03 0.  0.
         13    1    1    2    0    0  0.21846015915E+02  0.11277832589E+01  0.51128974434E+02  0.55612080496E+02  0.10566000000E+00 0. -1.
        994    1    1    2    0    0 -0.26649426822E+02 -0.12171282939E+01  0.67221427401E+01  0.17339636834E+03  0.17120000000E+03 0.  0.
        998    1    1    2    0    0  0.48034109065E+01  0.89345035006E-01  0.14421488791E+04  0.14421915512E+04  0.10000000000E+02 0. -1.
</event>
<event>
 5    1  0.1338054E-008  0.3697794E+03  0.7957747E-01  0.3496906E+00
         13   -1    0    0    0    0  0.00000000000E+00  0.00000000000E+00  0.14999999963E+04  0.15000000000E+04  0.10566000000E+00 0. -1.
        994   -1    0    0    0    0 -0.00000000000E+00 -0.00000000000E+00  0.11368683772E-12  0.17120000000E+03  0.17120000000E+03 0.  0.
         13    1    1    2    0    0  0.73154446507E+02 -0.28552938126E+02  0.40529464950E+03  0.41283242048E+03  0.10566000000E+00 0. -1.
        994    1    1    2    0    0 -0.20143888955E+02 -0.62640705585E+00  0.10791143715E+02  0.17271959191E+03  0.17120000000E+03 0.  0.
        998    1    1    2    0    0 -0.53010557552E+02  0.29179345182E+02  0.10839142031E+04  0.10856479876E+04  0.10000000000E+02 0. -1.
</event>
<event>
 5    1  0.1338054E-008  0.3853410E+03  0.7957747E-01  0.3428227E+00
         13   -1    0    0    0    0  0.00000000000E+00  0.00000000000E+00  0.14999999963E+04  0.15000000000E+04  0.10566000000E+00 0. -1.
        994   -1    0    0    0    0 -0.00000000000E+00 -0.00000000000E+00  0.11368683772E-12  0.17120000000E+03  0.17120000000E+03 0.  0.
         13    1    1    2    0    0 -0.14112184487E+02 -0.69593964204E+01  0.76244357630E+02  0.77851141186E+02  0.10566000000E+00 0. -1.
        994    1    1    2    0    0  0.13779921070E+02  0.31716591326E+02  0.53991202412E+01  0.17474100517E+03  0.17120000000E+03 0.  0.
        998    1    1    2    0    0  0.33226341652E+00 -0.24757194905E+02  0.14183565184E+04  0.14186078536E+04  0.10000000000E+02 0. -1.
</event>
<event>
 5    1  0.1338054E-008  0.3861762E+03  0.7957747E-01  0.3424699E+00
         13   -1    0    0    0    0  0.00000000000E+00  0.00000000000E+00  0.14999999963E+04  0.15000000000E+04  0.10566000000E+00 0. -1.
        994   -1    0    0    0    0 -0.00000000000E+00 -0.00000000000E+00  0.11368683772E-12  0.17120000000E+03  0.17120000000E+03 0.  0.
         13    1    1    2    0    0 -0.44476237428E+01  0.12205217126E+02  0.72285737246E+02  0.73443772066E+02  0.10566000000E+00 0. -1.
        994    1    1    2    0    0 -0.67306527529E+01 -0.28222700026E+02  0.38100881669E+01  0.17368298493E+03  0.17120000000E+03 0.  0.
        998    1    1    2    0    0  0.11178276496E+02  0.16017482900E+02  0.14239041709E+04  0.14240732430E+04  0.10000000000E+02 0. -1.
</event>
<event>
 5    1  0.1338054E-008  0.3738426E+03  0.7957747E-01  0.3478415E+00
         13   -1    0    0    0    0  0.00000000000E+00  0.00000000000E+00  0.14999999963E+04  0.15000000000E+04  0.10566000000E+00 0.  1.
        994   -1    0    0    0    0 -0.00000000000E+00 -0.00000000000E+00  0.11368683772E-12  0.17120000000E+03  0.17120000000E+03 0.  0.
         13    1    1    2    0    0 -0.32663339748E+02  0.10231370491E+02  0.41185577778E+02  0.53552195908E+02  0.10566000000E+00 0.  1.
        994    1    1    2    0    0  0.11688903296E+02 -0.64595785517E+01  0.13617529177E+02  0.17225920503E+03  0.17120000000E+03 0.  0.
        998    1    1    2    0    0  0.20974436452E+02 -0.37717919393E+01  0.14451968893E+04  0.14453885991E+04  0.10000000000E+02 0.  1.
</event>
<event>
 5    1  0.1338054E-008  0.3817111E+03  0.7957747E-01  0.3443742E+00
         13   -1    0    0    0    0  0.00000000000E+00  0.00000000000E+00  0.14999999963E+04  0.15000000000E+04  0.10566000000E+00 0. -1.
        994   -1    0    0    0    0 -0.00000000000E+00 -0.00000000000E+00  0.11368683772E-12  0.17120000000E+03  0.17120000000E+03 0.  0.
         13    1    1    2    0    0 -0.18171216537E+02  0.18715930367E+02  0.98700399368E+02  0.10208946645E+03  0.10566000000E+00 0. -1.
        994    1    1    2    0    0  0.14740849495E+02 -0.18322160996E+02  0.51122531983E+01  0.17288310895E+03  0.17120000000E+03 0.  0.
        998    1    1    2    0    0  0.34303670415E+01 -0.39376937063E+00  0.13961873437E+04  0.13962274246E+04  0.10000000000E+02 0. -1.
</event>
<event>
 5    1  0.1338054E-008  0.3846014E+03  0.7957747E-01  0.3431365E+00
         13   -1    0    0    0    0  0.00000000000E+00  0.00000000000E+00  0.14999999963E+04  0.15000000000E+04  0.10566000000E+00 0.  1.
        994   -1    0    0    0    0 -0.00000000000E+00 -0.00000000000E+00  0.11368683772E-12  0.17120000000E+03  0.17120000000E+03 0.  0.
         13    1    1    2    0    0  0.61863867862E+01  0.16805147502E+02  0.85902586949E+02  0.87749358815E+02  0.10566000000E+00 0.  1.
        994    1    1    2    0    0 -0.56619170445E+01 -0.13099384959E+02  0.24990721016E+01  0.17181192203E+03  0.17120000000E+03 0.  0.
        998    1    1    2    0    0 -0.52446974170E+00 -0.37057625425E+01  0.14115983372E+04  0.14116387192E+04  0.10000000000E+02 0.  1.
</event>
<event>
 5    1  0.1338054E-008  0.3811601E+03  0.7957747E-01  0.3446122E+00
         13   -1    0    0    0    0  0.00000000000E+00  0.00000000000E+00  0.14999999963E+04  0.15000000000E+04  0.10566000000E+00 0. -1.
        994   -1    0    0    0    0 -0.00000000000E+00 -0.00000000000E+00  0.11368683772E-12  0.17120000000E+03  0.17120000000E+03 0.  0.
         13    1    1    2    0    0  0.35441292259E+02  0.11480833885E+02  0.16874459375E+03  0.17280811274E+03  0.10566000000E+00 0. -1.
        994    1    1    2    0    0 -0.38925233860E+02 -0.15372591317E+02  0.94034603164E+01  0.17649179998E+03  0.17120000000E+03 0.  0.
        998    1    1    2    0    0  0.34839416012E+01  0.38917574312E+01  0.13218519422E+04  0.13219000873E+04  0.10000000000E+02 0. -1.
</event>
<event>
 5    1  0.1338054E-008  0.3802933E+03  0.7957747E-01  0.3449882E+00
         13   -1    0    0    0    0  0.00000000000E+00  0.00000000000E+00  0.14999999963E+04  0.15000000000E+04  0.10566000000E+00 0.  1.
        994   -1    0    0    0    0 -0.00000000000E+00 -0.00000000000E+00  0.11368683772E-12  0.17120000000E+03  0.17120000000E+03 0.  0.
         13    1    1    2    0    0  0.25985662852E+02  0.68801335083E+01  0.89695813925E+02  0.93637284831E+02  0.10566000000E+00 0.  1.
        994    1    1    2    0    0 -0.19717588047E+02  0.12638788401E+02  0.58192002608E+01  0.17289252541E+03  0.17120000000E+03 0.  0.
        998    1    1    2    0    0 -0.62680748044E+01 -0.19518921910E+02  0.14044849821E+04  0.14046701898E+04  0.10000000000E+02 0.  1.
</event>
<event>
 5    1  0.1338054E-008  0.3845082E+03  0.7957747E-01  0.3431761E+00
         13   -1    0    0    0    0  0.00000000000E+00  0.00000000000E+00  0.14999999963E+04  0.15000000000E+04  0.10566000000E+00 0. -1.
        994   -1    0    0    0    0 -0.00000000000E+00 -0.00000000000E+00  0.11368683772E-12  0.17120000000E+03  0.17120000000E+03 0.  0.
         13    1    1    2    0    0  0.87327000116E+01 -0.80870749920E+01  0.37396962993E+02  0.39245443513E+02  0.10566000000E+00 0. -1.
        994    1    1    2    0    0 -0.56656587646E+01  0.60366042241E+01  0.21002977885E+01  0.17141292696E+03  0.17120000000E+03 0.  0.
        998    1    1    2    0    0 -0.30670412470E+01  0.20504707679E+01  0.14605027355E+04  0.14605416295E+04  0.10000000000E+02 0. -1.
</event>
<event>
 5    1  0.1338054E-008  0.3787527E+03  0.7957747E-01  0.3456608E+00
         13   -1    0    0    0    0  0.00000000000E+00  0.00000000000E+00  0.14999999963E+04  0.15000000000E+04  0.10566000000E+00 0.  1.
        994   -1    0    0    0    0 -0.00000000000E+00 -0.00000000000E+00  0.11368683772E-12  0.17120000000E+03  0.17120000000E+03 0.  0.
         13    1    1    2    0    0  0.11923825036E+02  0.51190878964E+02  0.78633393434E+02  0.94582796637E+02  0.10566000000E+00 0.  1.
        994    1    1    2    0    0 -0.20809476503E+02 -0.49782580847E+02  0.26220707535E+02  0.18140646397E+03  0.17120000000E+03 0.  0.
        998    1    1    2    0    0  0.88856514671E+01 -0.14082981168E+01  0.13951458953E+04  0.13952107394E+04  0.10000000000E+02 0.  1.
</event>
<event>
 5    1  0.1338054E-008  0.3799129E+03  0.7957747E-01  0.3451538E+00
         13   -1    0    0    0    0  0.00000000000E+00  0.00000000000E+00  0.14999999963E+04  0.15000000000E+04  0.10566000000E+00 0.  1.
        994   -1    0    0    0    0 -0.00000000000E+00 -0.00000000000E+00  0.11368683772E-12  0.17120000000E+03  0.17120000000E+03 0.  0.
         13    1    1    2    0    0  0.79310990600E+01 -0.14702522083E+02  0.31395981520E+02  0.35563820205E+02  0.10566000000E+00 0.  1.
        994    1    1    2    0    0 -0.85217026930E+01  0.12417121384E+02  0.49358830668E+01  0.17193198441E+03  0.17120000000E+03 0.  0.
        998    1    1    2    0    0  0.59060363302E+00  0.22854006998E+01  0.14636681317E+04  0.14637041954E+04  0.10000000000E+02 0.  1.
</event>
<event>
 5    1  0.1338054E-008  0.3850810E+03  0.7957747E-01  0.3429329E+00
         13   -1    0    0    0    0  0.00000000000E+00  0.00000000000E+00  0.14999999963E+04  0.15000000000E+04  0.10566000000E+00 0. -1.
        994   -1    0    0    0    0 -0.00000000000E+00 -0.00000000000E+00  0.11368683772E-12  0.17120000000E+03  0.17120000000E+03 0.  0.
         13    1    1    2    0    0  0.20618680357E+00 -0.15607530851E+02  0.78798282475E+02  0.80329434314E+02  0.10566000000E+00 0. -1.
        994    1    1    2    0    0 -0.50685957605E+01  0.63586298542E+01  0.18073706195E+01  0.17140253623E+03  0.17120000000E+03 0.  0.
        998    1    1    2    0    0  0.48624089570E+01  0.92489009966E+01  0.14193943432E+04  0.14194680295E+04  0.10000000000E+02 0. -1.
</event>
<event>
 5    1  0.1338054E-008  0.3767105E+03  0.7957747E-01  0.3465608E+00
         13   -1    0    0    0    0  0.00000000000E+00  0.00000000000E+00  0.14999999963E+04  0.15000000000E+04  0.10566000000E+00 0. -1.
        994   -1    0    0    0    0 -0.00000000000E+00 -0.00000000000E+00  0.11368683772E-12  0.17120000000E+03  0.17120000000E+03 0.  0.
         13    1    1    2    0    0 -0.17107104463E+02  0.53603804825E+01  0.25243449487E+02  0.30961744267E+02  0.10566000000E+00 0. -1.
        994    1    1    2    0    0  0.11819767198E+02 -0.50570566088E+01  0.63617538825E+01  0.17179986214E+03  0.17120000000E+03 0.  0.
        998    1    1    2    0    0  0.52873372648E+01 -0.30332387370E+00  0.14683947929E+04  0.14684383936E+04  0.10000000000E+02 0. -1.
</event>
<event>
 5    1  0.1338054E-008  0.3829229E+03  0.7957747E-01  0.3438529E+00
         13   -1    0    0    0    0  0.00000000000E+00  0.00000000000E+00  0.14999999963E+04  0.15000000000E+04  0.10566000000E+00 0. -1.
        994   -1    0    0    0    0 -0.00000000000E+00 -0.00000000000E+00  0.11368683772E-12  0.17120000000E+03  0.17120000000E+03 0.  0.
         13    1    1    2    0    0 -0.24208487194E+02  0.70738756923E+01  0.11423498137E+03  0.11698603636E+03  0.10566000000E+00 0. -1.
        994    1    1    2    0    0  0.16612670735E+02 -0.18802599205E+02  0.47519666708E+01  0.17309401998E+03  0.17120000000E+03 0.  0.
        998    1    1    2    0    0  0.75958164592E+01  0.11728723513E+02  0.13810130482E+04  0.13811199437E+04  0.10000000000E+02 0. -1.
</event>
<event>
 5    1  0.1338054E-008  0.3813795E+03  0.7957747E-01  0.3445174E+00
         13   -1    0    0    0    0  0.00000000000E+00  0.00000000000E+00  0.14999999963E+04  0.15000000000E+04  0.10566000000E+00 0.  1.
        994   -1    0    0    0    0 -0.00000000000E+00 -0.00000000000E+00  0.11368683772E-12  0.17120000000E+03  0.17120000000E+03 0.  0.
         13    1    1    2    0    0 -0.15997928595E+02 -0.15568360074E+02  0.73662498443E+02  0.76970659316E+02  0.10566000000E+00 0.  1.
        994    1    1    2    0    0  0.52848044198E+01  0.50878211718E+01  0.36175127793E+01  0.17139527847E+03  0.17120000000E+03 0.  0.
        998    1    1    2    0    0  0.10713124175E+02  0.10480538902E+02  0.14227199851E+04  0.14228340622E+04  0.10000000000E+02 0.  1.
</event>
<event>
 5    1  0.1338054E-008  0.3853326E+03  0.7957747E-01  0.3428263E+00
         13   -1    0    0    0    0  0.00000000000E+00  0.00000000000E+00  0.14999999963E+04  0.15000000000E+04  0.10566000000E+00 0. -1.
        994   -1    0    0    0    0 -0.00000000000E+00 -0.00000000000E+00  0.11368683772E-12  0.17120000000E+03  0.17120000000E+03 0.  0.
         13    1    1    2    0    0  0.10204945078E+02 -0.10590250402E+02  0.84043504938E+02  0.85320666863E+02  0.10566000000E+00 0. -1.
        994    1    1    2    0    0  0.94445440936E+01 -0.23170966389E-01  0.17581636024E+01  0.17146932988E+03  0.17120000000E+03 0.  0.
        998    1    1    2    0    0 -0.19649489171E+02  0.10613421369E+02  0.14141983277E+04  0.14144100033E+04  0.10000000000E+02 0. -1.
</event>
<event>
 5    1  0.1338054E-008  0.3799726E+03  0.7957747E-01  0.3451278E+00
         13   -1    0    0    0    0  0.00000000000E+00  0.00000000000E+00  0.14999999963E+04  0.15000000000E+04  0.10566000000E+00 0.  1.
        994   -1    0    0    0    0 -0.00000000000E+00 -0.00000000000E+00  0.11368683772E-12  0.17120000000E+03  0.17120000000E+03 0.  0.
         13    1    1    2    0    0 -0.58701570216E+02  0.70551936927E+02  0.21764412503E+03  0.23620420503E+03  0.10566000000E+00 0.  1.
        994    1    1    2    0    0  0.55790658163E+02 -0.70559984696E+02  0.46250199590E+02  0.19884624699E+03  0.17120000000E+03 0.  0.
        998    1    1    2    0    0  0.29109120532E+01  0.80477694995E-02  0.12361056717E+04  0.12361495480E+04  0.10000000000E+02 0.  1.
</event>
<event>
 5    1  0.1338054E-008  0.3848535E+03  0.7957747E-01  0.3430294E+00
         13   -1    0    0    0    0  0.00000000000E+00  0.00000000000E+00  0.14999999963E+04  0.15000000000E+04  0.10566000000E+00 0. -1.
        994   -1    0    0    0    0 -0.00000000000E+00 -0.00000000000E+00  0.11368683772E-12  0.17120000000E+03  0.17120000000E+03 0.  0.
         13    1    1    2    0    0  0.11880960581E+02 -0.29476803783E+00  0.39658908104E+02  0.41401500801E+02  0.10566000000E+00 0. -1.
        994    1    1    2    0    0 -0.16265282613E+02 -0.63298120397E+00  0.25751460412E+01  0.17199137031E+03  0.17120000000E+03 0.  0.
        998    1    1    2    0    0  0.43843220323E+01  0.92774924179E+00  0.14577659421E+04  0.14578071289E+04  0.10000000000E+02 0. -1.
</event>
<event>
 5    1  0.1338054E-008  0.3810067E+03  0.7957747E-01  0.3446787E+00
         13   -1    0    0    0    0  0.00000000000E+00  0.00000000000E+00  0.14999999963E+04  0.15000000000E+04  0.10566000000E+00 0. -1.
        994   -1    0    0    0    0 -0.00000000000E+00 -0.00000000000E+00  0.11368683772E-12  0.17120000000E+03  0.17120000000E+03 0.  0.
         13    1    1    2    0    0  0.51618075397E+02  0.12323122607E+02  0.29855046557E+03  0.30323040203E+03  0.10566000000E+00 0. -1.
        994    1    1    2    0    0 -0.56397358540E+02 -0.12152727131E+02  0.14795901644E+02  0.18126419815E+03  0.17120000000E+03 0.  0.
        998    1    1    2    0    0  0.47792831426E+01 -0.17039547591E+00  0.11866536291E+04  0.11867053998E+04  0.10000000000E+02 0. -1.
</event>
<event>
 5    1  0.1338054E-008  0.3833090E+03  0.7957747E-01  0.3436876E+00
         13   -1    0    0    0    0  0.00000000000E+00  0.00000000000E+00  0.14999999963E+04  0.15000000000E+04  0.10566000000E+00 0. -1.
        994   -1    0    0    0    0 -0.00000000000E+00 -0.00000000000E+00  0.11368683772E-12  0.17120000000E+03  0.17120000000E+03 0.  0.
         13    1    1    2    0    0 -0.23018289411E+02 -0.65748492558E+01  0.11371365742E+03  0.11620618460E+03  0.10566000000E+00 0. -1.
        994    1    1    2    0    0  0.14730739822E+02  0.91011924841E+01  0.34641210759E+01  0.17210829886E+03  0.17120000000E+03 0.  0.
        998    1    1    2    0    0  0.82875495896E+01 -0.25263432283E+01  0.13828222178E+04  0.13828855165E+04  0.10000000000E+02 0. -1.
</event>
<event>
 5    1  0.1338054E-008  0.3755956E+03  0.7957747E-01  0.3470563E+00
         13   -1    0    0    0    0  0.00000000000E+00  0.00000000000E+00  0.14999999963E+04  0.15000000000E+04  0.10566000000E+00 0. -1.
        994   -1    0    0    0    0 -0.00000000000E+00 -0.00000000000E+00  0.11368683772E-12  0.17120000000E+03  0.17120000000E+03 0.  0.
         13    1    1    2    0    0 -0.36326824410E+02  0.50660592239E+02  0.15625763074E+03  0.16823374248E+03  0.10566000000E+00 0. -1.
        994    1    1    2    0    0 -0.56342611762E+02 -0.45274698627E+02  0.32801756941E+02  0.18870528211E+03  0.17120000000E+03 0.  0.
        998    1    1    2    0    0  0.92669436172E+02 -0.53858936114E+01  0.13109406086E+04  0.13142609754E+04  0.10000000000E+02 0. -1.
</event>
<event>
 5    1  0.1338054E-008  0.3802676E+03  0.7957747E-01  0.3449994E+00
         13   -1    0    0    0    0  0.00000000000E+00  0.00000000000E+00  0.14999999963E+04  0.15000000000E+04  0.10566000000E+00 0.  1.
        994   -1    0    0    0    0 -0.00000000000E+00 -0.00000000000E+00  0.11368683772E-12  0.17120000000E+03  0.17120000000E+03 0.  0.
         13    1    1    2    0    0 -0.59310313418E+01  0.18677649901E+02  0.45436673987E+02  0.49482666113E+02  0.10566000000E+00 0.  1.
        994    1    1    2    0    0  0.99193937810E+01 -0.17223470079E+02  0.53186352796E+01  0.17243192911E+03  0.17120000000E+03 0.  0.
        998    1    1    2    0    0 -0.39883624392E+01 -0.14541798220E+01  0.14492446870E+04  0.14492854048E+04  0.10000000000E+02 0.  1.
</event>
<event>
 5    1  0.1338054E-008  0.3840003E+03  0.7957747E-01  0.3433923E+00
         13   -1    0    0    0    0  0.00000000000E+00  0.00000000000E+00  0.14999999963E+04  0.15000000000E+04  0.10566000000E+00 0. -1.
        994   -1    0    0    0    0 -0.00000000000E+00 -0.00000000000E+00  0.11368683772E-12  0.17120000000E+03  0.17120000000E+03 0.  0.
         13    1    1    2    0    0 -0.36790505880E+01  0.99442880016E+01  0.26391032610E+02  0.28441554869E+02  0.10566000000E+00 0. -1.
        994    1    1    2    0    0  0.63234022404E+01  0.10503642997E+01  0.22628577258E+01  0.17133490364E+03  0.17120000000E+03 0.  0.
        998    1    1    2    0    0 -0.26443516524E+01 -0.10994652301E+02  0.14713461059E+04  0.14714235415E+04  0.10000000000E+02 0. -1.
</event>
<event>
 5    1  0.1338054E-008  0.3767457E+03  0.7957747E-01  0.3465452E+00
         13   -1    0    0    0    0  0.00000000000E+00  0.00000000000E+00  0.14999999963E+04  0.15000000000E+04  0.10566000000E+00 0. -1.
        994   -1    0    0    0    0 -0.00000000000E+00 -0.00000000000E+00  0.11368683772E-12  0.17120000000E+03  0.17120000000E+03 0.  0.
         13    1    1    2    0    0 -0.20605452502E+01  0.56283978867E+02  0.23810256966E+03  0.24467320443E+03  0.10566000000E+00 0. -1.
        994    1    1    2    0    0 -0.46789215333E+00 -0.51788376352E+02  0.14903447124E+02  0.17948205366E+03  0.17120000000E+03 0.  0.
        998    1    1    2    0    0  0.25284374035E+01 -0.44956025143E+01  0.12469939795E+04  0.12470447419E+04  0.10000000000E+02 0. -1.
</event>
<event>
 5    1  0.1338054E-008  0.3857407E+03  0.7957747E-01  0.3426537E+00
         13   -1    0    0    0    0  0.00000000000E+00  0.00000000000E+00  0.14999999963E+04  0.15000000000E+04  0.10566000000E+00 0.  1.
        994   -1    0    0    0    0 -0.00000000000E+00 -0.00000000000E+00  0.11368683772E-12  0.17120000000E+03  0.17120000000E+03 0.  0.
         13    1    1    2    0    0  0.11331032858E+02  0.46851185995E+01  0.59252611792E+02  0.60508064009E+02  0.10566000000E+00 0.  1.
        994    1    1    2    0    0 -0.90889537324E+01 -0.42507344978E+01  0.15931865649E+01  0.17150118387E+03  0.17120000000E+03 0.  0.
        998    1    1    2    0    0 -0.22420791257E+01 -0.43438410175E+00  0.14391541979E+04  0.14391907521E+04  0.10000000000E+02 0.  1.
</event>
<event>
 5    1  0.1338054E-008  0.3767056E+03  0.7957747E-01  0.3465630E+00
         13   -1    0    0    0    0  0.00000000000E+00  0.00000000000E+00  0.14999999963E+04  0.15000000000E+04  0.10566000000E+00 0. -1.
        994   -1    0    0    0    0 -0.00000000000E+00 -0.00000000000E+00  0.11368683772E-12  0.17120000000E+03  0.17120000000E+03 0.  0.
         13    1    1    2    0    0  0.37473996681E+02  0.23874388797E+02  0.16156311486E+03  0.16756174419E+03  0.10566000000E+00 0. -1.
        994    1    1    2    0    0 -0.33018210537E+02 -0.97666995879E+01  0.98229445325E+01  0.17490431924E+03  0.17120000000E+03 0.  0.
        998    1    1    2    0    0 -0.44557861446E+01 -0.14107689209E+02  0.13286139369E+04  0.13287339366E+04  0.10000000000E+02 0. -1.
</event>
<event>
 5    1  0.1338054E-008  0.3860945E+03  0.7957747E-01  0.3425044E+00
         13   -1    0    0    0    0  0.00000000000E+00  0.00000000000E+00  0.14999999963E+04  0.15000000000E+04  0.10566000000E+00 0.  1.
        994   -1    0    0    0    0 -0.00000000000E+00 -0.00000000000E+00  0.11368683772E-12  0.17120000000E+03  0.17120000000E+03 0.  0.
         13    1    1    2    0    0 -0.71310779419E+01 -0.10283700577E+02  0.68519291441E+02  0.69652790567E+02  0.10566000000E+00 0.  1.
        994    1    1    2    0    0  0.92405966652E+01  0.13423245209E+02  0.19584977944E+01  0.17198502217E+03  0.17120000000E+03 0.  0.
        998    1    1    2    0    0 -0.21095187233E+01 -0.31395446316E+01  0.14295222070E+04  0.14295621873E+04  0.10000000000E+02 0.  1.
</event>
<event>
 5    1  0.1338054E-008  0.3780177E+03  0.7957747E-01  0.3459836E+00
         13   -1    0    0    0    0  0.00000000000E+00  0.00000000000E+00  0.14999999963E+04  0.15000000000E+04  0.10566000000E+00 0.  1.
        994   -1    0    0    0    0 -0.00000000000E+00 -0.00000000000E+00  0.11368683772E-12  0.17120000000E+03  0.17120000000E+03 0.  0.
         13    1    1    2    0    0  0.15343354947E+02 -0.12654406560E+01  0.21635655571E+02  0.26554333678E+02  0.10566000000E+00 0.  1.
        994    1    1    2    0    0  0.31528900505E+01  0.64332882856E+01  0.53098909596E+01  0.17143209401E+03  0.17120000000E+03 0.  0.
        998    1    1    2    0    0 -0.18496244997E+02 -0.51678476296E+01  0.14730544497E+04  0.14732135723E+04  0.10000000000E+02 0.  1.
</event>
<event>
 5    1  0.1338054E-008  0.3841543E+03  0.7957747E-01  0.3433267E+00
         13   -1    0    0    0    0  0.00000000000E+00  0.00000000000E+00  0.14999999963E+04  0.15000000000E+04  0.10566000000E+00 0.  1.
        994   -1    0    0    0    0 -0.00000000000E+00 -0.00000000000E+00  0.11368683772E-12  0.17120000000E+03  0.17120000000E+03 0.  0.
         13    1    1    2    0    0 -0.28192568154E+01  0.23972043025E+02  0.14172177585E+03  0.14376258195E+03  0.10566000000E+00 0.  1.
        994    1    1    2    0    0 -0.39444118782E+01 -0.15277992016E+02  0.28720458914E+01  0.17194959748E+03  0.17120000000E+03 0.  0.
        998    1    1    2    0    0  0.67636686937E+01 -0.86940510086E+01  0.13554061745E+04  0.13554878206E+04  0.10000000000E+02 0.  1.
</event>
<event>
 5    1  0.1338054E-008  0.3802024E+03  0.7957747E-01  0.3450278E+00
         13   -1    0    0    0    0  0.00000000000E+00  0.00000000000E+00  0.14999999963E+04  0.15000000000E+04  0.10566000000E+00 0.  1.
        994   -1    0    0    0    0 -0.00000000000E+00 -0.00000000000E+00  0.11368683772E-12  0.17120000000E+03  0.17120000000E+03 0.  0.
         13    1    1    2    0    0 -0.42237524763E+02 -0.33164869455E+02  0.26898936039E+03  0.27429765626E+03  0.10566000000E+00 0.  1.
        994    1    1    2    0    0  0.55330961857E+02  0.33139854164E+02  0.18054839168E+02  0.18383466075E+03  0.17120000000E+03 0.  0.
        998    1    1    2    0    0 -0.13093437094E+02  0.25015290697E-01  0.12129557967E+04  0.12130676830E+04  0.10000000000E+02 0.  1.
</event>
<event>
 5    1  0.1338054E-008  0.3719299E+03  0.7957747E-01  0.3487068E+00
         13   -1    0    0    0    0  0.00000000000E+00  0.00000000000E+00  0.14999999963E+04  0.15000000000E+04  0.10566000000E+00 0.  1.
        994   -1    0    0    0    0 -0.00000000000E+00 -0.00000000000E+00  0.11368683772E-12  0.17120000000E+03  0.17120000000E+03 0.  0.
         13    1    1    2    0    0  0.11216217736E+02 -0.16452435444E+02  0.11127807970E+02  0.22810643274E+02  0.10566000000E+00 0.  1.
        994    1    1    2    0    0 -0.15790041377E+02  0.15656872131E+02  0.13705256908E+02  0.17318122623E+03  0.17120000000E+03 0.  0.
        998    1    1    2    0    0  0.45738236412E+01  0.79556331232E+00  0.14751669314E+04  0.14752081305E+04  0.10000000000E+02 0.  1.
</event>
<event>
 5    1  0.1338054E-008  0.3855132E+03  0.7957747E-01  0.3427498E+00
         13   -1    0    0    0    0  0.00000000000E+00  0.00000000000E+00  0.14999999963E+04  0.15000000000E+04  0.10566000000E+00 0.  1.
        994   -1    0    0    0    0 -0.00000000000E+00 -0.00000000000E+00  0.11368683772E-12  0.17120000000E+03  0.17120000000E+03 0.  0.
         13    1    1    2    0    0 -0.10323257601E+02 -0.10339759718E+02  0.74247483639E+02  0.75671528789E+02  0.10566000000E+00 0.  1.
        994    1    1    2    0    0  0.87692100511E+01  0.14417579402E+02  0.23110438247E+01  0.17204518757E+03  0.17120000000E+03 0.  0.
        998    1    1    2    0    0  0.15540475494E+01 -0.40778196831E+01  0.14234414688E+04  0.14234832836E+04  0.10000000000E+02 0.  1.
</event>
<event>
 5    1  0.1338054E-008  0.3839137E+03  0.7957747E-01  0.3434292E+00
         13   -1    0    0    0    0  0.00000000000E+00  0.00000000000E+00  0.14999999963E+04  0.15000000000E+04  0.10566000000E+00 0.  1.
        994   -1    0    0    0    0 -0.00000000000E+00 -0.00000000000E+00  0.11368683772E-12  0.17120000000E+03  0.17120000000E+03 0.  0.
         13    1    1    2    0    0  0.11961217678E+02  0.22067449527E+01  0.33104887418E+02  0.35268756522E+02  0.10566000000E+00 0.  1.
        994    1    1    2    0    0 -0.10415229736E+02 -0.47806569480E+01  0.26039810502E+01  0.17160289161E+03  0.17120000000E+03 0.  0.
        998    1    1    2    0    0 -0.15459879421E+01  0.25739119953E+01  0.14642911278E+04  0.14643283519E+04  0.10000000000E+02 0.  1.
</event>
<event>
 5    1  0.1338054E-008  0.3842811E+03  0.7957747E-01  0.3432727E+00
         13   -1    0    0    0    0  0.00000000000E+00  0.00000000000E+00  0.14999999963E+04  0.15000000000E+04  0.10566000000E+00 0. -1.
        994   -1    0    0    0    0 -0.00000000000E+00 -0.00000000000E+00  0.11368683772E-12  0.17120000000E+03  0.17120000000E+03 0.  0.
         13    1    1    2    0    0  0.10046716542E+02 -0.45517382006E+01  0.30536794649E+02  0.32467858343E+02  0.10566000000E+00 0. -1.
        994    1    1    2    0    0 -0.52567690162E+01 -0.16891328587E+01  0.20879635075E+01  0.17130174074E+03  0.17120000000E+03 0.  0.
        998    1    1    2    0    0 -0.47899475260E+01  0.62408710592E+01  0.14673752381E+04  0.14674304009E+04  0.10000000000E+02 0. -1.
</event>
<event>
 5    1  0.1338054E-008  0.3708794E+03  0.7957747E-01  0.3491859E+00
         13   -1    0    0    0    0  0.00000000000E+00  0.00000000000E+00  0.14999999963E+04  0.15000000000E+04  0.10566000000E+00 0.  1.
        994   -1    0    0    0    0 -0.00000000000E+00 -0.00000000000E+00  0.11368683772E-12  0.17120000000E+03  0.17120000000E+03 0.  0.
         13    1    1    2    0    0  0.11546324094E+02  0.10304260473E+02  0.93815805380E+01  0.18097530257E+02  0.10566000000E+00 0.  1.
        994    1    1    2    0    0 -0.16976733308E+02 -0.15280737067E+02  0.10610642615E+02  0.17304258475E+03  0.17120000000E+03 0.  0.
        998    1    1    2    0    0  0.54304092145E+01  0.49764765944E+01  0.14800077731E+04  0.14800598850E+04  0.10000000000E+02 0.  1.
</event>
<event>
 5    1  0.1338054E-008  0.3794270E+03  0.7957747E-01  0.3453657E+00
         13   -1    0    0    0    0  0.00000000000E+00  0.00000000000E+00  0.14999999963E+04  0.15000000000E+04  0.10566000000E+00 0.  1.
        994   -1    0    0    0    0 -0.00000000000E+00 -0.00000000000E+00  0.11368683772E-12  0.17120000000E+03  0.17120000000E+03 0.  0.
         13    1    1    2    0    0 -0.19634733992E+01  0.27308799132E+02  0.16853346652E+02  0.32150772855E+02  0.10566000000E+00 0.  1.
        994    1    1    2    0    0 -0.12621596384E+02 -0.17422570187E+02  0.17688213853E+02  0.17345075254E+03  0.17120000000E+03 0.  0.
        998    1    1    2    0    0  0.14585069783E+02 -0.98862289444E+01  0.14654584358E+04  0.14655984746E+04  0.10000000000E+02 0.  1.
</event>
<event>
 5    1  0.1338054E-008  0.3687180E+03  0.7957747E-01  0.3501804E+00
         13   -1    0    0    0    0  0.00000000000E+00  0.00000000000E+00  0.14999999963E+04  0.15000000000E+04  0.10566000000E+00 0.  1.
        994   -1    0    0    0    0 -0.00000000000E+00 -0.00000000000E+00  0.11368683772E-12  0.17120000000E+03  0.17120000000E+03 0.  0.
         13    1    1    2    0    0  0.17181277341E+02  0.49204850774E+02  0.12948311689E+03  0.13957866010E+03  0.10566000000E+00 0.  1.
        994    1    1    2    0    0 -0.10800790054E+02 -0.29011812394E+02  0.13605170777E+02  0.17450754424E+03  0.17120000000E+03 0.  0.
        998    1    1    2    0    0 -0.63804872877E+01 -0.20193038380E+02  0.13569117086E+04  0.13571137957E+04  0.10000000000E+02 0.  1.
</event>
<event>
 5    1  0.1338054E-008  0.3803105E+03  0.7957747E-01  0.3449808E+00
         13   -1    0    0    0    0  0.00000000000E+00  0.00000000000E+00  0.14999999963E+04  0.15000000000E+04  0.10566000000E+00 0. -1.
        994   -1    0    0    0    0 -0.00000000000E+00 -0.00000000000E+00  0.11368683772E-12  0.17120000000E+03  0.17120000000E+03 0.  0.
         13    1    1    2    0    0 -0.21901408681E+02  0.17022602395E+01  0.57775873220E+02  0.61811261777E+02  0.10566000000E+00 0. -1.
        994    1    1    2    0    0  0.20550574139E+02  0.25839500074E+01  0.54104425798E+01  0.17253323096E+03  0.17120000000E+03 0.  0.
        998    1    1    2    0    0  0.13508345423E+01 -0.42862102469E+01  0.14368136805E+04  0.14368555073E+04  0.10000000000E+02 0. -1.
</event>
<event>
 5    1  0.1338054E-008  0.3751851E+03  0.7957747E-01  0.3472396E+00
         13   -1    0    0    0    0  0.00000000000E+00  0.00000000000E+00  0.14999999963E+04  0.15000000000E+04  0.10566000000E+00 0.  1.
        994   -1    0    0    0    0 -0.00000000000E+00 -0.00000000000E+00  0.11368683772E-12  0.17120000000E+03  0.17120000000E+03 0.  0.
         13    1    1    2    0    0 -0.33374607053E+02  0.54931077091E+02  0.31121273776E+03  0.31778084734E+03  0.10566000000E+00 0.  1.
        994    1    1    2    0    0 -0.37427823827E+01 -0.46723679662E+02  0.14084311417E+02  0.17805875011E+03  0.17120000000E+03 0.  0.
        998    1    1    2    0    0  0.37117389435E+02 -0.82073974291E+01  0.11747029471E+04  0.11753604026E+04  0.10000000000E+02 0.  1.
</event>
<event>
 5    1  0.1338054E-008  0.3781974E+03  0.7957747E-01  0.3459045E+00
         13   -1    0    0    0    0  0.00000000000E+00  0.00000000000E+00  0.14999999963E+04  0.15000000000E+04  0.10566000000E+00 0. -1.
        994   -1    0    0    0    0 -0.00000000000E+00 -0.00000000000E+00  0.11368683772E-12  0.17120000000E+03  0.17120000000E+03 0.  0.
         13    1    1    2    0    0 -0.10914466498E+02 -0.27089548575E+02  0.91299015520E+02  0.95856614899E+02  0.10566000000E+00 0. -1.
        994    1    1    2    0    0 -0.17875588645E+02  0.35576272957E+01  0.61638027071E+01  0.17227775784E+03  0.17120000000E+03 0.  0.
        998    1    1    2    0    0  0.28790055143E+02  0.23531921279E+02  0.14025371781E+04  0.14030656273E+04  0.10000000000E+02 0. -1.
</event>
<event>
 5    1  0.1338054E-008  0.3945278E+03  0.7957747E-01  0.3390242E+00
         13   -1    0    0    0    0  0.00000000000E+00  0.00000000000E+00  0.14999999963E+04  0.15000000000E+04  0.10566000000E+00 0.  1.
        994   -1    0    0    0    0 -0.00000000000E+00 -0.00000000000E+00  0.11368683772E-12  0.17120000000E+03  0.17120000000E+03 0.  0.
         13    1    1    2    0    0  0.99939820148E+02 -0.42230436781E+02  0.20100526156E+03  0.22841738940E+03  0.10566000000E+00 0.  1.
        994    1    1    2    0    0 -0.94625747227E+02  0.51249005774E+02  0.70421484540E+02  0.21412407178E+03  0.17120000000E+03 0.  0.
        998    1    1    2    0    0 -0.53140729213E+01 -0.90185689928E+01  0.12285732502E+04  0.12286585388E+04  0.10000000000E+02 0.  1.
</event>
<event>
 5    1  0.1338054E-008  0.3772456E+03  0.7957747E-01  0.3463240E+00
         13   -1    0    0    0    0  0.00000000000E+00  0.00000000000E+00  0.14999999963E+04  0.15000000000E+04  0.10566000000E+00 0.  1.
        994   -1    0    0    0    0 -0.00000000000E+00 -0.00000000000E+00  0.11368683772E-12  0.17120000000E+03  0.17120000000E+03 0.  0.
         13    1    1    2    0    0 -0.75761499773E+01  0.88802811599E+01  0.97947888900E+01  0.15238323247E+02  0.10566000000E+00 0.  1.
        994    1    1    2    0    0  0.15344411804E+02 -0.32731882522E+00  0.63251296790E+01  0.17200292258E+03  0.17120000000E+03 0.  0.
        998    1    1    2    0    0 -0.77682618271E+01 -0.85529623347E+01  0.14838800777E+04  0.14839587542E+04  0.10000000000E+02 0.  1.
</event>
<event>
 5    1  0.1338054E-008  0.3746481E+03  0.7957747E-01  0.3474798E+00
         13   -1    0    0    0    0  0.00000000000E+00  0.00000000000E+00  0.14999999963E+04  0.15000000000E+04  0.10566000000E+00 0.  1.
        994   -1    0    0    0    0 -0.00000000000E+00 -0.00000000000E+00  0.11368683772E-12  0.17120000000E+03  0.17120000000E+03 0.  0.
         13    1    1    2    0    0 -0.14598161524E+02 -0.15252910070E+02  0.10921085053E+02  0.23770545813E+02  0.10566000000E+00 0.  1.
        994    1    1    2    0    0  0.13407732550E+02  0.40346877719E+00  0.14057704823E+02  0.17229912694E+03  0.17120000000E+03 0.  0.
        998    1    1    2    0    0  0.11904289738E+01  0.14849441293E+02  0.14750212064E+04  0.14751303272E+04  0.10000000000E+02 0.  1.
</event>
<event>
 5    1  0.1338054E-008  0.3749667E+03  0.7957747E-01  0.3473372E+00
         13   -1    0    0    0    0  0.00000000000E+00  0.00000000000E+00  0.14999999963E+04  0.15000000000E+04  0.10566000000E+00 0. -1.
        994   -1    0    0    0    0 -0.00000000000E+00 -0.00000000000E+00  0.11368683772E-12  0.17120000000E+03  0.17120000000E+03 0.  0.
         13    1    1    2    0    0  0.27873597933E+02 -0.45683253226E+01  0.23914146576E+02  0.37009520781E+02  0.10566000000E+00 0. -1.
        994    1    1    2    0    0 -0.17358037316E+02  0.42262866289E+01  0.14725822400E+02  0.17275836536E+03  0.17120000000E+03 0.  0.
        998    1    1    2    0    0 -0.10515560617E+02  0.34203869369E+00  0.14613600273E+04  0.14614321139E+04  0.10000000000E+02 0. -1.
</event>
<event>
 5    1  0.1338054E-008  0.3823332E+03  0.7957747E-01  0.3441062E+00
         13   -1    0    0    0    0  0.00000000000E+00  0.00000000000E+00  0.14999999963E+04  0.15000000000E+04  0.10566000000E+00 0.  1.
        994   -1    0    0    0    0 -0.00000000000E+00 -0.00000000000E+00  0.11368683772E-12  0.17120000000E+03  0.17120000000E+03 0.  0.
         13    1    1    2    0    0  0.18378127331E+02 -0.22186451120E+02  0.15776623373E+03  0.16037515346E+03  0.10566000000E+00 0.  1.
        994    1    1    2    0    0  0.29930881772E+02  0.29804670590E+02  0.89013617541E+01  0.17655834818E+03  0.17120000000E+03 0.  0.
        998    1    1    2    0    0 -0.48309009103E+02 -0.76182194702E+01  0.13333324008E+04  0.13342664984E+04  0.10000000000E+02 0.  1.
</event>
<event>
 5    1  0.1338054E-008  0.3841266E+03  0.7957747E-01  0.3433385E+00
         13   -1    0    0    0    0  0.00000000000E+00  0.00000000000E+00  0.14999999963E+04  0.15000000000E+04  0.10566000000E+00 0. -1.
        994   -1    0    0    0    0 -0.00000000000E+00 -0.00000000000E+00  0.11368683772E-12  0.17120000000E+03  0.17120000000E+03 0.  0.
         13    1    1    2    0    0 -0.17394368371E+02  0.61733970724E+01  0.88998157840E+02  0.90892013651E+02  0.10566000000E+00 0. -1.
        994    1    1    2    0    0 -0.23500648881E+01 -0.64208892150E+01  0.22185628275E+01  0.17135084664E+03  0.17120000000E+03 0.  0.
        998    1    1    2    0    0  0.19744433259E+02  0.24749214258E+00  0.14087832756E+04  0.14089571397E+04  0.10000000000E+02 0. -1.
</event>
<event>
 5    1  0.1338054E-008  0.3852669E+03  0.7957747E-01  0.3428541E+00
         13   -1    0    0    0    0  0.00000000000E+00  0.00000000000E+00  0.14999999963E+04  0.15000000000E+04  0.10566000000E+00 0. -1.
        994   -1    0    0    0    0 -0.00000000000E+00 -0.00000000000E+00  0.11368683772E-12  0.17120000000E+03  0.17120000000E+03 0.  0.
         13    1    1    2    0    0 -0.15525467687E+00  0.13663151870E+02  0.62409919717E+02  0.63888301481E+02  0.10566000000E+00 0. -1.
        994    1    1    2    0    0  0.36934749301E+01 -0.92319584113E+01  0.18225997807E+01  0.17149820023E+03  0.17120000000E+03 0.  0.
        998    1    1    2    0    0 -0.35382202532E+01 -0.44311934587E+01  0.14357674768E+04  0.14358134983E+04  0.10000000000E+02 0. -1.
</event>
<event>
 5    1  0.1338054E-008  0.3690079E+03  0.7957747E-01  0.3500463E+00
         13   -1    0    0    0    0  0.00000000000E+00  0.00000000000E+00  0.14999999963E+04  0.15000000000E+04  0.10566000000E+00 0. -1.
        994   -1    0    0    0    0 -0.00000000000E+00 -0.00000000000E+00  0.11368683772E-12  0.17120000000E+03  0.17120000000E+03 0.  0.
         13    1    1    2    0    0  0.53391144397E+02 -0.27519110787E+01  0.15845229465E+03  0.16722837127E+03  0.10566000000E+00 0. -1.
        994    1    1    2    0    0 -0.95846163492E+01 -0.22426776587E+01  0.10124827696E+02  0.17178139192E+03  0.17120000000E+03 0.  0.
        998    1    1    2    0    0 -0.43806528048E+02  0.49945887374E+01  0.13314228739E+04  0.13321902368E+04  0.10000000000E+02 0. -1.
</event>
<event>
 5    1  0.1338054E-008  0.3830871E+03  0.7957747E-01  0.3437826E+00
         13   -1    0    0    0    0  0.00000000000E+00  0.00000000000E+00  0.14999999963E+04  0.15000000000E+04  0.10566000000E+00 0. -1.
        994   -1    0    0    0    0 -0.00000000000E+00 -0.00000000000E+00  0.11368683772E-12  0.17120000000E+03  0.17120000000E+03 0.  0.
         13    1    1    2    0    0  0.11245885598E+02 -0.84930237569E+01  0.41152146341E+02  0.43498410407E+02  0.10566000000E+00 0. -1.
        994    1    1    2    0    0  0.80510264733E+01 -0.88704624262E+01  0.30578643583E+01  0.17164584080E+03  0.17120000000E+03 0.  0.
        998    1    1    2    0    0 -0.19296912072E+02  0.17363486183E+02  0.14557899856E+04  0.14560557488E+04  0.10000000000E+02 0. -1.
</event>
<event>
 5    1  0.1338054E-008  0.3838707E+03  0.7957747E-01  0.3434476E+00
         13   -1    0    0    0    0  0.00000000000E+00  0.00000000000E+00  0.14999999963E+04  0.15000000000E+04  0.10566000000E+00 0.  1.
        994   -1    0    0    0    0 -0.00000000000E+00 -0.00000000000E+00  0.11368683772E-12  0.17120000000E+03  0.17120000000E+03 0.  0.
         13    1    1    2    0    0  0.12650371071E+02 -0.19323102578E+02  0.11043371097E+03  0.11282300237E+03  0.10566000000E+00 0.  1.
        994    1    1    2    0    0 -0.19285583983E+02  0.20167231226E+02  0.47662066205E+01  0.17352466018E+03  0.17120000000E+03 0.  0.
        998    1    1    2    0    0  0.66352129116E+01 -0.84412864830E+00  0.13848000787E+04  0.13848523374E+04  0.10000000000E+02 0.  1.
</event>
<event>
 5    1  0.1338054E-008  0.3815477E+03  0.7957747E-01  0.3444447E+00
         13   -1    0    0    0    0  0.00000000000E+00  0.00000000000E+00  0.14999999963E+04  0.15000000000E+04  0.10566000000E+00 0.  1.
        994   -1    0    0    0    0 -0.00000000000E+00 -0.00000000000E+00  0.11368683772E-12  0.17120000000E+03  0.17120000000E+03 0.  0.
         13    1    1    2    0    0  0.16634601361E+02  0.15529189118E+02  0.84605467036E+02  0.87612566984E+02  0.10566000000E+00 0.  1.
        994    1    1    2    0    0 -0.20288380701E+01  0.10681416513E+02  0.37471725596E+01  0.17158580986E+03  0.17120000000E+03 0.  0.
        998    1    1    2    0    0 -0.14605763291E+02 -0.26210605632E+02  0.14116473567E+04  0.14120016232E+04  0.10000000000E+02 0.  1.
</event>
<event>
 5    1  0.1338054E-008  0.3784761E+03  0.7957747E-01  0.3457821E+00
         13   -1    0    0    0    0  0.00000000000E+00  0.00000000000E+00  0.14999999963E+04  0.15000000000E+04  0.10566000000E+00 0. -1.
        994   -1    0    0    0    0 -0.00000000000E+00 -0.00000000000E+00  0.11368683772E-12  0.17120000000E+03  0.17120000000E+03 0.  0.
         13    1    1    2    0    0  0.17038848567E+01  0.32333153879E+02  0.10771031298E+03  0.11247159085E+03  0.10566000000E+00 0. -1.
        994    1    1    2    0    0  0.43109805717E+01 -0.15028954144E+02  0.57261478918E+01  0.17200779862E+03  0.17120000000E+03 0.  0.
        998    1    1    2    0    0 -0.60148654284E+01 -0.17304199734E+02  0.13865635354E+04  0.13867206105E+04  0.10000000000E+02 0. -1.
</event>
<event>
 5    1  0.1338054E-008  0.3765924E+03  0.7957747E-01  0.3466132E+00
         13   -1    0    0    0    0  0.00000000000E+00  0.00000000000E+00  0.14999999963E+04  0.15000000000E+04  0.10566000000E+00 0.  1.
        994   -1    0    0    0    0 -0.00000000000E+00 -0.00000000000E+00  0.11368683772E-12  0.17120000000E+03  0.17120000000E+03 0.  0.
         13    1    1    2    0    0  0.94870326562E+01 -0.38287438809E+01  0.62222706869E+01  0.11974593307E+02  0.10566000000E+00 0.  1.
        994    1    1    2    0    0 -0.83675755782E+01  0.15858476074E+01  0.61085508493E+01  0.17152051081E+03  0.17120000000E+03 0.  0.
        998    1    1    2    0    0 -0.11194570781E+01  0.22428962734E+01  0.14876691747E+04  0.14877048959E+04  0.10000000000E+02 0.  1.
</event>
<event>
 5    1  0.1338054E-008  0.3827641E+03  0.7957747E-01  0.3439211E+00
         13   -1    0    0    0    0  0.00000000000E+00  0.00000000000E+00  0.14999999963E+04  0.15000000000E+04  0.10566000000E+00 0. -1.
        994   -1    0    0    0    0 -0.00000000000E+00 -0.00000000000E+00  0.11368683772E-12  0.17120000000E+03  0.17120000000E+03 0.  0.
         13    1    1    2    0    0  0.12545120441E+02  0.31542219180E+02  0.18359823524E+03  0.18670997506E+03  0.10566000000E+00 0. -1.
        994    1    1    2    0    0 -0.14971443474E+02 -0.32243493052E+02  0.69421261825E+01  0.17498977136E+03  0.17120000000E+03 0.  0.
        998    1    1    2    0    0  0.24263230324E+01  0.70127387251E+00  0.13094596349E+04  0.13095002536E+04  0.10000000000E+02 0. -1.
</event>
<event>
 5    1  0.1338054E-008  0.3855569E+03  0.7957747E-01  0.3427314E+00
         13   -1    0    0    0    0  0.00000000000E+00  0.00000000000E+00  0.14999999963E+04  0.15000000000E+04  0.10566000000E+00 0. -1.
        994   -1    0    0    0    0 -0.00000000000E+00 -0.00000000000E+00  0.11368683772E-12  0.17120000000E+03  0.17120000000E+03 0.  0.
         13    1    1    2    0    0  0.12732234511E+02  0.73126882122E+01  0.75871839328E+02  0.77279572796E+02  0.10566000000E+00 0. -1.
        994    1    1    2    0    0 -0.12232374549E+02 -0.12701029125E+02  0.23753303588E+01  0.17212213490E+03  0.17120000000E+03 0.  0.
        998    1    1    2    0    0 -0.49985996279E+00  0.53883409131E+01  0.14217528266E+04  0.14217982923E+04  0.10000000000E+02 0. -1.
</event>
<event>
 5    1  0.1338054E-008  0.3762119E+03  0.7957747E-01  0.3467821E+00
         13   -1    0    0    0    0  0.00000000000E+00  0.00000000000E+00  0.14999999963E+04  0.15000000000E+04  0.10566000000E+00 0.  1.
        994   -1    0    0    0    0 -0.00000000000E+00 -0.00000000000E+00  0.11368683772E-12  0.17120000000E+03  0.17120000000E+03 0.  0.
         13    1    1    2    0    0 -0.14079960251E+03 -0.32597438941E+01  0.70599707029E+03  0.71990765270E+03  0.10566000000E+00 0.  1.
        994    1    1    2    0    0  0.14919534132E+03  0.22425372677E+02  0.87474875249E+02  0.24438379859E+03  0.17120000000E+03 0.  0.
        998    1    1    2    0    0 -0.83957388175E+01 -0.19165628783E+02  0.70652805074E+03  0.70690854871E+03  0.10000000000E+02 0. -1.
</event>
<event>
 5    1  0.1338054E-008  0.3809213E+03  0.7957747E-01  0.3447157E+00
         13   -1    0    0    0    0  0.00000000000E+00  0.00000000000E+00  0.14999999963E+04  0.15000000000E+04  0.10566000000E+00 0.  1.
        994   -1    0    0    0    0 -0.00000000000E+00 -0.00000000000E+00  0.11368683772E-12  0.17120000000E+03  0.17120000000E+03 0.  0.
         13    1    1    2    0    0 -0.24866307726E+02 -0.25138618255E+02  0.14799786514E+03  0.15216327625E+03  0.10566000000E+00 0.  1.
        994    1    1    2    0    0  0.29432326037E+02  0.29083256307E+02  0.93959725567E+01  0.17637976617E+03  0.17120000000E+03 0.  0.
        998    1    1    2    0    0 -0.45660183113E+01 -0.39446380522E+01  0.13426061586E+04  0.13426569576E+04  0.10000000000E+02 0.  1.
</event>
<event>
 5    1  0.1338054E-008  0.3748103E+03  0.7957747E-01  0.3474071E+00
         13   -1    0    0    0    0  0.00000000000E+00  0.00000000000E+00  0.14999999963E+04  0.15000000000E+04  0.10566000000E+00 0.  1.
        994   -1    0    0    0    0 -0.00000000000E+00 -0.00000000000E+00  0.11368683772E-12  0.17120000000E+03  0.17120000000E+03 0.  0.
         13    1    1    2    0    0  0.23972810173E+02  0.58096530217E+02  0.14198829980E+03  0.15527585419E+03  0.10566000000E+00 0.  1.
        994    1    1    2    0    0  0.47980845025E+01 -0.44423365956E+02  0.20638599101E+02  0.17813435612E+03  0.17120000000E+03 0.  0.
        998    1    1    2    0    0 -0.28770894676E+02 -0.13673164262E+02  0.13373730974E+04  0.13377897897E+04  0.10000000000E+02 0.  1.
</event>
<event>
 5    1  0.1338054E-008  0.3710566E+03  0.7957747E-01  0.3491049E+00
         13   -1    0    0    0    0  0.00000000000E+00  0.00000000000E+00  0.14999999963E+04  0.15000000000E+04  0.10566000000E+00 0.  1.
        994   -1    0    0    0    0 -0.00000000000E+00 -0.00000000000E+00  0.11368683772E-12  0.17120000000E+03  0.17120000000E+03 0.  0.
         13    1    1    2    0    0 -0.36791467357E+02  0.42826281675E+01  0.73049576476E+02  0.81903630943E+02  0.10566000000E+00 0.  1.
        994    1    1    2    0    0  0.32603215120E+02 -0.98680840051E+01  0.12725883481E+02  0.17501924702E+03  0.17120000000E+03 0.  0.
        998    1    1    2    0    0  0.41882522372E+01  0.55854558376E+01  0.14142245363E+04  0.14142771220E+04  0.10000000000E+02 0.  1.
</event>
<event>
 5    1  0.1338054E-008  0.3849682E+03  0.7957747E-01  0.3429807E+00
         13   -1    0    0    0    0  0.00000000000E+00  0.00000000000E+00  0.14999999963E+04  0.15000000000E+04  0.10566000000E+00 0.  1.
        994   -1    0    0    0    0 -0.00000000000E+00 -0.00000000000E+00  0.11368683772E-12  0.17120000000E+03  0.17120000000E+03 0.  0.
         13    1    1    2    0    0 -0.11645527440E+02  0.96100005714E+01  0.68133144056E+02  0.69786151229E+02  0.10566000000E+00 0.  1.
        994    1    1    2    0    0  0.47482272588E+01 -0.13947729568E+02  0.23602490652E+01  0.17184904887E+03  0.17120000000E+03 0.  0.
        998    1    1    2    0    0  0.68973001816E+01  0.43377289970E+01  0.14295066032E+04  0.14295647999E+04  0.10000000000E+02 0.  1.
</event>
<event>
 5    1  0.1338054E-008  0.3837284E+03  0.7957747E-01  0.3435083E+00
         13   -1    0    0    0    0  0.00000000000E+00  0.00000000000E+00  0.14999999963E+04  0.15000000000E+04  0.10566000000E+00 0. -1.
        994   -1    0    0    0    0 -0.00000000000E+00 -0.00000000000E+00  0.11368683772E-12  0.17120000000E+03  0.17120000000E+03 0.  0.
         13    1    1    2    0    0  0.11349517702E+02  0.12421759488E+02  0.62487139069E+02  0.64712945953E+02  0.10566000000E+00 0. -1.
        994    1    1    2    0    0 -0.85679021890E+01 -0.51657232655E+01  0.25933777233E+01  0.17151168839E+03  0.17120000000E+03 0.  0.
        998    1    1    2    0    0 -0.27816155127E+01 -0.72560362226E+01  0.14349194795E+04  0.14349753657E+04  0.10000000000E+02 0. -1.
</event>
<event>
 5    1  0.1338054E-008  0.3848411E+03  0.7957747E-01  0.3430346E+00
         13   -1    0    0    0    0  0.00000000000E+00  0.00000000000E+00  0.14999999963E+04  0.15000000000E+04  0.10566000000E+00 0. -1.
        994   -1    0    0    0    0 -0.00000000000E+00 -0.00000000000E+00  0.11368683772E-12  0.17120000000E+03  0.17120000000E+03 0.  0.
         13    1    1    2    0    0 -0.20442796940E+02  0.58085783720E+01  0.11906911946E+03  0.12095087392E+03  0.10566000000E+00 0. -1.
        994    1    1    2    0    0  0.25089216521E+02 -0.61949205551E+01  0.39095864527E+01  0.17318363287E+03  0.17120000000E+03 0.  0.
        998    1    1    2    0    0 -0.46464195810E+01  0.38634218303E+00  0.13770212904E+04  0.13770654932E+04  0.10000000000E+02 0. -1.
</event>
<event>
 5    1  0.1338054E-008  0.3833580E+03  0.7957747E-01  0.3436666E+00
         13   -1    0    0    0    0  0.00000000000E+00  0.00000000000E+00  0.14999999963E+04  0.15000000000E+04  0.10566000000E+00 0.  1.
        994   -1    0    0    0    0 -0.00000000000E+00 -0.00000000000E+00  0.11368683772E-12  0.17120000000E+03  0.17120000000E+03 0.  0.
         13    1    1    2    0    0  0.23811371932E+02 -0.92655856406E+01  0.11152059294E+03  0.11441016705E+03  0.10566000000E+00 0.  1.
        994    1    1    2    0    0 -0.39592038352E+02  0.13108395570E+02  0.82196554089E+01  0.17639830575E+03  0.17120000000E+03 0.  0.
        998    1    1    2    0    0  0.15780666420E+02 -0.38428099293E+01  0.13802597479E+04  0.13803915272E+04  0.10000000000E+02 0.  1.
</event>
<event>
 5    1  0.1338054E-008  0.3845859E+03  0.7957747E-01  0.3431430E+00
         13   -1    0    0    0    0  0.00000000000E+00  0.00000000000E+00  0.14999999963E+04  0.15000000000E+04  0.10566000000E+00 0.  1.
        994   -1    0    0    0    0 -0.00000000000E+00 -0.00000000000E+00  0.11368683772E-12  0.17120000000E+03  0.17120000000E+03 0.  0.
         13    1    1    2    0    0 -0.69328678391E+01 -0.10081207361E+02  0.42120793535E+02  0.43861917541E+02  0.10566000000E+00 0.  1.
        994    1    1    2    0    0 -0.34347345373E+01  0.24984388547E+01  0.18952812431E+01  0.17126316501E+03  0.17120000000E+03 0.  0.
        998    1    1    2    0    0  0.10367602376E+02  0.75827685065E+01  0.14559839215E+04  0.14560749174E+04  0.10000000000E+02 0.  1.
</event>
<event>
 5    1  0.1338054E-008  0.3846724E+03  0.7957747E-01  0.3431063E+00
         13   -1    0    0    0    0  0.00000000000E+00  0.00000000000E+00  0.14999999963E+04  0.15000000000E+04  0.10566000000E+00 0.  1.
        994   -1    0    0    0    0 -0.00000000000E+00 -0.00000000000E+00  0.11368683772E-12  0.17120000000E+03  0.17120000000E+03 0.  0.
         13    1    1    2    0    0 -0.57305774001E+01 -0.12199950518E+02  0.50325198965E+02  0.52099089483E+02  0.10566000000E+00 0.  1.
        994    1    1    2    0    0  0.83522073329E+01  0.65923132437E+01  0.21656763120E+01  0.17154401218E+03  0.17120000000E+03 0.  0.
        998    1    1    2    0    0 -0.26216299328E+01  0.56076372746E+01  0.14475091210E+04  0.14475568983E+04  0.10000000000E+02 0.  1.
</event>
<event>
 5    1  0.1338054E-008  0.3751718E+03  0.7957747E-01  0.3472455E+00
         13   -1    0    0    0    0  0.00000000000E+00  0.00000000000E+00  0.14999999963E+04  0.15000000000E+04  0.10566000000E+00 0.  1.
        994   -1    0    0    0    0 -0.00000000000E+00 -0.00000000000E+00  0.11368683772E-12  0.17120000000E+03  0.17120000000E+03 0.  0.
         13    1    1    2    0    0 -0.14108214743E+02  0.48743783552E+02  0.18402369634E+03  0.19089193313E+03  0.10566000000E+00 0.  1.
        994    1    1    2    0    0  0.67522459470E+01 -0.37646878407E+02  0.11576481530E+02  0.17580197725E+03  0.17120000000E+03 0.  0.
        998    1    1    2    0    0  0.73559687962E+01 -0.11096905145E+02  0.13043998184E+04  0.13045060896E+04  0.10000000000E+02 0.  1.
</event>
<event>
 5    1  0.1338054E-008  0.3820185E+03  0.7957747E-01  0.3442416E+00
         13   -1    0    0    0    0  0.00000000000E+00  0.00000000000E+00  0.14999999963E+04  0.15000000000E+04  0.10566000000E+00 0. -1.
        994   -1    0    0    0    0 -0.00000000000E+00 -0.00000000000E+00  0.11368683772E-12  0.17120000000E+03  0.17120000000E+03 0.  0.
         13    1    1    2    0    0  0.38149408672E+01 -0.15343871806E+02  0.38283270591E+02  0.41419900374E+02  0.10566000000E+00 0. -1.
        994    1    1    2    0    0  0.37958066868E+02  0.25851084174E+02  0.10153314016E+02  0.17754329945E+03  0.17120000000E+03 0.  0.
        998    1    1    2    0    0 -0.41773007736E+02 -0.10507212368E+02  0.14515634117E+04  0.14522368002E+04  0.10000000000E+02 0. -1.
</event>
<event>
 5    1  0.1376150E-008  0.3856125E+03  0.7957747E-01  0.3427079E+00
         13   -1    0    0    0    0  0.00000000000E+00  0.00000000000E+00  0.14999999963E+04  0.15000000000E+04  0.10566000000E+00 0.  1.
        994   -1    0    0    0    0 -0.00000000000E+00 -0.00000000000E+00  0.11368683772E-12  0.17120000000E+03  0.17120000000E+03 0.  0.
         13    1    1    2    0    0  0.39874391616E+01  0.10475258315E+02  0.49170242228E+02  0.50431682429E+02  0.10566000000E+00 0.  1.
        994    1    1    2    0    0  0.36523372310E+01 -0.39257876153E+01  0.14207051512E+01  0.17128984143E+03  0.17120000000E+03 0.  0.
        998    1    1    2    0    0 -0.76397763926E+01 -0.65494707000E+01  0.14494090489E+04  0.14494784761E+04  0.10000000000E+02 0.  1.
</event>
<event>
 5    1  0.1338054E-008  0.3823439E+03  0.7957747E-01  0.3441016E+00
         13   -1    0    0    0    0  0.00000000000E+00  0.00000000000E+00  0.14999999963E+04  0.15000000000E+04  0.10566000000E+00 0.  1.
        994   -1    0    0    0    0 -0.00000000000E+00 -0.00000000000E+00  0.11368683772E-12  0.17120000000E+03  0.17120000000E+03 0.  0.
         13    1    1    2    0    0  0.13655570434E+02 -0.22369507785E+02  0.11103725281E+03  0.11408835242E+03  0.10566000000E+00 0.  1.
        994    1    1    2    0    0  0.26588247709E+02  0.44881732180E+02  0.12034846870E+02  0.17937553439E+03  0.17120000000E+03 0.  0.
        998    1    1    2    0    0 -0.40243818143E+02 -0.22512224395E+02  0.13769278966E+04  0.13777361132E+04  0.10000000000E+02 0.  1.
</event>
<event>
 5    1  0.1338054E-008  0.3814898E+03  0.7957747E-01  0.3444697E+00
         13   -1    0    0    0    0  0.00000000000E+00  0.00000000000E+00  0.14999999963E+04  0.15000000000E+04  0.10566000000E+00 0. -1.
        994   -1    0    0    0    0 -0.00000000000E+00 -0.00000000000E+00  0.11368683772E-12  0.17120000000E+03  0.17120000000E+03 0.  0.
         13    1    1    2    0    0  0.42425353052E+01  0.29106373173E+02  0.12975333164E+03  0.13304554973E+03  0.10566000000E+00 0. -1.
        994    1    1    2    0    0  0.58820411354E+01 -0.15052818374E+02  0.42523086085E+01  0.17201368515E+03  0.17120000000E+03 0.  0.
        998    1    1    2    0    0 -0.10124576441E+02 -0.14053554799E+02  0.13659943560E+04  0.13661407651E+04  0.10000000000E+02 0. -1.
</event>
<event>
 5    1  0.1338054E-008  0.3817912E+03  0.7957747E-01  0.3443396E+00
         13   -1    0    0    0    0  0.00000000000E+00  0.00000000000E+00  0.14999999963E+04  0.15000000000E+04  0.10566000000E+00 0.  1.
        994   -1    0    0    0    0 -0.00000000000E+00 -0.00000000000E+00  0.11368683772E-12  0.17120000000E+03  0.17120000000E+03 0.  0.
         13    1    1    2    0    0 -0.13715652659E+02 -0.94436510328E+01  0.42300626215E+02  0.45460486303E+02  0.10566000000E+00 0.  1.
        994    1    1    2    0    0  0.78321939305E+01  0.22674176012E+01  0.34526795025E+01  0.17142883491E+03  0.17120000000E+03 0.  0.
        998    1    1    2    0    0  0.58834587286E+01  0.71762334317E+01  0.14542466906E+04  0.14543106788E+04  0.10000000000E+02 0.  1.
</event>
<event>
 5    1  0.1338054E-008  0.3858900E+03  0.7957747E-01  0.3425906E+00
         13   -1    0    0    0    0  0.00000000000E+00  0.00000000000E+00  0.14999999963E+04  0.15000000000E+04  0.10566000000E+00 0. -1.
        994   -1    0    0    0    0 -0.00000000000E+00 -0.00000000000E+00  0.11368683772E-12  0.17120000000E+03  0.17120000000E+03 0.  0.
         13    1    1    2    0    0 -0.70220074580E+01  0.80207157591E+01  0.47111493681E+02  0.48302634203E+02  0.10566000000E+00 0. -1.
        994    1    1    2    0    0  0.12206765925E+02 -0.40367853762E+01  0.17311418810E+01  0.17169081986E+03  0.17120000000E+03 0.  0.
        998    1    1    2    0    0 -0.51847584672E+01 -0.39839303829E+01  0.14511573607E+04  0.14512065459E+04  0.10000000000E+02 0. -1.
</event>
<event>
 5    1  0.1338054E-008  0.3804102E+03  0.7957747E-01  0.3449374E+00
         13   -1    0    0    0    0  0.00000000000E+00  0.00000000000E+00  0.14999999963E+04  0.15000000000E+04  0.10566000000E+00 0.  1.
        994   -1    0    0    0    0 -0.00000000000E+00 -0.00000000000E+00  0.11368683772E-12  0.17120000000E+03  0.17120000000E+03 0.  0.
         13    1    1    2    0    0 -0.52760251391E+02 -0.40780064694E+02  0.39909627068E+03  0.40462884504E+03  0.10566000000E+00 0.  1.
        994    1    1    2    0    0  0.33084873693E+02  0.79486476850E+02  0.29082874478E+02  0.19382456619E+03  0.17120000000E+03 0.  0.
        998    1    1    2    0    0  0.19675377698E+02 -0.38706412155E+02  0.10718208511E+04  0.10727465888E+04  0.10000000000E+02 0.  1.
</event>
<event>
 5    1  0.1338054E-008  0.3821732E+03  0.7957747E-01  0.3441750E+00
         13   -1    0    0    0    0  0.00000000000E+00  0.00000000000E+00  0.14999999963E+04  0.15000000000E+04  0.10566000000E+00 0.  1.
        994   -1    0    0    0    0 -0.00000000000E+00 -0.00000000000E+00  0.11368683772E-12  0.17120000000E+03  0.17120000000E+03 0.  0.
         13    1    1    2    0    0  0.12312991832E+02 -0.16325427155E+00  0.23744326087E+02  0.26747721495E+02  0.10566000000E+00 0.  1.
        994    1    1    2    0    0 -0.89502651432E+01  0.68430261012E+01  0.34615615537E+01  0.17160523495E+03  0.17120000000E+03 0.  0.
        998    1    1    2    0    0 -0.33627266891E+01 -0.66797718296E+01  0.14727941086E+04  0.14728470436E+04  0.10000000000E+02 0.  1.
</event>
<event>
 5    1  0.1338054E-008  0.3855894E+03  0.7957747E-01  0.3427177E+00
         13   -1    0    0    0    0  0.00000000000E+00  0.00000000000E+00  0.14999999963E+04  0.15000000000E+04  0.10566000000E+00 0. -1.
        994   -1    0    0    0    0 -0.00000000000E+00 -0.00000000000E+00  0.11368683772E-12  0.17120000000E+03  0.17120000000E+03 0.  0.
         13    1    1    2    0    0 -0.80481216723E+01  0.76931903749E+01  0.47449145120E+02  0.48737972642E+02  0.10566000000E+00 0. -1.
        994    1    1    2    0    0  0.23145539420E+01 -0.39107641227E+01  0.14056054436E+01  0.17126607067E+03  0.17120000000E+03 0.  0.
        998    1    1    2    0    0  0.57335677303E+01 -0.37824262521E+01  0.14511452457E+04  0.14511959567E+04  0.10000000000E+02 0. -1.
</event>
<event>
 5    1  0.1338054E-008  0.3749330E+03  0.7957747E-01  0.3473523E+00
         13   -1    0    0    0    0  0.00000000000E+00  0.00000000000E+00  0.14999999963E+04  0.15000000000E+04  0.10566000000E+00 0. -1.
        994   -1    0    0    0    0 -0.00000000000E+00 -0.00000000000E+00  0.11368683772E-12  0.17120000000E+03  0.17120000000E+03 0.  0.
         13    1    1    2    0    0  0.91508418296E+02  0.54662483881E+02  0.34084657448E+03  0.35712487488E+03  0.10566000000E+00 0. -1.
        994    1    1    2    0    0 -0.74882217591E+02 -0.59792642446E+02  0.47005353340E+02  0.20174600329E+03  0.17120000000E+03 0.  0.
        998    1    1    2    0    0 -0.16626200706E+02  0.51301585657E+01  0.11121480685E+04  0.11123291218E+04  0.10000000000E+02 0. -1.
</event>
<event>
 5    1  0.1338054E-008  0.3770195E+03  0.7957747E-01  0.3464240E+00
         13   -1    0    0    0    0  0.00000000000E+00  0.00000000000E+00  0.14999999963E+04  0.15000000000E+04  0.10566000000E+00 0. -1.
        994   -1    0    0    0    0 -0.00000000000E+00 -0.00000000000E+00  0.11368683772E-12  0.17120000000E+03  0.17120000000E+03 0.  0.
         13    1    1    2    0    0  0.12413298967E+02 -0.11767594520E+03  0.34334526147E+03  0.36316345880E+03  0.10566000000E+00 0. -1.
        994    1    1    2    0    0 -0.16887081364E+02  0.12216170118E+03  0.71443236898E+02  0.22276047866E+03  0.17120000000E+03 0.  0.
        998    1    1    2    0    0  0.44737823967E+01 -0.44857559847E+01  0.10852114979E+04  0.10852760625E+04  0.10000000000E+02 0. -1.
</event>
<event>
 5    1  0.1338054E-008  0.3844987E+03  0.7957747E-01  0.3431801E+00
         13   -1    0    0    0    0  0.00000000000E+00  0.00000000000E+00  0.14999999963E+04  0.15000000000E+04  0.10566000000E+00 0. -1.
        994   -1    0    0    0    0 -0.00000000000E+00 -0.00000000000E+00  0.11368683772E-12  0.17120000000E+03  0.17120000000E+03 0.  0.
         13    1    1    2    0    0  0.40271305377E+01 -0.17714718243E+02  0.91933932209E+02  0.93711728605E+02  0.10566000000E+00 0. -1.
        994    1    1    2    0    0  0.93224308105E+01  0.72251201433E+01  0.23375978950E+01  0.17162171903E+03  0.17120000000E+03 0.  0.
        998    1    1    2    0    0 -0.13349561348E+02  0.10489598100E+02  0.14057284662E+04  0.14058665524E+04  0.10000000000E+02 0. -1.
</event>
<event>
 5    1  0.1338054E-008  0.3796925E+03  0.7957747E-01  0.3452499E+00
         13   -1    0    0    0    0  0.00000000000E+00  0.00000000000E+00  0.14999999963E+04  0.15000000000E+04  0.10566000000E+00 0.  1.
        994   -1    0    0    0    0 -0.00000000000E+00 -0.00000000000E+00  0.11368683772E-12  0.17120000000E+03  0.17120000000E+03 0.  0.
         13    1    1    2    0    0 -0.14886287877E+02  0.56561996967E+01  0.27521991379E+02  0.31797253581E+02  0.10566000000E+00 0.  1.
        994    1    1    2    0    0  0.14322678578E+02 -0.39375001754E+01  0.50271558983E+01  0.17191671043E+03  0.17120000000E+03 0.  0.
        998    1    1    2    0    0  0.56360929868E+00 -0.17186995212E+01  0.14674508490E+04  0.14674860360E+04  0.10000000000E+02 0.  1.
</event>
<event>
 5    1  0.1338054E-008  0.3727867E+03  0.7957747E-01  0.3483181E+00
         13   -1    0    0    0    0  0.00000000000E+00  0.00000000000E+00  0.14999999963E+04  0.15000000000E+04  0.10566000000E+00 0.  1.
        994   -1    0    0    0    0 -0.00000000000E+00 -0.00000000000E+00  0.11368683772E-12  0.17120000000E+03  0.17120000000E+03 0.  0.
         13    1    1    2    0    0 -0.13809579502E+02  0.39248883424E+02  0.10159785914E+03  0.10978759257E+03  0.10566000000E+00 0.  1.
        994    1    1    2    0    0  0.17068917185E+02 -0.37200686545E+02  0.13578807612E+02  0.17654762255E+03  0.17120000000E+03 0.  0.
        998    1    1    2    0    0 -0.32593376830E+01 -0.20481968799E+01  0.13848233295E+04  0.13848647849E+04  0.10000000000E+02 0.  1.
</event>
<event>
 5    1  0.1338054E-008  0.3715899E+03  0.7957747E-01  0.3488616E+00
         13   -1    0    0    0    0  0.00000000000E+00  0.00000000000E+00  0.14999999963E+04  0.15000000000E+04  0.10566000000E+00 0.  1.
        994   -1    0    0    0    0 -0.00000000000E+00 -0.00000000000E+00  0.11368683772E-12  0.17120000000E+03  0.17120000000E+03 0.  0.
         13    1    1    2    0    0  0.10982773043E+02 -0.54327201540E+01  0.89385291821E+00  0.12286003787E+02  0.10566000000E+00 0.  1.
        994    1    1    2    0    0 -0.11106460537E+02  0.37944238219E+01  0.12266373121E+02  0.17203969027E+03  0.17120000000E+03 0.  0.
        998    1    1    2    0    0  0.12368749363E+00  0.16382963321E+01  0.14868397702E+04  0.14868743059E+04  0.10000000000E+02 0.  1.
</event>
<event>
 5    1  0.1338054E-008  0.3717173E+03  0.7957747E-01  0.3488036E+00
         13   -1    0    0    0    0  0.00000000000E+00  0.00000000000E+00  0.14999999963E+04  0.15000000000E+04  0.10566000000E+00 0.  1.
        994   -1    0    0    0    0 -0.00000000000E+00 -0.00000000000E+00  0.11368683772E-12  0.17120000000E+03  0.17120000000E+03 0.  0.
         13    1    1    2    0    0  0.21085495523E+02  0.25982411071E+01  0.24705572301E+02  0.32584128729E+02  0.10566000000E+00 0.  1.
        994    1    1    2    0    0  0.61273464258E+01  0.92088763456E+01  0.87948638276E+01  0.17178223834E+03  0.17120000000E+03 0.  0.
        998    1    1    2    0    0 -0.27212841949E+02 -0.11807117453E+02  0.14664995602E+04  0.14668336329E+04  0.10000000000E+02 0.  1.
</event>
<event>
 5    1  0.1338054E-008  0.3799338E+03  0.7957747E-01  0.3451447E+00
         13   -1    0    0    0    0  0.00000000000E+00  0.00000000000E+00  0.14999999963E+04  0.15000000000E+04  0.10566000000E+00 0. -1.
        994   -1    0    0    0    0 -0.00000000000E+00 -0.00000000000E+00  0.11368683772E-12  0.17120000000E+03  0.17120000000E+03 0.  0.
         13    1    1    2    0    0 -0.27925157838E+02 -0.40209699503E+01  0.91515482798E+02  0.95765742285E+02  0.10566000000E+00 0. -1.
        994    1    1    2    0    0  0.19559166178E+02  0.27895318313E+02  0.80572943164E+01  0.17474286754E+03  0.17120000000E+03 0.  0.
        998    1    1    2    0    0  0.83659916598E+01 -0.23874348363E+02  0.14004272192E+04  0.14006913902E+04  0.10000000000E+02 0. -1.
</event>
<event>
 5    1  0.1338054E-008  0.3827172E+03  0.7957747E-01  0.3439412E+00
         13   -1    0    0    0    0  0.00000000000E+00  0.00000000000E+00  0.14999999963E+04  0.15000000000E+04  0.10566000000E+00 0. -1.
        994   -1    0    0    0    0 -0.00000000000E+00 -0.00000000000E+00  0.11368683772E-12  0.17120000000E+03  0.17120000000E+03 0.  0.
         13    1    1    2    0    0 -0.43355080783E+01 -0.14892958695E+02  0.42755849754E+02  0.45482641757E+02  0.10566000000E+00 0. -1.
        994    1    1    2    0    0  0.34943266218E+01  0.86369101266E+01  0.30554304695E+01  0.17148055922E+03  0.17120000000E+03 0.  0.
        998    1    1    2    0    0  0.84118145648E+00  0.62560485682E+01  0.14541887161E+04  0.14542367990E+04  0.10000000000E+02 0. -1.
</event>
<event>
 5    1  0.1338054E-008  0.3807268E+03  0.7957747E-01  0.3448000E+00
         13   -1    0    0    0    0  0.00000000000E+00  0.00000000000E+00  0.14999999963E+04  0.15000000000E+04  0.10566000000E+00 0. -1.
        994   -1    0    0    0    0 -0.00000000000E+00 -0.00000000000E+00  0.11368683772E-12  0.17120000000E+03  0.17120000000E+03 0.  0.
         13    1    1    2    0    0  0.22469532334E+02  0.25575076981E+02  0.18190930933E+03  0.18506748075E+03  0.10566000000E+00 0. -1.
        994    1    1    2    0    0  0.29482386648E+01  0.19223008535E+01  0.38080335358E+01  0.17127851141E+03  0.17120000000E+03 0.  0.
        998    1    1    2    0    0 -0.25417770999E+02 -0.27497377834E+02  0.13142826534E+04  0.13148540078E+04  0.10000000000E+02 0. -1.
</event>
<event>
 5    1  0.1338054E-008  0.3743957E+03  0.7957747E-01  0.3475930E+00
         13   -1    0    0    0    0  0.00000000000E+00  0.00000000000E+00  0.14999999963E+04  0.15000000000E+04  0.10566000000E+00 0. -1.
        994   -1    0    0    0    0 -0.00000000000E+00 -0.00000000000E+00  0.11368683772E-12  0.17120000000E+03  0.17120000000E+03 0.  0.
         13    1    1    2    0    0 -0.10580827875E+02  0.16700949769E+03  0.75177821254E+03  0.77017830289E+03  0.10566000000E+00 0. -1.
        994    1    1    2    0    0  0.11874813565E+02 -0.17561291559E+03  0.12113637596E+03  0.27379621783E+03  0.17120000000E+03 0.  0.
        998    1    1    2    0    0 -0.12939856902E+01  0.86034178922E+01  0.62708540778E+03  0.62722547928E+03  0.10000000000E+02 0.  0.
</event>
<event>
 5    1  0.1338054E-008  0.3712070E+03  0.7957747E-01  0.3490362E+00
         13   -1    0    0    0    0  0.00000000000E+00  0.00000000000E+00  0.14999999963E+04  0.15000000000E+04  0.10566000000E+00 0. -1.
        994   -1    0    0    0    0 -0.00000000000E+00 -0.00000000000E+00  0.11368683772E-12  0.17120000000E+03  0.17120000000E+03 0.  0.
         13    1    1    2    0    0  0.10300746313E+03 -0.64674504424E+01  0.33826307522E+03  0.35365842928E+03  0.10566000000E+00 0. -1.
        994    1    1    2    0    0 -0.10770750204E+03 -0.21296283223E+01  0.53518313362E+02  0.20923453629E+03  0.17120000000E+03 0.  0.
        998    1    1    2    0    0  0.47000389044E+01  0.85970787647E+01  0.11082186077E+04  0.11083070344E+04  0.10000000000E+02 0. -1.
</event>
<event>
 5    1  0.1338054E-008  0.3824090E+03  0.7957747E-01  0.3440736E+00
         13   -1    0    0    0    0  0.00000000000E+00  0.00000000000E+00  0.14999999963E+04  0.15000000000E+04  0.10566000000E+00 0. -1.
        994   -1    0    0    0    0 -0.00000000000E+00 -0.00000000000E+00  0.11368683772E-12  0.17120000000E+03  0.17120000000E+03 0.  0.
         13    1    1    2    0    0  0.21829125112E+02 -0.12882247875E+02  0.99953099686E+02  0.10311690606E+03  0.10566000000E+00 0. -1.
        994    1    1    2    0    0 -0.27323324686E+02  0.13199836759E+02  0.59818573816E+01  0.17397132632E+03  0.17120000000E+03 0.  0.
        998    1    1    2    0    0  0.54941995740E+01 -0.31758888447E+00  0.13940650392E+04  0.13941117676E+04  0.10000000000E+02 0. -1.
</event>
<event>
 5    1  0.1338054E-008  0.3752848E+03  0.7957747E-01  0.3471950E+00
         13   -1    0    0    0    0  0.00000000000E+00  0.00000000000E+00  0.14999999963E+04  0.15000000000E+04  0.10566000000E+00 0.  1.
        994   -1    0    0    0    0 -0.00000000000E+00 -0.00000000000E+00  0.11368683772E-12  0.17120000000E+03  0.17120000000E+03 0.  0.
         13    1    1    2    0    0 -0.71357307223E+02  0.10619132620E+02  0.18231253067E+03  0.19606759364E+03  0.10566000000E+00 0.  1.
        994    1    1    2    0    0  0.44640232119E+02 -0.22153665988E+02  0.22660608368E+02  0.17974003008E+03  0.17120000000E+03 0.  0.
        998    1    1    2    0    0  0.26717075104E+02  0.11534533369E+02  0.12950268572E+04  0.12953923763E+04  0.10000000000E+02 0.  1.
</event>
<event>
 5    1  0.1338054E-008  0.3717413E+03  0.7957747E-01  0.3487926E+00
         13   -1    0    0    0    0  0.00000000000E+00  0.00000000000E+00  0.14999999963E+04  0.15000000000E+04  0.10566000000E+00 0. -1.
        994   -1    0    0    0    0 -0.00000000000E+00 -0.00000000000E+00  0.11368683772E-12  0.17120000000E+03  0.17120000000E+03 0.  0.
         13    1    1    2    0    0  0.87659376873E+02 -0.36671225898E+02  0.51327932577E+03  0.52200059635E+03  0.10566000000E+00 0. -1.
        994    1    1    2    0    0  0.14941560757E+01  0.94795984042E+02  0.44189319993E+02  0.20062563917E+03  0.17120000000E+03 0.  0.
        998    1    1    2    0    0 -0.89153532949E+02 -0.58124758144E+02  0.94253135051E+03  0.94857376447E+03  0.10000000000E+02 0. -1.
</event>
<event>
 5    1  0.2403188E-008  0.3858053E+03  0.7957747E-01  0.3426264E+00
         13   -1    0    0    0    0  0.00000000000E+00  0.00000000000E+00  0.14999999963E+04  0.15000000000E+04  0.10566000000E+00 0. -1.
        994   -1    0    0    0    0 -0.00000000000E+00 -0.00000000000E+00  0.11368683772E-12  0.17120000000E+03  0.17120000000E+03 0.  0.
         13    1    1    2    0    0 -0.11208419215E+02 -0.48116627408E+01  0.58549896304E+02  0.59807042068E+02  0.10566000000E+00 0. -1.
        994    1    1    2    0    0  0.13243884041E+02  0.48554021326E+01  0.18837793994E+01  0.17179046545E+03  0.17120000000E+03 0.  0.
        998    1    1    2    0    0 -0.20354648260E+01 -0.43739391802E-01  0.14395663206E+04  0.14396024925E+04  0.10000000000E+02 0. -1.
</event>
<event>
 5    1  0.1338054E-008  0.3843168E+03  0.7957747E-01  0.3432575E+00
         13   -1    0    0    0    0  0.00000000000E+00  0.00000000000E+00  0.14999999963E+04  0.15000000000E+04  0.10566000000E+00 0.  1.
        994   -1    0    0    0    0 -0.00000000000E+00 -0.00000000000E+00  0.11368683772E-12  0.17120000000E+03  0.17120000000E+03 0.  0.
         13    1    1    2    0    0  0.14335335758E+02  0.59842989083E+01  0.62100143169E+02  0.64013690960E+02  0.10566000000E+00 0.  1.
        994    1    1    2    0    0 -0.52252868727E+01 -0.53862518117E+01  0.21553420966E+01  0.17137794733E+03  0.17120000000E+03 0.  0.
        998    1    1    2    0    0 -0.91100488857E+01 -0.59804709667E+00  0.14357445110E+04  0.14358083617E+04  0.10000000000E+02 0.  1.
</event>
<event>
 5    1  0.1338054E-008  0.3857309E+03  0.7957747E-01  0.3426578E+00
         13   -1    0    0    0    0  0.00000000000E+00  0.00000000000E+00  0.14999999963E+04  0.15000000000E+04  0.10566000000E+00 0.  1.
        994   -1    0    0    0    0 -0.00000000000E+00 -0.00000000000E+00  0.11368683772E-12  0.17120000000E+03  0.17120000000E+03 0.  0.
         13    1    1    2    0    0 -0.35281570399E+01 -0.15473224337E+02  0.94616714538E+02  0.95938534476E+02  0.10566000000E+00 0.  1.
        994    1    1    2    0    0  0.32618296352E+02  0.11430609120E+02  0.51968998996E+01  0.17473139343E+03  0.17120000000E+03 0.  0.
        998    1    1    2    0    0 -0.29090139312E+02  0.40426152169E+01  0.14001863818E+04  0.14005300721E+04  0.10000000000E+02 0.  1.
</event>
<event>
 5    1  0.1338054E-008  0.3764077E+03  0.7957747E-01  0.3466951E+00
         13   -1    0    0    0    0  0.00000000000E+00  0.00000000000E+00  0.14999999963E+04  0.15000000000E+04  0.10566000000E+00 0. -1.
        994   -1    0    0    0    0 -0.00000000000E+00 -0.00000000000E+00  0.11368683772E-12  0.17120000000E+03  0.17120000000E+03 0.  0.
         13    1    1    2    0    0 -0.82792783417E+01  0.19366563729E+02  0.89581002832E+01  0.22888183966E+02  0.10566000000E+00 0. -1.
        994    1    1    2    0    0 -0.40997312568E+01 -0.26719289076E+02  0.16985625927E+02  0.17415131264E+03  0.17120000000E+03 0.  0.
        998    1    1    2    0    0  0.12379009599E+02  0.73527253469E+01  0.14740562701E+04  0.14741605034E+04  0.10000000000E+02 0. -1.
</event>
<event>
 5    1  0.1338054E-008  0.3776243E+03  0.7957747E-01  0.3461569E+00
         13   -1    0    0    0    0  0.00000000000E+00  0.00000000000E+00  0.14999999963E+04  0.15000000000E+04  0.10566000000E+00 0.  1.
        994   -1    0    0    0    0 -0.00000000000E+00 -0.00000000000E+00  0.11368683772E-12  0.17120000000E+03  0.17120000000E+03 0.  0.
         13    1    1    2    0    0 -0.86620271853E+02  0.11772391060E+03  0.47609696446E+03  0.49802642636E+03  0.10566000000E+00 0.  1.
        994    1    1    2    0    0  0.65105393196E+02 -0.12685878845E+03  0.92204978931E+02  0.24112872614E+03  0.17120000000E+03 0.  0.
        998    1    1    2    0    0  0.21514878657E+02  0.91348778493E+01  0.93169805289E+03  0.93204484750E+03  0.10000000000E+02 0.  1.
</event>
<event>
 5    1  0.1338054E-008  0.3835783E+03  0.7957747E-01  0.3435724E+00
         13   -1    0    0    0    0  0.00000000000E+00  0.00000000000E+00  0.14999999963E+04  0.15000000000E+04  0.10566000000E+00 0. -1.
        994   -1    0    0    0    0 -0.00000000000E+00 -0.00000000000E+00  0.11368683772E-12  0.17120000000E+03  0.17120000000E+03 0.  0.
         13    1    1    2    0    0  0.10764385240E+02  0.12607656561E+02  0.56379238448E+02  0.58766101501E+02  0.10566000000E+00 0. -1.
        994    1    1    2    0    0 -0.20219901345E+02 -0.54732182610E+01  0.37886961652E+01  0.17251838959E+03  0.17120000000E+03 0.  0.
        998    1    1    2    0    0  0.94555161042E+01 -0.71344383001E+01  0.14398320617E+04  0.14399155089E+04  0.10000000000E+02 0. -1.
</event>
<event>
 5    1  0.1338054E-008  0.3985125E+03  0.7957747E-01  0.3374310E+00
         13   -1    0    0    0    0  0.00000000000E+00  0.00000000000E+00  0.14999999963E+04  0.15000000000E+04  0.10566000000E+00 0. -1.
        994   -1    0    0    0    0 -0.00000000000E+00 -0.00000000000E+00  0.11368683772E-12  0.17120000000E+03  0.17120000000E+03 0.  0.
         13    1    1    2    0    0  0.43537272435E+01  0.19739002429E+02 -0.44624950806E+01  0.20700439227E+02  0.10566000000E+00 0. -1.
        994    1    1    2    0    0 -0.47991908369E+01 -0.33975956903E+02  0.31486884945E+02  0.17742114249E+03  0.17120000000E+03 0.  0.
        998    1    1    2    0    0  0.44546359341E+00  0.14236954474E+02  0.14729756064E+04  0.14730784183E+04  0.10000000000E+02 0. -1.
</event>
<event>
 5    1  0.1338054E-008  0.3854407E+03  0.7957747E-01  0.3427805E+00
         13   -1    0    0    0    0  0.00000000000E+00  0.00000000000E+00  0.14999999963E+04  0.15000000000E+04  0.10566000000E+00 0. -1.
        994   -1    0    0    0    0 -0.00000000000E+00 -0.00000000000E+00  0.11368683772E-12  0.17120000000E+03  0.17120000000E+03 0.  0.
         13    1    1    2    0    0 -0.11593177920E+02  0.74282814379E+01  0.68730439585E+02  0.70096117075E+02  0.10566000000E+00 0. -1.
        994    1    1    2    0    0  0.56148202939E+01 -0.31355013899E+01  0.15473204423E+01  0.17132773207E+03  0.17120000000E+03 0.  0.
        998    1    1    2    0    0  0.59783576264E+01 -0.42927800480E+01  0.14297222363E+04  0.14297761509E+04  0.10000000000E+02 0. -1.
</event>
<event>
 5    1  0.1338054E-008  0.3857187E+03  0.7957747E-01  0.3426630E+00
         13   -1    0    0    0    0  0.00000000000E+00  0.00000000000E+00  0.14999999963E+04  0.15000000000E+04  0.10566000000E+00 0. -1.
        994   -1    0    0    0    0 -0.00000000000E+00 -0.00000000000E+00  0.11368683772E-12  0.17120000000E+03  0.17120000000E+03 0.  0.
         13    1    1    2    0    0 -0.68080869082E+01 -0.11235596253E+02  0.69936614471E+02  0.71159889532E+02  0.10566000000E+00 0. -1.
        994    1    1    2    0    0  0.80177098457E+01  0.15732506927E+01  0.14928213856E+01  0.17140136319E+03  0.17120000000E+03 0.  0.
        998    1    1    2    0    0 -0.12096229375E+01  0.96623455598E+01  0.14285705604E+04  0.14286387473E+04  0.10000000000E+02 0. -1.
</event>
<event>
 5    1  0.1338054E-008  0.3834153E+03  0.7957747E-01  0.3436421E+00
         13   -1    0    0    0    0  0.00000000000E+00  0.00000000000E+00  0.14999999963E+04  0.15000000000E+04  0.10566000000E+00 0. -1.
        994   -1    0    0    0    0 -0.00000000000E+00 -0.00000000000E+00  0.11368683772E-12  0.17120000000E+03  0.17120000000E+03 0.  0.
         13    1    1    2    0    0 -0.10295723758E+02  0.98272355149E+01  0.40766798718E+02  0.43180082530E+02  0.10566000000E+00 0. -1.
        994    1    1    2    0    0  0.58742234287E+01 -0.11038906949E+02  0.29359991156E+01  0.17168116978E+03  0.17120000000E+03 0.  0.
        998    1    1    2    0    0  0.44215003290E+01  0.12116714341E+01  0.14562971984E+04  0.14563387477E+04  0.10000000000E+02 0. -1.
</event>
<event>
 5    1  0.1338054E-008  0.3792051E+03  0.7957747E-01  0.3454627E+00
         13   -1    0    0    0    0  0.00000000000E+00  0.00000000000E+00  0.14999999963E+04  0.15000000000E+04  0.10566000000E+00 0.  1.
        994   -1    0    0    0    0 -0.00000000000E+00 -0.00000000000E+00  0.11368683772E-12  0.17120000000E+03  0.17120000000E+03 0.  0.
         13    1    1    2    0    0  0.10890779679E+02 -0.10084554175E+02  0.21824937256E+02  0.26394059279E+02  0.10566000000E+00 0.  1.
        994    1    1    2    0    0 -0.14627512779E+02  0.13604705113E+02  0.58735927421E+01  0.17246156448E+03  0.17120000000E+03 0.  0.
        998    1    1    2    0    0  0.37367330996E+01 -0.35201509382E+01  0.14723014663E+04  0.14723443762E+04  0.10000000000E+02 0.  1.
</event>
<event>
 5    1  0.1338054E-008  0.3822901E+03  0.7957747E-01  0.3441247E+00
         13   -1    0    0    0    0  0.00000000000E+00  0.00000000000E+00  0.14999999963E+04  0.15000000000E+04  0.10566000000E+00 0. -1.
        994   -1    0    0    0    0 -0.00000000000E+00 -0.00000000000E+00  0.11368683772E-12  0.17120000000E+03  0.17120000000E+03 0.  0.
         13    1    1    2    0    0  0.49857870173E+02 -0.14516375953E+02  0.67187864045E+02  0.84916150572E+02  0.10566000000E+00 0. -1.
        994    1    1    2    0    0 -0.39332022229E+02  0.52537889411E+02  0.33504694589E+02  0.18638466234E+03  0.17120000000E+03 0.  0.
        998    1    1    2    0    0 -0.10525847944E+02 -0.38021513457E+02  0.13993074376E+04  0.13998991871E+04  0.10000000000E+02 0. -1.
</event>
<event>
 5    1  0.1338054E-008  0.3808170E+03  0.7957747E-01  0.3447609E+00
         13   -1    0    0    0    0  0.00000000000E+00  0.00000000000E+00  0.14999999963E+04  0.15000000000E+04  0.10566000000E+00 0.  1.
        994   -1    0    0    0    0 -0.00000000000E+00 -0.00000000000E+00  0.11368683772E-12  0.17120000000E+03  0.17120000000E+03 0.  0.
         13    1    1    2    0    0 -0.42194101640E+01 -0.12474923046E+02  0.22141996962E+02  0.25762498339E+02  0.10566000000E+00 0.  1.
        994    1    1    2    0    0  0.16794686231E+00  0.37636803151E+01  0.37686354411E+01  0.17128291248E+03  0.17120000000E+03 0.  0.
        998    1    1    2    0    0  0.40514633017E+01  0.87112427308E+01  0.14740893639E+04  0.14741545892E+04  0.10000000000E+02 0.  1.
</event>
<event>
 5    1  0.1338054E-008  0.3782133E+03  0.7957747E-01  0.3458975E+00
         13   -1    0    0    0    0  0.00000000000E+00  0.00000000000E+00  0.14999999963E+04  0.15000000000E+04  0.10566000000E+00 0. -1.
        994   -1    0    0    0    0 -0.00000000000E+00 -0.00000000000E+00  0.11368683772E-12  0.17120000000E+03  0.17120000000E+03 0.  0.
         13    1    1    2    0    0  0.31792965623E+01 -0.33871917756E+02  0.11282326076E+03  0.11784105427E+03  0.10566000000E+00 0. -1.
        994    1    1    2    0    0 -0.13747739112E+02  0.19889418204E+02  0.70060894871E+01  0.17304078877E+03  0.17120000000E+03 0.  0.
        998    1    1    2    0    0  0.10568442549E+02  0.13982499552E+02  0.13801706460E+04  0.13803181570E+04  0.10000000000E+02 0. -1.
</event>
<event>
 5    1  0.1338054E-008  0.3765733E+03  0.7957747E-01  0.3466216E+00
         13   -1    0    0    0    0  0.00000000000E+00  0.00000000000E+00  0.14999999963E+04  0.15000000000E+04  0.10566000000E+00 0. -1.
        994   -1    0    0    0    0 -0.00000000000E+00 -0.00000000000E+00  0.11368683772E-12  0.17120000000E+03  0.17120000000E+03 0.  0.
         13    1    1    2    0    0 -0.42133201884E+02 -0.13629616482E+02  0.16497959640E+03  0.17081935353E+03  0.10566000000E+00 0. -1.
        994    1    1    2    0    0  0.18172998938E+02  0.29481517353E+02  0.99392979204E+01  0.17495041411E+03  0.17120000000E+03 0.  0.
        998    1    1    2    0    0  0.23960202946E+02 -0.15851900871E+02  0.13250811020E+04  0.13254302324E+04  0.10000000000E+02 0. -1.
</event>
<event>
 5    1  0.1338054E-008  0.3853488E+03  0.7957747E-01  0.3428194E+00
         13   -1    0    0    0    0  0.00000000000E+00  0.00000000000E+00  0.14999999963E+04  0.15000000000E+04  0.10566000000E+00 0.  1.
        994   -1    0    0    0    0 -0.00000000000E+00 -0.00000000000E+00  0.11368683772E-12  0.17120000000E+03  0.17120000000E+03 0.  0.
         13    1    1    2    0    0 -0.11814079443E+02  0.91442658925E+00  0.48548065456E+02  0.49973337617E+02  0.10566000000E+00 0.  1.
        994    1    1    2    0    0  0.68936204974E+01 -0.25094164623E+01  0.16338812445E+01  0.17136489939E+03  0.17120000000E+03 0.  0.
        998    1    1    2    0    0  0.49204589461E+01  0.15949898731E+01  0.14498180496E+04  0.14498617630E+04  0.10000000000E+02 0.  1.
</event>
<event>
 5    1  0.1338054E-008  0.3695900E+03  0.7957747E-01  0.3497777E+00
         13   -1    0    0    0    0  0.00000000000E+00  0.00000000000E+00  0.14999999963E+04  0.15000000000E+04  0.10566000000E+00 0.  1.
        994   -1    0    0    0    0 -0.00000000000E+00 -0.00000000000E+00  0.11368683772E-12  0.17120000000E+03  0.17120000000E+03 0.  0.
         13    1    1    2    0    0 -0.31376805099E+02  0.47433716567E+02  0.18620293080E+03  0.19469464288E+03  0.10566000000E+00 0.  1.
        994    1    1    2    0    0  0.58195993622E+01 -0.11373980273E+02  0.10048926114E+02  0.17196992784E+03  0.17120000000E+03 0.  0.
        998    1    1    2    0    0  0.25557205737E+02 -0.36059736293E+02  0.13037481394E+04  0.13045354293E+04  0.10000000000E+02 0.  1.
</event>
<event>
 5    1  0.1338054E-008  0.3753928E+03  0.7957747E-01  0.3471468E+00
         13   -1    0    0    0    0  0.00000000000E+00  0.00000000000E+00  0.14999999963E+04  0.15000000000E+04  0.10566000000E+00 0.  1.
        994   -1    0    0    0    0 -0.00000000000E+00 -0.00000000000E+00  0.11368683772E-12  0.17120000000E+03  0.17120000000E+03 0.  0.
         13    1    1    2    0    0 -0.29215814126E+02 -0.62960041126E+01  0.77953408733E+02  0.83486217784E+02  0.10566000000E+00 0.  1.
        994    1    1    2    0    0 -0.17721171949E+02 -0.22404890904E+02  0.92522829636E+01  0.17381330160E+03  0.17120000000E+03 0.  0.
        998    1    1    2    0    0  0.46936986075E+02  0.28700895016E+02  0.14127943046E+04  0.14139004806E+04  0.10000000000E+02 0.  1.
</event>
<event>
 5    1  0.1338054E-008  0.3842896E+03  0.7957747E-01  0.3432691E+00
         13   -1    0    0    0    0  0.00000000000E+00  0.00000000000E+00  0.14999999963E+04  0.15000000000E+04  0.10566000000E+00 0. -1.
        994   -1    0    0    0    0 -0.00000000000E+00 -0.00000000000E+00  0.11368683772E-12  0.17120000000E+03  0.17120000000E+03 0.  0.
         13    1    1    2    0    0 -0.55809281488E+01  0.14047072211E+02  0.59367637354E+02  0.61261688890E+02  0.10566000000E+00 0. -1.
        994    1    1    2    0    0  0.70930166407E+01 -0.96527451664E+00  0.21521897781E+01  0.17136310735E+03  0.17120000000E+03 0.  0.
        998    1    1    2    0    0 -0.15120884919E+01 -0.13081797694E+02  0.14384801691E+04  0.14385752038E+04  0.10000000000E+02 0. -1.
</event>
<event>
 5    1  0.1338054E-008  0.3724571E+03  0.7957747E-01  0.3484674E+00
         13   -1    0    0    0    0  0.00000000000E+00  0.00000000000E+00  0.14999999963E+04  0.15000000000E+04  0.10566000000E+00 0. -1.
        994   -1    0    0    0    0 -0.00000000000E+00 -0.00000000000E+00  0.11368683772E-12  0.17120000000E+03  0.17120000000E+03 0.  0.
         13    1    1    2    0    0  0.16185237839E+02  0.24535707467E+02  0.52721114191E+02  0.60361327937E+02  0.10566000000E+00 0. -1.
        994    1    1    2    0    0 -0.32783077881E+01 -0.78572441827E+01  0.82389270599E+01  0.17160945052E+03  0.17120000000E+03 0.  0.
        998    1    1    2    0    0 -0.12906930051E+02 -0.16678463284E+02  0.14390399550E+04  0.14392292215E+04  0.10000000000E+02 0. -1.
</event>
<event>
 5    1  0.1338054E-008  0.3827591E+03  0.7957747E-01  0.3439232E+00
         13   -1    0    0    0    0  0.00000000000E+00  0.00000000000E+00  0.14999999963E+04  0.15000000000E+04  0.10566000000E+00 0.  1.
        994   -1    0    0    0    0 -0.00000000000E+00 -0.00000000000E+00  0.11368683772E-12  0.17120000000E+03  0.17120000000E+03 0.  0.
         13    1    1    2    0    0  0.18176387766E+02  0.19721226377E+02  0.12928415798E+03  0.13203678469E+03  0.10566000000E+00 0.  1.
        994    1    1    2    0    0 -0.58056140335E+01 -0.18001155674E+02  0.39328139708E+01  0.17228654557E+03  0.17120000000E+03 0.  0.
        998    1    1    2    0    0 -0.12370773732E+02 -0.17200707030E+01  0.13667830243E+04  0.13668766697E+04  0.10000000000E+02 0.  1.
</event>
<event>
 5    1  0.1338054E-008  0.4034025E+03  0.7957747E-01  0.3355188E+00
         13   -1    0    0    0    0  0.00000000000E+00  0.00000000000E+00  0.14999999963E+04  0.15000000000E+04  0.10566000000E+00 0.  1.
        994   -1    0    0    0    0 -0.00000000000E+00 -0.00000000000E+00  0.11368683772E-12  0.17120000000E+03  0.17120000000E+03 0.  0.
         13    1    1    2    0    0 -0.57198380864E+02  0.88764576648E+02  0.16340793375E+03  0.19455839436E+03  0.10566000000E+00 0.  1.
        994    1    1    2    0    0  0.56472828725E+02 -0.79386490893E+02  0.68611327325E+02  0.20858655172E+03  0.17120000000E+03 0.  0.
        998    1    1    2    0    0  0.72555213876E+00 -0.93780857554E+01  0.12679807352E+04  0.12680550539E+04  0.10000000000E+02 0.  1.
</event>
<event>
 5    1  0.1338054E-008  0.3852922E+03  0.7957747E-01  0.3428434E+00
         13   -1    0    0    0    0  0.00000000000E+00  0.00000000000E+00  0.14999999963E+04  0.15000000000E+04  0.10566000000E+00 0.  1.
        994   -1    0    0    0    0 -0.00000000000E+00 -0.00000000000E+00  0.11368683772E-12  0.17120000000E+03  0.17120000000E+03 0.  0.
         13    1    1    2    0    0 -0.10480427630E+02  0.61898310792E+01  0.52027622234E+02  0.53432555726E+02  0.10566000000E+00 0.  1.
        994    1    1    2    0    0 -0.63412918835E+00 -0.39091793519E+01  0.15366900724E+01  0.17125269405E+03  0.17120000000E+03 0.  0.
        998    1    1    2    0    0  0.11114556819E+02 -0.22806517273E+01  0.14464356840E+04  0.14465147502E+04  0.10000000000E+02 0.  1.
</event>
<event>
 5    1  0.1338054E-008  0.3797595E+03  0.7957747E-01  0.3452207E+00
         13   -1    0    0    0    0  0.00000000000E+00  0.00000000000E+00  0.14999999963E+04  0.15000000000E+04  0.10566000000E+00 0.  1.
        994   -1    0    0    0    0 -0.00000000000E+00 -0.00000000000E+00  0.11368683772E-12  0.17120000000E+03  0.17120000000E+03 0.  0.
         13    1    1    2    0    0 -0.15375930360E+02  0.46475204714E+02  0.27283757699E+03  0.27719436948E+03  0.10566000000E+00 0.  1.
        994    1    1    2    0    0  0.24719150376E+02 -0.24893273459E+02  0.83830385983E+01  0.17495835732E+03  0.17120000000E+03 0.  0.
        998    1    1    2    0    0 -0.93432200165E+01 -0.21581931256E+02  0.12187793807E+04  0.12190472732E+04  0.10000000000E+02 0.  1.
</event>
<event>
 5    1  0.1338054E-008  0.3843150E+03  0.7957747E-01  0.3432583E+00
         13   -1    0    0    0    0  0.00000000000E+00  0.00000000000E+00  0.14999999963E+04  0.15000000000E+04  0.10566000000E+00 0. -1.
        994   -1    0    0    0    0 -0.00000000000E+00 -0.00000000000E+00  0.11368683772E-12  0.17120000000E+03  0.17120000000E+03 0.  0.
         13    1    1    2    0    0  0.13658578253E+02 -0.12561926373E+02  0.91066260637E+02  0.92937795027E+02  0.10566000000E+00 0. -1.
        994    1    1    2    0    0 -0.87426603769E+00  0.70082023574E+01  0.21350343446E+01  0.17135891460E+03  0.17120000000E+03 0.  0.
        998    1    1    2    0    0 -0.12784312215E+02  0.55537240156E+01  0.14067987013E+04  0.14069032904E+04  0.10000000000E+02 0. -1.
</event>
<event>
 5    1  0.1338054E-008  0.3857124E+03  0.7957747E-01  0.3426657E+00
         13   -1    0    0    0    0  0.00000000000E+00  0.00000000000E+00  0.14999999963E+04  0.15000000000E+04  0.10566000000E+00 0.  1.
        994   -1    0    0    0    0 -0.00000000000E+00 -0.00000000000E+00  0.11368683772E-12  0.17120000000E+03  0.17120000000E+03 0.  0.
         13    1    1    2    0    0 -0.85711895640E+01 -0.87608204670E+01  0.59276352368E+02  0.60530276556E+02  0.10566000000E+00 0.  1.
        994    1    1    2    0    0  0.71560117326E+01  0.44211360290E+01  0.15090618695E+01  0.17141316232E+03  0.17120000000E+03 0.  0.
        998    1    1    2    0    0  0.14151778314E+01  0.43396844380E+01  0.14392145820E+04  0.14392565611E+04  0.10000000000E+02 0.  1.
</event>
<event>
 5    1  0.1338054E-008  0.3838712E+03  0.7957747E-01  0.3434474E+00
         13   -1    0    0    0    0  0.00000000000E+00  0.00000000000E+00  0.14999999963E+04  0.15000000000E+04  0.10566000000E+00 0. -1.
        994   -1    0    0    0    0 -0.00000000000E+00 -0.00000000000E+00  0.11368683772E-12  0.17120000000E+03  0.17120000000E+03 0.  0.
         13    1    1    2    0    0  0.10551232858E+02  0.67246194851E+01  0.36545787032E+02  0.38628418760E+02  0.10566000000E+00 0. -1.
        994    1    1    2    0    0  0.33548201195E+01 -0.37253041489E+01  0.22745824667E+01  0.17128848891E+03  0.17120000000E+03 0.  0.
        998    1    1    2    0    0 -0.13906052978E+02 -0.29993153362E+01  0.14611796268E+04  0.14612830923E+04  0.10000000000E+02 0. -1.
</event>
<event>
 5    1  0.1338054E-008  0.3764985E+03  0.7957747E-01  0.3466548E+00
         13   -1    0    0    0    0  0.00000000000E+00  0.00000000000E+00  0.14999999963E+04  0.15000000000E+04  0.10566000000E+00 0.  1.
        994   -1    0    0    0    0 -0.00000000000E+00 -0.00000000000E+00  0.11368683772E-12  0.17120000000E+03  0.17120000000E+03 0.  0.
         13    1    1    2    0    0  0.33758873620E+02 -0.27686347454E+01  0.87772899400E+02  0.94081985096E+02  0.10566000000E+00 0.  1.
        994    1    1    2    0    0 -0.39395465370E+02  0.52145239757E+01  0.11270899900E+02  0.17611265467E+03  0.17120000000E+03 0.  0.
        998    1    1    2    0    0  0.56365917502E+01 -0.24458892303E+01  0.14009561970E+04  0.14010053602E+04  0.10000000000E+02 0.  1.
</event>
<event>
 5    1  0.1338054E-008  0.3803921E+03  0.7957747E-01  0.3449453E+00
         13   -1    0    0    0    0  0.00000000000E+00  0.00000000000E+00  0.14999999963E+04  0.15000000000E+04  0.10566000000E+00 0. -1.
        994   -1    0    0    0    0 -0.00000000000E+00 -0.00000000000E+00  0.11368683772E-12  0.17120000000E+03  0.17120000000E+03 0.  0.
         13    1    1    2    0    0  0.14992749001E+02  0.42227140976E+01  0.28744436089E+02  0.32693540754E+02  0.10566000000E+00 0. -1.
        994    1    1    2    0    0 -0.15973808177E+02 -0.42229214663E+01  0.48472685453E+01  0.17206374291E+03  0.17120000000E+03 0.  0.
        998    1    1    2    0    0  0.98105917677E+00  0.20736874096E-03  0.14664082916E+04  0.14664427163E+04  0.10000000000E+02 0. -1.
</event>
<event>
 5    1  0.1338054E-008  0.3816102E+03  0.7957747E-01  0.3444177E+00
         13   -1    0    0    0    0  0.00000000000E+00  0.00000000000E+00  0.14999999963E+04  0.15000000000E+04  0.10566000000E+00 0. -1.
        994   -1    0    0    0    0 -0.00000000000E+00 -0.00000000000E+00  0.11368683772E-12  0.17120000000E+03  0.17120000000E+03 0.  0.
         13    1    1    2    0    0  0.27671004781E+02 -0.11939085442E+02  0.13975377118E+03  0.14296626871E+03  0.10566000000E+00 0. -1.
        994    1    1    2    0    0 -0.54043564262E+01  0.22571477098E+02  0.51158191989E+01  0.17284180702E+03  0.17120000000E+03 0.  0.
        998    1    1    2    0    0 -0.22266648355E+02 -0.10632391655E+02  0.13551304059E+04  0.13553919243E+04  0.10000000000E+02 0. -1.
</event>
<event>
 5    1  0.1338054E-008  0.3854445E+03  0.7957747E-01  0.3427789E+00
         13   -1    0    0    0    0  0.00000000000E+00  0.00000000000E+00  0.14999999963E+04  0.15000000000E+04  0.10566000000E+00 0. -1.
        994   -1    0    0    0    0 -0.00000000000E+00 -0.00000000000E+00  0.11368683772E-12  0.17120000000E+03  0.17120000000E+03 0.  0.
         13    1    1    2    0    0  0.14386146635E+01  0.16060584205E+02  0.92376732054E+02  0.93773577121E+02  0.10566000000E+00 0. -1.
        994    1    1    2    0    0 -0.40312470215E+01 -0.10445848084E+02  0.18214293398E+01  0.17157541869E+03  0.17120000000E+03 0.  0.
        998    1    1    2    0    0  0.25926323580E+01 -0.56147361211E+01  0.14058018349E+04  0.14058510042E+04  0.10000000000E+02 0. -1.
</event>
<event>
 5    1  0.1338054E-008  0.3803330E+03  0.7957747E-01  0.3449710E+00
         13   -1    0    0    0    0  0.00000000000E+00  0.00000000000E+00  0.14999999963E+04  0.15000000000E+04  0.10566000000E+00 0.  1.
        994   -1    0    0    0    0 -0.00000000000E+00 -0.00000000000E+00  0.11368683772E-12  0.17120000000E+03  0.17120000000E+03 0.  0.
         13    1    1    2    0    0  0.11864364001E+02 -0.13592713993E+02  0.40916102467E+02  0.44717598459E+02  0.10566000000E+00 0.  1.
        994    1    1    2    0    0 -0.16032880982E+01  0.16507864552E+01  0.39828154676E+01  0.17126178338E+03  0.17120000000E+03 0.  0.
        998    1    1    2    0    0 -0.10261075902E+02  0.11941927538E+02  0.14551010783E+04  0.14552206182E+04  0.10000000000E+02 0.  1.
</event>
<event>
 5    1  0.1338054E-008  0.3739107E+03  0.7957747E-01  0.3478109E+00
         13   -1    0    0    0    0  0.00000000000E+00  0.00000000000E+00  0.14999999963E+04  0.15000000000E+04  0.10566000000E+00 0.  1.
        994   -1    0    0    0    0 -0.00000000000E+00 -0.00000000000E+00  0.11368683772E-12  0.17120000000E+03  0.17120000000E+03 0.  0.
         13    1    1    2    0    0  0.64263897583E+02 -0.87879969691E+02  0.32963254982E+03  0.34714603075E+03  0.10566000000E+00 0.  1.
        994    1    1    2    0    0 -0.64159054695E+02  0.96771345265E+02  0.62484015639E+02  0.21608972621E+03  0.17120000000E+03 0.  0.
        998    1    1    2    0    0 -0.10484288789E+00 -0.88913755737E+01  0.11078834308E+04  0.11079642430E+04  0.10000000000E+02 0.  0.
</event>
<event>
 5    1  0.1338054E-008  0.4239519E+03  0.7957747E-01  0.3279597E+00
         13   -1    0    0    0    0  0.00000000000E+00  0.00000000000E+00  0.14999999963E+04  0.15000000000E+04  0.10566000000E+00 0.  1.
        994   -1    0    0    0    0 -0.00000000000E+00 -0.00000000000E+00  0.11368683772E-12  0.17120000000E+03  0.17120000000E+03 0.  0.
         13    1    1    2    0    0  0.49287198031E+02 -0.31019247946E+02  0.24271323423E+02  0.63091441080E+02  0.10566000000E+00 0.  1.
        994    1    1    2    0    0 -0.39002989871E+02  0.35327297689E+02  0.55083333801E+02  0.18738427053E+03  0.17120000000E+03 0.  0.
        998    1    1    2    0    0 -0.10284208160E+02 -0.43080497428E+01  0.14206453391E+04  0.14207242884E+04  0.10000000000E+02 0.  1.
</event>
<event>
 5    1  0.1338054E-008  0.3838794E+03  0.7957747E-01  0.3434439E+00
         13   -1    0    0    0    0  0.00000000000E+00  0.00000000000E+00  0.14999999963E+04  0.15000000000E+04  0.10566000000E+00 0.  1.
        994   -1    0    0    0    0 -0.00000000000E+00 -0.00000000000E+00  0.11368683772E-12  0.17120000000E+03  0.17120000000E+03 0.  0.
         13    1    1    2    0    0  0.14885014741E+02  0.22289658576E+01  0.51982459389E+02  0.54117642233E+02  0.10566000000E+00 0.  1.
        994    1    1    2    0    0 -0.74555781006E+01  0.11480842410E+01  0.23753722076E+01  0.17138257244E+03  0.17120000000E+03 0.  0.
        998    1    1    2    0    0 -0.74294366403E+01 -0.33770500986E+01  0.14456421647E+04  0.14456997853E+04  0.10000000000E+02 0.  1.
</event>
<event>
 5    1  0.1338054E-008  0.3855109E+03  0.7957747E-01  0.3427508E+00
         13   -1    0    0    0    0  0.00000000000E+00  0.00000000000E+00  0.14999999963E+04  0.15000000000E+04  0.10566000000E+00 0. -1.
        994   -1    0    0    0    0 -0.00000000000E+00 -0.00000000000E+00  0.11368683772E-12  0.17120000000E+03  0.17120000000E+03 0.  0.
         13    1    1    2    0    0 -0.13697048286E+02 -0.80255548056E+01  0.90799681961E+02  0.92177069111E+02  0.10566000000E+00 0. -1.
        994    1    1    2    0    0  0.11176913025E+02  0.44252607842E+01  0.18512772391E+01  0.17163150511E+03  0.17120000000E+03 0.  0.
        998    1    1    2    0    0  0.25201352605E+01  0.36002940214E+01  0.14073490371E+04  0.14073914258E+04  0.10000000000E+02 0.  0.
</event>
<event>
 5    1  0.1338054E-008  0.3850930E+03  0.7957747E-01  0.3429278E+00
         13   -1    0    0    0    0  0.00000000000E+00  0.00000000000E+00  0.14999999963E+04  0.15000000000E+04  0.10566000000E+00 0. -1.
        994   -1    0    0    0    0 -0.00000000000E+00 -0.00000000000E+00  0.11368683772E-12  0.17120000000E+03  0.17120000000E+03 0.  0.
         13    1    1    2    0    0  0.10613548979E+02  0.32238862622E+01  0.38856934199E+02  0.40409322735E+02  0.10566000000E+00 0. -1.
        994    1    1    2    0    0 -0.41542842306E+01 -0.10261211728E+02  0.19869654472E+01  0.17156904900E+03  0.17120000000E+03 0.  0.
        998    1    1    2    0    0 -0.64592647482E+01  0.70373254657E+01  0.14591560966E+04  0.14592216283E+04  0.10000000000E+02 0. -1.
</event>
<event>
 5    1  0.1338054E-008  0.3795317E+03  0.7957747E-01  0.3453200E+00
         13   -1    0    0    0    0  0.00000000000E+00  0.00000000000E+00  0.14999999963E+04  0.15000000000E+04  0.10566000000E+00 0. -1.
        994   -1    0    0    0    0 -0.00000000000E+00 -0.00000000000E+00  0.11368683772E-12  0.17120000000E+03  0.17120000000E+03 0.  0.
         13    1    1    2    0    0 -0.78863910537E+01  0.23393445925E+02  0.72616892888E+02  0.76698583904E+02  0.10566000000E+00 0. -1.
        994    1    1    2    0    0  0.63518134051E+01  0.10852926068E+01  0.45087441496E+01  0.17138054781E+03  0.17120000000E+03 0.  0.
        998    1    1    2    0    0  0.15345776486E+01 -0.24478738532E+02  0.14228743592E+04  0.14231208683E+04  0.10000000000E+02 0. -1.
</event>
<event>
 5    1  0.1338054E-008  0.3822889E+03  0.7957747E-01  0.3441252E+00
         13   -1    0    0    0    0  0.00000000000E+00  0.00000000000E+00  0.14999999963E+04  0.15000000000E+04  0.10566000000E+00 0. -1.
        994   -1    0    0    0    0 -0.00000000000E+00 -0.00000000000E+00  0.11368683772E-12  0.17120000000E+03  0.17120000000E+03 0.  0.
         13    1    1    2    0    0 -0.77493847320E+01 -0.10054307449E+02  0.26093504629E+02  0.29017653418E+02  0.10566000000E+00 0. -1.
        994    1    1    2    0    0  0.67637889074E+01  0.30823850704E+01  0.31655160459E+01  0.17139052025E+03  0.17120000000E+03 0.  0.
        998    1    1    2    0    0  0.98559582457E+00  0.69719223783E+01  0.14707409756E+04  0.14707918263E+04  0.10000000000E+02 0. -1.
</event>
<event>
 5    1  0.1338054E-008  0.3820015E+03  0.7957747E-01  0.3442490E+00
         13   -1    0    0    0    0  0.00000000000E+00  0.00000000000E+00  0.14999999963E+04  0.15000000000E+04  0.10566000000E+00 0.  1.
        994   -1    0    0    0    0 -0.00000000000E+00 -0.00000000000E+00  0.11368683772E-12  0.17120000000E+03  0.17120000000E+03 0.  0.
         13    1    1    2    0    0  0.32839635107E+01  0.96131769379E+01  0.15136228235E+02  0.18229485906E+02  0.10566000000E+00 0.  1.
        994    1    1    2    0    0 -0.38026898586E+01 -0.85526393601E+01  0.34171984768E+01  0.17148972370E+03  0.17120000000E+03 0.  0.
        998    1    1    2    0    0  0.51872634791E+00 -0.10605375778E+01  0.14814465696E+04  0.14814807904E+04  0.10000000000E+02 0.  1.
</event>
<event>
 5    1  0.1338054E-008  0.3700563E+03  0.7957747E-01  0.3495632E+00
         13   -1    0    0    0    0  0.00000000000E+00  0.00000000000E+00  0.14999999963E+04  0.15000000000E+04  0.10566000000E+00 0.  1.
        994   -1    0    0    0    0 -0.00000000000E+00 -0.00000000000E+00  0.11368683772E-12  0.17120000000E+03  0.17120000000E+03 0.  0.
         13    1    1    2    0    0  0.20917410674E+02  0.82737426254E+01  0.23736004809E+02  0.32701712106E+02  0.10566000000E+00 0.  1.
        994    1    1    2    0    0 -0.92754802842E+01 -0.84067854590E+01  0.97815454946E+01  0.17193553213E+03  0.17120000000E+03 0.  0.
        998    1    1    2    0    0 -0.11641930390E+02  0.13304283357E+00  0.14664824460E+04  0.14665627558E+04  0.10000000000E+02 0.  1.
</event>
<event>
 5    1  0.1338054E-008  0.3762433E+03  0.7957747E-01  0.3467681E+00
         13   -1    0    0    0    0  0.00000000000E+00  0.00000000000E+00  0.14999999963E+04  0.15000000000E+04  0.10566000000E+00 0. -1.
        994   -1    0    0    0    0 -0.00000000000E+00 -0.00000000000E+00  0.11368683772E-12  0.17120000000E+03  0.17120000000E+03 0.  0.
         13    1    1    2    0    0  0.17729067244E+02 -0.10632977034E+02  0.33840452882E+02  0.39655610464E+02  0.10566000000E+00 0. -1.
        994    1    1    2    0    0  0.89850194098E+01  0.22973658272E+02  0.81041970565E+01  0.17315784001E+03  0.17120000000E+03 0.  0.
        998    1    1    2    0    0 -0.26714086653E+02 -0.12340681238E+02  0.14580553463E+04  0.14583865495E+04  0.10000000000E+02 0. -1.
</event>
<event>
 5    1  0.1342018E-008  0.3855732E+03  0.7957747E-01  0.3427245E+00
         13   -1    0    0    0    0  0.00000000000E+00  0.00000000000E+00  0.14999999963E+04  0.15000000000E+04  0.10566000000E+00 0.  1.
        994   -1    0    0    0    0 -0.00000000000E+00 -0.00000000000E+00  0.11368683772E-12  0.17120000000E+03  0.17120000000E+03 0.  0.
         13    1    1    2    0    0  0.53751027317E+01  0.10438328482E+02  0.51000469374E+02  0.52334591537E+02  0.10566000000E+00 0.  1.
        994    1    1    2    0    0 -0.17313660816E+01 -0.97384399895E+01  0.16670170218E+01  0.17149359693E+03  0.17120000000E+03 0.  0.
        998    1    1    2    0    0 -0.36437366501E+01 -0.69988849291E+00  0.14473325099E+04  0.14473718115E+04  0.10000000000E+02 0.  1.
</event>
<event>
 5    1  0.1338054E-008  0.3820719E+03  0.7957747E-01  0.3442186E+00
         13   -1    0    0    0    0  0.00000000000E+00  0.00000000000E+00  0.14999999963E+04  0.15000000000E+04  0.10566000000E+00 0.  1.
        994   -1    0    0    0    0 -0.00000000000E+00 -0.00000000000E+00  0.11368683772E-12  0.17120000000E+03  0.17120000000E+03 0.  0.
         13    1    1    2    0    0 -0.13738419980E+02 -0.97124002093E+01  0.49122404645E+02  0.51923951155E+02  0.10566000000E+00 0.  1.
        994    1    1    2    0    0 -0.85246915170E+01 -0.70935229229E+01  0.34993517395E+01  0.17159450427E+03  0.17120000000E+03 0.  0.
        998    1    1    2    0    0  0.22263111497E+02  0.16805923132E+02  0.14473782399E+04  0.14476815446E+04  0.10000000000E+02 0.  1.
</event>
<event>
 5    1  0.1338054E-008  0.3800967E+03  0.7957747E-01  0.3450738E+00
         13   -1    0    0    0    0  0.00000000000E+00  0.00000000000E+00  0.14999999963E+04  0.15000000000E+04  0.10566000000E+00 0. -1.
        994   -1    0    0    0    0 -0.00000000000E+00 -0.00000000000E+00  0.11368683772E-12  0.17120000000E+03  0.17120000000E+03 0.  0.
         13    1    1    2    0    0  0.18439396885E+02 -0.22995221590E+02  0.11375851760E+03  0.11751511845E+03  0.10566000000E+00 0. -1.
        994    1    1    2    0    0  0.35043014023E+01  0.71773395622E+01  0.42975796592E+01  0.17144008727E+03  0.17120000000E+03 0.  0.
        998    1    1    2    0    0 -0.21943698287E+02  0.15817882028E+02  0.13819438990E+04  0.13822447943E+04  0.10000000000E+02 0. -1.
</event>
<event>
 5    1  0.1338054E-008  0.3833511E+03  0.7957747E-01  0.3436695E+00
         13   -1    0    0    0    0  0.00000000000E+00  0.00000000000E+00  0.14999999963E+04  0.15000000000E+04  0.10566000000E+00 0. -1.
        994   -1    0    0    0    0 -0.00000000000E+00 -0.00000000000E+00  0.11368683772E-12  0.17120000000E+03  0.17120000000E+03 0.  0.
         13    1    1    2    0    0 -0.93280325166E+01 -0.51329438762E+01  0.22695524422E+02  0.25069050566E+02  0.10566000000E+00 0. -1.
        994    1    1    2    0    0  0.45514477730E+01 -0.47000810494E+01  0.25925307299E+01  0.17134458747E+03  0.17120000000E+03 0.  0.
        998    1    1    2    0    0  0.47765847436E+01  0.98330249257E+01  0.14747119411E+04  0.14747863620E+04  0.10000000000E+02 0. -1.
</event>
<event>
 5    1  0.1338054E-008  0.3776236E+03  0.7957747E-01  0.3461571E+00
         13   -1    0    0    0    0  0.00000000000E+00  0.00000000000E+00  0.14999999963E+04  0.15000000000E+04  0.10566000000E+00 0. -1.
        994   -1    0    0    0    0 -0.00000000000E+00 -0.00000000000E+00  0.11368683772E-12  0.17120000000E+03  0.17120000000E+03 0.  0.
         13    1    1    2    0    0 -0.95557762281E+01 -0.35508514360E+02  0.10703685484E+03  0.11317714835E+03  0.10566000000E+00 0. -1.
        994    1    1    2    0    0  0.21334368762E+02  0.50902992323E+02  0.15671279963E+02  0.18055829788E+03  0.17120000000E+03 0.  0.
        998    1    1    2    0    0 -0.11778592534E+02 -0.15394477963E+02  0.13772918615E+04  0.13774645538E+04  0.10000000000E+02 0. -1.
</event>
<event>
 5    1  0.1338054E-008  0.3802526E+03  0.7957747E-01  0.3450059E+00
         13   -1    0    0    0    0  0.00000000000E+00  0.00000000000E+00  0.14999999963E+04  0.15000000000E+04  0.10566000000E+00 0. -1.
        994   -1    0    0    0    0 -0.00000000000E+00 -0.00000000000E+00  0.11368683772E-12  0.17120000000E+03  0.17120000000E+03 0.  0.
         13    1    1    2    0    0  0.34254664645E+01  0.15887957696E+02  0.31409098573E+02  0.35365288879E+02  0.10566000000E+00 0. -1.
        994    1    1    2    0    0 -0.29684813562E+01 -0.10566502571E+02  0.44081609040E+01  0.17160808472E+03  0.17120000000E+03 0.  0.
        998    1    1    2    0    0 -0.45698510824E+00 -0.53214551257E+01  0.14641827368E+04  0.14642266264E+04  0.10000000000E+02 0. -1.
</event>
<event>
 5    1  0.1338054E-008  0.3728004E+03  0.7957747E-01  0.3483119E+00
         13   -1    0    0    0    0  0.00000000000E+00  0.00000000000E+00  0.14999999963E+04  0.15000000000E+04  0.10566000000E+00 0. -1.
        994   -1    0    0    0    0 -0.00000000000E+00 -0.00000000000E+00  0.11368683772E-12  0.17120000000E+03  0.17120000000E+03 0.  0.
         13    1    1    2    0    0  0.34048824017E+02  0.27210455723E+02  0.12349949133E+03  0.13096513598E+03  0.10566000000E+00 0. -1.
        994    1    1    2    0    0 -0.63208095122E+01 -0.20696135391E+02  0.94179322854E+01  0.17281903860E+03  0.17120000000E+03 0.  0.
        998    1    1    2    0    0 -0.27728014505E+02 -0.65143203319E+01  0.13670825727E+04  0.13674158254E+04  0.10000000000E+02 0. -1.
</event>
<event>
 5    1  0.1338054E-008  0.3853475E+03  0.7957747E-01  0.3428200E+00
         13   -1    0    0    0    0  0.00000000000E+00  0.00000000000E+00  0.14999999963E+04  0.15000000000E+04  0.10566000000E+00 0.  1.
        994   -1    0    0    0    0 -0.00000000000E+00 -0.00000000000E+00  0.11368683772E-12  0.17120000000E+03  0.17120000000E+03 0.  0.
         13    1    1    2    0    0  0.82562117642E+01 -0.13916279607E+02  0.96353740242E+02  0.97703031137E+02  0.10566000000E+00 0.  1.
        994    1    1    2    0    0 -0.69044102945E+01 -0.12971103929E+01  0.16198725550E+01  0.17135173581E+03  0.17120000000E+03 0.  0.
        998    1    1    2    0    0 -0.13518014697E+01  0.15213389999E+02  0.14020263835E+04  0.14021452331E+04  0.10000000000E+02 0.  1.
</event>
<event>
 5    1  0.1338054E-008  0.3765847E+03  0.7957747E-01  0.3466166E+00
         13   -1    0    0    0    0  0.00000000000E+00  0.00000000000E+00  0.14999999963E+04  0.15000000000E+04  0.10566000000E+00 0.  1.
        994   -1    0    0    0    0 -0.00000000000E+00 -0.00000000000E+00  0.11368683772E-12  0.17120000000E+03  0.17120000000E+03 0.  0.
         13    1    1    2    0    0  0.81169417864E+01  0.27965004306E+02  0.22618212431E+02  0.36871681646E+02  0.10566000000E+00 0.  1.
        994    1    1    2    0    0 -0.12279289664E+02 -0.32643632836E+02  0.18829303236E+02  0.17572811494E+03  0.17120000000E+03 0.  0.
        998    1    1    2    0    0  0.41623478780E+01  0.46786285303E+01  0.14585524806E+04  0.14586002034E+04  0.10000000000E+02 0.  1.
</event>
<event>
 5    1  0.1338054E-008  0.3860844E+03  0.7957747E-01  0.3425086E+00
         13   -1    0    0    0    0  0.00000000000E+00  0.00000000000E+00  0.14999999963E+04  0.15000000000E+04  0.10566000000E+00 0.  1.
        994   -1    0    0    0    0 -0.00000000000E+00 -0.00000000000E+00  0.11368683772E-12  0.17120000000E+03  0.17120000000E+03 0.  0.
         13    1    1    2    0    0 -0.33037850457E+00  0.13226422421E+02  0.74556211043E+02  0.75721114421E+02  0.10566000000E+00 0.  1.
        994    1    1    2    0    0 -0.11739113937E+02 -0.19701342641E+02  0.28182028955E+01  0.17275222709E+03  0.17120000000E+03 0.  0.
        998    1    1    2    0    0  0.12069492442E+02  0.64749202204E+01  0.14226255823E+04  0.14227266585E+04  0.10000000000E+02 0.  1.
</event>
<event>
 5    1  0.1338054E-008  0.3702714E+03  0.7957747E-01  0.3494645E+00
         13   -1    0    0    0    0  0.00000000000E+00  0.00000000000E+00  0.14999999963E+04  0.15000000000E+04  0.10566000000E+00 0. -1.
        994   -1    0    0    0    0 -0.00000000000E+00 -0.00000000000E+00  0.11368683772E-12  0.17120000000E+03  0.17120000000E+03 0.  0.
         13    1    1    2    0    0 -0.59538887678E+01 -0.80322145915E+02  0.30648184685E+03  0.31688835499E+03  0.10566000000E+00 0. -1.
        994    1    1    2    0    0  0.50447732950E+01  0.67449421784E+02  0.25101003741E+02  0.18578044737E+03  0.17120000000E+03 0.  0.
        998    1    1    2    0    0  0.90911547283E+00  0.12872724131E+02  0.11684171457E+04  0.11685311976E+04  0.10000000000E+02 0. -1.
</event>
<event>
 5    1  0.1338054E-008  0.3828694E+03  0.7957747E-01  0.3438759E+00
         13   -1    0    0    0    0  0.00000000000E+00  0.00000000000E+00  0.14999999963E+04  0.15000000000E+04  0.10566000000E+00 0. -1.
        994   -1    0    0    0    0 -0.00000000000E+00 -0.00000000000E+00  0.11368683772E-12  0.17120000000E+03  0.17120000000E+03 0.  0.
         13    1    1    2    0    0  0.28559024484E+02  0.68662562434E+01  0.12504618290E+03  0.12844968811E+03  0.10566000000E+00 0. -1.
        994    1    1    2    0    0 -0.45019368553E+02 -0.51599997811E+02  0.18378654621E+02  0.18530115559E+03  0.17120000000E+03 0.  0.
        998    1    1    2    0    0  0.16460344069E+02  0.44733741568E+02  0.13565751588E+04  0.13574491563E+04  0.10000000000E+02 0. -1.
</event>
<event>
 5    1  0.1338054E-008  0.3850870E+03  0.7957747E-01  0.3429303E+00
         13   -1    0    0    0    0  0.00000000000E+00  0.00000000000E+00  0.14999999963E+04  0.15000000000E+04  0.10566000000E+00 0.  1.
        994   -1    0    0    0    0 -0.00000000000E+00 -0.00000000000E+00  0.11368683772E-12  0.17120000000E+03  0.17120000000E+03 0.  0.
         13    1    1    2    0    0  0.11678812837E+02  0.12667842549E+02  0.99090425236E+02  0.10057729586E+03  0.10566000000E+00 0.  1.
        994    1    1    2    0    0 -0.25581007903E+01 -0.31003329561E+01  0.16400619199E+01  0.17125503130E+03  0.17120000000E+03 0.  0.
        998    1    1    2    0    0 -0.91207120468E+01 -0.95675095927E+01  0.13992695091E+04  0.13993676728E+04  0.10000000000E+02 0.  1.
</event>
<event>
 5    1  0.1338054E-008  0.3808583E+03  0.7957747E-01  0.3447430E+00
         13   -1    0    0    0    0  0.00000000000E+00  0.00000000000E+00  0.14999999963E+04  0.15000000000E+04  0.10566000000E+00 0.  1.
        994   -1    0    0    0    0 -0.00000000000E+00 -0.00000000000E+00  0.11368683772E-12  0.17120000000E+03  0.17120000000E+03 0.  0.
         13    1    1    2    0    0 -0.30810762516E+02 -0.46387106741E+01  0.15210276797E+03  0.15526134069E+03  0.10566000000E+00 0.  1.
        994    1    1    2    0    0 -0.44412670275E+01 -0.38349808763E+00  0.37667720299E+01  0.17129944686E+03  0.17120000000E+03 0.  0.
        998    1    1    2    0    0  0.35252029543E+02  0.50222087617E+01  0.13441304563E+04  0.13446392125E+04  0.10000000000E+02 0.  1.
</event>
<event>
 5    1  0.1338054E-008  0.3798937E+03  0.7957747E-01  0.3451622E+00
         13   -1    0    0    0    0  0.00000000000E+00  0.00000000000E+00  0.14999999963E+04  0.15000000000E+04  0.10566000000E+00 0. -1.
        994   -1    0    0    0    0 -0.00000000000E+00 -0.00000000000E+00  0.11368683772E-12  0.17120000000E+03  0.17120000000E+03 0.  0.
         13    1    1    2    0    0  0.87921397705E+01  0.70563244371E+01  0.13612027226E+02  0.17674611326E+02  0.10566000000E+00 0. -1.
        994    1    1    2    0    0 -0.46058985595E+01  0.50447780282E+01  0.43428931060E+01  0.17139126234E+03  0.17120000000E+03 0.  0.
        998    1    1    2    0    0 -0.41862412110E+01 -0.12101102465E+02  0.14820450759E+04  0.14821341263E+04  0.10000000000E+02 0. -1.
</event>
<event>
 5    1  0.1338054E-008  0.3860482E+03  0.7957747E-01  0.3425239E+00
         13   -1    0    0    0    0  0.00000000000E+00  0.00000000000E+00  0.14999999963E+04  0.15000000000E+04  0.10566000000E+00 0. -1.
        994   -1    0    0    0    0 -0.00000000000E+00 -0.00000000000E+00  0.11368683772E-12  0.17120000000E+03  0.17120000000E+03 0.  0.
         13    1    1    2    0    0 -0.10731731771E+02 -0.73830735266E+01  0.75514182472E+02  0.76629516245E+02  0.10566000000E+00 0. -1.
        994    1    1    2    0    0  0.88736537350E+01  0.73676533416E+01  0.15467173543E+01  0.17159503600E+03  0.17120000000E+03 0.  0.
        998    1    1    2    0    0  0.18580780356E+01  0.15420185047E-01  0.14229390965E+04  0.14229754478E+04  0.10000000000E+02 0.  0.
</event>
<event>
 5    1  0.1338054E-008  0.3849398E+03  0.7957747E-01  0.3429928E+00
         13   -1    0    0    0    0  0.00000000000E+00  0.00000000000E+00  0.14999999963E+04  0.15000000000E+04  0.10566000000E+00 0. -1.
        994   -1    0    0    0    0 -0.00000000000E+00 -0.00000000000E+00  0.11368683772E-12  0.17120000000E+03  0.17120000000E+03 0.  0.
         13    1    1    2    0    0  0.71188940851E+01 -0.17876222816E+02  0.11192680307E+03  0.11356873868E+03  0.10566000000E+00 0. -1.
        994    1    1    2    0    0 -0.31069968598E+01  0.11390224615E+02  0.21186844157E+01  0.17161969430E+03  0.17120000000E+03 0.  0.
        998    1    1    2    0    0 -0.40118972253E+01  0.64859982010E+01  0.13859545088E+04  0.13860115670E+04  0.10000000000E+02 0. -1.
</event>
<event>
 5    1  0.1338054E-008  0.3816005E+03  0.7957747E-01  0.3444219E+00
         13   -1    0    0    0    0  0.00000000000E+00  0.00000000000E+00  0.14999999963E+04  0.15000000000E+04  0.10566000000E+00 0. -1.
        994   -1    0    0    0    0 -0.00000000000E+00 -0.00000000000E+00  0.11368683772E-12  0.17120000000E+03  0.17120000000E+03 0.  0.
         13    1    1    2    0    0  0.14083978805E+02 -0.97093599552E+01  0.43891409560E+02  0.47107293776E+02  0.10566000000E+00 0. -1.
        994    1    1    2    0    0 -0.55735738038E+01  0.30231426859E+00  0.34310119715E+01  0.17132532785E+03  0.17120000000E+03 0.  0.
        998    1    1    2    0    0 -0.85104050008E+01  0.94070456866E+01  0.14526775747E+04  0.14527673784E+04  0.10000000000E+02 0. -1.
</event>
<event>
 5    1  0.1338054E-008  0.3845177E+03  0.7957747E-01  0.3431720E+00
         13   -1    0    0    0    0  0.00000000000E+00  0.00000000000E+00  0.14999999963E+04  0.15000000000E+04  0.10566000000E+00 0. -1.
        994   -1    0    0    0    0 -0.00000000000E+00 -0.00000000000E+00  0.11368683772E-12  0.17120000000E+03  0.17120000000E+03 0.  0.
         13    1    1    2    0    0 -0.11568749162E+02  0.37036116052E+01  0.39381507051E+02  0.41212461194E+02  0.10566000000E+00 0. -1.
        994    1    1    2    0    0  0.86315872613E+01  0.46072785778E+01  0.21851532150E+01  0.17149328328E+03  0.17120000000E+03 0.  0.
        998    1    1    2    0    0  0.29371619004E+01 -0.83108901830E+01  0.14584333360E+04  0.14584942555E+04  0.10000000000E+02 0. -1.
</event>
<event>
 5    1  0.1338054E-008  0.3801474E+03  0.7957747E-01  0.3450517E+00
         13   -1    0    0    0    0  0.00000000000E+00  0.00000000000E+00  0.14999999963E+04  0.15000000000E+04  0.10566000000E+00 0.  1.
        994   -1    0    0    0    0 -0.00000000000E+00 -0.00000000000E+00  0.11368683772E-12  0.17120000000E+03  0.17120000000E+03 0.  0.
         13    1    1    2    0    0 -0.14318473795E+01 -0.22867073134E+02  0.61451973613E+02  0.65584368912E+02  0.10566000000E+00 0.  1.
        994    1    1    2    0    0  0.75124833900E+01  0.21019770898E+02  0.57253761504E+01  0.17274399586E+03  0.17120000000E+03 0.  0.
        998    1    1    2    0    0 -0.60806360105E+01  0.18473022361E+01  0.14328226465E+04  0.14328716352E+04  0.10000000000E+02 0.  1.
</event>
<event>
 5    1  0.1338054E-008  0.3746657E+03  0.7957747E-01  0.3474719E+00
         13   -1    0    0    0    0  0.00000000000E+00  0.00000000000E+00  0.14999999963E+04  0.15000000000E+04  0.10566000000E+00 0.  1.
        994   -1    0    0    0    0 -0.00000000000E+00 -0.00000000000E+00  0.11368683772E-12  0.17120000000E+03  0.17120000000E+03 0.  0.
         13    1    1    2    0    0  0.18451683667E+02  0.31659355715E+02  0.43652365328E+02  0.56994031242E+02  0.10566000000E+00 0.  1.
        994    1    1    2    0    0 -0.11913816987E+02 -0.34748783201E+02  0.18238652588E+02  0.17604404397E+03  0.17120000000E+03 0.  0.
        998    1    1    2    0    0 -0.65378666798E+01  0.30894274865E+01  0.14381089784E+04  0.14381619248E+04  0.10000000000E+02 0.  1.
</event>
<event>
 5    1  0.1338054E-008  0.3799839E+03  0.7957747E-01  0.3451229E+00
         13   -1    0    0    0    0  0.00000000000E+00  0.00000000000E+00  0.14999999963E+04  0.15000000000E+04  0.10566000000E+00 0. -1.
        994   -1    0    0    0    0 -0.00000000000E+00 -0.00000000000E+00  0.11368683772E-12  0.17120000000E+03  0.17120000000E+03 0.  0.
         13    1    1    2    0    0 -0.14250247421E+02 -0.16809523783E+01  0.22665340340E+02  0.26825807895E+02  0.10566000000E+00 0. -1.
        994    1    1    2    0    0  0.18192772783E+02 -0.34915944512E+01  0.52893392204E+01  0.17228054250E+03  0.17120000000E+03 0.  0.
        998    1    1    2    0    0 -0.39425253624E+01  0.51725468294E+01  0.14720453167E+04  0.14720936496E+04  0.10000000000E+02 0. -1.
</event>
<event>
 5    1  0.1338054E-008  0.3851049E+03  0.7957747E-01  0.3429227E+00
         13   -1    0    0    0    0  0.00000000000E+00  0.00000000000E+00  0.14999999963E+04  0.15000000000E+04  0.10566000000E+00 0. -1.
        994   -1    0    0    0    0 -0.00000000000E+00 -0.00000000000E+00  0.11368683772E-12  0.17120000000E+03  0.17120000000E+03 0.  0.
         13    1    1    2    0    0 -0.17196485331E+02  0.13900263365E+02  0.13062720198E+03  0.13248552182E+03  0.10566000000E+00 0. -1.
        994    1    1    2    0    0  0.22647612342E+02 -0.24553133291E+02  0.52548294816E+01  0.17450737501E+03  0.17120000000E+03 0.  0.
        998    1    1    2    0    0 -0.54511270114E+01  0.10652869926E+02  0.13641179648E+04  0.13642071032E+04  0.10000000000E+02 0. -1.
</event>
<event>
 5    1  0.1338054E-008  0.3726319E+03  0.7957747E-01  0.3483882E+00
         13   -1    0    0    0    0  0.00000000000E+00  0.00000000000E+00  0.14999999963E+04  0.15000000000E+04  0.10566000000E+00 0.  1.
        994   -1    0    0    0    0 -0.00000000000E+00 -0.00000000000E+00  0.11368683772E-12  0.17120000000E+03  0.17120000000E+03 0.  0.
         13    1    1    2    0    0  0.90952592399E+01  0.83185830444E+01  0.36172808649E+00  0.12331446620E+02  0.10566000000E+00 0.  1.
        994    1    1    2    0    0 -0.25864706719E+02  0.25595979699E+01  0.14724524603E+02  0.17378661116E+03  0.17120000000E+03 0.  0.
        998    1    1    2    0    0  0.16769447479E+02 -0.10878181014E+02  0.14849137436E+04  0.14850819422E+04  0.10000000000E+02 0.  1.
</event>
<event>
 5    1  0.1338054E-008  0.3798565E+03  0.7957747E-01  0.3451784E+00
         13   -1    0    0    0    0  0.00000000000E+00  0.00000000000E+00  0.14999999963E+04  0.15000000000E+04  0.10566000000E+00 0. -1.
        994   -1    0    0    0    0 -0.00000000000E+00 -0.00000000000E+00  0.11368683772E-12  0.17120000000E+03  0.17120000000E+03 0.  0.
         13    1    1    2    0    0  0.25438125924E+02  0.14550770661E+02  0.85975967993E+02  0.90833371696E+02  0.10566000000E+00 0. -1.
        994    1    1    2    0    0 -0.43888396405E+02 -0.27093767675E+02  0.13154723069E+02  0.17928399350E+03  0.17120000000E+03 0.  0.
        998    1    1    2    0    0  0.18450270482E+02  0.12542997014E+02  0.14008693052E+04  0.14010826348E+04  0.10000000000E+02 0. -1.
</event>
<event>
 5    1  0.1338054E-008  0.4395689E+03  0.7957747E-01  0.3226787E+00
         13   -1    0    0    0    0  0.00000000000E+00  0.00000000000E+00  0.14999999963E+04  0.15000000000E+04  0.10566000000E+00 0.  1.
        994   -1    0    0    0    0 -0.00000000000E+00 -0.00000000000E+00  0.11368683772E-12  0.17120000000E+03  0.17120000000E+03 0.  0.
         13    1    1    2    0    0  0.31886629555E+02 -0.23198010981E+00 -0.12082626111E+02  0.34100028987E+02  0.10566000000E+00 0.  1.
        994    1    1    2    0    0 -0.33737327820E+02 -0.27440912768E+00  0.59317924980E+02  0.18429958983E+03  0.17120000000E+03 0.  0.
        998    1    1    2    0    0  0.18506982653E+01  0.50638923749E+00  0.14527646974E+04  0.14528003812E+04  0.10000000000E+02 0.  1.
</event>
<event>
 5    1  0.1338054E-008  0.3798424E+03  0.7957747E-01  0.3451845E+00
         13   -1    0    0    0    0  0.00000000000E+00  0.00000000000E+00  0.14999999963E+04  0.15000000000E+04  0.10566000000E+00 0.  1.
        994   -1    0    0    0    0 -0.00000000000E+00 -0.00000000000E+00  0.11368683772E-12  0.17120000000E+03  0.17120000000E+03 0.  0.
         13    1    1    2    0    0 -0.16224255959E+02  0.13022684036E+02  0.50396805214E+02  0.54522159905E+02  0.10566000000E+00 0.  1.
        994    1    1    2    0    0  0.51009813148E+01 -0.10206583313E+02  0.46482806964E+01  0.17164277109E+03  0.17120000000E+03 0.  0.
        998    1    1    2    0    0  0.11123274644E+02 -0.28161007227E+01  0.14449549104E+04  0.14450350690E+04  0.10000000000E+02 0.  1.
</event>
<event>
 5    1  0.1338054E-008  0.3811314E+03  0.7957747E-01  0.3446247E+00
         13   -1    0    0    0    0  0.00000000000E+00  0.00000000000E+00  0.14999999963E+04  0.15000000000E+04  0.10566000000E+00 0.  1.
        994   -1    0    0    0    0 -0.00000000000E+00 -0.00000000000E+00  0.11368683772E-12  0.17120000000E+03  0.17120000000E+03 0.  0.
         13    1    1    2    0    0  0.46715263289E+02  0.12025424693E+02  0.26758453050E+03  0.27189780946E+03  0.10566000000E+00 0.  1.
        994    1    1    2    0    0 -0.48257214698E+02 -0.97463004796E+01  0.11677810864E+02  0.17852047616E+03  0.17120000000E+03 0.  0.
        998    1    1    2    0    0  0.15419514091E+01 -0.22791242135E+01  0.12207376549E+04  0.12207817144E+04  0.10000000000E+02 0.  0.
</event>
<event>
 5    1  0.1338054E-008  0.3811013E+03  0.7957747E-01  0.3446377E+00
         13   -1    0    0    0    0  0.00000000000E+00  0.00000000000E+00  0.14999999963E+04  0.15000000000E+04  0.10566000000E+00 0. -1.
        994   -1    0    0    0    0 -0.00000000000E+00 -0.00000000000E+00  0.11368683772E-12  0.17120000000E+03  0.17120000000E+03 0.  0.
         13    1    1    2    0    0  0.47510591728E+02 -0.21086554435E+02  0.30566851296E+03  0.31005668850E+03  0.10566000000E+00 0. -1.
        994    1    1    2    0    0 -0.38270521571E+02  0.42156098554E+02  0.14452275779E+02  0.18099745231E+03  0.17120000000E+03 0.  0.
        998    1    1    2    0    0 -0.92400701563E+01 -0.21069544120E+02  0.11798792075E+04  0.11801458592E+04  0.10000000000E+02 0. -1.
</event>
<event>
 5    1  0.1338054E-008  0.3698992E+03  0.7957747E-01  0.3496354E+00
         13   -1    0    0    0    0  0.00000000000E+00  0.00000000000E+00  0.14999999963E+04  0.15000000000E+04  0.10566000000E+00 0.  1.
        994   -1    0    0    0    0 -0.00000000000E+00 -0.00000000000E+00  0.11368683772E-12  0.17120000000E+03  0.17120000000E+03 0.  0.
         13    1    1    2    0    0 -0.51377039509E+01 -0.26952383513E+02  0.37540074690E+02  0.46498337074E+02  0.10566000000E+00 0.  1.
        994    1    1    2    0    0  0.14886463872E+02  0.69104179135E+01  0.10253989406E+02  0.17229029277E+03  0.17120000000E+03 0.  0.
        998    1    1    2    0    0 -0.97487599212E+01  0.20041965599E+02  0.14522059322E+04  0.14524113702E+04  0.10000000000E+02 0.  1.
</event>
<event>
 5    1  0.1338054E-008  0.3761589E+03  0.7957747E-01  0.3468056E+00
         13   -1    0    0    0    0  0.00000000000E+00  0.00000000000E+00  0.14999999963E+04  0.15000000000E+04  0.10566000000E+00 0.  1.
        994   -1    0    0    0    0 -0.00000000000E+00 -0.00000000000E+00  0.11368683772E-12  0.17120000000E+03  0.17120000000E+03 0.  0.
         13    1    1    2    0    0 -0.11634255068E+03  0.10088805433E+03  0.76081547553E+03  0.77624363931E+03  0.10566000000E+00 0.  1.
        994    1    1    2    0    0  0.12540684712E+03 -0.10113500065E+03  0.99737292883E+02  0.25536666433E+03  0.17120000000E+03 0.  0.
        998    1    1    2    0    0 -0.90642964380E+01  0.24694631613E+00  0.63944722787E+03  0.63958969636E+03  0.10000000000E+02 0.  1.
</event>
<event>
 5    1  0.1338054E-008  0.3753791E+03  0.7957747E-01  0.3471529E+00
         13   -1    0    0    0    0  0.00000000000E+00  0.00000000000E+00  0.14999999963E+04  0.15000000000E+04  0.10566000000E+00 0.  1.
        994   -1    0    0    0    0 -0.00000000000E+00 -0.00000000000E+00  0.11368683772E-12  0.17120000000E+03  0.17120000000E+03 0.  0.
         13    1    1    2    0    0 -0.15097119838E+03 -0.31551383146E+02  0.56929781013E+03  0.58982014234E+03  0.10566000000E+00 0.  1.
        994    1    1    2    0    0  0.14004365018E+03  0.16760654115E+03  0.21056970117E+03  0.34835788443E+03  0.17120000000E+03 0.  0.
        998    1    1    2    0    0  0.10927548207E+02 -0.13605515801E+03  0.72013248497E+03  0.73302197324E+03  0.10000000000E+02 0.  1.
</event>
<event>
 5    1  0.1338054E-008  0.3793914E+03  0.7957747E-01  0.3453813E+00
         13   -1    0    0    0    0  0.00000000000E+00  0.00000000000E+00  0.14999999963E+04  0.15000000000E+04  0.10566000000E+00 0.  1.
        994   -1    0    0    0    0 -0.00000000000E+00 -0.00000000000E+00  0.11368683772E-12  0.17120000000E+03  0.17120000000E+03 0.  0.
         13    1    1    2    0    0  0.81224292810E+01  0.18180942355E+02  0.41512875612E+02  0.46041834541E+02  0.10566000000E+00 0.  1.
        994    1    1    2    0    0 -0.10778329110E+02 -0.20522493301E+02  0.62426728389E+01  0.17287497238E+03  0.17120000000E+03 0.  0.
        998    1    1    2    0    0  0.26558998294E+01  0.23415509465E+01  0.14522444478E+04  0.14522831931E+04  0.10000000000E+02 0.  1.
</event>
<event>
 5    1  0.1338054E-008  0.3806066E+03  0.7957747E-01  0.3448521E+00
         13   -1    0    0    0    0  0.00000000000E+00  0.00000000000E+00  0.14999999963E+04  0.15000000000E+04  0.10566000000E+00 0.  1.
        994   -1    0    0    0    0 -0.00000000000E+00 -0.00000000000E+00  0.11368683772E-12  0.17120000000E+03  0.17120000000E+03 0.  0.
         13    1    1    2    0    0 -0.15345261902E+01 -0.10123256904E+02  0.11857387698E+02  0.15666649548E+02  0.10566000000E+00 0.  1.
        994    1    1    2    0    0  0.15387517064E+01  0.13385699016E+02  0.44331483210E+01  0.17178660454E+03  0.17120000000E+03 0.  0.
        998    1    1    2    0    0 -0.42255162095E-02 -0.32624421120E+01  0.14837094603E+04  0.14837467459E+04  0.10000000000E+02 0.  1.
</event>
<event>
 5    1  0.1338054E-008  0.3836341E+03  0.7957747E-01  0.3435486E+00
         13   -1    0    0    0    0  0.00000000000E+00  0.00000000000E+00  0.14999999963E+04  0.15000000000E+04  0.10566000000E+00 0. -1.
        994   -1    0    0    0    0 -0.00000000000E+00 -0.00000000000E+00  0.11368683772E-12  0.17120000000E+03  0.17120000000E+03 0.  0.
         13    1    1    2    0    0  0.20909756445E+01 -0.10514898561E+02  0.25932016736E+02  0.28060932396E+02  0.10566000000E+00 0. -1.
        994    1    1    2    0    0 -0.14970941511E+02 -0.15782891344E+02  0.38745499318E+01  0.17262004775E+03  0.17120000000E+03 0.  0.
        998    1    1    2    0    0  0.12879965867E+02  0.26297789905E+02  0.14701934296E+04  0.14705190199E+04  0.10000000000E+02 0. -1.
</event>
<event>
 5    1  0.1338054E-008  0.3855598E+03  0.7957747E-01  0.3427301E+00
         13   -1    0    0    0    0  0.00000000000E+00  0.00000000000E+00  0.14999999963E+04  0.15000000000E+04  0.10566000000E+00 0. -1.
        994   -1    0    0    0    0 -0.00000000000E+00 -0.00000000000E+00  0.11368683772E-12  0.17120000000E+03  0.17120000000E+03 0.  0.
         13    1    1    2    0    0  0.10337310019E+02  0.19239809787E+01  0.41935233993E+02  0.43233513567E+02  0.10566000000E+00 0. -1.
        994    1    1    2    0    0 -0.36929642815E+01  0.20097761705E+01  0.14104934649E+01  0.17125742809E+03  0.17120000000E+03 0.  0.
        998    1    1    2    0    0 -0.66443457370E+01 -0.39337571491E+01  0.14566542688E+04  0.14567090583E+04  0.10000000000E+02 0. -1.
</event>
<event>
 5    1  0.1338054E-008  0.3843555E+03  0.7957747E-01  0.3432410E+00
         13   -1    0    0    0    0  0.00000000000E+00  0.00000000000E+00  0.14999999963E+04  0.15000000000E+04  0.10566000000E+00 0. -1.
        994   -1    0    0    0    0 -0.00000000000E+00 -0.00000000000E+00  0.11368683772E-12  0.17120000000E+03  0.17120000000E+03 0.  0.
         13    1    1    2    0    0  0.10012878320E+02 -0.87321467284E+01  0.44426169230E+02  0.46370290006E+02  0.10566000000E+00 0. -1.
        994    1    1    2    0    0 -0.80491016208E+01  0.75260717826E+01  0.23507314902E+01  0.17157038128E+03  0.17120000000E+03 0.  0.
        998    1    1    2    0    0 -0.19637766991E+01  0.12060749459E+01  0.14532230956E+04  0.14532593287E+04  0.10000000000E+02 0. -1.
</event>
<event>
 5    1  0.1338054E-008  0.3752948E+03  0.7957747E-01  0.3471905E+00
         13   -1    0    0    0    0  0.00000000000E+00  0.00000000000E+00  0.14999999963E+04  0.15000000000E+04  0.10566000000E+00 0. -1.
        994   -1    0    0    0    0 -0.00000000000E+00 -0.00000000000E+00  0.11368683772E-12  0.17120000000E+03  0.17120000000E+03 0.  0.
         13    1    1    2    0    0 -0.58126017228E+02  0.48052581092E+02  0.35396531318E+03  0.36191040124E+03  0.10566000000E+00 0. -1.
        994    1    1    2    0    0  0.10095419345E+03  0.38385019072E+01  0.42016654557E+02  0.20317805623E+03  0.17120000000E+03 0.  0.
        998    1    1    2    0    0 -0.42828176224E+02 -0.51891082999E+02  0.11040180285E+04  0.11061115425E+04  0.10000000000E+02 0. -1.
</event>
<event>
 5    1  0.1338054E-008  0.3728253E+03  0.7957747E-01  0.3483006E+00
         13   -1    0    0    0    0  0.00000000000E+00  0.00000000000E+00  0.14999999963E+04  0.15000000000E+04  0.10566000000E+00 0. -1.
        994   -1    0    0    0    0 -0.00000000000E+00 -0.00000000000E+00  0.11368683772E-12  0.17120000000E+03  0.17120000000E+03 0.  0.
         13    1    1    2    0    0 -0.36427467529E+02  0.26978441771E+02  0.15055422094E+03  0.15723034478E+03  0.10566000000E+00 0. -1.
        994    1    1    2    0    0 -0.23586112065E+01  0.39183187836E+01  0.78713700962E+01  0.17144186985E+03  0.17120000000E+03 0.  0.
        998    1    1    2    0    0  0.38786078735E+02 -0.30896760555E+02  0.13415744052E+04  0.13425277854E+04  0.10000000000E+02 0. -1.
</event>
<event>
 5    1  0.1338054E-008  0.3854292E+03  0.7957747E-01  0.3427854E+00
         13   -1    0    0    0    0  0.00000000000E+00  0.00000000000E+00  0.14999999963E+04  0.15000000000E+04  0.10566000000E+00 0. -1.
        994   -1    0    0    0    0 -0.00000000000E+00 -0.00000000000E+00  0.11368683772E-12  0.17120000000E+03  0.17120000000E+03 0.  0.
         13    1    1    2    0    0  0.11934131639E+02  0.14051693168E+02  0.10285889751E+03  0.10449802649E+03  0.10566000000E+00 0. -1.
        994    1    1    2    0    0 -0.14406626615E+02 -0.28164373757E+02  0.47107770769E+01  0.17416203450E+03  0.17120000000E+03 0.  0.
        998    1    1    2    0    0  0.24724949755E+01  0.14112680588E+02  0.13924303217E+04  0.13925399390E+04  0.10000000000E+02 0. -1.
</event>
<event>
 5    1  0.1338054E-008  0.3863874E+03  0.7957747E-01  0.3423809E+00
         13   -1    0    0    0    0  0.00000000000E+00  0.00000000000E+00  0.14999999963E+04  0.15000000000E+04  0.10566000000E+00 0.  1.
        994   -1    0    0    0    0 -0.00000000000E+00 -0.00000000000E+00  0.11368683772E-12  0.17120000000E+03  0.17120000000E+03 0.  0.
         13    1    1    2    0    0  0.10434465064E+02  0.18512685776E+01  0.63306088481E+02  0.64187049000E+02  0.10566000000E+00 0.  1.
        994    1    1    2    0    0 -0.39844607607E+00 -0.10130669804E+02  0.12794610359E+01  0.17150471204E+03  0.17120000000E+03 0.  0.
        998    1    1    2    0    0 -0.10036018988E+02  0.82794012266E+01  0.14354144468E+04  0.14355082390E+04  0.10000000000E+02 0.  1.
</event>
<event>
 5    1  0.1338054E-008  0.3852792E+03  0.7957747E-01  0.3428489E+00
         13   -1    0    0    0    0  0.00000000000E+00  0.00000000000E+00  0.14999999963E+04  0.15000000000E+04  0.10566000000E+00 0. -1.
        994   -1    0    0    0    0 -0.00000000000E+00 -0.00000000000E+00  0.11368683772E-12  0.17120000000E+03  0.17120000000E+03 0.  0.
         13    1    1    2    0    0  0.14060027574E+02 -0.12305015360E+02  0.11151466788E+03  0.11306913856E+03  0.10566000000E+00 0. -1.
        994    1    1    2    0    0 -0.14292491239E+02  0.10587124501E+02  0.25317213331E+01  0.17214009447E+03  0.17120000000E+03 0.  0.
        998    1    1    2    0    0  0.23246366570E+00  0.17178908594E+01  0.13859536071E+04  0.13859907670E+04  0.10000000000E+02 0.  0.
</event>
<event>
 5    1  0.1338054E-008  0.3916755E+03  0.7957747E-01  0.3401845E+00
         13   -1    0    0    0    0  0.00000000000E+00  0.00000000000E+00  0.14999999963E+04  0.15000000000E+04  0.10566000000E+00 0. -1.
        994   -1    0    0    0    0 -0.00000000000E+00 -0.00000000000E+00  0.11368683772E-12  0.17120000000E+03  0.17120000000E+03 0.  0.
         13    1    1    2    0    0  0.74846891280E+02  0.81524921812E+02  0.23681464175E+03  0.26139922670E+03  0.10566000000E+00 0. -1.
        994    1    1    2    0    0 -0.48270232740E+02 -0.81173563897E+02  0.57527847024E+02  0.20380887132E+03  0.17120000000E+03 0.  0.
        998    1    1    2    0    0 -0.26576658539E+02 -0.35135791476E+00  0.12056575075E+04  0.12059919020E+04  0.10000000000E+02 0. -1.
</event>
<event>
 5    1  0.1338054E-008  0.4112578E+03  0.7957747E-01  0.3325412E+00
         13   -1    0    0    0    0  0.00000000000E+00  0.00000000000E+00  0.14999999963E+04  0.15000000000E+04  0.10566000000E+00 0.  1.
        994   -1    0    0    0    0 -0.00000000000E+00 -0.00000000000E+00  0.11368683772E-12  0.17120000000E+03  0.17120000000E+03 0.  0.
         13    1    1    2    0    0 -0.10685390857E+03  0.82388902970E+02  0.40674207698E+03  0.42853800002E+03  0.10566000000E+00 0.  1.
        994    1    1    2    0    0 -0.29378038800E+02 -0.29575532004E+02  0.41850950756E+02  0.18110417813E+03  0.17120000000E+03 0.  0.
        998    1    1    2    0    0  0.13623194737E+03 -0.52813370966E+02  0.10514069685E+04  0.10615578219E+04  0.10000000000E+02 0.  1.
</event>
<event>
 5    1  0.1338054E-008  0.3869379E+03  0.7957747E-01  0.3421495E+00
         13   -1    0    0    0    0  0.00000000000E+00  0.00000000000E+00  0.14999999963E+04  0.15000000000E+04  0.10566000000E+00 0.  1.
        994   -1    0    0    0    0 -0.00000000000E+00 -0.00000000000E+00  0.11368683772E-12  0.17120000000E+03  0.17120000000E+03 0.  0.
         13    1    1    2    0    0  0.50775553567E+02 -0.14659437040E+03  0.48619554211E+03  0.51034711972E+03  0.10566000000E+00 0.  1.
        994    1    1    2    0    0 -0.28919403742E+02  0.11822625307E+03  0.77631183687E+02  0.22394155378E+03  0.17120000000E+03 0.  0.
        998    1    1    2    0    0 -0.21856149825E+02  0.28368117321E+02  0.93617327048E+03  0.93691132650E+03  0.10000000000E+02 0.  1.
</event>
<event>
 5    1  0.1338054E-008  0.3856852E+03  0.7957747E-01  0.3426772E+00
         13   -1    0    0    0    0  0.00000000000E+00  0.00000000000E+00  0.14999999963E+04  0.15000000000E+04  0.10566000000E+00 0.  1.
        994   -1    0    0    0    0 -0.00000000000E+00 -0.00000000000E+00  0.11368683772E-12  0.17120000000E+03  0.17120000000E+03 0.  0.
         13    1    1    2    0    0 -0.83014028179E+01  0.89921395420E+01  0.59364925898E+02  0.60613343854E+02  0.10566000000E+00 0.  1.
        994    1    1    2    0    0  0.14272175523E+02  0.48115793220E+01  0.20350713428E+01  0.17187328997E+03  0.17120000000E+03 0.  0.
        998    1    1    2    0    0 -0.59707727050E+01 -0.13803718864E+02  0.14385999990E+04  0.14387133662E+04  0.10000000000E+02 0.  1.
</event>
<event>
 5    1  0.1338054E-008  0.3761491E+03  0.7957747E-01  0.3468100E+00
         13   -1    0    0    0    0  0.00000000000E+00  0.00000000000E+00  0.14999999963E+04  0.15000000000E+04  0.10566000000E+00 0.  1.
        994   -1    0    0    0    0 -0.00000000000E+00 -0.00000000000E+00  0.11368683772E-12  0.17120000000E+03  0.17120000000E+03 0.  0.
         13    1    1    2    0    0 -0.22847550314E+02 -0.88281921583E+02  0.35967293971E+03  0.37105301907E+03  0.10566000000E+00 0.  1.
        994    1    1    2    0    0  0.51822478147E+02  0.12221391015E+03  0.68303849671E+02  0.22714899286E+03  0.17120000000E+03 0.  0.
        998    1    1    2    0    0 -0.28974927834E+02 -0.33931988570E+02  0.10720232069E+04  0.10729979881E+04  0.10000000000E+02 0.  1.
</event>
<event>
 5    1  0.1338054E-008  0.3820903E+03  0.7957747E-01  0.3442107E+00
         13   -1    0    0    0    0  0.00000000000E+00  0.00000000000E+00  0.14999999963E+04  0.15000000000E+04  0.10566000000E+00 0.  1.
        994   -1    0    0    0    0 -0.00000000000E+00 -0.00000000000E+00  0.11368683772E-12  0.17120000000E+03  0.17120000000E+03 0.  0.
         13    1    1    2    0    0 -0.82028793747E+01  0.19069659219E+02  0.66611159701E+02  0.69771031908E+02  0.10566000000E+00 0.  1.
        994    1    1    2    0    0  0.70776438665E+01 -0.19107494039E+02  0.44613369116E+01  0.17246603404E+03  0.17120000000E+03 0.  0.
        998    1    1    2    0    0  0.11252355082E+01  0.37834819144E-01  0.14289274997E+04  0.14289629341E+04  0.10000000000E+02 0.  1.
</event>
<event>
 5    1  0.1338054E-008  0.3852374E+03  0.7957747E-01  0.3428666E+00
         13   -1    0    0    0    0  0.00000000000E+00  0.00000000000E+00  0.14999999963E+04  0.15000000000E+04  0.10566000000E+00 0.  1.
        994   -1    0    0    0    0 -0.00000000000E+00 -0.00000000000E+00  0.11368683772E-12  0.17120000000E+03  0.17120000000E+03 0.  0.
         13    1    1    2    0    0  0.63316953942E+01 -0.12640027788E+02  0.64375481904E+02  0.65909593410E+02  0.10566000000E+00 0.  1.
        994    1    1    2    0    0  0.30138536170E+01  0.17003218625E+02  0.24928508294E+01  0.17208674284E+03  0.17120000000E+03 0.  0.
        998    1    1    2    0    0 -0.93455490111E+01 -0.43631908376E+01  0.14331316635E+04  0.14332036637E+04  0.10000000000E+02 0.  1.
</event>
<event>
 5    1  0.1338054E-008  0.3857483E+03  0.7957747E-01  0.3426505E+00
         13   -1    0    0    0    0  0.00000000000E+00  0.00000000000E+00  0.14999999963E+04  0.15000000000E+04  0.10566000000E+00 0. -1.
        994   -1    0    0    0    0 -0.00000000000E+00 -0.00000000000E+00  0.11368683772E-12  0.17120000000E+03  0.17120000000E+03 0.  0.
         13    1    1    2    0    0  0.42928377256E+00  0.12881038187E+02  0.68015712129E+02  0.69226105551E+02  0.10566000000E+00 0. -1.
        994    1    1    2    0    0 -0.29566417677E+01 -0.53913165982E+01  0.13831457611E+01  0.17131596866E+03  0.17120000000E+03 0.  0.
        998    1    1    2    0    0  0.25273579952E+01 -0.74897215890E+01  0.14306011384E+04  0.14306579258E+04  0.10000000000E+02 0. -1.
</event>
<event>
 5    1  0.1338054E-008  0.3836740E+03  0.7957747E-01  0.3435315E+00
         13   -1    0    0    0    0  0.00000000000E+00  0.00000000000E+00  0.14999999963E+04  0.15000000000E+04  0.10566000000E+00 0.  1.
        994   -1    0    0    0    0 -0.00000000000E+00 -0.00000000000E+00  0.11368683772E-12  0.17120000000E+03  0.17120000000E+03 0.  0.
         13    1    1    2    0    0  0.10633222107E+02  0.69282095719E+01  0.33849581788E+02  0.36150668756E+02  0.10566000000E+00 0.  1.
        994    1    1    2    0    0 -0.12805543394E+02 -0.49098103501E+01  0.29113768080E+01  0.17177311866E+03  0.17120000000E+03 0.  0.
        998    1    1    2    0    0  0.21723212872E+01 -0.20183992218E+01  0.14632390377E+04  0.14632762126E+04  0.10000000000E+02 0.  1.
</event>
<event>
 5    1  0.1338054E-008  0.3776649E+03  0.7957747E-01  0.3461390E+00
         13   -1    0    0    0    0  0.00000000000E+00  0.00000000000E+00  0.14999999963E+04  0.15000000000E+04  0.10566000000E+00 0.  1.
        994   -1    0    0    0    0 -0.00000000000E+00 -0.00000000000E+00  0.11368683772E-12  0.17120000000E+03  0.17120000000E+03 0.  0.
         13    1    1    2    0    0  0.18745984872E+02 -0.40257319884E+02  0.16586549426E+03  0.17170741715E+03  0.10566000000E+00 0.  1.
        994    1    1    2    0    0 -0.24560560711E+02  0.36251671866E+02  0.11803545736E+02  0.17710496477E+03  0.17120000000E+03 0.  0.
        998    1    1    2    0    0  0.58145758396E+01  0.40056480175E+01  0.13223309563E+04  0.13223876181E+04  0.10000000000E+02 0.  1.
</event>
<event>
 5    1  0.1338054E-008  0.3740770E+03  0.7957747E-01  0.3477361E+00
         13   -1    0    0    0    0  0.00000000000E+00  0.00000000000E+00  0.14999999963E+04  0.15000000000E+04  0.10566000000E+00 0.  1.
        994   -1    0    0    0    0 -0.00000000000E+00 -0.00000000000E+00  0.11368683772E-12  0.17120000000E+03  0.17120000000E+03 0.  0.
         13    1    1    2    0    0  0.21535891301E+02 -0.35033319083E+02  0.11583337991E+03  0.12291668367E+03  0.10566000000E+00 0.  1.
        994    1    1    2    0    0 -0.56062275128E+01  0.25599244509E+02  0.94986954710E+01  0.17345436380E+03  0.17120000000E+03 0.  0.
        998    1    1    2    0    0 -0.15929663788E+02  0.94340745739E+01  0.13746679209E+04  0.13748289525E+04  0.10000000000E+02 0.  1.
</event>
<event>
 5    1  0.1338054E-008  0.3985789E+03  0.7957747E-01  0.3374048E+00
         13   -1    0    0    0    0  0.00000000000E+00  0.00000000000E+00  0.14999999963E+04  0.15000000000E+04  0.10566000000E+00 0. -1.
        994   -1    0    0    0    0 -0.00000000000E+00 -0.00000000000E+00  0.11368683772E-12  0.17120000000E+03  0.17120000000E+03 0.  0.
         13    1    1    2    0    0  0.97131992123E+02 -0.63454184039E+02  0.27156280750E+03  0.29530903635E+03  0.10566000000E+00 0. -1.
        994    1    1    2    0    0 -0.79555845037E+02 -0.32418974958E+02  0.56275159504E+02  0.19964081746E+03  0.17120000000E+03 0.  0.
        998    1    1    2    0    0 -0.17576147086E+02  0.95873158996E+02  0.11721620293E+04  0.11762501462E+04  0.10000000000E+02 0. -1.
</event>
<event>
 5    1  0.1338054E-008  0.3834575E+03  0.7957747E-01  0.3436240E+00
         13   -1    0    0    0    0  0.00000000000E+00  0.00000000000E+00  0.14999999963E+04  0.15000000000E+04  0.10566000000E+00 0. -1.
        994   -1    0    0    0    0 -0.00000000000E+00 -0.00000000000E+00  0.11368683772E-12  0.17120000000E+03  0.17120000000E+03 0.  0.
         13    1    1    2    0    0  0.13656009609E+02  0.29610247611E+02  0.21751289448E+02  0.39196723316E+02  0.10566000000E+00 0. -1.
        994    1    1    2    0    0 -0.94099791529E+01 -0.22881443775E+02  0.20489135959E+02  0.17418769437E+03  0.17120000000E+03 0.  0.
        998    1    1    2    0    0 -0.42460304558E+01 -0.67288038357E+01  0.14577595709E+04  0.14578155823E+04  0.10000000000E+02 0. -1.
</event>
<event>
 5    1  0.1338054E-008  0.3819516E+03  0.7957747E-01  0.3442705E+00
         13   -1    0    0    0    0  0.00000000000E+00  0.00000000000E+00  0.14999999963E+04  0.15000000000E+04  0.10566000000E+00 0. -1.
        994   -1    0    0    0    0 -0.00000000000E+00 -0.00000000000E+00  0.11368683772E-12  0.17120000000E+03  0.17120000000E+03 0.  0.
         13    1    1    2    0    0  0.51919489304E+01  0.36475337806E+02  0.22137293172E+03  0.22441789738E+03  0.10566000000E+00 0. -1.
        994    1    1    2    0    0 -0.86514071794E+01 -0.16686689456E+02  0.43255602102E+01  0.17228303144E+03  0.17120000000E+03 0.  0.
        998    1    1    2    0    0  0.34594582490E+01 -0.19788648350E+02  0.12743015043E+04  0.12744990712E+04  0.10000000000E+02 0. -1.
</event>
<event>
 5    1  0.1338054E-008  0.3844263E+03  0.7957747E-01  0.3432109E+00
         13   -1    0    0    0    0  0.00000000000E+00  0.00000000000E+00  0.14999999963E+04  0.15000000000E+04  0.10566000000E+00 0. -1.
        994   -1    0    0    0    0 -0.00000000000E+00 -0.00000000000E+00  0.11368683772E-12  0.17120000000E+03  0.17120000000E+03 0.  0.
         13    1    1    2    0    0 -0.12643064526E+02  0.72813355033E+01  0.56592890016E+02  0.58443402466E+02  0.10566000000E+00 0. -1.
        994    1    1    2    0    0  0.10609228873E+02  0.73223561417E+01  0.24629388668E+01  0.17170229674E+03  0.17120000000E+03 0.  0.
        998    1    1    2    0    0  0.20338356530E+01 -0.14603691645E+02  0.14409441674E+04  0.14410543008E+04  0.10000000000E+02 0. -1.
</event>
<event>
 5    1  0.1338054E-008  0.3858306E+03  0.7957747E-01  0.3426157E+00
         13   -1    0    0    0    0  0.00000000000E+00  0.00000000000E+00  0.14999999963E+04  0.15000000000E+04  0.10566000000E+00 0.  1.
        994   -1    0    0    0    0 -0.00000000000E+00 -0.00000000000E+00  0.11368683772E-12  0.17120000000E+03  0.17120000000E+03 0.  0.
         13    1    1    2    0    0  0.46871635869E+01 -0.11093620779E+02  0.58228542032E+02  0.59461014082E+02  0.10566000000E+00 0.  1.
        994    1    1    2    0    0 -0.14899593349E+02  0.75488756480E+01  0.21338770341E+01  0.17202609348E+03  0.17120000000E+03 0.  0.
        998    1    1    2    0    0  0.10212429762E+02  0.35447451313E+01  0.14396375772E+04  0.14397128924E+04  0.10000000000E+02 0.  1.
</event>
<event>
 5    1  0.1338054E-008  0.3767495E+03  0.7957747E-01  0.3465435E+00
         13   -1    0    0    0    0  0.00000000000E+00  0.00000000000E+00  0.14999999963E+04  0.15000000000E+04  0.10566000000E+00 0.  1.
        994   -1    0    0    0    0 -0.00000000000E+00 -0.00000000000E+00  0.11368683772E-12  0.17120000000E+03  0.17120000000E+03 0.  0.
         13    1    1    2    0    0 -0.34475880770E+02 -0.62514962891E+01  0.11084427845E+03  0.11625030233E+03  0.10566000000E+00 0.  1.
        994    1    1    2    0    0  0.65311588153E+01  0.87529809616E+01  0.61862178711E+01  0.17165948853E+03  0.17120000000E+03 0.  0.
        998    1    1    2    0    0  0.27944721955E+02 -0.25014846724E+01  0.13829695000E+04  0.13832902091E+04  0.10000000000E+02 0.  1.
</event>
<event>
 5    1  0.1338054E-008  0.3693798E+03  0.7957747E-01  0.3498746E+00
         13   -1    0    0    0    0  0.00000000000E+00  0.00000000000E+00  0.14999999963E+04  0.15000000000E+04  0.10566000000E+00 0.  1.
        994   -1    0    0    0    0 -0.00000000000E+00 -0.00000000000E+00  0.11368683772E-12  0.17120000000E+03  0.17120000000E+03 0.  0.
         13    1    1    2    0    0 -0.13462384850E+02  0.24346976807E+02  0.36061803157E+02  0.45546414749E+02  0.10566000000E+00 0.  1.
        994    1    1    2    0    0  0.12261554135E+02 -0.20314597917E+02  0.11546952565E+02  0.17322182516E+03  0.17120000000E+03 0.  0.
        998    1    1    2    0    0  0.12008307157E+01 -0.40323788898E+01  0.14523912406E+04  0.14524317601E+04  0.10000000000E+02 0.  1.
</event>
<event>
 5    1  0.1338054E-008  0.3782712E+03  0.7957747E-01  0.3458721E+00
         13   -1    0    0    0    0  0.00000000000E+00  0.00000000000E+00  0.14999999963E+04  0.15000000000E+04  0.10566000000E+00 0. -1.
        994   -1    0    0    0    0 -0.00000000000E+00 -0.00000000000E+00  0.11368683772E-12  0.17120000000E+03  0.17120000000E+03 0.  0.
         13    1    1    2    0    0  0.27804923328E+02  0.38143486361E+01  0.74909879599E+02  0.79994776345E+02  0.10566000000E+00 0. -1.
        994    1    1    2    0    0 -0.23893295261E+02  0.50683548851E+00  0.69310458305E+01  0.17299891860E+03  0.17120000000E+03 0.  0.
        998    1    1    2    0    0 -0.39116280674E+01 -0.43211841246E+01  0.14181590708E+04  0.14182063051E+04  0.10000000000E+02 0. -1.
</event>
<event>
 5    1  0.1338054E-008  0.3813752E+03  0.7957747E-01  0.3445193E+00
         13   -1    0    0    0    0  0.00000000000E+00  0.00000000000E+00  0.14999999963E+04  0.15000000000E+04  0.10566000000E+00 0.  1.
        994   -1    0    0    0    0 -0.00000000000E+00 -0.00000000000E+00  0.11368683772E-12  0.17120000000E+03  0.17120000000E+03 0.  0.
         13    1    1    2    0    0 -0.15393673884E+02 -0.29146105114E+02  0.16212277510E+03  0.16543961439E+03  0.10566000000E+00 0.  1.
        994    1    1    2    0    0  0.21163992908E+02  0.58434015911E+01  0.50464239508E+01  0.17267589969E+03  0.17120000000E+03 0.  0.
        998    1    1    2    0    0 -0.57703190240E+01  0.23302703523E+02  0.13328307972E+04  0.13330844859E+04  0.10000000000E+02 0.  1.
</event>
<event>
 5    1  0.1338054E-008  0.3267655E+03  0.7957747E-01  0.3721713E+00
         13   -1    0    0    0    0  0.00000000000E+00  0.00000000000E+00  0.14999999963E+04  0.15000000000E+04  0.10566000000E+00 0. -1.
        994   -1    0    0    0    0 -0.00000000000E+00 -0.00000000000E+00  0.11368683772E-12  0.17120000000E+03  0.17120000000E+03 0.  0.
         13    1    1    2    0    0  0.21351564618E+03  0.46340572974E+02  0.79167213431E+03  0.82126801915E+03  0.10566000000E+00 0. -1.
        994    1    1    2    0    0 -0.20611382437E+03 -0.55144897047E+02  0.19396700277E+03  0.33534535397E+03  0.17120000000E+03 0.  0.
        998    1    1    2    0    0 -0.74018218024E+01  0.88043240729E+01  0.51436085920E+03  0.51458662688E+03  0.10000000000E+02 0.  0.
</event>
<event>
 5    1  0.1338054E-008  0.3798349E+03  0.7957747E-01  0.3451878E+00
         13   -1    0    0    0    0  0.00000000000E+00  0.00000000000E+00  0.14999999963E+04  0.15000000000E+04  0.10566000000E+00 0. -1.
        994   -1    0    0    0    0 -0.00000000000E+00 -0.00000000000E+00  0.11368683772E-12  0.17120000000E+03  0.17120000000E+03 0.  0.
         13    1    1    2    0    0  0.16083866787E+02  0.12359046242E+02  0.46244703225E+02  0.50497728020E+02  0.10566000000E+00 0. -1.
        994    1    1    2    0    0 -0.14581636992E+02 -0.12171883142E+02  0.54241706865E+01  0.17233583639E+03  0.17120000000E+03 0.  0.
        998    1    1    2    0    0 -0.15022297951E+01 -0.18716309986E+00  0.14483311224E+04  0.14483664356E+04  0.10000000000E+02 0. -1.
</event>
<event>
 5    1  0.1338054E-008  0.3710264E+03  0.7957747E-01  0.3491187E+00
         13   -1    0    0    0    0  0.00000000000E+00  0.00000000000E+00  0.14999999963E+04  0.15000000000E+04  0.10566000000E+00 0.  1.
        994   -1    0    0    0    0 -0.00000000000E+00 -0.00000000000E+00  0.11368683772E-12  0.17120000000E+03  0.17120000000E+03 0.  0.
         13    1    1    2    0    0  0.39861981036E+02 -0.66777777772E+01  0.89504711127E+02  0.98207304851E+02  0.10566000000E+00 0.  1.
        994    1    1    2    0    0 -0.30511608982E+02 -0.11368479729E+02  0.12395210910E+02  0.17470913504E+03  0.17120000000E+03 0.  0.
        998    1    1    2    0    0 -0.93503720542E+01  0.18046257506E+02  0.13981000742E+04  0.13982835601E+04  0.10000000000E+02 0.  1.
</event>
<event>
 5    1  0.1338054E-008  0.3827256E+03  0.7957747E-01  0.3439376E+00
         13   -1    0    0    0    0  0.00000000000E+00  0.00000000000E+00  0.14999999963E+04  0.15000000000E+04  0.10566000000E+00 0. -1.
        994   -1    0    0    0    0 -0.00000000000E+00 -0.00000000000E+00  0.11368683772E-12  0.17120000000E+03  0.17120000000E+03 0.  0.
         13    1    1    2    0    0  0.12673672754E+02 -0.36491351273E+01  0.31307659104E+02  0.33972324778E+02  0.10566000000E+00 0. -1.
        994    1    1    2    0    0  0.70703287404E+00  0.92791403508E+01  0.30505431913E+01  0.17147987682E+03  0.17120000000E+03 0.  0.
        998    1    1    2    0    0 -0.13380705628E+02 -0.56300052235E+01  0.14656417940E+04  0.14657477984E+04  0.10000000000E+02 0. -1.
</event>
<event>
 5    1  0.1338054E-008  0.3781470E+03  0.7957747E-01  0.3459267E+00
         13   -1    0    0    0    0  0.00000000000E+00  0.00000000000E+00  0.14999999963E+04  0.15000000000E+04  0.10566000000E+00 0. -1.
        994   -1    0    0    0    0 -0.00000000000E+00 -0.00000000000E+00  0.11368683772E-12  0.17120000000E+03  0.17120000000E+03 0.  0.
         13    1    1    2    0    0  0.86454840157E+02 -0.49689826714E+02  0.52205140498E+03  0.53148960373E+03  0.10566000000E+00 0. -1.
        994    1    1    2    0    0 -0.10049130570E+03  0.53755081449E+02  0.50080490998E+02  0.21167334948E+03  0.17120000000E+03 0.  0.
        998    1    1    2    0    0  0.14036465539E+02 -0.40652547351E+01  0.92786810030E+03  0.92803704679E+03  0.10000000000E+02 0. -1.
</event>
<event>
 5    1  0.1338054E-008  0.3855831E+03  0.7957747E-01  0.3427203E+00
         13   -1    0    0    0    0  0.00000000000E+00  0.00000000000E+00  0.14999999963E+04  0.15000000000E+04  0.10566000000E+00 0. -1.
        994   -1    0    0    0    0 -0.00000000000E+00 -0.00000000000E+00  0.11368683772E-12  0.17120000000E+03  0.17120000000E+03 0.  0.
         13    1    1    2    0    0 -0.33037126346E+00 -0.11124945641E+02  0.45862722535E+02  0.47194004312E+02  0.10566000000E+00 0. -1.
        994    1    1    2    0    0  0.14010798153E+01  0.95466202910E+01  0.16465501929E+01  0.17147959678E+03  0.17120000000E+03 0.  0.
        998    1    1    2    0    0 -0.10707085518E+01  0.15783253501E+01  0.14524907236E+04  0.14525263989E+04  0.10000000000E+02 0. -1.
</event>
<event>
 5    1  0.1338054E-008  0.3827693E+03  0.7957747E-01  0.3439188E+00
         13   -1    0    0    0    0  0.00000000000E+00  0.00000000000E+00  0.14999999963E+04  0.15000000000E+04  0.10566000000E+00 0. -1.
        994   -1    0    0    0    0 -0.00000000000E+00 -0.00000000000E+00  0.11368683772E-12  0.17120000000E+03  0.17120000000E+03 0.  0.
         13    1    1    2    0    0 -0.62853690954E+01 -0.13065502802E+02  0.36090323300E+02  0.38893904768E+02  0.10566000000E+00 0. -1.
        994    1    1    2    0    0  0.52277865565E+01  0.18843651585E+02  0.40095266739E+01  0.17235988298E+03  0.17120000000E+03 0.  0.
        998    1    1    2    0    0  0.10575825389E+01 -0.57781487824E+01  0.14599001463E+04  0.14599462123E+04  0.10000000000E+02 0. -1.
</event>
<event>
 5    1  0.1338054E-008  0.3773566E+03  0.7957747E-01  0.3462750E+00
         13   -1    0    0    0    0  0.00000000000E+00  0.00000000000E+00  0.14999999963E+04  0.15000000000E+04  0.10566000000E+00 0.  1.
        994   -1    0    0    0    0 -0.00000000000E+00 -0.00000000000E+00  0.11368683772E-12  0.17120000000E+03  0.17120000000E+03 0.  0.
         13    1    1    2    0    0  0.32741257115E+02  0.31810344966E+02  0.21393065110E+03  0.21874693737E+03  0.10566000000E+00 0.  1.
        994    1    1    2    0    0 -0.11757524634E+02  0.45769528592E+00  0.59405265899E+01  0.17170666477E+03  0.17120000000E+03 0.  0.
        998    1    1    2    0    0 -0.20983732481E+02 -0.32268040252E+02  0.12801288186E+04  0.12807463979E+04  0.10000000000E+02 0.  1.
</event>
<event>
 5    1  0.1338054E-008  0.3758639E+03  0.7957747E-01  0.3469368E+00
         13   -1    0    0    0    0  0.00000000000E+00  0.00000000000E+00  0.14999999963E+04  0.15000000000E+04  0.10566000000E+00 0. -1.
        994   -1    0    0    0    0 -0.00000000000E+00 -0.00000000000E+00  0.11368683772E-12  0.17120000000E+03  0.17120000000E+03 0.  0.
         13    1    1    2    0    0  0.20454228157E+02 -0.87789939964E+01  0.38010029955E+02  0.44047925335E+02  0.10566000000E+00 0. -1.
        994    1    1    2    0    0 -0.52900243789E+01  0.75508077876E+01  0.65238981774E+01  0.17157214315E+03  0.17120000000E+03 0.  0.
        998    1    1    2    0    0 -0.15164203778E+02  0.12281862088E+01  0.14554660681E+04  0.14555799315E+04  0.10000000000E+02 0. -1.
</event>
<event>
 5    1  0.1338054E-008  0.3801325E+03  0.7957747E-01  0.3450582E+00
         13   -1    0    0    0    0  0.00000000000E+00  0.00000000000E+00  0.14999999963E+04  0.15000000000E+04  0.10566000000E+00 0. -1.
        994   -1    0    0    0    0 -0.00000000000E+00 -0.00000000000E+00  0.11368683772E-12  0.17120000000E+03  0.17120000000E+03 0.  0.
         13    1    1    2    0    0  0.53730775769E+02  0.18735176534E+02  0.31254615991E+03  0.31768398818E+03  0.10566000000E+00 0. -1.
        994    1    1    2    0    0 -0.53245942188E+02 -0.23839035211E+02  0.15523666779E+02  0.18153196465E+03  0.17120000000E+03 0.  0.
        998    1    1    2    0    0 -0.48483358026E+00  0.51038586771E+01  0.11719301696E+04  0.11719840472E+04  0.10000000000E+02 0. -1.
</event>
<event>
 5    1  0.1338054E-008  0.3762216E+03  0.7957747E-01  0.3467777E+00
         13   -1    0    0    0    0  0.00000000000E+00  0.00000000000E+00  0.14999999963E+04  0.15000000000E+04  0.10566000000E+00 0. -1.
        994   -1    0    0    0    0 -0.00000000000E+00 -0.00000000000E+00  0.11368683772E-12  0.17120000000E+03  0.17120000000E+03 0.  0.
         13    1    1    2    0    0 -0.17475285981E+03 -0.10191736120E+03  0.10338093035E+04  0.10534170103E+04  0.10566000000E+00 0. -1.
        994    1    1    2    0    0  0.17388353417E+03  0.84678607878E+02  0.14546580901E+03  0.29643834381E+03  0.17120000000E+03 0.  0.
        998    1    1    2    0    0  0.86932563785E+00  0.17238753318E+02  0.32072488379E+03  0.32134464586E+03  0.10000000000E+02 0.  0.
</event>
<event>
 5    1  0.1338054E-008  0.4420554E+03  0.7957747E-01  0.3218714E+00
         13   -1    0    0    0    0  0.00000000000E+00  0.00000000000E+00  0.14999999963E+04  0.15000000000E+04  0.10566000000E+00 0. -1.
        994   -1    0    0    0    0 -0.00000000000E+00 -0.00000000000E+00  0.11368683772E-12  0.17120000000E+03  0.17120000000E+03 0.  0.
         13    1    1    2    0    0  0.17011445692E+01 -0.69383887358E+02  0.15226199074E+02  0.71055372914E+02  0.10566000000E+00 0. -1.
        994    1    1    2    0    0  0.47452397925E+02  0.13903001958E+03  0.16974726928E+03  0.28232012299E+03  0.17120000000E+03 0.  0.
        998    1    1    2    0    0 -0.49153542494E+02 -0.69646132221E+02  0.13150265279E+04  0.13178245041E+04  0.10000000000E+02 0. -1.
</event>
<event>
 5    1  0.1338054E-008  0.3799840E+03  0.7957747E-01  0.3451228E+00
         13   -1    0    0    0    0  0.00000000000E+00  0.00000000000E+00  0.14999999963E+04  0.15000000000E+04  0.10566000000E+00 0.  1.
        994   -1    0    0    0    0 -0.00000000000E+00 -0.00000000000E+00  0.11368683772E-12  0.17120000000E+03  0.17120000000E+03 0.  0.
         13    1    1    2    0    0  0.10071878547E+02  0.28453721443E+02  0.12767967674E+03  0.13119896348E+03  0.10566000000E+00 0.  1.
        994    1    1    2    0    0  0.10358147256E+02  0.59046109076E+01  0.46166035484E+01  0.17167675636E+03  0.17120000000E+03 0.  0.
        998    1    1    2    0    0 -0.20430025803E+02 -0.34358332351E+02  0.13677037160E+04  0.13683242802E+04  0.10000000000E+02 0.  1.
</event>
<event>
 5    1  0.1338054E-008  0.3858414E+03  0.7957747E-01  0.3426111E+00
         13   -1    0    0    0    0  0.00000000000E+00  0.00000000000E+00  0.14999999963E+04  0.15000000000E+04  0.10566000000E+00 0. -1.
        994   -1    0    0    0    0 -0.00000000000E+00 -0.00000000000E+00  0.11368683772E-12  0.17120000000E+03  0.17120000000E+03 0.  0.
         13    1    1    2    0    0 -0.13804566659E+02 -0.44785418409E+01  0.86993601675E+02  0.88195925609E+02  0.10566000000E+00 0. -1.
        994    1    1    2    0    0  0.81135528974E+01  0.84625364183E+01  0.16638546955E+01  0.17160901106E+03  0.17120000000E+03 0.  0.
        998    1    1    2    0    0  0.56910137613E+01 -0.39839945774E+01  0.14113425399E+04  0.14113950633E+04  0.10000000000E+02 0. -1.
</event>
<event>
 5    1  0.1338054E-008  0.3777295E+03  0.7957747E-01  0.3461105E+00
         13   -1    0    0    0    0  0.00000000000E+00  0.00000000000E+00  0.14999999963E+04  0.15000000000E+04  0.10566000000E+00 0. -1.
        994   -1    0    0    0    0 -0.00000000000E+00 -0.00000000000E+00  0.11368683772E-12  0.17120000000E+03  0.17120000000E+03 0.  0.
         13    1    1    2    0    0  0.22960621670E+02 -0.82090762695E+01  0.51938726427E+02  0.57377883784E+02  0.10566000000E+00 0. -1.
        994    1    1    2    0    0 -0.25808069667E+02  0.11911835595E+02  0.80098163974E+01  0.17372836684E+03  0.17120000000E+03 0.  0.
        998    1    1    2    0    0  0.28474479969E+01 -0.37027593259E+01  0.14400514535E+04  0.14400937494E+04  0.10000000000E+02 0. -1.
</event>
<event>
 5    1  0.1338054E-008  0.3855391E+03  0.7957747E-01  0.3427389E+00
         13   -1    0    0    0    0  0.00000000000E+00  0.00000000000E+00  0.14999999963E+04  0.15000000000E+04  0.10566000000E+00 0. -1.
        994   -1    0    0    0    0 -0.00000000000E+00 -0.00000000000E+00  0.11368683772E-12  0.17120000000E+03  0.17120000000E+03 0.  0.
         13    1    1    2    0    0 -0.21272892415E+01 -0.13857262286E+02  0.73639543606E+02  0.74962274673E+02  0.10566000000E+00 0. -1.
        994    1    1    2    0    0 -0.49452633582E+00  0.73025234761E+01  0.15386023695E+01  0.17136329450E+03  0.17120000000E+03 0.  0.
        998    1    1    2    0    0  0.26218155773E+01  0.65547388095E+01  0.14248218503E+04  0.14248744308E+04  0.10000000000E+02 0. -1.
</event>
<event>
 5    1  0.1338054E-008  0.3838640E+03  0.7957747E-01  0.3434505E+00
         13   -1    0    0    0    0  0.00000000000E+00  0.00000000000E+00  0.14999999963E+04  0.15000000000E+04  0.10566000000E+00 0. -1.
        994   -1    0    0    0    0 -0.00000000000E+00 -0.00000000000E+00  0.11368683772E-12  0.17120000000E+03  0.17120000000E+03 0.  0.
         13    1    1    2    0    0 -0.24367461215E+02 -0.11099071396E+02  0.14525714057E+03  0.14770447049E+03  0.10566000000E+00 0. -1.
        994    1    1    2    0    0  0.26689757428E+02  0.14083260808E+02  0.52069927473E+01  0.17391731990E+03  0.17120000000E+03 0.  0.
        998    1    1    2    0    0 -0.23222962131E+01 -0.29841894118E+01  0.13495358630E+04  0.13495782096E+04  0.10000000000E+02 0. -1.
</event>
<event>
 5    1  0.1338054E-008  0.4251440E+03  0.7957747E-01  0.3275432E+00
         13   -1    0    0    0    0  0.00000000000E+00  0.00000000000E+00  0.14999999963E+04  0.15000000000E+04  0.10566000000E+00 0. -1.
        994   -1    0    0    0    0 -0.00000000000E+00 -0.00000000000E+00  0.11368683772E-12  0.17120000000E+03  0.17120000000E+03 0.  0.
         13    1    1    2    0    0  0.14462742481E+03 -0.61394747539E+02  0.32401834869E+03  0.36010319144E+03  0.10566000000E+00 0. -1.
        994    1    1    2    0    0 -0.31480031730E+02  0.87954393263E+02  0.83080343606E+02  0.21198762036E+03  0.17120000000E+03 0.  0.
        998    1    1    2    0    0 -0.11314739308E+03 -0.26559645724E+02  0.10929013040E+04  0.10991091882E+04  0.10000000000E+02 0. -1.
</event>
<event>
 5    1  0.1338054E-008  0.3794130E+03  0.7957747E-01  0.3453719E+00
         13   -1    0    0    0    0  0.00000000000E+00  0.00000000000E+00  0.14999999963E+04  0.15000000000E+04  0.10566000000E+00 0. -1.
        994   -1    0    0    0    0 -0.00000000000E+00 -0.00000000000E+00  0.11368683772E-12  0.17120000000E+03  0.17120000000E+03 0.  0.
         13    1    1    2    0    0  0.95612604089E+01 -0.42613320384E+01  0.10294976255E+02  0.14682450459E+02  0.10566000000E+00 0. -1.
        994    1    1    2    0    0 -0.10412545451E+02  0.61254421987E+01  0.49187328993E+01  0.17169617374E+03  0.17120000000E+03 0.  0.
        998    1    1    2    0    0  0.85128504174E+00 -0.18641101603E+01  0.14847862871E+04  0.14848213758E+04  0.10000000000E+02 0. -1.
</event>
<event>
 5    1  0.1338054E-008  0.3748484E+03  0.7957747E-01  0.3473901E+00
         13   -1    0    0    0    0  0.00000000000E+00  0.00000000000E+00  0.14999999963E+04  0.15000000000E+04  0.10566000000E+00 0. -1.
        994   -1    0    0    0    0 -0.00000000000E+00 -0.00000000000E+00  0.11368683772E-12  0.17120000000E+03  0.17120000000E+03 0.  0.
         13    1    1    2    0    0  0.33051751238E+02 -0.18927905231E+02  0.97952225949E+02  0.10509678201E+03  0.10566000000E+00 0. -1.
        994    1    1    2    0    0 -0.35963104872E+02  0.17627847974E+02  0.12231559523E+02  0.17624737440E+03  0.17120000000E+03 0.  0.
        998    1    1    2    0    0  0.29113536341E+01  0.13000572570E+01  0.13898162108E+04  0.13898558436E+04  0.10000000000E+02 0. -1.
</event>
<event>
 5    1  0.1338054E-008  0.3819539E+03  0.7957747E-01  0.3442695E+00
         13   -1    0    0    0    0  0.00000000000E+00  0.00000000000E+00  0.14999999963E+04  0.15000000000E+04  0.10566000000E+00 0. -1.
        994   -1    0    0    0    0 -0.00000000000E+00 -0.00000000000E+00  0.11368683772E-12  0.17120000000E+03  0.17120000000E+03 0.  0.
         13    1    1    2    0    0  0.11216564437E+02 -0.23929661637E+01  0.20416885405E+02  0.23417898678E+02  0.10566000000E+00 0. -1.
        994    1    1    2    0    0  0.56815932466E+01  0.88485618432E+00  0.32599040951E+01  0.17132755309E+03  0.17120000000E+03 0.  0.
        998    1    1    2    0    0 -0.16898157683E+02  0.15081099794E+01  0.14763232068E+04  0.14764545482E+04  0.10000000000E+02 0. -1.
</event>
<event>
 5    1  0.1338054E-008  0.3845823E+03  0.7957747E-01  0.3431445E+00
         13   -1    0    0    0    0  0.00000000000E+00  0.00000000000E+00  0.14999999963E+04  0.15000000000E+04  0.10566000000E+00 0. -1.
        994   -1    0    0    0    0 -0.00000000000E+00 -0.00000000000E+00  0.11368683772E-12  0.17120000000E+03  0.17120000000E+03 0.  0.
         13    1    1    2    0    0 -0.14372314376E+02  0.63433670246E+01  0.55791810900E+02  0.57961530805E+02  0.10566000000E+00 0. -1.
        994    1    1    2    0    0  0.39969478032E+02 -0.18313762637E+02  0.82291737569E+01  0.17694663709E+03  0.17120000000E+03 0.  0.
        998    1    1    2    0    0 -0.25597163656E+02  0.11970395613E+02  0.14359790116E+04  0.14362918321E+04  0.10000000000E+02 0. -1.
</event>
<event>
 5    1  0.1338054E-008  0.3839443E+03  0.7957747E-01  0.3434162E+00
         13   -1    0    0    0    0  0.00000000000E+00  0.00000000000E+00  0.14999999963E+04  0.15000000000E+04  0.10566000000E+00 0.  1.
        994   -1    0    0    0    0 -0.00000000000E+00 -0.00000000000E+00  0.11368683772E-12  0.17120000000E+03  0.17120000000E+03 0.  0.
         13    1    1    2    0    0 -0.12066810435E+02  0.23896231957E+02  0.14649256001E+03  0.14891849824E+03  0.10566000000E+00 0.  1.
        994    1    1    2    0    0  0.22881137484E+02 -0.23522560090E+02  0.57168443211E+01  0.17441037697E+03  0.17120000000E+03 0.  0.
        998    1    1    2    0    0 -0.10814327050E+02 -0.37367186683E+00  0.13477905920E+04  0.13478711248E+04  0.10000000000E+02 0.  1.
</event>
<event>
 5    1  0.1338054E-008  0.3826684E+03  0.7957747E-01  0.3439621E+00
         13   -1    0    0    0    0  0.00000000000E+00  0.00000000000E+00  0.14999999963E+04  0.15000000000E+04  0.10566000000E+00 0.  1.
        994   -1    0    0    0    0 -0.00000000000E+00 -0.00000000000E+00  0.11368683772E-12  0.17120000000E+03  0.17120000000E+03 0.  0.
         13    1    1    2    0    0  0.22592618043E+02  0.30771262042E+01  0.10203465294E+03  0.10455131114E+03  0.10566000000E+00 0.  1.
        994    1    1    2    0    0  0.25118850383E+01 -0.48106311017E+01  0.28897953044E+01  0.17131036937E+03  0.17120000000E+03 0.  0.
        998    1    1    2    0    0 -0.25104503081E+02  0.17335048976E+01  0.13950755480E+04  0.13953383195E+04  0.10000000000E+02 0.  1.
</event>
<event>
 5    1  0.1338054E-008  0.3834177E+03  0.7957747E-01  0.3436411E+00
         13   -1    0    0    0    0  0.00000000000E+00  0.00000000000E+00  0.14999999963E+04  0.15000000000E+04  0.10566000000E+00 0.  1.
        994   -1    0    0    0    0 -0.00000000000E+00 -0.00000000000E+00  0.11368683772E-12  0.17120000000E+03  0.17120000000E+03 0.  0.
         13    1    1    2    0    0 -0.10632576899E+02 -0.23685356796E+02  0.15275143201E+03  0.15494211488E+03  0.10566000000E+00 0.  1.
        994    1    1    2    0    0  0.17705871484E+01  0.36527358430E+01  0.24722126014E+01  0.17126596070E+03  0.17120000000E+03 0.  0.
        998    1    1    2    0    0  0.88619897507E+01  0.20032620954E+02  0.13447763517E+04  0.13449919244E+04  0.10000000000E+02 0.  1.
</event>
<event>
 5    1  0.1338054E-008  0.3721663E+03  0.7957747E-01  0.3485994E+00
         13   -1    0    0    0    0  0.00000000000E+00  0.00000000000E+00  0.14999999963E+04  0.15000000000E+04  0.10566000000E+00 0.  1.
        994   -1    0    0    0    0 -0.00000000000E+00 -0.00000000000E+00  0.11368683772E-12  0.17120000000E+03  0.17120000000E+03 0.  0.
         13    1    1    2    0    0  0.16641924161E+02 -0.30383283764E+02  0.69168703697E+02  0.77359022145E+02  0.10566000000E+00 0.  1.
        994    1    1    2    0    0 -0.22707702128E+02  0.20289042743E+02  0.11330230469E+02  0.17425584384E+03  0.17120000000E+03 0.  0.
        998    1    1    2    0    0  0.60657779671E+01  0.10094241021E+02  0.14195010621E+04  0.14195851340E+04  0.10000000000E+02 0.  1.
</event>
<event>
 5    1  0.1338054E-008  0.3843231E+03  0.7957747E-01  0.3432548E+00
         13   -1    0    0    0    0  0.00000000000E+00  0.00000000000E+00  0.14999999963E+04  0.15000000000E+04  0.10566000000E+00 0. -1.
        994   -1    0    0    0    0 -0.00000000000E+00 -0.00000000000E+00  0.11368683772E-12  0.17120000000E+03  0.17120000000E+03 0.  0.
         13    1    1    2    0    0 -0.12272937237E+01 -0.17213524758E+02  0.72356513685E+02  0.74386073435E+02  0.10566000000E+00 0. -1.
        994    1    1    2    0    0  0.21531784077E+01  0.17901556094E+02  0.30388003874E+01  0.17217368032E+03  0.17120000000E+03 0.  0.
        998    1    1    2    0    0 -0.92588468397E+00 -0.68803133554E+00  0.14246046822E+04  0.14246402462E+04  0.10000000000E+02 0. -1.
</event>
<event>
 5    1  0.1338054E-008  0.3732900E+03  0.7957747E-01  0.3480906E+00
         13   -1    0    0    0    0  0.00000000000E+00  0.00000000000E+00  0.14999999963E+04  0.15000000000E+04  0.10566000000E+00 0.  1.
        994   -1    0    0    0    0 -0.00000000000E+00 -0.00000000000E+00  0.11368683772E-12  0.17120000000E+03  0.17120000000E+03 0.  0.
         13    1    1    2    0    0 -0.27016018955E+02 -0.61601073231E+01  0.43875980277E+02  0.51893400464E+02  0.10566000000E+00 0.  1.
        994    1    1    2    0    0  0.41678711094E+02  0.30502697069E+02  0.16735066874E+02  0.17960242746E+03  0.17120000000E+03 0.  0.
        998    1    1    2    0    0 -0.14662692139E+02 -0.24342589746E+02  0.14393889491E+04  0.14397041721E+04  0.10000000000E+02 0.  1.
</event>
<event>
 5    1  0.2076104E-008  0.3860879E+03  0.7957747E-01  0.3425071E+00
         13   -1    0    0    0    0  0.00000000000E+00  0.00000000000E+00  0.14999999963E+04  0.15000000000E+04  0.10566000000E+00 0. -1.
        994   -1    0    0    0    0 -0.00000000000E+00 -0.00000000000E+00  0.11368683772E-12  0.17120000000E+03  0.17120000000E+03 0.  0.
         13    1    1    2    0    0  0.87603526583E+01 -0.49204608424E+01  0.47159878368E+02  0.48218461250E+02  0.10566000000E+00 0. -1.
        994    1    1    2    0    0 -0.57218354836E+01  0.17899195850E+01  0.12087851923E+01  0.17130920692E+03  0.17120000000E+03 0.  0.
        998    1    1    2    0    0 -0.30385171747E+01  0.31305412575E+01  0.14516313327E+04  0.14516723318E+04  0.10000000000E+02 0. -1.
</event>
<event>
 5    1  0.1338054E-008  0.3738896E+03  0.7957747E-01  0.3478204E+00
         13   -1    0    0    0    0  0.00000000000E+00  0.00000000000E+00  0.14999999963E+04  0.15000000000E+04  0.10566000000E+00 0. -1.
        994   -1    0    0    0    0 -0.00000000000E+00 -0.00000000000E+00  0.11368683772E-12  0.17120000000E+03  0.17120000000E+03 0.  0.
         13    1    1    2    0    0 -0.13133601918E+02  0.90428296923E+01  0.14276198985E+02  0.21402927129E+02  0.10566000000E+00 0. -1.
        994    1    1    2    0    0  0.83283385884E+01 -0.12016651107E+02  0.79797278509E+01  0.17200836370E+03  0.17120000000E+03 0.  0.
        998    1    1    2    0    0  0.48052633296E+01  0.29738214149E+01  0.14777440694E+04  0.14777887092E+04  0.10000000000E+02 0. -1.
</event>
<event>
 5    1  0.1338054E-008  0.3861910E+03  0.7957747E-01  0.3424637E+00
         13   -1    0    0    0    0  0.00000000000E+00  0.00000000000E+00  0.14999999963E+04  0.15000000000E+04  0.10566000000E+00 0.  1.
        994   -1    0    0    0    0 -0.00000000000E+00 -0.00000000000E+00  0.11368683772E-12  0.17120000000E+03  0.17120000000E+03 0.  0.
         13    1    1    2    0    0  0.11877785845E+02  0.57103466595E+01  0.68840924197E+02  0.70091182498E+02  0.10566000000E+00 0.  1.
        994    1    1    2    0    0 -0.26259449974E+02 -0.27785398508E+02  0.58428151274E+01  0.17551400392E+03  0.17120000000E+03 0.  0.
        998    1    1    2    0    0  0.14381664128E+02  0.22075051848E+02  0.14253162570E+04  0.14255948136E+04  0.10000000000E+02 0.  1.
</event>
<event>
 5    1  0.1338054E-008  0.3858414E+03  0.7957747E-01  0.3426112E+00
         13   -1    0    0    0    0  0.00000000000E+00  0.00000000000E+00  0.14999999963E+04  0.15000000000E+04  0.10566000000E+00 0.  1.
        994   -1    0    0    0    0 -0.00000000000E+00 -0.00000000000E+00  0.11368683772E-12  0.17120000000E+03  0.17120000000E+03 0.  0.
         13    1    1    2    0    0 -0.60868120726E+01 -0.13067388886E+02  0.85732290460E+02  0.86935854083E+02  0.10566000000E+00 0.  1.
        994    1    1    2    0    0  0.84214394929E+01  0.75485562588E+01  0.16325675176E+01  0.17158090401E+03  0.17120000000E+03 0.  0.
        998    1    1    2    0    0 -0.23346274204E+01  0.55188326276E+01  0.14126351383E+04  0.14126832419E+04  0.10000000000E+02 0.  1.
</event>
<event>
 5    1  0.1338054E-008  0.3855909E+03  0.7957747E-01  0.3427170E+00
         13   -1    0    0    0    0  0.00000000000E+00  0.00000000000E+00  0.14999999963E+04  0.15000000000E+04  0.10566000000E+00 0. -1.
        994   -1    0    0    0    0 -0.00000000000E+00 -0.00000000000E+00  0.11368683772E-12  0.17120000000E+03  0.17120000000E+03 0.  0.
         13    1    1    2    0    0  0.11261918742E+02  0.45961761815E+01  0.54054470244E+02  0.55406250248E+02  0.10566000000E+00 0. -1.
        994    1    1    2    0    0 -0.12008151709E+02 -0.43302987240E+01  0.18720618008E+01  0.17168544437E+03  0.17120000000E+03 0.  0.
        998    1    1    2    0    0  0.74623296700E+00 -0.26587745751E+00  0.14440734642E+04  0.14441083054E+04  0.10000000000E+02 0. -1.
</event>
<event>
 5    1  0.1338054E-008  0.3911943E+03  0.7957747E-01  0.3403819E+00
         13   -1    0    0    0    0  0.00000000000E+00  0.00000000000E+00  0.14999999963E+04  0.15000000000E+04  0.10566000000E+00 0. -1.
        994   -1    0    0    0    0 -0.00000000000E+00 -0.00000000000E+00  0.11368683772E-12  0.17120000000E+03  0.17120000000E+03 0.  0.
         13    1    1    2    0    0 -0.67231799263E+02  0.22076940418E+02  0.15761337227E+03  0.17277005647E+03  0.10566000000E+00 0. -1.
        994    1    1    2    0    0 -0.76614042507E+02  0.63311928672E+01  0.45318169689E+02  0.19306209368E+03  0.17120000000E+03 0.  0.
        998    1    1    2    0    0  0.14384584177E+03 -0.28408133285E+02  0.12970684543E+04  0.13053678498E+04  0.10000000000E+02 0. -1.
</event>
<event>
 5    1  0.1338054E-008  0.3765850E+03  0.7957747E-01  0.3466164E+00
         13   -1    0    0    0    0  0.00000000000E+00  0.00000000000E+00  0.14999999963E+04  0.15000000000E+04  0.10566000000E+00 0. -1.
        994   -1    0    0    0    0 -0.00000000000E+00 -0.00000000000E+00  0.11368683772E-12  0.17120000000E+03  0.17120000000E+03 0.  0.
         13    1    1    2    0    0 -0.60915903687E+01  0.21639383106E+02  0.39522775234E+02  0.45469014732E+02  0.10566000000E+00 0. -1.
        994    1    1    2    0    0  0.11254787027E+02 -0.22768465816E+02  0.80511619875E+01  0.17326088559E+03  0.17120000000E+03 0.  0.
        998    1    1    2    0    0 -0.51631966579E+01  0.11290827108E+01  0.14524260591E+04  0.14524700997E+04  0.10000000000E+02 0. -1.
</event>
<event>
 5    1  0.1338054E-008  0.3819756E+03  0.7957747E-01  0.3442601E+00
         13   -1    0    0    0    0  0.00000000000E+00  0.00000000000E+00  0.14999999963E+04  0.15000000000E+04  0.10566000000E+00 0.  1.
        994   -1    0    0    0    0 -0.00000000000E+00 -0.00000000000E+00  0.11368683772E-12  0.17120000000E+03  0.17120000000E+03 0.  0.
         13    1    1    2    0    0 -0.16837088070E+02  0.21094664703E+01  0.14355451810E+00  0.16969653957E+02  0.10566000000E+00 0.  1.
        994    1    1    2    0    0  0.31653955020E+02 -0.13798741868E+02  0.21781064452E+02  0.17600066169E+03  0.17120000000E+03 0.  0.
        998    1    1    2    0    0 -0.14816866950E+02  0.11689275397E+02  0.14780753773E+04  0.14782296844E+04  0.10000000000E+02 0.  1.
</event>
<event>
 5    1  0.1338054E-008  0.3734869E+03  0.7957747E-01  0.3480018E+00
         13   -1    0    0    0    0  0.00000000000E+00  0.00000000000E+00  0.14999999963E+04  0.15000000000E+04  0.10566000000E+00 0.  1.
        994   -1    0    0    0    0 -0.00000000000E+00 -0.00000000000E+00  0.11368683772E-12  0.17120000000E+03  0.17120000000E+03 0.  0.
         13    1    1    2    0    0  0.84723000326E+02 -0.10620284994E+02  0.38060797086E+03  0.39006821953E+03  0.10566000000E+00 0.  1.
        994    1    1    2    0    0 -0.78576988205E+02  0.10003012912E+02  0.29208305394E+02  0.19088469935E+03  0.17120000000E+03 0.  0.
        998    1    1    2    0    0 -0.61460121216E+01  0.61727208243E+00  0.10901837200E+04  0.10902470811E+04  0.10000000000E+02 0.  1.
</event>
<event>
 5    1  0.1338054E-008  0.3800661E+03  0.7957747E-01  0.3450871E+00
         13   -1    0    0    0    0  0.00000000000E+00  0.00000000000E+00  0.14999999963E+04  0.15000000000E+04  0.10566000000E+00 0.  1.
        994   -1    0    0    0    0 -0.00000000000E+00 -0.00000000000E+00  0.11368683772E-12  0.17120000000E+03  0.17120000000E+03 0.  0.
         13    1    1    2    0    0  0.18056073967E+02  0.20545149937E+02  0.83875454683E+02  0.88222605127E+02  0.10566000000E+00 0.  1.
        994    1    1    2    0    0 -0.24458882416E+02 -0.20290340192E+02  0.74825068870E+01  0.17428529124E+03  0.17120000000E+03 0.  0.
        998    1    1    2    0    0  0.64028084495E+01 -0.25480974489E+00  0.14086420347E+04  0.14086921036E+04  0.10000000000E+02 0.  1.
</event>
<event>
 5    1  0.1338054E-008  0.3809896E+03  0.7957747E-01  0.3446861E+00
         13   -1    0    0    0    0  0.00000000000E+00  0.00000000000E+00  0.14999999963E+04  0.15000000000E+04  0.10566000000E+00 0. -1.
        994   -1    0    0    0    0 -0.00000000000E+00 -0.00000000000E+00  0.11368683772E-12  0.17120000000E+03  0.17120000000E+03 0.  0.
         13    1    1    2    0    0 -0.10999383234E+02 -0.31997411854E+02  0.17279655174E+03  0.17607805159E+03  0.10566000000E+00 0. -1.
        994    1    1    2    0    0  0.43939039583E+01  0.50036039055E+01  0.37822151250E+01  0.17137119827E+03  0.17120000000E+03 0.  0.
        998    1    1    2    0    0  0.66054792757E+01  0.26993807949E+02  0.13234212294E+04  0.13237507501E+04  0.10000000000E+02 0. -1.
</event>
<event>
 5    1  0.1338054E-008  0.3747329E+03  0.7957747E-01  0.3474418E+00
         13   -1    0    0    0    0  0.00000000000E+00  0.00000000000E+00  0.14999999963E+04  0.15000000000E+04  0.10566000000E+00 0. -1.
        994   -1    0    0    0    0 -0.00000000000E+00 -0.00000000000E+00  0.11368683772E-12  0.17120000000E+03  0.17120000000E+03 0.  0.
         13    1    1    2    0    0 -0.98786084547E+01  0.70485678599E+01  0.82110763693E+01  0.14652718282E+02  0.10566000000E+00 0. -1.
        994    1    1    2    0    0 -0.12140137538E+02  0.16756815491E+02  0.82740493507E+01  0.17264435611E+03  0.17120000000E+03 0.  0.
        998    1    1    2    0    0  0.22018745993E+02 -0.23805383350E+02  0.14835148706E+04  0.14839029256E+04  0.10000000000E+02 0. -1.
</event>
<event>
 5    1  0.1338054E-008  0.3849550E+03  0.7957747E-01  0.3429863E+00
         13   -1    0    0    0    0  0.00000000000E+00  0.00000000000E+00  0.14999999963E+04  0.15000000000E+04  0.10566000000E+00 0.  1.
        994   -1    0    0    0    0 -0.00000000000E+00 -0.00000000000E+00  0.11368683772E-12  0.17120000000E+03  0.17120000000E+03 0.  0.
         13    1    1    2    0    0 -0.87994143352E+01 -0.48911760365E+01  0.31491516638E+02  0.33061761597E+02  0.10566000000E+00 0.  1.
        994    1    1    2    0    0 -0.26399330174E+01  0.30864957871E+01  0.17067184171E+01  0.17125667459E+03  0.17120000000E+03 0.  0.
        998    1    1    2    0    0  0.11439347353E+02  0.18046802494E+01  0.14668017612E+04  0.14668815638E+04  0.10000000000E+02 0.  1.
</event>
<event>
 5    1  0.1338054E-008  0.3744271E+03  0.7957747E-01  0.3475789E+00
         13   -1    0    0    0    0  0.00000000000E+00  0.00000000000E+00  0.14999999963E+04  0.15000000000E+04  0.10566000000E+00 0. -1.
        994   -1    0    0    0    0 -0.00000000000E+00 -0.00000000000E+00  0.11368683772E-12  0.17120000000E+03  0.17120000000E+03 0.  0.
         13    1    1    2    0    0 -0.24670548886E+02 -0.39488799300E+02  0.17155499462E+03  0.17776143731E+03  0.10566000000E+00 0. -1.
        994    1    1    2    0    0 -0.15503327746E+02  0.18076377071E+02  0.89070434747E+01  0.17307768199E+03  0.17120000000E+03 0.  0.
        998    1    1    2    0    0  0.40173876632E+02  0.21412422229E+02  0.13195379582E+04  0.13203608807E+04  0.10000000000E+02 0. -1.
</event>
<event>
 5    1  0.1338054E-008  0.3700628E+03  0.7957747E-01  0.3495602E+00
         13   -1    0    0    0    0  0.00000000000E+00  0.00000000000E+00  0.14999999963E+04  0.15000000000E+04  0.10566000000E+00 0. -1.
        994   -1    0    0    0    0 -0.00000000000E+00 -0.00000000000E+00  0.11368683772E-12  0.17120000000E+03  0.17120000000E+03 0.  0.
         13    1    1    2    0    0 -0.28309050386E+02 -0.81623644405E+01  0.34439814953E+02  0.45322605232E+02  0.10566000000E+00 0. -1.
        994    1    1    2    0    0  0.26532425853E+02  0.11706802878E+02  0.13918460374E+02  0.17419581624E+03  0.17120000000E+03 0.  0.
        998    1    1    2    0    0  0.17766245327E+01 -0.35444384371E+01  0.14516417210E+04  0.14516815785E+04  0.10000000000E+02 0. -1.
</event>
<event>
 5    1  0.1338054E-008  0.3822893E+03  0.7957747E-01  0.3441251E+00
         13   -1    0    0    0    0  0.00000000000E+00  0.00000000000E+00  0.14999999963E+04  0.15000000000E+04  0.10566000000E+00 0.  1.
        994   -1    0    0    0    0 -0.00000000000E+00 -0.00000000000E+00  0.11368683772E-12  0.17120000000E+03  0.17120000000E+03 0.  0.
         13    1    1    2    0    0 -0.89866769348E+01 -0.11582312858E+02  0.35753897143E+02  0.38642756869E+02  0.10566000000E+00 0.  1.
        994    1    1    2    0    0  0.73658784304E+01 -0.57468723397E+00  0.31630898531E+01  0.17138853978E+03  0.17120000000E+03 0.  0.
        998    1    1    2    0    0  0.16207985044E+01  0.12157000092E+02  0.14610830093E+04  0.14611687034E+04  0.10000000000E+02 0.  1.
</event>
<event>
 5    1  0.1338054E-008  0.3745387E+03  0.7957747E-01  0.3475288E+00
         13   -1    0    0    0    0  0.00000000000E+00  0.00000000000E+00  0.14999999963E+04  0.15000000000E+04  0.10566000000E+00 0. -1.
        994   -1    0    0    0    0 -0.00000000000E+00 -0.00000000000E+00  0.11368683772E-12  0.17120000000E+03  0.17120000000E+03 0.  0.
         13    1    1    2    0    0 -0.28749956808E+02  0.20047906455E+02  0.75081206526E+02  0.82859382734E+02  0.10566000000E+00 0. -1.
        994    1    1    2    0    0  0.32203149845E+02 -0.58338745794E+02  0.22186924041E+02  0.18504635019E+03  0.17120000000E+03 0.  0.
        998    1    1    2    0    0 -0.34531930365E+01  0.38290839338E+02  0.14027318657E+04  0.14032942671E+04  0.10000000000E+02 0. -1.
</event>
<event>
 5    1  0.1338054E-008  0.3809687E+03  0.7957747E-01  0.3446951E+00
         13   -1    0    0    0    0  0.00000000000E+00  0.00000000000E+00  0.14999999963E+04  0.15000000000E+04  0.10566000000E+00 0.  1.
        994   -1    0    0    0    0 -0.00000000000E+00 -0.00000000000E+00  0.11368683772E-12  0.17120000000E+03  0.17120000000E+03 0.  0.
         13    1    1    2    0    0  0.10182966220E+02  0.10195986275E+02  0.27342315182E+02  0.30907350270E+02  0.10566000000E+00 0.  1.
        994    1    1    2    0    0 -0.51942703093E+01 -0.39699703209E+01  0.37873765813E+01  0.17136664007E+03  0.17120000000E+03 0.  0.
        998    1    1    2    0    0 -0.49886959110E+01 -0.62260159537E+01  0.14688703045E+04  0.14689260097E+04  0.10000000000E+02 0.  1.
</event>
<event>
 5    1  0.1338054E-008  0.3842342E+03  0.7957747E-01  0.3432927E+00
         13   -1    0    0    0    0  0.00000000000E+00  0.00000000000E+00  0.14999999963E+04  0.15000000000E+04  0.10566000000E+00 0.  1.
        994   -1    0    0    0    0 -0.00000000000E+00 -0.00000000000E+00  0.11368683772E-12  0.17120000000E+03  0.17120000000E+03 0.  0.
         13    1    1    2    0    0 -0.11205708392E+02 -0.69672024114E+01  0.42103612578E+02  0.44122955094E+02  0.10566000000E+00 0.  1.
        994    1    1    2    0    0  0.13476071534E+02  0.24635981046E+01  0.26298066486E+01  0.17176737089E+03  0.17120000000E+03 0.  0.
        998    1    1    2    0    0 -0.22703631420E+01  0.45036043068E+01  0.14552665771E+04  0.14553096740E+04  0.10000000000E+02 0.  1.
</event>
<event>
 5    1  0.1338054E-008  0.3686231E+03  0.7957747E-01  0.3502243E+00
         13   -1    0    0    0    0  0.00000000000E+00  0.00000000000E+00  0.14999999963E+04  0.15000000000E+04  0.10566000000E+00 0.  1.
        994   -1    0    0    0    0 -0.00000000000E+00 -0.00000000000E+00  0.11368683772E-12  0.17120000000E+03  0.17120000000E+03 0.  0.
         13    1    1    2    0    0  0.28311677777E+02  0.18966799748E+02  0.54347839140E+02  0.64148182940E+02  0.10566000000E+00 0.  1.
        994    1    1    2    0    0 -0.19550970076E+02 -0.11408068915E+02  0.11772681105E+02  0.17309078684E+03  0.17120000000E+03 0.  0.
        998    1    1    2    0    0 -0.87607077017E+01 -0.75587308326E+01  0.14338794760E+04  0.14339610302E+04  0.10000000000E+02 0.  1.
</event>
<event>
 5    1  0.1338054E-008  0.3810641E+03  0.7957747E-01  0.3446538E+00
         13   -1    0    0    0    0  0.00000000000E+00  0.00000000000E+00  0.14999999963E+04  0.15000000000E+04  0.10566000000E+00 0.  1.
        994   -1    0    0    0    0 -0.00000000000E+00 -0.00000000000E+00  0.11368683772E-12  0.17120000000E+03  0.17120000000E+03 0.  0.
         13    1    1    2    0    0  0.18251627305E+02  0.29373860605E+02  0.17298453193E+03  0.17640749711E+03  0.10566000000E+00 0.  1.
        994    1    1    2    0    0 -0.10255497411E+02 -0.98867589644E+01  0.42732261865E+01  0.17184476626E+03  0.17120000000E+03 0.  0.
        998    1    1    2    0    0 -0.79961298934E+01 -0.19487101641E+02  0.13227422382E+04  0.13229477366E+04  0.10000000000E+02 0.  1.
</event>
<event>
 5    1  0.1338054E-008  0.3840334E+03  0.7957747E-01  0.3433782E+00
         13   -1    0    0    0    0  0.00000000000E+00  0.00000000000E+00  0.14999999963E+04  0.15000000000E+04  0.10566000000E+00 0. -1.
        994   -1    0    0    0    0 -0.00000000000E+00 -0.00000000000E+00  0.11368683772E-12  0.17120000000E+03  0.17120000000E+03 0.  0.
         13    1    1    2    0    0 -0.12518677504E+02  0.23291652083E+02  0.15644463662E+03  0.15866365001E+03  0.10566000000E+00 0. -1.
        994    1    1    2    0    0  0.11258531406E+02 -0.19062267007E+02  0.37293787679E+01  0.17266578358E+03  0.17120000000E+03 0.  0.
        998    1    1    2    0    0  0.12601460980E+01 -0.42293850762E+01  0.13398259809E+04  0.13398705664E+04  0.10000000000E+02 0. -1.
</event>
<event>
 5    1  0.1338054E-008  0.3784701E+03  0.7957747E-01  0.3457847E+00
         13   -1    0    0    0    0  0.00000000000E+00  0.00000000000E+00  0.14999999963E+04  0.15000000000E+04  0.10566000000E+00 0. -1.
        994   -1    0    0    0    0 -0.00000000000E+00 -0.00000000000E+00  0.11368683772E-12  0.17120000000E+03  0.17120000000E+03 0.  0.
         13    1    1    2    0    0 -0.19943297814E+02 -0.12770036565E+02  0.52539796483E+02  0.57630290126E+02  0.10566000000E+00 0. -1.
        994    1    1    2    0    0  0.19474748683E+02  0.24285436583E+02  0.81702234246E+01  0.17419885424E+03  0.17120000000E+03 0.  0.
        998    1    1    2    0    0  0.46854913163E+00 -0.11515400018E+02  0.14392899764E+04  0.14393708556E+04  0.10000000000E+02 0. -1.
</event>
<event>
 5    1  0.1338054E-008  0.3831433E+03  0.7957747E-01  0.3437585E+00
         13   -1    0    0    0    0  0.00000000000E+00  0.00000000000E+00  0.14999999963E+04  0.15000000000E+04  0.10566000000E+00 0.  1.
        994   -1    0    0    0    0 -0.00000000000E+00 -0.00000000000E+00  0.11368683772E-12  0.17120000000E+03  0.17120000000E+03 0.  0.
         13    1    1    2    0    0  0.89637712771E+01  0.10314287401E+02  0.36806357176E+02  0.39261339925E+02  0.10566000000E+00 0.  1.
        994    1    1    2    0    0  0.13778760206E+01 -0.36697282179E+01  0.26056270134E+01  0.17126469204E+03  0.17120000000E+03 0.  0.
        998    1    1    2    0    0 -0.10341647298E+02 -0.66445591830E+01  0.14605880121E+04  0.14606739680E+04  0.10000000000E+02 0.  1.
</event>
<event>
 5    1  0.1338054E-008  0.3845107E+03  0.7957747E-01  0.3431750E+00
         13   -1    0    0    0    0  0.00000000000E+00  0.00000000000E+00  0.14999999963E+04  0.15000000000E+04  0.10566000000E+00 0. -1.
        994   -1    0    0    0    0 -0.00000000000E+00 -0.00000000000E+00  0.11368683772E-12  0.17120000000E+03  0.17120000000E+03 0.  0.
         13    1    1    2    0    0 -0.17338498468E+02  0.76027332016E+01  0.10034463569E+03  0.10211504373E+03  0.10566000000E+00 0. -1.
        994    1    1    2    0    0  0.10212263855E+02  0.94429403786E+01  0.25107687862E+01  0.17178243046E+03  0.17120000000E+03 0.  0.
        998    1    1    2    0    0  0.71262346137E+01 -0.17045673580E+02  0.13971445918E+04  0.13973025258E+04  0.10000000000E+02 0. -1.
</event>
<event>
 5    1  0.1338054E-008  0.3794601E+03  0.7957747E-01  0.3453513E+00
         13   -1    0    0    0    0  0.00000000000E+00  0.00000000000E+00  0.14999999963E+04  0.15000000000E+04  0.10566000000E+00 0.  1.
        994   -1    0    0    0    0 -0.00000000000E+00 -0.00000000000E+00  0.11368683772E-12  0.17120000000E+03  0.17120000000E+03 0.  0.
         13    1    1    2    0    0 -0.10828816791E+02  0.23254705659E+02  0.81458487434E+02  0.85402230343E+02  0.10566000000E+00 0.  1.
        994    1    1    2    0    0 -0.16140146098E+02  0.66835512569E+00  0.52803182469E+01  0.17204148562E+03  0.17120000000E+03 0.  0.
        998    1    1    2    0    0  0.26968962889E+02 -0.23923060785E+02  0.14132611906E+04  0.14137562840E+04  0.10000000000E+02 0.  1.
</event>
<event>
 5    1  0.1338054E-008  0.3826757E+03  0.7957747E-01  0.3439590E+00
         13   -1    0    0    0    0  0.00000000000E+00  0.00000000000E+00  0.14999999963E+04  0.15000000000E+04  0.10566000000E+00 0. -1.
        994   -1    0    0    0    0 -0.00000000000E+00 -0.00000000000E+00  0.11368683772E-12  0.17120000000E+03  0.17120000000E+03 0.  0.
         13    1    1    2    0    0  0.15662685796E+02 -0.24144107532E+02  0.12301771734E+03  0.12633933512E+03  0.10566000000E+00 0. -1.
        994    1    1    2    0    0 -0.25527975691E+02  0.36968084909E+02  0.95054318172E+01  0.17725154464E+03  0.17120000000E+03 0.  0.
        998    1    1    2    0    0  0.98652898948E+01 -0.12823977377E+02  0.13674768471E+04  0.13676091202E+04  0.10000000000E+02 0. -1.
</event>
<event>
 5    1  0.1338054E-008  0.3802287E+03  0.7957747E-01  0.3450163E+00
         13   -1    0    0    0    0  0.00000000000E+00  0.00000000000E+00  0.14999999963E+04  0.15000000000E+04  0.10566000000E+00 0.  1.
        994   -1    0    0    0    0 -0.00000000000E+00 -0.00000000000E+00  0.11368683772E-12  0.17120000000E+03  0.17120000000E+03 0.  0.
         13    1    1    2    0    0 -0.10506703133E+02  0.35315410043E+01  0.13758148320E+02  0.17668061631E+02  0.10566000000E+00 0.  1.
        994    1    1    2    0    0  0.36726672010E+01  0.49259732230E+01  0.41438686846E+01  0.17136033772E+03  0.17120000000E+03 0.  0.
        998    1    1    2    0    0  0.68340359318E+01 -0.84575142273E+01  0.14820979793E+04  0.14821716006E+04  0.10000000000E+02 0.  1.
</event>
<event>
 5    1  0.1338054E-008  0.3849025E+03  0.7957747E-01  0.3430086E+00
         13   -1    0    0    0    0  0.00000000000E+00  0.00000000000E+00  0.14999999963E+04  0.15000000000E+04  0.10566000000E+00 0.  1.
        994   -1    0    0    0    0 -0.00000000000E+00 -0.00000000000E+00  0.11368683772E-12  0.17120000000E+03  0.17120000000E+03 0.  0.
         13    1    1    2    0    0  0.55861523849E+01  0.17622392262E+02  0.94081482270E+02  0.95880604283E+02  0.10566000000E+00 0.  1.
        994    1    1    2    0    0 -0.19123944268E+02 -0.17753795089E+02  0.39218038932E+01  0.17322165866E+03  0.17120000000E+03 0.  0.
        998    1    1    2    0    0  0.13537791883E+02  0.13140282729E+00  0.14019967101E+04  0.14020977371E+04  0.10000000000E+02 0.  1.
</event>
<event>
 5    1  0.1338054E-008  0.3810243E+03  0.7957747E-01  0.3446711E+00
         13   -1    0    0    0    0  0.00000000000E+00  0.00000000000E+00  0.14999999963E+04  0.15000000000E+04  0.10566000000E+00 0.  1.
        994   -1    0    0    0    0 -0.00000000000E+00 -0.00000000000E+00  0.11368683772E-12  0.17120000000E+03  0.17120000000E+03 0.  0.
         13    1    1    2    0    0  0.48180887553E+01  0.11246390164E+02  0.18914632445E+02  0.22527089371E+02  0.10566000000E+00 0.  1.
        994    1    1    2    0    0 -0.31089018821E+01 -0.14111099978E+02  0.43128997836E+01  0.17186282180E+03  0.17120000000E+03 0.  0.
        998    1    1    2    0    0 -0.17091868731E+01  0.28647098144E+01  0.14767724641E+04  0.14768100888E+04  0.10000000000E+02 0.  1.
</event>
<event>
 5    1  0.1338054E-008  0.3712209E+03  0.7957747E-01  0.3490299E+00
         13   -1    0    0    0    0  0.00000000000E+00  0.00000000000E+00  0.14999999963E+04  0.15000000000E+04  0.10566000000E+00 0. -1.
        994   -1    0    0    0    0 -0.00000000000E+00 -0.00000000000E+00  0.11368683772E-12  0.17120000000E+03  0.17120000000E+03 0.  0.
         13    1    1    2    0    0 -0.28687034682E+01  0.65219559366E+02  0.21745387778E+03  0.22704189153E+03  0.10566000000E+00 0. -1.
        994    1    1    2    0    0  0.14541786734E+02 -0.58334967997E+02  0.21181997110E+02  0.18268155094E+03  0.17120000000E+03 0.  0.
        998    1    1    2    0    0 -0.11673083266E+02 -0.68845913688E+01  0.12613641214E+04  0.12614765575E+04  0.10000000000E+02 0. -1.
</event>
<event>
 5    1  0.1338054E-008  0.3405653E+03  0.7957747E-01  0.3643165E+00
         13   -1    0    0    0    0  0.00000000000E+00  0.00000000000E+00  0.14999999963E+04  0.15000000000E+04  0.10566000000E+00 0. -1.
        994   -1    0    0    0    0 -0.00000000000E+00 -0.00000000000E+00  0.11368683772E-12  0.17120000000E+03  0.17120000000E+03 0.  0.
         13    1    1    2    0    0 -0.22760296722E+03 -0.74119517200E+02  0.92787569634E+03  0.95825368903E+03  0.10566000000E+00 0. -1.
        994    1    1    2    0    0  0.19252483939E+03  0.60532203248E+02  0.18271455937E+03  0.32159603794E+03  0.17120000000E+03 0.  0.
        998    1    1    2    0    0  0.35078127824E+02  0.13587313952E+02  0.38940974057E+03  0.39135027303E+03  0.10000000000E+02 0. -1.
</event>
<event>
 5    1  0.1338054E-008  0.3849554E+03  0.7957747E-01  0.3429861E+00
         13   -1    0    0    0    0  0.00000000000E+00  0.00000000000E+00  0.14999999963E+04  0.15000000000E+04  0.10566000000E+00 0. -1.
        994   -1    0    0    0    0 -0.00000000000E+00 -0.00000000000E+00  0.11368683772E-12  0.17120000000E+03  0.17120000000E+03 0.  0.
         13    1    1    2    0    0  0.54280949314E+01  0.10023368156E+02  0.38711309167E+02  0.40354785903E+02  0.10566000000E+00 0. -1.
        994    1    1    2    0    0 -0.81421494957E+01 -0.70314106719E+01  0.20330541332E+01  0.17154972645E+03  0.17120000000E+03 0.  0.
        998    1    1    2    0    0  0.27140545644E+01 -0.29919574844E+01  0.14592556330E+04  0.14592954877E+04  0.10000000000E+02 0. -1.
</event>
<event>
 5    1  0.1338054E-008  0.3847216E+03  0.7957747E-01  0.3430854E+00
         13   -1    0    0    0    0  0.00000000000E+00  0.00000000000E+00  0.14999999963E+04  0.15000000000E+04  0.10566000000E+00 0. -1.
        994   -1    0    0    0    0 -0.00000000000E+00 -0.00000000000E+00  0.11368683772E-12  0.17120000000E+03  0.17120000000E+03 0.  0.
         13    1    1    2    0    0  0.90128335126E+01  0.51086087797E+01  0.29540473224E+02  0.31304628634E+02  0.10566000000E+00 0. -1.
        994    1    1    2    0    0 -0.77206734823E+01 -0.81890481240E+01  0.21854701240E+01  0.17158346537E+03  0.17120000000E+03 0.  0.
        998    1    1    2    0    0 -0.12921600303E+01  0.30804393443E+01  0.14682740529E+04  0.14683119060E+04  0.10000000000E+02 0. -1.
</event>
<event>
 5    1  0.1338054E-008  0.3781468E+03  0.7957747E-01  0.3459268E+00
         13   -1    0    0    0    0  0.00000000000E+00  0.00000000000E+00  0.14999999963E+04  0.15000000000E+04  0.10566000000E+00 0.  1.
        994   -1    0    0    0    0 -0.00000000000E+00 -0.00000000000E+00  0.11368683772E-12  0.17120000000E+03  0.17120000000E+03 0.  0.
         13    1    1    2    0    0 -0.12368394113E+02  0.13942484223E+02  0.29526006818E+02  0.34916561714E+02  0.10566000000E+00 0.  1.
        994    1    1    2    0    0  0.55732740069E+02 -0.66282179921E+01  0.15741043220E+02  0.18085157459E+03  0.17120000000E+03 0.  0.
        998    1    1    2    0    0 -0.43364345956E+02 -0.73142662304E+01  0.14547329462E+04  0.14554318637E+04  0.10000000000E+02 0.  1.
</event>
<event>
 5    1  0.1338054E-008  0.3857943E+03  0.7957747E-01  0.3426310E+00
         13   -1    0    0    0    0  0.00000000000E+00  0.00000000000E+00  0.14999999963E+04  0.15000000000E+04  0.10566000000E+00 0.  1.
        994   -1    0    0    0    0 -0.00000000000E+00 -0.00000000000E+00  0.11368683772E-12  0.17120000000E+03  0.17120000000E+03 0.  0.
         13    1    1    2    0    0  0.68144865400E+01 -0.10291570676E+02  0.63207462451E+02  0.64401460599E+02  0.10566000000E+00 0.  1.
        994    1    1    2    0    0 -0.59993071632E+01  0.30886943098E+01  0.13856600121E+01  0.17133852974E+03  0.17120000000E+03 0.  0.
        998    1    1    2    0    0 -0.81517937679E+00  0.72028763661E+01  0.14354068738E+04  0.14354600097E+04  0.10000000000E+02 0.  1.
</event>
<event>
 5    1  0.1606887E-008  0.3858086E+03  0.7957747E-01  0.3426250E+00
         13   -1    0    0    0    0  0.00000000000E+00  0.00000000000E+00  0.14999999963E+04  0.15000000000E+04  0.10566000000E+00 0. -1.
        994   -1    0    0    0    0 -0.00000000000E+00 -0.00000000000E+00  0.11368683772E-12  0.17120000000E+03  0.17120000000E+03 0.  0.
         13    1    1    2    0    0  0.74819074825E+01 -0.99676215342E+01  0.61615433417E+02  0.62863385351E+02  0.10566000000E+00 0. -1.
        994    1    1    2    0    0 -0.61943761759E+01  0.11797486575E+02  0.18118188053E+01  0.17172732361E+03  0.17120000000E+03 0.  0.
        998    1    1    2    0    0 -0.12875313066E+01 -0.18298650411E+01  0.14365727441E+04  0.14366092910E+04  0.10000000000E+02 0. -1.
</event>
<event>
 5    1  0.1338054E-008  0.4035830E+03  0.7957747E-01  0.3354491E+00
         13   -1    0    0    0    0  0.00000000000E+00  0.00000000000E+00  0.14999999963E+04  0.15000000000E+04  0.10566000000E+00 0. -1.
        994   -1    0    0    0    0 -0.00000000000E+00 -0.00000000000E+00  0.11368683772E-12  0.17120000000E+03  0.17120000000E+03 0.  0.
         13    1    1    2    0    0 -0.10864225034E+03  0.14978271414E+02  0.18439992411E+03  0.21454796748E+03  0.10566000000E+00 0. -1.
        994    1    1    2    0    0  0.86710102013E+02  0.24807627015E+00  0.60484408542E+02  0.20121259158E+03  0.17120000000E+03 0.  0.
        998    1    1    2    0    0  0.21932148329E+02 -0.15226347685E+02  0.12551156636E+04  0.12554394409E+04  0.10000000000E+02 0. -1.
</event>
<event>
 5    1  0.1338054E-008  0.3814941E+03  0.7957747E-01  0.3444679E+00
         13   -1    0    0    0    0  0.00000000000E+00  0.00000000000E+00  0.14999999963E+04  0.15000000000E+04  0.10566000000E+00 0.  1.
        994   -1    0    0    0    0 -0.00000000000E+00 -0.00000000000E+00  0.11368683772E-12  0.17120000000E+03  0.17120000000E+03 0.  0.
         13    1    1    2    0    0 -0.19674228120E+00 -0.11076480272E+02  0.16543680244E+02  0.19910591221E+02  0.10566000000E+00 0.  1.
        994    1    1    2    0    0  0.19924980085E+01  0.12552731721E+02  0.39183823807E+01  0.17171585495E+03  0.17120000000E+03 0.  0.
        998    1    1    2    0    0 -0.17957557273E+01 -0.14762514493E+01  0.14795379337E+04  0.14795735538E+04  0.10000000000E+02 0.  1.
</event>
<event>
 5    1  0.1338054E-008  0.3766402E+03  0.7957747E-01  0.3465920E+00
         13   -1    0    0    0    0  0.00000000000E+00  0.00000000000E+00  0.14999999963E+04  0.15000000000E+04  0.10566000000E+00 0.  1.
        994   -1    0    0    0    0 -0.00000000000E+00 -0.00000000000E+00  0.11368683772E-12  0.17120000000E+03  0.17120000000E+03 0.  0.
         13    1    1    2    0    0 -0.67478604043E+02  0.63958822892E+02  0.44619339386E+03  0.45577697278E+03  0.10566000000E+00 0.  1.
        994    1    1    2    0    0 -0.49749149450E+01 -0.37007094789E+01  0.14631571011E+02  0.17193594127E+03  0.17120000000E+03 0.  0.
        998    1    1    2    0    0  0.72453518988E+02 -0.60258113413E+02  0.10391750314E+04  0.10434870860E+04  0.10000000000E+02 0.  1.
</event>
<event>
 5    1  0.1338054E-008  0.3732352E+03  0.7957747E-01  0.3481153E+00
         13   -1    0    0    0    0  0.00000000000E+00  0.00000000000E+00  0.14999999963E+04  0.15000000000E+04  0.10566000000E+00 0. -1.
        994   -1    0    0    0    0 -0.00000000000E+00 -0.00000000000E+00  0.11368683772E-12  0.17120000000E+03  0.17120000000E+03 0.  0.
         13    1    1    2    0    0 -0.48590793827E+01  0.49375930776E+02  0.18028868239E+03  0.18699094457E+03  0.10566000000E+00 0. -1.
        994    1    1    2    0    0  0.94422820282E+02 -0.54546250338E+01  0.38824182524E+02  0.19940456131E+03  0.17120000000E+03 0.  0.
        998    1    1    2    0    0 -0.89563740900E+02 -0.43921305742E+02  0.12808871314E+04  0.12848044941E+04  0.10000000000E+02 0. -1.
</event>
<event>
 5    1  0.1338054E-008  0.3860255E+03  0.7957747E-01  0.3425335E+00
         13   -1    0    0    0    0  0.00000000000E+00  0.00000000000E+00  0.14999999963E+04  0.15000000000E+04  0.10566000000E+00 0.  1.
        994   -1    0    0    0    0 -0.00000000000E+00 -0.00000000000E+00  0.11368683772E-12  0.17120000000E+03  0.17120000000E+03 0.  0.
         13    1    1    2    0    0 -0.55084349038E+01 -0.10834482905E+02  0.66066080579E+02  0.67174898899E+02  0.10566000000E+00 0.  1.
        994    1    1    2    0    0  0.60666194011E+00  0.10063469602E+02  0.14550785082E+01  0.17150276590E+03  0.17120000000E+03 0.  0.
        998    1    1    2    0    0  0.49017729637E+01  0.77101330233E+00  0.14324788372E+04  0.14325223352E+04  0.10000000000E+02 0.  1.
</event>
<event>
 5    1  0.1338054E-008  0.3800607E+03  0.7957747E-01  0.3450894E+00
         13   -1    0    0    0    0  0.00000000000E+00  0.00000000000E+00  0.14999999963E+04  0.15000000000E+04  0.10566000000E+00 0.  1.
        994   -1    0    0    0    0 -0.00000000000E+00 -0.00000000000E+00  0.11368683772E-12  0.17120000000E+03  0.17120000000E+03 0.  0.
         13    1    1    2    0    0 -0.45720545826E+02 -0.33894746950E+02  0.88329217386E+02  0.10507751420E+03  0.10566000000E+00 0.  1.
        994    1    1    2    0    0  0.43735078486E+02  0.36222602825E+02  0.28142698648E+02  0.18255488362E+03  0.17120000000E+03 0.  0.
        998    1    1    2    0    0  0.19854673407E+01 -0.23278558747E+01  0.13835280802E+04  0.13835676022E+04  0.10000000000E+02 0.  1.
</event>
<event>
 5    1  0.1338054E-008  0.3795171E+03  0.7957747E-01  0.3453264E+00
         13   -1    0    0    0    0  0.00000000000E+00  0.00000000000E+00  0.14999999963E+04  0.15000000000E+04  0.10566000000E+00 0. -1.
        994   -1    0    0    0    0 -0.00000000000E+00 -0.00000000000E+00  0.11368683772E-12  0.17120000000E+03  0.17120000000E+03 0.  0.
         13    1    1    2    0    0  0.98488413027E+01 -0.19088319578E+02  0.48117008159E+02  0.52693654813E+02  0.10566000000E+00 0. -1.
        994    1    1    2    0    0 -0.15431056337E+02  0.26247621704E+02  0.74873550899E+01  0.17404756715E+03  0.17120000000E+03 0.  0.
        998    1    1    2    0    0  0.55822150340E+01 -0.71593021251E+01  0.14443956330E+04  0.14444587780E+04  0.10000000000E+02 0. -1.
</event>
<event>
 5    1  0.1338054E-008  0.3756866E+03  0.7957747E-01  0.3470158E+00
         13   -1    0    0    0    0  0.00000000000E+00  0.00000000000E+00  0.14999999963E+04  0.15000000000E+04  0.10566000000E+00 0.  1.
        994   -1    0    0    0    0 -0.00000000000E+00 -0.00000000000E+00  0.11368683772E-12  0.17120000000E+03  0.17120000000E+03 0.  0.
         13    1    1    2    0    0 -0.12573734125E+03  0.26594739847E+03  0.10335970602E+04  0.10746444955E+04  0.10566000000E+00 0.  1.
        994    1    1    2    0    0  0.13516814133E+03 -0.25318931449E+03  0.37099362323E+03  0.49932050217E+03  0.17120000000E+03 0.  0.
        998    1    1    2    0    0 -0.94308000826E+01 -0.12758083978E+02  0.95409312881E+02  0.97235002347E+02  0.10000000000E+02 0.  0.
</event>
<event>
 5    1  0.1338054E-008  0.3819485E+03  0.7957747E-01  0.3442718E+00
         13   -1    0    0    0    0  0.00000000000E+00  0.00000000000E+00  0.14999999963E+04  0.15000000000E+04  0.10566000000E+00 0. -1.
        994   -1    0    0    0    0 -0.00000000000E+00 -0.00000000000E+00  0.11368683772E-12  0.17120000000E+03  0.17120000000E+03 0.  0.
         13    1    1    2    0    0  0.16894400156E+01 -0.16879829433E+02  0.44297769585E+02  0.47435075666E+02  0.10566000000E+00 0. -1.
        994    1    1    2    0    0 -0.38591369817E+01  0.12324471947E+02  0.37069343804E+01  0.17172643043E+03  0.17120000000E+03 0.  0.
        998    1    1    2    0    0  0.21696969661E+01  0.45553574860E+01  0.14519952923E+04  0.14520384939E+04  0.10000000000E+02 0. -1.
</event>
<event>
 5    1  0.1338054E-008  0.3783206E+03  0.7957747E-01  0.3458504E+00
         13   -1    0    0    0    0  0.00000000000E+00  0.00000000000E+00  0.14999999963E+04  0.15000000000E+04  0.10566000000E+00 0. -1.
        994   -1    0    0    0    0 -0.00000000000E+00 -0.00000000000E+00  0.11368683772E-12  0.17120000000E+03  0.17120000000E+03 0.  0.
         13    1    1    2    0    0  0.54539674184E+02 -0.39978079235E+02  0.17087387744E+03  0.18376810396E+03  0.10566000000E+00 0. -1.
        994    1    1    2    0    0 -0.16879472250E+02 -0.24032987664E+02  0.18520132880E+02  0.17468524952E+03  0.17120000000E+03 0.  0.
        998    1    1    2    0    0 -0.37660201934E+02  0.64011066899E+02  0.13106059860E+04  0.13127466465E+04  0.10000000000E+02 0. -1.
</event>
<event>
 5    1  0.1338054E-008  0.3841003E+03  0.7957747E-01  0.3433497E+00
         13   -1    0    0    0    0  0.00000000000E+00  0.00000000000E+00  0.14999999963E+04  0.15000000000E+04  0.10566000000E+00 0.  1.
        994   -1    0    0    0    0 -0.00000000000E+00 -0.00000000000E+00  0.11368683772E-12  0.17120000000E+03  0.17120000000E+03 0.  0.
         13    1    1    2    0    0  0.14804421612E+02  0.63589425654E+01  0.59732739952E+02  0.61867749563E+02  0.10566000000E+00 0.  1.
        994    1    1    2    0    0 -0.17934732511E+02 -0.30988837643E+01  0.31708416590E+01  0.17219393702E+03  0.17120000000E+03 0.  0.
        998    1    1    2    0    0  0.31303108989E+01 -0.32600588011E+01  0.14370964147E+04  0.14371383134E+04  0.10000000000E+02 0.  1.
</event>
<event>
 5    1  0.1338054E-008  0.3775846E+03  0.7957747E-01  0.3461744E+00
         13   -1    0    0    0    0  0.00000000000E+00  0.00000000000E+00  0.14999999963E+04  0.15000000000E+04  0.10566000000E+00 0. -1.
        994   -1    0    0    0    0 -0.00000000000E+00 -0.00000000000E+00  0.11368683772E-12  0.17120000000E+03  0.17120000000E+03 0.  0.
         13    1    1    2    0    0  0.15316219700E+02 -0.47392519609E+01  0.21986295696E+02  0.27211311205E+02  0.10566000000E+00 0. -1.
        994    1    1    2    0    0 -0.48603564052E+01  0.67375992496E+01  0.55900330739E+01  0.17149258520E+03  0.17120000000E+03 0.  0.
        998    1    1    2    0    0 -0.10455863294E+02 -0.19983472887E+01  0.14724236675E+04  0.14724961036E+04  0.10000000000E+02 0. -1.
</event>
<event>
 5    1  0.1338054E-008  0.3732446E+03  0.7957747E-01  0.3481111E+00
         13   -1    0    0    0    0  0.00000000000E+00  0.00000000000E+00  0.14999999963E+04  0.15000000000E+04  0.10566000000E+00 0.  1.
        994   -1    0    0    0    0 -0.00000000000E+00 -0.00000000000E+00  0.11368683772E-12  0.17120000000E+03  0.17120000000E+03 0.  0.
         13    1    1    2    0    0  0.54544292011E+02 -0.39257160100E+02  0.26122497062E+03  0.26973079329E+03  0.10566000000E+00 0.  1.
        994    1    1    2    0    0 -0.52974135993E+02  0.25158926678E+02  0.19436005652E+02  0.18200667293E+03  0.17120000000E+03 0.  0.
        998    1    1    2    0    0 -0.15701560184E+01  0.14098233422E+02  0.12193390200E+04  0.12194625338E+04  0.10000000000E+02 0.  1.
</event>
<event>
 5    1  0.1338054E-008  0.3862073E+03  0.7957747E-01  0.3424568E+00
         13   -1    0    0    0    0  0.00000000000E+00  0.00000000000E+00  0.14999999963E+04  0.15000000000E+04  0.10566000000E+00 0.  1.
        994   -1    0    0    0    0 -0.00000000000E+00 -0.00000000000E+00  0.11368683772E-12  0.17120000000E+03  0.17120000000E+03 0.  0.
         13    1    1    2    0    0 -0.11506965174E+02  0.43856908509E+01  0.73899673686E+02  0.74918739089E+02  0.10566000000E+00 0.  1.
        994    1    1    2    0    0  0.60104173535E+01 -0.10487150478E+02  0.15106558537E+01  0.17163282764E+03  0.17120000000E+03 0.  0.
        998    1    1    2    0    0  0.54965478206E+01  0.61014596276E+01  0.14245896667E+04  0.14246484333E+04  0.10000000000E+02 0.  1.
</event>
<event>
 5    1  0.1338054E-008  0.3853643E+03  0.7957747E-01  0.3428129E+00
         13   -1    0    0    0    0  0.00000000000E+00  0.00000000000E+00  0.14999999963E+04  0.15000000000E+04  0.10566000000E+00 0. -1.
        994   -1    0    0    0    0 -0.00000000000E+00 -0.00000000000E+00  0.11368683772E-12  0.17120000000E+03  0.17120000000E+03 0.  0.
         13    1    1    2    0    0 -0.30613578722E+01 -0.10867701147E+02  0.48353358870E+02  0.49654177250E+02  0.10566000000E+00 0. -1.
        994    1    1    2    0    0 -0.11088872937E+02 -0.52474148915E+01  0.19439039631E+01  0.17164998465E+03  0.17120000000E+03 0.  0.
        998    1    1    2    0    0  0.14150230809E+02  0.16115116039E+02  0.14497027334E+04  0.14498958381E+04  0.10000000000E+02 0. -1.
</event>
<event>
 5    1  0.1338054E-008  0.3845450E+03  0.7957747E-01  0.3431604E+00
         13   -1    0    0    0    0  0.00000000000E+00  0.00000000000E+00  0.14999999963E+04  0.15000000000E+04  0.10566000000E+00 0.  1.
        994   -1    0    0    0    0 -0.00000000000E+00 -0.00000000000E+00  0.11368683772E-12  0.17120000000E+03  0.17120000000E+03 0.  0.
         13    1    1    2    0    0  0.14749737994E+02 -0.19285979747E+01  0.60320437027E+02  0.62127615021E+02  0.10566000000E+00 0.  1.
        994    1    1    2    0    0 -0.70330419700E+01  0.84231620330E+00  0.20214671304E+01  0.17135839491E+03  0.17120000000E+03 0.  0.
        998    1    1    2    0    0 -0.77166960236E+01  0.10862817714E+01  0.14376580921E+04  0.14377139901E+04  0.10000000000E+02 0.  1.
</event>
<event>
 5    1  0.1338054E-008  0.3861967E+03  0.7957747E-01  0.3424612E+00
         13   -1    0    0    0    0  0.00000000000E+00  0.00000000000E+00  0.14999999963E+04  0.15000000000E+04  0.10566000000E+00 0.  1.
        994   -1    0    0    0    0 -0.00000000000E+00 -0.00000000000E+00  0.11368683772E-12  0.17120000000E+03  0.17120000000E+03 0.  0.
         13    1    1    2    0    0  0.12125759657E+02 -0.13226337611E+01  0.73381650503E+02  0.74388582470E+02  0.10566000000E+00 0.  1.
        994    1    1    2    0    0 -0.67251835136E+01  0.42616665879E+01  0.12448218320E+01  0.17138955475E+03  0.17120000000E+03 0.  0.
        998    1    1    2    0    0 -0.54005761431E+01 -0.29390328268E+01  0.14253735239E+04  0.14254218628E+04  0.10000000000E+02 0.  1.
</event>
<event>
 5    1  0.1338054E-008  0.3691609E+03  0.7957747E-01  0.3499756E+00
         13   -1    0    0    0    0  0.00000000000E+00  0.00000000000E+00  0.14999999963E+04  0.15000000000E+04  0.10566000000E+00 0. -1.
        994   -1    0    0    0    0 -0.00000000000E+00 -0.00000000000E+00  0.11368683772E-12  0.17120000000E+03  0.17120000000E+03 0.  0.
         13    1    1    2    0    0 -0.41012429601E+02 -0.49298223791E+01  0.68598367776E+02  0.80075400442E+02  0.10566000000E+00 0. -1.
        994    1    1    2    0    0  0.81708434569E+02  0.66239016802E+02  0.49117980466E+02  0.20684750816E+03  0.17120000000E+03 0.  0.
        998    1    1    2    0    0 -0.40696004968E+02 -0.61309194423E+02  0.13822836480E+04  0.13842770914E+04  0.10000000000E+02 0. -1.
</event>
<event>
 5    1  0.1338054E-008  0.3774691E+03  0.7957747E-01  0.3462253E+00
         13   -1    0    0    0    0  0.00000000000E+00  0.00000000000E+00  0.14999999963E+04  0.15000000000E+04  0.10566000000E+00 0.  1.
        994   -1    0    0    0    0 -0.00000000000E+00 -0.00000000000E+00  0.11368683772E-12  0.17120000000E+03  0.17120000000E+03 0.  0.
         13    1    1    2    0    0 -0.51662981236E+00  0.31372301631E+02  0.89869090282E+02  0.95189037017E+02  0.10566000000E+00 0.  1.
        994    1    1    2    0    0 -0.73856874293E+01 -0.17095563269E+02  0.65862088175E+01  0.17233579085E+03  0.17120000000E+03 0.  0.
        998    1    1    2    0    0  0.79023172417E+01 -0.14276738362E+02  0.14035446972E+04  0.14036751721E+04  0.10000000000E+02 0.  1.
</event>
<event>
 5    1  0.1338054E-008  0.3056791E+03  0.7957747E-01  0.3856292E+00
         13   -1    0    0    0    0  0.00000000000E+00  0.00000000000E+00  0.14999999963E+04  0.15000000000E+04  0.10566000000E+00 0.  1.
        994   -1    0    0    0    0 -0.00000000000E+00 -0.00000000000E+00  0.11368683772E-12  0.17120000000E+03  0.17120000000E+03 0.  0.
         13    1    1    2    0    0 -0.18088008644E+03  0.12108502665E+03  0.52964801336E+03  0.57263096193E+03  0.10566000000E+00 0.  1.
        994    1    1    2    0    0  0.25088728894E+03 -0.88518820388E+02  0.34385674954E+03  0.46725466024E+03  0.17120000000E+03 0.  0.
        998    1    1    2    0    0 -0.70007202506E+02 -0.32566206264E+02  0.62649523339E+03  0.63131437783E+03  0.10000000000E+02 0.  1.
</event>
<event>
 5    1  0.1338054E-008  0.3717896E+03  0.7957747E-01  0.3487706E+00
         13   -1    0    0    0    0  0.00000000000E+00  0.00000000000E+00  0.14999999963E+04  0.15000000000E+04  0.10566000000E+00 0. -1.
        994   -1    0    0    0    0 -0.00000000000E+00 -0.00000000000E+00  0.11368683772E-12  0.17120000000E+03  0.17120000000E+03 0.  0.
         13    1    1    2    0    0  0.38449529002E+01  0.18147649855E+02  0.17735419053E+02  0.25664705552E+02  0.10566000000E+00 0. -1.
        994    1    1    2    0    0  0.18420175569E+02  0.81477695401E+00  0.95057895183E+01  0.17245221589E+03  0.17120000000E+03 0.  0.
        998    1    1    2    0    0 -0.22265128469E+02 -0.18962426809E+02  0.14727587877E+04  0.14730830786E+04  0.10000000000E+02 0. -1.
</event>
<event>
 5    1  0.1338054E-008  0.3835506E+03  0.7957747E-01  0.3435843E+00
         13   -1    0    0    0    0  0.00000000000E+00  0.00000000000E+00  0.14999999963E+04  0.15000000000E+04  0.10566000000E+00 0. -1.
        994   -1    0    0    0    0 -0.00000000000E+00 -0.00000000000E+00  0.11368683772E-12  0.17120000000E+03  0.17120000000E+03 0.  0.
         13    1    1    2    0    0  0.78208841228E+01 -0.90866026368E+01  0.29954440594E+02  0.32264721466E+02  0.10566000000E+00 0. -1.
        994    1    1    2    0    0 -0.47824082464E+01  0.52699293685E+01  0.25188122157E+01  0.17136635609E+03  0.17120000000E+03 0.  0.
        998    1    1    2    0    0 -0.30384758764E+01  0.38166732683E+01  0.14675267435E+04  0.14675689224E+04  0.10000000000E+02 0. -1.
</event>
<event>
 5    1  0.1338054E-008  0.3838338E+03  0.7957747E-01  0.3434633E+00
         13   -1    0    0    0    0  0.00000000000E+00  0.00000000000E+00  0.14999999963E+04  0.15000000000E+04  0.10566000000E+00 0. -1.
        994   -1    0    0    0    0 -0.00000000000E+00 -0.00000000000E+00  0.11368683772E-12  0.17120000000E+03  0.17120000000E+03 0.  0.
         13    1    1    2    0    0 -0.11569921131E+02 -0.44977830266E+00  0.30369730402E+02  0.32502262448E+02  0.10566000000E+00 0. -1.
        994    1    1    2    0    0  0.21514726363E+01 -0.20323301509E+01  0.22391464002E+01  0.17124022009E+03  0.17120000000E+03 0.  0.
        998    1    1    2    0    0  0.94184484943E+01  0.24821084536E+01  0.14673911195E+04  0.14674575175E+04  0.10000000000E+02 0. -1.
</event>
<event>
 5    1  0.1338054E-008  0.3850303E+03  0.7957747E-01  0.3429544E+00
         13   -1    0    0    0    0  0.00000000000E+00  0.00000000000E+00  0.14999999963E+04  0.15000000000E+04  0.10566000000E+00 0. -1.
        994   -1    0    0    0    0 -0.00000000000E+00 -0.00000000000E+00  0.11368683772E-12  0.17120000000E+03  0.17120000000E+03 0.  0.
         13    1    1    2    0    0  0.99972187324E+01  0.82576943099E+01  0.52924171407E+02  0.54489567634E+02  0.10566000000E+00 0. -1.
        994    1    1    2    0    0 -0.16348436638E+01 -0.69682063394E+01  0.17835871438E+01  0.17135883344E+03  0.17120000000E+03 0.  0.
        998    1    1    2    0    0 -0.83623750686E+01 -0.12894879705E+01  0.14452922377E+04  0.14453515989E+04  0.10000000000E+02 0. -1.
</event>
<event>
 5    1  0.1338054E-008  0.3689694E+03  0.7957747E-01  0.3500641E+00
         13   -1    0    0    0    0  0.00000000000E+00  0.00000000000E+00  0.14999999963E+04  0.15000000000E+04  0.10566000000E+00 0. -1.
        994   -1    0    0    0    0 -0.00000000000E+00 -0.00000000000E+00  0.11368683772E-12  0.17120000000E+03  0.17120000000E+03 0.  0.
         13    1    1    2    0    0  0.35603813232E+02 -0.87332868326E+02  0.31046433018E+03  0.32447306958E+03  0.10566000000E+00 0. -1.
        994    1    1    2    0    0 -0.16348973793E+02  0.10705084762E+03  0.52438704266E+02  0.20925207436E+03  0.17120000000E+03 0.  0.
        998    1    1    2    0    0 -0.19254839440E+02 -0.19717979291E+02  0.11370969618E+04  0.11374748561E+04  0.10000000000E+02 0. -1.
</event>
<event>
 5    1  0.1338054E-008  0.3854914E+03  0.7957747E-01  0.3427591E+00
         13   -1    0    0    0    0  0.00000000000E+00  0.00000000000E+00  0.14999999963E+04  0.15000000000E+04  0.10566000000E+00 0. -1.
        994   -1    0    0    0    0 -0.00000000000E+00 -0.00000000000E+00  0.11368683772E-12  0.17120000000E+03  0.17120000000E+03 0.  0.
         13    1    1    2    0    0 -0.11673835220E+02  0.46164740207E+01  0.61664230172E+02  0.62929156262E+02  0.10566000000E+00 0. -1.
        994    1    1    2    0    0 -0.10597593523E+02 -0.20630199745E+02  0.31545426751E+01  0.17279266555E+03  0.17120000000E+03 0.  0.
        998    1    1    2    0    0  0.22271428742E+02  0.16013725724E+02  0.14351812234E+04  0.14354781782E+04  0.10000000000E+02 0. -1.
</event>
<event>
 5    1  0.1338054E-008  0.3851615E+03  0.7957747E-01  0.3428988E+00
         13   -1    0    0    0    0  0.00000000000E+00  0.00000000000E+00  0.14999999963E+04  0.15000000000E+04  0.10566000000E+00 0.  1.
        994   -1    0    0    0    0 -0.00000000000E+00 -0.00000000000E+00  0.11368683772E-12  0.17120000000E+03  0.17120000000E+03 0.  0.
         13    1    1    2    0    0  0.59287170491E+01  0.12930155520E+02  0.65028049546E+02  0.66565734424E+02  0.10566000000E+00 0.  1.
        994    1    1    2    0    0 -0.13357289083E+02 -0.52582134685E+01  0.22275909553E+01  0.17181521511E+03  0.17120000000E+03 0.  0.
        998    1    1    2    0    0  0.74285720337E+01 -0.76719420513E+01  0.14327443558E+04  0.14328190505E+04  0.10000000000E+02 0.  1.
</event>
<event>
 5    1  0.1338054E-008  0.3804578E+03  0.7957747E-01  0.3449168E+00
         13   -1    0    0    0    0  0.00000000000E+00  0.00000000000E+00  0.14999999963E+04  0.15000000000E+04  0.10566000000E+00 0. -1.
        994   -1    0    0    0    0 -0.00000000000E+00 -0.00000000000E+00  0.11368683772E-12  0.17120000000E+03  0.17120000000E+03 0.  0.
         13    1    1    2    0    0  0.51969616346E+01  0.87053571573E+01  0.11470530064E+02  0.15309339550E+02  0.10566000000E+00 0. -1.
        994    1    1    2    0    0 -0.27886123270E+01 -0.67024363669E+01  0.40781566196E+01  0.17140236397E+03  0.17120000000E+03 0.  0.
        998    1    1    2    0    0 -0.24083493076E+01 -0.20029207904E+01  0.14844513096E+04  0.14844882965E+04  0.10000000000E+02 0. -1.
</event>
<event>
 5    1  0.1338054E-008  0.3792854E+03  0.7957747E-01  0.3454276E+00
         13   -1    0    0    0    0  0.00000000000E+00  0.00000000000E+00  0.14999999963E+04  0.15000000000E+04  0.10566000000E+00 0. -1.
        994   -1    0    0    0    0 -0.00000000000E+00 -0.00000000000E+00  0.11368683772E-12  0.17120000000E+03  0.17120000000E+03 0.  0.
         13    1    1    2    0    0 -0.50074626881E+02 -0.42953883338E+00  0.28746197350E+03  0.29179110702E+03  0.10566000000E+00 0. -1.
        994    1    1    2    0    0  0.24562618821E+02  0.86473166584E+01  0.67698302422E+01  0.17330138179E+03  0.17120000000E+03 0.  0.
        998    1    1    2    0    0  0.25512008060E+02 -0.82177778250E+01  0.12057681925E+04  0.12061075112E+04  0.10000000000E+02 0. -1.
</event>
<event>
 5    1  0.1338054E-008  0.3834097E+03  0.7957747E-01  0.3436445E+00
         13   -1    0    0    0    0  0.00000000000E+00  0.00000000000E+00  0.14999999963E+04  0.15000000000E+04  0.10566000000E+00 0. -1.
        994   -1    0    0    0    0 -0.00000000000E+00 -0.00000000000E+00  0.11368683772E-12  0.17120000000E+03  0.17120000000E+03 0.  0.
         13    1    1    2    0    0  0.24460080689E+02  0.22016724947E+01  0.12525920254E+03  0.12764412205E+03  0.10566000000E+00 0. -1.
        994    1    1    2    0    0 -0.12757960748E+02 -0.98238643876E+01  0.32792988471E+01  0.17198682413E+03  0.17120000000E+03 0.  0.
        998    1    1    2    0    0 -0.11702119941E+02  0.76221918929E+01  0.13714614949E+04  0.13715690538E+04  0.10000000000E+02 0. -1.
</event>
<event>
 5    1  0.1338054E-008  0.3854723E+03  0.7957747E-01  0.3427671E+00
         13   -1    0    0    0    0  0.00000000000E+00  0.00000000000E+00  0.14999999963E+04  0.15000000000E+04  0.10566000000E+00 0. -1.
        994   -1    0    0    0    0 -0.00000000000E+00 -0.00000000000E+00  0.11368683772E-12  0.17120000000E+03  0.17120000000E+03 0.  0.
         13    1    1    2    0    0 -0.52718903194E+01  0.12911981717E+02  0.73005880032E+02  0.74326185041E+02  0.10566000000E+00 0. -1.
        994    1    1    2    0    0 -0.24776765230E+01 -0.47536942769E+01  0.14901726938E+01  0.17129038824E+03  0.17120000000E+03 0.  0.
        998    1    1    2    0    0  0.77495668423E+01 -0.81582874401E+01  0.14255039436E+04  0.14255834267E+04  0.10000000000E+02 0. -1.
</event>
<event>
 5    1  0.1338054E-008  0.3828376E+03  0.7957747E-01  0.3438895E+00
         13   -1    0    0    0    0  0.00000000000E+00  0.00000000000E+00  0.14999999963E+04  0.15000000000E+04  0.10566000000E+00 0. -1.
        994   -1    0    0    0    0 -0.00000000000E+00 -0.00000000000E+00  0.11368683772E-12  0.17120000000E+03  0.17120000000E+03 0.  0.
         13    1    1    2    0    0  0.14479211610E+02  0.77836853196E+00  0.37754663293E+02  0.40443530890E+02  0.10566000000E+00 0. -1.
        994    1    1    2    0    0 -0.10987270697E+02 -0.74250751956E+00  0.31092986959E+01  0.17158198965E+03  0.17120000000E+03 0.  0.
        998    1    1    2    0    0 -0.34919409138E+01 -0.35861012402E-01  0.14591360343E+04  0.14591744795E+04  0.10000000000E+02 0. -1.
</event>
<event>
 5    1  0.1338054E-008  0.3773519E+03  0.7957747E-01  0.3462771E+00
         13   -1    0    0    0    0  0.00000000000E+00  0.00000000000E+00  0.14999999963E+04  0.15000000000E+04  0.10566000000E+00 0. -1.
        994   -1    0    0    0    0 -0.00000000000E+00 -0.00000000000E+00  0.11368683772E-12  0.17120000000E+03  0.17120000000E+03 0.  0.
         13    1    1    2    0    0 -0.37533175723E+02  0.52560267003E+00  0.11863626021E+03  0.12443307011E+03  0.10566000000E+00 0. -1.
        994    1    1    2    0    0  0.35811998122E+02 -0.64681747938E+01  0.99551831274E+01  0.17530796378E+03  0.17120000000E+03 0.  0.
        998    1    1    2    0    0  0.17211776003E+01  0.59425721238E+01  0.13714085529E+04  0.13714589661E+04  0.10000000000E+02 0. -1.
</event>
<event>
 5    1  0.1338054E-008  0.3757099E+03  0.7957747E-01  0.3470054E+00
         13   -1    0    0    0    0  0.00000000000E+00  0.00000000000E+00  0.14999999963E+04  0.15000000000E+04  0.10566000000E+00 0. -1.
        994   -1    0    0    0    0 -0.00000000000E+00 -0.00000000000E+00  0.11368683772E-12  0.17120000000E+03  0.17120000000E+03 0.  0.
         13    1    1    2    0    0 -0.22665064804E+02  0.32530068878E+02  0.14190484968E+03  0.14733943148E+03  0.10566000000E+00 0. -1.
        994    1    1    2    0    0  0.33557187481E+01  0.83007120251E+01  0.65864955284E+01  0.17156044005E+03  0.17120000000E+03 0.  0.
        998    1    1    2    0    0  0.19309346056E+02 -0.40830780903E+02  0.13515086511E+04  0.13523001285E+04  0.10000000000E+02 0. -1.
</event>
<event>
 5    1  0.1338054E-008  0.3827066E+03  0.7957747E-01  0.3439457E+00
         13   -1    0    0    0    0  0.00000000000E+00  0.00000000000E+00  0.14999999963E+04  0.15000000000E+04  0.10566000000E+00 0.  1.
        994   -1    0    0    0    0 -0.00000000000E+00 -0.00000000000E+00  0.11368683772E-12  0.17120000000E+03  0.17120000000E+03 0.  0.
         13    1    1    2    0    0  0.44196623285E+01 -0.24548021351E+02  0.12916474774E+03  0.13155106229E+03  0.10566000000E+00 0.  1.
        994    1    1    2    0    0 -0.44123060289E+00 -0.56277884527E+01  0.28786502708E+01  0.17131723006E+03  0.17120000000E+03 0.  0.
        998    1    1    2    0    0 -0.39784317256E+01  0.30175809804E+02  0.13679565983E+04  0.13683317077E+04  0.10000000000E+02 0.  1.
</event>
<event>
 5    1  0.1338054E-008  0.3813406E+03  0.7957747E-01  0.3445342E+00
         13   -1    0    0    0    0  0.00000000000E+00  0.00000000000E+00  0.14999999963E+04  0.15000000000E+04  0.10566000000E+00 0. -1.
        994   -1    0    0    0    0 -0.00000000000E+00 -0.00000000000E+00  0.11368683772E-12  0.17120000000E+03  0.17120000000E+03 0.  0.
         13    1    1    2    0    0  0.21039027911E+02 -0.20430601294E+02  0.13295556177E+03  0.13615154327E+03  0.10566000000E+00 0. -1.
        994    1    1    2    0    0  0.41385332497E+01  0.12922716448E+02  0.40710046461E+01  0.17178514818E+03  0.17120000000E+03 0.  0.
        998    1    1    2    0    0 -0.25177561161E+02  0.75078848451E+01  0.13629734299E+04  0.13632633085E+04  0.10000000000E+02 0. -1.
</event>
<event>
 5    1  0.1338054E-008  0.3873754E+03  0.7957747E-01  0.3419660E+00
         13   -1    0    0    0    0  0.00000000000E+00  0.00000000000E+00  0.14999999963E+04  0.15000000000E+04  0.10566000000E+00 0. -1.
        994   -1    0    0    0    0 -0.00000000000E+00 -0.00000000000E+00  0.11368683772E-12  0.17120000000E+03  0.17120000000E+03 0.  0.
         13    1    1    2    0    0  0.55194000337E+02 -0.75623304128E+02  0.17871410444E+03  0.20175233355E+03  0.10566000000E+00 0. -1.
        994    1    1    2    0    0 -0.92649138342E+02  0.55112354548E+02  0.65147466566E+02  0.21254379986E+03  0.17120000000E+03 0.  0.
        998    1    1    2    0    0  0.37455138004E+02  0.20510949580E+02  0.12561384253E+04  0.12569038666E+04  0.10000000000E+02 0. -1.
</event>
<event>
 5    1  0.1338054E-008  0.3847613E+03  0.7957747E-01  0.3430685E+00
         13   -1    0    0    0    0  0.00000000000E+00  0.00000000000E+00  0.14999999963E+04  0.15000000000E+04  0.10566000000E+00 0.  1.
        994   -1    0    0    0    0 -0.00000000000E+00 -0.00000000000E+00  0.11368683772E-12  0.17120000000E+03  0.17120000000E+03 0.  0.
         13    1    1    2    0    0  0.53883863300E+01 -0.18316031420E+02  0.11365336458E+03  0.11524586829E+03  0.10566000000E+00 0.  1.
        994    1    1    2    0    0 -0.98535928770E+01 -0.11695850875E+01  0.20728013245E+01  0.17149984760E+03  0.17120000000E+03 0.  0.
        998    1    1    2    0    0  0.44652065470E+01  0.19485616508E+02  0.13842738304E+04  0.13844542841E+04  0.10000000000E+02 0.  1.
</event>
<event>
 5    1  0.1338054E-008  0.3751010E+03  0.7957747E-01  0.3472771E+00
         13   -1    0    0    0    0  0.00000000000E+00  0.00000000000E+00  0.14999999963E+04  0.15000000000E+04  0.10566000000E+00 0.  1.
        994   -1    0    0    0    0 -0.00000000000E+00 -0.00000000000E+00  0.11368683772E-12  0.17120000000E+03  0.17120000000E+03 0.  0.
         13    1    1    2    0    0 -0.11092215171E+02 -0.95445875816E+01  0.13451401793E+02  0.19876814728E+02  0.10566000000E+00 0.  1.
        994    1    1    2    0    0 -0.14898703474E+02  0.21351823277E+02  0.89337165727E+01  0.17339873994E+03  0.17120000000E+03 0.  0.
        998    1    1    2    0    0  0.25990918645E+02 -0.11807235696E+02  0.14776148779E+04  0.14779244453E+04  0.10000000000E+02 0.  1.
</event>
<event>
 5    1  0.1338054E-008  0.3844847E+03  0.7957747E-01  0.3431861E+00
         13   -1    0    0    0    0  0.00000000000E+00  0.00000000000E+00  0.14999999963E+04  0.15000000000E+04  0.10566000000E+00 0.  1.
        994   -1    0    0    0    0 -0.00000000000E+00 -0.00000000000E+00  0.11368683772E-12  0.17120000000E+03  0.17120000000E+03 0.  0.
         13    1    1    2    0    0 -0.75175913583E+01  0.15594460474E+02  0.81178052325E+02  0.83003546434E+02  0.10566000000E+00 0.  1.
        994    1    1    2    0    0 -0.65337154638E+01 -0.11645749348E+02  0.24737944660E+01  0.17173780182E+03  0.17120000000E+03 0.  0.
        998    1    1    2    0    0  0.14051306822E+02 -0.39487111266E+01  0.14163481495E+04  0.14164586517E+04  0.10000000000E+02 0.  1.
</event>
<event>
 5    1  0.1338054E-008  0.3849121E+03  0.7957747E-01  0.3430045E+00
         13   -1    0    0    0    0  0.00000000000E+00  0.00000000000E+00  0.14999999963E+04  0.15000000000E+04  0.10566000000E+00 0.  1.
        994   -1    0    0    0    0 -0.00000000000E+00 -0.00000000000E+00  0.11368683772E-12  0.17120000000E+03  0.17120000000E+03 0.  0.
         13    1    1    2    0    0  0.14119254451E+02  0.25155593579E+01  0.79141511619E+02  0.80430537798E+02  0.10566000000E+00 0.  1.
        994    1    1    2    0    0  0.30344286596E+02 -0.48867178058E+02  0.12635086033E+02  0.18104657472E+03  0.17120000000E+03 0.  0.
        998    1    1    2    0    0 -0.44463541047E+02  0.46351618700E+02  0.14082233986E+04  0.14097228875E+04  0.10000000000E+02 0.  1.
</event>
<event>
 5    1  0.1338054E-008  0.3802579E+03  0.7957747E-01  0.3450036E+00
         13   -1    0    0    0    0  0.00000000000E+00  0.00000000000E+00  0.14999999963E+04  0.15000000000E+04  0.10566000000E+00 0. -1.
        994   -1    0    0    0    0 -0.00000000000E+00 -0.00000000000E+00  0.11368683772E-12  0.17120000000E+03  0.17120000000E+03 0.  0.
         13    1    1    2    0    0  0.61038834473E+00  0.21883453064E+02  0.56222066737E+02  0.60333987471E+02  0.10566000000E+00 0. -1.
        994    1    1    2    0    0 -0.12181516274E+00 -0.23652131211E+02  0.58737970393E+01  0.17292593687E+03  0.17120000000E+03 0.  0.
        998    1    1    2    0    0 -0.48857318199E+00  0.17686781470E+01  0.14379041325E+04  0.14379400757E+04  0.10000000000E+02 0. -1.
</event>
<event>
 5    1  0.1338054E-008  0.3839704E+03  0.7957747E-01  0.3434050E+00
         13   -1    0    0    0    0  0.00000000000E+00  0.00000000000E+00  0.14999999963E+04  0.15000000000E+04  0.10566000000E+00 0.  1.
        994   -1    0    0    0    0 -0.00000000000E+00 -0.00000000000E+00  0.11368683772E-12  0.17120000000E+03  0.17120000000E+03 0.  0.
         13    1    1    2    0    0 -0.13567592896E+02  0.35338963469E+01  0.44038412928E+02  0.46216457866E+02  0.10566000000E+00 0.  1.
        994    1    1    2    0    0  0.15501593472E+02 -0.33199527199E+01  0.29718710090E+01  0.17195811555E+03  0.17120000000E+03 0.  0.
        998    1    1    2    0    0 -0.19340005763E+01 -0.21394362700E+00  0.14529897123E+04  0.14530254266E+04  0.10000000000E+02 0.  0.
</event>
<event>
 5    1  0.1338054E-008  0.3831766E+03  0.7957747E-01  0.3437442E+00
         13   -1    0    0    0    0  0.00000000000E+00  0.00000000000E+00  0.14999999963E+04  0.15000000000E+04  0.10566000000E+00 0. -1.
        994   -1    0    0    0    0 -0.00000000000E+00 -0.00000000000E+00  0.11368683772E-12  0.17120000000E+03  0.17120000000E+03 0.  0.
         13    1    1    2    0    0  0.27316003660E+01 -0.13338575551E+02  0.35130460797E+02  0.37676779031E+02  0.10566000000E+00 0. -1.
        994    1    1    2    0    0  0.57704443690E+00  0.13837982685E+02  0.31729723878E+01  0.17178862156E+03  0.17120000000E+03 0.  0.
        998    1    1    2    0    0 -0.33086448029E+01 -0.49940713384E+00  0.14616965631E+04  0.14617345994E+04  0.10000000000E+02 0. -1.
</event>
<event>
 5    1  0.1338054E-008  0.3853665E+03  0.7957747E-01  0.3428119E+00
         13   -1    0    0    0    0  0.00000000000E+00  0.00000000000E+00  0.14999999963E+04  0.15000000000E+04  0.10566000000E+00 0.  1.
        994   -1    0    0    0    0 -0.00000000000E+00 -0.00000000000E+00  0.11368683772E-12  0.17120000000E+03  0.17120000000E+03 0.  0.
         13    1    1    2    0    0  0.37835593623E+01 -0.10356367437E+02  0.40797203047E+02  0.42261005767E+02  0.10566000000E+00 0.  1.
        994    1    1    2    0    0  0.12473866767E+00  0.13963875333E+02  0.20891044972E+01  0.17178128458E+03  0.17120000000E+03 0.  0.
        998    1    1    2    0    0 -0.39082980299E+01 -0.36075078965E+01  0.14571136887E+04  0.14571577097E+04  0.10000000000E+02 0.  1.
</event>
<event>
 5    1  0.1338054E-008  0.3797936E+03  0.7957747E-01  0.3452058E+00
         13   -1    0    0    0    0  0.00000000000E+00  0.00000000000E+00  0.14999999963E+04  0.15000000000E+04  0.10566000000E+00 0.  1.
        994   -1    0    0    0    0 -0.00000000000E+00 -0.00000000000E+00  0.11368683772E-12  0.17120000000E+03  0.17120000000E+03 0.  0.
         13    1    1    2    0    0 -0.89729378560E+01  0.21523059247E+02  0.64436740178E+02  0.68526347793E+02  0.10566000000E+00 0.  1.
        994    1    1    2    0    0  0.12998348809E+00 -0.85944214037E+01  0.44845487321E+01  0.17147429006E+03  0.17120000000E+03 0.  0.
        998    1    1    2    0    0  0.88429543679E+01 -0.12928637844E+02  0.14310787074E+04  0.14311993621E+04  0.10000000000E+02 0.  1.
</event>
<event>
 5    1  0.1338054E-008  0.3714448E+03  0.7957747E-01  0.3489277E+00
         13   -1    0    0    0    0  0.00000000000E+00  0.00000000000E+00  0.14999999963E+04  0.15000000000E+04  0.10566000000E+00 0.  1.
        994   -1    0    0    0    0 -0.00000000000E+00 -0.00000000000E+00  0.11368683772E-12  0.17120000000E+03  0.17120000000E+03 0.  0.
         13    1    1    2    0    0 -0.23365106248E+02 -0.54480984702E+01  0.29326777626E+02  0.37890381588E+02  0.10566000000E+00 0.  1.
        994    1    1    2    0    0  0.17331089629E+02  0.49198976676E+02  0.17935919636E+02  0.17986673730E+03  0.17120000000E+03 0.  0.
        998    1    1    2    0    0  0.60340166192E+01 -0.43750878205E+02  0.14527372990E+04  0.14534428811E+04  0.10000000000E+02 0.  1.
</event>
<event>
 5    1  0.1338054E-008  0.3738427E+03  0.7957747E-01  0.3478415E+00
         13   -1    0    0    0    0  0.00000000000E+00  0.00000000000E+00  0.14999999963E+04  0.15000000000E+04  0.10566000000E+00 0. -1.
        994   -1    0    0    0    0 -0.00000000000E+00 -0.00000000000E+00  0.11368683772E-12  0.17120000000E+03  0.17120000000E+03 0.  0.
         13    1    1    2    0    0 -0.50697382113E+02  0.37055046492E+02  0.22619970230E+03  0.23475437697E+03  0.10566000000E+00 0. -1.
        994    1    1    2    0    0  0.65327064703E+02 -0.20986588125E+02  0.23514784312E+02  0.18593129738E+03  0.17120000000E+03 0.  0.
        998    1    1    2    0    0 -0.14629682590E+02 -0.16068458367E+02  0.12502855097E+04  0.12505143256E+04  0.10000000000E+02 0. -1.
</event>
<event>
 5    1  0.1338054E-008  0.3838998E+03  0.7957747E-01  0.3434352E+00
         13   -1    0    0    0    0  0.00000000000E+00  0.00000000000E+00  0.14999999963E+04  0.15000000000E+04  0.10566000000E+00 0.  1.
        994   -1    0    0    0    0 -0.00000000000E+00 -0.00000000000E+00  0.11368683772E-12  0.17120000000E+03  0.17120000000E+03 0.  0.
         13    1    1    2    0    0  0.14159062023E+02 -0.59952204893E+01  0.53211078780E+02  0.55388191657E+02  0.10566000000E+00 0.  1.
        994    1    1    2    0    0 -0.13635423559E+02 -0.50498374331E+00  0.27920421833E+01  0.17176558236E+03  0.17120000000E+03 0.  0.
        998    1    1    2    0    0 -0.52363846418E+00  0.65002042326E+01  0.14439968753E+04  0.14440462260E+04  0.10000000000E+02 0.  0.
</event>
<event>
 5    1  0.1338054E-008  0.3797475E+03  0.7957747E-01  0.3452259E+00
         13   -1    0    0    0    0  0.00000000000E+00  0.00000000000E+00  0.14999999963E+04  0.15000000000E+04  0.10566000000E+00 0. -1.
        994   -1    0    0    0    0 -0.00000000000E+00 -0.00000000000E+00  0.11368683772E-12  0.17120000000E+03  0.17120000000E+03 0.  0.
         13    1    1    2    0    0  0.23463436383E+02  0.28976796955E+02  0.14550221298E+03  0.15020350447E+03  0.10566000000E+00 0. -1.
        994    1    1    2    0    0 -0.24795359841E+02 -0.30550143546E+02  0.94576588575E+01  0.17591761837E+03  0.17120000000E+03 0.  0.
        998    1    1    2    0    0  0.13319234586E+01  0.15733465906E+01  0.13450401244E+04  0.13450788772E+04  0.10000000000E+02 0. -1.
</event>
<event>
 5    1  0.1338054E-008  0.3832375E+03  0.7957747E-01  0.3437182E+00
         13   -1    0    0    0    0  0.00000000000E+00  0.00000000000E+00  0.14999999963E+04  0.15000000000E+04  0.10566000000E+00 0.  1.
        994   -1    0    0    0    0 -0.00000000000E+00 -0.00000000000E+00  0.11368683772E-12  0.17120000000E+03  0.17120000000E+03 0.  0.
         13    1    1    2    0    0 -0.17401787066E+02 -0.18588462250E+01  0.56617458407E+02  0.59260655269E+02  0.10566000000E+00 0.  1.
        994    1    1    2    0    0  0.25285806605E+02 -0.41896685488E+01  0.46835673975E+01  0.17317130577E+03  0.17120000000E+03 0.  0.
        998    1    1    2    0    0 -0.78840195389E+01  0.60485147738E+01  0.14386989705E+04  0.14387680390E+04  0.10000000000E+02 0.  1.
</event>
<event>
 5    1  0.1338054E-008  0.3768001E+03  0.7957747E-01  0.3465211E+00
         13   -1    0    0    0    0  0.00000000000E+00  0.00000000000E+00  0.14999999963E+04  0.15000000000E+04  0.10566000000E+00 0.  1.
        994   -1    0    0    0    0 -0.00000000000E+00 -0.00000000000E+00  0.11368683772E-12  0.17120000000E+03  0.17120000000E+03 0.  0.
         13    1    1    2    0    0  0.42186710488E+01  0.67809701737E+02  0.37894699625E+03  0.38498933747E+03  0.10566000000E+00 0.  1.
        994    1    1    2    0    0 -0.13079793550E+02 -0.43721156077E+02  0.12826327715E+02  0.17764170448E+03  0.17120000000E+03 0.  0.
        998    1    1    2    0    0  0.88611225011E+01 -0.24088545660E+02  0.11082266723E+04  0.11085689580E+04  0.10000000000E+02 0.  1.
</event>
<event>
 5    1  0.1338054E-008  0.3848104E+03  0.7957747E-01  0.3430477E+00
         13   -1    0    0    0    0  0.00000000000E+00  0.00000000000E+00  0.14999999963E+04  0.15000000000E+04  0.10566000000E+00 0.  1.
        994   -1    0    0    0    0 -0.00000000000E+00 -0.00000000000E+00  0.11368683772E-12  0.17120000000E+03  0.17120000000E+03 0.  0.
         13    1    1    2    0    0  0.20674556733E+02  0.15507782280E+01  0.12516078834E+03  0.12686637187E+03  0.10566000000E+00 0.  1.
        994    1    1    2    0    0 -0.11909322318E+02 -0.81990676263E+01  0.24125174086E+01  0.17182641505E+03  0.17120000000E+03 0.  0.
        998    1    1    2    0    0 -0.87652344148E+01  0.66482893983E+01  0.13724266905E+04  0.13725072131E+04  0.10000000000E+02 0.  1.
</event>
<event>
 5    1  0.1338054E-008  0.3845380E+03  0.7957747E-01  0.3431634E+00
         13   -1    0    0    0    0  0.00000000000E+00  0.00000000000E+00  0.14999999963E+04  0.15000000000E+04  0.10566000000E+00 0.  1.
        994   -1    0    0    0    0 -0.00000000000E+00 -0.00000000000E+00  0.11368683772E-12  0.17120000000E+03  0.17120000000E+03 0.  0.
         13    1    1    2    0    0 -0.84073936673E+01  0.21726111467E+02  0.13924814470E+03  0.14118344504E+03  0.10566000000E+00 0.  1.
        994    1    1    2    0    0  0.16065910075E+02 -0.14844014884E+02  0.34371164520E+01  0.17262593088E+03  0.17120000000E+03 0.  0.
        998    1    1    2    0    0 -0.76585164073E+01 -0.68820965838E+01  0.13573147351E+04  0.13573906241E+04  0.10000000000E+02 0.  1.
</event>
<event>
 5    1  0.1338054E-008  0.3841793E+03  0.7957747E-01  0.3433160E+00
         13   -1    0    0    0    0  0.00000000000E+00  0.00000000000E+00  0.14999999963E+04  0.15000000000E+04  0.10566000000E+00 0. -1.
        994   -1    0    0    0    0 -0.00000000000E+00 -0.00000000000E+00  0.11368683772E-12  0.17120000000E+03  0.17120000000E+03 0.  0.
         13    1    1    2    0    0 -0.93987082255E+01  0.19804256823E+02  0.12075368559E+03  0.12272737287E+03  0.10566000000E+00 0. -1.
        994    1    1    2    0    0  0.41478020117E+01 -0.92311124876E+01  0.23759170687E+01  0.17151531326E+03  0.17120000000E+03 0.  0.
        998    1    1    2    0    0  0.52509062138E+01 -0.10573144336E+02  0.13768703936E+04  0.13769573139E+04  0.10000000000E+02 0. -1.
</event>
<event>
 5    1  0.1338054E-008  0.3811181E+03  0.7957747E-01  0.3446305E+00
         13   -1    0    0    0    0  0.00000000000E+00  0.00000000000E+00  0.14999999963E+04  0.15000000000E+04  0.10566000000E+00 0.  1.
        994   -1    0    0    0    0 -0.00000000000E+00 -0.00000000000E+00  0.11368683772E-12  0.17120000000E+03  0.17120000000E+03 0.  0.
         13    1    1    2    0    0 -0.29521168365E+00  0.18370620901E+02  0.42983648096E+02  0.46745823663E+02  0.10566000000E+00 0.  1.
        994    1    1    2    0    0  0.19666050529E+02 -0.29994441521E+02  0.78662552101E+01  0.17509351226E+03  0.17120000000E+03 0.  0.
        998    1    1    2    0    0 -0.19370838845E+02  0.11623820620E+02  0.14491500930E+04  0.14493606641E+04  0.10000000000E+02 0.  1.
</event>
<event>
 5    1  0.1338054E-008  0.3853247E+03  0.7957747E-01  0.3428296E+00
         13   -1    0    0    0    0  0.00000000000E+00  0.00000000000E+00  0.14999999963E+04  0.15000000000E+04  0.10566000000E+00 0.  1.
        994   -1    0    0    0    0 -0.00000000000E+00 -0.00000000000E+00  0.11368683772E-12  0.17120000000E+03  0.17120000000E+03 0.  0.
         13    1    1    2    0    0  0.98140122610E+01  0.28946851172E+01  0.36247756847E+02  0.37664374136E+02  0.10566000000E+00 0.  1.
        994    1    1    2    0    0 -0.24248634155E+01 -0.39123970844E+01  0.15386091121E+01  0.17126877746E+03  0.17120000000E+03 0.  0.
        998    1    1    2    0    0 -0.73891488454E+01  0.10177119672E+01  0.14622136303E+04  0.14622668484E+04  0.10000000000E+02 0.  1.
</event>
<event>
 5    1  0.1338054E-008  0.3977064E+03  0.7957747E-01  0.3377508E+00
         13   -1    0    0    0    0  0.00000000000E+00  0.00000000000E+00  0.14999999963E+04  0.15000000000E+04  0.10566000000E+00 0.  1.
        994   -1    0    0    0    0 -0.00000000000E+00 -0.00000000000E+00  0.11368683772E-12  0.17120000000E+03  0.17120000000E+03 0.  0.
         13    1    1    2    0    0 -0.74134862861E+01 -0.80783169460E+02  0.10326143191E+03  0.13131570634E+03  0.10566000000E+00 0.  1.
        994    1    1    2    0    0  0.52418082751E+02  0.90655776012E+02  0.70354367951E+02  0.21266241373E+03  0.17120000000E+03 0.  0.
        998    1    1    2    0    0 -0.45004596465E+02 -0.98726065519E+01  0.13263841964E+04  0.13272218799E+04  0.10000000000E+02 0.  1.
</event>
<event>
 5    1  0.1338054E-008  0.3786782E+03  0.7957747E-01  0.3456934E+00
         13   -1    0    0    0    0  0.00000000000E+00  0.00000000000E+00  0.14999999963E+04  0.15000000000E+04  0.10566000000E+00 0.  1.
        994   -1    0    0    0    0 -0.00000000000E+00 -0.00000000000E+00  0.11368683772E-12  0.17120000000E+03  0.17120000000E+03 0.  0.
         13    1    1    2    0    0  0.36768936003E+02 -0.42723256729E+02  0.16867170311E+03  0.17784090057E+03  0.10566000000E+00 0.  1.
        994    1    1    2    0    0  0.33807331391E+02 -0.10040232368E+03  0.57281788024E+02  0.20931843086E+03  0.17120000000E+03 0.  0.
        998    1    1    2    0    0 -0.70576267394E+02  0.14312558041E+03  0.12740465051E+04  0.12840406686E+04  0.10000000000E+02 0.  1.
</event>
<event>
 5    1  0.1338054E-008  0.3695045E+03  0.7957747E-01  0.3498171E+00
         13   -1    0    0    0    0  0.00000000000E+00  0.00000000000E+00  0.14999999963E+04  0.15000000000E+04  0.10566000000E+00 0. -1.
        994   -1    0    0    0    0 -0.00000000000E+00 -0.00000000000E+00  0.11368683772E-12  0.17120000000E+03  0.17120000000E+03 0.  0.
         13    1    1    2    0    0 -0.50568971451E+02 -0.45225096076E+02  0.19852223441E+03  0.20979422992E+03  0.10566000000E+00 0. -1.
        994    1    1    2    0    0  0.45196270961E+02  0.30267108793E+02  0.21075412494E+02  0.18086573417E+03  0.17120000000E+03 0.  0.
        998    1    1    2    0    0  0.53727004906E+01  0.14957987284E+02  0.12804023494E+04  0.12805400359E+04  0.10000000000E+02 0. -1.
</event>
<event>
 5    1  0.1338054E-008  0.4324801E+03  0.7957747E-01  0.3250297E+00
         13   -1    0    0    0    0  0.00000000000E+00  0.00000000000E+00  0.14999999963E+04  0.15000000000E+04  0.10566000000E+00 0.  1.
        994   -1    0    0    0    0 -0.00000000000E+00 -0.00000000000E+00  0.11368683772E-12  0.17120000000E+03  0.17120000000E+03 0.  0.
         13    1    1    2    0    0 -0.68646373005E+02 -0.24031586914E+02  0.36911806127E+02  0.81561843358E+02  0.10566000000E+00 0.  1.
        994    1    1    2    0    0  0.47942926267E+02  0.74529047485E+02  0.85420380078E+02  0.21085346673E+03  0.17120000000E+03 0.  0.
        998    1    1    2    0    0  0.20703446739E+02 -0.50497460571E+02  0.13776678101E+04  0.13787846899E+04  0.10000000000E+02 0.  1.
</event>
<event>
 5    1  0.1338054E-008  0.3734396E+03  0.7957747E-01  0.3480231E+00
         13   -1    0    0    0    0  0.00000000000E+00  0.00000000000E+00  0.14999999963E+04  0.15000000000E+04  0.10566000000E+00 0.  1.
        994   -1    0    0    0    0 -0.00000000000E+00 -0.00000000000E+00  0.11368683772E-12  0.17120000000E+03  0.17120000000E+03 0.  0.
         13    1    1    2    0    0 -0.35807623368E+02  0.27129991019E+02  0.71877275022E+02  0.84761879006E+02  0.10566000000E+00 0.  1.
        994    1    1    2    0    0  0.13984200019E+03 -0.12495169326E+03  0.13917373330E+03  0.28956429115E+03  0.17120000000E+03 0.  0.
        998    1    1    2    0    0 -0.10403437682E+03  0.97821702240E+02  0.12889489880E+04  0.12968738298E+04  0.10000000000E+02 0.  1.
</event>
<event>
 5    1  0.1338054E-008  0.3844110E+03  0.7957747E-01  0.3432174E+00
         13   -1    0    0    0    0  0.00000000000E+00  0.00000000000E+00  0.14999999963E+04  0.15000000000E+04  0.10566000000E+00 0. -1.
        994   -1    0    0    0    0 -0.00000000000E+00 -0.00000000000E+00  0.11368683772E-12  0.17120000000E+03  0.17120000000E+03 0.  0.
         13    1    1    2    0    0 -0.11895049644E+02  0.98295106951E+01  0.67357306262E+02  0.69102310797E+02  0.10566000000E+00 0. -1.
        994    1    1    2    0    0 -0.20255152994E+01  0.46234810681E+01  0.20068252833E+01  0.17128615425E+03  0.17120000000E+03 0.  0.
        998    1    1    2    0    0  0.13920564943E+02 -0.14452991763E+02  0.14306358647E+04  0.14308115350E+04  0.10000000000E+02 0. -1.
</event>
<event>
 5    1  0.1338054E-008  0.3834678E+03  0.7957747E-01  0.3436197E+00
         13   -1    0    0    0    0  0.00000000000E+00  0.00000000000E+00  0.14999999963E+04  0.15000000000E+04  0.10566000000E+00 0.  1.
        994   -1    0    0    0    0 -0.00000000000E+00 -0.00000000000E+00  0.11368683772E-12  0.17120000000E+03  0.17120000000E+03 0.  0.
         13    1    1    2    0    0  0.44575850786E+01  0.20592750526E+02  0.84508570546E+02  0.87095585989E+02  0.10566000000E+00 0.  1.
        994    1    1    2    0    0 -0.77075560419E+01 -0.26806549841E+02  0.49683365111E+01  0.17352844695E+03  0.17120000000E+03 0.  0.
        998    1    1    2    0    0  0.32499709633E+01  0.62137993148E+01  0.14105230892E+04  0.14105759671E+04  0.10000000000E+02 0.  1.
</event>
<event>
 5    1  0.1338054E-008  0.3755900E+03  0.7957747E-01  0.3470588E+00
         13   -1    0    0    0    0  0.00000000000E+00  0.00000000000E+00  0.14999999963E+04  0.15000000000E+04  0.10566000000E+00 0. -1.
        994   -1    0    0    0    0 -0.00000000000E+00 -0.00000000000E+00  0.11368683772E-12  0.17120000000E+03  0.17120000000E+03 0.  0.
         13    1    1    2    0    0 -0.23995253722E+02  0.19303389654E+02  0.69330296541E+02  0.75862337400E+02  0.10566000000E+00 0. -1.
        994    1    1    2    0    0  0.25650852003E+02 -0.15729605227E+02  0.94536877948E+01  0.17408101247E+03  0.17120000000E+03 0.  0.
        998    1    1    2    0    0 -0.16555982808E+01 -0.35737844273E+01  0.14212160119E+04  0.14212566501E+04  0.10000000000E+02 0. -1.
</event>
<event>
 5    1  0.1338054E-008  0.3917079E+03  0.7957747E-01  0.3401712E+00
         13   -1    0    0    0    0  0.00000000000E+00  0.00000000000E+00  0.14999999963E+04  0.15000000000E+04  0.10566000000E+00 0. -1.
        994   -1    0    0    0    0 -0.00000000000E+00 -0.00000000000E+00  0.11368683772E-12  0.17120000000E+03  0.17120000000E+03 0.  0.
         13    1    1    2    0    0  0.71447713267E+02  0.57341453504E+02  0.15706067575E+03  0.18182652461E+03  0.10566000000E+00 0. -1.
        994    1    1    2    0    0 -0.72463818148E+02 -0.57866780353E+02  0.56277877074E+02  0.20267266381E+03  0.17120000000E+03 0.  0.
        998    1    1    2    0    0  0.10161048808E+01  0.52532684907E+00  0.12866614435E+04  0.12867008116E+04  0.10000000000E+02 0. -1.
</event>
<event>
 5    1  0.1338054E-008  0.3817807E+03  0.7957747E-01  0.3443441E+00
         13   -1    0    0    0    0  0.00000000000E+00  0.00000000000E+00  0.14999999963E+04  0.15000000000E+04  0.10566000000E+00 0. -1.
        994   -1    0    0    0    0 -0.00000000000E+00 -0.00000000000E+00  0.11368683772E-12  0.17120000000E+03  0.17120000000E+03 0.  0.
         13    1    1    2    0    0 -0.37718123498E+02  0.52836442115E+01  0.19325584951E+03  0.19697311560E+03  0.10566000000E+00 0. -1.
        994    1    1    2    0    0  0.40156316329E+02 -0.29377428269E+01  0.86434335770E+01  0.17608324457E+03  0.17120000000E+03 0.  0.
        998    1    1    2    0    0 -0.24381928317E+01 -0.23459013846E+01  0.12981007132E+04  0.12981436398E+04  0.10000000000E+02 0. -1.
</event>
<event>
 5    1  0.1338054E-008  0.3757091E+03  0.7957747E-01  0.3470058E+00
         13   -1    0    0    0    0  0.00000000000E+00  0.00000000000E+00  0.14999999963E+04  0.15000000000E+04  0.10566000000E+00 0. -1.
        994   -1    0    0    0    0 -0.00000000000E+00 -0.00000000000E+00  0.11368683772E-12  0.17120000000E+03  0.17120000000E+03 0.  0.
         13    1    1    2    0    0 -0.40714051747E+02 -0.21501880685E+02  0.18208632715E+03  0.18781748210E+03  0.10566000000E+00 0. -1.
        994    1    1    2    0    0 -0.43018945128E+01  0.33714351658E+02  0.10242333535E+02  0.17484138297E+03  0.17120000000E+03 0.  0.
        998    1    1    2    0    0  0.45015946260E+02 -0.12212470973E+02  0.13076713356E+04  0.13085411349E+04  0.10000000000E+02 0. -1.
</event>
<event>
 5    1  0.1338054E-008  0.3838195E+03  0.7957747E-01  0.3434694E+00
         13   -1    0    0    0    0  0.00000000000E+00  0.00000000000E+00  0.14999999963E+04  0.15000000000E+04  0.10566000000E+00 0.  1.
        994   -1    0    0    0    0 -0.00000000000E+00 -0.00000000000E+00  0.11368683772E-12  0.17120000000E+03  0.17120000000E+03 0.  0.
         13    1    1    2    0    0 -0.11351943712E+02 -0.26983212713E+01  0.30548497253E+02  0.32701214231E+02  0.10566000000E+00 0.  1.
        994    1    1    2    0    0  0.49152970082E+01 -0.42171458708E+01  0.23558660447E+01  0.17133865463E+03  0.17120000000E+03 0.  0.
        998    1    1    2    0    0  0.64366467034E+01  0.69154671421E+01  0.14670956330E+04  0.14671601311E+04  0.10000000000E+02 0.  1.
</event>
<event>
 5    1  0.1338054E-008  0.3849511E+03  0.7957747E-01  0.3429880E+00
         13   -1    0    0    0    0  0.00000000000E+00  0.00000000000E+00  0.14999999963E+04  0.15000000000E+04  0.10566000000E+00 0. -1.
        994   -1    0    0    0    0 -0.00000000000E+00 -0.00000000000E+00  0.11368683772E-12  0.17120000000E+03  0.17120000000E+03 0.  0.
         13    1    1    2    0    0  0.12499586373E+02 -0.14871454352E+02  0.10722790223E+03  0.10897354723E+03  0.10566000000E+00 0. -1.
        994    1    1    2    0    0 -0.96878670227E+01  0.18064594716E+02  0.30376949121E+01  0.17244956347E+03  0.17120000000E+03 0.  0.
        998    1    1    2    0    0 -0.28117193505E+01 -0.31931403642E+01  0.13897343991E+04  0.13897768893E+04  0.10000000000E+02 0. -1.
</event>
<event>
 5    1  0.1338054E-008  0.3851843E+03  0.7957747E-01  0.3428891E+00
         13   -1    0    0    0    0  0.00000000000E+00  0.00000000000E+00  0.14999999963E+04  0.15000000000E+04  0.10566000000E+00 0.  1.
        994   -1    0    0    0    0 -0.00000000000E+00 -0.00000000000E+00  0.11368683772E-12  0.17120000000E+03  0.17120000000E+03 0.  0.
         13    1    1    2    0    0 -0.17857900127E+02  0.48729699306E+00  0.97284312918E+02  0.98911024458E+02  0.10566000000E+00 0.  1.
        994    1    1    2    0    0  0.19775068033E+02 -0.95951132861E+00  0.28279998586E+01  0.17236418294E+03  0.17120000000E+03 0.  0.
        998    1    1    2    0    0 -0.19171679059E+01  0.47221433556E+00  0.13998876835E+04  0.13999247926E+04  0.10000000000E+02 0.  1.
</event>
<event>
 5    1  0.1338054E-008  0.3811910E+03  0.7957747E-01  0.3445989E+00
         13   -1    0    0    0    0  0.00000000000E+00  0.00000000000E+00  0.14999999963E+04  0.15000000000E+04  0.10566000000E+00 0. -1.
        994   -1    0    0    0    0 -0.00000000000E+00 -0.00000000000E+00  0.11368683772E-12  0.17120000000E+03  0.17120000000E+03 0.  0.
         13    1    1    2    0    0  0.26897048517E+02 -0.12940187648E+01  0.10113845804E+03  0.10466195375E+03  0.10566000000E+00 0. -1.
        994    1    1    2    0    0 -0.19509517798E+02 -0.31853698060E+02  0.81931056936E+01  0.17541905924E+03  0.17120000000E+03 0.  0.
        998    1    1    2    0    0 -0.73875307189E+01  0.33147716824E+02  0.13906684325E+04  0.13911189870E+04  0.10000000000E+02 0. -1.
</event>
<event>
 5    1  0.1338054E-008  0.3812284E+03  0.7957747E-01  0.3445827E+00
         13   -1    0    0    0    0  0.00000000000E+00  0.00000000000E+00  0.14999999963E+04  0.15000000000E+04  0.10566000000E+00 0.  1.
        994   -1    0    0    0    0 -0.00000000000E+00 -0.00000000000E+00  0.11368683772E-12  0.17120000000E+03  0.17120000000E+03 0.  0.
         13    1    1    2    0    0 -0.26073874513E+02  0.27529017247E+01  0.86500130320E+02  0.90386443173E+02  0.10566000000E+00 0.  1.
        994    1    1    2    0    0  0.36455540476E+02 -0.17316518426E+02  0.89565493008E+01  0.17612077679E+03  0.17120000000E+03 0.  0.
        998    1    1    2    0    0 -0.10381665964E+02  0.14563616702E+02  0.14045433167E+04  0.14046927800E+04  0.10000000000E+02 0.  1.
</event>
<event>
 5    1  0.1338054E-008  0.3796562E+03  0.7957747E-01  0.3452657E+00
         13   -1    0    0    0    0  0.00000000000E+00  0.00000000000E+00  0.14999999963E+04  0.15000000000E+04  0.10566000000E+00 0.  1.
        994   -1    0    0    0    0 -0.00000000000E+00 -0.00000000000E+00  0.11368683772E-12  0.17120000000E+03  0.17120000000E+03 0.  0.
         13    1    1    2    0    0 -0.12924881021E+02  0.30121154143E+02  0.12864612872E+03  0.13275606983E+03  0.10566000000E+00 0.  1.
        994    1    1    2    0    0  0.20981762097E+02 -0.45002876527E+01  0.58494143018E+01  0.17263876325E+03  0.17120000000E+03 0.  0.
        998    1    1    2    0    0 -0.80568810753E+01 -0.25620866490E+02  0.13655044533E+04  0.13658051669E+04  0.10000000000E+02 0.  1.
</event>
<event>
 5    1  0.1338054E-008  0.3792644E+03  0.7957747E-01  0.3454368E+00
         13   -1    0    0    0    0  0.00000000000E+00  0.00000000000E+00  0.14999999963E+04  0.15000000000E+04  0.10566000000E+00 0.  1.
        994   -1    0    0    0    0 -0.00000000000E+00 -0.00000000000E+00  0.11368683772E-12  0.17120000000E+03  0.17120000000E+03 0.  0.
         13    1    1    2    0    0  0.35846453110E+02  0.47883769902E+02  0.31764455001E+03  0.32322731156E+03  0.10566000000E+00 0.  1.
        994    1    1    2    0    0 -0.49992799587E+02 -0.36358790674E+02  0.17418462115E+02  0.18284989607E+03  0.17120000000E+03 0.  0.
        998    1    1    2    0    0  0.14146346477E+02 -0.11524979228E+02  0.11649369841E+04  0.11651227924E+04  0.10000000000E+02 0.  1.
</event>
<event>
 5    1  0.1338054E-008  0.3747772E+03  0.7957747E-01  0.3474220E+00
         13   -1    0    0    0    0  0.00000000000E+00  0.00000000000E+00  0.14999999963E+04  0.15000000000E+04  0.10566000000E+00 0. -1.
        994   -1    0    0    0    0 -0.00000000000E+00 -0.00000000000E+00  0.11368683772E-12  0.17120000000E+03  0.17120000000E+03 0.  0.
         13    1    1    2    0    0  0.65735029009E+02 -0.25084367597E+02  0.30498123410E+03  0.31299182714E+03  0.10566000000E+00 0. -1.
        994    1    1    2    0    0 -0.56934431005E+02  0.28901736242E+02  0.20790487274E+02  0.18389813526E+03  0.17120000000E+03 0.  0.
        998    1    1    2    0    0 -0.88005980044E+01 -0.38173686442E+01  0.11742282749E+04  0.11743100376E+04  0.10000000000E+02 0. -1.
</event>
<event>
 5    1  0.1338054E-008  0.3688545E+03  0.7957747E-01  0.3501172E+00
         13   -1    0    0    0    0  0.00000000000E+00  0.00000000000E+00  0.14999999963E+04  0.15000000000E+04  0.10566000000E+00 0. -1.
        994   -1    0    0    0    0 -0.00000000000E+00 -0.00000000000E+00  0.11368683772E-12  0.17120000000E+03  0.17120000000E+03 0.  0.
         13    1    1    2    0    0  0.61906493654E+02  0.79971902620E+02  0.53250280763E+03  0.54202137455E+03  0.10566000000E+00 0. -1.
        994    1    1    2    0    0 -0.58412319570E+02 -0.21117476757E+02  0.23891083606E+02  0.18367953282E+03  0.17120000000E+03 0.  0.
        998    1    1    2    0    0 -0.34941740844E+01 -0.58854425863E+02  0.94360610504E+03  0.94549909263E+03  0.10000000000E+02 0. -1.
</event>
<event>
 5    1  0.1338054E-008  0.3785721E+03  0.7957747E-01  0.3457400E+00
         13   -1    0    0    0    0  0.00000000000E+00  0.00000000000E+00  0.14999999963E+04  0.15000000000E+04  0.10566000000E+00 0. -1.
        994   -1    0    0    0    0 -0.00000000000E+00 -0.00000000000E+00  0.11368683772E-12  0.17120000000E+03  0.17120000000E+03 0.  0.
         13    1    1    2    0    0 -0.29498173280E+02 -0.62412628790E+01  0.87368763619E+02  0.92425145981E+02  0.10566000000E+00 0. -1.
        994    1    1    2    0    0  0.28326165655E+02  0.98948054201E+01  0.78854262522E+01  0.17398821449E+03  0.17120000000E+03 0.  0.
        998    1    1    2    0    0  0.11720076241E+01 -0.36535425411E+01  0.14047458064E+04  0.14047866395E+04  0.10000000000E+02 0. -1.
</event>
<event>
 5    1  0.1338054E-008  0.3844312E+03  0.7957747E-01  0.3432088E+00
         13   -1    0    0    0    0  0.00000000000E+00  0.00000000000E+00  0.14999999963E+04  0.15000000000E+04  0.10566000000E+00 0. -1.
        994   -1    0    0    0    0 -0.00000000000E+00 -0.00000000000E+00  0.11368683772E-12  0.17120000000E+03  0.17120000000E+03 0.  0.
         13    1    1    2    0    0  0.49638225976E+01 -0.19267448024E+02  0.11848357803E+03  0.12014259659E+03  0.10566000000E+00 0. -1.
        994    1    1    2    0    0 -0.11639777957E+01 -0.47953538581E+01  0.19930287728E+01  0.17128269739E+03  0.17120000000E+03 0.  0.
        998    1    1    2    0    0 -0.37998448019E+01  0.24062801882E+02  0.13795233895E+04  0.13797747060E+04  0.10000000000E+02 0. -1.
</event>
<event>
 5    1  0.1338054E-008  0.3841872E+03  0.7957747E-01  0.3433127E+00
         13   -1    0    0    0    0  0.00000000000E+00  0.00000000000E+00  0.14999999963E+04  0.15000000000E+04  0.10566000000E+00 0. -1.
        994   -1    0    0    0    0 -0.00000000000E+00 -0.00000000000E+00  0.11368683772E-12  0.17120000000E+03  0.17120000000E+03 0.  0.
         13    1    1    2    0    0 -0.18266716169E+02 -0.95921857048E+01  0.10688347419E+03  0.10885665421E+03  0.10566000000E+00 0. -1.
        994    1    1    2    0    0  0.18916950130E+02 -0.13972298469E+02  0.38599967028E+01  0.17285084814E+03  0.17120000000E+03 0.  0.
        998    1    1    2    0    0 -0.65023396104E+00  0.23564484174E+02  0.13892565254E+04  0.13894924977E+04  0.10000000000E+02 0. -1.
</event>
<event>
 5    1  0.1338054E-008  0.3730063E+03  0.7957747E-01  0.3482188E+00
         13   -1    0    0    0    0  0.00000000000E+00  0.00000000000E+00  0.14999999963E+04  0.15000000000E+04  0.10566000000E+00 0. -1.
        994   -1    0    0    0    0 -0.00000000000E+00 -0.00000000000E+00  0.11368683772E-12  0.17120000000E+03  0.17120000000E+03 0.  0.
         13    1    1    2    0    0 -0.41452619220E+02 -0.49779055739E+01  0.63666025636E+02  0.76134572754E+02  0.10566000000E+00 0. -1.
        994    1    1    2    0    0  0.35473539350E+02 -0.30708498103E+01  0.17030002884E+02  0.17569081681E+03  0.17120000000E+03 0.  0.
        998    1    1    2    0    0  0.59790798702E+01  0.80487553842E+01  0.14193039678E+04  0.14193746104E+04  0.10000000000E+02 0. -1.
</event>
<event>
 5    1  0.1338054E-008  0.3853902E+03  0.7957747E-01  0.3428019E+00
         13   -1    0    0    0    0  0.00000000000E+00  0.00000000000E+00  0.14999999963E+04  0.15000000000E+04  0.10566000000E+00 0.  1.
        994   -1    0    0    0    0 -0.00000000000E+00 -0.00000000000E+00  0.11368683772E-12  0.17120000000E+03  0.17120000000E+03 0.  0.
         13    1    1    2    0    0 -0.12832142354E+02 -0.32069945869E+01  0.61775981652E+02  0.63176196188E+02  0.10566000000E+00 0.  1.
        994    1    1    2    0    0  0.79804920133E+01 -0.22901012819E+01  0.16629968776E+01  0.17140927156E+03  0.17120000000E+03 0.  0.
        998    1    1    2    0    0  0.48516503403E+01  0.54970958687E+01  0.14365610177E+04  0.14366145323E+04  0.10000000000E+02 0.  1.
</event>
<event>
 5    1  0.1338054E-008  0.3701979E+03  0.7957747E-01  0.3494982E+00
         13   -1    0    0    0    0  0.00000000000E+00  0.00000000000E+00  0.14999999963E+04  0.15000000000E+04  0.10566000000E+00 0. -1.
        994   -1    0    0    0    0 -0.00000000000E+00 -0.00000000000E+00  0.11368683772E-12  0.17120000000E+03  0.17120000000E+03 0.  0.
         13    1    1    2    0    0 -0.21110892601E+02  0.73312262568E+02  0.37608086839E+03  0.38374104337E+03  0.10566000000E+00 0. -1.
        994    1    1    2    0    0 -0.63154176330E+01 -0.23937205191E+02  0.11286179866E+02  0.17334847028E+03  0.17120000000E+03 0.  0.
        998    1    1    2    0    0  0.27426310234E+02 -0.49375057377E+02  0.11126329480E+04  0.11141104864E+04  0.10000000000E+02 0. -1.
</event>
<event>
 5    1  0.1338054E-008  0.3856609E+03  0.7957747E-01  0.3426874E+00
         13   -1    0    0    0    0  0.00000000000E+00  0.00000000000E+00  0.14999999963E+04  0.15000000000E+04  0.10566000000E+00 0. -1.
        994   -1    0    0    0    0 -0.00000000000E+00 -0.00000000000E+00  0.11368683772E-12  0.17120000000E+03  0.17120000000E+03 0.  0.
         13    1    1    2    0    0 -0.77798836862E+01 -0.11391940290E+02  0.79156975204E+02  0.80350113760E+02  0.10566000000E+00 0. -1.
        994    1    1    2    0    0  0.12588963569E+02 -0.83884965589E+01  0.20537397800E+01  0.17187933769E+03  0.17120000000E+03 0.  0.
        998    1    1    2    0    0 -0.48090798833E+01  0.19780436849E+02  0.14187892813E+04  0.14189705485E+04  0.10000000000E+02 0. -1.
</event>
<event>
 5    1  0.1338054E-008  0.3799244E+03  0.7957747E-01  0.3451488E+00
         13   -1    0    0    0    0  0.00000000000E+00  0.00000000000E+00  0.14999999963E+04  0.15000000000E+04  0.10566000000E+00 0.  1.
        994   -1    0    0    0    0 -0.00000000000E+00 -0.00000000000E+00  0.11368683772E-12  0.17120000000E+03  0.17120000000E+03 0.  0.
         13    1    1    2    0    0 -0.13556357252E+03 -0.11613331250E+02  0.41210519820E+03  0.43398508869E+03  0.10566000000E+00 0.  1.
        994    1    1    2    0    0  0.12831834935E+03  0.11471337891E+02  0.79174445620E+02  0.22841896421E+03  0.17120000000E+03 0.  0.
        998    1    1    2    0    0  0.72452231693E+01  0.14199335864E+00  0.10087203525E+04  0.10087959471E+04  0.10000000000E+02 0.  0.
</event>
<event>
 5    1  0.1338054E-008  0.3853001E+03  0.7957747E-01  0.3428400E+00
         13   -1    0    0    0    0  0.00000000000E+00  0.00000000000E+00  0.14999999963E+04  0.15000000000E+04  0.10566000000E+00 0. -1.
        994   -1    0    0    0    0 -0.00000000000E+00 -0.00000000000E+00  0.11368683772E-12  0.17120000000E+03  0.17120000000E+03 0.  0.
         13    1    1    2    0    0 -0.80617669193E+01  0.14721641649E+02  0.99451324397E+02  0.10085780043E+03  0.10566000000E+00 0. -1.
        994    1    1    2    0    0  0.99302588766E+01 -0.12321369570E+01  0.18102450635E+01  0.17150173524E+03  0.17120000000E+03 0.  0.
        998    1    1    2    0    0 -0.18684919573E+01 -0.13489504692E+02  0.13987384268E+04  0.13988404643E+04  0.10000000000E+02 0. -1.
</event>
<event>
 5    1  0.1338054E-008  0.3799767E+03  0.7957747E-01  0.3451260E+00
         13   -1    0    0    0    0  0.00000000000E+00  0.00000000000E+00  0.14999999963E+04  0.15000000000E+04  0.10566000000E+00 0.  1.
        994   -1    0    0    0    0 -0.00000000000E+00 -0.00000000000E+00  0.11368683772E-12  0.17120000000E+03  0.17120000000E+03 0.  0.
         13    1    1    2    0    0  0.15246385744E+02 -0.11549390054E+02  0.41714975030E+02  0.45891077506E+02  0.10566000000E+00 0.  1.
        994    1    1    2    0    0  0.85284397851E+01  0.41948929426E+02  0.10295528585E+02  0.17677071272E+03  0.17120000000E+03 0.  0.
        998    1    1    2    0    0 -0.23774825529E+02 -0.30399539372E+02  0.14479894927E+04  0.14485382098E+04  0.10000000000E+02 0.  1.
</event>
<event>
 5    1  0.1338054E-008  0.3851565E+03  0.7957747E-01  0.3429009E+00
         13   -1    0    0    0    0  0.00000000000E+00  0.00000000000E+00  0.14999999963E+04  0.15000000000E+04  0.10566000000E+00 0. -1.
        994   -1    0    0    0    0 -0.00000000000E+00 -0.00000000000E+00  0.11368683772E-12  0.17120000000E+03  0.17120000000E+03 0.  0.
         13    1    1    2    0    0  0.13630590515E+02  0.11970256081E+02  0.10070723895E+03  0.10232809570E+03  0.10566000000E+00 0. -1.
        994    1    1    2    0    0 -0.12038928019E+02 -0.13839876094E+02  0.26592454590E+01  0.17220043422E+03  0.17120000000E+03 0.  0.
        998    1    1    2    0    0 -0.15916624959E+01  0.18696200129E+01  0.13966335119E+04  0.13966714701E+04  0.10000000000E+02 0. -1.
</event>
<event>
 5    1  0.1338054E-008  0.3730400E+03  0.7957747E-01  0.3482035E+00
         13   -1    0    0    0    0  0.00000000000E+00  0.00000000000E+00  0.14999999963E+04  0.15000000000E+04  0.10566000000E+00 0. -1.
        994   -1    0    0    0    0 -0.00000000000E+00 -0.00000000000E+00  0.11368683772E-12  0.17120000000E+03  0.17120000000E+03 0.  0.
         13    1    1    2    0    0  0.56911035027E+01  0.49890375015E+02  0.14564397842E+03  0.15405719001E+03  0.10566000000E+00 0. -1.
        994    1    1    2    0    0 -0.21963027402E+02 -0.49463301187E+02  0.17778395479E+02  0.18042866757E+03  0.17120000000E+03 0.  0.
        998    1    1    2    0    0  0.16271923899E+02 -0.42707382842E+00  0.13365776224E+04  0.13367141424E+04  0.10000000000E+02 0. -1.
</event>
<event>
 5    1  0.1338054E-008  0.3810433E+03  0.7957747E-01  0.3446628E+00
         13   -1    0    0    0    0  0.00000000000E+00  0.00000000000E+00  0.14999999963E+04  0.15000000000E+04  0.10566000000E+00 0.  1.
        994   -1    0    0    0    0 -0.00000000000E+00 -0.00000000000E+00  0.11368683772E-12  0.17120000000E+03  0.17120000000E+03 0.  0.
         13    1    1    2    0    0  0.27515122529E+02 -0.32580573894E+01  0.10912523189E+03  0.11258785150E+03  0.10566000000E+00 0.  1.
        994    1    1    2    0    0 -0.10219074462E+02  0.22939688514E+01  0.39729128899E+01  0.17156606836E+03  0.17120000000E+03 0.  0.
        998    1    1    2    0    0 -0.17296048067E+02  0.96408853802E+00  0.13869018515E+04  0.13870460801E+04  0.10000000000E+02 0.  1.
</event>
<event>
 5    1  0.1338054E-008  0.3826558E+03  0.7957747E-01  0.3439675E+00
         13   -1    0    0    0    0  0.00000000000E+00  0.00000000000E+00  0.14999999963E+04  0.15000000000E+04  0.10566000000E+00 0. -1.
        994   -1    0    0    0    0 -0.00000000000E+00 -0.00000000000E+00  0.11368683772E-12  0.17120000000E+03  0.17120000000E+03 0.  0.
         13    1    1    2    0    0  0.19317683176E+01  0.12518057693E+02  0.28867548577E+02  0.31524276711E+02  0.10566000000E+00 0. -1.
        994    1    1    2    0    0  0.19408724306E+01  0.32394415004E+01  0.28457221657E+01  0.17126528867E+03  0.17120000000E+03 0.  0.
        998    1    1    2    0    0 -0.38726407482E+01 -0.15757499194E+02  0.14682867255E+04  0.14684104346E+04  0.10000000000E+02 0. -1.
</event>
<event>
 5    1  0.1338054E-008  0.3782138E+03  0.7957747E-01  0.3458973E+00
         13   -1    0    0    0    0  0.00000000000E+00  0.00000000000E+00  0.14999999963E+04  0.15000000000E+04  0.10566000000E+00 0. -1.
        994   -1    0    0    0    0 -0.00000000000E+00 -0.00000000000E+00  0.11368683772E-12  0.17120000000E+03  0.17120000000E+03 0.  0.
         13    1    1    2    0    0 -0.87617566304E+02 -0.84874159980E+02  0.70609000929E+03  0.71654977031E+03  0.10566000000E+00 0. -1.
        994    1    1    2    0    0  0.85743388718E+02  0.91138494608E+02  0.59639705748E+02  0.22028274651E+03  0.17120000000E+03 0.  0.
        998    1    1    2    0    0  0.18741775860E+01 -0.62643346282E+01  0.73427028124E+03  0.73436748317E+03  0.10000000000E+02 0.  0.
</event>
<event>
 5    1  0.1338054E-008  0.3787138E+03  0.7957747E-01  0.3456778E+00
         13   -1    0    0    0    0  0.00000000000E+00  0.00000000000E+00  0.14999999963E+04  0.15000000000E+04  0.10566000000E+00 0. -1.
        994   -1    0    0    0    0 -0.00000000000E+00 -0.00000000000E+00  0.11368683772E-12  0.17120000000E+03  0.17120000000E+03 0.  0.
         13    1    1    2    0    0  0.27688183262E+02 -0.19796786468E+02  0.13069132418E+03  0.13505103342E+03  0.10566000000E+00 0. -1.
        994    1    1    2    0    0 -0.27745269586E+02 -0.29045873514E+02  0.10219639991E+02  0.17614580266E+03  0.17120000000E+03 0.  0.
        998    1    1    2    0    0  0.57086323161E-01  0.48842659982E+02  0.13590890321E+04  0.13600031639E+04  0.10000000000E+02 0. -1.
</event>
<event>
 5    1  0.1338054E-008  0.3868403E+03  0.7957747E-01  0.3421905E+00
         13   -1    0    0    0    0  0.00000000000E+00  0.00000000000E+00  0.14999999963E+04  0.15000000000E+04  0.10566000000E+00 0. -1.
        994   -1    0    0    0    0 -0.00000000000E+00 -0.00000000000E+00  0.11368683772E-12  0.17120000000E+03  0.17120000000E+03 0.  0.
         13    1    1    2    0    0 -0.26937081181E+02 -0.46141410105E+02  0.63479756814E+02  0.82971843165E+02  0.10566000000E+00 0. -1.
        994    1    1    2    0    0  0.24886587074E+02  0.32430956138E+02  0.26373518590E+02  0.17797784024E+03  0.17120000000E+03 0.  0.
        998    1    1    2    0    0  0.20504941071E+01  0.13710453967E+02  0.14101467209E+04  0.14102503166E+04  0.10000000000E+02 0. -1.
</event>
<event>
 5    1  0.1338054E-008  0.3824712E+03  0.7957747E-01  0.3440469E+00
         13   -1    0    0    0    0  0.00000000000E+00  0.00000000000E+00  0.14999999963E+04  0.15000000000E+04  0.10566000000E+00 0.  1.
        994   -1    0    0    0    0 -0.00000000000E+00 -0.00000000000E+00  0.11368683772E-12  0.17120000000E+03  0.17120000000E+03 0.  0.
         13    1    1    2    0    0 -0.11750578103E+02 -0.19714951344E+02  0.90010107475E+02  0.92890182495E+02  0.10566000000E+00 0.  1.
        994    1    1    2    0    0  0.99355559394E+01  0.11193451230E+02  0.36340148317E+01  0.17189140376E+03  0.17120000000E+03 0.  0.
        998    1    1    2    0    0  0.18150221637E+01  0.85215001141E+01  0.14063558740E+04  0.14064184137E+04  0.10000000000E+02 0.  1.
</event>
<event>
 5    1  0.1338054E-008  0.3786363E+03  0.7957747E-01  0.3457118E+00
         13   -1    0    0    0    0  0.00000000000E+00  0.00000000000E+00  0.14999999963E+04  0.15000000000E+04  0.10566000000E+00 0. -1.
        994   -1    0    0    0    0 -0.00000000000E+00 -0.00000000000E+00  0.11368683772E-12  0.17120000000E+03  0.17120000000E+03 0.  0.
         13    1    1    2    0    0  0.13011762686E+02  0.87213051887E+01  0.23087863417E+02  0.27900317804E+02  0.10566000000E+00 0. -1.
        994    1    1    2    0    0 -0.11144772720E+02 -0.12626985279E+02  0.57761659564E+01  0.17212335928E+03  0.17120000000E+03 0.  0.
        998    1    1    2    0    0 -0.18669899665E+01  0.39056800899E+01  0.14711359669E+04  0.14711763229E+04  0.10000000000E+02 0. -1.
</event>
<event>
 5    1  0.1338054E-008  0.3782160E+03  0.7957747E-01  0.3458963E+00
         13   -1    0    0    0    0  0.00000000000E+00  0.00000000000E+00  0.14999999963E+04  0.15000000000E+04  0.10566000000E+00 0. -1.
        994   -1    0    0    0    0 -0.00000000000E+00 -0.00000000000E+00  0.11368683772E-12  0.17120000000E+03  0.17120000000E+03 0.  0.
         13    1    1    2    0    0  0.24454621768E+02 -0.18429315867E+02  0.86374545204E+02  0.91641919624E+02  0.10566000000E+00 0. -1.
        994    1    1    2    0    0 -0.27276860878E+02  0.16022093726E+02  0.84089826436E+01  0.17430113487E+03  0.17120000000E+03 0.  0.
        998    1    1    2    0    0  0.28222391100E+01  0.24072221405E+01  0.14052164684E+04  0.14052569455E+04  0.10000000000E+02 0. -1.
</event>
<event>
 5    1  0.1338054E-008  0.3760888E+03  0.7957747E-01  0.3468368E+00
         13   -1    0    0    0    0  0.00000000000E+00  0.00000000000E+00  0.14999999963E+04  0.15000000000E+04  0.10566000000E+00 0. -1.
        994   -1    0    0    0    0 -0.00000000000E+00 -0.00000000000E+00  0.11368683772E-12  0.17120000000E+03  0.17120000000E+03 0.  0.
         13    1    1    2    0    0  0.25672480489E+02 -0.19123317483E+02  0.76596908964E+02  0.83017318391E+02  0.10566000000E+00 0. -1.
        994    1    1    2    0    0 -0.23160177223E+02  0.29145535110E+02  0.10828643110E+02  0.17553505501E+03  0.17120000000E+03 0.  0.
        998    1    1    2    0    0 -0.25123032659E+01 -0.10022217628E+02  0.14125744442E+04  0.14126476266E+04  0.10000000000E+02 0. -1.
</event>
<event>
 5    1  0.1338054E-008  0.3855993E+03  0.7957747E-01  0.3427134E+00
         13   -1    0    0    0    0  0.00000000000E+00  0.00000000000E+00  0.14999999963E+04  0.15000000000E+04  0.10566000000E+00 0. -1.
        994   -1    0    0    0    0 -0.00000000000E+00 -0.00000000000E+00  0.11368683772E-12  0.17120000000E+03  0.17120000000E+03 0.  0.
         13    1    1    2    0    0  0.10845438067E+02  0.49182274354E+01  0.54413077313E+02  0.55701046980E+02  0.10566000000E+00 0. -1.
        994    1    1    2    0    0 -0.47305823265E+01 -0.25699902127E+01  0.14280213747E+01  0.17129057915E+03  0.17120000000E+03 0.  0.
        998    1    1    2    0    0 -0.61148557408E+01 -0.23482372228E+01  0.14441588976E+04  0.14442083739E+04  0.10000000000E+02 0. -1.
</event>
<event>
 5    1  0.1338054E-008  0.3772995E+03  0.7957747E-01  0.3463002E+00
         13   -1    0    0    0    0  0.00000000000E+00  0.00000000000E+00  0.14999999963E+04  0.15000000000E+04  0.10566000000E+00 0. -1.
        994   -1    0    0    0    0 -0.00000000000E+00 -0.00000000000E+00  0.11368683772E-12  0.17120000000E+03  0.17120000000E+03 0.  0.
         13    1    1    2    0    0 -0.22284071170E+02  0.39700350070E+02  0.21942922162E+03  0.22410241429E+03  0.10566000000E+00 0. -1.
        994    1    1    2    0    0 -0.23633613788E+00 -0.37120258378E+01  0.55492623267E+01  0.17133029301E+03  0.17120000000E+03 0.  0.
        998    1    1    2    0    0  0.22520407307E+02 -0.35988324232E+02  0.12750215123E+04  0.12757672927E+04  0.10000000000E+02 0. -1.
</event>
<event>
 5    1  0.1338054E-008  0.3726936E+03  0.7957747E-01  0.3483603E+00
         13   -1    0    0    0    0  0.00000000000E+00  0.00000000000E+00  0.14999999963E+04  0.15000000000E+04  0.10566000000E+00 0. -1.
        994   -1    0    0    0    0 -0.00000000000E+00 -0.00000000000E+00  0.11368683772E-12  0.17120000000E+03  0.17120000000E+03 0.  0.
         13    1    1    2    0    0  0.35283687776E+02 -0.22131206231E+03  0.87640676042E+03  0.90460642736E+03  0.10566000000E+00 0. -1.
        994    1    1    2    0    0 -0.22922489653E+02  0.22541764486E+03  0.21129467442E+03  0.35396812651E+03  0.17120000000E+03 0.  0.
        998    1    1    2    0    0 -0.12361198123E+02 -0.41055825487E+01  0.41229856144E+03  0.41262544613E+03  0.10000000000E+02 0.  1.
</event>
<event>
 5    1  0.1338054E-008  0.3846927E+03  0.7957747E-01  0.3430977E+00
         13   -1    0    0    0    0  0.00000000000E+00  0.00000000000E+00  0.14999999963E+04  0.15000000000E+04  0.10566000000E+00 0.  1.
        994   -1    0    0    0    0 -0.00000000000E+00 -0.00000000000E+00  0.11368683772E-12  0.17120000000E+03  0.17120000000E+03 0.  0.
         13    1    1    2    0    0 -0.75303044204E+01 -0.68403322547E+01  0.27417112590E+02  0.29243885803E+02  0.10566000000E+00 0.  1.
        994    1    1    2    0    0  0.10196044007E+02  0.15291404631E+02  0.28955490024E+01  0.17220804445E+03  0.17120000000E+03 0.  0.
        998    1    1    2    0    0 -0.26657395865E+01 -0.84510723766E+01  0.14696873347E+04  0.14697480697E+04  0.10000000000E+02 0.  1.
</event>
<event>
 5    1  0.1338054E-008  0.3808256E+03  0.7957747E-01  0.3447572E+00
         13   -1    0    0    0    0  0.00000000000E+00  0.00000000000E+00  0.14999999963E+04  0.15000000000E+04  0.10566000000E+00 0.  1.
        994   -1    0    0    0    0 -0.00000000000E+00 -0.00000000000E+00  0.11368683772E-12  0.17120000000E+03  0.17120000000E+03 0.  0.
         13    1    1    2    0    0 -0.56455776236E+01 -0.13615995874E+02  0.28675512084E+02  0.32242271131E+02  0.10566000000E+00 0.  1.
        994    1    1    2    0    0  0.17171898408E+01 -0.90551380714E+00  0.37295440569E+01  0.17125162246E+03  0.17120000000E+03 0.  0.
        998    1    1    2    0    0  0.39283877828E+01  0.14521509681E+02  0.14675949401E+04  0.14677061064E+04  0.10000000000E+02 0.  1.
</event>
<event>
 5    1  0.1338054E-008  0.3692438E+03  0.7957747E-01  0.3499373E+00
         13   -1    0    0    0    0  0.00000000000E+00  0.00000000000E+00  0.14999999963E+04  0.15000000000E+04  0.10566000000E+00 0.  1.
        994   -1    0    0    0    0 -0.00000000000E+00 -0.00000000000E+00  0.11368683772E-12  0.17120000000E+03  0.17120000000E+03 0.  0.
         13    1    1    2    0    0  0.30841106304E+02 -0.10971781174E+03  0.41740213550E+03  0.43268201480E+03  0.10566000000E+00 0.  1.
        994    1    1    2    0    0  0.19341223024E+02  0.13150400792E+03  0.74946962534E+02  0.22933354355E+03  0.17120000000E+03 0.  0.
        998    1    1    2    0    0 -0.50182329328E+02 -0.21786196180E+02  0.10076508982E+04  0.10091844416E+04  0.10000000000E+02 0.  1.
</event>
<event>
 5    1  0.1338054E-008  0.3841297E+03  0.7957747E-01  0.3433372E+00
         13   -1    0    0    0    0  0.00000000000E+00  0.00000000000E+00  0.14999999963E+04  0.15000000000E+04  0.10566000000E+00 0. -1.
        994   -1    0    0    0    0 -0.00000000000E+00 -0.00000000000E+00  0.11368683772E-12  0.17120000000E+03  0.17120000000E+03 0.  0.
         13    1    1    2    0    0 -0.14575865964E+03 -0.14030435023E+03  0.12031112915E+04  0.12200031510E+04  0.10566000000E+00 0. -1.
        994    1    1    2    0    0  0.14528260860E+03  0.13987463808E+03  0.15027928802E+03  0.30424538641E+03  0.17120000000E+03 0.  0.
        998    1    1    2    0    0  0.47605103594E+00  0.42971215513E+00  0.14660941671E+03  0.14695146255E+03  0.10000000000E+02 0. -1.
</event>
<event>
 5    1  0.1338054E-008  0.3793291E+03  0.7957747E-01  0.3454085E+00
         13   -1    0    0    0    0  0.00000000000E+00  0.00000000000E+00  0.14999999963E+04  0.15000000000E+04  0.10566000000E+00 0. -1.
        994   -1    0    0    0    0 -0.00000000000E+00 -0.00000000000E+00  0.11368683772E-12  0.17120000000E+03  0.17120000000E+03 0.  0.
         13    1    1    2    0    0 -0.86668311865E+02  0.16650821569E+02  0.40807128926E+03  0.41750549029E+03  0.10566000000E+00 0. -1.
        994    1    1    2    0    0  0.12820151815E+03 -0.12316871513E+02  0.62215505792E+02  0.22308640421E+03  0.17120000000E+03 0.  0.
        998    1    1    2    0    0 -0.41533206289E+02 -0.43339500558E+01  0.10297132012E+04  0.10306081055E+04  0.10000000000E+02 0. -1.
</event>
<event>
 5    1  0.1338054E-008  0.3850597E+03  0.7957747E-01  0.3429419E+00
         13   -1    0    0    0    0  0.00000000000E+00  0.00000000000E+00  0.14999999963E+04  0.15000000000E+04  0.10566000000E+00 0. -1.
        994   -1    0    0    0    0 -0.00000000000E+00 -0.00000000000E+00  0.11368683772E-12  0.17120000000E+03  0.17120000000E+03 0.  0.
         13    1    1    2    0    0  0.18558623031E+01 -0.12530122257E+02  0.53714265949E+02  0.55187695360E+02  0.10566000000E+00 0. -1.
        994    1    1    2    0    0  0.66882354495E+01 -0.23509583462E+01  0.17657730321E+01  0.17135582118E+03  0.17120000000E+03 0.  0.
        998    1    1    2    0    0 -0.85440977527E+01  0.14881080603E+02  0.14445199573E+04  0.14446564835E+04  0.10000000000E+02 0. -1.
</event>
<event>
 5    1  0.1338054E-008  0.3854160E+03  0.7957747E-01  0.3427910E+00
         13   -1    0    0    0    0  0.00000000000E+00  0.00000000000E+00  0.14999999963E+04  0.15000000000E+04  0.10566000000E+00 0.  1.
        994   -1    0    0    0    0 -0.00000000000E+00 -0.00000000000E+00  0.11368683772E-12  0.17120000000E+03  0.17120000000E+03 0.  0.
         13    1    1    2    0    0 -0.16967343070E+01  0.99950249031E+01  0.36335691892E+02  0.37723641121E+02  0.10566000000E+00 0.  1.
        994    1    1    2    0    0 -0.88203091139E+01 -0.73744338552E+01  0.18579946367E+01  0.17159566507E+03  0.17120000000E+03 0.  0.
        998    1    1    2    0    0  0.10517043421E+02 -0.26205910480E+01  0.14618063097E+04  0.14618806938E+04  0.10000000000E+02 0.  1.
</event>
<event>
 5    1  0.1338054E-008  0.3855341E+03  0.7957747E-01  0.3427410E+00
         13   -1    0    0    0    0  0.00000000000E+00  0.00000000000E+00  0.14999999963E+04  0.15000000000E+04  0.10566000000E+00 0.  1.
        994   -1    0    0    0    0 -0.00000000000E+00 -0.00000000000E+00  0.11368683772E-12  0.17120000000E+03  0.17120000000E+03 0.  0.
         13    1    1    2    0    0 -0.60819948951E+01 -0.11223589533E+02  0.65889242262E+02  0.67114551580E+02  0.10566000000E+00 0.  1.
        994    1    1    2    0    0  0.60644798480E+01 -0.85567973685E+01  0.17264195226E+01  0.17152963948E+03  0.17120000000E+03 0.  0.
        998    1    1    2    0    0  0.17515047025E-01  0.19780386901E+02  0.14323843345E+04  0.14325558089E+04  0.10000000000E+02 0.  1.
</event>
<event>
 5    1  0.1338054E-008  0.3687454E+03  0.7957747E-01  0.3501677E+00
         13   -1    0    0    0    0  0.00000000000E+00  0.00000000000E+00  0.14999999963E+04  0.15000000000E+04  0.10566000000E+00 0. -1.
        994   -1    0    0    0    0 -0.00000000000E+00 -0.00000000000E+00  0.11368683772E-12  0.17120000000E+03  0.17120000000E+03 0.  0.
         13    1    1    2    0    0  0.27533504590E+01  0.18609137782E+03  0.66573073761E+03  0.69125610883E+03  0.10566000000E+00 0. -1.
        994    1    1    2    0    0  0.40184760246E+01 -0.19914428668E+03  0.16443928260E+03  0.30987789971E+03  0.17120000000E+03 0.  0.
        998    1    1    2    0    0 -0.67718264836E+01  0.13052908854E+02  0.66982997607E+03  0.67006599146E+03  0.10000000000E+02 0.  1.
</event>
<event>
 5    1  0.1338054E-008  0.3860318E+03  0.7957747E-01  0.3425308E+00
         13   -1    0    0    0    0  0.00000000000E+00  0.00000000000E+00  0.14999999963E+04  0.15000000000E+04  0.10566000000E+00 0. -1.
        994   -1    0    0    0    0 -0.00000000000E+00 -0.00000000000E+00  0.11368683772E-12  0.17120000000E+03  0.17120000000E+03 0.  0.
         13    1    1    2    0    0  0.70407187232E+01 -0.10888295064E+02  0.73502508920E+02  0.74637501775E+02  0.10566000000E+00 0. -1.
        994    1    1    2    0    0 -0.59721147315E+01  0.11381212642E+02  0.16603885953E+01  0.17168982220E+03  0.17120000000E+03 0.  0.
        998    1    1    2    0    0 -0.10686039917E+01 -0.49291757758E+00  0.14248370988E+04  0.14248726760E+04  0.10000000000E+02 0.  0.
</event>
<event>
 5    1  0.1338054E-008  0.3745042E+03  0.7957747E-01  0.3475443E+00
         13   -1    0    0    0    0  0.00000000000E+00  0.00000000000E+00  0.14999999963E+04  0.15000000000E+04  0.10566000000E+00 0. -1.
        994   -1    0    0    0    0 -0.00000000000E+00 -0.00000000000E+00  0.11368683772E-12  0.17120000000E+03  0.17120000000E+03 0.  0.
         13    1    1    2    0    0 -0.96256247821E+01  0.17741289494E+02  0.26316845249E+02  0.33166150112E+02  0.10566000000E+00 0. -1.
        994    1    1    2    0    0  0.10104629511E+02 -0.13268181091E+02  0.78812018632E+01  0.17219088684E+03  0.17120000000E+03 0.  0.
        998    1    1    2    0    0 -0.47900472877E+00 -0.44731084036E+01  0.14658019492E+04  0.14658429631E+04  0.10000000000E+02 0. -1.
</event>
<event>
 5    1  0.1338054E-008  0.3739726E+03  0.7957747E-01  0.3477830E+00
         13   -1    0    0    0    0  0.00000000000E+00  0.00000000000E+00  0.14999999963E+04  0.15000000000E+04  0.10566000000E+00 0.  1.
        994   -1    0    0    0    0 -0.00000000000E+00 -0.00000000000E+00  0.11368683772E-12  0.17120000000E+03  0.17120000000E+03 0.  0.
         13    1    1    2    0    0 -0.27730945449E+02  0.50490980597E+01  0.50017722881E+02  0.57413260602E+02  0.10566000000E+00 0.  1.
        994    1    1    2    0    0  0.31566409338E+02 -0.11177970068E+02  0.11041890223E+02  0.17479344539E+03  0.17120000000E+03 0.  0.
        998    1    1    2    0    0 -0.38354638887E+01  0.61288720082E+01  0.14389403832E+04  0.14389932940E+04  0.10000000000E+02 0.  1.
</event>
<event>
 5    1  0.1338054E-008  0.3847561E+03  0.7957747E-01  0.3430707E+00
         13   -1    0    0    0    0  0.00000000000E+00  0.00000000000E+00  0.14999999963E+04  0.15000000000E+04  0.10566000000E+00 0. -1.
        994   -1    0    0    0    0 -0.00000000000E+00 -0.00000000000E+00  0.11368683772E-12  0.17120000000E+03  0.17120000000E+03 0.  0.
         13    1    1    2    0    0 -0.90218263920E+01 -0.91095839608E+01  0.50741473462E+02  0.52336279620E+02  0.10566000000E+00 0. -1.
        994    1    1    2    0    0  0.51325490130E+00 -0.93175449373E+01  0.20379117835E+01  0.17146624495E+03  0.17120000000E+03 0.  0.
        998    1    1    2    0    0  0.85085714907E+01  0.18427128898E+02  0.14472206110E+04  0.14473974754E+04  0.10000000000E+02 0. -1.
</event>
<event>
 5    1  0.1338054E-008  0.3854709E+03  0.7957747E-01  0.3427677E+00
         13   -1    0    0    0    0  0.00000000000E+00  0.00000000000E+00  0.14999999963E+04  0.15000000000E+04  0.10566000000E+00 0.  1.
        994   -1    0    0    0    0 -0.00000000000E+00 -0.00000000000E+00  0.11368683772E-12  0.17120000000E+03  0.17120000000E+03 0.  0.
         13    1    1    2    0    0  0.82909064648E+00  0.15487196544E+02  0.80045977709E+02  0.81534718737E+02  0.10566000000E+00 0.  1.
        994    1    1    2    0    0 -0.68519903798E+01 -0.20263013052E+02  0.29003416133E+01  0.17255547355E+03  0.17120000000E+03 0.  0.
        998    1    1    2    0    0  0.60228997333E+01  0.47758165076E+01  0.14170536770E+04  0.14171098077E+04  0.10000000000E+02 0.  1.
</event>
<event>
 5    1  0.1338054E-008  0.3794266E+03  0.7957747E-01  0.3453659E+00
         13   -1    0    0    0    0  0.00000000000E+00  0.00000000000E+00  0.14999999963E+04  0.15000000000E+04  0.10566000000E+00 0.  1.
        994   -1    0    0    0    0 -0.00000000000E+00 -0.00000000000E+00  0.11368683772E-12  0.17120000000E+03  0.17120000000E+03 0.  0.
         13    1    1    2    0    0 -0.37850964134E+01 -0.34257660126E+02  0.13654467737E+03  0.14082746293E+03  0.10566000000E+00 0.  1.
        994    1    1    2    0    0 -0.82666574206E+00  0.15847264790E+02  0.52667191736E+01  0.17201452703E+03  0.17120000000E+03 0.  0.
        998    1    1    2    0    0  0.46117621554E+01  0.18410395336E+02  0.13581885997E+04  0.13583580100E+04  0.10000000000E+02 0.  1.
</event>
<event>
 5    1  0.1338054E-008  0.3829013E+03  0.7957747E-01  0.3438622E+00
         13   -1    0    0    0    0  0.00000000000E+00  0.00000000000E+00  0.14999999963E+04  0.15000000000E+04  0.10566000000E+00 0. -1.
        994   -1    0    0    0    0 -0.00000000000E+00 -0.00000000000E+00  0.11368683772E-12  0.17120000000E+03  0.17120000000E+03 0.  0.
         13    1    1    2    0    0 -0.19008555025E+02  0.69164825985E+01  0.77813596642E+02  0.80399812699E+02  0.10566000000E+00 0. -1.
        994    1    1    2    0    0  0.64507663973E+01 -0.51893690722E+01  0.29026857095E+01  0.17142464094E+03  0.17120000000E+03 0.  0.
        998    1    1    2    0    0  0.12557788628E+02 -0.17271135264E+01  0.14192837139E+04  0.14193755464E+04  0.10000000000E+02 0. -1.
</event>
<event>
 5    1  0.1338054E-008  0.3797102E+03  0.7957747E-01  0.3452421E+00
         13   -1    0    0    0    0  0.00000000000E+00  0.00000000000E+00  0.14999999963E+04  0.15000000000E+04  0.10566000000E+00 0.  1.
        994   -1    0    0    0    0 -0.00000000000E+00 -0.00000000000E+00  0.11368683772E-12  0.17120000000E+03  0.17120000000E+03 0.  0.
         13    1    1    2    0    0  0.17108938912E+02 -0.19436628416E+02  0.73784873171E+02  0.78196655861E+02  0.10566000000E+00 0.  1.
        994    1    1    2    0    0 -0.10174736231E+02  0.24902117449E+02  0.67046559990E+01  0.17343019669E+03  0.17120000000E+03 0.  0.
        998    1    1    2    0    0 -0.69342026811E+01 -0.54654890328E+01  0.14195104671E+04  0.14195731475E+04  0.10000000000E+02 0.  1.
</event>
<event>
 5    1  0.1338054E-008  0.3848315E+03  0.7957747E-01  0.3430387E+00
         13   -1    0    0    0    0  0.00000000000E+00  0.00000000000E+00  0.14999999963E+04  0.15000000000E+04  0.10566000000E+00 0.  1.
        994   -1    0    0    0    0 -0.00000000000E+00 -0.00000000000E+00  0.11368683772E-12  0.17120000000E+03  0.17120000000E+03 0.  0.
         13    1    1    2    0    0 -0.89180815175E+01 -0.19163053906E+02  0.11843017869E+03  0.12030159268E+03  0.10566000000E+00 0.  1.
        994    1    1    2    0    0  0.46475870008E+01  0.25252839666E+02  0.38862299107E+01  0.17315844986E+03  0.17120000000E+03 0.  0.
        998    1    1    2    0    0  0.42704945167E+01 -0.60897857599E+01  0.13776835877E+04  0.13777399575E+04  0.10000000000E+02 0. -1.
</event>
<event>
 5    1  0.1338054E-008  0.3782380E+03  0.7957747E-01  0.3458867E+00
         13   -1    0    0    0    0  0.00000000000E+00  0.00000000000E+00  0.14999999963E+04  0.15000000000E+04  0.10566000000E+00 0.  1.
        994   -1    0    0    0    0 -0.00000000000E+00 -0.00000000000E+00  0.11368683772E-12  0.17120000000E+03  0.17120000000E+03 0.  0.
         13    1    1    2    0    0 -0.10889687589E+01  0.46948030267E+02  0.19963658403E+03  0.20508554373E+03  0.10566000000E+00 0.  1.
        994    1    1    2    0    0  0.66335020286E+00 -0.40053754481E+02  0.10440196806E+02  0.17613398591E+03  0.17120000000E+03 0.  0.
        998    1    1    2    0    0  0.42561855601E+00 -0.68942757867E+01  0.12899232154E+04  0.12899804704E+04  0.10000000000E+02 0.  1.
</event>
<event>
 5    1  0.1338054E-008  0.3833902E+03  0.7957747E-01  0.3436529E+00
         13   -1    0    0    0    0  0.00000000000E+00  0.00000000000E+00  0.14999999963E+04  0.15000000000E+04  0.10566000000E+00 0. -1.
        994   -1    0    0    0    0 -0.00000000000E+00 -0.00000000000E+00  0.11368683772E-12  0.17120000000E+03  0.17120000000E+03 0.  0.
         13    1    1    2    0    0  0.27818460262E+02 -0.11391819900E+02  0.16599573256E+03  0.16869568662E+03  0.10566000000E+00 0. -1.
        994    1    1    2    0    0 -0.29613192802E+02  0.92066489560E+01  0.56172994411E+01  0.17407670041E+03  0.17120000000E+03 0.  0.
        998    1    1    2    0    0  0.17947325403E+01  0.21851709439E+01  0.13283869643E+04  0.13284276130E+04  0.10000000000E+02 0.  0.
</event>
<event>
 5    1  0.1338054E-008  0.3733089E+03  0.7957747E-01  0.3480821E+00
         13   -1    0    0    0    0  0.00000000000E+00  0.00000000000E+00  0.14999999963E+04  0.15000000000E+04  0.10566000000E+00 0. -1.
        994   -1    0    0    0    0 -0.00000000000E+00 -0.00000000000E+00  0.11368683772E-12  0.17120000000E+03  0.17120000000E+03 0.  0.
         13    1    1    2    0    0  0.46574190791E+02 -0.58290688301E+02  0.21436233986E+03  0.22697617387E+03  0.10566000000E+00 0. -1.
        994    1    1    2    0    0  0.68323596050E+00  0.59894764458E+02  0.25500212262E+02  0.18315990404E+03  0.17120000000E+03 0.  0.
        998    1    1    2    0    0 -0.47257426752E+02 -0.16040761566E+01  0.12601374442E+04  0.12610639221E+04  0.10000000000E+02 0. -1.
</event>
<event>
 5    1  0.1338054E-008  0.3808606E+03  0.7957747E-01  0.3447420E+00
         13   -1    0    0    0    0  0.00000000000E+00  0.00000000000E+00  0.14999999963E+04  0.15000000000E+04  0.10566000000E+00 0.  1.
        994   -1    0    0    0    0 -0.00000000000E+00 -0.00000000000E+00  0.11368683772E-12  0.17120000000E+03  0.17120000000E+03 0.  0.
         13    1    1    2    0    0  0.15002109248E+02  0.10010591422E+02  0.43724479901E+02  0.47298166235E+02  0.10566000000E+00 0.  1.
        994    1    1    2    0    0 -0.50319202829E+01 -0.12709129698E+01  0.37891726231E+01  0.17132055706E+03  0.17120000000E+03 0.  0.
        998    1    1    2    0    0 -0.99701889648E+01 -0.87396784527E+01  0.14524863438E+04  0.14525812767E+04  0.10000000000E+02 0.  1.
</event>
<event>
 5    1  0.1338054E-008  0.3840955E+03  0.7957747E-01  0.3433518E+00
         13   -1    0    0    0    0  0.00000000000E+00  0.00000000000E+00  0.14999999963E+04  0.15000000000E+04  0.10566000000E+00 0.  1.
        994   -1    0    0    0    0 -0.00000000000E+00 -0.00000000000E+00  0.11368683772E-12  0.17120000000E+03  0.17120000000E+03 0.  0.
         13    1    1    2    0    0 -0.18949883363E+02 -0.12483467167E+02  0.13523619411E+03  0.13712685512E+03  0.10566000000E+00 0.  1.
        994    1    1    2    0    0  0.14706173146E+00  0.52152579095E+01  0.21696791489E+01  0.17129322243E+03  0.17120000000E+03 0.  0.
        998    1    1    2    0    0  0.18802821632E+02  0.72682092573E+01  0.13625941230E+04  0.13627799225E+04  0.10000000000E+02 0.  1.
</event>
<event>
 5    1  0.1338054E-008  0.3809630E+03  0.7957747E-01  0.3446976E+00
         13   -1    0    0    0    0  0.00000000000E+00  0.00000000000E+00  0.14999999963E+04  0.15000000000E+04  0.10566000000E+00 0.  1.
        994   -1    0    0    0    0 -0.00000000000E+00 -0.00000000000E+00  0.11368683772E-12  0.17120000000E+03  0.17120000000E+03 0.  0.
         13    1    1    2    0    0 -0.15196347184E+02  0.12761945585E+01  0.31012733652E+02  0.34559491503E+02  0.10566000000E+00 0.  1.
        994    1    1    2    0    0  0.43323430388E+01 -0.72957553671E+01  0.38877510957E+01  0.17145422669E+03  0.17120000000E+03 0.  0.
        998    1    1    2    0    0  0.10864004145E+02  0.60195608087E+01  0.14650995115E+04  0.14651862818E+04  0.10000000000E+02 0.  1.
</event>
<event>
 5    1  0.1338054E-008  0.3827767E+03  0.7957747E-01  0.3439156E+00
         13   -1    0    0    0    0  0.00000000000E+00  0.00000000000E+00  0.14999999963E+04  0.15000000000E+04  0.10566000000E+00 0.  1.
        994   -1    0    0    0    0 -0.00000000000E+00 -0.00000000000E+00  0.11368683772E-12  0.17120000000E+03  0.17120000000E+03 0.  0.
         13    1    1    2    0    0 -0.10157775832E+02  0.11811155179E+02  0.40644021976E+02  0.43527364760E+02  0.10566000000E+00 0.  1.
        994    1    1    2    0    0  0.95448759629E+01 -0.27291270049E+02  0.55119249466E+01  0.17371165590E+03  0.17120000000E+03 0.  0.
        998    1    1    2    0    0  0.61289986925E+00  0.15480114869E+02  0.14538440494E+04  0.14539609793E+04  0.10000000000E+02 0.  1.
</event>
<event>
 5    1  0.1338054E-008  0.3691437E+03  0.7957747E-01  0.3499836E+00
         13   -1    0    0    0    0  0.00000000000E+00  0.00000000000E+00  0.14999999963E+04  0.15000000000E+04  0.10566000000E+00 0.  1.
        994   -1    0    0    0    0 -0.00000000000E+00 -0.00000000000E+00  0.11368683772E-12  0.17120000000E+03  0.17120000000E+03 0.  0.
         13    1    1    2    0    0 -0.80140996140E+02  0.33557393685E+02  0.31402370319E+03  0.32582138552E+03  0.10566000000E+00 0.  1.
        994    1    1    2    0    0  0.77160653220E+02 -0.27375315024E+02  0.33337365900E+02  0.19267587873E+03  0.17120000000E+03 0.  0.
        998    1    1    2    0    0  0.29803429197E+01 -0.61820786607E+01  0.11526389272E+04  0.11527027358E+04  0.10000000000E+02 0.  0.
</event>
<event>
 5    1  0.1338054E-008  0.3818270E+03  0.7957747E-01  0.3443242E+00
         13   -1    0    0    0    0  0.00000000000E+00  0.00000000000E+00  0.14999999963E+04  0.15000000000E+04  0.10566000000E+00 0. -1.
        994   -1    0    0    0    0 -0.00000000000E+00 -0.00000000000E+00  0.11368683772E-12  0.17120000000E+03  0.17120000000E+03 0.  0.
         13    1    1    2    0    0 -0.25242477224E+02 -0.37942013043E+01  0.94651394878E+02  0.98033036964E+02  0.10566000000E+00 0. -1.
        994    1    1    2    0    0  0.26891707866E+02 -0.24130221929E+01  0.56398046252E+01  0.17340771039E+03  0.17120000000E+03 0.  0.
        998    1    1    2    0    0 -0.16492306417E+01  0.62072234972E+01  0.13997087968E+04  0.13997592526E+04  0.10000000000E+02 0. -1.
</event>
<event>
 5    1  0.3041685E-008  0.3864616E+03  0.7957747E-01  0.3423497E+00
         13   -1    0    0    0    0  0.00000000000E+00  0.00000000000E+00  0.14999999963E+04  0.15000000000E+04  0.10566000000E+00 0. -1.
        994   -1    0    0    0    0 -0.00000000000E+00 -0.00000000000E+00  0.11368683772E-12  0.17120000000E+03  0.17120000000E+03 0.  0.
         13    1    1    2    0    0  0.38425722983E+01 -0.93450864704E+01  0.58116917898E+02  0.58988840580E+02  0.10566000000E+00 0. -1.
        994    1    1    2    0    0 -0.51914538314E+01  0.38344300254E+01  0.10425718759E+01  0.17132478222E+03  0.17120000000E+03 0.  0.
        998    1    1    2    0    0  0.13488815331E+01  0.55106564450E+01  0.14408405065E+04  0.14408863772E+04  0.10000000000E+02 0. -1.
</event>
<event>
 5    1  0.1338054E-008  0.3985590E+03  0.7957747E-01  0.3374126E+00
         13   -1    0    0    0    0  0.00000000000E+00  0.00000000000E+00  0.14999999963E+04  0.15000000000E+04  0.10566000000E+00 0.  1.
        994   -1    0    0    0    0 -0.00000000000E+00 -0.00000000000E+00  0.11368683772E-12  0.17120000000E+03  0.17120000000E+03 0.  0.
         13    1    1    2    0    0 -0.93242917805E+00 -0.12685966195E+02 -0.89393231051E+01  0.15547534341E+02  0.10566000000E+00 0.  1.
        994    1    1    2    0    0 -0.66404900119E+01 -0.38979725896E+02  0.33028480029E+02  0.17878432714E+03  0.17120000000E+03 0.  0.
        998    1    1    2    0    0  0.75729191900E+01  0.51665692091E+02  0.14759108394E+04  0.14768681385E+04  0.10000000000E+02 0.  1.
</event>
<event>
 5    1  0.1338054E-008  0.3828413E+03  0.7957747E-01  0.3438879E+00
         13   -1    0    0    0    0  0.00000000000E+00  0.00000000000E+00  0.14999999963E+04  0.15000000000E+04  0.10566000000E+00 0.  1.
        994   -1    0    0    0    0 -0.00000000000E+00 -0.00000000000E+00  0.11368683772E-12  0.17120000000E+03  0.17120000000E+03 0.  0.
         13    1    1    2    0    0 -0.31416505594E+02 -0.30669710888E+02  0.26197882250E+03  0.26563234478E+03  0.10566000000E+00 0.  1.
        994    1    1    2    0    0  0.43481226661E+02  0.35631858873E+02  0.13243281482E+02  0.18067947018E+03  0.17120000000E+03 0.  0.
        998    1    1    2    0    0 -0.12064721066E+02 -0.49621479853E+01  0.12247778923E+04  0.12248881850E+04  0.10000000000E+02 0.  1.
</event>
<event>
 5    1  0.1338054E-008  0.3720057E+03  0.7957747E-01  0.3486724E+00
         13   -1    0    0    0    0  0.00000000000E+00  0.00000000000E+00  0.14999999963E+04  0.15000000000E+04  0.10566000000E+00 0. -1.
        994   -1    0    0    0    0 -0.00000000000E+00 -0.00000000000E+00  0.11368683772E-12  0.17120000000E+03  0.17120000000E+03 0.  0.
         13    1    1    2    0    0 -0.19725632346E+02 -0.33387125541E+02  0.86931743342E+02  0.95188969360E+02  0.10566000000E+00 0. -1.
        994    1    1    2    0    0 -0.71437905840E+02  0.77666441765E+02  0.47489554481E+02  0.20664014216E+03  0.17120000000E+03 0.  0.
        998    1    1    2    0    0  0.91163538187E+02 -0.44279316224E+02  0.13655786985E+04  0.13693708885E+04  0.10000000000E+02 0. -1.
</event>
<event>
 5    1  0.1338054E-008  0.3835096E+03  0.7957747E-01  0.3436018E+00
         13   -1    0    0    0    0  0.00000000000E+00  0.00000000000E+00  0.14999999963E+04  0.15000000000E+04  0.10566000000E+00 0.  1.
        994   -1    0    0    0    0 -0.00000000000E+00 -0.00000000000E+00  0.11368683772E-12  0.17120000000E+03  0.17120000000E+03 0.  0.
         13    1    1    2    0    0  0.11310773536E+02  0.25721273316E+02  0.15711738744E+03  0.15961015663E+03  0.10566000000E+00 0.  1.
        994    1    1    2    0    0 -0.19033309954E+02 -0.17252064151E+02  0.45556856191E+01  0.17317648477E+03  0.17120000000E+03 0.  0.
        998    1    1    2    0    0  0.77225364181E+01 -0.84692091659E+01  0.13383269232E+04  0.13384133586E+04  0.10000000000E+02 0.  1.
</event>
<event>
 5    1  0.1338054E-008  0.3759702E+03  0.7957747E-01  0.3468895E+00
         13   -1    0    0    0    0  0.00000000000E+00  0.00000000000E+00  0.14999999963E+04  0.15000000000E+04  0.10566000000E+00 0.  1.
        994   -1    0    0    0    0 -0.00000000000E+00 -0.00000000000E+00  0.11368683772E-12  0.17120000000E+03  0.17120000000E+03 0.  0.
         13    1    1    2    0    0 -0.70339477613E+02  0.60619439161E+02  0.46316785107E+03  0.47238419527E+03  0.10566000000E+00 0.  1.
        994    1    1    2    0    0  0.71974956370E+02 -0.62023299717E+02  0.37407761700E+02  0.19933906965E+03  0.17120000000E+03 0.  0.
        998    1    1    2    0    0 -0.16354787572E+01  0.14038605561E+01  0.99942438351E+03  0.99947673508E+03  0.10000000000E+02 0. -1.
</event>
<event>
 5    1  0.1338054E-008  0.3794312E+03  0.7957747E-01  0.3453639E+00
         13   -1    0    0    0    0  0.00000000000E+00  0.00000000000E+00  0.14999999963E+04  0.15000000000E+04  0.10566000000E+00 0. -1.
        994   -1    0    0    0    0 -0.00000000000E+00 -0.00000000000E+00  0.11368683772E-12  0.17120000000E+03  0.17120000000E+03 0.  0.
         13    1    1    2    0    0  0.20721073382E+02 -0.10830612014E+02  0.10004699738E+02  0.25431677483E+02  0.10566000000E+00 0. -1.
        994    1    1    2    0    0 -0.19424532047E+02  0.12089213612E+02  0.17910187527E+02  0.17364813949E+03  0.17120000000E+03 0.  0.
        998    1    1    2    0    0 -0.12965413354E+01 -0.12586015974E+01  0.14720851090E+04  0.14721201830E+04  0.10000000000E+02 0. -1.
</event>
<event>
 5    1  0.1338054E-008  0.3780783E+03  0.7957747E-01  0.3459569E+00
         13   -1    0    0    0    0  0.00000000000E+00  0.00000000000E+00  0.14999999963E+04  0.15000000000E+04  0.10566000000E+00 0. -1.
        994   -1    0    0    0    0 -0.00000000000E+00 -0.00000000000E+00  0.11368683772E-12  0.17120000000E+03  0.17120000000E+03 0.  0.
         13    1    1    2    0    0 -0.53612434068E+02  0.26260150730E+02  0.16752983453E+03  0.17784865820E+03  0.10566000000E+00 0. -1.
        994    1    1    2    0    0 -0.71264698842E+02 -0.59875367946E+01  0.33916823879E+02  0.18861150241E+03  0.17120000000E+03 0.  0.
        998    1    1    2    0    0  0.12487713291E+03 -0.20272613936E+02  0.12985533379E+04  0.13047398394E+04  0.10000000000E+02 0. -1.
</event>
<event>
 5    1  0.1338054E-008  0.3768184E+03  0.7957747E-01  0.3465130E+00
         13   -1    0    0    0    0  0.00000000000E+00  0.00000000000E+00  0.14999999963E+04  0.15000000000E+04  0.10566000000E+00 0. -1.
        994   -1    0    0    0    0 -0.00000000000E+00 -0.00000000000E+00  0.11368683772E-12  0.17120000000E+03  0.17120000000E+03 0.  0.
         13    1    1    2    0    0 -0.17139102625E+02  0.46579661855E+02  0.24800316976E+03  0.25292093055E+03  0.10566000000E+00 0. -1.
        994    1    1    2    0    0  0.11483900377E+02 -0.38793447204E+01  0.62444349979E+01  0.17174213884E+03  0.17120000000E+03 0.  0.
        998    1    1    2    0    0  0.56552022476E+01 -0.42700317135E+02  0.12457523915E+04  0.12465369306E+04  0.10000000000E+02 0. -1.
</event>
<event>
 5    1  0.1338054E-008  0.3822235E+03  0.7957747E-01  0.3441534E+00
         13   -1    0    0    0    0  0.00000000000E+00  0.00000000000E+00  0.14999999963E+04  0.15000000000E+04  0.10566000000E+00 0.  1.
        994   -1    0    0    0    0 -0.00000000000E+00 -0.00000000000E+00  0.11368683772E-12  0.17120000000E+03  0.17120000000E+03 0.  0.
         13    1    1    2    0    0  0.22677809285E+02 -0.20896852694E+02  0.13570395873E+03  0.13916370600E+03  0.10566000000E+00 0.  1.
        994    1    1    2    0    0 -0.45123732340E+02  0.10575769478E+02  0.10176144122E+02  0.17765413598E+03  0.17120000000E+03 0.  0.
        998    1    1    2    0    0  0.22445923055E+02  0.10321083216E+02  0.13541198934E+04  0.13543821580E+04  0.10000000000E+02 0. -1.
</event>
<event>
 5    1  0.1338054E-008  0.3951730E+03  0.7957747E-01  0.3387641E+00
         13   -1    0    0    0    0  0.00000000000E+00  0.00000000000E+00  0.14999999963E+04  0.15000000000E+04  0.10566000000E+00 0. -1.
        994   -1    0    0    0    0 -0.00000000000E+00 -0.00000000000E+00  0.11368683772E-12  0.17120000000E+03  0.17120000000E+03 0.  0.
         13    1    1    2    0    0  0.53864540577E+02  0.40433397801E+01  0.48562596632E+02  0.72636590530E+02  0.10566000000E+00 0. -1.
        994    1    1    2    0    0 -0.50029554857E+02 -0.27990108919E+01  0.34627051326E+02  0.18171203456E+03  0.17120000000E+03 0.  0.
        998    1    1    2    0    0 -0.38349857205E+01 -0.12443288882E+01  0.14168103483E+04  0.14168513749E+04  0.10000000000E+02 0. -1.
</event>
<event>
 5    1  0.1338054E-008  0.3747180E+03  0.7957747E-01  0.3474485E+00
         13   -1    0    0    0    0  0.00000000000E+00  0.00000000000E+00  0.14999999963E+04  0.15000000000E+04  0.10566000000E+00 0. -1.
        994   -1    0    0    0    0 -0.00000000000E+00 -0.00000000000E+00  0.11368683772E-12  0.17120000000E+03  0.17120000000E+03 0.  0.
         13    1    1    2    0    0  0.26044004898E+02  0.75865157133E+02  0.31513264278E+03  0.32518057440E+03  0.10566000000E+00 0. -1.
        994    1    1    2    0    0 -0.93962140281E+01 -0.10349501828E+03  0.44505649888E+02  0.20515774545E+03  0.17120000000E+03 0.  0.
        998    1    1    2    0    0 -0.16647790870E+02  0.27629861147E+02  0.11403617036E+04  0.11408616801E+04  0.10000000000E+02 0. -1.
</event>
<event>
 5    1  0.1338054E-008  0.3844891E+03  0.7957747E-01  0.3431842E+00
         13   -1    0    0    0    0  0.00000000000E+00  0.00000000000E+00  0.14999999963E+04  0.15000000000E+04  0.10566000000E+00 0. -1.
        994   -1    0    0    0    0 -0.00000000000E+00 -0.00000000000E+00  0.11368683772E-12  0.17120000000E+03  0.17120000000E+03 0.  0.
         13    1    1    2    0    0 -0.12872801588E+02 -0.11127715792E+02  0.75198680040E+02  0.77099855534E+02  0.10566000000E+00 0. -1.
        994    1    1    2    0    0  0.95974448379E+01  0.10274436161E+02  0.25354157708E+01  0.17179506197E+03  0.17120000000E+03 0.  0.
        998    1    1    2    0    0  0.32753567506E+01  0.85327963152E+00  0.14222659005E+04  0.14223050825E+04  0.10000000000E+02 0. -1.
</event>
<event>
 5    1  0.1338054E-008  0.3805113E+03  0.7957747E-01  0.3448935E+00
         13   -1    0    0    0    0  0.00000000000E+00  0.00000000000E+00  0.14999999963E+04  0.15000000000E+04  0.10566000000E+00 0. -1.
        994   -1    0    0    0    0 -0.00000000000E+00 -0.00000000000E+00  0.11368683772E-12  0.17120000000E+03  0.17120000000E+03 0.  0.
         13    1    1    2    0    0  0.18509554508E+02  0.17299500605E+02  0.82823589424E+02  0.86611976414E+02  0.10566000000E+00 0. -1.
        994    1    1    2    0    0 -0.81087058286E+01 -0.94003537448E+01  0.43897823875E+01  0.17170564333E+03  0.17120000000E+03 0.  0.
        998    1    1    2    0    0 -0.10400848679E+02 -0.78991468599E+01  0.14127866245E+04  0.14128823803E+04  0.10000000000E+02 0.  0.
</event>
<event>
 5    1  0.1338054E-008  0.3850079E+03  0.7957747E-01  0.3429639E+00
         13   -1    0    0    0    0  0.00000000000E+00  0.00000000000E+00  0.14999999963E+04  0.15000000000E+04  0.10566000000E+00 0. -1.
        994   -1    0    0    0    0 -0.00000000000E+00 -0.00000000000E+00  0.11368683772E-12  0.17120000000E+03  0.17120000000E+03 0.  0.
         13    1    1    2    0    0 -0.67815092379E+01  0.16397977346E+02  0.94267579302E+02  0.95923251613E+02  0.10566000000E+00 0. -1.
        994    1    1    2    0    0  0.16339695451E+02 -0.96687649486E+01  0.28125243229E+01  0.17227251945E+03  0.17120000000E+03 0.  0.
        998    1    1    2    0    0 -0.95581862129E+01 -0.67292123970E+01  0.14029198927E+04  0.14030042289E+04  0.10000000000E+02 0. -1.
</event>
<event>
 5    1  0.1338054E-008  0.3808868E+03  0.7957747E-01  0.3447306E+00
         13   -1    0    0    0    0  0.00000000000E+00  0.00000000000E+00  0.14999999963E+04  0.15000000000E+04  0.10566000000E+00 0. -1.
        994   -1    0    0    0    0 -0.00000000000E+00 -0.00000000000E+00  0.11368683772E-12  0.17120000000E+03  0.17120000000E+03 0.  0.
         13    1    1    2    0    0 -0.11824409328E+02 -0.13971970670E+02  0.48295967636E+02  0.51648274650E+02  0.10566000000E+00 0. -1.
        994    1    1    2    0    0  0.84686555114E+01 -0.21838285543E+02  0.55169794900E+01  0.17288292543E+03  0.17120000000E+03 0.  0.
        998    1    1    2    0    0  0.33557538165E+01  0.35810256213E+02  0.14461870492E+04  0.14466687999E+04  0.10000000000E+02 0. -1.
</event>
<event>
 5    1  0.1338054E-008  0.3845867E+03  0.7957747E-01  0.3431427E+00
         13   -1    0    0    0    0  0.00000000000E+00  0.00000000000E+00  0.14999999963E+04  0.15000000000E+04  0.10566000000E+00 0.  1.
        994   -1    0    0    0    0 -0.00000000000E+00 -0.00000000000E+00  0.11368683772E-12  0.17120000000E+03  0.17120000000E+03 0.  0.
         13    1    1    2    0    0  0.57881631948E+01 -0.10175329144E+02  0.34978288069E+02  0.36885389474E+02  0.10566000000E+00 0.  1.
        994    1    1    2    0    0 -0.34368908949E+02  0.45405258839E+01  0.58032553054E+01  0.17477115337E+03  0.17120000000E+03 0.  0.
        998    1    1    2    0    0  0.28580745754E+02  0.56348032603E+01  0.14592184529E+04  0.14595434572E+04  0.10000000000E+02 0.  1.
</event>
<event>
 5    1  0.1338054E-008  0.3850228E+03  0.7957747E-01  0.3429576E+00
         13   -1    0    0    0    0  0.00000000000E+00  0.00000000000E+00  0.14999999963E+04  0.15000000000E+04  0.10566000000E+00 0.  1.
        994   -1    0    0    0    0 -0.00000000000E+00 -0.00000000000E+00  0.11368683772E-12  0.17120000000E+03  0.17120000000E+03 0.  0.
         13    1    1    2    0    0 -0.66627381093E+01 -0.10690200646E+02  0.48257691320E+02  0.49874727113E+02  0.10566000000E+00 0.  1.
        994    1    1    2    0    0  0.85815267933E+01  0.76871585156E+01  0.20554352986E+01  0.17159953328E+03  0.17120000000E+03 0.  0.
        998    1    1    2    0    0 -0.19187886841E+01  0.30030421301E+01  0.14496868697E+04  0.14497257396E+04  0.10000000000E+02 0.  1.
</event>
<event>
 5    1  0.1338054E-008  0.3771127E+03  0.7957747E-01  0.3463828E+00
         13   -1    0    0    0    0  0.00000000000E+00  0.00000000000E+00  0.14999999963E+04  0.15000000000E+04  0.10566000000E+00 0. -1.
        994   -1    0    0    0    0 -0.00000000000E+00 -0.00000000000E+00  0.11368683772E-12  0.17120000000E+03  0.17120000000E+03 0.  0.
         13    1    1    2    0    0 -0.43340236081E+02  0.18351472802E+01  0.15235697213E+03  0.15841212690E+03  0.10566000000E+00 0. -1.
        994    1    1    2    0    0  0.41243378341E+02  0.85952959338E+00  0.11363117819E+02  0.17646618796E+03  0.17120000000E+03 0.  0.
        998    1    1    2    0    0  0.20968577396E+01 -0.26946768736E+01  0.13362799063E+04  0.13363216851E+04  0.10000000000E+02 0. -1.
</event>
<event>
 5    1  0.1338054E-008  0.3806956E+03  0.7957747E-01  0.3448135E+00
         13   -1    0    0    0    0  0.00000000000E+00  0.00000000000E+00  0.14999999963E+04  0.15000000000E+04  0.10566000000E+00 0. -1.
        994   -1    0    0    0    0 -0.00000000000E+00 -0.00000000000E+00  0.11368683772E-12  0.17120000000E+03  0.17120000000E+03 0.  0.
         13    1    1    2    0    0  0.43022464136E+02  0.23432065751E+02  0.27577444690E+03  0.28009203997E+03  0.10566000000E+00 0. -1.
        994    1    1    2    0    0 -0.37895984863E+02 -0.20238043782E+02  0.99628798418E+01  0.17678909203E+03  0.17120000000E+03 0.  0.
        998    1    1    2    0    0 -0.51264792737E+01 -0.31940219689E+01  0.12142626695E+04  0.12143188680E+04  0.10000000000E+02 0. -1.
</event>
<event>
 5    1  0.1338054E-008  0.3846958E+03  0.7957747E-01  0.3430963E+00
         13   -1    0    0    0    0  0.00000000000E+00  0.00000000000E+00  0.14999999963E+04  0.15000000000E+04  0.10566000000E+00 0.  1.
        994   -1    0    0    0    0 -0.00000000000E+00 -0.00000000000E+00  0.11368683772E-12  0.17120000000E+03  0.17120000000E+03 0.  0.
         13    1    1    2    0    0 -0.11135115919E+02  0.72634558977E+00  0.34872002134E+02  0.36614014821E+02  0.10566000000E+00 0.  1.
        994    1    1    2    0    0  0.57682086710E+01 -0.64159622035E+01  0.20263234953E+01  0.17142923551E+03  0.17120000000E+03 0.  0.
        998    1    1    2    0    0  0.53669072484E+01  0.56896166137E+01  0.14631016706E+04  0.14631567497E+04  0.10000000000E+02 0.  1.
</event>
<event>
 5    1  0.1338054E-008  0.3787248E+03  0.7957747E-01  0.3456730E+00
         13   -1    0    0    0    0  0.00000000000E+00  0.00000000000E+00  0.14999999963E+04  0.15000000000E+04  0.10566000000E+00 0. -1.
        994   -1    0    0    0    0 -0.00000000000E+00 -0.00000000000E+00  0.11368683772E-12  0.17120000000E+03  0.17120000000E+03 0.  0.
         13    1    1    2    0    0  0.22489422353E+01 -0.25019078743E+02  0.61834437269E+02  0.66742196838E+02  0.10566000000E+00 0. -1.
        994    1    1    2    0    0 -0.32354720549E+01  0.25731633264E+02  0.70394271675E+01  0.17329621682E+03  0.17120000000E+03 0.  0.
        998    1    1    2    0    0  0.98652981960E+00 -0.71255452067E+00  0.14311261318E+04  0.14311615863E+04  0.10000000000E+02 0. -1.
</event>
<event>
 5    1  0.1338054E-008  0.3704460E+03  0.7957747E-01  0.3493844E+00
         13   -1    0    0    0    0  0.00000000000E+00  0.00000000000E+00  0.14999999963E+04  0.15000000000E+04  0.10566000000E+00 0.  1.
        994   -1    0    0    0    0 -0.00000000000E+00 -0.00000000000E+00  0.11368683772E-12  0.17120000000E+03  0.17120000000E+03 0.  0.
         13    1    1    2    0    0 -0.72823219998E+02 -0.44566873213E+02  0.51164622350E+03  0.51872082736E+03  0.10566000000E+00 0.  1.
        994    1    1    2    0    0  0.13820594557E+02  0.25410122654E+02  0.11930096883E+02  0.17403577327E+03  0.17120000000E+03 0.  0.
        998    1    1    2    0    0  0.59002625441E+02  0.19156750558E+02  0.97642367590E+03  0.97844339936E+03  0.10000000000E+02 0. -1.
</event>
<event>
 5    1  0.1338054E-008  0.3832346E+03  0.7957747E-01  0.3437194E+00
         13   -1    0    0    0    0  0.00000000000E+00  0.00000000000E+00  0.14999999963E+04  0.15000000000E+04  0.10566000000E+00 0.  1.
        994   -1    0    0    0    0 -0.00000000000E+00 -0.00000000000E+00  0.11368683772E-12  0.17120000000E+03  0.17120000000E+03 0.  0.
         13    1    1    2    0    0  0.14354676657E+02 -0.43192915022E+01  0.47309347553E+02  0.49627598682E+02  0.10566000000E+00 0.  1.
        994    1    1    2    0    0  0.60450197152E+01 -0.16917626809E+00  0.26301203333E+01  0.17132696348E+03  0.17120000000E+03 0.  0.
        998    1    1    2    0    0 -0.20399696372E+02  0.44884677703E+01  0.14500605284E+04  0.14502454378E+04  0.10000000000E+02 0.  1.
</event>
<event>
 5    1  0.1338054E-008  0.3780469E+03  0.7957747E-01  0.3459707E+00
         13   -1    0    0    0    0  0.00000000000E+00  0.00000000000E+00  0.14999999963E+04  0.15000000000E+04  0.10566000000E+00 0.  1.
        994   -1    0    0    0    0 -0.00000000000E+00 -0.00000000000E+00  0.11368683772E-12  0.17120000000E+03  0.17120000000E+03 0.  0.
         13    1    1    2    0    0 -0.14737090552E+02  0.23759955615E+02  0.72173899513E+02  0.77400260101E+02  0.10566000000E+00 0.  1.
        994    1    1    2    0    0  0.13787787117E+02 -0.21062938882E+02  0.72575680976E+01  0.17319313717E+03  0.17120000000E+03 0.  0.
        998    1    1    2    0    0  0.94930343482E+00 -0.26970167323E+01  0.14205685287E+04  0.14206066027E+04  0.10000000000E+02 0.  1.
</event>
<event>
 5    1  0.1338054E-008  0.3811474E+03  0.7957747E-01  0.3446178E+00
         13   -1    0    0    0    0  0.00000000000E+00  0.00000000000E+00  0.14999999963E+04  0.15000000000E+04  0.10566000000E+00 0.  1.
        994   -1    0    0    0    0 -0.00000000000E+00 -0.00000000000E+00  0.11368683772E-12  0.17120000000E+03  0.17120000000E+03 0.  0.
         13    1    1    2    0    0 -0.64798888432E+02 -0.36625544686E+02  0.17281963730E+03  0.18816738470E+03  0.10566000000E+00 0.  1.
        994    1    1    2    0    0  0.33334432094E+02 -0.91886641377E+01  0.21321808723E+02  0.17595361729E+03  0.17120000000E+03 0.  0.
        998    1    1    2    0    0  0.31464456338E+02  0.45814208824E+02  0.13058585503E+04  0.13070789980E+04  0.10000000000E+02 0.  1.
</event>
<event>
 5    1  0.1338054E-008  0.3788913E+03  0.7957747E-01  0.3456000E+00
         13   -1    0    0    0    0  0.00000000000E+00  0.00000000000E+00  0.14999999963E+04  0.15000000000E+04  0.10566000000E+00 0.  1.
        994   -1    0    0    0    0 -0.00000000000E+00 -0.00000000000E+00  0.11368683772E-12  0.17120000000E+03  0.17120000000E+03 0.  0.
         13    1    1    2    0    0  0.10149564836E+02  0.16994824760E+02  0.36075673591E+02  0.41149764569E+02  0.10566000000E+00 0.  1.
        994    1    1    2    0    0 -0.37252960819E+02 -0.29998840718E+02  0.12408219963E+02  0.17818843244E+03  0.17120000000E+03 0.  0.
        998    1    1    2    0    0  0.27103395983E+02  0.13004015957E+02  0.14515161027E+04  0.14518618030E+04  0.10000000000E+02 0.  1.
</event>
<event>
 5    1  0.1338054E-008  0.3852528E+03  0.7957747E-01  0.3428601E+00
         13   -1    0    0    0    0  0.00000000000E+00  0.00000000000E+00  0.14999999963E+04  0.15000000000E+04  0.10566000000E+00 0.  1.
        994   -1    0    0    0    0 -0.00000000000E+00 -0.00000000000E+00  0.11368683772E-12  0.17120000000E+03  0.17120000000E+03 0.  0.
         13    1    1    2    0    0 -0.75596946692E+01 -0.15532089197E+02  0.10114669505E+03  0.10261120730E+03  0.10566000000E+00 0.  1.
        994    1    1    2    0    0  0.11487497572E+01  0.94172228193E+01  0.18005015572E+01  0.17147211294E+03  0.17120000000E+03 0.  0.
        998    1    1    2    0    0  0.64109449120E+01  0.61148663779E+01  0.13970527997E+04  0.13971166798E+04  0.10000000000E+02 0.  1.
</event>
<event>
 5    1  0.1338054E-008  0.3709279E+03  0.7957747E-01  0.3491637E+00
         13   -1    0    0    0    0  0.00000000000E+00  0.00000000000E+00  0.14999999963E+04  0.15000000000E+04  0.10566000000E+00 0. -1.
        994   -1    0    0    0    0 -0.00000000000E+00 -0.00000000000E+00  0.11368683772E-12  0.17120000000E+03  0.17120000000E+03 0.  0.
         13    1    1    2    0    0 -0.78477670515E+01 -0.93380340385E+01  0.42899016060E+01  0.12930612794E+02  0.10566000000E+00 0. -1.
        994    1    1    2    0    0  0.15069323085E+02  0.12524838432E+02  0.10109338262E+02  0.17261400521E+03  0.17120000000E+03 0.  0.
        998    1    1    2    0    0 -0.72215560337E+01 -0.31868043934E+01  0.14856007564E+04  0.14856553820E+04  0.10000000000E+02 0. -1.
</event>
<event>
 5    1  0.1338054E-008  0.3736755E+03  0.7957747E-01  0.3479168E+00
         13   -1    0    0    0    0  0.00000000000E+00  0.00000000000E+00  0.14999999963E+04  0.15000000000E+04  0.10566000000E+00 0. -1.
        994   -1    0    0    0    0 -0.00000000000E+00 -0.00000000000E+00  0.11368683772E-12  0.17120000000E+03  0.17120000000E+03 0.  0.
         13    1    1    2    0    0 -0.57508887234E+02 -0.59012400444E+02  0.32070149392E+03  0.33111809809E+03  0.10566000000E+00 0. -1.
        994    1    1    2    0    0  0.89623825882E+01  0.10461072089E+02  0.13567957969E+02  0.17228838560E+03  0.17120000000E+03 0.  0.
        998    1    1    2    0    0  0.48546504646E+02  0.48551328354E+02  0.11657305444E+04  0.11677935163E+04  0.10000000000E+02 0. -1.
</event>
<event>
 5    1  0.1338054E-008  0.4034784E+03  0.7957747E-01  0.3354894E+00
         13   -1    0    0    0    0  0.00000000000E+00  0.00000000000E+00  0.14999999963E+04  0.15000000000E+04  0.10566000000E+00 0.  1.
        994   -1    0    0    0    0 -0.00000000000E+00 -0.00000000000E+00  0.11368683772E-12  0.17120000000E+03  0.17120000000E+03 0.  0.
         13    1    1    2    0    0 -0.56321045001E+02  0.10210479669E+03  0.19298688257E+03  0.22548037082E+03  0.10566000000E+00 0.  1.
        994    1    1    2    0    0  0.53021019152E+02 -0.98057568074E+02  0.81176011555E+02  0.21983061657E+03  0.17120000000E+03 0.  0.
        998    1    1    2    0    0  0.33000258486E+01 -0.40472286117E+01  0.12258371022E+04  0.12258890126E+04  0.10000000000E+02 0.  1.
</event>
<event>
 5    1  0.1338054E-008  0.3789373E+03  0.7957747E-01  0.3455799E+00
         13   -1    0    0    0    0  0.00000000000E+00  0.00000000000E+00  0.14999999963E+04  0.15000000000E+04  0.10566000000E+00 0.  1.
        994   -1    0    0    0    0 -0.00000000000E+00 -0.00000000000E+00  0.11368683772E-12  0.17120000000E+03  0.17120000000E+03 0.  0.
         13    1    1    2    0    0  0.69477480285E+02 -0.15586343801E+02  0.37340861900E+03  0.38013689940E+03  0.10566000000E+00 0.  1.
        994    1    1    2    0    0 -0.76547485273E+02  0.21712440353E+02  0.26210965115E+02  0.19059748755E+03  0.17120000000E+03 0.  0.
        998    1    1    2    0    0  0.70700049883E+01 -0.61260965521E+01  0.11003804122E+04  0.11004656131E+04  0.10000000000E+02 0.  1.
</event>
<event>
 5    1  0.1338054E-008  0.3737179E+03  0.7957747E-01  0.3478977E+00
         13   -1    0    0    0    0  0.00000000000E+00  0.00000000000E+00  0.14999999963E+04  0.15000000000E+04  0.10566000000E+00 0. -1.
        994   -1    0    0    0    0 -0.00000000000E+00 -0.00000000000E+00  0.11368683772E-12  0.17120000000E+03  0.17120000000E+03 0.  0.
         13    1    1    2    0    0 -0.30594886141E+02 -0.61228897700E+02  0.25703889553E+03  0.26599629688E+03  0.10566000000E+00 0. -1.
        994    1    1    2    0    0 -0.32352359588E+02  0.10335212605E+03  0.48501148050E+02  0.20830299684E+03  0.17120000000E+03 0.  0.
        998    1    1    2    0    0  0.62947245729E+02 -0.42123228348E+02  0.11944599527E+04  0.11969007063E+04  0.10000000000E+02 0. -1.
</event>
<event>
 5    1  0.1338054E-008  0.3844356E+03  0.7957747E-01  0.3432069E+00
         13   -1    0    0    0    0  0.00000000000E+00  0.00000000000E+00  0.14999999963E+04  0.15000000000E+04  0.10566000000E+00 0.  1.
        994   -1    0    0    0    0 -0.00000000000E+00 -0.00000000000E+00  0.11368683772E-12  0.17120000000E+03  0.17120000000E+03 0.  0.
         13    1    1    2    0    0  0.75960984083E+01 -0.67109559528E+01  0.25842803137E+02  0.27759670006E+02  0.10566000000E+00 0.  1.
        994    1    1    2    0    0 -0.70821829346E+01  0.10874901565E+02  0.24657004304E+01  0.17170888293E+03  0.17120000000E+03 0.  0.
        998    1    1    2    0    0 -0.51391547375E+00 -0.41639456123E+01  0.14716914927E+04  0.14717314471E+04  0.10000000000E+02 0.  1.
</event>
<event>
 5    1  0.1338054E-008  0.4375729E+03  0.7957747E-01  0.3233332E+00
         13   -1    0    0    0    0  0.00000000000E+00  0.00000000000E+00  0.14999999963E+04  0.15000000000E+04  0.10566000000E+00 0. -1.
        994   -1    0    0    0    0 -0.00000000000E+00 -0.00000000000E+00  0.11368683772E-12  0.17120000000E+03  0.17120000000E+03 0.  0.
         13    1    1    2    0    0 -0.30843147003E+02  0.28494496408E+02 -0.17903685145E+01  0.42029187787E+02  0.10566000000E+00 0. -1.
        994    1    1    2    0    0 -0.21276800878E+02 -0.10321734843E+02  0.55104614511E+02  0.18139790243E+03  0.17120000000E+03 0.  0.
        998    1    1    2    0    0  0.52119947882E+02 -0.18172761565E+02  0.14466857503E+04  0.14477729098E+04  0.10000000000E+02 0. -1.
</event>
<event>
 5    1  0.1338054E-008  0.3756993E+03  0.7957747E-01  0.3470101E+00
         13   -1    0    0    0    0  0.00000000000E+00  0.00000000000E+00  0.14999999963E+04  0.15000000000E+04  0.10566000000E+00 0. -1.
        994   -1    0    0    0    0 -0.00000000000E+00 -0.00000000000E+00  0.11368683772E-12  0.17120000000E+03  0.17120000000E+03 0.  0.
         13    1    1    2    0    0 -0.30171678070E+02 -0.28802646426E+02  0.16221220327E+03  0.16748950013E+03  0.10566000000E+00 0. -1.
        994    1    1    2    0    0 -0.70998017804E+01 -0.33661587279E+01  0.65294843394E+01  0.17150455497E+03  0.17120000000E+03 0.  0.
        998    1    1    2    0    0  0.37271479850E+02  0.32168805154E+02  0.13312583087E+04  0.13322059449E+04  0.10000000000E+02 0. -1.
</event>
<event>
 5    1  0.1338054E-008  0.3827997E+03  0.7957747E-01  0.3439058E+00
         13   -1    0    0    0    0  0.00000000000E+00  0.00000000000E+00  0.14999999963E+04  0.15000000000E+04  0.10566000000E+00 0. -1.
        994   -1    0    0    0    0 -0.00000000000E+00 -0.00000000000E+00  0.11368683772E-12  0.17120000000E+03  0.17120000000E+03 0.  0.
         13    1    1    2    0    0 -0.26347710370E+02 -0.10310529941E+02  0.13804746241E+03  0.14091707459E+03  0.10566000000E+00 0. -1.
        994    1    1    2    0    0  0.26549713671E+02  0.17221776917E+00  0.50648871926E+01  0.17332054130E+03  0.17120000000E+03 0.  0.
        998    1    1    2    0    0 -0.20200330078E+00  0.10138312171E+02  0.13568876467E+04  0.13569623841E+04  0.10000000000E+02 0. -1.
</event>
<event>
 5    1  0.1338054E-008  0.3748293E+03  0.7957747E-01  0.3473986E+00
         13   -1    0    0    0    0  0.00000000000E+00  0.00000000000E+00  0.14999999963E+04  0.15000000000E+04  0.10566000000E+00 0.  1.
        994   -1    0    0    0    0 -0.00000000000E+00 -0.00000000000E+00  0.11368683772E-12  0.17120000000E+03  0.17120000000E+03 0.  0.
         13    1    1    2    0    0 -0.13195911302E+02  0.10151073850E+02  0.17961406557E+02  0.24490807764E+02  0.10566000000E+00 0.  1.
        994    1    1    2    0    0  0.89380597021E+01  0.82601572706E+01  0.72703257885E+01  0.17178596202E+03  0.17120000000E+03 0.  0.
        998    1    1    2    0    0  0.42578515999E+01 -0.18411231121E+02  0.14747682639E+04  0.14749232302E+04  0.10000000000E+02 0.  1.
</event>
<event>
 5    1  0.1338054E-008  0.3834963E+03  0.7957747E-01  0.3436075E+00
         13   -1    0    0    0    0  0.00000000000E+00  0.00000000000E+00  0.14999999963E+04  0.15000000000E+04  0.10566000000E+00 0.  1.
        994   -1    0    0    0    0 -0.00000000000E+00 -0.00000000000E+00  0.11368683772E-12  0.17120000000E+03  0.17120000000E+03 0.  0.
         13    1    1    2    0    0  0.40160117684E+02  0.92151180740E+02  0.22094235290E+03  0.24273485459E+03  0.10566000000E+00 0.  1.
        994    1    1    2    0    0 -0.33339633506E+02 -0.10383150240E+03  0.63346389274E+02  0.21263752511E+03  0.17120000000E+03 0.  0.
        998    1    1    2    0    0 -0.68204841786E+01  0.11680321656E+02  0.12157112541E+04  0.12158276203E+04  0.10000000000E+02 0.  1.
</event>
<event>
 5    1  0.1338054E-008  0.3810291E+03  0.7957747E-01  0.3446690E+00
         13   -1    0    0    0    0  0.00000000000E+00  0.00000000000E+00  0.14999999963E+04  0.15000000000E+04  0.10566000000E+00 0. -1.
        994   -1    0    0    0    0 -0.00000000000E+00 -0.00000000000E+00  0.11368683772E-12  0.17120000000E+03  0.17120000000E+03 0.  0.
         13    1    1    2    0    0  0.10280292625E+02  0.68484689729E+01  0.19743823657E+02  0.23289819243E+02  0.10566000000E+00 0. -1.
        994    1    1    2    0    0 -0.57545980763E+01 -0.32158554252E+01  0.37593723074E+01  0.17136811257E+03  0.17120000000E+03 0.  0.
        998    1    1    2    0    0 -0.45256945490E+01 -0.36326135477E+01  0.14764968003E+04  0.14765420682E+04  0.10000000000E+02 0. -1.
</event>
<event>
 5    1  0.1338054E-008  0.3846547E+03  0.7957747E-01  0.3431138E+00
         13   -1    0    0    0    0  0.00000000000E+00  0.00000000000E+00  0.14999999963E+04  0.15000000000E+04  0.10566000000E+00 0.  1.
        994   -1    0    0    0    0 -0.00000000000E+00 -0.00000000000E+00  0.11368683772E-12  0.17120000000E+03  0.17120000000E+03 0.  0.
         13    1    1    2    0    0 -0.13292497862E+02  0.48702568071E+01  0.54295039333E+02  0.56110358768E+02  0.10566000000E+00 0.  1.
        994    1    1    2    0    0  0.13686406003E+02 -0.84547854722E+00  0.24209685973E+01  0.17176534468E+03  0.17120000000E+03 0.  0.
        998    1    1    2    0    0 -0.39390814112E+00 -0.40247782599E+01  0.14432839883E+04  0.14433242966E+04  0.10000000000E+02 0.  1.
</event>
<event>
 5    1  0.1338054E-008  0.3719439E+03  0.7957747E-01  0.3487004E+00
         13   -1    0    0    0    0  0.00000000000E+00  0.00000000000E+00  0.14999999963E+04  0.15000000000E+04  0.10566000000E+00 0. -1.
        994   -1    0    0    0    0 -0.00000000000E+00 -0.00000000000E+00  0.11368683772E-12  0.17120000000E+03  0.17120000000E+03 0.  0.
         13    1    1    2    0    0 -0.98551382067E+01 -0.36778767230E+01  0.28034529183E+01  0.10886736819E+02  0.10566000000E+00 0. -1.
        994    1    1    2    0    0  0.12982929888E+02  0.31054068719E+01  0.88687971387E+01  0.17194852597E+03  0.17120000000E+03 0.  0.
        998    1    1    2    0    0 -0.31277916809E+01  0.57246985111E+00  0.14883277462E+04  0.14883647372E+04  0.10000000000E+02 0. -1.
</event>
<event>
 5    1  0.1338054E-008  0.3751685E+03  0.7957747E-01  0.3472470E+00
         13   -1    0    0    0    0  0.00000000000E+00  0.00000000000E+00  0.14999999963E+04  0.15000000000E+04  0.10566000000E+00 0.  1.
        994   -1    0    0    0    0 -0.00000000000E+00 -0.00000000000E+00  0.11368683772E-12  0.17120000000E+03  0.17120000000E+03 0.  0.
         13    1    1    2    0    0  0.68948305630E+01  0.51065595927E+02  0.18845169797E+03  0.19536961741E+03  0.10566000000E+00 0.  1.
        994    1    1    2    0    0 -0.88519519629E+01 -0.38724591521E+02  0.11971829794E+02  0.17615537389E+03  0.17120000000E+03 0.  0.
        998    1    1    2    0    0  0.19571213999E+01 -0.12341004406E+02  0.12995764685E+04  0.12996750087E+04  0.10000000000E+02 0.  1.
</event>
<event>
 5    1  0.1338054E-008  0.3807825E+03  0.7957747E-01  0.3447758E+00
         13   -1    0    0    0    0  0.00000000000E+00  0.00000000000E+00  0.14999999963E+04  0.15000000000E+04  0.10566000000E+00 0. -1.
        994   -1    0    0    0    0 -0.00000000000E+00 -0.00000000000E+00  0.11368683772E-12  0.17120000000E+03  0.17120000000E+03 0.  0.
         13    1    1    2    0    0 -0.52105789751E+01  0.10168404339E+02  0.16123082884E+02  0.19761364978E+02  0.10566000000E+00 0. -1.
        994    1    1    2    0    0  0.47384415559E+01 -0.22534427991E+00  0.38136997268E+01  0.17130816651E+03  0.17120000000E+03 0.  0.
        998    1    1    2    0    0  0.47213741910E+00 -0.99430600593E+01  0.14800632137E+04  0.14801304685E+04  0.10000000000E+02 0. -1.
</event>
<event>
 5    1  0.1338054E-008  0.3793368E+03  0.7957747E-01  0.3454051E+00
         13   -1    0    0    0    0  0.00000000000E+00  0.00000000000E+00  0.14999999963E+04  0.15000000000E+04  0.10566000000E+00 0. -1.
        994   -1    0    0    0    0 -0.00000000000E+00 -0.00000000000E+00  0.11368683772E-12  0.17120000000E+03  0.17120000000E+03 0.  0.
         13    1    1    2    0    0  0.10202996734E+02  0.38243212298E+01  0.11494354690E+02  0.15838495162E+02  0.10566000000E+00 0. -1.
        994    1    1    2    0    0  0.64295655673E+01 -0.19208867295E+02  0.58441852472E+01  0.17249323000E+03  0.17120000000E+03 0.  0.
        998    1    1    2    0    0 -0.16632562302E+02  0.15384546066E+02  0.14826614563E+04  0.14828682748E+04  0.10000000000E+02 0. -1.
</event>
<event>
 5    1  0.1338054E-008  0.3851521E+03  0.7957747E-01  0.3429027E+00
         13   -1    0    0    0    0  0.00000000000E+00  0.00000000000E+00  0.14999999963E+04  0.15000000000E+04  0.10566000000E+00 0.  1.
        994   -1    0    0    0    0 -0.00000000000E+00 -0.00000000000E+00  0.11368683772E-12  0.17120000000E+03  0.17120000000E+03 0.  0.
         13    1    1    2    0    0  0.12493821081E+02  0.63538571702E+01  0.61074649103E+02  0.62662516652E+02  0.10566000000E+00 0.  1.
        994    1    1    2    0    0 -0.13329503592E+02 -0.67901681796E+01  0.22905670074E+01  0.17186759074E+03  0.17120000000E+03 0.  0.
        998    1    1    2    0    0  0.83568251103E+00  0.43631100945E+00  0.14366347802E+04  0.14366698926E+04  0.10000000000E+02 0.  1.
</event>
<event>
 5    1  0.1338054E-008  0.3783653E+03  0.7957747E-01  0.3458307E+00
         13   -1    0    0    0    0  0.00000000000E+00  0.00000000000E+00  0.14999999963E+04  0.15000000000E+04  0.10566000000E+00 0.  1.
        994   -1    0    0    0    0 -0.00000000000E+00 -0.00000000000E+00  0.11368683772E-12  0.17120000000E+03  0.17120000000E+03 0.  0.
         13    1    1    2    0    0 -0.14927951047E+02  0.87708603523E+02  0.23719233277E+03  0.25332954179E+03  0.10566000000E+00 0.  1.
        994    1    1    2    0    0  0.78410929638E+01 -0.66047099739E+02  0.31543607759E+02  0.18635488004E+03  0.17120000000E+03 0.  0.
        998    1    1    2    0    0  0.70868580833E+01 -0.21661503784E+02  0.12312640558E+04  0.12315155782E+04  0.10000000000E+02 0.  1.
</event>
<event>
 5    1  0.1338054E-008  0.3817938E+03  0.7957747E-01  0.3443385E+00
         13   -1    0    0    0    0  0.00000000000E+00  0.00000000000E+00  0.14999999963E+04  0.15000000000E+04  0.10566000000E+00 0. -1.
        994   -1    0    0    0    0 -0.00000000000E+00 -0.00000000000E+00  0.11368683772E-12  0.17120000000E+03  0.17120000000E+03 0.  0.
         13    1    1    2    0    0  0.10040483925E+02  0.17106322522E+01  0.14135610786E+02  0.17423094917E+02  0.10566000000E+00 0. -1.
        994    1    1    2    0    0 -0.22182423527E+02 -0.37848985582E+01  0.49149997985E+01  0.17274253267E+03  0.17120000000E+03 0.  0.
        998    1    1    2    0    0  0.12141939602E+02  0.20742663060E+01  0.14809493857E+04  0.14810343724E+04  0.10000000000E+02 0. -1.
</event>
<event>
 5    1  0.1338054E-008  0.4329623E+03  0.7957747E-01  0.3248674E+00
         13   -1    0    0    0    0  0.00000000000E+00  0.00000000000E+00  0.14999999963E+04  0.15000000000E+04  0.10566000000E+00 0.  1.
        994   -1    0    0    0    0 -0.00000000000E+00 -0.00000000000E+00  0.11368683772E-12  0.17120000000E+03  0.17120000000E+03 0.  0.
         13    1    1    2    0    0 -0.11905958931E+03 -0.92888014644E+02  0.26924563487E+03  0.30870146118E+03  0.10566000000E+00 0.  1.
        994    1    1    2    0    0  0.63320031633E+02  0.47393564527E+01  0.67712036883E+02  0.19474662473E+03  0.17120000000E+03 0.  0.
        998    1    1    2    0    0  0.55739557677E+02  0.88148658191E+02  0.11630423245E+04  0.11677519141E+04  0.10000000000E+02 0.  1.
</event>
<event>
 5    1  0.1338054E-008  0.3829545E+03  0.7957747E-01  0.3438394E+00
         13   -1    0    0    0    0  0.00000000000E+00  0.00000000000E+00  0.14999999963E+04  0.15000000000E+04  0.10566000000E+00 0.  1.
        994   -1    0    0    0    0 -0.00000000000E+00 -0.00000000000E+00  0.11368683772E-12  0.17120000000E+03  0.17120000000E+03 0.  0.
         13    1    1    2    0    0 -0.47419668720E+01 -0.97856973491E+01  0.21598232960E+02  0.24181417523E+02  0.10566000000E+00 0.  1.
        994    1    1    2    0    0 -0.76548121457E+00  0.46686266056E+01  0.27232164963E+01  0.17128700460E+03  0.17120000000E+03 0.  0.
        998    1    1    2    0    0  0.55074480865E+01  0.51170707435E+01  0.14756785468E+04  0.14757315779E+04  0.10000000000E+02 0.  1.
</event>
<event>
 5    1  0.1338054E-008  0.3858234E+03  0.7957747E-01  0.3426187E+00
         13   -1    0    0    0    0  0.00000000000E+00  0.00000000000E+00  0.14999999963E+04  0.15000000000E+04  0.10566000000E+00 0. -1.
        994   -1    0    0    0    0 -0.00000000000E+00 -0.00000000000E+00  0.11368683772E-12  0.17120000000E+03  0.17120000000E+03 0.  0.
         13    1    1    2    0    0 -0.31606062524E+01 -0.14378721477E+02  0.86948484604E+02  0.88186094154E+02  0.10566000000E+00 0. -1.
        994    1    1    2    0    0  0.94511648646E+01  0.11295282582E+02  0.19336320409E+01  0.17184320428E+03  0.17120000000E+03 0.  0.
        998    1    1    2    0    0 -0.62905586123E+01  0.30834388950E+01  0.14111178796E+04  0.14111707016E+04  0.10000000000E+02 0. -1.
</event>
<event>
 5    1  0.1338054E-008  0.3832492E+03  0.7957747E-01  0.3437131E+00
         13   -1    0    0    0    0  0.00000000000E+00  0.00000000000E+00  0.14999999963E+04  0.15000000000E+04  0.10566000000E+00 0. -1.
        994   -1    0    0    0    0 -0.00000000000E+00 -0.00000000000E+00  0.11368683772E-12  0.17120000000E+03  0.17120000000E+03 0.  0.
         13    1    1    2    0    0  0.87921343486E+01  0.18246608061E+02  0.83357906997E+02  0.85783402562E+02  0.10566000000E+00 0. -1.
        994    1    1    2    0    0  0.28713466990E+01 -0.11012407424E+02  0.29303478172E+01  0.17160286911E+03  0.17120000000E+03 0.  0.
        998    1    1    2    0    0 -0.11663481048E+02 -0.72342006369E+01  0.14137117415E+04  0.14138137283E+04  0.10000000000E+02 0. -1.
</event>
<event>
 5    1  0.1338054E-008  0.3761708E+03  0.7957747E-01  0.3468003E+00
         13   -1    0    0    0    0  0.00000000000E+00  0.00000000000E+00  0.14999999963E+04  0.15000000000E+04  0.10566000000E+00 0.  1.
        994   -1    0    0    0    0 -0.00000000000E+00 -0.00000000000E+00  0.11368683772E-12  0.17120000000E+03  0.17120000000E+03 0.  0.
         13    1    1    2    0    0  0.26236610852E+02  0.39535712959E+01  0.55482953320E+02  0.61500892255E+02  0.10566000000E+00 0.  1.
        994    1    1    2    0    0 -0.17295842403E+02 -0.41059042049E+01  0.71493895325E+01  0.17226885495E+03  0.17120000000E+03 0.  0.
        998    1    1    2    0    0 -0.89407684498E+01  0.15233290898E+00  0.14373676534E+04  0.14374302528E+04  0.10000000000E+02 0.  1.
</event>
<event>
 5    1  0.1338054E-008  0.3857705E+03  0.7957747E-01  0.3426411E+00
         13   -1    0    0    0    0  0.00000000000E+00  0.00000000000E+00  0.14999999963E+04  0.15000000000E+04  0.10566000000E+00 0. -1.
        994   -1    0    0    0    0 -0.00000000000E+00 -0.00000000000E+00  0.11368683772E-12  0.17120000000E+03  0.17120000000E+03 0.  0.
         13    1    1    2    0    0 -0.69740225534E+01  0.76604824310E+01  0.43065313425E+02  0.44293931481E+02  0.10566000000E+00 0. -1.
        994    1    1    2    0    0  0.26446757724E+01 -0.83979505929E+01  0.15024294804E+01  0.17143283577E+03  0.17120000000E+03 0.  0.
        998    1    1    2    0    0  0.43293467810E+01  0.73746816187E+00  0.14554322534E+04  0.14554732328E+04  0.10000000000E+02 0. -1.
</event>
<event>
 5    1  0.1338054E-008  0.3806037E+03  0.7957747E-01  0.3448534E+00
         13   -1    0    0    0    0  0.00000000000E+00  0.00000000000E+00  0.14999999963E+04  0.15000000000E+04  0.10566000000E+00 0. -1.
        994   -1    0    0    0    0 -0.00000000000E+00 -0.00000000000E+00  0.11368683772E-12  0.17120000000E+03  0.17120000000E+03 0.  0.
         13    1    1    2    0    0 -0.22763143592E+02  0.24694828123E+02  0.15165746281E+03  0.15533187836E+03  0.10566000000E+00 0. -1.
        994    1    1    2    0    0  0.58735576627E+01 -0.13747434503E+02  0.45746987289E+01  0.17191235704E+03  0.17120000000E+03 0.  0.
        998    1    1    2    0    0  0.16889585929E+02 -0.10947393620E+02  0.13437678347E+04  0.13439557646E+04  0.10000000000E+02 0. -1.
</event>
<event>
 5    1  0.1338054E-008  0.3860203E+03  0.7957747E-01  0.3425356E+00
         13   -1    0    0    0    0  0.00000000000E+00  0.00000000000E+00  0.14999999963E+04  0.15000000000E+04  0.10566000000E+00 0. -1.
        994   -1    0    0    0    0 -0.00000000000E+00 -0.00000000000E+00  0.11368683772E-12  0.17120000000E+03  0.17120000000E+03 0.  0.
         13    1    1    2    0    0  0.82997985097E+01 -0.84455909915E+01  0.64884461866E+02  0.65956191659E+02  0.10566000000E+00 0. -1.
        994    1    1    2    0    0  0.10924807496E+02  0.17587953029E+02  0.25308125253E+01  0.17246603295E+03  0.17120000000E+03 0.  0.
        998    1    1    2    0    0 -0.19224606005E+02 -0.91423620378E+01  0.14325847219E+04  0.14327777754E+04  0.10000000000E+02 0. -1.
</event>
<event>
 5    1  0.1338054E-008  0.3818815E+03  0.7957747E-01  0.3443007E+00
         13   -1    0    0    0    0  0.00000000000E+00  0.00000000000E+00  0.14999999963E+04  0.15000000000E+04  0.10566000000E+00 0.  1.
        994   -1    0    0    0    0 -0.00000000000E+00 -0.00000000000E+00  0.11368683772E-12  0.17120000000E+03  0.17120000000E+03 0.  0.
         13    1    1    2    0    0 -0.30182663952E+02  0.55215484245E+01  0.16420997169E+03  0.16705210764E+03  0.10566000000E+00 0.  1.
        994    1    1    2    0    0  0.77590269633E+01  0.20060636021E+02  0.47248597099E+01  0.17261053246E+03  0.17120000000E+03 0.  0.
        998    1    1    2    0    0  0.22423636988E+02 -0.25582184445E+02  0.13310651649E+04  0.13315373599E+04  0.10000000000E+02 0.  1.
</event>
<event>
 5    1  0.1338054E-008  0.3858437E+03  0.7957747E-01  0.3426102E+00
         13   -1    0    0    0    0  0.00000000000E+00  0.00000000000E+00  0.14999999963E+04  0.15000000000E+04  0.10566000000E+00 0. -1.
        994   -1    0    0    0    0 -0.00000000000E+00 -0.00000000000E+00  0.11368683772E-12  0.17120000000E+03  0.17120000000E+03 0.  0.
         13    1    1    2    0    0  0.87018399096E+01  0.97656168431E+01  0.70205157631E+02  0.71413336374E+02  0.10566000000E+00 0. -1.
        994    1    1    2    0    0 -0.36065123083E+01 -0.11033199435E+02  0.16538675645E+01  0.17160103059E+03  0.17120000000E+03 0.  0.
        998    1    1    2    0    0 -0.50953276013E+01  0.12675825918E+01  0.14281409711E+04  0.14281856330E+04  0.10000000000E+02 0. -1.
</event>
<event>
 5    1  0.1338054E-008  0.3808313E+03  0.7957747E-01  0.3447547E+00
         13   -1    0    0    0    0  0.00000000000E+00  0.00000000000E+00  0.14999999963E+04  0.15000000000E+04  0.10566000000E+00 0.  1.
        994   -1    0    0    0    0 -0.00000000000E+00 -0.00000000000E+00  0.11368683772E-12  0.17120000000E+03  0.17120000000E+03 0.  0.
         13    1    1    2    0    0 -0.12203218466E+02  0.23220619041E+01  0.19692379852E+02  0.23283288013E+02  0.10566000000E+00 0.  1.
        994    1    1    2    0    0  0.13038732510E+01  0.48570838995E+01  0.37984104796E+01  0.17131596327E+03  0.17120000000E+03 0.  0.
        998    1    1    2    0    0  0.10899345215E+02 -0.71791458036E+01  0.14765092059E+04  0.14766007487E+04  0.10000000000E+02 0.  1.
</event>
<event>
 5    1  0.1338054E-008  0.3793974E+03  0.7957747E-01  0.3453787E+00
         13   -1    0    0    0    0  0.00000000000E+00  0.00000000000E+00  0.14999999963E+04  0.15000000000E+04  0.10566000000E+00 0. -1.
        994   -1    0    0    0    0 -0.00000000000E+00 -0.00000000000E+00  0.11368683772E-12  0.17120000000E+03  0.17120000000E+03 0.  0.
         13    1    1    2    0    0  0.50364711738E+02  0.79450283503E+02  0.55664617315E+03  0.56453868334E+03  0.10566000000E+00 0. -1.
        994    1    1    2    0    0 -0.43672395943E+02 -0.92703149264E+02  0.40455978107E+02  0.20358604622E+03  0.17120000000E+03 0.  0.
        998    1    1    2    0    0 -0.66923157943E+01  0.13252865761E+02  0.90289784502E+03  0.90307527044E+03  0.10000000000E+02 0. -1.
</event>
<event>
 5    1  0.1338054E-008  0.3686904E+03  0.7957747E-01  0.3501931E+00
         13   -1    0    0    0    0  0.00000000000E+00  0.00000000000E+00  0.14999999963E+04  0.15000000000E+04  0.10566000000E+00 0.  1.
        994   -1    0    0    0    0 -0.00000000000E+00 -0.00000000000E+00  0.11368683772E-12  0.17120000000E+03  0.17120000000E+03 0.  0.
         13    1    1    2    0    0 -0.45030392870E+02 -0.51208375040E+02  0.28650000593E+03  0.29450347794E+03  0.10566000000E+00 0.  1.
        994    1    1    2    0    0 -0.40230184783E+02  0.48711738386E+02  0.23949357756E+02  0.18404975675E+03  0.17120000000E+03 0.  0.
        998    1    1    2    0    0  0.85260577653E+02  0.24966366541E+01  0.11895506326E+04  0.11926467653E+04  0.10000000000E+02 0.  1.
</event>
<event>
 5    1  0.1338054E-008  0.3740308E+03  0.7957747E-01  0.3477569E+00
         13   -1    0    0    0    0  0.00000000000E+00  0.00000000000E+00  0.14999999963E+04  0.15000000000E+04  0.10566000000E+00 0. -1.
        994   -1    0    0    0    0 -0.00000000000E+00 -0.00000000000E+00  0.11368683772E-12  0.17120000000E+03  0.17120000000E+03 0.  0.
         13    1    1    2    0    0  0.36078779789E+02  0.48352654973E+02  0.11825256302E+03  0.13275291869E+03  0.10566000000E+00 0. -1.
        994    1    1    2    0    0 -0.65192310842E+02 -0.43738048916E+02  0.35276751119E+02  0.19161665764E+03  0.17120000000E+03 0.  0.
        998    1    1    2    0    0  0.29113531053E+02 -0.46146060571E+01  0.13464706821E+04  0.13468304237E+04  0.10000000000E+02 0. -1.
</event>
<event>
 5    1  0.1338054E-008  0.3826054E+03  0.7957747E-01  0.3439892E+00
         13   -1    0    0    0    0  0.00000000000E+00  0.00000000000E+00  0.14999999963E+04  0.15000000000E+04  0.10566000000E+00 0.  1.
        994   -1    0    0    0    0 -0.00000000000E+00 -0.00000000000E+00  0.11368683772E-12  0.17120000000E+03  0.17120000000E+03 0.  0.
         13    1    1    2    0    0  0.96263505873E+00 -0.21263880724E+02  0.75801882946E+02  0.78733829526E+02  0.10566000000E+00 0.  1.
        994    1    1    2    0    0 -0.19149786303E+02  0.21597634229E+02  0.55900518586E+01  0.17370624859E+03  0.17120000000E+03 0.  0.
        998    1    1    2    0    0  0.18187151244E+02 -0.33375350542E+00  0.14186080615E+04  0.14187599219E+04  0.10000000000E+02 0.  1.
</event>
<event>
 5    1  0.1338054E-008  0.3722114E+03  0.7957747E-01  0.3485789E+00
         13   -1    0    0    0    0  0.00000000000E+00  0.00000000000E+00  0.14999999963E+04  0.15000000000E+04  0.10566000000E+00 0.  1.
        994   -1    0    0    0    0 -0.00000000000E+00 -0.00000000000E+00  0.11368683772E-12  0.17120000000E+03  0.17120000000E+03 0.  0.
         13    1    1    2    0    0 -0.90180361012E+02 -0.27055954953E+02  0.35526289596E+03  0.36752722161E+03  0.10566000000E+00 0.  1.
        994    1    1    2    0    0  0.58464212272E+02  0.65821423909E+01  0.24410275639E+02  0.18266551473E+03  0.17120000000E+03 0.  0.
        998    1    1    2    0    0  0.31716148740E+02  0.20473812562E+02  0.11203268247E+04  0.11210072637E+04  0.10000000000E+02 0.  1.
</event>
<event>
 5    1  0.1338054E-008  0.3784148E+03  0.7957747E-01  0.3458090E+00
         13   -1    0    0    0    0  0.00000000000E+00  0.00000000000E+00  0.14999999963E+04  0.15000000000E+04  0.10566000000E+00 0. -1.
        994   -1    0    0    0    0 -0.00000000000E+00 -0.00000000000E+00  0.11368683772E-12  0.17120000000E+03  0.17120000000E+03 0.  0.
         13    1    1    2    0    0 -0.12253791519E+02 -0.24255777447E+02  0.17074389574E+02  0.32094299954E+02  0.10566000000E+00 0. -1.
        994    1    1    2    0    0  0.13183409359E+02  0.24797098549E+02  0.18305683561E+02  0.17445124370E+03  0.17120000000E+03 0.  0.
        998    1    1    2    0    0 -0.92961783936E+00 -0.54132110185E+00  0.14646199231E+04  0.14646544563E+04  0.10000000000E+02 0. -1.
</event>
<event>
 5    1  0.1338054E-008  0.3766720E+03  0.7957747E-01  0.3465778E+00
         13   -1    0    0    0    0  0.00000000000E+00  0.00000000000E+00  0.14999999963E+04  0.15000000000E+04  0.10566000000E+00 0. -1.
        994   -1    0    0    0    0 -0.00000000000E+00 -0.00000000000E+00  0.11368683772E-12  0.17120000000E+03  0.17120000000E+03 0.  0.
         13    1    1    2    0    0 -0.46553789722E+02  0.17948992708E+02  0.23807954042E+03  0.24325151676E+03  0.10566000000E+00 0. -1.
        994    1    1    2    0    0  0.76003998448E+01 -0.14841112752E+02  0.67629099875E+01  0.17214296865E+03  0.17120000000E+03 0.  0.
        998    1    1    2    0    0  0.38953389877E+02 -0.31078799555E+01  0.12551575459E+04  0.12558055146E+04  0.10000000000E+02 0. -1.
</event>
<event>
 5    1  0.1338054E-008  0.3825759E+03  0.7957747E-01  0.3440019E+00
         13   -1    0    0    0    0  0.00000000000E+00  0.00000000000E+00  0.14999999963E+04  0.15000000000E+04  0.10566000000E+00 0. -1.
        994   -1    0    0    0    0 -0.00000000000E+00 -0.00000000000E+00  0.11368683772E-12  0.17120000000E+03  0.17120000000E+03 0.  0.
         13    1    1    2    0    0 -0.15097275707E+01 -0.21343100184E+02  0.75579990260E+02  0.78550323325E+02  0.10566000000E+00 0. -1.
        994    1    1    2    0    0  0.37571899356E+01  0.23601992087E+02  0.47340252348E+01  0.17292490133E+03  0.17120000000E+03 0.  0.
        998    1    1    2    0    0 -0.22474623649E+01 -0.22588919033E+01  0.14196859808E+04  0.14197247753E+04  0.10000000000E+02 0. -1.
</event>
<event>
 5    1  0.1338054E-008  0.3845919E+03  0.7957747E-01  0.3431405E+00
         13   -1    0    0    0    0  0.00000000000E+00  0.00000000000E+00  0.14999999963E+04  0.15000000000E+04  0.10566000000E+00 0. -1.
        994   -1    0    0    0    0 -0.00000000000E+00 -0.00000000000E+00  0.11368683772E-12  0.17120000000E+03  0.17120000000E+03 0.  0.
         13    1    1    2    0    0  0.27941940996E+01 -0.13523086441E+02  0.58058991251E+02  0.59678631156E+02  0.10566000000E+00 0. -1.
        994    1    1    2    0    0  0.17563019446E+01 -0.10433316624E+02  0.22015864019E+01  0.17154074057E+03  0.17120000000E+03 0.  0.
        998    1    1    2    0    0 -0.45504960442E+01  0.23956403065E+02  0.14397394186E+04  0.14399806283E+04  0.10000000000E+02 0. -1.
</event>
<event>
 5    1  0.1338054E-008  0.3834897E+03  0.7957747E-01  0.3436103E+00
         13   -1    0    0    0    0  0.00000000000E+00  0.00000000000E+00  0.14999999963E+04  0.15000000000E+04  0.10566000000E+00 0.  1.
        994   -1    0    0    0    0 -0.00000000000E+00 -0.00000000000E+00  0.11368683772E-12  0.17120000000E+03  0.17120000000E+03 0.  0.
         13    1    1    2    0    0  0.14555589092E+03 -0.16771275881E+03  0.10769732497E+04  0.10996297007E+04  0.10566000000E+00 0.  1.
        994    1    1    2    0    0 -0.15222707737E+03  0.17324582061E+03  0.20436316727E+03  0.35250665466E+03  0.17120000000E+03 0.  0.
        998    1    1    2    0    0  0.66711864470E+01 -0.55330618026E+01  0.21866357932E+03  0.21906364468E+03  0.10000000000E+02 0.  0.
</event>
<event>
 5    1  0.1338054E-008  0.3853733E+03  0.7957747E-01  0.3428091E+00
         13   -1    0    0    0    0  0.00000000000E+00  0.00000000000E+00  0.14999999963E+04  0.15000000000E+04  0.10566000000E+00 0.  1.
        994   -1    0    0    0    0 -0.00000000000E+00 -0.00000000000E+00  0.11368683772E-12  0.17120000000E+03  0.17120000000E+03 0.  0.
         13    1    1    2    0    0  0.40761428864E+01  0.93071709205E+01  0.35459871785E+02  0.36887017261E+02  0.10566000000E+00 0.  1.
        994    1    1    2    0    0 -0.78959465696E+01 -0.57004084025E+01  0.17565167350E+01  0.17148576028E+03  0.17120000000E+03 0.  0.
        998    1    1    2    0    0  0.38198036832E+01 -0.36067625179E+01  0.14627836078E+04  0.14628272225E+04  0.10000000000E+02 0.  1.
</event>
<event>
 5    1  0.1338054E-008  0.3723167E+03  0.7957747E-01  0.3485311E+00
         13   -1    0    0    0    0  0.00000000000E+00  0.00000000000E+00  0.14999999963E+04  0.15000000000E+04  0.10566000000E+00 0. -1.
        994   -1    0    0    0    0 -0.00000000000E+00 -0.00000000000E+00  0.11368683772E-12  0.17120000000E+03  0.17120000000E+03 0.  0.
         13    1    1    2    0    0  0.46302941353E+02 -0.71692554387E+02  0.27437715745E+03  0.28734408020E+03  0.10566000000E+00 0. -1.
        994    1    1    2    0    0 -0.33761341931E+02  0.53792326155E+02  0.26524546734E+02  0.18451675843E+03  0.17120000000E+03 0.  0.
        998    1    1    2    0    0 -0.12541599423E+02  0.17900228232E+02  0.11990982921E+04  0.11993391614E+04  0.10000000000E+02 0. -1.
</event>
<event>
 5    1  0.1338054E-008  0.3749948E+03  0.7957747E-01  0.3473246E+00
         13   -1    0    0    0    0  0.00000000000E+00  0.00000000000E+00  0.14999999963E+04  0.15000000000E+04  0.10566000000E+00 0.  1.
        994   -1    0    0    0    0 -0.00000000000E+00 -0.00000000000E+00  0.11368683772E-12  0.17120000000E+03  0.17120000000E+03 0.  0.
         13    1    1    2    0    0  0.19586327720E+02 -0.20280912578E+02  0.65829602007E+02  0.71613457625E+02  0.10566000000E+00 0.  1.
        994    1    1    2    0    0  0.18647534796E+02 -0.13803839570E+02  0.85132832761E+01  0.17297454302E+03  0.17120000000E+03 0.  0.
        998    1    1    2    0    0 -0.38233862516E+02  0.34084752148E+02  0.14256571110E+04  0.14266119994E+04  0.10000000000E+02 0.  1.
</event>
<event>
 5    1  0.1338054E-008  0.3862310E+03  0.7957747E-01  0.3424468E+00
         13   -1    0    0    0    0  0.00000000000E+00  0.00000000000E+00  0.14999999963E+04  0.15000000000E+04  0.10566000000E+00 0.  1.
        994   -1    0    0    0    0 -0.00000000000E+00 -0.00000000000E+00  0.11368683772E-12  0.17120000000E+03  0.17120000000E+03 0.  0.
         13    1    1    2    0    0 -0.96746979621E+01 -0.58724426382E+01  0.67665213510E+02  0.68605230460E+02  0.10566000000E+00 0.  1.
        994    1    1    2    0    0 -0.36464942627E+01  0.68305414490E+01  0.12165925905E+01  0.17137932581E+03  0.17120000000E+03 0.  0.
        998    1    1    2    0    0  0.13321192225E+02 -0.95809881079E+00  0.14311181902E+04  0.14312154437E+04  0.10000000000E+02 0.  1.
</event>
<event>
 5    1  0.1338054E-008  0.3725943E+03  0.7957747E-01  0.3484052E+00
         13   -1    0    0    0    0  0.00000000000E+00  0.00000000000E+00  0.14999999963E+04  0.15000000000E+04  0.10566000000E+00 0.  1.
        994   -1    0    0    0    0 -0.00000000000E+00 -0.00000000000E+00  0.11368683772E-12  0.17120000000E+03  0.17120000000E+03 0.  0.
         13    1    1    2    0    0  0.13817487632E+02  0.15612406528E+02  0.23877961232E+02  0.31699186089E+02  0.10566000000E+00 0.  1.
        994    1    1    2    0    0 -0.13932385853E+02 -0.12432654528E+02  0.91151493624E+01  0.17245639513E+03  0.17120000000E+03 0.  0.
        998    1    1    2    0    0  0.11489822082E+00 -0.31797519996E+01  0.14670068857E+04  0.14670444188E+04  0.10000000000E+02 0.  1.
</event>
<event>
 5    1  0.1338054E-008  0.3790004E+03  0.7957747E-01  0.3455522E+00
         13   -1    0    0    0    0  0.00000000000E+00  0.00000000000E+00  0.14999999963E+04  0.15000000000E+04  0.10566000000E+00 0. -1.
        994   -1    0    0    0    0 -0.00000000000E+00 -0.00000000000E+00  0.11368683772E-12  0.17120000000E+03  0.17120000000E+03 0.  0.
         13    1    1    2    0    0 -0.39424131335E+02 -0.70588276117E+02  0.17969624944E+03  0.19704750718E+03  0.10566000000E+00 0. -1.
        994    1    1    2    0    0  0.27962143973E+02  0.74753495216E+02  0.39153484779E+02  0.19290516300E+03  0.17120000000E+03 0.  0.
        998    1    1    2    0    0  0.11461987362E+02 -0.41652190997E+01  0.12811502621E+04  0.12812473298E+04  0.10000000000E+02 0. -1.
</event>
<event>
 5    1  0.1338054E-008  0.3756611E+03  0.7957747E-01  0.3470271E+00
         13   -1    0    0    0    0  0.00000000000E+00  0.00000000000E+00  0.14999999963E+04  0.15000000000E+04  0.10566000000E+00 0.  1.
        994   -1    0    0    0    0 -0.00000000000E+00 -0.00000000000E+00  0.11368683772E-12  0.17120000000E+03  0.17120000000E+03 0.  0.
         13    1    1    2    0    0 -0.18977529403E+01  0.12792627822E+02  0.10218180989E+02  0.16482571995E+02  0.10566000000E+00 0.  1.
        994    1    1    2    0    0  0.30654942289E+01 -0.14599626736E+02  0.70947937388E+01  0.17199512334E+03  0.17120000000E+03 0.  0.
        998    1    1    2    0    0 -0.11677412886E+01  0.18069989140E+01  0.14826870216E+04  0.14827223047E+04  0.10000000000E+02 0.  1.
</event>
<event>
 5    1  0.1338054E-008  0.3851962E+03  0.7957747E-01  0.3428840E+00
         13   -1    0    0    0    0  0.00000000000E+00  0.00000000000E+00  0.14999999963E+04  0.15000000000E+04  0.10566000000E+00 0. -1.
        994   -1    0    0    0    0 -0.00000000000E+00 -0.00000000000E+00  0.11368683772E-12  0.17120000000E+03  0.17120000000E+03 0.  0.
         13    1    1    2    0    0 -0.15299724449E+02  0.12941820894E+01  0.80628680552E+02  0.82077717848E+02  0.10566000000E+00 0. -1.
        994    1    1    2    0    0  0.53979361388E+01  0.14205881428E+02  0.22921214323E+01  0.17188844814E+03  0.17120000000E+03 0.  0.
        998    1    1    2    0    0  0.99017883099E+01 -0.15500063517E+02  0.14170791943E+04  0.14172338340E+04  0.10000000000E+02 0. -1.
</event>
<event>
 5    1  0.1338054E-008  0.3803003E+03  0.7957747E-01  0.3449852E+00
         13   -1    0    0    0    0  0.00000000000E+00  0.00000000000E+00  0.14999999963E+04  0.15000000000E+04  0.10566000000E+00 0. -1.
        994   -1    0    0    0    0 -0.00000000000E+00 -0.00000000000E+00  0.11368683772E-12  0.17120000000E+03  0.17120000000E+03 0.  0.
         13    1    1    2    0    0  0.26937953704E+02 -0.46395469281E+01  0.10383491221E+03  0.10737261710E+03  0.10566000000E+00 0. -1.
        994    1    1    2    0    0  0.44068102737E+01 -0.23234216789E+01  0.40645442703E+01  0.17132068989E+03  0.17120000000E+03 0.  0.
        998    1    1    2    0    0 -0.31344763978E+02  0.69629686071E+01  0.13921005398E+04  0.13925066930E+04  0.10000000000E+02 0. -1.
</event>
<event>
 5    1  0.1338054E-008  0.3817932E+03  0.7957747E-01  0.3443388E+00
         13   -1    0    0    0    0  0.00000000000E+00  0.00000000000E+00  0.14999999963E+04  0.15000000000E+04  0.10566000000E+00 0. -1.
        994   -1    0    0    0    0 -0.00000000000E+00 -0.00000000000E+00  0.11368683772E-12  0.17120000000E+03  0.17120000000E+03 0.  0.
         13    1    1    2    0    0  0.41557458870E+02 -0.12569279918E+02  0.23444630684E+03  0.23843257147E+03  0.10566000000E+00 0. -1.
        994    1    1    2    0    0 -0.49263195521E+02  0.85892125756E+01  0.11585832944E+02  0.17872970802E+03  0.17120000000E+03 0.  0.
        998    1    1    2    0    0  0.77057366514E+01  0.39800673422E+01  0.12539678565E+04  0.12540377205E+04  0.10000000000E+02 0. -1.
</event>
<event>
 5    1  0.1338054E-008  0.3851449E+03  0.7957747E-01  0.3429058E+00
         13   -1    0    0    0    0  0.00000000000E+00  0.00000000000E+00  0.14999999963E+04  0.15000000000E+04  0.10566000000E+00 0.  1.
        994   -1    0    0    0    0 -0.00000000000E+00 -0.00000000000E+00  0.11368683772E-12  0.17120000000E+03  0.17120000000E+03 0.  0.
         13    1    1    2    0    0 -0.12903162592E+02  0.15180102461E+02  0.11781371491E+03  0.11948644149E+03  0.10566000000E+00 0.  1.
        994    1    1    2    0    0  0.16929338420E+02 -0.14150139497E+02  0.31601238146E+01  0.17264488214E+03  0.17120000000E+03 0.  0.
        998    1    1    2    0    0 -0.40261758278E+01 -0.10299629638E+01  0.13790261576E+04  0.13790686764E+04  0.10000000000E+02 0.  1.
</event>
<event>
 5    1  0.1338054E-008  0.3729434E+03  0.7957747E-01  0.3482472E+00
         13   -1    0    0    0    0  0.00000000000E+00  0.00000000000E+00  0.14999999963E+04  0.15000000000E+04  0.10566000000E+00 0. -1.
        994   -1    0    0    0    0 -0.00000000000E+00 -0.00000000000E+00  0.11368683772E-12  0.17120000000E+03  0.17120000000E+03 0.  0.
         13    1    1    2    0    0 -0.35674845374E+02 -0.19887467248E+02  0.96378596682E+02  0.10467593328E+03  0.10566000000E+00 0. -1.
        994    1    1    2    0    0  0.31564869737E+02  0.40406419725E+02  0.16791737491E+02  0.17950047968E+03  0.17120000000E+03 0.  0.
        998    1    1    2    0    0  0.41099756377E+01 -0.20518952477E+02  0.13868296621E+04  0.13870235870E+04  0.10000000000E+02 0. -1.
</event>
<event>
 5    1  0.1338054E-008  0.3852725E+03  0.7957747E-01  0.3428517E+00
         13   -1    0    0    0    0  0.00000000000E+00  0.00000000000E+00  0.14999999963E+04  0.15000000000E+04  0.10566000000E+00 0.  1.
        994   -1    0    0    0    0 -0.00000000000E+00 -0.00000000000E+00  0.11368683772E-12  0.17120000000E+03  0.17120000000E+03 0.  0.
         13    1    1    2    0    0 -0.93542479255E+01 -0.91837454342E+01  0.56900040451E+02  0.58390657659E+02  0.10566000000E+00 0.  1.
        994    1    1    2    0    0  0.11611650839E+02  0.35617457001E+01  0.19797499025E+01  0.17164170786E+03  0.17120000000E+03 0.  0.
        998    1    1    2    0    0 -0.22574029135E+01  0.56219997341E+01  0.14411202059E+04  0.14411676345E+04  0.10000000000E+02 0.  1.
</event>
<event>
 5    1  0.1338054E-008  0.3796865E+03  0.7957747E-01  0.3452525E+00
         13   -1    0    0    0    0  0.00000000000E+00  0.00000000000E+00  0.14999999963E+04  0.15000000000E+04  0.10566000000E+00 0.  1.
        994   -1    0    0    0    0 -0.00000000000E+00 -0.00000000000E+00  0.11368683772E-12  0.17120000000E+03  0.17120000000E+03 0.  0.
         13    1    1    2    0    0 -0.59270807015E+02  0.32062037787E+02  0.32847090696E+03  0.33531201994E+03  0.10566000000E+00 0.  1.
        994    1    1    2    0    0  0.81660012855E+02 -0.40357547179E+02  0.32576418133E+02  0.19664117659E+03  0.17120000000E+03 0.  0.
        998    1    1    2    0    0 -0.22389205839E+02  0.82955093923E+01  0.11389526712E+04  0.11392468035E+04  0.10000000000E+02 0.  1.
</event>
<event>
 5    1  0.1338054E-008  0.3859027E+03  0.7957747E-01  0.3425853E+00
         13   -1    0    0    0    0  0.00000000000E+00  0.00000000000E+00  0.14999999963E+04  0.15000000000E+04  0.10566000000E+00 0.  1.
        994   -1    0    0    0    0 -0.00000000000E+00 -0.00000000000E+00  0.11368683772E-12  0.17120000000E+03  0.17120000000E+03 0.  0.
         13    1    1    2    0    0 -0.92003397186E+01  0.50817670385E+01  0.48636119520E+02  0.49758957919E+02  0.10566000000E+00 0.  1.
        994    1    1    2    0    0  0.10559427451E+00 -0.46776194367E+01  0.12544065230E+01  0.17126851669E+03  0.17120000000E+03 0.  0.
        998    1    1    2    0    0  0.90947454440E+01 -0.40414760180E+00  0.14501094702E+04  0.14501725254E+04  0.10000000000E+02 0.  1.
</event>
<event>
 5    1  0.1338054E-008  0.3829075E+03  0.7957747E-01  0.3438596E+00
         13   -1    0    0    0    0  0.00000000000E+00  0.00000000000E+00  0.14999999963E+04  0.15000000000E+04  0.10566000000E+00 0. -1.
        994   -1    0    0    0    0 -0.00000000000E+00 -0.00000000000E+00  0.11368683772E-12  0.17120000000E+03  0.17120000000E+03 0.  0.
         13    1    1    2    0    0 -0.15968380485E+02  0.12399119728E+02  0.70237693835E+02  0.73089480397E+02  0.10566000000E+00 0. -1.
        994    1    1    2    0    0  0.20981967242E+02 -0.17437297975E+02  0.51409723872E+01  0.17343636270E+03  0.17120000000E+03 0.  0.
        998    1    1    2    0    0 -0.50135867571E+01  0.50381782471E+01  0.14246213301E+04  0.14246741569E+04  0.10000000000E+02 0. -1.
</event>
<event>
 5    1  0.1338054E-008  0.3796487E+03  0.7957747E-01  0.3452690E+00
         13   -1    0    0    0    0  0.00000000000E+00  0.00000000000E+00  0.14999999963E+04  0.15000000000E+04  0.10566000000E+00 0.  1.
        994   -1    0    0    0    0 -0.00000000000E+00 -0.00000000000E+00  0.11368683772E-12  0.17120000000E+03  0.17120000000E+03 0.  0.
         13    1    1    2    0    0  0.60325824142E+02  0.51668206907E+02  0.15970126977E+03  0.17836287560E+03  0.10566000000E+00 0.  1.
        994    1    1    2    0    0 -0.82197352647E+02 -0.49887575552E+02  0.50407273011E+02  0.20272027069E+03  0.17120000000E+03 0.  0.
        998    1    1    2    0    0  0.21871528505E+02 -0.17806313552E+01  0.12898914535E+04  0.12901168537E+04  0.10000000000E+02 0.  1.
</event>
<event>
 5    1  0.1338054E-008  0.3850067E+03  0.7957747E-01  0.3429644E+00
         13   -1    0    0    0    0  0.00000000000E+00  0.00000000000E+00  0.14999999963E+04  0.15000000000E+04  0.10566000000E+00 0.  1.
        994   -1    0    0    0    0 -0.00000000000E+00 -0.00000000000E+00  0.11368683772E-12  0.17120000000E+03  0.17120000000E+03 0.  0.
         13    1    1    2    0    0  0.42869563036E+00  0.13238392113E+02  0.44693416770E+02  0.46614927570E+02  0.10566000000E+00 0.  1.
        994    1    1    2    0    0  0.18536448006E+02 -0.45958259989E+02  0.97448650696E+01  0.17849415666E+03  0.17120000000E+03 0.  0.
        998    1    1    2    0    0 -0.18965143637E+02  0.32719867876E+02  0.14455617144E+04  0.14460909158E+04  0.10000000000E+02 0.  1.
</event>
<event>
 5    1  0.1338054E-008  0.3851071E+03  0.7957747E-01  0.3429218E+00
         13   -1    0    0    0    0  0.00000000000E+00  0.00000000000E+00  0.14999999963E+04  0.15000000000E+04  0.10566000000E+00 0. -1.
        994   -1    0    0    0    0 -0.00000000000E+00 -0.00000000000E+00  0.11368683772E-12  0.17120000000E+03  0.17120000000E+03 0.  0.
         13    1    1    2    0    0  0.69789294099E+01 -0.12517194638E+02  0.66193504964E+02  0.67727224074E+02  0.10566000000E+00 0. -1.
        994    1    1    2    0    0 -0.30212701148E+02 -0.73880445496E+01  0.47637430644E+01  0.17406758389E+03  0.17120000000E+03 0.  0.
        998    1    1    2    0    0  0.23233771738E+02  0.19905239187E+02  0.14290427483E+04  0.14294051920E+04  0.10000000000E+02 0. -1.
</event>
<event>
 5    1  0.1338054E-008  0.3781406E+03  0.7957747E-01  0.3459295E+00
         13   -1    0    0    0    0  0.00000000000E+00  0.00000000000E+00  0.14999999963E+04  0.15000000000E+04  0.10566000000E+00 0.  1.
        994   -1    0    0    0    0 -0.00000000000E+00 -0.00000000000E+00  0.11368683772E-12  0.17120000000E+03  0.17120000000E+03 0.  0.
         13    1    1    2    0    0 -0.12575233136E+02 -0.26766024256E+02  0.78625423555E+02  0.84003124561E+02  0.10566000000E+00 0.  1.
        994    1    1    2    0    0  0.14743895740E+01  0.38112990779E+02  0.99835907369E+01  0.17568120553E+03  0.17120000000E+03 0.  0.
        998    1    1    2    0    0  0.11100843562E+02 -0.11346966524E+02  0.14113909820E+04  0.14115156699E+04  0.10000000000E+02 0.  1.
</event>
<event>
 5    1  0.1338054E-008  0.3816354E+03  0.7957747E-01  0.3444068E+00
         13   -1    0    0    0    0  0.00000000000E+00  0.00000000000E+00  0.14999999963E+04  0.15000000000E+04  0.10566000000E+00 0.  1.
        994   -1    0    0    0    0 -0.00000000000E+00 -0.00000000000E+00  0.11368683772E-12  0.17120000000E+03  0.17120000000E+03 0.  0.
         13    1    1    2    0    0 -0.44167150888E+02 -0.63451572346E+02  0.46470680500E+03  0.47109369029E+03  0.10566000000E+00 0.  1.
        994    1    1    2    0    0  0.53782782802E+02  0.82792183909E+02  0.36426859543E+02  0.20095643692E+03  0.17120000000E+03 0.  0.
        998    1    1    2    0    0 -0.96156319137E+01 -0.19340611564E+02  0.99886633173E+03  0.99914987279E+03  0.10000000000E+02 0.  1.
</event>
<event>
 5    1  0.1338054E-008  0.3832532E+03  0.7957747E-01  0.3437114E+00
         13   -1    0    0    0    0  0.00000000000E+00  0.00000000000E+00  0.14999999963E+04  0.15000000000E+04  0.10566000000E+00 0.  1.
        994   -1    0    0    0    0 -0.00000000000E+00 -0.00000000000E+00  0.11368683772E-12  0.17120000000E+03  0.17120000000E+03 0.  0.
         13    1    1    2    0    0 -0.58433256740E+01  0.10543467844E+02  0.28532395057E+02  0.30974471761E+02  0.10566000000E+00 0.  1.
        994    1    1    2    0    0 -0.85626601580E+00 -0.66070677081E+01  0.26466930199E+01  0.17135002632E+03  0.17120000000E+03 0.  0.
        998    1    1    2    0    0  0.66995916898E+01 -0.39364001363E+01  0.14688209082E+04  0.14688755019E+04  0.10000000000E+02 0.  1.
</event>
<event>
 5    1  0.1338054E-008  0.3861485E+03  0.7957747E-01  0.3424816E+00
         13   -1    0    0    0    0  0.00000000000E+00  0.00000000000E+00  0.14999999963E+04  0.15000000000E+04  0.10566000000E+00 0. -1.
        994   -1    0    0    0    0 -0.00000000000E+00 -0.00000000000E+00  0.11368683772E-12  0.17120000000E+03  0.17120000000E+03 0.  0.
         13    1    1    2    0    0  0.57776872660E+01 -0.89443465547E+01  0.51936102310E+02  0.53016534144E+02  0.10566000000E+00 0. -1.
        994    1    1    2    0    0 -0.15627405280E+01  0.14955694019E+02  0.18021967184E+01  0.17186856273E+03  0.17120000000E+03 0.  0.
        998    1    1    2    0    0 -0.42149467381E+01 -0.60113474642E+01  0.14462616973E+04  0.14463149031E+04  0.10000000000E+02 0. -1.
</event>
<event>
 5    1  0.1338054E-008  0.3726347E+03  0.7957747E-01  0.3483869E+00
         13   -1    0    0    0    0  0.00000000000E+00  0.00000000000E+00  0.14999999963E+04  0.15000000000E+04  0.10566000000E+00 0.  1.
        994   -1    0    0    0    0 -0.00000000000E+00 -0.00000000000E+00  0.11368683772E-12  0.17120000000E+03  0.17120000000E+03 0.  0.
         13    1    1    2    0    0  0.12938302982E+03  0.58800063933E+01  0.64725707579E+03  0.66008808215E+03  0.10566000000E+00 0.  1.
        994    1    1    2    0    0 -0.80968386190E+02 -0.85659399243E+01  0.36114817018E+02  0.19298439029E+03  0.17120000000E+03 0.  0.
        998    1    1    2    0    0 -0.48414643629E+02  0.26859335310E+01  0.81662810347E+03  0.81812752755E+03  0.10000000000E+02 0.  1.
</event>
<event>
 5    1  0.1338054E-008  0.3733793E+03  0.7957747E-01  0.3480503E+00
         13   -1    0    0    0    0  0.00000000000E+00  0.00000000000E+00  0.14999999963E+04  0.15000000000E+04  0.10566000000E+00 0. -1.
        994   -1    0    0    0    0 -0.00000000000E+00 -0.00000000000E+00  0.11368683772E-12  0.17120000000E+03  0.17120000000E+03 0.  0.
         13    1    1    2    0    0 -0.65585428627E+02 -0.72477334699E+01  0.15499221086E+03  0.16845347928E+03  0.10566000000E+00 0. -1.
        994    1    1    2    0    0  0.53852870070E+02  0.50110603490E+02  0.32137012610E+02  0.18908577888E+03  0.17120000000E+03 0.  0.
        998    1    1    2    0    0  0.11732558557E+02 -0.42862870020E+02  0.13128707728E+04  0.13136607418E+04  0.10000000000E+02 0. -1.
</event>
<event>
 5    1  0.1338054E-008  0.3839699E+03  0.7957747E-01  0.3434053E+00
         13   -1    0    0    0    0  0.00000000000E+00  0.00000000000E+00  0.14999999963E+04  0.15000000000E+04  0.10566000000E+00 0. -1.
        994   -1    0    0    0    0 -0.00000000000E+00 -0.00000000000E+00  0.11368683772E-12  0.17120000000E+03  0.17120000000E+03 0.  0.
         13    1    1    2    0    0  0.25795749097E+02 -0.67210921884E-02  0.12379150204E+03  0.12645065385E+03  0.10566000000E+00 0. -1.
        994    1    1    2    0    0 -0.45888987976E+02 -0.50669177458E+01  0.92075569029E+01  0.17755475769E+03  0.17120000000E+03 0.  0.
        998    1    1    2    0    0  0.20093238879E+02  0.50736388380E+01  0.13670009373E+04  0.13671945885E+04  0.10000000000E+02 0. -1.
</event>
<event>
 5    1  0.1338054E-008  0.3833694E+03  0.7957747E-01  0.3436617E+00
         13   -1    0    0    0    0  0.00000000000E+00  0.00000000000E+00  0.14999999963E+04  0.15000000000E+04  0.10566000000E+00 0. -1.
        994   -1    0    0    0    0 -0.00000000000E+00 -0.00000000000E+00  0.11368683772E-12  0.17120000000E+03  0.17120000000E+03 0.  0.
         13    1    1    2    0    0  0.10112601408E+02  0.30765315753E+01  0.21817358970E+02  0.24243309804E+02  0.10566000000E+00 0. -1.
        994    1    1    2    0    0 -0.10074458661E+02 -0.20094359358E+01  0.27908653820E+01  0.17153064298E+03  0.17120000000E+03 0.  0.
        998    1    1    2    0    0 -0.38142747445E-01 -0.10670956395E+01  0.14753917719E+04  0.14754260472E+04  0.10000000000E+02 0. -1.
</event>
<event>
 5    1  0.1338054E-008  0.3793501E+03  0.7957747E-01  0.3453993E+00
         13   -1    0    0    0    0  0.00000000000E+00  0.00000000000E+00  0.14999999963E+04  0.15000000000E+04  0.10566000000E+00 0.  1.
        994   -1    0    0    0    0 -0.00000000000E+00 -0.00000000000E+00  0.11368683772E-12  0.17120000000E+03  0.17120000000E+03 0.  0.
         13    1    1    2    0    0 -0.89769697154E+01 -0.35609878593E+02  0.19008753293E+03  0.19360250716E+03  0.10566000000E+00 0.  1.
        994    1    1    2    0    0 -0.73865494689E+00 -0.11840505814E+02  0.49332372499E+01  0.17168144926E+03  0.17120000000E+03 0.  0.
        998    1    1    2    0    0  0.97156246623E+01  0.47450384407E+02  0.13049792261E+04  0.13059160436E+04  0.10000000000E+02 0.  1.
</event>
<event>
 5    1  0.1338054E-008  0.3698049E+03  0.7957747E-01  0.3496788E+00
         13   -1    0    0    0    0  0.00000000000E+00  0.00000000000E+00  0.14999999963E+04  0.15000000000E+04  0.10566000000E+00 0. -1.
        994   -1    0    0    0    0 -0.00000000000E+00 -0.00000000000E+00  0.11368683772E-12  0.17120000000E+03  0.17120000000E+03 0.  0.
         13    1    1    2    0    0  0.59957451417E+02 -0.35009244419E+01  0.14559351995E+03  0.15749487822E+03  0.10566000000E+00 0. -1.
        994    1    1    2    0    0 -0.63595998762E+02 -0.22814522107E+01  0.25120688231E+02  0.18436416425E+03  0.17120000000E+03 0.  0.
        998    1    1    2    0    0  0.36385473455E+01  0.57823766526E+01  0.13292857881E+04  0.13293409575E+04  0.10000000000E+02 0. -1.
</event>
<event>
 5    1  0.1338054E-008  0.3829434E+03  0.7957747E-01  0.3438442E+00
         13   -1    0    0    0    0  0.00000000000E+00  0.00000000000E+00  0.14999999963E+04  0.15000000000E+04  0.10566000000E+00 0. -1.
        994   -1    0    0    0    0 -0.00000000000E+00 -0.00000000000E+00  0.11368683772E-12  0.17120000000E+03  0.17120000000E+03 0.  0.
         13    1    1    2    0    0 -0.25572328088E+02 -0.17723637832E+02  0.18420765417E+03  0.18681686841E+03  0.10566000000E+00 0. -1.
        994    1    1    2    0    0  0.81305173851E+00  0.29877488183E+02  0.56178564110E+01  0.17388020492E+03  0.17120000000E+03 0.  0.
        998    1    1    2    0    0  0.24759276349E+02 -0.12153850352E+02  0.13101744857E+04  0.13105029267E+04  0.10000000000E+02 0. -1.
</event>
<event>
 5    1  0.1338054E-008  0.3818943E+03  0.7957747E-01  0.3442951E+00
         13   -1    0    0    0    0  0.00000000000E+00  0.00000000000E+00  0.14999999963E+04  0.15000000000E+04  0.10566000000E+00 0. -1.
        994   -1    0    0    0    0 -0.00000000000E+00 -0.00000000000E+00  0.11368683772E-12  0.17120000000E+03  0.17120000000E+03 0.  0.
         13    1    1    2    0    0 -0.16008387415E+02 -0.28178353633E+02  0.18741528661E+03  0.19019671107E+03  0.10566000000E+00 0. -1.
        994    1    1    2    0    0  0.25222497018E+01  0.18481957670E+01  0.32124272914E+01  0.17125868521E+03  0.17120000000E+03 0.  0.
        998    1    1    2    0    0  0.13486137714E+02  0.26330157866E+02  0.13093722824E+04  0.13097446037E+04  0.10000000000E+02 0. -1.
</event>
<event>
 5    1  0.1338054E-008  0.3804170E+03  0.7957747E-01  0.3449345E+00
         13   -1    0    0    0    0  0.00000000000E+00  0.00000000000E+00  0.14999999963E+04  0.15000000000E+04  0.10566000000E+00 0. -1.
        994   -1    0    0    0    0 -0.00000000000E+00 -0.00000000000E+00  0.11368683772E-12  0.17120000000E+03  0.17120000000E+03 0.  0.
         13    1    1    2    0    0 -0.94875249244E+01 -0.43460422458E+01  0.12061601264E+02  0.15949752395E+02  0.10566000000E+00 0. -1.
        994    1    1    2    0    0  0.81167135847E+01  0.95538627575E+01  0.44476076912E+01  0.17171598221E+03  0.17120000000E+03 0.  0.
        998    1    1    2    0    0  0.13708113397E+01 -0.52078205117E+01  0.14834907873E+04  0.14835342654E+04  0.10000000000E+02 0. -1.
</event>
<event>
 5    1  0.1338054E-008  0.3760070E+03  0.7957747E-01  0.3468731E+00
         13   -1    0    0    0    0  0.00000000000E+00  0.00000000000E+00  0.14999999963E+04  0.15000000000E+04  0.10566000000E+00 0. -1.
        994   -1    0    0    0    0 -0.00000000000E+00 -0.00000000000E+00  0.11368683772E-12  0.17120000000E+03  0.17120000000E+03 0.  0.
         13    1    1    2    0    0  0.33930414476E+02 -0.70852398693E+02  0.17448287808E+03  0.19135208735E+03  0.10566000000E+00 0. -1.
        994    1    1    2    0    0 -0.46080419428E+02  0.84532918549E+02  0.48044555419E+02  0.20220518954E+03  0.17120000000E+03 0.  0.
        998    1    1    2    0    0  0.12150004952E+02 -0.13680519856E+02  0.12774725628E+04  0.12776427231E+04  0.10000000000E+02 0. -1.
</event>
<event>
 5    1  0.1338054E-008  0.3705037E+03  0.7957747E-01  0.3493579E+00
         13   -1    0    0    0    0  0.00000000000E+00  0.00000000000E+00  0.14999999963E+04  0.15000000000E+04  0.10566000000E+00 0.  1.
        994   -1    0    0    0    0 -0.00000000000E+00 -0.00000000000E+00  0.11368683772E-12  0.17120000000E+03  0.17120000000E+03 0.  0.
         13    1    1    2    0    0 -0.70755202866E+01 -0.28087276033E+02  0.40350706937E+02  0.49670401414E+02  0.10566000000E+00 0.  1.
        994    1    1    2    0    0  0.89880796114E+01  0.41911132362E+02  0.15374623798E+02  0.17715289342E+03  0.17120000000E+03 0.  0.
        998    1    1    2    0    0 -0.19125593248E+01 -0.13823856329E+02  0.14442746655E+04  0.14443767052E+04  0.10000000000E+02 0.  1.
</event>
<event>
 5    1  0.1338054E-008  0.3696349E+03  0.7957747E-01  0.3497570E+00
         13   -1    0    0    0    0  0.00000000000E+00  0.00000000000E+00  0.14999999963E+04  0.15000000000E+04  0.10566000000E+00 0. -1.
        994   -1    0    0    0    0 -0.00000000000E+00 -0.00000000000E+00  0.11368683772E-12  0.17120000000E+03  0.17120000000E+03 0.  0.
         13    1    1    2    0    0 -0.20080134003E+02 -0.33122736478E+02  0.66263805508E+02  0.76754351915E+02  0.10566000000E+00 0. -1.
        994    1    1    2    0    0  0.31469165918E+01  0.25568287544E+02  0.13066465906E+02  0.17361973662E+03  0.17120000000E+03 0.  0.
        998    1    1    2    0    0  0.16933217411E+02  0.75544489347E+01  0.14206697249E+04  0.14208259115E+04  0.10000000000E+02 0. -1.
</event>
<event>
 5    1  0.1338054E-008  0.3809576E+03  0.7957747E-01  0.3446999E+00
         13   -1    0    0    0    0  0.00000000000E+00  0.00000000000E+00  0.14999999963E+04  0.15000000000E+04  0.10566000000E+00 0. -1.
        994   -1    0    0    0    0 -0.00000000000E+00 -0.00000000000E+00  0.11368683772E-12  0.17120000000E+03  0.17120000000E+03 0.  0.
         13    1    1    2    0    0 -0.34072322307E+02 -0.65782412376E+01  0.18432005655E+03  0.18755823313E+03  0.10566000000E+00 0. -1.
        994    1    1    2    0    0  0.42554830952E+01  0.28040797486E+01  0.37370855833E+01  0.17131660109E+03  0.17120000000E+03 0.  0.
        998    1    1    2    0    0  0.29816839212E+02  0.37741614891E+01  0.13119428541E+04  0.13123251658E+04  0.10000000000E+02 0. -1.
</event>
<event>
 5    1  0.1338054E-008  0.4092059E+03  0.7957747E-01  0.3333081E+00
         13   -1    0    0    0    0  0.00000000000E+00  0.00000000000E+00  0.14999999963E+04  0.15000000000E+04  0.10566000000E+00 0.  1.
        994   -1    0    0    0    0 -0.00000000000E+00 -0.00000000000E+00  0.11368683772E-12  0.17120000000E+03  0.17120000000E+03 0.  0.
         13    1    1    2    0    0 -0.64046815596E+02  0.20154862221E+02  0.55980769399E+02  0.87418938255E+02  0.10566000000E+00 0.  1.
        994    1    1    2    0    0  0.51994818749E+02 -0.22613557586E+02  0.46595004570E+02  0.18626692840E+03  0.17120000000E+03 0.  0.
        998    1    1    2    0    0  0.12051996847E+02  0.24586953645E+01  0.13974242223E+04  0.13975141333E+04  0.10000000000E+02 0.  1.
</event>
<event>
 5    1  0.1338054E-008  0.3832701E+03  0.7957747E-01  0.3437042E+00
         13   -1    0    0    0    0  0.00000000000E+00  0.00000000000E+00  0.14999999963E+04  0.15000000000E+04  0.10566000000E+00 0. -1.
        994   -1    0    0    0    0 -0.00000000000E+00 -0.00000000000E+00  0.11368683772E-12  0.17120000000E+03  0.17120000000E+03 0.  0.
         13    1    1    2    0    0  0.16744443719E+02  0.22699118571E+01  0.56397621170E+02  0.58874712169E+02  0.10566000000E+00 0. -1.
        994    1    1    2    0    0 -0.11111764518E+02 -0.61969339265E+01  0.30269528802E+01  0.17169879366E+03  0.17120000000E+03 0.  0.
        998    1    1    2    0    0 -0.56326792006E+01  0.39270220694E+01  0.14405754222E+04  0.14406264942E+04  0.10000000000E+02 0. -1.
</event>
<event>
 5    1  0.1338054E-008  0.3839523E+03  0.7957747E-01  0.3434128E+00
         13   -1    0    0    0    0  0.00000000000E+00  0.00000000000E+00  0.14999999963E+04  0.15000000000E+04  0.10566000000E+00 0. -1.
        994   -1    0    0    0    0 -0.00000000000E+00 -0.00000000000E+00  0.11368683772E-12  0.17120000000E+03  0.17120000000E+03 0.  0.
         13    1    1    2    0    0  0.15362097721E+02  0.12658185842E+02  0.89175888129E+02  0.91370530823E+02  0.10566000000E+00 0. -1.
        994    1    1    2    0    0 -0.17505522322E+02 -0.53194897061E+01  0.32565721415E+01  0.17220564899E+03  0.17120000000E+03 0.  0.
        998    1    1    2    0    0  0.21434246011E+01 -0.73386961355E+01  0.14075675360E+04  0.14076238202E+04  0.10000000000E+02 0. -1.
</event>
<event>
 5    1  0.1338054E-008  0.3837780E+03  0.7957747E-01  0.3434871E+00
         13   -1    0    0    0    0  0.00000000000E+00  0.00000000000E+00  0.14999999963E+04  0.15000000000E+04  0.10566000000E+00 0.  1.
        994   -1    0    0    0    0 -0.00000000000E+00 -0.00000000000E+00  0.11368683772E-12  0.17120000000E+03  0.17120000000E+03 0.  0.
         13    1    1    2    0    0 -0.12775723954E+01 -0.18506665450E+02  0.79667526444E+02  0.81798867908E+02  0.10566000000E+00 0.  1.
        994    1    1    2    0    0 -0.27860718466E+02  0.78015284344E+01  0.50067613124E+01  0.17369971542E+03  0.17120000000E+03 0.  0.
        998    1    1    2    0    0  0.29138290862E+02  0.10705137016E+02  0.14153257085E+04  0.14157014167E+04  0.10000000000E+02 0.  1.
</event>
<event>
 5    1  0.1338054E-008  0.3855319E+03  0.7957747E-01  0.3427419E+00
         13   -1    0    0    0    0  0.00000000000E+00  0.00000000000E+00  0.14999999963E+04  0.15000000000E+04  0.10566000000E+00 0.  1.
        994   -1    0    0    0    0 -0.00000000000E+00 -0.00000000000E+00  0.11368683772E-12  0.17120000000E+03  0.17120000000E+03 0.  0.
         13    1    1    2    0    0  0.29718096734E+01 -0.16426555184E+02  0.95304132901E+02  0.96755115007E+02  0.10566000000E+00 0.  1.
        994    1    1    2    0    0 -0.12786931750E+01  0.19652737172E+02  0.26406652243E+01  0.17234929140E+03  0.17120000000E+03 0.  0.
        998    1    1    2    0    0 -0.16931164984E+01 -0.32261819886E+01  0.14020551982E+04  0.14020955936E+04  0.10000000000E+02 0.  1.
</event>
<event>
 5    1  0.1338054E-008  0.3860095E+03  0.7957747E-01  0.3425402E+00
         13   -1    0    0    0    0  0.00000000000E+00  0.00000000000E+00  0.14999999963E+04  0.15000000000E+04  0.10566000000E+00 0.  1.
        994   -1    0    0    0    0 -0.00000000000E+00 -0.00000000000E+00  0.11368683772E-12  0.17120000000E+03  0.17120000000E+03 0.  0.
         13    1    1    2    0    0  0.48007434561E+01  0.10609918671E+02  0.62053979545E+02  0.63137350700E+02  0.10566000000E+00 0.  1.
        994    1    1    2    0    0 -0.48127678410E+01 -0.32022078976E+01  0.12393167857E+01  0.17130205129E+03  0.17120000000E+03 0.  0.
        998    1    1    2    0    0  0.12024384856E-01 -0.74077107734E+01  0.14367066999E+04  0.14367605980E+04  0.10000000000E+02 0.  1.
</event>
<event>
 5    1  0.1338054E-008  0.3810960E+03  0.7957747E-01  0.3446400E+00
         13   -1    0    0    0    0  0.00000000000E+00  0.00000000000E+00  0.14999999963E+04  0.15000000000E+04  0.10566000000E+00 0. -1.
        994   -1    0    0    0    0 -0.00000000000E+00 -0.00000000000E+00  0.11368683772E-12  0.17120000000E+03  0.17120000000E+03 0.  0.
         13    1    1    2    0    0  0.10214511659E+01 -0.21353402013E+02  0.66555406960E+02  0.69904538477E+02  0.10566000000E+00 0. -1.
        994    1    1    2    0    0 -0.11228941463E+02 -0.43283811735E+00  0.40016165294E+01  0.17161506172E+03  0.17120000000E+03 0.  0.
        998    1    1    2    0    0  0.10207490297E+02  0.21786240130E+02  0.14294429728E+04  0.14296803998E+04  0.10000000000E+02 0. -1.
</event>
<event>
 5    1  0.1338054E-008  0.3697381E+03  0.7957747E-01  0.3497096E+00
         13   -1    0    0    0    0  0.00000000000E+00  0.00000000000E+00  0.14999999963E+04  0.15000000000E+04  0.10566000000E+00 0. -1.
        994   -1    0    0    0    0 -0.00000000000E+00 -0.00000000000E+00  0.11368683772E-12  0.17120000000E+03  0.17120000000E+03 0.  0.
         13    1    1    2    0    0  0.39272543863E+01 -0.30397657341E+02  0.45173586632E+02  0.54590337900E+02  0.10566000000E+00 0. -1.
        994    1    1    2    0    0  0.16707592038E+01  0.29711250638E+02  0.12476852240E+02  0.17421441299E+03  0.17120000000E+03 0.  0.
        998    1    1    2    0    0 -0.55980135900E+01  0.68640670293E+00  0.14423495574E+04  0.14423952491E+04  0.10000000000E+02 0. -1.
</event>
<event>
 5    1  0.1338054E-008  0.2596363E+03  0.7957747E-01  0.4234286E+00
         13   -1    0    0    0    0  0.00000000000E+00  0.00000000000E+00  0.14999999963E+04  0.15000000000E+04  0.10566000000E+00 0. -1.
        994   -1    0    0    0    0 -0.00000000000E+00 -0.00000000000E+00  0.11368683772E-12  0.17120000000E+03  0.17120000000E+03 0.  0.
         13    1    1    2    0    0  0.11778478803E+03  0.14926045483E+03  0.30674212048E+03  0.36089150628E+03  0.10566000000E+00 0. -1.
        994    1    1    2    0    0 -0.11216751798E+03 -0.14645675635E+03  0.21224371738E+03  0.32922328159E+03  0.17120000000E+03 0.  0.
        998    1    1    2    0    0 -0.56172700443E+01 -0.28036984789E+01  0.98101415842E+03  0.98108521214E+03  0.10000000000E+02 0. -1.
</event>
<event>
 5    1  0.1338054E-008  0.3805452E+03  0.7957747E-01  0.3448788E+00
         13   -1    0    0    0    0  0.00000000000E+00  0.00000000000E+00  0.14999999963E+04  0.15000000000E+04  0.10566000000E+00 0. -1.
        994   -1    0    0    0    0 -0.00000000000E+00 -0.00000000000E+00  0.11368683772E-12  0.17120000000E+03  0.17120000000E+03 0.  0.
         13    1    1    2    0    0  0.30269089994E+02  0.28993996162E+02  0.20769569384E+03  0.21188294416E+03  0.10566000000E+00 0. -1.
        994    1    1    2    0    0 -0.31363055009E+02 -0.18514232710E+02  0.82969774964E+01  0.17522756024E+03  0.17120000000E+03 0.  0.
        998    1    1    2    0    0  0.10939650156E+01 -0.10479763452E+02  0.12840073249E+04  0.12840894956E+04  0.10000000000E+02 0. -1.
</event>
<event>
 5    1  0.1338054E-008  0.3760516E+03  0.7957747E-01  0.3468533E+00
         13   -1    0    0    0    0  0.00000000000E+00  0.00000000000E+00  0.14999999963E+04  0.15000000000E+04  0.10566000000E+00 0. -1.
        994   -1    0    0    0    0 -0.00000000000E+00 -0.00000000000E+00  0.11368683772E-12  0.17120000000E+03  0.17120000000E+03 0.  0.
         13    1    1    2    0    0 -0.96738106972E+01 -0.32492832216E+02  0.10356180220E+03  0.10896983435E+03  0.10566000000E+00 0. -1.
        994    1    1    2    0    0 -0.26219617439E+02  0.84061781421E+00  0.84741902753E+01  0.17340538307E+03  0.17120000000E+03 0.  0.
        998    1    1    2    0    0  0.35893428136E+02  0.31652214402E+02  0.13879640038E+04  0.13888247826E+04  0.10000000000E+02 0. -1.
</event>
<event>
 5    1  0.1338054E-008  0.3810626E+03  0.7957747E-01  0.3446545E+00
         13   -1    0    0    0    0  0.00000000000E+00  0.00000000000E+00  0.14999999963E+04  0.15000000000E+04  0.10566000000E+00 0.  1.
        994   -1    0    0    0    0 -0.00000000000E+00 -0.00000000000E+00  0.11368683772E-12  0.17120000000E+03  0.17120000000E+03 0.  0.
         13    1    1    2    0    0  0.12283269897E+02 -0.25688508858E+01  0.20117393746E+02  0.23710723510E+02  0.10566000000E+00 0.  1.
        994    1    1    2    0    0 -0.13833777751E+02  0.28494874867E+01  0.42625716772E+01  0.17183452070E+03  0.17120000000E+03 0.  0.
        998    1    1    2    0    0  0.15505078547E+01 -0.28063660091E+00  0.14756200309E+04  0.14756547558E+04  0.10000000000E+02 0.  1.
</event>
<event>
 5    1  0.1338054E-008  0.3848646E+03  0.7957747E-01  0.3430246E+00
         13   -1    0    0    0    0  0.00000000000E+00  0.00000000000E+00  0.14999999963E+04  0.15000000000E+04  0.10566000000E+00 0. -1.
        994   -1    0    0    0    0 -0.00000000000E+00 -0.00000000000E+00  0.11368683772E-12  0.17120000000E+03  0.17120000000E+03 0.  0.
         13    1    1    2    0    0 -0.20041885245E+02 -0.50369719652E+00  0.11892990503E+03  0.12060789506E+03  0.10566000000E+00 0. -1.
        994    1    1    2    0    0  0.12276024067E+02 -0.66321650809E+01  0.23381522434E+01  0.17178356539E+03  0.17120000000E+03 0.  0.
        998    1    1    2    0    0  0.77658611783E+01  0.71358622775E+01  0.13787319390E+04  0.13788085396E+04  0.10000000000E+02 0. -1.
</event>
<event>
 5    1  0.1338054E-008  0.3805435E+03  0.7957747E-01  0.3448795E+00
         13   -1    0    0    0    0  0.00000000000E+00  0.00000000000E+00  0.14999999963E+04  0.15000000000E+04  0.10566000000E+00 0.  1.
        994   -1    0    0    0    0 -0.00000000000E+00 -0.00000000000E+00  0.11368683772E-12  0.17120000000E+03  0.17120000000E+03 0.  0.
         13    1    1    2    0    0 -0.57234110939E+02  0.72795363331E+01  0.34747759472E+03  0.35223490046E+03  0.10566000000E+00 0.  1.
        994    1    1    2    0    0  0.52450472663E+02 -0.53898163594E+02  0.22969370753E+02  0.18839611491E+03  0.17120000000E+03 0.  0.
        998    1    1    2    0    0  0.47836382764E+01  0.46618627261E+02  0.11295530308E+04  0.11305689846E+04  0.10000000000E+02 0.  1.
</event>
<event>
 5    1  0.1338054E-008  0.3745214E+03  0.7957747E-01  0.3475366E+00
         13   -1    0    0    0    0  0.00000000000E+00  0.00000000000E+00  0.14999999963E+04  0.15000000000E+04  0.10566000000E+00 0. -1.
        994   -1    0    0    0    0 -0.00000000000E+00 -0.00000000000E+00  0.11368683772E-12  0.17120000000E+03  0.17120000000E+03 0.  0.
         13    1    1    2    0    0  0.31894881794E+02  0.22599218423E+02  0.58676113849E+02  0.70504649907E+02  0.10566000000E+00 0. -1.
        994    1    1    2    0    0 -0.99866359161E+01  0.42792231206E+02  0.20240621879E+02  0.17790455509E+03  0.17120000000E+03 0.  0.
        998    1    1    2    0    0 -0.21908245878E+02 -0.65391449629E+02  0.14210832606E+04  0.14227907950E+04  0.10000000000E+02 0. -1.
</event>
<event>
 5    1  0.1338054E-008  0.3856913E+03  0.7957747E-01  0.3426745E+00
         13   -1    0    0    0    0  0.00000000000E+00  0.00000000000E+00  0.14999999963E+04  0.15000000000E+04  0.10566000000E+00 0. -1.
        994   -1    0    0    0    0 -0.00000000000E+00 -0.00000000000E+00  0.11368683772E-12  0.17120000000E+03  0.17120000000E+03 0.  0.
         13    1    1    2    0    0  0.84133541142E+01  0.13818440913E+02  0.93251151516E+02  0.94644187671E+02  0.10566000000E+00 0. -1.
        994    1    1    2    0    0 -0.23235029034E+01 -0.24076404493E+02  0.32094309961E+01  0.17293007941E+03  0.17120000000E+03 0.  0.
        998    1    1    2    0    0 -0.60898512108E+01  0.10257963581E+02  0.14035394138E+04  0.14036257329E+04  0.10000000000E+02 0. -1.
</event>
<event>
 5    1  0.1338054E-008  0.3693362E+03  0.7957747E-01  0.3498947E+00
         13   -1    0    0    0    0  0.00000000000E+00  0.00000000000E+00  0.14999999963E+04  0.15000000000E+04  0.10566000000E+00 0. -1.
        994   -1    0    0    0    0 -0.00000000000E+00 -0.00000000000E+00  0.11368683772E-12  0.17120000000E+03  0.17120000000E+03 0.  0.
         13    1    1    2    0    0  0.21375347917E+01 -0.17256415523E+02  0.11436565133E+02  0.20812475051E+02  0.10566000000E+00 0. -1.
        994    1    1    2    0    0 -0.29219691498E+01  0.13528054636E+02  0.10280543706E+02  0.17206590524E+03  0.17120000000E+03 0.  0.
        998    1    1    2    0    0  0.78443435807E+00  0.37283608868E+01  0.14782828874E+04  0.14783216197E+04  0.10000000000E+02 0. -1.
</event>
<event>
 5    1  0.1338054E-008  0.3765846E+03  0.7957747E-01  0.3466166E+00
         13   -1    0    0    0    0  0.00000000000E+00  0.00000000000E+00  0.14999999963E+04  0.15000000000E+04  0.10566000000E+00 0.  1.
        994   -1    0    0    0    0 -0.00000000000E+00 -0.00000000000E+00  0.11368683772E-12  0.17120000000E+03  0.17120000000E+03 0.  0.
         13    1    1    2    0    0 -0.10090406752E+02 -0.28912076869E+02  0.74960397271E+02  0.80974050290E+02  0.10566000000E+00 0.  1.
        994    1    1    2    0    0  0.99885233254E+01  0.26797084897E+02  0.86374715620E+01  0.17378693930E+03  0.17120000000E+03 0.  0.
        998    1    1    2    0    0  0.10188342688E+00  0.21149919723E+01  0.14164021274E+04  0.14164390104E+04  0.10000000000E+02 0.  0.
</event>
<event>
 5    1  0.1338054E-008  0.3705585E+03  0.7957747E-01  0.3493328E+00
         13   -1    0    0    0    0  0.00000000000E+00  0.00000000000E+00  0.14999999963E+04  0.15000000000E+04  0.10566000000E+00 0.  1.
        994   -1    0    0    0    0 -0.00000000000E+00 -0.00000000000E+00  0.11368683772E-12  0.17120000000E+03  0.17120000000E+03 0.  0.
         13    1    1    2    0    0  0.20075605570E+02  0.11018214216E+03  0.40864476144E+03  0.42371415672E+03  0.10566000000E+00 0.  1.
        994    1    1    2    0    0 -0.28651402898E+02 -0.10408326171E+03  0.53254757798E+02  0.20928386819E+03  0.17120000000E+03 0.  0.
        998    1    1    2    0    0  0.85757973278E+01 -0.60988804473E+01  0.10381004770E+04  0.10382019751E+04  0.10000000000E+02 0.  0.
</event>
<event>
 5    1  0.1338054E-008  0.3942611E+03  0.7957747E-01  0.3391320E+00
         13   -1    0    0    0    0  0.00000000000E+00  0.00000000000E+00  0.14999999963E+04  0.15000000000E+04  0.10566000000E+00 0. -1.
        994   -1    0    0    0    0 -0.00000000000E+00 -0.00000000000E+00  0.11368683772E-12  0.17120000000E+03  0.17120000000E+03 0.  0.
         13    1    1    2    0    0  0.35292123961E+02  0.90540654104E+02  0.23221063935E+03  0.25172392864E+03  0.10566000000E+00 0. -1.
        994    1    1    2    0    0  0.89049566329E+02 -0.46842144177E+02  0.64269555847E+02  0.20871997399E+03  0.17120000000E+03 0.  0.
        998    1    1    2    0    0 -0.12434169029E+03 -0.43698509927E+02  0.12035198011E+04  0.12107560974E+04  0.10000000000E+02 0. -1.
</event>
<event>
 5    1  0.1338054E-008  0.3182556E+03  0.7957747E-01  0.3773736E+00
         13   -1    0    0    0    0  0.00000000000E+00  0.00000000000E+00  0.14999999963E+04  0.15000000000E+04  0.10566000000E+00 0. -1.
        994   -1    0    0    0    0 -0.00000000000E+00 -0.00000000000E+00  0.11368683772E-12  0.17120000000E+03  0.17120000000E+03 0.  0.
         13    1    1    2    0    0  0.22602076888E+03 -0.13706653983E+03  0.44974889943E+03  0.52167682334E+03  0.10566000000E+00 0. -1.
        994    1    1    2    0    0 -0.26980381721E+03  0.71174922169E+02  0.52823144184E+03  0.62144820016E+03  0.17120000000E+03 0.  0.
        998    1    1    2    0    0  0.43783048334E+02  0.65891617658E+02  0.52201965500E+03  0.52807497650E+03  0.10000000000E+02 0. -1.
</event>
<event>
 5    1  0.1338054E-008  0.3812752E+03  0.7957747E-01  0.3445625E+00
         13   -1    0    0    0    0  0.00000000000E+00  0.00000000000E+00  0.14999999963E+04  0.15000000000E+04  0.10566000000E+00 0. -1.
        994   -1    0    0    0    0 -0.00000000000E+00 -0.00000000000E+00  0.11368683772E-12  0.17120000000E+03  0.17120000000E+03 0.  0.
         13    1    1    2    0    0  0.26635494862E+02  0.12805970821E+02  0.14340786450E+03  0.14642154636E+03  0.10566000000E+00 0. -1.
        994    1    1    2    0    0  0.47560660005E+01 -0.13145272589E+01  0.35718534395E+01  0.17130833687E+03  0.17120000000E+03 0.  0.
        998    1    1    2    0    0 -0.31391560863E+02 -0.11491443562E+02  0.13530202783E+04  0.13534701168E+04  0.10000000000E+02 0. -1.
</event>
<event>
 5    1  0.1338054E-008  0.3843027E+03  0.7957747E-01  0.3432635E+00
         13   -1    0    0    0    0  0.00000000000E+00  0.00000000000E+00  0.14999999963E+04  0.15000000000E+04  0.10566000000E+00 0. -1.
        994   -1    0    0    0    0 -0.00000000000E+00 -0.00000000000E+00  0.11368683772E-12  0.17120000000E+03  0.17120000000E+03 0.  0.
         13    1    1    2    0    0  0.11408006536E+02 -0.94247277886E+01  0.54715185157E+02  0.56680955865E+02  0.10566000000E+00 0. -1.
        994    1    1    2    0    0 -0.77044579895E+01  0.78260775549E+01  0.23743636103E+01  0.17156830641E+03  0.17120000000E+03 0.  0.
        998    1    1    2    0    0 -0.37035485464E+01  0.15986502337E+01  0.14429104475E+04  0.14429507377E+04  0.10000000000E+02 0. -1.
</event>
<event>
 5    1  0.1338054E-008  0.3047927E+03  0.7957747E-01  0.3862387E+00
         13   -1    0    0    0    0  0.00000000000E+00  0.00000000000E+00  0.14999999963E+04  0.15000000000E+04  0.10566000000E+00 0. -1.
        994   -1    0    0    0    0 -0.00000000000E+00 -0.00000000000E+00  0.11368683772E-12  0.17120000000E+03  0.17120000000E+03 0.  0.
         13    1    1    2    0    0 -0.16259236437E+03 -0.21518543580E+03  0.66375203642E+03  0.71645504098E+03  0.10566000000E+00 0. -1.
        994    1    1    2    0    0  0.11737157947E+03  0.13739713099E+03  0.22100340989E+03  0.33287536174E+03  0.17120000000E+03 0.  0.
        998    1    1    2    0    0  0.45220784903E+02  0.77788304809E+02  0.61524454997E+03  0.62186959728E+03  0.10000000000E+02 0. -1.
</event>
<event>
 5    1  0.1338054E-008  0.3740842E+03  0.7957747E-01  0.3477329E+00
         13   -1    0    0    0    0  0.00000000000E+00  0.00000000000E+00  0.14999999963E+04  0.15000000000E+04  0.10566000000E+00 0. -1.
        994   -1    0    0    0    0 -0.00000000000E+00 -0.00000000000E+00  0.11368683772E-12  0.17120000000E+03  0.17120000000E+03 0.  0.
         13    1    1    2    0    0 -0.14261194166E+02  0.16818241205E+02  0.12832875600E+02  0.25513305479E+02  0.10566000000E+00 0. -1.
        994    1    1    2    0    0  0.69631839945E+01 -0.16704397875E+02  0.14277373612E+02  0.17274491667E+03  0.17120000000E+03 0.  0.
        998    1    1    2    0    0  0.72980101714E+01 -0.11384332971E+00  0.14728897471E+04  0.14729417778E+04  0.10000000000E+02 0. -1.
</event>
<event>
 5    1  0.1338054E-008  0.3805010E+03  0.7957747E-01  0.3448980E+00
         13   -1    0    0    0    0  0.00000000000E+00  0.00000000000E+00  0.14999999963E+04  0.15000000000E+04  0.10566000000E+00 0. -1.
        994   -1    0    0    0    0 -0.00000000000E+00 -0.00000000000E+00  0.11368683772E-12  0.17120000000E+03  0.17120000000E+03 0.  0.
         13    1    1    2    0    0 -0.61368791186E+01  0.82179847624E+01  0.11805410287E+02  0.15638907729E+02  0.10566000000E+00 0. -1.
        994    1    1    2    0    0  0.51171962432E+01 -0.80361681217E+01  0.41834561411E+01  0.17151590889E+03  0.17120000000E+03 0.  0.
        998    1    1    2    0    0  0.10196828754E+01 -0.18181664071E+00  0.14840111299E+04  0.14840451834E+04  0.10000000000E+02 0. -1.
</event>
<event>
 5    1  0.1338054E-008  0.3847128E+03  0.7957747E-01  0.3430891E+00
         13   -1    0    0    0    0  0.00000000000E+00  0.00000000000E+00  0.14999999963E+04  0.15000000000E+04  0.10566000000E+00 0.  1.
        994   -1    0    0    0    0 -0.00000000000E+00 -0.00000000000E+00  0.11368683772E-12  0.17120000000E+03  0.17120000000E+03 0.  0.
         13    1    1    2    0    0  0.13402554701E+00 -0.11279185249E+02  0.34479693425E+02  0.36278070586E+02  0.10566000000E+00 0.  1.
        994    1    1    2    0    0 -0.17672964725E+01  0.14687046950E+02  0.24934444790E+01  0.17185601517E+03  0.17120000000E+03 0.  0.
        998    1    1    2    0    0  0.16332709255E+01 -0.34078617016E+01  0.14630268584E+04  0.14630659142E+04  0.10000000000E+02 0.  1.
</event>
